/*--------------------------------*- C++ -*----------------------------------*\
| =========                 |                                                 |
| \\      /  F ield         | OpenFOAM: The Open Source CFD Toolbox           |
|  \\    /   O peration     | Version:  2506                                  |
|   \\  /    A nd           | Website:  www.openfoam.com                      |
|    \\/     M anipulation  |                                                 |
\*---------------------------------------------------------------------------*/
FoamFile
{
    version     2.0;
    format      ascii;
    arch        "LSB;label=32;scalar=64";
    class       volScalarField;
    location    "22000/water";
    object      alphat;
}
// * * * * * * * * * * * * * * * * * * * * * * * * * * * * * * * * * * * * * //

dimensions      [1 -1 -1 0 0 0 0];

internalField   nonuniform List<scalar> 
2600
(
0.040489031
0.04048893
0.040488932
0.040488969
0.04048893
0.040488424
0.040485257
0.04046703
0.040362559
0.039762099
0.036475623
0.024118064
0.014862723
0.039376404
0.039376463
0.039376584
0.03937667
0.03937627
0.039373342
0.039357935
0.03928206
0.038918252
0.037247647
0.030707814
0.017504579
0.016810247
0.03845331
0.038453299
0.038453385
0.038453188
0.038451259
0.038441479
0.038397507
0.038208927
0.037432867
0.034484227
0.025768479
0.01464355
0.017680736
0.037674097
0.037673994
0.037673876
0.037672833
0.03766736
0.037643826
0.037549741
0.037190974
0.035896577
0.031717985
0.022022178
0.013507107
0.017935556
0.037006829
0.037006634
0.03700605
0.037003229
0.036991211
0.03694503
0.036777672
0.036201229
0.034343725
0.029136321
0.019390213
0.01332192
0.01787019
0.036428097
0.036427705
0.036426239
0.036420305
0.036397905
0.036319194
0.03605724
0.035231095
0.03281421
0.026833154
0.017684561
0.01376901
0.017658004
0.035920433
0.035919673
0.03591673
0.035905979
0.035868817
0.035747845
0.035374204
0.034281783
0.031338745
0.024847734
0.016751764
0.014701365
0.017395975
0.035470606
0.03546924
0.035464057
0.035446499
0.035390052
0.035218253
0.034721129
0.033357857
0.029935921
0.02320089
0.016491475
0.016024754
0.017137191
0.035068412
0.03506614
0.035057811
0.035031314
0.034951338
0.034722033
0.034094772
0.032463227
0.028616047
0.021918168
0.016839593
0.01764423
0.016909598
0.034705855
0.034702323
0.034689851
0.034652315
0.034545228
0.034254009
0.03349406
0.031599319
0.027389013
0.021039007
0.017742707
0.01944683
0.016725717
0.034376582
0.0343714
0.034353768
0.03430331
0.034166516
0.033811296
0.032918607
0.030765036
0.026274288
0.020612421
0.019134169
0.021310298
0.0165878
0.034075484
0.034068256
0.034044512
0.033979658
0.033811775
0.033392551
0.032367695
0.029958513
0.025310236
0.020682514
0.02092045
0.023125093
0.01649134
0.03379842
0.033788771
0.033758129
0.033677993
0.033478994
0.032997353
0.031839672
0.029180919
0.024557973
0.021270679
0.022983308
0.024813263
0.016428198
0.033542011
0.033529635
0.033491576
0.033396025
0.033167279
0.032625685
0.031331905
0.02844226
0.024095308
0.02236241
0.02519592
0.026333969
0.016389375
0.033303501
0.033288203
0.033242589
0.033132389
0.0328766
0.032277488
0.030841496
0.027768047
0.024001078
0.023903802
0.027443847
0.027676786
0.016366908
0.033080659
0.033062404
0.03300959
0.032886524
0.032607559
0.031952311
0.030367144
0.027204004
0.02433601
0.025808536
0.029640409
0.028850257
0.01635471
0.032871707
0.032850677
0.032791627
0.032658586
0.032361164
0.031649138
0.029912405
0.026815112
0.025128026
0.027972561
0.031731261
0.029871995
0.016348606
0.032675278
0.032651931
0.032588332
0.032449362
0.032138606
0.031366538
0.029490156
0.026676983
0.026366619
0.030291378
0.033689748
0.030762439
0.016345973
0.032490392
0.032465523
0.0323999
0.032260198
0.031941021
0.031103392
0.029127149
0.026861558
0.028006318
0.032674378
0.035508202
0.031541613
0.016345289
0.03231644
0.032291251
0.032227075
0.032092906
0.0317693
0.030860473
0.028866522
0.027422391
0.02997661
0.035052625
0.037189756
0.032227633
0.016345749
0.032153193
0.032129366
0.032071151
0.03194966
0.031623986
0.030643051
0.028765901
0.028384665
0.032194873
0.037379728
0.038742713
0.03283612
0.016346971
0.032000817
0.031980587
0.031933965
0.031832869
0.031505423
0.030464305
0.028890208
0.029742268
0.034578895
0.039628039
0.040177388
0.03338011
0.016348812
0.031859898
0.031846136
0.031817892
0.031745018
0.031414332
0.030348687
0.029300795
0.031461308
0.037056243
0.041783221
0.041504536
0.033870256
0.016351246
0.031731488
0.031727775
0.031725824
0.031688525
0.031353059
0.030333689
0.030044462
0.033487923
0.03956915
0.043839375
0.042734578
0.034315152
0.016354289
0.031617156
0.031627852
0.031661123
0.031665646
0.031327616
0.03046839
0.03114581
0.035757861
0.042075206
0.045795594
0.043877213
0.034721702
0.016357969
0.031519059
0.031549348
0.031627545
0.031678558
0.031350386
0.030808116
0.032604582
0.038205562
0.044545297
0.047653852
0.044941234
0.035095454
0.016362308
0.03144002
0.031495925
0.031629136
0.031729781
0.031442847
0.031406232
0.034397781
0.04077106
0.046960464
0.04941777
0.045934484
0.035440886
0.01636731
0.031383622
0.031471952
0.031670108
0.031823119
0.031637179
0.032305487
0.036485149
0.043403916
0.049308923
0.051091864
0.046863895
0.035761637
0.016372969
0.03135431
0.031482519
0.031754745
0.031965285
0.031975484
0.033531428
0.038816232
0.04606436
0.051583768
0.052681066
0.047735561
0.036060692
0.016379266
0.031357497
0.031533412
0.031887427
0.032168112
0.032505945
0.035089408
0.041337344
0.04872249
0.053781403
0.054190403
0.048554837
0.036340517
0.016386174
0.03139966
0.031631057
0.032072922
0.032450915
0.033276474
0.03696535
0.043997167
0.051356522
0.055900493
0.055624809
0.04932644
0.036603249
0.016393659
0.031488427
0.031782428
0.03231711
0.032842099
0.03432751
0.039129414
0.046750331
0.0539509
0.057941207
0.056988872
0.050054079
0.036848496
0.016401672
0.031632621
0.031994973
0.032628309
0.033378944
0.035685988
0.041541299
0.049558965
0.056494683
0.059904718
0.058286905
0.050741227
0.037078061
0.016410157
0.031842264
0.032276621
0.033019162
0.034104839
0.037361928
0.044155835
0.052392714
0.058980325
0.061792815
0.059522757
0.051390026
0.037293993
0.01641906
0.03212853
0.032636021
0.033508771
0.03506418
0.039348109
0.046927805
0.055227859
0.061402782
0.063607641
0.060699936
0.052002676
0.037497695
0.016428334
0.03250367
0.033083204
0.034124296
0.036296098
0.041622402
0.049815357
0.058046134
0.06375886
0.065351545
0.061821637
0.052582579
0.037690193
0.016437945
0.032981001
0.033630796
0.034901058
0.037828732
0.044151814
0.052781869
0.060833584
0.066046678
0.067026699
0.062889499
0.053132467
0.03787253
0.016447871
0.033575094
0.034295804
0.035880365
0.039675448
0.046897154
0.055796504
0.063579599
0.068265331
0.068635567
0.063907354
0.053654301
0.038045473
0.016458088
0.034302368
0.035101605
0.037105069
0.041833721
0.049817347
0.058833934
0.066276154
0.070414393
0.070179108
0.064878397
0.054149994
0.038209783
0.016468569
0.03518228
0.036079356
0.038613765
0.044286507
0.052872738
0.061873599
0.068917178
0.072494027
0.07166019
0.065805211
0.054621165
0.038366085
0.016479288
0.036239046
0.037267816
0.040435161
0.047005441
0.056027181
0.06489892
0.07149803
0.074503823
0.073081485
0.066690102
0.055069329
0.038514918
0.016490218
0.037503424
0.038710797
0.042584054
0.049954871
0.059248944
0.067896469
0.074015187
0.076444646
0.07444548
0.067535122
0.055495822
0.038656744
0.016501334
0.039013508
0.040452278
0.045059727
0.05309584
0.062510852
0.070855338
0.076465327
0.078317613
0.075754307
0.06834217
0.055901829
0.038791955
0.01651261
0.040813311
0.042530167
0.047846816
0.056389303
0.065789809
0.073766506
0.078846463
0.080124249
0.077009865
0.069112938
0.056288385
0.038920882
0.016524019
0.042948317
0.044970322
0.050918053
0.059798374
0.069066313
0.076621958
0.081156906
0.081865784
0.078213916
0.069848936
0.056656391
0.039043802
0.016535536
0.045458363
0.047782279
0.054237931
0.063289371
0.072323472
0.079415187
0.083396323
0.083543309
0.079368003
0.070551478
0.05700662
0.039160945
0.016547135
0.048369465
0.050957536
0.057766435
0.066832214
0.075546531
0.082140719
0.085564109
0.085157786
0.080473465
0.071221692
0.057339724
0.039272491
0.016558793
0.051686883
0.054470378
0.061462083
0.070399897
0.078721967
0.084794889
0.087659674
0.086709971
0.081531413
0.071860518
0.057656237
0.039378579
0.016570485
0.055391452
0.058280521
0.065283655
0.07396753
0.081839599
0.087374098
0.089682317
0.088200389
0.082542722
0.072468709
0.057956581
0.039479305
0.016582184
0.059440034
0.062336502
0.069190805
0.077514015
0.084890584
0.089874893
0.09163116
0.089629295
0.083508015
0.073046829
0.058241066
0.039574725
0.016593867
0.063769509
0.066579758
0.073146334
0.081021512
0.087866775
0.092293846
0.093505088
0.090996658
0.084427658
0.073595251
0.058509889
0.039664854
0.016605507
0.068304237
0.070949199
0.077116184
0.084473774
0.090760545
0.094627493
0.095302732
0.092302148
0.085301756
0.074114161
0.058763141
0.039749663
0.016617076
0.072964058
0.075384426
0.081068603
0.087855846
0.093564687
0.096872311
0.097022472
0.093545144
0.086130163
0.074603561
0.059000805
0.039829089
0.016628546
0.077671308
0.079828434
0.084974097
0.09115387
0.09627237
0.099024748
0.098662472
0.094724768
0.086912501
0.075063285
0.059222766
0.039903031
0.016639886
0.082355894
0.08422961
0.088805547
0.094355003
0.098877153
0.10108129
0.10022076
0.095839932
0.087648194
0.075493016
0.059428825
0.039971354
0.016651063
0.086958173
0.08854304
0.092538433
0.097447434
0.10137306
0.10303856
0.1016953
0.096889416
0.088336514
0.075892317
0.059618707
0.0400339
0.016662042
0.091429954
0.092731142
0.096151119
0.10042049
0.10375465
0.10489345
0.10308413
0.097871946
0.088976646
0.076260669
0.059792089
0.04009049
0.016672785
0.095734151
0.096763738
0.099625096
0.10326474
0.10601716
0.10664322
0.10438548
0.098786304
0.089567755
0.076597514
0.059948617
0.04014094
0.016683254
0.099843653
0.10061768
0.10294513
0.10597219
0.10815659
0.10828563
0.10559786
0.09963142
0.090109061
0.076902305
0.060087939
0.040185066
0.016693409
0.10373985
0.1042762
0.1060993
0.10853633
0.11016981
0.10981901
0.10672019
0.10040647
0.09059992
0.077174561
0.060209733
0.040222698
0.016703208
0.10741111
0.10772806
0.10907883
0.11095227
0.11205459
0.11124238
0.10775188
0.10111096
0.091039894
0.077413917
0.060313741
0.040253698
0.016712611
0.11085137
0.11096674
0.11187796
0.11321669
0.11380971
0.11255546
0.10869288
0.10174482
0.091428821
0.077620183
0.0603998
0.040277969
0.016721578
0.11405892
0.11398958
0.11449361
0.11532787
0.1154349
0.11375871
0.10954375
0.10230841
0.09176687
0.077793383
0.060467875
0.040295472
0.016730071
0.11703543
0.11679704
0.11692508
0.11728555
0.11693091
0.11485334
0.11030565
0.10280262
0.092054585
0.0779338
0.060518083
0.040306238
0.016738058
0.11978511
0.11939209
0.11917369
0.11909088
0.11829936
0.11584127
0.11098036
0.10322882
0.092292905
0.078042
0.060550715
0.040310373
0.016745508
0.12231409
0.12177962
0.12124251
0.12074623
0.11954278
0.11672509
0.11157022
0.10358889
0.092483172
0.07811884
0.060566248
0.040308069
0.016752398
0.12462995
0.12396604
0.12313602
0.12225507
0.12066447
0.11750802
0.11207813
0.10388516
0.092627114
0.078165469
0.060565339
0.040299599
0.016758711
0.12674127
0.12595887
0.12485983
0.12362179
0.1216684
0.11819382
0.11250742
0.10412041
0.092726813
0.078183306
0.060548822
0.040285312
0.016764438
0.12865735
0.12776641
0.12642044
0.12485153
0.12255912
0.11878666
0.11286185
0.10429775
0.092784656
0.078174006
0.060517681
0.040265629
0.016769575
0.13038793
0.12939755
0.12782501
0.12595003
0.12334163
0.11929112
0.11314545
0.10442056
0.092803277
0.078139423
0.060473029
0.040241021
0.016774127
0.131943
0.13086148
0.12908112
0.12692348
0.12402129
0.11971201
0.11336251
0.10449245
0.092785496
0.078081557
0.060416077
0.040212003
0.016778104
0.13333262
0.13216757
0.13019668
0.12777836
0.12460369
0.12005432
0.11351744
0.10451715
0.092734258
0.078002509
0.060348096
0.040179113
0.016781521
0.1345668
0.1333252
0.13117971
0.12852134
0.12509454
0.12032315
0.11361473
0.10449847
0.092652579
0.077904443
0.060270397
0.040142903
0.016784401
0.1356554
0.13434366
0.13203827
0.12915918
0.12549967
0.12052361
0.11365889
0.10444023
0.092543497
0.077789538
0.0601843
0.040103921
0.016786767
0.13660807
0.1352321
0.13278037
0.12969865
0.12582488
0.12066083
0.11365441
0.10434623
0.092410034
0.077659966
0.060091111
0.040062707
0.016788647
0.13743419
0.13599945
0.13341391
0.13014647
0.12607595
0.12073986
0.11360572
0.10422023
0.092255165
0.077517857
0.059992109
0.040019784
0.01679007
0.13814287
0.13665437
0.13394662
0.13050926
0.12625857
0.12076567
0.11351714
0.10406587
0.092081791
0.077365289
0.059888529
0.039975648
0.01679107
0.13874291
0.1372053
0.13438604
0.13079352
0.12637832
0.12074314
0.1133929
0.10388671
0.091892723
0.077204258
0.059781554
0.03993077
0.016791678
0.13924276
0.13766034
0.13473949
0.13100558
0.12644066
0.12067698
0.11323708
0.10368617
0.091690657
0.077036674
0.059672298
0.039885587
0.016791928
0.13965058
0.1380273
0.13501403
0.13115158
0.12645087
0.12057176
0.1130536
0.10346753
0.091478157
0.076864337
0.059561805
0.039840497
0.016791855
0.13997414
0.13831367
0.13521646
0.13123744
0.12641405
0.12043188
0.11284622
0.10323389
0.09125764
0.07668893
0.059451035
0.039795865
0.016791493
0.14022087
0.13852657
0.13535327
0.13126885
0.12633508
0.12026153
0.1126185
0.10298819
0.091031362
0.076512001
0.059340857
0.039752009
0.016790873
0.14039779
0.13867279
0.13543065
0.1312512
0.1262186
0.12006467
0.11237378
0.10273315
0.0908014
0.07633496
0.05923205
0.039709208
0.01679003
0.14051155
0.13875872
0.13545446
0.13118964
0.12606903
0.11984504
0.1121152
0.10247128
0.090569651
0.076159073
0.059125293
0.039667696
0.016788991
0.14056837
0.13879038
0.13543021
0.131089
0.12589049
0.11960614
0.11184564
0.10220491
0.090337823
0.075985456
0.059021171
0.039627665
0.016787787
0.1405741
0.13877341
0.13536307
0.13095383
0.12568687
0.11935121
0.11156776
0.10193611
0.090107438
0.075815067
0.05892013
0.039589058
0.016786443
0.14053419
0.13871307
0.13525787
0.13078836
0.12546177
0.11908326
0.11128402
0.10166678
0.089879832
0.075648718
0.058822514
0.039551819
0.016784979
0.14045371
0.13861427
0.13511914
0.13059655
0.12521855
0.11880507
0.11099663
0.10139859
0.089656151
0.075487025
0.058728336
0.03951623
0.016783415
0.14033741
0.13848158
0.13495107
0.13038211
0.12496034
0.11851919
0.1107076
0.10113305
0.089437396
0.07533055
0.058637917
0.039482411
0.016781769
0.14018967
0.13831926
0.13475759
0.13014845
0.12469001
0.11822797
0.11041875
0.10087145
0.089224334
0.075179398
0.058551679
0.039450446
0.016780062
0.1400146
0.13813127
0.13454233
0.12989876
0.12441024
0.11793355
0.11013171
0.10061491
0.089017582
0.075034253
0.05846976
0.039420384
0.016778313
0.13981601
0.13792129
0.13430868
0.12963602
0.12412349
0.11763788
0.10984794
0.10036441
0.088817679
0.074895571
0.058392286
0.039392257
0.016776536
0.13959743
0.13769274
0.1340598
0.12936295
0.12383203
0.11734273
0.10956867
0.10012061
0.088625432
0.074763608
0.058319344
0.039366081
0.016774749
0.13936216
0.1374488
0.1337986
0.1290821
0.12353793
0.11704966
0.10929496
0.099884478
0.088441324
0.074638555
0.058250979
0.039341851
0.016772964
0.13911324
0.13719241
0.13352777
0.12879577
0.12324305
0.11676005
0.10902783
0.099656819
0.088265722
0.074520544
0.058187203
0.039319547
0.016771194
0.13885345
0.13692626
0.13324976
0.12850607
0.12294904
0.11647509
0.10876839
0.099438213
0.088098901
0.07440965
0.058127991
0.039299134
0.01676945
0.13858536
0.1366528
0.1329668
0.12821485
0.12265732
0.11619612
0.10851746
0.099229117
0.087941049
0.074305887
0.058073286
0.039280564
0.01676774
0.13831127
0.13637424
0.13268084
0.12792377
0.12236944
0.11592422
0.10827571
0.09902988
0.087792271
0.074209216
0.058022999
0.039263776
0.016766073
0.13803321
0.13609252
0.1323937
0.1276345
0.12208668
0.11566029
0.10804369
0.09884074
0.087652592
0.074119544
0.057977012
0.039248699
0.016764455
0.13775304
0.13580947
0.1321071
0.12734849
0.12181017
0.11540508
0.1078218
0.098661843
0.087521968
0.074036733
0.057935186
0.039235254
0.016762891
0.13747247
0.13552675
0.13182256
0.12706703
0.12154086
0.11515921
0.10761036
0.098493247
0.087400296
0.07396061
0.05789736
0.039223359
0.016761386
0.13719303
0.13524587
0.13154143
0.12679124
0.12127956
0.11492317
0.10740958
0.098334935
0.087287418
0.073890968
0.057863364
0.039212925
0.016759942
0.13691611
0.13496814
0.13126492
0.12652207
0.12102696
0.11469735
0.10721957
0.098186829
0.087183139
0.073827581
0.057833015
0.039203866
0.016758561
0.13664296
0.13469478
0.13099408
0.12626039
0.12078364
0.11448204
0.10704039
0.098048799
0.08708723
0.073770206
0.057806131
0.039196095
0.016757246
0.13637469
0.13442684
0.13072985
0.1260069
0.12055005
0.11427747
0.10687202
0.097920676
0.086999441
0.073718595
0.057782526
0.039189529
0.016755997
0.13611229
0.13416526
0.13047305
0.12576225
0.1203266
0.11408376
0.10671441
0.097802255
0.086919506
0.073672491
0.05776202
0.039184087
0.016754815
0.13585665
0.13391088
0.13022439
0.12552695
0.12011358
0.11390101
0.10656745
0.097693307
0.086847144
0.07363164
0.057744435
0.039179691
0.0167537
0.13560854
0.13366443
0.12998449
0.12530145
0.11991123
0.11372923
0.10643099
0.097593574
0.086782064
0.073595782
0.057729596
0.039176269
0.016752651
0.13536866
0.13342654
0.12975388
0.12508612
0.1197197
0.1135684
0.10630483
0.097502778
0.086723965
0.073564659
0.057717332
0.039173748
0.01675167
0.13513756
0.13319775
0.12953299
0.12488122
0.11953909
0.11341841
0.10618876
0.097420616
0.086672534
0.073538011
0.057707474
0.03917206
0.016750755
0.13491574
0.13297851
0.12932216
0.12468695
0.11936941
0.11327913
0.10608252
0.09734676
0.086627448
0.073515573
0.057699853
0.039171135
0.016749905
0.13470357
0.13276914
0.12912165
0.12450342
0.11921063
0.11315037
0.10598578
0.097280859
0.086588371
0.073497076
0.0576943
0.039170906
0.016749121
0.13450134
0.13256991
0.12893161
0.12433067
0.11906261
0.11303187
0.10589823
0.097222542
0.086554956
0.07348225
0.057690647
0.039171306
0.016748399
0.13430924
0.13238096
0.12875213
0.12416866
0.1189252
0.11292334
0.10581948
0.097171417
0.086526848
0.07347082
0.057688727
0.039172269
0.016747738
0.13412738
0.13220238
0.12858321
0.12401728
0.11879816
0.11282444
0.10574915
0.09712708
0.086503689
0.073462515
0.057688375
0.039173729
0.016747135
0.13395577
0.13203416
0.12842478
0.12387637
0.11868121
0.11273482
0.10568681
0.097089119
0.086485118
0.073457066
0.057689429
0.039175624
0.016746589
0.13379439
0.13187625
0.12827672
0.1237457
0.11857404
0.11265408
0.10563204
0.097057123
0.086470785
0.073454214
0.057691738
0.039177896
0.016746097
0.13364315
0.13172853
0.12813887
0.12362503
0.11847632
0.11258182
0.10558442
0.097030688
0.086460349
0.073453711
0.057695156
0.039180491
0.016745655
0.13350191
0.13159084
0.12801101
0.12351409
0.1183877
0.11251764
0.10554352
0.097009424
0.086453487
0.073455327
0.057699552
0.039183361
0.016745262
0.13337053
0.13146303
0.12789292
0.12341258
0.11830781
0.11246114
0.10550895
0.09699296
0.086449895
0.073458848
0.057704805
0.039186462
0.016744913
0.13324883
0.13134488
0.12778437
0.12332021
0.11823631
0.11241193
0.10548032
0.096980945
0.086449293
0.073464079
0.05771081
0.039189759
0.016744608
0.13313663
0.1312362
0.12768511
0.12323667
0.11817285
0.11236963
0.10545724
0.096973051
0.086451419
0.073470843
0.057717469
0.039193218
0.016744343
0.13303372
0.13113675
0.12759487
0.12316166
0.11811707
0.11233388
0.10543938
0.096968966
0.086456031
0.073478977
0.057724699
0.039196812
0.016744117
0.13293988
0.13104632
0.12751339
0.12309486
0.11806863
0.11230432
0.10542638
0.096968392
0.086462899
0.073488331
0.05773242
0.039200517
0.016743928
0.13285486
0.13096462
0.12744038
0.12303594
0.11802717
0.11228057
0.10541791
0.096971039
0.086471803
0.07349876
0.057740557
0.039204307
0.016743774
0.1327784
0.13089139
0.12737551
0.12298456
0.11799232
0.11226228
0.10541362
0.096976621
0.086482524
0.073510121
0.057749038
0.039208159
0.016743653
0.13271018
0.13082629
0.12731846
0.12294035
0.1179637
0.11224907
0.10541317
0.096984847
0.086494846
0.073522273
0.057757789
0.039212047
0.016743564
0.13264984
0.13076896
0.12726883
0.12290291
0.1179409
0.11224054
0.10541621
0.096995426
0.086508548
0.073535073
0.057766733
0.039215946
0.016743504
0.132597
0.130719
0.12722621
0.12287182
0.1179235
0.11223629
0.10542238
0.09700806
0.086523408
0.073548374
0.057775794
0.039219826
0.016743471
0.13255122
0.13067599
0.12719017
0.12284663
0.11791106
0.11223591
0.10543132
0.097022453
0.086539205
0.073562031
0.057784893
0.039223661
0.016743462
0.13251204
0.13063946
0.12716024
0.12282687
0.11790314
0.112239
0.10544266
0.097038315
0.086555724
0.073575904
0.057793957
0.039227424
0.016743475
0.13247899
0.13060894
0.12713595
0.1228121
0.11789929
0.11224515
0.10545607
0.09705537
0.086572763
0.073589864
0.057802915
0.039231089
0.016743506
0.13245162
0.13058398
0.12711685
0.12280185
0.1178991
0.11225398
0.10547122
0.097073365
0.086590139
0.073603794
0.05781171
0.039234638
0.016743554
0.13242946
0.13056411
0.12710249
0.12279571
0.11790217
0.11226514
0.10548783
0.097092078
0.086607698
0.073617599
0.057820294
0.039238056
0.016743614
0.13241213
0.13054895
0.12709248
0.1227933
0.11790815
0.11227834
0.10550564
0.09711132
0.086625311
0.073631207
0.057828634
0.039241335
0.016743686
0.13239925
0.13053811
0.12708644
0.12279428
0.11791674
0.1122933
0.10552445
0.09713094
0.086642882
0.073644565
0.057836713
0.039244474
0.016743768
0.13239051
0.13053129
0.12708408
0.12279834
0.11792766
0.11230981
0.10554409
0.097150821
0.086660343
0.073657645
0.057844524
0.039247477
0.016743858
0.13238563
0.1305282
0.12708512
0.12280523
0.1179407
0.11232768
0.10556441
0.097170874
0.086677646
0.07367043
0.057852071
0.039250344
0.016743955
0.13238439
0.13052861
0.12708932
0.12281474
0.11795566
0.11234676
0.10558532
0.097191027
0.086694758
0.073682914
0.057859354
0.039253057
0.016744059
0.13238655
0.1305323
0.12709646
0.12282665
0.11797236
0.1123669
0.10560669
0.097211216
0.086711646
0.073695085
0.057866364
0.039255638
0.01674417
0.13239192
0.13053905
0.12710633
0.12284076
0.11799061
0.11238795
0.10562843
0.097231371
0.086728275
0.073706931
0.057873096
0.039258095
0.016744286
0.13240025
0.13054863
0.1271187
0.12285686
0.11801024
0.11240976
0.10565042
0.097251413
0.086744591
0.073718403
0.057879564
0.039260433
0.016744409
0.1324113
0.13056079
0.12713333
0.12287472
0.11803104
0.11243217
0.10567253
0.097271244
0.086760527
0.073729483
0.057885754
0.03926265
0.016744536
0.13242478
0.13057525
0.12714994
0.12289408
0.11805277
0.11245497
0.10569459
0.097290748
0.086775994
0.073740141
0.05789165
0.039264743
0.016744667
0.13244036
0.13059169
0.12716823
0.12291467
0.1180752
0.11247797
0.10571646
0.097309793
0.086790928
0.073750332
0.057897232
0.039266705
0.016744801
0.13245771
0.13060978
0.12718789
0.12293619
0.11809807
0.11250095
0.10573795
0.097328257
0.086805259
0.073760009
0.057902477
0.039268531
0.016744936
0.13247646
0.13062917
0.12720859
0.12295836
0.11812113
0.1125237
0.1057589
0.097346047
0.086818915
0.073769133
0.057907368
0.039270213
0.016745071
0.13249627
0.13064953
0.12723001
0.12298089
0.11814414
0.11254603
0.10577919
0.097363074
0.086831841
0.073777672
0.05791189
0.039271747
0.016745204
0.13251682
0.13067055
0.12725188
0.12300353
0.1181669
0.11256779
0.10579871
0.097379269
0.086843998
0.073785608
0.057916036
0.039273132
0.016745334
0.13253783
0.13069196
0.12727395
0.12302607
0.11818923
0.11258887
0.1058174
0.097394594
0.086855368
0.073792937
0.05791981
0.039274371
0.016745459
0.13255906
0.13071353
0.127296
0.12304835
0.11821103
0.1126092
0.10583521
0.097409036
0.086865958
0.073799675
0.057923225
0.03927547
0.016745579
0.13258035
0.13073509
0.1273179
0.12307026
0.11823224
0.11262874
0.10585214
0.097422608
0.086875792
0.073805848
0.057926303
0.03927644
0.016745694
0.13260157
0.13075653
0.12733955
0.12309173
0.1182528
0.11264749
0.1058682
0.097435345
0.086884911
0.073811495
0.057929071
0.039277294
0.016745803
0.13262267
0.1307778
0.12736091
0.12311274
0.11827273
0.11266547
0.10588344
0.097447292
0.086893366
0.07381666
0.057931559
0.039278046
0.016745907
0.1326436
0.13079885
0.12738194
0.12313328
0.11829202
0.11268269
0.10589789
0.097458501
0.086901209
0.073821388
0.057933801
0.039278711
0.016746006
0.13266436
0.13081967
0.12740264
0.12315333
0.11831068
0.11269919
0.10591159
0.09746902
0.086908486
0.07382572
0.057935821
0.039279299
0.016746102
0.13268491
0.13084024
0.12742299
0.1231729
0.11832873
0.112715
0.10592458
0.097478889
0.086915238
0.073829689
0.057937644
0.039279821
0.016746194
0.13270524
0.13086053
0.12744296
0.12319196
0.11834616
0.11273011
0.10593687
0.097488132
0.086921492
0.073833317
0.057939284
0.039280282
0.016746283
0.1327253
0.13088051
0.12746252
0.12321049
0.11836295
0.11274452
0.10594848
0.097496761
0.086927261
0.073836618
0.05794075
0.039280686
0.016746369
0.13274501
0.13090009
0.1274816
0.12322844
0.11837906
0.11275821
0.10595938
0.097504774
0.086932548
0.073839596
0.057942045
0.039281033
0.016746452
0.13276429
0.1309192
0.12750012
0.12324573
0.11839444
0.11277114
0.10596956
0.097512162
0.086937349
0.073842248
0.057943166
0.03928132
0.016746532
0.13278302
0.13093774
0.12751801
0.1232623
0.11840904
0.11278328
0.105979
0.09751891
0.086941657
0.07384457
0.057944111
0.039281547
0.016746608
0.13280112
0.13095561
0.12753516
0.12327808
0.1184228
0.11279459
0.10598767
0.097525006
0.086945464
0.073846559
0.057944876
0.039281711
0.016746679
0.13281847
0.13097271
0.12755151
0.123293
0.11843568
0.11280504
0.10599556
0.097530447
0.086948772
0.073848215
0.057945463
0.039281812
0.016746746
0.132835
0.13098897
0.12756698
0.12330701
0.11844766
0.11281463
0.10600268
0.09753524
0.08695159
0.073849547
0.057945876
0.039281851
0.016746807
0.13285064
0.13100434
0.12758153
0.1233201
0.11845872
0.11282335
0.10600903
0.097539406
0.086953939
0.07385057
0.057946125
0.039281832
0.016746863
0.13286536
0.13101879
0.12759515
0.12333225
0.11846887
0.11283124
0.10601465
0.097542978
0.086955848
0.073851309
0.057946224
0.039281762
0.016746913
0.13287917
0.13103231
0.12760784
0.12334348
0.11847815
0.11283833
0.10601958
0.097546
0.086957358
0.073851793
0.057946193
0.039281649
0.016746958
0.13289207
0.13104492
0.12761964
0.12335384
0.1184866
0.11284467
0.10602388
0.097548526
0.086958512
0.073852056
0.057946051
0.0392815
0.016746997
0.13290411
0.13105668
0.12763058
0.12336337
0.11849428
0.11285034
0.10602761
0.097550609
0.086959356
0.073852131
0.05794582
0.039281325
0.016747032
0.13291534
0.13106762
0.12764071
0.12337212
0.11850125
0.11285537
0.10603083
0.097552302
0.086959934
0.07385205
0.057945518
0.039281132
0.016747064
0.1329258
0.13107778
0.12765008
0.12338016
0.11850756
0.11285984
0.10603358
0.097553651
0.086960283
0.073851841
0.057945162
0.039280925
0.016747092
0.13293553
0.13108723
0.12765874
0.12338752
0.11851326
0.11286379
0.10603592
0.097554695
0.086960433
0.073851525
0.057944764
0.039280711
0.016747117
0.13294457
0.13109597
0.12766672
0.12339424
0.11851839
0.11286725
0.10603788
0.097555462
0.086960407
0.073851115
0.057944331
0.039280492
0.016747139
0.13295292
0.13110404
0.12767405
0.12340034
0.11852296
0.11287025
0.10603947
0.09755597
0.086960218
0.073850621
0.057943868
0.039280267
0.016747159
0.13296061
0.13111144
0.12768073
0.12340585
0.11852701
0.1128728
0.10604072
0.097556231
0.086959873
0.073850046
0.057943374
0.039280036
0.016747177
0.13296762
0.13111818
0.12768676
0.12341075
0.11853053
0.11287492
0.10604163
0.097556252
0.086959376
0.073849391
0.05794285
0.039279799
0.016747193
0.13297395
0.13112426
0.12769216
0.12341507
0.11853353
0.11287661
0.10604221
0.097556038
0.086958731
0.073848657
0.057942293
0.039279554
0.016747206
0.13297961
0.13112967
0.12769692
0.1234188
0.11853602
0.11287788
0.10604247
0.097555598
0.086957942
0.073847845
0.057941704
0.039279299
0.016747217
0.1329846
0.13113442
0.12770106
0.12342197
0.11853803
0.11287875
0.10604242
0.097554944
0.086957019
0.07384696
0.057941084
0.039279036
0.016747225
0.13298895
0.13113854
0.1277046
0.1234246
0.11853957
0.11287925
0.10604209
0.097554095
0.086955975
0.073846012
0.057940438
0.039278766
0.01674723
0.13299268
0.13114206
0.12770757
0.12342671
0.11854067
0.11287941
0.10604151
0.097553074
0.086954828
0.073845012
0.057939773
0.039278492
0.016747233
0.13299585
0.13114503
0.12771002
0.12342836
0.11854139
0.11287926
0.10604071
0.097551912
0.086953601
0.073843977
0.057939098
0.039278217
0.016747233
0.13299851
0.13114749
0.127712
0.12342959
0.11854177
0.11287885
0.10603973
0.09755064
0.08695232
0.073842924
0.057938424
0.039277946
0.016747232
0.13300073
0.13114952
0.12771358
0.12343047
0.11854186
0.11287824
0.10603861
0.097549291
0.086951009
0.07384187
0.057937759
0.039277682
0.016747229
0.13300257
0.13115118
0.1277148
0.12343105
0.11854171
0.11287745
0.10603739
0.097547896
0.086949691
0.07384083
0.057937114
0.039277429
0.016747225
0.13300408
0.13115252
0.12771573
0.12343137
0.11854137
0.11287653
0.10603611
0.09754648
0.086948384
0.073839818
0.057936494
0.03927719
0.01674722
0.13300532
0.13115358
0.1277164
0.12343148
0.11854087
0.11287552
0.10603477
0.097545063
0.086947104
0.073838841
0.057935906
0.039276967
0.016747215
0.13300631
0.13115441
0.12771686
0.12343141
0.11854024
0.11287443
0.10603341
0.097543656
0.086945856
0.073837904
0.057935349
0.039276759
0.016747209
0.13300708
0.13115502
0.12771711
0.12343118
0.11853949
0.11287327
0.10603203
0.097542264
0.086944643
0.073837007
0.057934824
0.039276565
0.016747203
0.13300762
0.1311554
0.12771716
0.12343078
0.11853863
0.11287205
0.10603063
0.097540884
0.086943461
0.073836145
0.057934327
0.039276385
0.016747198
0.13300793
0.13115556
0.12771702
0.12343022
0.11853765
0.11287076
0.10602921
0.097539512
0.086942304
0.073835313
0.057933853
0.039276214
0.016747192
0.13300798
0.13115549
0.12771666
0.12342949
0.11853656
0.1128694
0.10602775
0.097538138
0.086941162
0.073834501
0.057933395
0.039276049
0.016747186
0.13300776
0.13115515
0.12771608
0.12342857
0.11853532
0.11286796
0.10602625
0.097536753
0.086940028
0.073833702
0.057932945
0.039275886
0.016747179
0.13300725
0.13115455
0.12771526
0.12342747
0.11853395
0.11286643
0.10602471
0.097535349
0.086938892