/*--------------------------------*- C++ -*----------------------------------*\
| =========                 |                                                 |
| \\      /  F ield         | OpenFOAM: The Open Source CFD Toolbox           |
|  \\    /   O peration     | Version:  2506                                  |
|   \\  /    A nd           | Website:  www.openfoam.com                      |
|    \\/     M anipulation  |                                                 |
\*---------------------------------------------------------------------------*/
FoamFile
{
    version     2.0;
    format      ascii;
    arch        "LSB;label=32;scalar=64";
    class       volScalarField;
    location    "22000/water";
    object      epsilon;
}
// * * * * * * * * * * * * * * * * * * * * * * * * * * * * * * * * * * * * * //

dimensions      [0 2 -3 0 0 0 0];

internalField   nonuniform List<scalar> 
2600
(
8.8079773e-05
8.8079245e-05
8.8079271e-05
8.807949e-05
8.8079744e-05
8.8080245e-05
8.8082926e-05
8.8104349e-05
8.8272771e-05
8.9512908e-05
9.8428186e-05
0.00017145296
0.0010138716
6.7789348e-05
6.7791881e-05
6.7793339e-05
6.7794963e-05
6.7796901e-05
6.7799886e-05
6.7810178e-05
6.7875511e-05
6.8312468e-05
7.1039872e-05
8.7857083e-05
0.00021159534
0.0014669324
5.3500886e-05
5.3503148e-05
5.3504846e-05
5.3506859e-05
5.3509287e-05
5.3513643e-05
5.3532992e-05
5.3656306e-05
5.4399641e-05
5.8506995e-05
8.1500797e-05
0.00023956052
0.0017068244
4.3127504e-05
4.3128883e-05
4.3130503e-05
4.3132598e-05
4.3135149e-05
4.3140834e-05
4.3171684e-05
4.3362646e-05
4.4413342e-05
4.9710824e-05
7.7552644e-05
0.00025818579
0.0017816909
3.539909e-05
3.5400132e-05
3.5401605e-05
3.5403513e-05
3.5405834e-05
3.5412916e-05
3.5457613e-05
3.5722605e-05
3.7073304e-05
4.3450503e-05
7.5629285e-05
0.00027290618
0.0017622817
2.9510599e-05
2.9511446e-05
2.95127e-05
2.9514227e-05
2.9516143e-05
2.9525119e-05
2.9586798e-05
2.9933924e-05
3.159515e-05
3.9095388e-05
7.5939385e-05
0.00028837858
0.0017002497
2.4935213e-05
2.4935877e-05
2.4936847e-05
2.4937875e-05
2.4939416e-05
2.4951342e-05
2.503458e-05
2.5477125e-05
2.7489448e-05
3.6318413e-05
7.8818158e-05
0.0003073199
0.0016256765
2.1318423e-05
2.1318913e-05
2.1319549e-05
2.132003e-05
2.1321464e-05
2.1338095e-05
2.144948e-05
2.2008273e-05
2.4447975e-05
3.4968795e-05
8.4593389e-05
0.00033066897
0.0015541994
1.8415642e-05
1.8415958e-05
1.8416233e-05
1.8416208e-05
1.8418091e-05
1.8442025e-05
1.8590687e-05
1.9295945e-05
2.2279378e-05
3.5010665e-05
9.3512814e-05
0.00035786641
0.0014930959
1.6054297e-05
1.6054439e-05
1.6054351e-05
1.6053968e-05
1.6057197e-05
1.6092028e-05
1.6290179e-05
1.7183376e-05
2.0872546e-05
3.6486908e-05
0.00010564207
0.00038720676
0.0014449141
1.411016e-05
1.4110129e-05
1.4109712e-05
1.4109249e-05
1.4115119e-05
1.4165612e-05
1.4429188e-05
1.5565379e-05
2.0175367e-05
3.9486471e-05
0.00012074249
0.00041640751
0.0014094648
1.249217e-05
1.2491978e-05
1.249131e-05
1.24912e-05
1.2501471e-05
1.2573786e-05
1.2923263e-05
1.4374121e-05
2.0181311e-05
4.4103574e-05
0.00013819401
0.0004433175
0.0013850187
1.1132483e-05
1.1132152e-05
1.1131368e-05
1.1132227e-05
1.1149209e-05
1.1251189e-05
1.1712642e-05
1.3570321e-05
2.0918928e-05
5.0386672e-05
0.00015703479
0.00046647967
0.0013691707
9.9797899e-06
9.9793621e-06
9.9786681e-06
9.9813266e-06
1.0007987e-05
1.0149541e-05
1.0756002e-05
1.3137755e-05
2.2440689e-05
5.8285037e-05
0.00017613324
0.00048532287
0.0013594869
8.994766e-06
8.994305e-06
8.9939894e-06
8.9995396e-06
9.0396464e-06
9.2332357e-06
1.0026406e-05
1.3079617e-05
2.4808572e-05
6.7609618e-05
0.00019442665
0.00050000486
0.0013539038
8.1468971e-06
8.1464947e-06
8.1469469e-06
8.1567947e-06
8.2150975e-06
8.4763588e-06
9.5087285e-06
1.3415553e-05
2.807526e-05
7.8026841e-05
0.0002111215
0.00051110137
0.0013508788
7.4122408e-06
7.412023e-06
7.4137548e-06
7.4296903e-06
7.5121568e-06
7.8606834e-06
9.1980663e-06
1.4178291e-05
3.2262331e-05
8.9094588e-05
0.00022578146
0.00051932558
0.0013493668
6.7718206e-06
6.7719549e-06
6.7756276e-06
6.7999151e-06
6.9140283e-06
7.3743439e-06
9.0987625e-06
1.5408888e-05
3.7339829e-05
0.00010033155
0.00023829849
0.00052535583
0.0013487149
6.2104575e-06
6.2111621e-06
6.2176208e-06
6.2531142e-06
6.4082476e-06
7.0110033e-06
9.2236697e-06
1.7149875e-05
4.3213605e-05
0.00011129559
0.0002487951
0.00052976262
0.0013485457
5.7159095e-06
5.7174657e-06
5.7277834e-06
5.7780724e-06
5.9859581e-06
6.7693776e-06
9.5932705e-06
1.9436232e-05
4.9726067e-05
0.00012164393
0.00025751549
0.00053299526
0.0013486594
5.2782322e-06
5.2809984e-06
5.2965329e-06
5.3661281e-06
5.6414368e-06
6.6530083e-06
1.0234238e-05
2.228513e-05
5.6672015e-05
0.00013115952
0.00026474159
0.0005353945
0.0013489619
4.889296e-06
4.893728e-06
4.9161934e-06
5.0107595e-06
5.3718124e-06
6.6701645e-06
1.1177042e-05
2.5686553e-05
6.3825677e-05
0.00013974422
0.00027074338
0.00053721257
0.0013494179
4.5424222e-06
4.549097e-06
4.5806559e-06
4.707302e-06
5.1769356e-06
6.8337316e-06
1.2452335e-05
2.9597476e-05
7.0970789e-05
0.00014739148
0.0002757568
0.0005386328
0.0013500205
4.2321037e-06
4.2417515e-06
4.2851315e-06
4.4527719e-06
5.0593678e-06
7.1609028e-06
1.4086151e-05
3.3941829e-05
7.7925112e-05
0.00015415333
0.00027997823
0.00053978641
0.0013507744
3.9537926e-06
3.9673375e-06
4.0259782e-06
4.2457763e-06
5.0244498e-06
7.6724685e-06
1.6094424e-05
3.8616918e-05
8.4553951e-05
0.00016011197
0.00028356674
0.00054076616
0.0013516866
3.7037376e-06
3.7223496e-06
3.8005873e-06
4.0864974e-06
5.0804009e-06
8.3914976e-06
1.8477844e-05
4.3504911e-05
9.077206e-05
0.00016536002
0.00028664926
0.00054163685
0.0013527623
3.4788613e-06
3.504022e-06
3.6073203e-06
3.9767408e-06
5.2383695e-06
9.3412706e-06
2.1218352e-05
4.8486363e-05
9.6537094e-05
0.00016998886
0.00028932618
0.00054244334
0.0013540034
3.2766694e-06
3.3102566e-06
3.4454921e-06
3.9200366e-06
5.5123349e-06
1.0542478e-05
2.427837e-05
5.3452375e-05
0.00010183911
0.00017408281
0.00029167656
0.00054321637
0.0013554084
3.0951868e-06
3.1395803e-06
3.315394e-06
3.9217755e-06
5.9187331e-06
1.2009945e-05
2.7603266e-05
5.8312862e-05
0.0001066899
0.00017771679
0.00029376257
0.00054397675
0.0013569728
2.9329181e-06
2.991133e-06
3.2183574e-06
3.9893517e-06
6.4756801e-06
1.3749403e-05
3.112658e-05
6.3000084e-05
0.00011111418
0.0001809559
0.00029563313
0.00054473837
0.0013586903
2.7888292e-06
2.8646819e-06
3.1568532e-06
4.132263e-06
7.2016967e-06
1.5755029e-05
3.4776807e-05
6.7468124e-05
0.00011514328
0.00018385585
0.00029732665
0.00054550992
0.0013605531
2.6623516e-06
2.7606641e-06
3.1346228e-06
4.362102e-06
8.1139275e-06
1.8008404e-05
3.8484156e-05
7.1689805e-05
0.00011881108
0.00018646428
0.00029887505
0.00054629402
0.0013625491
2.5534088e-06
2.680258e-06
3.1568304e-06
4.6923497e-06
9.22598e-06
2.0479254e-05
4.21859e-05
7.5652556e-05
0.00012215122
0.00018882083
0.00030030031
0.00054708344
0.001364665
2.4624667e-06
2.6254827e-06
3.2302147e-06
5.1378784e-06
1.0545685e-05
2.3127918e-05
4.5829653e-05
7.9354439e-05
0.00012519597
0.00019095973
0.00030162122
0.00054787012
0.0013668874
2.3906118e-06
2.5993266e-06
3.3632046e-06
5.7140891e-06
1.2073206e-05
2.5908984e-05
4.9374528e-05
8.2800767e-05
0.00012797522
0.0001929092
0.00030285018
0.00054865287
0.0013692048
2.3396576e-06
2.6059009e-06
3.5659451e-06
6.4356566e-06
1.3799941e-05
2.8775319e-05
5.2790669e-05
8.6001443e-05
0.00013051585
0.00019469159
0.00030399376
0.00054944272
0.0013716092
2.3122834e-06
2.6506068e-06
3.8501618e-06
7.3149532e-06
1.5708513e-05
3.1681693e-05
5.6057927e-05
8.8969442e-05
0.00013284315
0.00019632773
0.00030505437
0.00055025018
0.0013740956
2.312204e-06
2.7402971e-06
4.2287856e-06
8.3603382e-06
1.7773921e-05
3.4587408e-05
5.9163895e-05
9.1718485e-05
0.000134977
0.0001978295
0.00030604752
0.00055107622
0.0013766577
2.3443664e-06
2.8833943e-06
4.7152661e-06
9.5746047e-06
1.9965609e-05
3.7457895e-05
6.2102576e-05
9.4263948e-05
0.00013693775
0.00019920349
0.00030698676
0.00055192215
0.0013792894
2.4151613e-06
3.08991e-06
5.3225445e-06
1.0953905e-05
2.2249994e-05
4.0265061e-05
6.4872079e-05
9.6618925e-05
0.00013873802
0.00020046565
0.00030788007
0.00055278756
0.0013819844
2.5326205e-06
3.3712892e-06
6.061731e-06
1.2487422e-05
2.4593018e-05
4.2987258e-05
6.7474462e-05
9.8797813e-05
0.00014038632
0.00020163083
0.00030873382
0.00055367122
0.0013847362
2.7065545e-06
3.7399971e-06
6.9406291e-06
1.4157864e-05
2.6962172e-05
4.5608169e-05
6.9912765e-05
0.00010081055
0.00014189658
0.00020271014
0.00030955281
0.00055457138
0.0013875385
2.9485501e-06
4.2087761e-06
7.9623503e-06
1.5942734e-05
2.9328091e-05
4.8116704e-05
7.2192972e-05
0.0001026631
0.00014328329
0.00020371266
0.00031034058
0.00055548595
0.0013903847
3.2717206e-06
4.7895534e-06
9.124282e-06
1.7815986e-05
3.1665e-05
5.0504532e-05
7.4318478e-05
0.00010436656
0.00014455809
0.00020464579
0.0003110997
0.00055641258
0.0013932686
3.6900856e-06
5.4920727e-06
1.0417683e-05
1.9750011e-05
3.3951698e-05
5.2768182e-05
7.6289666e-05
0.00010593298
0.00014573088
0.00020551554
0.00031183195
0.00055734875
0.0013961839
4.2174845e-06
6.3224277e-06
1.1827951e-05
2.171714e-05
3.6170245e-05
5.4901158e-05
7.8113755e-05
0.00010737248
0.00014680993
0.00020632673
0.0003125385
0.00055829178
0.0013991243
4.8660259e-06
7.2817745e-06
1.3335593e-05
2.3691123e-05
3.8306688e-05
5.6898167e-05
7.9798304e-05
0.00010869389
0.00014780214
0.00020708321
0.00031321993
0.00055923889
0.0014020836
5.6442496e-06
8.3655569e-06
1.4917866e-05
2.5648781e-05
4.0344258e-05
5.8760207e-05
8.13501e-05
0.00010990478
0.00014871322
0.00020778792
0.00031387636
0.00056018713
0.0014050555
6.5553601e-06
9.5634607e-06
1.6550687e-05
2.7565322e-05
4.2272543e-05
6.048881e-05
8.2775231e-05
0.00011101157
0.00014954783
0.00020844309
0.00031450747
0.00056113345
0.0014080338
7.5961549e-06
1.0860443e-05
1.820737e-05
2.9419104e-05
4.4084532e-05
6.2085817e-05
8.4079038e-05
0.00011201961
0.0001503097
0.00020905024
0.00031511252
0.0005620746
0.001411012
8.7563172e-06
1.2235552e-05
1.9861233e-05
3.1193218e-05
4.5774967e-05
6.3553184e-05
8.5266117e-05
0.00011293329
0.00015100166
0.00020961026
0.00031569042
0.0005630072
0.0014139833
1.0017524e-05
1.3664336e-05
2.148845e-05
3.287386e-05
4.7340056e-05
6.489287e-05
8.6340351e-05
0.00011375613
0.00015162581
0.00021012349
0.0003162397
0.00056392763
0.0014169407
1.1355902e-05
1.5121212e-05
2.3068172e-05
3.4450178e-05
4.8777289e-05
6.6106813e-05
8.7304985e-05
0.00011449085
0.00015218355
0.00021058975
0.00031675853
0.00056483207
0.0014198768
1.2744265e-05
1.658108e-05
2.4582901e-05
3.5914122e-05
5.0085353e-05
6.7196968e-05
8.8162735e-05
0.00011513952
0.00015267568
0.00021100841
0.0003172448
0.00056571649
0.0014227835
1.4154479e-05
1.8020635e-05
2.6018602e-05
3.7260262e-05
5.1264088e-05
6.8165408e-05
8.8915924e-05
0.00011570368
0.00015310251
0.00021137845
0.00031769609
0.00056657663
0.0014256523
1.5559577e-05
1.9419298e-05
2.7364603e-05
3.8485594e-05
5.2314484e-05
6.9014442e-05
8.9566653e-05
0.00011618448
0.00015346398
0.00021169854
0.00031810979
0.00056740804
0.0014284741
1.6935335e-05
2.0759783e-05
2.8613374e-05
3.9589299e-05
5.3238664e-05
6.9746749e-05
9.0116976e-05
0.00011658287
0.0001537598
0.00021196718
0.00031848313
0.00056820612
0.0014312392
1.8261265e-05
2.2028322e-05
2.9760204e-05
4.0572476e-05
5.4039839e-05
7.0365491e-05
9.0569069e-05
0.00011689974
0.00015398959
0.0002121828
0.0003188133
0.00056896622
0.0014339372
1.9521046e-05
2.3214634e-05
3.0802835e-05
4.1437841e-05
5.4722227e-05
7.0874391e-05
9.092539e-05
0.00011713613
0.00015415307
0.00021234389
0.00031909757
0.00056968372
0.0014365575
2.0702517e-05
2.4311689e-05
3.1741088e-05
4.2189439e-05
5.5290941e-05
7.1277778e-05
9.1188798e-05
0.00011729338
0.00015425017
0.0002124492
0.00031933347
0.00057035419
0.0014390891
2.1797374e-05
2.5315357e-05
3.2576494e-05
4.2832338e-05
5.5751836e-05
7.1580569e-05
9.1362641e-05
0.00011737321
0.00015428124
0.00021249781
0.00031951887
0.00057097356
0.001441521
2.28007e-05
2.622399e-05
3.3311948e-05
4.3372369e-05
5.6111347e-05
7.1788233e-05
9.1450799e-05
0.0001173779
0.00015424709
0.00021248936
0.0003196522
0.00057153825
0.0014438425
2.371041e-05
2.7037984e-05
3.3951395e-05
4.3815881e-05
5.6376326e-05
7.1906706e-05
9.1457678e-05
0.00011731026
0.00015414917
0.0002124241
0.00031973253
0.00057204539
0.0014460435
2.4526706e-05
2.7759366e-05
3.449956e-05
4.4169534e-05
5.6553877e-05
7.1942294e-05
9.1388186e-05
0.00011717371
0.00015398956
0.00021230299
0.00031975969
0.0005724929
0.0014481149
2.5251564e-05
2.8391406e-05
3.4961709e-05
4.4440132e-05
5.6651215e-05
7.1901563e-05
9.1247662e-05
0.00011697223
0.00015377101
0.00021212771
0.00031973433
0.00057287962
0.0014500488
2.5888276e-05
2.8938285e-05
3.5343454e-05
4.4634483e-05
5.6675542e-05
7.179123e-05
9.1041797e-05
0.00011671033
0.00015349693
0.00021190072
0.00031965793
0.00057320536
0.001451839
2.6441076e-05
2.9404811e-05
3.5650586e-05
4.4759296e-05
5.663394e-05
7.1618056e-05
9.0776537e-05
0.00011639296
0.00015317131
0.00021162517
0.00031953278
0.00057347086
0.0014534807
2.6914826e-05
2.9796188e-05
3.5888949e-05
4.4821097e-05
5.6533293e-05
7.1388749e-05
9.0457987e-05
0.00011602544
0.00015279867
0.00021130485
0.00031936187
0.00057367777
0.0014549713
2.7314762e-05
3.0117827e-05
3.6064336e-05
4.4826173e-05
5.6380223e-05
7.1109886e-05
9.0092314e-05
0.00011561331
0.00015238391
0.00021094406
0.00031914887
0.00057382854
0.0014563096
2.7646303e-05
3.0375202e-05
3.6182408e-05
4.4780528e-05
5.6181048e-05
7.0787841e-05
8.9685654e-05
0.00011516229
0.00015193228
0.00021054753
0.00031889791
0.00057392629
0.0014574964
2.7914908e-05
3.0573741e-05
3.6248639e-05
4.4689859e-05
5.5941748e-05
7.0428733e-05
8.9244034e-05
0.00011467813
0.00015144916
0.00021012029
0.00031861352
0.00057397468
0.001458534
2.8125956e-05
3.0718739e-05
3.6268274e-05
4.4559537e-05
5.5667948e-05
7.0038381e-05
8.8773299e-05
0.00011416656
0.00015094006
0.00020966752
0.00031830047
0.00057397779
0.0014594262
2.828468e-05
3.0815306e-05
3.6246298e-05
4.4394601e-05
5.5364907e-05
6.9622276e-05
8.8279057e-05
0.00011363316
0.00015041042
0.00020919446
0.00031796365
0.00057393995
0.001460178
2.8396102e-05
3.0868321e-05
3.6187423e-05
4.4199757e-05
5.5037518e-05
6.9185559e-05
8.7766629e-05
0.00011308332
0.00014986559
0.0002087063
0.00031760796
0.00057386569
0.0014607957
2.8465003e-05
3.088241e-05
3.6096073e-05
4.3979382e-05
5.469031e-05
6.8733009e-05
8.7241017e-05
0.00011252215
0.0001493107
0.00020820806
0.00031723819
0.00057375957
0.0014612863
2.8495899e-05
3.0861928e-05
3.5976386e-05
4.3737527e-05
5.4327455e-05
6.8269038e-05
8.6706875e-05
0.00011195448
0.00014875061
0.00020770453
0.00031685895
0.00057362612
0.0014616575
2.849303e-05
3.0810953e-05
3.5832212e-05
4.3477933e-05
5.3952777e-05
6.7797695e-05
8.6168497e-05
0.00011138479
0.00014818989
0.00020720022
0.00031647459
0.00057346974
0.0014619178
2.8460356e-05
3.0733286e-05
3.5667123e-05
4.3204037e-05
5.3569765e-05
6.7322662e-05
8.5629801e-05
0.00011081717
0.00014763272
0.00020669928
0.00031608912
0.00057329464
0.0014620759
2.8401556e-05
3.0632456e-05
3.5484412e-05
4.2918984e-05
5.3181586e-05
6.6847272e-05
8.5094335e-05
0.00011025536
0.00014708289
0.00020620545
0.00031570622
0.0005731048
0.0014621408
2.8320037e-05
3.0511722e-05
3.5287112e-05
4.2625643e-05
5.2791099e-05
6.6374513e-05
8.4565273e-05
0.00010970268
0.0001465438
0.00020572207
0.00031532915
0.00057290384
0.0014621215
2.8218944e-05
3.0374085e-05
3.5077999e-05
4.2326616e-05
5.2400873e-05
6.5907047e-05
8.4045428e-05
0.00010916207
0.00014601843
0.00020525208
0.00031496075
0.0005726951
0.0014620268
2.8101163e-05
3.0222301e-05
3.4859609e-05
4.2024258e-05
5.2013197e-05
6.544722e-05
8.3537261e-05
0.00010863608
0.00014550934
0.00020479794
0.00031460345
0.00057248151
0.0014618654
2.7969342e-05
3.0058886e-05
3.4634245e-05
4.1720684e-05
5.1630101e-05
6.4997084e-05
8.3042899e-05
0.0001081269
0.0001450187
0.00020436175
0.00031425926
0.00057226565
0.0014616455
2.7825896e-05
2.9886136e-05
3.4403994e-05
4.1417786e-05
5.1253368e-05
6.4558411e-05
8.256415e-05
0.00010763636
0.0001445483
0.00020394516
0.00031392981
0.00057204974
0.001461375
2.7673023e-05
2.9706132e-05
3.4170737e-05
4.1117247e-05
5.0884556e-05
6.4132711e-05
8.2102523e-05
0.00010716595
0.00014409956
0.00020354947
0.00031361635
0.00057183562
0.0014610612
2.751272e-05
2.9520758e-05
3.3936163e-05
4.0820555e-05
5.0525007e-05
6.3721253e-05
8.1659252e-05
0.00010671686
0.00014367356
0.00020317565
0.00031331987
0.0005716246
0.0014607106
2.734679e-05
2.9331714e-05
3.3701779e-05
4.0529016e-05
5.0175868e-05
6.3325084e-05
8.1235314e-05
0.00010628998
0.00014327109
0.00020282433
0.00031304088
0.00057141673
0.0014603286
2.7176858e-05
2.9140523e-05
3.3468926e-05
4.0243766e-05
4.9838103e-05
6.2945043e-05
8.0831454e-05
0.00010588597
0.00014289268
0.000202496
0.00031277975
0.00057120974
0.0014599203
2.7004384e-05
2.8948548e-05
3.3238787e-05
3.9965785e-05
4.951251e-05
6.2581784e-05
8.0448203e-05
0.00010550521
0.00014253856
0.00020219055
0.00031253556
0.00057100516
0.0014594906
2.6830673e-05
2.8757001e-05
3.3012403e-05
3.969591e-05
4.9199735e-05
6.2235793e-05
8.0085918e-05
0.00010514797
0.00014220891
0.00020190809
0.00031230628
0.00057080609
0.0014590448
2.6656887e-05
2.8566957e-05
3.2790678e-05
3.9434844e-05
4.8900285e-05
6.190741e-05
7.9744785e-05
0.00010481426
0.00014190346
0.00020164702
0.00031209283
0.00057061411
0.0014585878
2.6484055e-05
2.837936e-05
3.2574395e-05
3.9183171e-05
4.8614544e-05
6.1596829e-05
7.9424821e-05
0.00010450389
0.0001416217
0.00020140637
0.00031189571
0.00057043042
0.0014581241
2.6313086e-05
2.8195036e-05
3.2364223e-05
3.8941364e-05
4.8342785e-05
6.1304144e-05
7.9125966e-05
0.00010421665
0.00014136217
0.00020118614
0.00031171506
0.00057025582
0.0014576579
2.6144774e-05
2.8014703e-05
3.2160729e-05
3.8709798e-05
4.8085181e-05
6.1029332e-05
7.8847972e-05
0.0001039515
0.0001411244
0.00020098602
0.00031155074
0.00057009085
0.0014571927
2.5979812e-05
2.783898e-05
3.1964385e-05
3.8488757e-05
4.7841814e-05
6.0772262e-05
7.8590314e-05
0.00010370761
0.00014090791
0.00020080553
0.0003114024
0.00056993581
0.0014567316
2.5818798e-05
2.7668394e-05
3.1775578e-05
3.8278449e-05
4.7612695e-05
6.053269e-05
7.8352132e-05
0.00010348446
0.00014071209
0.00020064402
0.00031126956
0.00056979078
0.0014562775
2.5662246e-05
2.7503393e-05
3.1594626e-05
3.8079026e-05
4.7397748e-05
6.0309944e-05
7.8132942e-05
0.00010328144
0.00014053624
0.00020050077
0.00031115159
0.00056965572
0.0014558326
2.5510595e-05
2.7344356e-05
3.1421794e-05
3.7890528e-05
4.7196567e-05
6.0103634e-05
7.7932196e-05
0.00010309787
0.00014037954
0.00020037493
0.00031104781
0.00056953047
0.0014553988
2.5364225e-05
2.7191602e-05
3.125721e-05
3.7712808e-05
4.7008896e-05
5.9913325e-05
7.774929e-05
0.00010293298
0.00014024114
0.00020026563
0.00031095747
0.00056941477
0.0014549778
2.5223416e-05
2.7045321e-05
3.1100915e-05
3.754575e-05
4.6834441e-05
5.9738541e-05
7.7583577e-05
0.00010278599
0.00014012014
0.00020017193
0.00031087977
0.0005693083
0.0014545709
2.5088369e-05
2.6905648e-05
3.0952919e-05
3.7389207e-05
4.6672876e-05
5.9578773e-05
7.7434372e-05
0.00010265605
0.00014001559
0.00020009289
0.00031081392
0.00056921072
0.001454179
2.4959234e-05
2.6772672e-05
3.0813194e-05
3.7242998e-05
4.6523844e-05
5.9433482e-05
7.7300961e-05
0.00010254231
0.00013992654
0.00020002754
0.00031075912
0.00056912166
0.001453803
2.4836114e-05
2.6646442e-05
3.0681679e-05
3.7106913e-05
4.6386963e-05
5.9302104e-05
7.718261e-05
0.00010244388
0.00013985203
0.00019997495
0.00031071458
0.00056904074
0.0014534434
2.4719075e-05
2.652697e-05
3.0558282e-05
3.6980714e-05
4.6261825e-05
5.9184055e-05
7.7078566e-05
0.00010235989
0.00013979111
0.00019993416
0.00031067952
0.00056896761
0.0014531008
2.4608145e-05
2.6414237e-05
3.0442879e-05
3.6864139e-05
4.6148003e-05
5.9078735e-05
7.6988071e-05
0.00010228944
0.00013974282
0.00019990428
0.00031065321
0.00056890189
0.0014527755
2.4503322e-05
2.6308192e-05
3.0335324e-05
3.6756903e-05
4.6045053e-05
5.8985532e-05
7.691036e-05
0.00010223166
0.00013970622
0.00019988441
0.00031063493
0.00056884323
0.0014524677
2.4404575e-05
2.620876e-05
3.0235445e-05
3.6658705e-05
4.5952517e-05
5.8903829e-05
7.684467e-05
0.00010218568
0.00013968042
0.00019987368
0.00031062398
0.00056879128
0.0014521776
2.4311847e-05
2.6115838e-05
3.0143051e-05
3.6569224e-05
4.5869926e-05
5.8833002e-05
7.6790239e-05
0.00010215064
0.00013966452
0.00019987126
0.00031061971
0.0005687457
0.0014519051
2.4225058e-05
2.6029305e-05
3.0057932e-05
3.6488129e-05
4.5796803e-05
5.8772429e-05
7.6746317e-05
0.0001021257
0.00013965765
0.00019987635
0.00031062147
0.00056870611
0.0014516503
2.4144106e-05
2.5949018e-05
2.997986e-05
3.6415074e-05
4.5732667e-05
5.8721487e-05
7.6712163e-05
0.00010211004
0.00013965899
0.00019988818
0.00031062864
0.00056867216
0.0014514128
2.4068872e-05
2.587482e-05
2.9908595e-05
3.6349707e-05
4.5677033e-05
5.867956e-05
7.668705e-05
0.00010210287
0.00013966772
0.00019990601
0.00031064064
0.00056864346
0.0014511925
2.3999218e-05
2.5806534e-05
2.9843886e-05
3.6291667e-05
4.5629415e-05
5.8646041e-05
7.6670269e-05
0.00010210342
0.00013968308
0.00019992914
0.00031065689
0.00056861963
0.0014509889
2.3934994e-05
2.5743975e-05
2.978547e-05
3.6240589e-05
4.5589331e-05
5.8620331e-05
7.6661128e-05
0.00010211095
0.00013970434
0.0001999569
0.00031067686
0.0005686003
0.0014508015
2.3876036e-05
2.5686944e-05
2.9733079e-05
3.6196107e-05
4.5556302e-05
5.8601844e-05
7.6658959e-05
0.00010212474
0.0001397308
0.00019998867
0.00031070004
0.00056858509
0.0014506298
2.3822169e-05
2.5635234e-05
2.9686437e-05
3.6157851e-05
4.5529857e-05
5.8590011e-05
7.6663117e-05
0.00010214412
0.00013976179
0.00020002386
0.00031072596
0.00056857365
0.0014504732
2.3773209e-05
2.5588629e-05
2.9645264e-05
3.6125456e-05
4.5509531e-05
5.8584276e-05
7.6672983e-05
0.00010216845
0.0001397967
0.00020006193
0.00031075418
0.00056856563
0.001450331
2.3728965e-05
2.5546909e-05
2.9609281e-05
3.6098559e-05
4.549487e-05
5.8584105e-05
7.6687965e-05
0.00010219711
0.00013983494
0.00020010236
0.00031078431
0.00056856074
0.0014502025
2.3689241e-05
2.5509848e-05
2.9578203e-05
3.60768e-05
4.5485433e-05
5.8588981e-05
7.6707499e-05
0.00010222953
0.00013987599
0.00020014471
0.000310816
0.00056855872
0.0014500872
2.3653833e-05
2.5477219e-05
2.9551749e-05
3.6059826e-05
4.5480791e-05
5.8598408e-05
7.6731047e-05
0.00010226517
0.00013991933
0.00020018854
0.00031084892
0.00056855931
0.0014499843
2.3622539e-05
2.5448791e-05
2.952964e-05
3.6047292e-05
4.5480526e-05
5.8611913e-05
7.6758104e-05
0.00010230353
0.00013996451
0.00020023348
0.00031088279
0.00056856231
0.0014498935
2.3595148e-05
2.5424334e-05
2.9511597e-05
3.6038859e-05
4.5484239e-05
5.8629043e-05
7.6788191e-05
0.00010234414
0.0001400111
0.00020027918
0.00031091736
0.00056856752
0.001449814
2.3571454e-05
2.5403617e-05
2.9497349e-05
3.6034197e-05
4.5491543e-05
5.8649368e-05
7.6820856e-05
0.00010238655
0.00014005871
0.00020032531
0.00031095238
0.00056857477
0.0014497454
2.3551246e-05
2.5386412e-05
2.9486624e-05
3.6032987e-05
4.5502066e-05
5.8672477e-05
7.6855678e-05
0.00010243037
0.00014010698
0.00020037159
0.00031098764
0.00056858387
0.0014496871
2.3534316e-05
2.5372491e-05
2.9479161e-05
3.603492e-05
4.5515455e-05
5.8697985e-05
7.6892258e-05
0.00010247521
0.00014015557
0.00020041774
0.00031102293
0.00056859463
0.0014496387
2.3520456e-05
2.5361631e-05
2.9474701e-05
3.6039695e-05
4.5531369e-05
5.8725525e-05
7.6930227e-05
0.00010252072
0.00014020419
0.00020046352
0.00031105806
0.00056860686
0.0014495995
2.3509462e-05
2.535361e-05
2.9472994e-05
3.6047024e-05
4.5549487e-05
5.8754754e-05
7.696924e-05
0.00010256658
0.00014025254
0.00020050871
0.00031109284
0.00056862033
0.001449569
2.3501132e-05
2.5348213e-05
2.9473796e-05
3.6056631e-05
4.5569502e-05
5.8785348e-05
7.7008976e-05
0.0001026125
0.00014030038
0.00020055308
0.00031112708
0.00056863482
0.0014495465
2.3495266e-05
2.5345228e-05
2.9476871e-05
3.6068253e-05
4.5591125e-05
5.8817006e-05
7.7049141e-05
0.00010265821
0.00014034747
0.00020059646
0.00031116061
0.00056865011
0.0014495313
2.3491672e-05
2.534445e-05
2.9481994e-05
3.6081636e-05
4.5614085e-05
5.8849449e-05
7.7089463e-05
0.00010270345
0.00014039361
0.00020063867
0.00031119328
0.00056866595
0.0014495228
2.349016e-05
2.5345682e-05
2.9488946e-05
3.6096542e-05
4.5638126e-05
5.8882416e-05
7.7129695e-05
0.00010274802
0.00014043863
0.00020067957
0.00031122497
0.00056868216
0.0014495201
2.349055e-05
2.5348731e-05
2.949752e-05
3.6112747e-05
4.5663011e-05
5.8915673e-05
7.7169617e-05
0.00010279172
0.00014048236
0.00020071905
0.00031125555
0.00056869854
0.0014495227
2.3492664e-05
2.5353414e-05
2.9507518e-05
3.613004e-05
4.5688523e-05
5.8949002e-05
7.7209028e-05
0.00010283437
0.00014052467
0.00020075701
0.00031128496
0.00056871498
0.0014495298
2.3496333e-05
2.5359555e-05
2.9518755e-05
3.6148222e-05
4.5714457e-05
5.8982207e-05
7.7247754e-05
0.00010287585
0.00014056546
0.00020079338
0.00031131314
0.00056873135
0.0014495409
2.3501396e-05
2.5366987e-05
2.9531053e-05
3.616711e-05
4.5740631e-05
5.9015115e-05
7.728564e-05
0.00010291602
0.00014060465
0.00020082812
0.00031134008
0.00056874763
0.0014495555
2.3507699e-05
2.5375552e-05
2.9544248e-05
3.6186534e-05
4.5766874e-05
5.9047568e-05
7.7322555e-05
0.00010295479
0.00014064218
0.0002008612
0.00031136577
0.00056876379
0.0014495733
2.3515095e-05
2.5385099e-05
2.9558184e-05
3.6206336e-05
4.5793035e-05
5.9079427e-05
7.7358383e-05
0.00010299208
0.00014067801
0.00020089263
0.00031139024
0.00056877984
0.001449594
2.3523443e-05
2.5395486e-05
2.9572717e-05
3.6226372e-05
4.5818974e-05
5.911057e-05
7.7393027e-05
0.00010302781
0.00014071209
0.00020092239
0.0003114135
0.00056879579
0.0014496174
2.3532611e-05
2.540658e-05
2.9587711e-05
3.6246508e-05
4.5844568e-05
5.9140889e-05
7.7426406e-05
0.00010306195
0.00014074442
0.00020095049
0.00031143557
0.00056881159
0.0014496432
2.3542474e-05
2.5418255e-05
2.9603041e-05
3.6266623e-05
4.5869705e-05
5.9170292e-05
7.7458451e-05
0.00010309444
0.00014077498
0.00020097695
0.00031145647
0.00056882718
0.0014496713
2.3552913e-05
2.5430392e-05
2.961859e-05
3.6286605e-05
4.5894285e-05
5.9198697e-05
7.7489104e-05
0.00010312527
0.00014080378
0.00020100178
0.00031147617
0.00056884226
0.0014497013
2.3563816e-05
2.5442881e-05
2.9634249e-05
3.6306353e-05
4.591822e-05
5.9226034e-05
7.7518322e-05
0.0001031544
0.00014083079
0.00020102497
0.00031149462
0.0005688567
0.001449733
2.3575079e-05
2.5455617e-05
2.964992e-05
3.6325775e-05
4.5941431e-05
5.9252245e-05
7.7546069e-05
0.00010318184
0.00014085605
0.00020104654
0.00031151161
0.00056887061
0.001449766
2.3586603e-05
2.5468506e-05
2.966551e-05
3.6344789e-05
4.5963851e-05
5.9277284e-05
7.757232e-05
0.00010320757
0.00014087955
0.00020106642
0.00031152721
0.00056888398
0.0014498
2.3598297e-05
2.5481458e-05
2.9680937e-05
3.6363322e-05
4.5985424e-05
5.9301112e-05
7.7597063e-05
0.00010323161
0.00014090131
0.00020108456
0.00031154146
0.00056889675
0.0014498346
2.3610079e-05
2.5494391e-05
2.9696127e-05
3.6381312e-05
4.6006102e-05
5.9323706e-05
7.7620296e-05
0.00010325397
0.0001409213
0.00020110103
0.00031155441
0.00056890886
0.0014498694
2.362187e-05
2.5507234e-05
2.9711011e-05
3.6398703e-05
4.602585e-05
5.9345048e-05
7.764202e-05
0.00010327466
0.00014093952
0.0002011159
0.0003115661
0.00056892026
0.001449904
2.3633603e-05
2.5519918e-05
2.9725534e-05
3.6415453e-05
4.604464e-05
5.9365136e-05
7.7662259e-05
0.00010329367
0.00014095606
0.00020112925
0.00031157659
0.00056893093
0.0014499382
2.3645215e-05
2.5532387e-05
2.9739645e-05
3.6431524e-05
4.6062457e-05
5.9383975e-05
7.7680998e-05
0.00010331104
0.00014097098
0.00020114114
0.00031158592
0.00056894085
0.0014499715
2.3656651e-05
2.5544589e-05
2.9753303e-05
3.6446891e-05
4.6079294e-05
5.9401559e-05
7.769826e-05
0.00010332683
0.00014098436
0.00020115167
0.00031159418
0.00056895006
0.0014500039
2.3667865e-05
2.555648e-05
2.9766474e-05
3.6461535e-05
4.609514e-05
5.9417891e-05
7.7714088e-05
0.00010334112
0.00014099629
0.00020116092
0.00031160144
0.00056895861
0.0014500353
2.3678814e-05
2.5568025e-05
2.9779133e-05
3.6475439e-05
4.6109987e-05
5.9432994e-05
7.7728529e-05
0.00010335397
0.00014100684
0.00020116898
0.00031160781
0.00056896656
0.0014500655
2.3689465e-05
2.5579194e-05
2.9791253e-05
3.6488585e-05
4.6123841e-05
5.9446899e-05
7.7741636e-05
0.00010336545
0.0001410161
0.00020117593
0.00031161335
0.000568974
0.0014500947
2.3699785e-05
2.5589956e-05
2.9802813e-05
3.6500967e-05
4.6136717e-05
5.9459641e-05
7.7753464e-05
0.00010337562
0.00014102414
0.00020118187
0.00031161816
0.00056898101
0.0014501229
2.3709745e-05
2.5600286e-05
2.9813797e-05
3.6512587e-05
4.6148632e-05
5.9471257e-05
7.7764068e-05
0.00010338457
0.00014103105
0.00020118687
0.0003116223
0.00056898763
0.0014501503
2.3719322e-05
2.5610166e-05
2.9824197e-05
3.6523446e-05
4.6159609e-05
5.9481787e-05
7.7773506e-05
0.00010339236
0.0001410369
0.000201191
0.00031162582
0.0005689939
0.0014501768
2.3728495e-05
2.561958e-05
2.9834005e-05
3.6533554e-05
4.6169671e-05
5.9491273e-05
7.7781833e-05
0.00010339905
0.00014104176
0.00020119432
0.00031162878
0.00056899984
0.0014502025
2.3737248e-05
2.5628515e-05
2.984322e-05
3.6542922e-05
4.6178846e-05
5.9499759e-05
7.7789107e-05
0.00010340471
0.00014104569
0.00020119687
0.00031163119
0.00056900544
0.0014502274
2.3745569e-05
2.5636965e-05
2.9851842e-05
3.6551564e-05
4.6187164e-05
5.9507289e-05
7.7795383e-05
0.0001034094
0.00014104875
0.00020119872
0.00031163308
0.00056901068
0.0014502514
2.3753448e-05
2.5644924e-05
2.9859877e-05
3.6559497e-05
4.6194654e-05
5.9513907e-05
7.7800717e-05
0.00010341318
0.000141051
0.0002011999
0.00031163446
0.0005690155
0.0014502745
2.3760881e-05
2.5652391e-05
2.9867332e-05
3.656674e-05
4.6201352e-05
5.9519659e-05
7.7805164e-05
0.00010341612
0.00014105249
0.00020120046
0.00031163534
0.00056901988
0.0014502966
2.3767863e-05
2.5659368e-05
2.9874216e-05
3.6573315e-05
4.6207289e-05
5.9524591e-05
7.7808779e-05
0.00010341827
0.00014105328
0.00020120043
0.00031163575
0.00056902378
0.0014503174
2.3774396e-05
2.5665858e-05
2.9880541e-05
3.6579244e-05
4.6212503e-05
5.9528751e-05
7.7811617e-05
0.00010341968
0.00014105343
0.00020119987
0.0003116357