/*--------------------------------*- C++ -*----------------------------------*\
| =========                 |                                                 |
| \\      /  F ield         | OpenFOAM: The Open Source CFD Toolbox           |
|  \\    /   O peration     | Version:  2506                                  |
|   \\  /    A nd           | Website:  www.openfoam.com                      |
|    \\/     M anipulation  |                                                 |
\*---------------------------------------------------------------------------*/
FoamFile
{
    version     2.0;
    format      ascii;
    arch        "LSB;label=32;scalar=64";
    class       volScalarField;
    location    "22000/water";
    object      k;
}
// * * * * * * * * * * * * * * * * * * * * * * * * * * * * * * * * * * * * * //

dimensions      [0 2 -2 0 0 0 0];

internalField   nonuniform List<scalar> 
2600
(
0.0001992401
0.00019923925
0.00019923929
0.00019923963
0.00019923982
0.00019923914
0.00019923438
0.00019921375
0.00019914651
0.00019904325
0.00019990841
0.00021454267
0.00040955349
0.00017237279
0.00017237614
0.00017237826
0.00017238051
0.0001723821
0.00017237949
0.00017235884
0.00017227555
0.000172027
0.00017162102
0.00017329371
0.00020304806
0.00052391648
0.00015132731
0.00015133049
0.00015133306
0.00015133552
0.00015133516
0.00015132207
0.00015126283
0.00015106462
0.00015055477
0.00014985944
0.0001528957
0.00019760629
0.00057958156
0.00013448336
0.00013448533
0.00013448764
0.00013448905
0.00013448325
0.00013445009
0.00013432997
0.00013398205
0.00013321503
0.00013247936
0.00013787909
0.00019702317
0.00059640815
0.00012075551
0.00012075697
0.00012075853
0.00012075718
0.00012074152
0.0001206782
0.00012048052
0.00011997843
0.0001190486
0.00011870929
0.00012776334
0.00020116854
0.00059206885
0.0001093899
0.00010939088
0.000109391
0.00010938492
0.00010935483
0.00010925313
0.00010897207
0.00010834649
0.00010742643
0.0001080609
0.00012226457
0.00021023394
0.00057809221
9.984982e-05
9.9850093e-05
9.9847944e-05
9.9835056e-05
9.9786463e-05
9.9641865e-05
9.9284958e-05
9.859999e-05
9.7925043e-05
0.00010022517
0.00012123091
0.00022425603
0.00056106272
9.1744874e-05
9.174416e-05
9.1738826e-05
9.1717148e-05
9.1647174e-05
9.1460104e-05
9.1049018e-05
9.0398665e-05
9.0258419e-05
9.5030413e-05
0.00012461431
0.00024286356
0.00054449405
8.4785472e-05
8.4783454e-05
8.4774018e-05
8.4741918e-05
8.4649457e-05
8.4426122e-05
8.3996574e-05
8.3502376e-05
8.4241543e-05
9.2421343e-05
0.00013239492
0.00026511347
0.00053012765
7.8752977e-05
7.8749319e-05
7.8734951e-05
7.8691403e-05
7.8577619e-05
7.8330528e-05
7.7932172e-05
7.7743318e-05
7.9771153e-05
9.2438122e-05
0.00014444361
0.00028951151
0.0005186607
7.3479682e-05
7.3474066e-05
7.3454131e-05
7.3398964e-05
7.3267704e-05
7.3016085e-05
7.2712929e-05
7.3009357e-05
7.6815021e-05
9.5182833e-05
0.00016036324
0.00031428525
0.00051014247
6.8835097e-05
6.8827266e-05
6.8801436e-05
6.8735571e-05
6.8593744e-05
6.836405e-05
6.8235745e-05
6.9234209e-05
7.5403716e-05
0.00010076472
0.00017939076
0.00033780739
0.0005042266
6.4716374e-05
6.4706175e-05
6.4674551e-05
6.4600233e-05
6.4458202e-05
6.4284863e-05
6.4429045e-05
6.6391811e-05
7.5619872e-05
0.0001092241
0.00020043528
0.00035894529
0.00050037283
6.1041501e-05
6.1028932e-05
6.0992164e-05
6.091321e-05
6.0785257e-05
6.0711783e-05
6.1247563e-05
6.4493002e-05
7.7580807e-05
0.00012045028
0.00022225715
0.00037717552
0.0004980107
5.7744396e-05
5.7729653e-05
5.7689074e-05
5.7611142e-05
5.751606e-05
5.7596592e-05
5.8669223e-05
6.3582872e-05
8.1411586e-05
0.00013412437
0.00024370832
0.00039247762
0.00049664628
5.4771313e-05
5.4754847e-05
5.4712615e-05
5.4643526e-05
5.4605384e-05
5.4906753e-05
5.6693486e-05
6.3736861e-05
8.7208043e-05
0.00014971788
0.00026392364
0.00040513366
0.00049590625
5.2078186e-05
5.206076e-05
5.2020025e-05
5.1970154e-05
5.2019282e-05
5.2623661e-05
5.5340604e-05
6.5053658e-05
9.4994184e-05
0.00016655656
0.0002823955
0.00041554871
0.00049553614
4.9628636e-05
4.9611393e-05
4.9576492e-05
4.9559258e-05
4.9733503e-05
5.0741692e-05
5.4651195e-05
6.7643172e-05
0.00010468473
0.00018392817
0.00029893687
0.00042413794
0.00049537652
4.7392458e-05
4.7377004e-05
4.7353699e-05
4.7386176e-05
4.773248e-05
4.9267885e-05
5.4685328e-05
7.1608742e-05
0.00011606686
0.00020119288
0.00031358495
0.0004312733
0.0004953351
4.5344476e-05
4.5332971e-05
4.5328746e-05
4.5432431e-05
4.600877e-05
4.8222045e-05
5.5520138e-05
7.7024461e-05
0.00012881109
0.00021785898
0.00032650009
0.00043726613
0.00049536294
4.3463657e-05
4.3458933e-05
4.3483358e-05
4.3685127e-05
4.4562868e-05
4.7637065e-05
5.7244887e-05
8.3911105e-05
0.00014251076
0.00023360813
0.00033789056
0.00044236711
0.00049543702
4.1732429e-05
4.173814e-05
4.1803329e-05
4.2136614e-05
4.3403329e-05
4.7559127e-05
5.9952698e-05
9.2216772e-05
0.00015673761
0.00024827797
0.00034796834
0.00044677301
0.00049554866
4.0136167e-05
4.015697e-05
4.0278148e-05
4.0784372e-05
4.2547129e-05
4.8047287e-05
6.37287e-05
0.00010180889
0.00017109624
0.00026182258
0.0003569282
0.00045063571
0.00049569617
3.8662802e-05
3.8704582e-05
3.8900797e-05
3.9631107e-05
4.2020194e-05
4.917184e-05
6.863543e-05
0.00011248165
0.0001852623
0.00027427018
0.00036494028
0.00045407114
0.00049588069
3.7302531e-05
3.7372692e-05
3.7667676e-05
3.8685008e-05
4.1857944e-05
5.1010816e-05
7.4697746e-05
0.00012397797
0.00019899861
0.00028568912
0.00037214923
0.00045716736
0.00049610392
3.6047628e-05
3.6155447e-05
3.6578682e-05
3.7960181e-05
4.2105652e-05
5.3644137e-05
8.1890766e-05
0.00013601988
0.00021215193
0.00029616534
0.00037867608
0.00045999117
0.00049636709
3.4892327e-05
3.5049398e-05
3.5637398e-05
3.7477201e-05
4.2818254e-05
5.7145345e-05
9.0134488e-05
0.00014833914
0.00022463802
0.00030578893
0.00038462123
0.0004625934
0.00049667064
3.383279e-05
3.4053569e-05
3.4851411e-05
3.7263736e-05
4.4059203e-05
6.1571462e-05
9.9297381e-05
0.00016070076
0.00023642316
0.00031464714
0.00039006764
0.00046501299
0.00049701416
3.2867148e-05
3.316962e-05
3.4232755e-05
3.7355161e-05
4.589791e-05
6.6952452e-05
0.00010920861
0.00017291579
0.00024750737
0.00032282077
0.00039508379
0.00046727996
0.00049739654
3.1995627e-05
3.2402111e-05
3.3798454e-05
3.7794962e-05
4.8405427e-05
7.3282436e-05
0.00011967597
0.00018484396
0.00025791153
0.00033038288
0.00039972633
0.00046941774
0.00049781615
3.1220754e-05
3.1758868e-05
3.3571166e-05
3.8634688e-05
5.16483e-05
8.0515035e-05
0.00013050501
0.00019638896
0.00026766839
0.00033739835
0.00040404224
0.00047144508
0.00049827105
3.0547674e-05
3.1251458e-05
3.3579859e-05
3.9933128e-05
5.5680955e-05
8.8564412e-05
0.00014151526
0.0002074904
0.00027681665
0.00034392427
0.00040806987
0.00047336165
0.00049875826
2.9984563e-05
3.0895778e-05
3.3860461e-05
4.1754322e-05
6.0537583e-05
9.731215e-05
0.00015255089
0.00021811501
0.00028539698
0.00035000997
0.00041183982
0.00047517683
0.00049927448
2.9543172e-05
3.071274e-05
3.4456303e-05
4.416415e-05
6.6225004e-05
0.00010661843
0.00016348529
0.00022824914
0.00029345001
0.00035569878
0.00041537497
0.00047690098
0.00049981638
2.9239498e-05
3.072904e-05
3.5418148e-05
4.7225363e-05
7.2718215e-05
0.00011633497
0.00017422102
0.00023789273
0.00030101459
0.00036102772
0.00041869399
0.00047854312
0.00050038114
2.9094595e-05
3.0977951e-05
3.6803501e-05
5.0991333e-05
7.9959881e-05
0.00012631696
0.00018468652
0.00024705469
0.00030812683
0.00036602758
0.00042181619
0.00048011509
0.00050096676
2.9135496e-05
3.1500046e-05
3.867486e-05
5.5499188e-05
8.7864164e-05
0.00013643209
0.00019483195
0.00025575014
0.00031482083
0.00037072328
0.00042475508
0.00048162854
0.000501572
2.9396231e-05
3.2343669e-05
4.1096631e-05
6.0763504e-05
9.6324072e-05
0.00014656574
0.00020462431
0.0002639967
0.00032112526
0.00037513787
0.00042753007
0.00048308916
0.00050219529
2.9918841e-05
3.3564909e-05
4.4130585e-05
6.6771885e-05
0.00010522079
0.00015662302
0.00021404418
0.00027181505
0.00032706606
0.00037928747
0.00043015898
0.00048450266
0.00050283511
3.0754242e-05
3.5226725e-05
4.7830034e-05
7.3483556e-05
0.00011443287
0.00016652783
0.00022308102
0.00027922363
0.00033266468
0.00038319523
0.0004326545
0.00048587308
0.00050348988
3.1962696e-05
3.7396843e-05
5.223335e-05
8.0831459e-05
0.00012384408
0.00017622137
0.00023173238
0.0002862417
0.00033793723
0.00038688253
0.00043502774
0.00048720353
0.00050415803
3.3613506e-05
4.0144093e-05
5.7357852e-05
8.8727399e-05
0.00013334837
0.00018565852
0.00023999855
0.00029288457
0.000342906
0.0003903665
0.00043728792
0.00048849635
0.00050483797
3.578341e-05
4.3533077e-05
6.3195315e-05
9.7069237e-05
0.00014285307
0.00019480683
0.00024788469
0.00029916231
0.0003475933
0.00039366187
0.0004394427
0.00048975326
0.00050552812
3.8553071e-05
4.7617437e-05
6.9710121e-05
0.00010574827
0.00015227865
0.00020364078
0.00025539328
0.00030509327
0.00035201757
0.00039678117
0.00044149841
0.00049097544
0.00050622691
4.2001157e-05
5.2432565e-05
7.684072e-05
0.00011465641
0.00016156
0.00021214493
0.00026252191
0.0003106968
0.00035619497
0.00039973501
0.00044346028
0.00049216365
0.00050693282
4.6195919e-05
5.7988961e-05
8.4503809e-05
0.00012369059
0.00017064176
0.00022029899
0.00026928191
0.00031598924
0.00036013921
0.00040253234
0.00044533248
0.00049331823
0.00050764431
5.1185012e-05
6.4267704e-05
9.2600624e-05
0.00013275647
0.00017947936
0.00022808585
0.00027568466
0.00032098498
0.00036386197
0.00040518051
0.00044711831
0.00049443917
0.00050835987
5.6985352e-05
7.1219281e-05
0.00010102456
0.00014177163
0.00018802206
0.00023550301
0.00028174027
0.00032569627
0.000367373
0.00040768552
0.00044882022
0.00049552611
0.00050907798
6.3575475e-05
7.8766077e-05
0.00010966807
0.00015065101
0.000196237
0.00024254864
0.00028745745
0.0003301333
0.00037068023
0.00041005204
0.00045043987
0.00049657836
0.00050979712
7.0893496e-05
8.6809038e-05
0.00011841801
0.00015932165
0.00020409992
0.00024922141
0.00029284339
0.00033430431
0.00037378988
0.00041228352
0.00045197816
0.00049759488
0.00051051572
7.8838298e-05
9.5225412e-05
0.00012716551
0.00016772594
0.00021159058
0.00025552005
0.00029790365
0.00033821563
0.00037670657
0.00041438223
0.00045343528
0.00049857427
0.00051123217
8.7271808e-05
0.00010388144
0.00013581423
0.00017581514
0.000218692
0.00026144306
0.00030264224
0.00034187179
0.00037943337
0.00041634932
0.00045481068
0.00049951482
0.00051194477
9.6036267e-05
0.00011264297
0.00014427892
0.00018354858
0.00022539007
0.00026698871
0.0003070617
0.00034527567
0.00038197194
0.00041818491
0.00045610317
0.00050041443
0.00051265174
0.00010496818
0.00012138225
0.00015248594
0.00019089306
0.00023167339
0.00027215522
0.00031116338
0.00034842872
0.00038432268
0.00041988816
0.00045731091
0.0005012707
0.00051335116
0.00011391063
0.00012998325
0.00016037327
0.00019782236
0.00023753333
0.00027694107
0.00031494779
0.00035133127
0.00038648496
0.00042145742
0.00045843152
0.00050208092
0.00051404099
0.00012272246
0.00013834515
0.0001678903
0.00020431689
0.00024296416
0.00028134542
0.00031841504
0.00035398283
0.00038845732
0.00042289038
0.00045946217
0.00050284213
0.00051471907
0.00013128379
0.00014638419
0.00017499743
0.00021036333
0.00024796325
0.00028536857
0.0003215653
0.00035638256
0.00039023784
0.00042418429
0.00046039971
0.00050355116
0.00051538306
0.00013949828
0.00015403414
0.00018166543
0.00021595424
0.00025253122
0.00028901239
0.00032439934
0.00035852967
0.00039182441
0.00042533624
0.00046124085
0.0005042048
0.00051603055
0.00014729287
0.00016124566
0.00018787466
0.00022108764
0.00025667191
0.00029228063
0.00032691896
0.00036042388
0.00039321519
0.00042634339
0.00046198233
0.00050479984
0.00051665898
0.00015461597
0.00016798485
0.00019361416
0.00022576645
0.00026039237
0.00029517923
0.00032912737
0.00036206584
0.0003944089
0.00042720329
0.0004626212
0.00050533326
0.00051726578
0.00016143461
0.0001742314
0.00019888058
0.00022999794
0.00026370258
0.00029771634
0.00033102951
0.00036345746
0.00039540521
0.00042791422
0.000463155
0.00050580236
0.00051784835
0.00016773148
0.00017997648
0.00020367712
0.00023379314
0.00026661523
0.00029990235
0.00033263218
0.00036460219
0.00039620506
0.0004284754
0.000463582
0.00050620496
0.00051840418
0.00017350186
0.00018522077
0.00020801249
0.00023716624
0.00026914537
0.0003017498
0.00033394415
0.00036550526
0.00039681083
0.0004288873
0.00046390144
0.00050653952
0.00051893091
0.00017875091
0.00018997246
0.00021189981
0.00024013399
0.00027131001
0.00030327312
0.00033497614
0.00036617369
0.00039722659
0.0004291518
0.00046411371
0.0005068053
0.00051942638
0.00018349132
0.0001942456
0.00021535576
0.00024271515
0.00027312772
0.00030448842
0.00033574063
0.00036661634
0.0003974581
0.00042927229
0.00046422041
0.00050700245
0.00051988877
0.00018774128
0.00019805858
0.00021839964
0.00024493002
0.00027461831
0.00030541318
0.00033625173
0.0003668438
0.00039751284
0.00042925372
0.00046422448
0.00050713207
0.00052031659
0.00019152291
0.00020143296
0.00022105271
0.00024679993
0.00027580241
0.00030606593
0.0003365249
0.00036686822
0.00039739989
0.00042910255
0.00046413011
0.00050719621
0.00052070879
0.00019486093
0.00020439237
0.00022333753
0.00024834688
0.00027670117
0.00030646595
0.00033657667
0.00036670304
0.00039712974
0.00042882659
0.0004639427
0.00050719778
0.00052106472
0.00019778164
0.00020696177
0.00022527738
0.00024959319
0.00027733595
0.00030663293
0.00033642434
0.00036636278
0.00039671407
0.00042843486
0.00046366867
0.00050714048
0.00052138417
0.00020031211
0.00020916672
0.00022689588
0.00025056113
0.00027772804
0.00030658674
0.00033608568
0.00036586268
0.00039616549
0.0004279373
0.00046331532
0.00050702867
0.00052166736
0.00020247958
0.0002110329
0.00022821657
0.00025127278
0.00027789844
0.0003063471
0.00033557862
0.00036521847
0.00039549723
0.00042734457
0.00046289055
0.00050686719
0.00052191487
0.00020431103
0.00021258573
0.00022926268
0.00025174969
0.00027786766
0.00030593341
0.00033492104
0.00036444602
0.0003947229
0.00042666776
0.00046240273
0.00050666124
0.00052212765
0.00020583279
0.00021385004
0.00023005682
0.00025201284
0.00027765559
0.00030536458
0.0003341305
0.00036356115
0.0003938562
0.00042591817
0.0004618604
0.00050641619
0.00052230694
0.00020707033
0.00021484985
0.00023062092
0.00025208241
0.00027728136
0.00030465882
0.00033322408
0.00036257941
0.00039291072
0.00042510708
0.00046127218
0.00050613749
0.00052245421
0.0002080481
0.00021560829
0.00023097601
0.00025197778
0.00027676325
0.00030383359
0.00033221824
0.00036151587
0.00039189975
0.00042424558
0.00046064654
0.00050583058
0.00052257118
0.00020878945
0.00021614742
0.00023114222
0.00025171742
0.00027611866
0.00030290552
0.00033112871
0.00036038501
0.00039083612
0.00042334441
0.00045999172
0.00050550073
0.00052265972
0.00020931653
0.00021648823
0.0002311387
0.00025131886
0.00027536408
0.00030189031
0.00032997037
0.00035920061
0.00038973206
0.00042241385
0.00045931561
0.00050515304
0.00052272181
0.00020965031
0.0002166506
0.00023098357
0.00025079868
0.00027451503
0.00030080277
0.00032875727
0.00035797565
0.00038859914
0.0004214636
0.00045862565
0.00050479233
0.00052275955
0.00020981056
0.00021665329
0.00023069396
0.00025017251
0.00027358607
0.00029965672
0.00032750249
0.00035672228
0.00038744814
0.0004205027
0.00045792876
0.00050442311
0.00052277505
0.00020981583
0.00021651391
0.00023028597
0.00024945499
0.00027259082
0.00029846502
0.0003262182
0.00035545172
0.00038628904
0.0004195395
0.0004572313
0.00050404952
0.00052277046
0.0002096835
0.000216249
0.00022977467
0.00024865982
0.00027154193
0.00029723957
0.00032491557
0.00035417426
0.00038513094
0.00041858155
0.000456539
0.00050367532
0.00052274789
0.00020942978
0.00021587396
0.00022917413
0.00024779973
0.00027045108
0.00029599129
0.00032360479
0.00035289924
0.00038398205
0.00041763562
0.00045585698
0.00050330383
0.00052270939
0.00020906976
0.00021540314
0.00022849743
0.00024688648
0.00026932901
0.00029473012
0.00032229511
0.00035163504
0.00038284964
0.00041670768
0.00045518966
0.00050293796
0.00052265694
0.00020861741
0.00021484982
0.00022775664
0.00024593094
0.00026818555
0.00029346507
0.00032099477
0.00035038907
0.00038174012
0.00041580287
0.00045454082
0.00050258017
0.00052259242
0.00020808562
0.00021422626
0.00022696292
0.00024494304
0.00026702961
0.00029220423
0.00031971112
0.00034916785
0.000380659
0.00041492555
0.00045391363
0.00050223249
0.00052251756
0.00020748628
0.00021354374
0.00022612648
0.00024393185
0.00026586925
0.0002909548
0.00031845057
0.00034797698
0.00037961094
0.00041407933
0.0004533105
0.00050189516
0.00052243394
0.00020683029
0.00021281262
0.00022525667
0.0002429056
0.00026471168
0.00028972315
0.00031721872
0.00034682122
0.00037859979
0.00041326704
0.00045273314
0.00050156782
0.00052234286
0.00020612763
0.00021204235
0.00022436199
0.00024187174
0.00026356337
0.00028851488
0.00031602036
0.00034570458
0.00037762871
0.00041249087
0.00045218185
0.00050125131
0.0005222455
0.00020538742
0.00021124156
0.00022345018
0.00024083696
0.00026243003
0.00028733483
0.00031485954
0.00034463031
0.00037670008
0.00041175223
0.00045165721
0.00050094704
0.00052214303
0.00020461796
0.0002104181
0.00022252825
0.00023980726
0.0002613167
0.00028618719
0.00031373969
0.00034360109
0.00037581579
0.00041105151
0.00045115939
0.00050065692
0.00052203672
0.00020382683
0.00020957909
0.00022160249
0.00023878802
0.00026022782
0.00028507554
0.00031266359
0.0003426189
0.00037497676
0.00041038894
0.00045068958
0.00050038196
0.00052192775
0.00020302086
0.00020873098
0.00022067858
0.00023778398
0.00025916721
0.00028400287
0.00031163343
0.00034168512
0.00037418345
0.00040976478
0.00045024863
0.00050012289
0.00052181717
0.00020220625
0.00020787957
0.00021976162
0.00023679934
0.00025813821
0.00028297168
0.00031065094
0.00034080053
0.00037343563
0.00040917973
0.000449837
0.00049988018
0.00052170594
0.00020138858
0.00020703008
0.00021885612
0.0002358378
0.00025714362
0.00028198392
0.00030971718
0.0003399651
0.00037273368
0.000408634
0.00044945475
0.00049965403
0.00052159493
0.00020057287
0.00020618718
0.00021796609
0.00023490254
0.00025618577
0.00028104108
0.00030883262
0.00033917886
0.00037207774
0.00040812744
0.00044910168
0.00049944444
0.00052148489
0.00019976358
0.00020535501
0.00021709504
0.00023399628
0.00025526656
0.00028014409
0.00030799717
0.00033844194
0.00037146758
0.00040765963
0.00044877736
0.00049925125
0.00052137648
0.00019896467
0.00020453723
0.00021624605
0.00023312135
0.00025438737
0.00027929313
0.00030721107
0.00033775413
0.00037090266
0.00040722984
0.00044848113
0.00049907412
0.00052127025
0.00019817964
0.00020373704
0.00021542176
0.00023227952
0.00025354885
0.0002784886
0.00030647422
0.00033711488
0.00037038212
0.00040683713
0.00044821215
0.0004989126
0.00052116668
0.00019741155
0.00020295721
0.00021462422
0.00023147198
0.00025275173
0.00027773065
0.00030578619
0.00033652338
0.00036990488
0.00040648034
0.00044796942
0.00049876613
0.00052106615
0.00019666293
0.00020219996
0.00021385511
0.00023069982
0.00025199644
0.00027701911
0.00030514633
0.00033597854
0.00036946966
0.00040615815
0.00044775186
0.00049863408
0.00052096898
0.00019593591
0.00020146713
0.00021311579
0.00022996383
0.00025128317
0.00027635357
0.00030455371
0.0003354791
0.00036907499
0.00040586914
0.00044755826
0.00049851576
0.00052087541
0.00019523227
0.00020076029
0.00021240738
0.00022926455
0.00025061183
0.00027573338
0.00030400723
0.00033502362
0.00036871927
0.00040561176
0.0004473874
0.00049841045
0.00052078563
0.00019455351
0.00020008071
0.00021173071
0.00022860226
0.00024998215
0.00027515772
0.00030350561
0.00033461052
0.00036840083
0.00040538444
0.000447238
0.00049831745
0.00052069978
0.00019390084
0.00019942939
0.0002110864
0.00022797707
0.00024939365
0.00027462559
0.00030304744
0.00033423814
0.00036811793
0.00040518557
0.00044710881
0.00049823604
0.00052061798
0.00019327527
0.00019880714
0.00021047485
0.00022738886
0.00024884569
0.00027413587
0.0003026312
0.00033390473
0.00036786879
0.00040501353
0.00044699858
0.00049816553
0.0005205403
0.00019267755
0.00019821454
0.00020989625
0.00022683735
0.00024833748
0.00027368729
0.0003022553
0.0003336085
0.0003676516
0.00040486674
0.00044690611
0.00049810525
0.00052046679
0.00019210826
0.00019765196
0.00020935065
0.00022632212
0.00024786812
0.00027327853
0.00030191808
0.00033334765
0.00036746459
0.00040474361
0.00044683021
0.00049805457
0.00052039748
0.00019156778
0.00019711963
0.00020883791
0.00022584261
0.00024743658
0.00027290816
0.00030161783
0.00033312032
0.00036730597
0.0004046426
0.00044676972
0.00049801286
0.00052033238
0.00019105633
0.00019661759
0.00020835776
0.00022539813
0.00024704175
0.00027257469
0.00030135281
0.00033292467
0.00036717397
0.00040456218
0.00044672352
0.00049797951
0.00052027147
0.00019057396
0.00019614574
0.0002079098
0.00022498788
0.00024668242
0.00027227656
0.00030112122
0.00033275886
0.00036706684
0.00040450087
0.00044669053
0.00049795391
0.00052021471
0.00019012058
0.00019570384
0.00020749348
0.00022461095
0.0002463573
0.00027201218
0.00030092127
0.00033262102
0.00036698283
0.00040445719
0.00044666966
0.00049793547
0.00052016204
0.00018969595
0.00019529152
0.00020710814
0.00022426632
0.00024606503
0.00027177987
0.00030075113
0.00033250931
0.00036692023
0.0004044297
0.00044665985
0.00049792359
0.00052011336
0.00018929971
0.00019490826
0.00020675304
0.00022395292
0.00024580419
0.00027157797
0.00030060895
0.00033242188
0.00036687734
0.00040441699
0.00044666006
0.00049791766
0.00052006857
0.00018893135
0.00019455345
0.00020642729
0.00022366957
0.0002455733
0.00027140476
0.00030049291
0.00033235691
0.00036685249
0.00040441766
0.00044666929
0.00049791712
0.00052002753
0.00018859029
0.00019422639
0.00020612997
0.00022341502
0.00024537085
0.0002712585
0.00030040118
0.00033231261
0.00036684407
0.00040443037
0.00044668656
0.00049792139
0.00051999011
0.00018827583
0.00019392626
0.00020586004
0.00022318801
0.00024519529
0.00027113747
0.00030033195
0.00033228722
0.0003668505
0.00040445385
0.00044671093
0.00049792992
0.00051995614
0.00018798722
0.0001936522
0.00020561643
0.00022298721
0.00024504508
0.00027103996
0.00030028345
0.00033227906
0.00036687027
0.00040448687
0.00044674152
0.00049794222
0.00051992547
0.0001877236
0.00019340327
0.00020539804
0.00022281128
0.00024491868
0.0002709643
0.00030025399
0.0003322865
0.00036690196
0.00040452828
0.00044677753
0.00049795783
0.00051989793
0.00018748411
0.00019317851
0.00020520371
0.00022265889
0.00024481456
0.00027090884
0.00030024191
0.000332308
0.00036694424
0.00040457703
0.00044681821
0.00049797632
0.00051987339
0.00018726783
0.00019297691
0.0002050323
0.00022252869
0.00024473124
0.00027087202
0.00030024566
0.00033234212
0.00036699586
0.00040463213
0.00044686289
0.00049799734
0.00051985169
0.00018707383
0.00019279747
0.00020488265
0.00022241937
0.00024466726
0.00027085233
0.00030026374
0.00033238748
0.00036705566
0.00040469271
0.00044691098
0.00049802057
0.0005198327
0.00018690113
0.00019263915
0.00020475361
0.00022232964
0.00024462123
0.0002708483
0.00030029475
0.00033244282
0.00036712257
0.00040475795
0.00044696194
0.00049804572
0.00051981629
0.00018674878
0.00019250093
0.00020464404
0.00022225824
0.00024459178
0.00027085856
0.00030033736
0.00033250694
0.00036719562
0.00040482711
0.00044701527
0.00049807255
0.00051980233
0.00018661579
0.00019238177
0.0002045528
0.00022220391
0.00024457759
0.00027088177
0.00030039031
0.00033257872
0.00036727388
0.0004048995
0.00044707053
0.00049810079
0.00051979071
0.00018650117
0.00019228064
0.00020447876
0.00022216545
0.00024457739
0.00027091667
0.0003004524
0.00033265711
0.00036735648
0.00040497447
0.00044712729
0.00049813023
0.00051978129
0.00018640391
0.00019219647
0.00020442079
0.00022214164
0.00024458993
0.00027096201
0.00030052246
0.00033274109
0.0003674426
0.00040505141
0.00044718512
0.0004981606
0.00051977395
0.000186323
0.00019212821
0.00020437778
0.00022213131
0.00024461399
0.00027101659
0.00030059938
0.00033282968
0.00036753144
0.00040512971
0.00044724361
0.00049819165
0.00051976853
0.00018625739
0.0001920748
0.0002043486
0.00022213327
0.00024464837
0.00027107926
0.0003006821
0.00033292195
0.00036762223
0.00040520879
0.00044730234
0.00049822311
0.00051976488
0.00018620604
0.00019203517
0.00020433214
0.00022214637
0.00024469192
0.00027114888
0.00030076956
0.00033301699
0.00036771424
0.00040528807
0.00044736091
0.00049825471
0.00051976284
0.00018616791
0.00019200823
0.00020432728
0.00022216947
0.00024474348
0.00027122436
0.00030086078
0.00033311395
0.00036780676
0.00040536701
0.00044741891
0.00049828617
0.00051976222
0.00018614193
0.00019199294
0.00020433294
0.00022220147
0.00024480198
0.00027130467
0.00030095482
0.00033321201
0.00036789912
0.00040544511
0.00044747598
0.00049831724
0.00051976288
0.00018612709
0.00019198825
0.00020434805
0.00022224129
0.00024486635
0.00027138883
0.0003010508
0.00033331043
0.00036799074
0.00040552191
0.0004475318
0.00049834772
0.00051976464
0.0001861224
0.00019199314
0.0002043716
0.00022228793
0.00024493564
0.00027147594
0.00030114792
0.00033340854
0.00036808108
0.00040559702
0.00044758611
0.00049837744
0.00051976737
0.00018612688
0.00019200667
0.00020440262
0.00022234045
0.00024500894
0.00027156516
0.00030124548
0.00033350577
0.00036816971
0.00040567015
0.0004476387
0.00049840628
0.00051977094
0.00018613966
0.00019202793
0.00020444023
0.00022239796
0.00024508544
0.00027165578
0.00030134285
0.00033360164
0.00036825628
0.00040574105
0.00044768946
0.00049843419
0.00051977525
0.00018615988
0.00019205608
0.00020448359
0.00022245968
0.0002451644
0.00027174717
0.00030143953
0.00033369574
0.00036834053
0.0004058096
0.00044773832
0.00049846115
0.00051978023
0.00018618677
0.00019209035
0.00020453195
0.00022252491
0.00024524519
0.00027183876
0.00030153507
0.00033378778
0.00036842227
0.00040587569
0.00044778527
0.00049848721
0.00051978581
0.00018621962
0.00019213003
0.00020458463
0.00022259299
0.00024532724
0.0002719301
0.00030162913
0.00033387753
0.00036850138
0.0004059393
0.00044783035
0.00049851234
0.00051979195
0.00018625777
0.00019217447
0.000204641
0.00022266336
0.00024541004
0.00027202079
0.00030172141
0.00033396478
0.00036857776
0.00040600042
0.00044787357
0.0004985364
0.0005197986
0.00018630058
0.00019222306
0.00020470049
0.00022273549
0.00024549316
0.00027211046
0.00030181165
0.0003340494
0.00036865135
0.00040605903
0.00044791486
0.0004985594
0.00051980571
0.00018634747
0.00019227522
0.00020476254
0.00022280889
0.00024557616
0.00027219877
0.00030189962
0.00033413122
0.00036872207
0.00040611509
0.00044795418
0.00049858133
0.00051981319
0.00018639787
0.0001923304
0.00020482664
0.00022288308
0.00024565865
0.00027228542
0.00030198507
0.00033421009
0.00036878982
0.00040616848
0.00044799143
0.00049860227
0.00051982101
0.0001864512
0.00019238805
0.00020489227
0.00022295761
0.00024574024
0.00027237008
0.00030206778
0.00033428584
0.00036885446
0.00040621909
0.0004480266
0.00049862221
0.00051982907
0.00018650691
0.00019244761
0.00020495893
0.00022303202
0.00024582053
0.00027245245
0.00030214749
0.00033435828
0.00036891582
0.00040626677
0.00044805967
0.00049864109
0.00051983731
0.00018656444
0.00019250856
0.00020502611
0.00022310587
0.00024589915
0.00027253221
0.00030222397
0.00033442722
0.00036897373
0.00040631148
0.00044809058
0.00049865886
0.00051984563
0.00018662324
0.00019257038
0.00020509334
0.00022317873
0.00024597574
0.00027260907
0.00030229699
0.00033449246
0.00036902805
0.00040635317
0.00044811929
0.00049867545
0.00051985394
0.00018668279
0.00019263256
0.00020516015
0.00022325019
0.00024604996
0.00027268277
0.00030236634
0.0003345538
0.00036907873
0.00040639178
0.00044814575
0.00049869081
0.00051986215
0.00018674261
0.00019269463
0.00020522612
0.00022331991
0.00024612153
0.0002727531
0.00030243182
0.00033461119
0.00036912574
0.00040642732
0.00044816996
0.0004987049
0.0005198702
0.00018680225
0.00019275617
0.00020529088
0.00022338756
0.00024619022
0.00027281984
0.00030249332
0.0003346646
0.0003691691
0.00040645981
0.00044819194
0.00049871773
0.00051987802
0.00018686133
0.00019281682
0.00020535412
0.00022345291
0.00024625581
0.00027288289
0.00030255085
0.00033471408
0.00036920888
0.00040648934
0.00044821177
0.00049872934
0.00051988558
0.00018691951
0.00019287628
0.00020541557
0.00022351574
0.00024631818
0.00027294221
0.00030260442
0.0003347597
0.0003692452
0.00040651604
0.00044822956
0.0004987398
0.00051989287
0.00018697656
0.00019293431
0.00020547504
0.00022357592
0.00024637728
0.00027299782
0.00030265414
0.00033480161
0.00036927822
0.00040654007
0.00044824546
0.00049874922
0.00051989988
0.00018703225
0.00019299072
0.00020553238
0.00022363336
0.0002464331
0.00027304981
0.00030270013
0.00033483997
0.00036930814
0.00040656163
0.00044825962
0.00049875771
0.00051990663
0.00018708643
0.00019304537
0.00020558749
0.00022368804
0.00024648568
0.00027309826
0.00030274255
0.00033487499
0.00036933515
0.0004065809
0.00044827223
0.00049876539
0.00051991315
0.00018713898
0.00019309815
0.00020564032
0.00022373996
0.00024653509
0.00027314331
0.00030278158
0.00033490686
0.00036935948
0.0004065981
0.00044828343
0.00049877236
0.00051991944
0.0001871898
0.00019314901
0.00020569084
0.00022378914
0.00024658141
0.00027318509
0.00030281738
0.00033493577
0.00036938131
0.00040661338
0.00044829338
0.0004987787
0.00051992553
0.00018723883
0.00019319788
0.00020573903
0.00022383561
0.00024662472
0.00027322373
0.00030285011
0.0003349619
0.0003694008
0.00040662689
0.00044830217
0.00049878447
0.00051993142
0.00018728599
0.00019324471
0.00020578488
0.0002238794
0.00024666509
0.00027325933
0.0003028799
0.00033498538
0.0003694181
0.00040663875
0.00044830987
0.00049878969
0.00051993712
0.00018733121
0.00019328945
0.00020582836
0.00022392053
0.00024670259
0.00027329199
0.00030290687
0.00033500633
0.0003694333
0.00040664903
0.00044831653
0.00049879437
0.0005199426
0.00018737443
0.00019333205
0.00020586946
0.00022395902
0.00024673726
0.00027332179
0.00030293111
0.00033502485
0.00036944649
0.0004066578
0.00044832218
0.00049879849
0.00051994784
0.00018741557
0.00019337245
0.00020590814
0.00022399487
0.00024676915
0.00027334879
0.0003029527
0.00033504102
0.00036945773
0.00040666507
0.00044832681
0.00049880203
0.00051995282