/*--------------------------------*- C++ -*----------------------------------*\
| =========                 |                                                 |
| \\      /  F ield         | OpenFOAM: The Open Source CFD Toolbox           |
|  \\    /   O peration     | Version:  2506                                  |
|   \\  /    A nd           | Website:  www.openfoam.com                      |
|    \\/     M anipulation  |                                                 |
\*---------------------------------------------------------------------------*/
FoamFile
{
    version     2.0;
    format      ascii;
    arch        "LSB;label=32;scalar=64";
    class       volVectorField;
    location    "22000/water";
    object      U;
}
// * * * * * * * * * * * * * * * * * * * * * * * * * * * * * * * * * * * * * //

dimensions      [0 1 -1 0 0 0 0];

internalField   nonuniform List<vector> 
2600
(
(0.2509291 -6.6886033e-05 -7.1516675e-19)
(0.25093316 -0.00014739222 -3.0496874e-18)
(0.25094167 -0.00023143146 -3.4283106e-19)
(0.2509543 -0.00031980043 -6.8132673e-19)
(0.25097092 -0.0004082391 1.5619982e-19)
(0.25099124 -0.00049673665 -5.0376058e-20)
(0.25101467 -0.0005856609 -5.0853985e-21)
(0.25103908 -0.00067482201 -1.5527394e-19)
(0.25105541 -0.00075972197 -3.8445066e-20)
(0.25102652 -0.00083857781 -5.0067329e-20)
(0.25079811 -0.00098580402 -9.1409301e-20)
(0.24954942 -0.001485464 2.5946952e-20)
(0.2411817 0.0014904344 -4.3685393e-19)
(0.25290631 -5.2391824e-05 -7.2478545e-19)
(0.25291356 -0.00012867936 -3.4879019e-18)
(0.25292967 -0.00020232594 -6.7773528e-19)
(0.25295369 -0.00027812692 -4.7056381e-19)
(0.25298503 -0.00035187867 1.5743385e-19)
(0.25302278 -0.00042368282 -2.180335e-19)
(0.25306456 -0.0004936843 4.2123663e-23)
(0.25310219 -0.00056251339 -4.3039219e-20)
(0.25310631 -0.00062550536 -3.0668065e-20)
(0.25297401 -0.00066089399 -1.5474827e-19)
(0.25231856 -0.00068576655 -2.2218436e-19)
(0.24919071 -0.0011507908 -1.8774448e-19)
(0.23317376 0.00055016191 -4.9059051e-19)
(0.25485703 -5.020126e-05 -1.7208667e-18)
(0.25486389 -0.00012463928 -1.2667606e-18)
(0.2548791 -0.00019574884 -1.5602122e-18)
(0.2549016 -0.00026956178 1.7539112e-19)
(0.25493052 -0.00034177627 -8.2468369e-20)
(0.25496396 -0.00041257844 -8.3944363e-20)
(0.25499618 -0.00048173979 -8.2760493e-20)
(0.25500857 -0.00054996705 5.1505575e-19)
(0.25494172 -0.0006163767 2.4305669e-19)
(0.2546073 -0.0006602417 -1.1408493e-19)
(0.25332071 -0.00063871076 -2.0232005e-19)
(0.2478214 -0.00092597142 -3.2636612e-19)
(0.22526486 0.00012340436 -5.7937986e-19)
(0.25664521 -4.9743849e-05 2.0491151e-18)
(0.25665224 -0.00012488064 1.2795989e-18)
(0.2566674 -0.00019721364 -2.5540037e-19)
(0.2566896 -0.0002720698 1.8048964e-20)
(0.25671747 -0.00034495172 1.7999219e-20)
(0.25674738 -0.00041609227 1.5024891e-19)
(0.25676826 -0.0004848948 -1.4532644e-19)
(0.25674667 -0.00055096518 2.1868888e-19)
(0.25658539 -0.00061444887 -1.2635929e-19)
(0.2559957 -0.0006636637 -4.230413e-20)
(0.2539403 -0.00063277351 -9.628938e-20)
(0.24583249 -0.00077044467 -2.4549237e-19)
(0.21800982 -5.9385921e-05 -5.8760824e-19)
(0.25841323 -4.8556774e-05 2.8807574e-18)
(0.2584204 -0.00012219546 1.4128804e-18)
(0.25843571 -0.00019301892 4.0797512e-19)
(0.25845781 -0.00026625064 -3.6067726e-19)
(0.25848442 -0.00033744492 -8.9933618e-20)
(0.25850914 -0.00040689654 -9.0276477e-21)
(0.25851346 -0.00047389151 1.0452762e-20)
(0.25844542 -0.00053705871 -2.5484932e-19)
(0.25816424 -0.00059536594 -3.6341349e-20)
(0.25726648 -0.00064373127 -6.1419172e-21)
(0.25431322 -0.0006144232 -5.6682919e-20)
(0.24352458 -0.00065114414 -1.7677834e-19)
(0.21163262 -0.00012321892 -4.2727272e-19)
(0.26015467 -4.7093439e-05 1.2335534e-18)
(0.26016187 -0.0001185153 3.653513e-19)
(0.26017704 -0.0001870764 1.7061734e-19)
(0.2601984 -0.00025799462 6.3164239e-19)
(0.26022227 -0.00032687701 -2.7010514e-19)
(0.26023853 -0.0003939878 6.0346341e-21)
(0.26021927 -0.00045855461 3.6567837e-20)
(0.26009115 -0.00051865148 -7.8123436e-20)
(0.25966515 -0.00057157394 1.4996205e-20)
(0.2584067 -0.0006148087 4.2049054e-20)
(0.25443266 -0.00058544056 -5.7080258e-20)
(0.24102793 -0.0005571206 -4.3975467e-20)
(0.20612335 -0.00013293671 -3.2085534e-19)
(0.26183846 -4.5390267e-05 -6.1957754e-19)
(0.26184561 -0.00011435405 -6.5582431e-20)
(0.26186042 -0.00018050108 2.6810715e-19)
(0.26188043 -0.00024892327 1.0784918e-18)
(0.26190008 -0.00031528561 2.234669e-19)
(0.26190445 -0.00037977026 3.2456899e-19)
(0.26185458 -0.00044151446 4.5871737e-20)
(0.2616533 -0.00049832849 -4.4600822e-20)
(0.26105826 -0.00054618084 -2.6217746e-19)
(0.25938354 -0.00058222647 4.0547718e-20)
(0.25426994 -0.00054801504 -5.8276467e-20)
(0.23842933 -0.00047868139 -9.2760742e-20)
(0.20141646 -0.00011963306 -3.8611289e-19)
(0.26345768 -4.3664881e-05 -2.978372e-18)
(0.26346469 -0.00011008557 -1.4906774e-18)
(0.26347885 -0.00017377013 -4.2024203e-19)
(0.26349678 -0.00023963045 2.4846871e-20)
(0.26351051 -0.00030340684 3.8759034e-19)
(0.26349932 -0.00036518044 2.4483957e-19)
(0.26341166 -0.00042394822 1.8258265e-19)
(0.2631242 -0.00047735793 -5.5494874e-20)
(0.26233468 -0.00052050214 7.2763571e-20)
(0.26018092 -0.00054846095 3.7853557e-20)
(0.25381559 -0.00050481858 -8.2381411e-20)
(0.23581666 -0.00040978299 1.1472928e-19)
(0.19745226 -9.8494616e-05 -2.9814997e-19)
(0.26501552 -4.2046878e-05 1.8441667e-18)
(0.26502225 -0.00010599907 1.4719279e-18)
(0.26503542 -0.0001673021 1.3455129e-18)
(0.26505044 -0.00023067618 1.0284621e-18)
(0.26505633 -0.00029193977 3.6778865e-19)
(0.26502564 -0.00035106734 1.8154784e-19)
(0.26489279 -0.0004068816 1.2378985e-19)
(0.26450568 -0.00045685739 3.0830398e-20)
(0.26349313 -0.00049549057 -2.5102647e-19)
(0.26078727 -0.00051473411 -6.8118656e-20)
(0.25307513 -0.00045847926 -3.2036666e-20)
(0.23327192 -0.00034737981 2.0275974e-19)
(0.19416843 -7.6932877e-05 -8.5339675e-20)
(0.2665165 -4.057706e-05 7.3980576e-19)
(0.26652283 -0.00010224007 1.2325314e-18)
(0.26653459 -0.00016134013 1.3233644e-18)
(0.26654572 -0.0002224043 1.0640544e-18)
(0.26654166 -0.00028132047 5.3003491e-19)
(0.26648729 -0.00033795568 2.892224e-19)
(0.26630156 -0.0003909415 3.4364047e-20)
(0.26580019 -0.00043752442 -7.1971599e-21)
(0.26453091 -0.00047164498 -2.3186353e-19)
(0.26118849 -0.00048140525 -7.7327503e-20)
(0.25206937 -0.00041120617 -3.0885098e-20)
(0.23086314 -0.00029047959 -9.7627641e-20)
(0.19149027 -5.8333255e-05 -9.7965327e-20)
(0.26796591 -3.9276698e-05 -1.1883618e-18)
(0.26797166 -9.8886215e-05 -1.2834469e-18)
(0.26798155 -0.00015601486 -3.037497e-20)
(0.26798768 -0.00021499986 7.8179981e-19)
(0.26797137 -0.00027178437 4.7591345e-19)
(0.26788889 -0.00032612646 1.9701017e-19)
(0.26764202 -0.00037645613 1.3270326e-20)
(0.26700984 -0.00041972353 -1.6571352e-19)
(0.26544297 -0.00044912486 -1.7802781e-19)
(0.26137042 -0.00044842588 -5.876505e-20)
(0.25083979 -0.00036475941 -7.1812725e-20)
(0.22864123 -0.00023936528 -3.4813832e-19)
(0.18933265 -4.3854023e-05 -1.2964599e-19)
(0.26936985 -3.8151201e-05 -2.8577019e-19)
(0.26937484 -9.596177e-05 -3.6980242e-19)
(0.26938229 -0.00015136516 -2.4273039e-20)
(0.2693822 -0.00020851723 2.8594739e-19)
(0.26935114 -0.00026339986 1.8385759e-19)
(0.26923575 -0.00031565718 6.9739979e-20)
(0.26891866 -0.00036350366 1.3406246e-19)
(0.26813622 -0.00040351927 -5.9189379e-20)
(0.26622207 -0.00042777197 -1.2658606e-19)
(0.26132397 -0.00041560855 -1.6290708e-19)
(0.24944814 -0.00032041762 -1.4805895e-19)
(0.22663743 -0.00019477817 -4.4055619e-19)
(0.18760708 -3.3365973e-05 -2.0489846e-19)
(0.27073452 -3.7186893e-05 -4.1991605e-19)
(0.27073851 -9.3441596e-05 -1.8686986e-20)
(0.27074291 -0.00014735094 -4.1865709e-19)
(0.27073523 -0.00020290125 -8.545453e-20)
(0.27068668 -0.0002560959 -1.9776168e-20)
(0.27053315 -0.00030645578 1.2142009e-20)
(0.27013553 -0.00035195662 2.155149e-19)
(0.26917943 -0.00038871662 -8.5178294e-21)
(0.26685881 -0.00040716162 -7.3838704e-20)
(0.26105041 -0.00038281109 -2.1497669e-19)
(0.24796793 -0.00027903903 -1.8445018e-19)
(0.2248628 -0.00015723519 -4.2171631e-19)
(0.18622942 -2.608962e-05 -3.0977881e-19)
(0.27206549 -3.6358598e-05 5.545063e-19)
(0.27206822 -9.1270025e-05 7.0133156e-20)
(0.27206885 -0.00014388431 -2.7878941e-19)
(0.27205207 -0.00019803069 8.338338e-19)
(0.27198302 -0.00024971698 -1.0800262e-19)
(0.27178551 -0.0002983267 2.4287214e-19)
(0.27129541 -0.00034156266 4.4128904e-19)
(0.27013718 -0.00037494839 -7.1856572e-20)
(0.26734241 -0.00038673535 -1.2709546e-19)
(0.2605654 -0.00035005845 -1.3574952e-19)
(0.24647172 -0.00024119444 -1.7316503e-19)
(0.22331131 -0.00012666963 -2.8854496e-19)
(0.18512583 -2.1076371e-05 -5.0560863e-19)
(0.27336737 -3.5638789e-05 1.9193277e-20)
(0.27336856 -8.9381861e-05 4.9966413e-19)
(0.27336463 -0.00014086217 1.2289852e-18)
(0.27333706 -0.00019376295 4.1539913e-19)
(0.27324415 -0.00024407934 1.8719991e-19)
(0.27299604 -0.00029103799 3.7660768e-19)
(0.27239931 -0.00033202383 3.433327e-19)
(0.27100443 -0.00036176734 5.3673524e-20)
(0.26766283 -0.00036596046 1.1750926e-19)
(0.25989992 -0.00031757793 -7.000842e-20)
(0.24502002 -0.00020725746 -3.8651418e-19)
(0.22196569 -0.00010242448 -1.0929427e-19)
(0.18423545 -1.7507119e-05 -2.0973723e-19)
(0.27464382 -3.5002894e-05 2.204673e-19)
(0.27464313 -8.7716017e-05 3.8252743e-19)
(0.27463375 -0.00013818758 8.676802e-19)
(0.2745935 -0.00018996324 3.925011e-19)
(0.27447297 -0.00023900779 5.3955868e-19)
(0.27416661 -0.00028436529 2.7949184e-19)
(0.27344636 -0.00032304577 -7.7591399e-20)
(0.27177364 -0.00034871442 1.1364411e-19)
(0.26781391 -0.00034445792 -1.2585569e-20)
(0.25909705 -0.00028576382 -1.3069618e-19)
(0.2436552 -0.00017740822 -3.7278507e-19)
(0.22080343 -8.3473065e-05 -3.0959493e-19)
(0.18351045 -1.4804619e-05 4.1252595e-20)
(0.27589768 -3.4431106e-05 1.2375232e-18)
(0.27589473 -8.6221419e-05 2.0970067e-19)
(0.27587888 -0.00013577914 -2.0829772e-19)
(0.27582384 -0.00018651757 3.651623e-19)
(0.27567139 -0.00023435206 6.5954521e-19)
(0.27529788 -0.00027811162 1.7166353e-19)
(0.27443375 -0.00031435607 -1.8491688e-19)
(0.27243556 -0.00033536392 1.2520412e-19)
(0.26779662 -0.00032206948 4.1603754e-20)
(0.25820551 -0.00025510598 -2.7542137e-19)
(0.24240122 -0.00015160163 -2.459597e-19)
(0.21980119 -6.8691006e-05 -3.3997727e-19)
(0.18291435 -1.2618556e-05 -2.9360641e-19)
(0.27713109 -3.3908297e-05 1.7185783e-18)
(0.27712546 -8.4858003e-05 6.5158127e-19)
(0.27710201 -0.00013357264 -8.7407876e-20)
(0.27702977 -0.00018333502 4.2733471e-19)
(0.27684047 -0.00022998947 4.3272727e-19)
(0.2763893 -0.00027211088 1.6715185e-20)
(0.27535691 -0.00030570399 -1.9177063e-19)
(0.2729805 -0.00032135787 -1.066887e-19)
(0.26762111 -0.00029886295 -2.2803017e-19)
(0.25727242 -0.00022610441 -2.472527e-19)
(0.24126718 -0.00012956886 -2.5730821e-19)
(0.21893722 -5.7057437e-05 -3.6048914e-19)
(0.18241982 -1.0759085e-05 -2.3274839e-19)
(0.27834572 -3.3423244e-05 1.3450622e-18)
(0.27833694 -8.3595439e-05 1.0690976e-18)
(0.2783046 -0.00013151911 1.1141134e-19)
(0.27821241 -0.00018034488 9.1600641e-19)
(0.27798052 -0.00022582105 -3.1384886e-19)
(0.27743925 -0.00026622306 1.6709603e-19)
(0.27620962 -0.00029685485 2.8300644e-19)
(0.27340008 -0.00030643644 -4.0684129e-20)
(0.26730692 -0.00027509384 -1.6946841e-19)
(0.25633756 -0.0001991843 -9.2617947e-20)
(0.24025214 -0.0001108758 -4.3279471e-20)
(0.21819234 -4.774937e-05 -3.4061284e-19)
(0.18200662 -9.1303549e-06 -3.7539778e-19)
(0.27954284 -3.2967676e-05 -6.724133e-20)
(0.27953036 -8.2411066e-05 1.2533603e-18)
(0.27948767 -0.00012958149 1.2864689e-18)
(0.27937237 -0.00017749197 9.5950254e-20)
(0.27909121 -0.00022176547 1.8097551e-19)
(0.27844503 -0.00026032527 3.3559818e-19)
(0.27698441 -0.00028758731 2.9334781e-19)
(0.27368915 -0.00029046173 9.8734704e-20)
(0.26688073 -0.00025114512 3.3081935e-19)
(0.25543062 -0.00017462896 2.3927531e-19)
(0.2393495 -9.5013856e-05 7.6761295e-20)
(0.21755 -4.015231e-05 -1.6355119e-20)
(0.18165972 -7.6839589e-06 -2.0966605e-19)
(0.28072346 -3.253541e-05 -1.5097205e-18)
(0.28070667 -8.1287794e-05 3.0132743e-19)
(0.28065194 -0.00012773124 9.8425028e-19)
(0.28050986 -0.0001747318 3.095773e-19)
(0.28017156 -0.00021775303 4.0260066e-19)
(0.27940289 -0.00025430188 2.518842e-19)
(0.27767312 -0.00027769789 3.506385e-19)
(0.27384765 -0.00027342828 3.7393174e-19)
(0.26637281 -0.00022746053 1.6876811e-19)
(0.2545711 -0.0001525485 -1.0195754e-19)
(0.23855012 -8.1484031e-05 -4.0447617e-19)
(0.21699614 -3.3827436e-05 1.4772592e-21)
(0.18136794 -6.3925406e-06 1.1239026e-19)
(0.28188837 -3.2121656e-05 -1.0291733e-18)
(0.28186655 -8.0212344e-05 6.9893515e-19)
(0.28179785 -0.00012594549 -1.1978848e-19)
(0.28162471 -0.00017202641 3.8683917e-19)
(0.28121999 -0.00021372065 2.8410608e-19)
(0.28030804 -0.00024803604 2.5457201e-19)
(0.27826773 -0.00026701328 4.5938452e-19)
(0.27388156 -0.00025545692 2.7751449e-19)
(0.26581311 -0.00020447967 1.7654367e-20)
(0.25377001 -0.00013289057 -3.8479047e-19)
(0.23784411 -6.9849922e-05 -4.0649659e-19)
(0.21651887 -2.8467155e-05 -1.4639673e-19)
(0.18112283 -5.237094e-06 -4.9654176e-20)
(0.28303819 -3.1722486e-05 1.8663074e-18)
(0.28301052 -7.9173849e-05 1.2616067e-18)
(0.28292559 -0.00012420469 -1.2553834e-19)
(0.28271638 -0.00016934096 -6.1456246e-19)
(0.2822343 -0.00020960734 4.6379374e-19)
(0.28115476 -0.00024140493 2.0261017e-19)
(0.27876144 -0.00025540748 1.3541788e-19)
(0.27380291 -0.00023677356 2.4980446e-19)
(0.26522808 -0.00018258167 7.9493933e-20)
(0.25303215 -0.00011548282 5.1816433e-20)
(0.23722187 -5.9756959e-05 7.2268315e-20)
(0.21610816 -2.3855672e-05 2.0195556e-20)
(0.18091788 -4.2018432e-06 1.1873784e-19)
(0.28417339 -3.1334453e-05 1.2216964e-18)
(0.28413893 -7.8162819e-05 7.3834216e-20)
(0.28403512 -0.00012249081 2.6853307e-19)
(0.28378396 -0.00016664114 8.8583936e-20)
(0.28321158 -0.0002053501 -2.3675679e-19)
(0.28193659 -0.00023428041 8.2893071e-20)
(0.27914984 -0.00024281874 3.1889157e-19)
(0.27362851 -0.00021767781 5.7758124e-19)
(0.26463906 -0.00016204558 3.4180663e-20)
(0.25235823 -0.00010008753 -3.7112291e-19)
(0.23667446 -5.0928431e-05 -3.0752029e-19)
(0.21575559 -1.9839549e-05 -3.0097143e-20)
(0.18074793 -3.2726345e-06 9.9291792e-20)
(0.28529433 -3.0954303e-05 -1.4420779e-19)
(0.28525196 -7.7170333e-05 -3.5454497e-19)
(0.28512619 -0.00012078599 1.0240292e-18)
(0.28482614 -0.00016389138 4.0204586e-19)
(0.28414822 -0.00020087986 1.6341498e-19)
(0.28264669 -0.00022653515 9.0016497e-20)
(0.27943202 -0.00022926075 1.6583516e-19)
(0.27337791 -0.00019850621 2.5853071e-19)
(0.26406181 -0.00014303339 1.2728373e-20)
(0.25174654 -8.6449674e-05 -4.7603037e-20)
(0.23619383 -4.3151077e-05 -1.3552633e-19)
(0.21545404 -1.6307479e-05 -3.4678956e-20)
(0.18060883 -2.4367066e-06 4.6107794e-20)
(0.28640123 -3.0578782e-05 1.3168981e-18)
(0.28634965 -7.6187461e-05 -7.3525958e-19)
(0.28619826 -0.00011907139 3.9200204e-19)
(0.28584114 -0.00016105348 -3.304725e-19)
(0.28503985 -0.00019611847 5.8082308e-19)
(0.2832784 -0.00021805401 1.7296826e-19)
(0.27961117 -0.00021482471 -1.0357902e-19)
(0.27307114 -0.00017959427 2.4506075e-19)
(0.26350715 -0.00012559657 1.8437675e-19)
(0.25119402 -7.4328964e-05 5.2283775e-19)
(0.23577276 -3.6259368e-05 3.5411446e-19)
(0.21519748 -1.3176831e-05 5.3070612e-20)
(0.18049716 -1.6827552e-06 1.4799384e-19)
(0.28749419 -3.020445e-05 1.4983761e-18)
(0.28743185 -7.5204717e-05 2.2972825e-18)
(0.28725056 -0.00011732616 -4.4400556e-20)
(0.28682673 -0.0001580853 -2.3945569e-19)
(0.28588145 -0.00019097762 2.5228681e-19)
(0.28382593 -0.00020874813 1.8789133e-19)
(0.27969464 -0.00019967158 -6.3002584e-20)
(0.27272686 -0.00016124193 5.3630776e-20)
(0.26298189 -0.00010969945 1.6838867e-19)
(0.25069697 -6.3515013e-05 1.3331659e-19)
(0.23540492 -3.0122537e-05 2.1717858e-19)
(0.21498079 -1.0384796e-05 -3.4820568e-20)
(0.18041 -1.0009996e-06 -3.9551846e-20)
(0.28857317 -2.9827533e-05 7.291985e-19)
(0.28849825 -7.4211609e-05 2.4197517e-18)
(0.28828196 -0.00011552671 4.8728433e-19)
(0.28778008 -0.00015493914 3.3728864e-19)
(0.28666738 -0.00018536089 3.5820263e-19)
(0.28428521 -0.00019856895 1.6557044e-19)
(0.27969326 -0.00018401637 2.1957046e-19)
(0.27236107 -0.0001436879 2.8685757e-19)
(0.26248991 -9.5249863e-05 2.1134826e-19)
(0.25025143 -5.383055e-05 9.8080565e-20)
(0.23508472 -2.4635267e-05 1.2280523e-19)
(0.21479959 -7.8824827e-06 3.0702303e-20)
(0.18034487 -3.8307491e-07 -7.5212871e-21)
(0.28963798 -2.9443747e-05 -1.024995e-18)
(0.28954832 -7.3196102e-05 1.7336736e-19)
(0.28929102 -0.00011364593 5.2989267e-19)
(0.2886978 -0.00015155982 9.7538446e-19)
(0.28739174 -0.00017916927 -1.7300696e-21)
(0.28465455 -0.00018751865 1.9553911e-19)
(0.27962017 -0.00016810641 9.8919908e-19)
(0.2719867 -0.00012709647 8.4578197e-19)
(0.26203302 -8.2127517e-05 1.7281312e-19)
(0.24985346 -4.512813e-05 -1.9567923e-19)
(0.23480728 -1.9711264e-05 -2.5320829e-19)
(0.21465012 -5.6309885e-06 -7.9869379e-20)
(0.18029962 1.7813091e-07 -1.8077212e-20)
(0.29068824 -2.9047995e-05 -2.8639809e-20)
(0.29058126 -7.2143818e-05 1.8648742e-19)
(0.29027586 -0.0001116522 1.1821881e-18)
(0.28957586 -0.00014788247 9.3645386e-19)
(0.28804865 -0.00017230925 1.8021426e-19)
(0.28493523 -0.00017565384 4.7737874e-19)
(0.2794894 -0.00015219579 6.7914135e-19)
(0.2716136 -0.0001115566 2.9598338e-19)
(0.26161163 -7.020356e-05 2.986301e-19)
(0.24949925 -3.7283207e-05 9.2685649e-20)
(0.23456828 -1.527706e-05 -1.6493031e-19)
(0.21452909 -3.5978733e-06 -1.0705794e-19)
(0.18027234 6.8891766e-07 -5.6932317e-20)
(0.29172336 -2.8634278e-05 2.9563866e-18)
(0.291596 -7.1037632e-05 -3.8071229e-19)
(0.29123415 -0.00010950892 4.237155e-19)
(0.29040962 -0.00014383256 2.529374e-19)
(0.28863287 -0.00016470429 5.9848671e-19)
(0.28513156 -0.00016308395 4.9845289e-19)
(0.27931466 -0.00013652206 -2.6982038e-20)
(0.27124896 -9.7093556e-05 1.0939066e-19)
(0.26122524 -5.935365e-05 2.8272982e-19)
(0.24918522 -3.0190179e-05 5.023303e-19)
(0.23436395 -1.1270304e-05 3.5247799e-19)
(0.2144337 -1.7305518e-06 1.8266338e-19)
(0.18026136 1.1761563e-06 1.1355855e-19)
(0.29274252 -2.8196032e-05 3.7077242e-19)
(0.29259116 -6.9858455e-05 1.5894003e-18)
(0.29216305 -0.00010717576 1.0766748e-19)
(0.29119393 -0.00013933085 1.5042993e-19)
(0.28914031 -0.00015631031 5.3442511e-19)
(0.28525057 -0.00014996781 1.1150628e-19)
(0.27910837 -0.00012129297 -2.1934514e-19)
(0.2708978 -8.3692836e-05 -2.2238197e-19)
(0.26087272 -4.9471597e-05 3.2232764e-20)
(0.24890802 -2.3766772e-05 1.7740981e-19)
(0.23419085 -7.6476602e-06 3.4027933e-19)
(0.21436056 -1.6263384e-08 2.2624567e-19)
(0.18026627 1.640393e-06 -1.3100471e-20)
(0.2937446 -2.7725101e-05 -2.0824838e-19)
(0.29356496 -6.8583192e-05 2.3469096e-18)
(0.29305914 -0.00010460504 8.8588152e-19)
(0.29192334 -0.00013429446 2.8161441e-19)
(0.28956868 -0.00014712079 7.0669298e-19)
(0.2853013 -0.00013649479 1.4698531e-19)
(0.27888121 -0.00010666837 -2.9639305e-19)
(0.27056351 -7.1310482e-05 -1.1034299e-19)
(0.26055265 -4.0462903e-05 -7.001981e-20)
(0.24866458 -1.7940266e-05 -3.7043449e-20)
(0.23404606 -4.3539164e-06 1.5214263e-19)
(0.21430781 1.5374007e-06 -3.6398055e-20)
(0.18028522 2.0563872e-06 -3.7805837e-20)
(0.29472815 -2.7211027e-05 1.5356586e-18)
(0.29451518 -6.7183249e-05 4.6981734e-19)
(0.29391842 -0.00010173907 8.0316594e-19)
(0.29259237 -0.00012864185 7.5935877e-19)
(0.28991788 -0.00013716949 5.5462e-20)
(0.28529395 -0.00012286452 4.6423413e-19)
(0.27864192 -9.2752924e-05 7.7794375e-19)
(0.27024822 -5.9882439e-05 6.4919016e-19)
(0.26026336 -3.2238661e-05 -1.2078185e-19)
(0.24845204 -1.2642379e-05 -6.4965088e-19)
(0.23392646 -1.3358876e-06 -5.3917347e-19)
(0.21427448 2.9561693e-06 -1.8676473e-19)
(0.18031663 2.4263082e-06 -4.0620658e-20)
(0.29569132 -2.6641405e-05 1.4983376e-18)
(0.2954391 -6.5625552e-05 9.3448998e-19)
(0.29473631 -9.8512691e-05 1.7474403e-18)
(0.29319592 -0.0001223057 1.0763676e-18)
(0.29019018 -0.00012653597 2.1517921e-19)
(0.2852389 -0.00010927515 5.4842448e-19)
(0.27839743 -7.9607262e-05 8.629623e-19)
(0.26995312 -4.9342225e-05 1.6157989e-19)
(0.26000309 -2.4722179e-05 1.9099411e-19)
(0.24826773 -7.8150961e-06 2.0256413e-19)
(0.23382956 1.4151431e-06 -1.6155213e-19)
(0.21425921 4.2390727e-06 -6.6209246e-21)
(0.18035932 2.7544309e-06 2.6087202e-20)
(0.29663173 -2.6001182e-05 1.1063459e-18)
(0.29633339 -6.3871158e-05 7.9161276e-19)
(0.29550768 -9.4853896e-05 1.3056623e-18)
(0.29372976 -0.00011524119 3.7983341e-19)
(0.29039012 -0.00011533897 8.3185337e-19)
(0.28514604 -9.5905373e-05 3.2957942e-19)
(0.27815305 -6.7254124e-05 3.8921841e-20)
(0.26967872 -3.9623316e-05 4.3268283e-19)
(0.25977003 -1.7841839e-05 6.393508e-19)
(0.24810923 -3.3839554e-06 7.8767832e-19)
(0.23375398 3.931209e-06 6.3356138e-19)
(0.21425996 5.3906048e-06 2.8862612e-19)
(0.18041214 3.0443351e-06 2.1945648e-19)
(0.29754645 -2.5272393e-05 -1.5664388e-19)
(0.29719411 -6.1874457e-05 9.6606366e-19)
(0.29622706 -9.0687767e-05 4.0515707e-19)
(0.29419101 -0.0001074348 2.1467858e-20)
(0.290524 -0.00010372737 4.9272236e-19)
(0.28502427 -8.2903362e-05 7.746693e-20)
(0.27791277 -5.5688929e-05 1.100567e-20)
(0.269425 -3.0662222e-05 3.5410954e-19)
(0.25956226 -1.1539671e-05 5.2161815e-19)
(0.24797362 6.759063e-07 2.0032361e-19)
(0.23369893 6.2277276e-06 3.0524485e-19)
(0.21427538 6.4296383e-06 2.3375589e-19)
(0.18047413 3.3030874e-06 4.6809077e-20)
(0.29843186 -2.4434091e-05 5.839263e-19)
(0.29801658 -5.9582983e-05 7.927458e-19)
(0.29688883 -8.5943397e-05 -1.2808141e-19)
(0.29457851 -9.8910842e-05 1.358655e-19)
(0.29059935 -9.1868422e-05 5.4913933e-19)
(0.28488126 -7.0382606e-05 2.500395e-19)
(0.27767954 -4.489066e-05 2.1503123e-19)
(0.26919163 -2.2395818e-05 3.7846042e-19)
(0.25937815 -5.7363885e-06 2.2470163e-19)
(0.24785972 4.3905104e-06 2.0939596e-19)
(0.2336621 8.301616e-06 1.2636596e-19)
(0.21430404 7.3667061e-06 1.2236005e-20)
(0.18054443 3.5354665e-06 4.8925774e-20)
(0.29928359 -2.3462155e-05 6.8517235e-19)
(0.29879547 -5.6937595e-05 -4.4013085e-19)
(0.29748763 -8.0561622e-05 -7.6783408e-19)
(0.29489309 -8.9732424e-05 8.6918371e-19)
(0.29062422 -7.9932328e-05 7.0423274e-20)
(0.28472341 -5.8420085e-05 5.8501613e-19)
(0.27745536 -3.4827508e-05 1.1503568e-18)
(0.26897782 -1.477038e-05 1.2187835e-18)
(0.25921519 -3.9176814e-07 1.9385072e-19)
(0.24776702 7.7920762e-06 -4.4228727e-19)
(0.23364198 1.0181129e-05 -3.6557947e-19)
(0.21434474 8.2147787e-06 3.0212974e-21)
(0.18062225 3.7450015e-06 3.4784662e-20)
(0.30009637 -2.2329733e-05 2.4896836e-19)
(0.29952479 -5.3875501e-05 2.3650527e-18)
(0.29801875 -7.4505255e-05 3.6930505e-19)
(0.29513749 -7.9999947e-05 8.2767231e-19)
(0.29060659 -6.8080572e-05 9.2792674e-20)
(0.28455591 -4.7062468e-05 4.2175963e-19)
(0.27724164 -2.5459211e-05 7.0848307e-19)
(0.2687829 -7.7156519e-06 2.8653604e-19)
(0.25907248 4.5154144e-06 1.551757e-19)
(0.24769347 1.088141e-05 -1.9380841e-19)
(0.23363709 1.1884889e-05 -1.6670738e-19)
(0.21439637 8.9837603e-06 -9.7844122e-21)
(0.1807069 3.9343511e-06 -1.3215656e-19)
(0.30086402 -2.1007839e-05 -5.2449554e-20)
(0.30019808 -5.0335141e-05 3.322505e-18)
(0.29847858 -6.7767501e-05 1.4428849e-18)
(0.29531607 -6.984362e-05 -3.9030979e-19)
(0.29055391 -5.6454421e-05 7.5634061e-19)
(0.28438287 -3.633202e-05 5.4453441e-20)
(0.27703906 -1.6748259e-05 -5.1399438e-19)
(0.2686053 -1.1875207e-06 -6.2083307e-19)
(0.25894976 9.0213459e-06 1.9258877e-19)
(0.24763751 1.3689809e-05 4.9184365e-19)
(0.23364609 1.3431104e-05 4.348897e-19)
(0.21445793 9.6806932e-06 -1.7954127e-19)
(0.18079772 4.1050179e-06 -1.2597932e-19)
(0.30157943 -1.9467194e-05 2.4641627e-18)
(0.30080863 -4.6264345e-05 1.5691371e-18)
(0.29886499 -6.0378835e-05 8.6257154e-19)
(0.29543444 -5.9413965e-05 -6.0777519e-20)
(0.29047287 -4.5169384e-05 5.5578319e-19)
(0.28420752 -2.6229177e-05 3.3410175e-19)
(0.27684812 -8.6363e-06 -1.2582035e-19)
(0.26844451 4.8386111e-06 -4.6027883e-19)
(0.25884557 1.3135735e-05 9.3213667e-20)
(0.2475977 1.624407e-05 2.8438455e-19)
(0.23366777 1.4835338e-05 3.0571714e-19)
(0.21452852 1.0311977e-05 -5.2881572e-20)
(0.18089414 4.2585215e-06 -9.266005e-20)
(0.30223466 -1.7681574e-05 3.6255808e-18)
(0.3013499 -4.1630439e-05 3.4966144e-19)
(0.29917751 -5.2409557e-05 1.2909634e-19)
(0.29549883 -4.8869452e-05 6.6269716e-19)
(0.29036918 -3.4313695e-05 1.5850241e-19)
(0.28403214 -1.6747569e-05 6.3807926e-19)
(0.27666826 -1.0891731e-06 8.4570969e-19)
(0.26830088 1.0390906e-05 -1.7215618e-20)
(0.25875851 1.6888413e-05 -2.9135615e-19)
(0.24757272 1.8568119e-05 -1.6196038e-19)
(0.23370102 1.6109967e-05 -3.5817481e-20)
(0.21460732 1.0882726e-05 -1.5850023e-19)
(0.18099561 4.3960527e-06 -6.3467569e-20)
(0.30282117 -1.56334e-05 -2.745202e-19)
(0.30181594 -3.6431506e-05 1.2044361e-18)
(0.29941741 -4.3968591e-05 1.1642569e-18)
(0.29551566 -3.836552e-05 9.1635506e-19)
(0.2902477 -2.3945296e-05 4.2122086e-19)
(0.28385859 -7.8478147e-06 2.5379884e-19)
(0.27649982 5.9140192e-06 3.7751847e-19)
(0.26817344 1.5479698e-05 2.3225513e-19)
(0.25868728 2.0310721e-05 -1.4105928e-19)
(0.24756135 2.0682521e-05 -1.3618704e-19)
(0.23374484 1.7265606e-05 -5.1484261e-20)
(0.21469357 1.1397522e-05 -1.0450412e-19)
(0.18110164 4.5187314e-06 -4.7397711e-20)
(0.30333026 -1.3320792e-05 -1.9675626e-18)
(0.30220189 -3.0705601e-05 2.5486242e-18)
(0.29958744 -3.5196401e-05 1.4670971e-18)
(0.29549103 -2.8043689e-05 9.7875312e-19)
(0.29011218 -1.4099897e-05 7.7290656e-19)
(0.28368733 4.8510515e-07 -2.437597e-21)
(0.276344 1.2388821e-05 -3.2164486e-19)
(0.26806118 2.0135037e-05 -2.6284991e-19)
(0.2586307 2.3431253e-05 1.2950808e-19)
(0.24756246 2.2604461e-05 6.5095087e-20)
(0.23379832 1.8311371e-05 -9.4021036e-20)
(0.21478659 1.1860383e-05 1.8409245e-19)
(0.18121176 4.6275118e-06 -1.1785619e-20)
(0.30375374 -1.0764902e-05 1.8167802e-18)
(0.30250438 -2.4536358e-05 2.6243806e-18)
(0.29969147 -2.6255606e-05 1.9442274e-18)
(0.29543051 -1.8024218e-05 -5.7275027e-19)
(0.28996562 -4.7858379e-06 3.031749e-19)
(0.28352015 8.2430889e-06 1.1003915e-19)
(0.27620025 1.8335845e-05 -4.5138467e-19)
(0.26796311 2.4389419e-05 -3.3317116e-19)
(0.25858763 2.6274597e-05 9.1559574e-20)
(0.24757502 2.4348842e-05 2.6651905e-19)
(0.2338606 1.9255462e-05 9.3569373e-20)
(0.21488574 1.227502e-05 -1.1631683e-19)
(0.18132555 4.7233221e-06 -2.967018e-20)
(0.30408466 -8.0145599e-06 2.7972762e-18)
(0.30272186 -1.8051767e-05 2.0554974e-18)
(0.29973407 -1.7315856e-05 1.7903652e-18)
(0.29533886 -8.3895459e-06 -2.851652e-19)
(0.28980995 3.9790102e-06 1.8746487e-19)
(0.28335876 1.5424557e-05 3.5952673e-19)
(0.27606809 2.3784798e-05 -7.9038376e-20)
(0.26787825 2.8272346e-05 -1.5430454e-20)
(0.25855702 2.8860224e-05 1.0915589e-20)
(0.24759809 2.5927657e-05 4.1423232e-19)
(0.23393091 2.010443e-05 3.8552363e-19)
(0.21499042 1.2644226e-05 1.4127576e-19)
(0.1814426 4.8067333e-06 -2.1045034e-20)
(0.30431819 -5.1449139e-06 -6.8387475e-19)
(0.30285461 -1.141258e-05 6.3094313e-20)
(0.29971994 -8.5330789e-06 4.5066685e-19)
(0.29521955 7.8219194e-07 1.4037292e-18)
(0.28964857 1.2143215e-05 3.4386897e-19)
(0.28320331 2.2022776e-05 6.6203181e-19)
(0.27594691 2.8765295e-05 9.7741023e-19)
(0.26780566 3.1808878e-05 1.7939676e-19)
(0.25853789 3.1205354e-05 -4.1371293e-20)
(0.24763076 2.735188e-05 -3.3573633e-19)
(0.23400854 2.0864337e-05 -2.9662107e-20)
(0.2151001 1.2970638e-05 1.9360654e-19)
(0.18156252 4.8783404e-06 -3.6104568e-20)
(0.30445222 -2.2471852e-06 4.2977725e-20)
(0.30290466 -4.789136e-06 -5.138653e-19)
(0.2996534 -5.72996e-08 -3.5163704e-19)
(0.29507686 9.3870571e-06 1.0694599e-18)
(0.28948321 1.9670773e-05 7.5273113e-19)
(0.28305385 2.8058057e-05 7.9584871e-19)
(0.27583605 3.3302964e-05 5.5846675e-19)
(0.26774441 3.50185e-05 3.3801574e-19)
(0.25852929 3.3323749e-05 -2.5191342e-20)
(0.24767222 2.8630213e-05 -3.490621e-19)
(0.23409279 2.1539752e-05 -2.2885942e-19)
(0.21521426 1.3256073e-05 -1.0388803e-19)
(0.18168495 4.9384441e-06 -6.5694159e-20)
(0.30448759 5.8147863e-07 2.9196005e-18)
(0.30287533 1.6333058e-06 1.8588323e-18)
(0.29953939 7.9405467e-06 7.4121213e-19)
(0.29491434 1.7334448e-05 6.6482324e-19)
(0.28931491 2.6550628e-05 5.027153e-19)
(0.28291026 3.3548998e-05 2.1804887e-19)
(0.2757348 3.7416837e-05 -1.7826425e-19)
(0.26769361 3.7916617e-05 2.0656927e-19)
(0.25853035 3.5226474e-05 1.3255173e-19)
(0.24772169 2.9769439e-05 2.1695097e-19)
(0.23418305 2.2134065e-05 5.0799402e-20)
(0.2153324 1.3501778e-05 8.4507222e-20)
(0.18180955 4.9871937e-06 -1.3079368e-20)
(0.30442824 3.238166e-06 2.3785106e-19)
(0.30277199 7.6570614e-06 3.9611764e-18)
(0.29938291 1.5304124e-05 2.7655345e-18)
(0.29473444 2.4565521e-05 -5.5522103e-19)
(0.28914434 3.2781873e-05 -2.7504939e-19)
(0.28277222 3.8508328e-05 -2.4655116e-19)
(0.27564244 4.1120681e-05 -8.8914639e-20)
(0.26765239 4.051485e-05 2.4829731e-19)
(0.25854021 3.6921649e-05 9.194428e-20)
(0.24777843 3.0774205e-05 1.5709413e-19)
(0.23427872 2.2649302e-05 3.4964687e-20)
(0.21545406 1.3708269e-05 -1.6262149e-19)
(0.18193595 5.0244922e-06 1.3964387e-20)
(0.30428147 5.6355779e-06 6.7237619e-19)
(0.30260141 1.312238e-05 4.4882176e-18)
(0.29918842 2.1930436e-05 1.8377212e-18)
(0.29453911 3.1047539e-05 3.2750328e-20)
(0.28897191 3.8362706e-05 4.2656527e-19)
(0.28263933 4.2943572e-05 -1.6128336e-19)
(0.2755582 4.4423875e-05 -2.0099787e-19)
(0.26761989 4.2821042e-05 3.8871925e-20)
(0.25855808 3.8414338e-05 -4.8318859e-20)
(0.24784174 3.1646969e-05 -2.6477106e-20)
(0.23437921 2.3086109e-05 -1.6537302e-19)
(0.21557878 1.3875329e-05 -5.8982337e-20)
(0.18206382 5.0499981e-06 6.842398e-21)
(0.30405678 7.7204807e-06 2.798797e-18)
(0.30237112 1.7926595e-05 2.8494372e-18)
(0.29896015 2.7756668e-05 2.0431614e-18)
(0.29433003 3.6759331e-05 7.1486968e-19)
(0.28879784 4.3290777e-05 5.9523512e-19)
(0.2825111 4.6859357e-05 8.1593382e-20)
(0.2754813 4.7332331e-05 -1.1858666e-19)
(0.26759529 4.4839673e-05 -8.0253815e-20)
(0.25858316 3.9706849e-05 7.0872225e-20)
(0.24791094 3.2388199e-05 3.6680269e-20)
(0.23448396 2.3443878e-05 6.065567e-20)
(0.21570609 1.4002089e-05 6.1079852e-20)
(0.18219279 5.0631747e-06 -9.2369312e-21)
(0.30376497 9.4675957e-06 6.4289436e-19)
(0.30208913 2.201527e-05 1.2539212e-18)
(0.29870222 3.2751632e-05 8.0610905e-19)
(0.29410866 4.169108e-05 6.4520411e-19)
(0.2886222 4.7565871e-05 1.2426198e-19)