/*--------------------------------*- C++ -*----------------------------------*\
| =========                 |                                                 |
| \\      /  F ield         | OpenFOAM: The Open Source CFD Toolbox           |
|  \\    /   O peration     | Version:  2506                                  |
|   \\  /    A nd           | Website:  www.openfoam.com                      |
|    \\/     M anipulation  |                                                 |
\*---------------------------------------------------------------------------*/
FoamFile
{
    version     2.0;
    format      ascii;
    arch        "LSB;label=32;scalar=64";
    class       volScalarField;
    location    "11000/water";
    object      alphat;
}
// * * * * * * * * * * * * * * * * * * * * * * * * * * * * * * * * * * * * * //

dimensions      [1 -1 -1 0 0 0 0];

internalField   nonuniform List<scalar> 
1000
(
0.038690245
0.038689577
0.038688046
0.038679676
0.038634252
0.038395956
0.037190881
0.031863289
0.019099264
0.016301307
0.036437656
0.036436968
0.036430539
0.036397696
0.036243742
0.035561448
0.032798674
0.024476361
0.014644257
0.017654592
0.034756095
0.034752687
0.034735392
0.034658264
0.034338315
0.033096043
0.028914328
0.02007853
0.014287394
0.017671293
0.033455039
0.033447371
0.03341324
0.033276591
0.032760735
0.030940125
0.02576997
0.018272148
0.015952148
0.01730153
0.032418332
0.032405139
0.032350678
0.032150528
0.031437444
0.029070431
0.023556277
0.018636088
0.018861735
0.01692572
0.031571667
0.031552637
0.031479595
0.031226161
0.030328119
0.027485292
0.022555191
0.020803822
0.022278946
0.016666264
0.030866455
0.030843487
0.03076149
0.030477924
0.029402035
0.02629216
0.023061875
0.024243957
0.025541394
0.01652522
0.03027085
0.030249443
0.030178142
0.029894437
0.028644197
0.025787302
0.025138428
0.028280552
0.028305015
0.016463217
0.029764732
0.029755534
0.029725649
0.029468573
0.028106964
0.026357015
0.028508329
0.032334556
0.030519231
0.016442693
0.029337062
0.029357527
0.029409757
0.029196689
0.027980937
0.028237271
0.032681279
0.036080744
0.032267629
0.016440712
0.028984753
0.029060642
0.029241353
0.029099609
0.02858352
0.031375114
0.037164873
0.039413818
0.033659285
0.016446411
0.028712551
0.028878717
0.029233206
0.029270489
0.030215428
0.035478738
0.041608934
0.042341777
0.03478786
0.016455618
0.028533649
0.028833113
0.029403475
0.029913102
0.033002862
0.04016151
0.045828178
0.044910605
0.035723398
0.016467076
0.028470746
0.028950996
0.029795722
0.031303837
0.036852091
0.045075372
0.049751459
0.047172199
0.036515303
0.016480522
0.028557139
0.02926408
0.030516084
0.033675743
0.041511823
0.049976899
0.053365591
0.049173895
0.037197733
0.016495906
0.0288373
0.029812373
0.031757471
0.037113948
0.046676178
0.054725971
0.056681734
0.050955493
0.037793734
0.016513133
0.029366676
0.030660654
0.033764538
0.041531108
0.052071049
0.059252944
0.059719689
0.052547913
0.038313006
0.01653194
0.030212374
0.031928233
0.036741866
0.046714625
0.057495339
0.063527357
0.062500819
0.05397163
0.038771791
0.016552029
0.031460521
0.033808204
0.040769182
0.05240323
0.062820411
0.067538782
0.065043826
0.055249925
0.039180765
0.016573204
0.033237319
0.036537689
0.045775371
0.058353557
0.067969688
0.071286821
0.067367384
0.056402319
0.039547771
0.016595303
0.035735202
0.040316566
0.051570925
0.064374617
0.072897325
0.074772422
0.069492058
0.057443684
0.039878813
0.016618155
0.03920621
0.045225117
0.05790942
0.070330298
0.077571336
0.078005551
0.071434733
0.058385903
0.040178205
0.01664157
0.043888596
0.051190492
0.064545547
0.076123608
0.081973469
0.080997042
0.073208928
0.059238185
0.040449
0.016665348
0.049892955
0.058009875
0.071267985
0.081682964
0.086094661
0.083755161
0.074825069
0.060007357
0.040693264
0.016689282
0.057121196
0.065404978
0.077906134
0.08695775
0.089928004
0.086285257
0.076290448
0.060698112
0.040912253
0.016713158
0.06526896
0.073077327
0.084333133
0.091910283
0.093465072
0.088589366
0.077609321
0.061313222
0.04110652
0.016736755
0.073907279
0.080754673
0.090454346
0.096507428
0.096695682
0.090666371
0.078783194
0.061853768
0.041276009
0.016759838
0.082592857
0.088207395
0.096193603
0.10072044
0.099608814
0.092512845
0.079811413
0.062319488
0.041420182
0.016782149
0.090953412
0.095253911
0.1014901
0.10452608
0.10219448
0.094124538
0.080692159
0.062709325
0.041538231
0.016803412
0.098725405
0.10176133
0.10629838
0.1079084
0.10444599
0.095498312
0.081423768
0.063022181
0.041629381
0.016823338
0.10575268
0.10764336
0.1105893
0.11086033
0.10636211
0.096634075
0.082006163
0.063257769
0.041693244
0.016841653
0.11196533
0.1128555
0.11435042
0.1133846
0.10794838
0.097536269
0.082442058
0.063417362
0.041730133
0.016858117
0.11735438
0.11738812
0.11758531
0.11549363
0.10921754
0.098214568
0.082737649
0.063504269
0.041741254
0.016872553
0.12194993
0.12125835
0.12031155
0.11720848
0.11018894
0.098683726
0.082902692
0.063523917
0.041728723
0.01688486
0.12580506
0.12450226
0.12255786
0.11855712
0.11088724
0.09896274
0.082950019
0.063483595
0.041695436
0.016895015
0.1289848
0.12716799
0.124361
0.11957242
0.1113408
0.099073623
0.082894713
0.063391957
0.041644836
0.016903073
0.13155904
0.12931032
0.12576278
0.1202902
0.11158003
0.099040088
0.082753157
0.063258434
0.041580653
0.016909152
0.13359802
0.13098667
0.12680744
0.12074745
0.11163597
0.098886333
0.082542121
0.06309266
0.041506658
0.01691342
0.13516968
0.13225424
0.12753966
0.12098095
0.11153909
0.098636044
0.082277982
0.062903983
0.04142645
0.016916077
0.13633802
0.13316815
0.12800304
0.12102621
0.11131843
0.098311605
0.081976109
0.062701066
0.041343299
0.016917345
0.13716226
0.13378023
0.12823898
0.12091661
0.11100094
0.097933538
0.081650403
0.062491599
0.041260024
0.016917452
0.13769643
0.1341383
0.12828596
0.12068294
0.11061103
0.097520117
0.081313006
0.062282125
0.041178933
0.016916616
0.13798914
0.13428577
0.1281791
0.12035296
0.11017033
0.097087173
0.080974153
0.062077963
0.041101807
0.016915044
0.13808371
0.13426154
0.12794992
0.11995135
0.1096976
0.096648056
0.08064217
0.06188323
0.041029918
0.016912919
0.13801835
0.13410005
0.12762634
0.11949961
0.1092088
0.096213683
0.080323478
0.061700669
0.040963019
0.016910387
0.13782645
0.1338315
0.12723279
0.11901627
0.10871719
0.095792664
0.080022633
0.061531307
0.040902218
0.016907575
0.13753701
0.13348212
0.12679036
0.11851699
0.1082335
0.095391402
0.07974214
0.061377203
0.040847979
0.016904605
0.13717501
0.13307448
0.12631707
0.11801475
0.10776609
0.095014032
0.079485115
0.061239158
0.040800469
0.01690158
0.13676178
0.13262784
0.12582805
0.11751998
0.10732089
0.094664859
0.079253026
0.061117408
0.040759619
0.016898586
0.13631535
0.13215831
0.12533557
0.11704063
0.10690362
0.094346318
0.079046438
0.061011733
0.040725167
0.016895687
0.13585061
0.13167906
0.12484972
0.11658407
0.10651801
0.094059647
0.078865196
0.060921538
0.040696714
0.016892933
0.13537989
0.13120128
0.12437929
0.11615561
0.10616638
0.093805125
0.078708573
0.060845951
0.040673776
0.016890357
0.13491361
0.1307343
0.12393103
0.11575895
0.10584988
0.093582268
0.078575409
0.060783911
0.04065582
0.016887983
0.13446025
0.13028554
0.12351002
0.11539648
0.1055687
0.093389991
0.078464237
0.060734247
0.040642304
0.016885823
0.13402651
0.1298607
0.12311987
0.11506944
0.10532229
0.093226761
0.078373382
0.060695737
0.040632688
0.016883883
0.13361753
0.12946399
0.12276292
0.11477814
0.10510946
0.093090709
0.078301042
0.060667141
0.040626452
0.016882163
0.13323703
0.12909833
0.12244043
0.11452213
0.10492853
0.092979732
0.078245348
0.060647233
0.040623097
0.016880659
0.13288753
0.1287655
0.12215276
0.11430028
0.10477748
0.092891575
0.078204411
0.060634824
0.040622152
0.016879362
0.13257047
0.1284663
0.12189949
0.114111
0.10465402
0.092823913
0.078176379
0.060628785
0.040623185
0.01687826
0.13228644
0.12820077
0.12167962
0.11395231
0.10455572
0.09277443
0.078159477
0.06062807
0.040625807
0.016877339
0.13203526
0.12796827
0.12149167
0.11382199
0.10448008
0.092740869
0.07815204
0.060631729
0.040629677
0.016876585
0.13181619
0.12776766
0.1213338
0.11371768
0.10442462
0.092721078
0.078152531
0.060638906
0.040634498
0.016875984
0.13162802
0.12759739
0.12120393
0.1136369
0.10438691
0.092713019
0.078159533
0.060648836
0.040640009
0.016875521
0.13146913
0.1274556
0.12109977
0.11357715
0.10436456
0.092714778
0.078171752
0.060660833
0.040645979
0.016875183
0.13133762
0.12734017
0.12101891
0.11353594
0.10435531
0.092724566
0.078188002
0.060674279
0.040652202
0.016874953
0.13123135
0.1272488
0.12095888
0.11351079
0.104357
0.092740732
0.078207216
0.060688629
0.040658498
0.016874816
0.13114802
0.12717908
0.12091719
0.11349934
0.10436761
0.092761779
0.078228448
0.060703412
0.040664718
0.016874758
0.13108525
0.12712859
0.1208914
0.11349936
0.1043853
0.092786382
0.078250888
0.060718238
0.040670742
0.016874766
0.13104065
0.12709492
0.12087921
0.11350878
0.10440845
0.0928134
0.078273861
0.0607328
0.040676487
0.016874826
0.13101192
0.12707578
0.12087844
0.11352575
0.10443561
0.092841863
0.078296816
0.060746859
0.040681893
0.01687493
0.13099684
0.127069
0.12088711
0.11354861
0.10446555
0.092870957
0.078319311
0.060760235
0.040686921
0.016875067
0.13099333
0.12707255
0.12090338
0.11357585
0.10449717
0.092899995
0.078340982
0.060772779
0.040691494
0.016875229
0.13099943
0.12708456
0.1209256
0.11360616
0.10452955
0.092928397
0.078361524
0.060784337
0.04069559
0.016875407
0.13101334
0.12710328
0.12095224
0.11363837
0.10456187
0.092955674
0.07838067
0.060794834
0.040699227
0.016875596
0.13103337
0.12712713
0.12098197
0.11367145
0.10459344
0.092981411
0.078398244
0.060804256
0.040702414
0.016875789
0.13105801
0.12715468
0.1210136
0.11370454
0.1046237
0.09300531
0.078414176
0.060812595
0.040705168
0.016875981
0.13108591
0.12718469
0.12104609
0.11373688
0.10465221
0.093027221
0.078428426
0.060819874
0.040707512
0.016876168
0.13111587
0.12721605
0.12107856
0.11376792
0.10467871
0.093047049
0.078441004
0.060826137
0.040709476
0.016876348
0.13114687
0.12724783
0.12111035
0.11379727
0.10470303
0.093064768
0.078451961
0.060831446
0.040711093
0.016876518
0.13117808
0.12727931
0.12114093
0.11382464
0.10472507
0.093080405
0.078461375
0.060835874
0.040712397
0.016876677
0.13120883
0.12730992
0.12116991
0.11384984
0.1047448
0.093094025
0.07846934
0.060839496
0.040713421
0.016876823
0.13123859
0.12733919
0.12119701
0.11387276
0.10476224
0.093105718
0.078475959
0.060842385
0.040714196
0.016876958
0.13126694
0.12736678
0.121222
0.11389333
0.10477744
0.093115587
0.078481336
0.060844613
0.040714749
0.016877079
0.13129356
0.12739243
0.12124474
0.11391155
0.10479049
0.093123751
0.078485577
0.060846247
0.040715106
0.016877187
0.13131821
0.12741596
0.12126517
0.11392745
0.10480148
0.093130339
0.078488793
0.060847355
0.040715291
0.016877281
0.13134074
0.12743725
0.12128328
0.11394112
0.10481057
0.093135494
0.078491096
0.060848006
0.040715329
0.016877361
0.13136107
0.12745629
0.12129912
0.11395268
0.10481791
0.093139372
0.078492606
0.06084827
0.040715246
0.016877429
0.13137921
0.1274731
0.12131278
0.1139623
0.10482367
0.093142133
0.078493444
0.060848216
0.040715071
0.016877486
0.13139522
0.12748777
0.12132441
0.11397014
0.10482805
0.093143942
0.078493727
0.060847913
0.040714827
0.016877532
0.13140919
0.12750043
0.12133417
0.11397641
0.10483123
0.093144952
0.078493565
0.060847422
0.040714538
0.016877569
0.13142125
0.12751122
0.12134224
0.11398127
0.10483338
0.093145302
0.078493052
0.060846794
0.040714221
0.016877598
0.13143154
0.1275203
0.12134876
0.1139849
0.10483466
0.09314511
0.078492265
0.060846068
0.040713887
0.016877621
0.13144018
0.12752778
0.1213539
0.11398745
0.10483518
0.093144473
0.078491265
0.060845272
0.040713544
0.016877638
0.13144729
0.12753381
0.12135779
0.11398904
0.10483507
0.093143473
0.078490103
0.060844429
0.040713196
0.01687765
0.13145297
0.1275385
0.12136055
0.11398981
0.10483442
0.093142182
0.07848882
0.060843556
0.040712846
0.016877656
0.13145735
0.12754197
0.12136231
0.11398986
0.10483334
0.093140672
0.078487457
0.060842673
0.040712501
0.016877658
0.13146053
0.12754435
0.12136321
0.11398932
0.10483192
0.093139012
0.078486058
0.060841799
0.040712166
0.016877655
0.13146267
0.1275458
0.12136338
0.11398832
0.10483026
0.093137274
0.078484666
0.060840958
0.040711852
0.016877649
0.13146392
0.12754645
0.12136298
0.11398698
0.10482846
0.093135525
0.078483322
0.060840169
0.040711565
0.016877641
0.13146442
0.12754645
0.12136213
0.11398541
0.10482661
0.093133816
0.078482056
0.060839447
0.04071131
0.016877632
)
;

boundaryField
{
    water_inlet
    {
        type            calculated;
        value           uniform 0.041850807;
    }
    water_outlet
    {
        type            calculated;
        value           nonuniform List<scalar> 10(0.13146442 0.12754645 0.12136213 0.11398541 0.10482661 0.093133816 0.078482056 0.060839447 0.04071131 0.016877632);
    }
    water_wedge1
    {
        type            wedge;
    }
    water_wedge2
    {
        type            wedge;
    }
    water_to_rock
    {
        type            compressible::alphatWallFunction;
        value           nonuniform List<scalar> 
100
(
0.0020384971
0.0022594581
0.0022621707
0.0022020357
0.0021407413
0.0020983185
0.0020752204
0.0020650583
0.0020616934
0.0020613685
0.0020623027
0.0020638122
0.0020656909
0.0020678956
0.0020704174
0.0020732404
0.0020763216
0.0020796128
0.0020830818
0.0020867018
0.0020904443
0.0020942778
0.0020981695
0.0021020858
0.0021059923
0.002109853
0.0021136292
0.0021172786
0.0021207554
0.0021240128
0.0021270061
0.0021296967
0.0021320558
0.0021340669
0.0021357263
0.0021370427
0.0021380356
0.0021387323
0.0021391662
0.0021393735
0.0021393912
0.0021392551
0.0021389985
0.0021386513
0.0021382375
0.0021377778
0.0021372922
0.0021367979
0.0021363088
0.0021358353
0.0021353855
0.0021349648
0.0021345769
0.002134224
0.0021339071
0.0021336261
0.0021333804
0.0021331683
0.0021329881
0.0021328377
0.0021327146
0.0021326166
0.0021325412
0.0021324859
0.0021324483
0.0021324258
0.0021324161
0.0021324172
0.002132427
0.0021324439
0.0021324664
0.002132493
0.0021325222
0.0021325529
0.0021325843
0.0021326155
0.0021326461
0.0021326755
0.0021327033
0.0021327294
0.0021327535
0.0021327755
0.0021327954
0.002132813
0.0021328284
0.0021328417
0.0021328529
0.0021328623
0.0021328701
0.0021328763
0.0021328813
0.0021328851
0.0021328878
0.0021328895
0.0021328903
0.0021328904
0.0021328899
0.002132889
0.0021328877
0.0021328862
)
;
    }
}


// ************************************************************************* //
