/*--------------------------------*- C++ -*----------------------------------*\
| =========                 |                                                 |
| \\      /  F ield         | OpenFOAM: The Open Source CFD Toolbox           |
|  \\    /   O peration     | Version:  2506                                  |
|   \\  /    A nd           | Website:  www.openfoam.com                      |
|    \\/     M anipulation  |                                                 |
\*---------------------------------------------------------------------------*/
FoamFile
{
    version     2.0;
    format      ascii;
    arch        "LSB;label=32;scalar=64";
    class       volScalarField;
    location    "11000/water";
    object      nut;
}
// * * * * * * * * * * * * * * * * * * * * * * * * * * * * * * * * * * * * * //

dimensions      [0 2 -1 0 0 0 0];

internalField   nonuniform List<scalar> 
1000
(
3.8760013e-05
3.8759344e-05
3.875781e-05
3.8749425e-05
3.8703919e-05
3.8465194e-05
3.7257946e-05
3.1920746e-05
1.9133704e-05
1.6330702e-05
3.6503362e-05
3.6502673e-05
3.6496232e-05
3.646333e-05
3.6309098e-05
3.5625574e-05
3.2857818e-05
2.4520498e-05
1.4670664e-05
1.7686427e-05
3.4818769e-05
3.4815355e-05
3.4798028e-05
3.4720761e-05
3.4400236e-05
3.3155724e-05
2.8966467e-05
2.0114737e-05
1.4313158e-05
1.7703159e-05
3.3515366e-05
3.3507685e-05
3.3473492e-05
3.3336597e-05
3.2819811e-05
3.0995917e-05
2.5816439e-05
1.8305097e-05
1.5980913e-05
1.7332729e-05
3.247679e-05
3.2463573e-05
3.2409014e-05
3.2208503e-05
3.1494134e-05
2.9122852e-05
2.3598755e-05
1.8669693e-05
1.8895747e-05
1.6956242e-05
3.1628598e-05
3.1609534e-05
3.153636e-05
3.1282469e-05
3.0382808e-05
2.7534855e-05
2.2595863e-05
2.0841336e-05
2.231912e-05
1.6696317e-05
3.0922114e-05
3.0899106e-05
3.0816961e-05
3.0532883e-05
2.9455054e-05
2.6339571e-05
2.3103461e-05
2.4287675e-05
2.5587451e-05
1.6555019e-05
3.0325436e-05
3.0303991e-05
3.023256e-05
2.9948344e-05
2.869585e-05
2.5833803e-05
2.5183759e-05
2.8331549e-05
2.8356055e-05
1.6492904e-05
2.9818405e-05
2.9809191e-05
2.9779252e-05
2.9521712e-05
2.8157648e-05
2.6404544e-05
2.8559737e-05
3.2392863e-05
3.0574265e-05
1.6472344e-05
2.9389964e-05
2.9410466e-05
2.946279e-05
2.9249338e-05
2.8031394e-05
2.828819e-05
3.2740211e-05
3.6145806e-05
3.2325815e-05
1.6470359e-05
2.903702e-05
2.9113046e-05
2.9294082e-05
2.9152083e-05
2.8635063e-05
3.1431691e-05
3.7231891e-05
3.9484891e-05
3.3719981e-05
1.6476068e-05
2.8764326e-05
2.8930793e-05
2.928592e-05
2.9323271e-05
3.0269914e-05
3.5542715e-05
4.1683965e-05
4.241813e-05
3.4850591e-05
1.6485292e-05
2.8585102e-05
2.8885106e-05
2.9456496e-05
2.9967043e-05
3.3062375e-05
4.0233931e-05
4.5910817e-05
4.499159e-05
3.5787816e-05
1.649677e-05
2.8522085e-05
2.9003202e-05
2.9849451e-05
3.1360286e-05
3.6918545e-05
4.5156654e-05
4.9841174e-05
4.7257262e-05
3.6581149e-05
1.651024e-05
2.8608635e-05
2.931685e-05
3.0571112e-05
3.3736469e-05
4.158668e-05
5.006702e-05
5.3461822e-05
4.9262567e-05
3.726481e-05
1.6525652e-05
2.88893e-05
2.9866133e-05
3.1814737e-05
3.7180874e-05
4.6760347e-05
5.4824655e-05
5.6783945e-05
5.1047378e-05
3.7861885e-05
1.654291e-05
2.9419631e-05
3.0715943e-05
3.3825424e-05
4.1605999e-05
5.2164946e-05
5.9359791e-05
5.9827378e-05
5.2642669e-05
3.8382094e-05
1.6561751e-05
3.0266854e-05
3.1985808e-05
3.6808121e-05
4.6798863e-05
5.7599017e-05
6.3641913e-05
6.2613524e-05
5.4068954e-05
3.8841706e-05
1.6581876e-05
3.1517252e-05
3.3869168e-05
4.0842699e-05
5.2497726e-05
6.2933692e-05
6.7660571e-05
6.5161116e-05
5.5349555e-05
3.9251418e-05
1.660309e-05
3.3297254e-05
3.6603576e-05
4.5857916e-05
5.8458782e-05
6.8092254e-05
7.1415369e-05
6.7488864e-05
5.6504027e-05
3.9619085e-05
1.6625228e-05
3.5799641e-05
4.0389266e-05
5.166392e-05
6.44907e-05
7.3028776e-05
7.4907255e-05
6.9617369e-05
5.7547269e-05
3.9950724e-05
1.6648122e-05
3.9276908e-05
4.5306669e-05
5.8013845e-05
7.0457121e-05
7.7711217e-05
7.8146214e-05
7.1563547e-05
5.8491187e-05
4.0250656e-05
1.6671579e-05
4.3967738e-05
5.1282801e-05
6.4661938e-05
7.6260878e-05
8.2121287e-05
8.11431e-05
7.3340941e-05
5.9345006e-05
4.0521939e-05
1.66954e-05
4.9982924e-05
5.8114481e-05
7.1396499e-05
8.1830258e-05
8.6249911e-05
8.3906192e-05
7.4959997e-05
6.0115565e-05
4.0766644e-05
1.6719377e-05
5.72242e-05
6.5522919e-05
7.8046618e-05
8.7114557e-05
9.0090166e-05
8.6440851e-05
7.6428018e-05
6.0807566e-05
4.0986028e-05
1.6743296e-05
6.5386656e-05
7.3209104e-05
8.4485206e-05
9.2076019e-05
9.3633613e-05
8.8749114e-05
7.774927e-05
6.1423785e-05
4.1180645e-05
1.6766936e-05
7.4040552e-05
8.0900294e-05
9.0617457e-05
9.6681454e-05
9.6870048e-05
9.0829865e-05
7.8925259e-05
6.1965306e-05
4.135044e-05
1.679006e-05
8.2741792e-05
8.8366454e-05
9.6367063e-05
0.00010090206
9.9788434e-05
9.2679668e-05
7.9955333e-05
6.2431865e-05
4.1494873e-05
1.6812412e-05
9.1117423e-05
9.5425678e-05
0.00010167311
0.00010471456
0.00010237876
9.4294268e-05
8.0837667e-05
6.2822405e-05
4.1613134e-05
1.6833712e-05
9.8903431e-05
0.00010194483
0.00010649007
0.00010810298
0.00010463434
9.5670519e-05
8.1570595e-05
6.3135826e-05
4.1704449e-05
1.6853675e-05
0.00010594338
0.00010783746
0.00011078871
0.00011106023
0.00010655391
9.680833e-05
8.2154041e-05
6.3371838e-05
4.1768427e-05
1.6872022e-05
0.00011216723
0.00011305901
0.00011455662
0.00011358906
0.00010814303
9.7712151e-05
8.2590721e-05
6.353172e-05
4.1805383e-05
1.6888517e-05
0.000117566
0.0001175998
0.00011779735
0.0001157019
0.00010941448
9.8391673e-05
8.2886846e-05
6.3618783e-05
4.1816524e-05
1.6902979e-05
0.00012216983
0.00012147701
0.0001205285
0.00011741984
0.00011038764
9.8861677e-05
8.3052186e-05
6.3638466e-05
4.180397e-05
1.6915307e-05
0.00012603191
0.00012472677
0.00012277886
0.00011877091
0.0001110872
9.9141194e-05
8.3099598e-05
6.3598072e-05
4.1770623e-05
1.6925481e-05
0.00012921739
0.0001273973
0.00012458526
0.00011978804
0.00011154157
9.9252277e-05
8.3044192e-05
6.3506269e-05
4.1719932e-05
1.6933553e-05
0.00013179627
0.0001295435
0.00012598956
0.00012050711
0.00011178124
9.9218681e-05
8.2902381e-05
6.3372504e-05
4.1655633e-05
1.6939643e-05
0.00013383893
0.00013122287
0.0001270361
0.00012096518
0.00011183727
9.906465e-05
8.2690964e-05
6.3206431e-05
4.1581504e-05
1.6943919e-05
0.00013541342
0.00013249273
0.00012776965
0.00012119911
0.00011174022
9.8813909e-05
8.242635e-05
6.3017414e-05
4.1501152e-05
1.6946581e-05
0.00013658387
0.00013340829
0.00012823386
0.00012124445
0.00011151917
9.8488885e-05
8.2123932e-05
6.2814131e-05
4.1417851e-05
1.6947852e-05
0.0001374096
0.00013402147
0.00012847023
0.00012113466
0.00011120111
9.8110136e-05
8.1797639e-05
6.2604287e-05
4.1334425e-05
1.6947958e-05
0.00013794473
0.00013438018
0.00012851729
0.00012090056
0.00011081049
9.7695969e-05
8.1459633e-05
6.2394435e-05
4.1253188e-05
1.6947121e-05
0.00013823797
0.00013452792
0.00012841023
0.00012056999
0.00011036899
9.7262245e-05
8.1120169e-05
6.2189905e-05
4.1175923e-05
1.6945546e-05
0.00013833271
0.00013450364
0.00012818064
0.00012016765
0.00010989541
9.6822336e-05
8.0787588e-05
6.1994821e-05
4.1103905e-05
1.6943417e-05
0.00013826723
0.00013434187
0.00012785649
0.0001197151
0.00010940573
9.638718e-05
8.0468321e-05
6.181193e-05
4.1036885e-05
1.6940881e-05
0.00013807499
0.00013407283
0.00012746222
0.00011923089
0.00010891323
9.5965402e-05
8.0166934e-05
6.1642263e-05
4.0975975e-05
1.6938064e-05
0.00013778503
0.00013372282
0.00012701899
0.0001187307
0.00010842867
9.5563416e-05
7.9885935e-05
6.1487882e-05
4.0921638e-05
1.6935088e-05
0.00013742237
0.00013331444
0.00012654485
0.00011822756
0.00010796042
9.5185366e-05
7.9628446e-05
6.1349588e-05
4.0874043e-05
1.6932058e-05
0.0001370084
0.000132867
0.00012605495
0.0001177319
0.00010751441
9.4835563e-05
7.9395939e-05
6.1227618e-05
4.0833118e-05
1.6929058e-05
0.00013656116
0.00013239663
0.00012556158
0.00011725168
0.00010709639
9.4516448e-05
7.9188978e-05
6.1121752e-05
4.0798604e-05
1.6926154e-05
0.00013609558
0.00013191651
0.00012507486
0.0001167943
0.00010671009
9.4229259e-05
7.900741e-05
6.1031395e-05
4.07701e-05
1.6923395e-05
0.00013562401
0.00013143787
0.00012460357
0.00011636507
0.00010635782
9.3974279e-05
7.8850504e-05
6.0955671e-05
4.074712e-05
1.6920815e-05
0.00013515689
0.00013097005
0.00012415451
0.0001159677
0.00010604075
9.3751019e-05
7.87171e-05
6.0893519e-05
4.0729133e-05
1.6918436e-05
0.00013470271
0.00013052048
0.00012373274
0.00011560457
0.00010575907
9.3558396e-05
7.8605727e-05
6.0843766e-05
4.0715592e-05
1.6916272e-05
0.0001342682
0.00013009487
0.00012334189
0.00011527694
0.00010551221
9.3394871e-05
7.8514708e-05
6.0805187e-05
4.0705959e-05
1.6914328e-05
0.00013385848
0.00012969745
0.00012298429
0.00011498512
0.000105299
9.3258575e-05
7.8442238e-05
6.0776539e-05
4.0699712e-05
1.6912606e-05
0.00013347729
0.00012933113
0.00012266122
0.00011472864
0.00010511774
9.3147398e-05
7.8386443e-05
6.0756595e-05
4.069635e-05
1.6911099e-05
0.00013312716
0.00012899769
0.00012237303
0.00011450639
0.00010496642
9.3059081e-05
7.8345432e-05
6.0744163e-05
4.0695404e-05
1.69098e-05
0.00013280953
0.00012869796
0.00012211931
0.00011431677
0.00010484274
9.2991298e-05
7.831735e-05
6.0738114e-05
4.0696438e-05
1.6908696e-05
0.00013252498
0.00012843195
0.00012189904
0.00011415779
0.00010474426
9.2941725e-05
7.8300418e-05
6.0737398e-05
4.0699065e-05
1.6907773e-05
0.00013227335
0.00012819903
0.00012171075
0.00011402724
0.00010466848
9.2908104e-05
7.8292968e-05
6.0741063e-05
4.0702943e-05
1.6907018e-05
0.00013205389
0.00012799806
0.0001215526
0.00011392274
0.00010461293
9.2888277e-05
7.8293459e-05
6.0748253e-05
4.0707772e-05
1.6906416e-05
0.00013186538
0.00012782748
0.00012142249
0.00011384181
0.00010457514
9.2880203e-05
7.8300474e-05
6.0758201e-05
4.0713293e-05
1.6905952e-05
0.0001317062
0.00012768544
0.00012131814
0.00011378196
0.00010455276
9.2881966e-05
7.8312715e-05
6.077022e-05
4.0719274e-05
1.6905613e-05
0.00013157446
0.0001275698
0.00012123714
0.00011374067
0.00010454349
9.2891772e-05
7.8328995e-05
6.078369e-05
4.0725508e-05
1.6905382e-05
0.000131468
0.00012747826
0.000121177
0.00011371548
0.00010454518
9.2907966e-05
7.8348243e-05
6.0798066e-05
4.0731816e-05
1.6905245e-05
0.00013138451
0.00012740841
0.00012113523
0.00011370401
0.00010455581
9.2929051e-05
7.8369513e-05
6.0812875e-05
4.0738046e-05
1.6905188e-05
0.00013132163
0.00012735783
0.0001211094
0.00011370402
0.00010457353
9.2953699e-05
7.8391994e-05
6.0827728e-05
4.0744082e-05
1.6905195e-05
0.00013127695
0.0001273241
0.00012109718
0.00011371347
0.00010459672
9.2980766e-05
7.8415008e-05
6.0842316e-05
4.0749837e-05
1.6905256e-05
0.00013124817
0.00012730493
0.00012109642
0.00011373047
0.00010462394
9.300928e-05
7.8438005e-05
6.0856401e-05
4.0755253e-05
1.6905359e-05
0.00013123306
0.00012729814
0.0001211051
0.00011375336
0.00010465392
9.3038426e-05
7.846054e-05
6.0869801e-05
4.076029e-05
1.6905496e-05
0.00013122954
0.0001273017
0.0001211214
0.00011378065
0.0001046856
9.3067516e-05
7.848225e-05
6.0882367e-05
4.0764871e-05
1.6905659e-05
0.00013123566
0.00012731372
0.00012114365
0.00011381102
0.00010471804
9.309597e-05
7.850283e-05
6.0893946e-05
4.0768974e-05
1.6905838e-05
0.00013124959
0.00012733247
0.00012117035
0.00011384329
0.00010475042
9.3123296e-05
7.852201e-05
6.0904462e-05
4.0772618e-05
1.6906027e-05
0.00013126966
0.00012735637
0.00012120013
0.00011387643
0.00010478205
9.3149079e-05
7.8539615e-05
6.0913901e-05
4.077581e-05
1.690622e-05
0.00013129434
0.00012738397
0.00012123181
0.00011390958
0.00010481236
9.3173021e-05
7.8555576e-05
6.0922255e-05
4.077857e-05
1.6906413e-05
0.00013132229
0.00012741403
0.00012126436
0.00011394198
0.00010484092
9.3194972e-05
7.8569852e-05
6.0929547e-05
4.0780918e-05
1.69066e-05
0.0001313523
0.00012744545
0.0001212969
0.00011397307
0.00010486747
9.3214835e-05
7.8582452e-05
6.0935821e-05
4.0782886e-05
1.690678e-05
0.00013138336
0.00012747729
0.00012132874
0.00011400247
0.00010489184
9.3232586e-05
7.8593429e-05
6.094114e-05
4.0784505e-05
1.690695e-05
0.00013141463
0.00012750883
0.00012135938
0.00011402989
0.00010491392
9.3248252e-05
7.860286e-05
6.0945576e-05
4.0785811e-05
1.6907109e-05
0.00013144544
0.00012753949
0.00012138841
0.00011405514
0.00010493368
9.3261897e-05
7.861084e-05
6.0949204e-05
4.0786837e-05
1.6907256e-05
0.00013147525
0.00012756882
0.00012141555
0.0001140781
0.00010495115
9.3273611e-05
7.8617471e-05
6.0952099e-05
4.0787614e-05
1.6907391e-05
0.00013150365
0.00012759646
0.00012144059
0.00011409871
0.00010496638
9.3283498e-05
7.8622857e-05
6.0954331e-05
4.0788168e-05
1.6907512e-05
0.00013153031
0.00012762215
0.00012146338
0.00011411696
0.00010497945
9.3291676e-05
7.8627106e-05
6.0955968e-05
4.0788525e-05
1.690762e-05
0.00013155501
0.00012764572
0.00012148385
0.00011413289
0.00010499047
9.3298276e-05
7.8630327e-05
6.0957078e-05
4.078871e-05
1.6907715e-05
0.00013157758
0.00012766705
0.00012150199
0.00011414658
0.00010499957
9.3303441e-05
7.8632635e-05
6.095773e-05
4.0788748e-05
1.6907795e-05
0.00013159795
0.00012768612
0.00012151785
0.00011415817
0.00010500692
9.3307325e-05
7.8634147e-05
6.0957994e-05
4.0788666e-05
1.6907864e-05
0.00013161612
0.00012770296
0.00012153154
0.0001141678
0.00010501269
9.3310092e-05
7.8634987e-05
6.095794e-05
4.078849e-05
1.690792e-05
0.00013163215
0.00012771766
0.00012154319
0.00011417566
0.00010501708
9.3311904e-05
7.8635271e-05
6.0957637e-05
4.0788246e-05
1.6907966e-05
0.00013164615
0.00012773034
0.00012155297
0.00011418193
0.00010502027
9.3312916e-05
7.8635108e-05
6.0957145e-05
4.0787956e-05
1.6908003e-05
0.00013165823
0.00012774116
0.00012156105
0.00011418681
0.00010502242
9.3313266e-05
7.8634594e-05
6.0956516e-05
4.0787638e-05
1.6908033e-05
0.00013166854
0.00012775025
0.00012156758
0.00011419044
0.0001050237
9.3313073e-05
7.8633805e-05
6.0955788e-05
4.0787304e-05
1.6908056e-05
0.0001316772
0.00012775775
0.00012157273
0.000114193
0.00010502423
9.3312435e-05
7.8632804e-05
6.0954991e-05
4.078696e-05
1.6908073e-05
0.00013168432
0.00012776378
0.00012157662
0.00011419459
0.00010502411
9.3311433e-05
7.863164e-05
6.0954146e-05
4.0786612e-05
1.6908084e-05
0.00013169001
0.00012776848
0.00012157939
0.00011419536
0.00010502347
9.3310141e-05
7.8630354e-05
6.0953272e-05
4.0786262e-05
1.6908091e-05
0.0001316944
0.00012777196
0.00012158115
0.00011419541
0.00010502238
9.3308627e-05
7.8628989e-05
6.0952387e-05
4.0785916e-05
1.6908092e-05
0.00013169759
0.00012777435
0.00012158205
0.00011419487
0.00010502096
9.3306965e-05
7.8627588e-05
6.0951512e-05
4.0785581e-05
1.6908089e-05
0.00013169973
0.00012777579
0.00012158223
0.00011419387
0.0001050193
9.3305224e-05
7.8626193e-05
6.0950669e-05
4.0785265e-05
1.6908084e-05
0.00013170098
0.00012777644
0.00012158182
0.00011419253
0.0001050175
9.3303471e-05
7.8624847e-05
6.0949879e-05
4.0784978e-05
1.6908076e-05
0.00013170148
0.00012777645
0.00012158097
0.00011419095
0.00010501563
9.3301759e-05
7.8623578e-05
6.0949156e-05
4.0784722e-05
1.6908067e-05
)
;

boundaryField
{
    water_inlet
    {
        type            calculated;
        value           uniform 4.1926275e-05;
    }
    water_outlet
    {
        type            calculated;
        value           nonuniform List<scalar> 10(0.00013170148 0.00012777645 0.00012158097 0.00011419095 0.00010501563 9.3301759e-05 7.8623578e-05 6.0949156e-05 4.0784722e-05 1.6908067e-05);
    }
    water_wedge1
    {
        type            wedge;
    }
    water_wedge2
    {
        type            wedge;
    }
    water_to_rock
    {
        type            nutkWallFunction;
        blending        stepwise;
        value           nonuniform List<scalar> 
100
(
1.7358471e-06
1.9240026e-06
1.9263124e-06
1.8751055e-06
1.8229114e-06
1.7867869e-06
1.7671181e-06
1.7584648e-06
1.7555995e-06
1.7553228e-06
1.7561183e-06
1.7574037e-06
1.7590035e-06
1.7608808e-06
1.7630282e-06
1.7654321e-06
1.7680559e-06
1.7708584e-06
1.7738124e-06
1.776895e-06
1.7800818e-06
1.7833462e-06
1.7866601e-06
1.7899949e-06
1.7933214e-06
1.796609e-06
1.7998245e-06
1.8029321e-06
1.8058927e-06
1.8086665e-06
1.8112154e-06
1.8135065e-06
1.8155154e-06
1.8172279e-06
1.8186409e-06
1.8197619e-06
1.8206073e-06
1.8212006e-06
1.8215701e-06
1.8217467e-06
1.8217617e-06
1.8216458e-06
1.8214273e-06
1.8211316e-06
1.8207793e-06
1.8203878e-06
1.8199743e-06
1.8195535e-06
1.8191369e-06
1.8187338e-06
1.8183507e-06
1.8179924e-06
1.8176621e-06
1.8173616e-06
1.8170918e-06
1.8168526e-06
1.8166433e-06
1.8164627e-06
1.8163093e-06
1.8161811e-06
1.8160764e-06
1.8159929e-06
1.8159287e-06
1.8158816e-06
1.8158495e-06
1.8158304e-06
1.8158222e-06
1.8158231e-06
1.8158315e-06
1.8158459e-06
1.815865e-06
1.8158876e-06
1.8159125e-06
1.8159387e-06
1.8159654e-06
1.815992e-06
1.816018e-06
1.816043e-06
1.8160667e-06
1.8160889e-06
1.8161095e-06
1.8161282e-06
1.8161451e-06
1.8161601e-06
1.8161732e-06
1.8161846e-06
1.8161941e-06
1.8162021e-06
1.8162087e-06
1.8162141e-06
1.8162183e-06
1.8162215e-06
1.8162238e-06
1.8162253e-06
1.816226e-06
1.8162261e-06
1.8162256e-06
1.8162248e-06
1.8162237e-06
1.8162225e-06
)
;
    }
}


// ************************************************************************* //
