/*--------------------------------*- C++ -*----------------------------------*\
| =========                 |                                                 |
| \\      /  F ield         | OpenFOAM: The Open Source CFD Toolbox           |
|  \\    /   O peration     | Version:  2506                                  |
|   \\  /    A nd           | Website:  www.openfoam.com                      |
|    \\/     M anipulation  |                                                 |
\*---------------------------------------------------------------------------*/
FoamFile
{
    version     2.0;
    format      ascii;
    arch        "LSB;label=32;scalar=64";
    class       surfaceScalarField;
    location    "11000/water";
    object      phi;
}
// * * * * * * * * * * * * * * * * * * * * * * * * * * * * * * * * * * * * * //

dimensions      [1 0 -1 0 0 0 0];

oriented        oriented;

internalField   nonuniform List<scalar> 
1890
(
-4.1736244e-05
0.0022168351
-0.00015753622
0.0059586937
-0.00032930668
0.0087985477
-0.00054203242
0.010900937
-0.00078239503
0.012402155
-0.0010351825
0.013412336
-0.0012746193
0.014013996
-0.0014359745
0.014245356
-0.001284859
0.0140006
0.012745539
-3.1455819e-05
0.002248291
-0.00011269721
0.0060399351
-0.00023219385
0.0089180443
-0.00037999422
0.011048737
-0.00054594256
0.012568103
-0.00071649904
0.013582893
-0.00086674518
0.014164243
-0.00093361967
0.01431223
-0.00073394524
0.013800926
0.012011594
-2.9138817e-05
0.0022774298
-0.00010672992
0.0061175262
-0.00022105536
0.0090323698
-0.0003616032
0.011189285
-0.00051700131
0.012723501
-0.00067116214
0.013737054
-0.00079396135
0.014287042
-0.00081139672
0.014329666
-0.00056729823
0.013556827
0.011444296
-2.7339929e-05
0.0023047697
-0.00010102593
0.0061912122
-0.0002092423
0.0091405861
-0.00034097883
0.011321022
-0.00048374642
0.012866269
-0.00061911426
0.013872422
-0.00071088025
0.014378808
-0.00067659628
0.014295382
-0.0004202587
0.01330049
0.011024037
-2.5625233e-05
0.0023303949
-9.4386151e-05
0.0062599731
-0.00019506692
0.0092412669
-0.00031669861
0.011442653
-0.00044589488
0.012995465
-0.00056132349
0.01398785
-0.00061882651
0.014436311
-0.00053651167
0.014213067
-0.00029565463
0.013059633
0.010728382
-2.4159497e-05
0.0023545544
-8.8799523e-05
0.0063246131
-0.00018306054
0.0093355279
-0.00029574183
0.011555335
-0.00041210914
0.013111832
-0.00050662384
0.014082365
-0.00052703811
0.014456725
-0.00040878737
0.014094816
-0.00020043521
0.012851281
0.010527947
-2.2965481e-05
0.0023775199
-8.4333467e-05
0.0063859811
-0.00017335344
0.0094245478
-0.00027826876
0.01166025
-0.00038232744
0.013215891
-0.00045438008
0.014154417
-0.00043820753
0.014440552
-0.00030321897
0.013959828
-0.00013379015
0.012681852
0.010394157
-2.2023828e-05
0.0023995437
-8.0769742e-05
0.006444727
-0.0001654057
0.0095091838
-0.00026327205
0.011758116
-0.0003547273
0.013307346
-0.00040244454
0.014202135
-0.00035545989
0.014393568
-0.00022237004
0.013826738
-8.9855925e-05
0.012549338
0.010304301
-2.126055e-05
0.0024208043
-7.7812543e-05
0.006501279
-0.00015855224
0.0095899235
-0.00024948529
0.011849049
-0.00032712255
0.013384984
-0.00034954613
0.014224558
-0.00028212887
0.01432615
-0.00016300192
0.013707611
-6.1425913e-05
0.012447762
0.010242875
-2.0607141e-05
0.0024414114
-7.5216615e-05
0.0065558885
-0.00015223228
0.0096669392
-0.0002357776
0.011932595
-0.00029784609
0.013447052
-0.00029644713
0.014223159
-0.0002202378
0.014249941
-0.00011980403
0.013607177
-4.2688632e-05
0.012370646
0.010200186
-2.0018281e-05
0.0024614297
-7.280468e-05
0.0066086749
-0.00014600126
0.0097401358
-0.00022120557
0.012007799
-0.00026613477
0.013491981
-0.00024531891
0.014202344
-0.00016974725
0.014174369
-8.7950904e-05
0.013525381
-2.9805574e-05
0.012312501
0.010170381
-1.9463547e-05
0.0024808933
-7.044143e-05
0.0066596528
-0.00013947751
0.0098091718
-0.00020502195
0.012073343
-0.00023228113
0.01351924
-0.00019838541
0.014168448
-0.0001291984
0.014105182
-6.3919803e-05
0.013460102
-2.0486886e-05
0.012269068
0.010149894
-1.8918754e-05
0.002499812
-6.8008138e-05
0.0067087422
-0.00013229878
0.0098734625
-0.00018675599
0.012127801
-0.00019748258
0.013529967
-0.00015698172
0.014127947
-9.6702565e-05
0.014044903
-4.5357337e-05
0.013408757
-1.3428381e-05
0.012237139
0.010136466
-1.8360391e-05
0.0025181724
-6.5381802e-05
0.0067557636
-0.00012410697
0.0099321876
-0.00016633484
0.012170029
-0.00016333369
0.013526966
-0.00012140785
0.014086021
-7.0531591e-05
0.013994027
-3.0721106e-05
0.013368946
-7.8903696e-06
0.012214308
0.010128575
-1.7761414e-05
0.0025359338
-6.2419604e-05
0.0068004218
-0.00011457682
0.0099843449
-0.00014416246
0.012199614
-0.0001312397
0.013514043
-9.1272596e-05
0.014046054
-4.9295194e-05
0.01395205
-1.8985053e-05
0.013338636
-3.4315922e-06
0.012198755
0.010125144
-1.7087914e-05
0.0025530217
-5.8952449e-05
0.0068422863
-0.0001034901
0.010028883
-0.00012105205
0.012217176
-0.00010208209
0.013495073
-6.5897448e-05
0.014009869
-3.1929989e-05
0.013918082
-9.4486594e-06
0.013316155
2.8847169e-07
0.012189018
0.010125432
-1.6296466e-05
0.0025693182
-5.4793178e-05
0.006880783
-9.0831942e-05
0.010064921
-9.7998075e-05
0.012224342
-7.6208852e-05
0.013473284
-4.4570671e-05
0.013978231
-1.7625804e-05
0.013891137
-1.556087e-06
0.013300085
3.372462e-06
0.012184089
0.010128804
-1.5331781e-05
0.00258465
-4.9761958e-05
0.0069152132
-7.6852541e-05
0.010092012
-7.5898478e-05
0.012223388
-5.3589014e-05
0.013450975
-2.6635007e-05
0.013951277
-5.7263514e-06
0.013870229
4.9966712e-06
0.013289362
5.8484482e-06
0.012183238
0.010134653
-1.4126765e-05
0.0025987767
-4.3732807e-05
0.0069448192
-6.204455e-05
0.010110324
-5.538028e-05
0.012216724
-3.3987157e-05
0.013429581
-1.1513648e-05
0.013928804
4.2353512e-06
0.01385448
1.0365832e-05
0.013283232
7.8652509e-06
0.012185738
0.010142518
-1.2609181e-05
0.0026113859
-3.669492e-05
0.006968905
-4.703188e-05
0.01012066
-3.6776218e-05
0.012206468
-1.708179e-05
0.013409887
1.3268057e-06
0.013910395
1.2525399e-05
0.013843281
1.4772375e-05
0.013280985
9.5146445e-06
0.012190996
0.010152033
-1.0718643e-05
0.0026221046
-2.880096e-05
0.0069869873
-3.242046e-05
0.01012428
-2.0181748e-05
0.01219423
-2.4813685e-06
0.013392187
1.2171496e-05
0.013895742
1.9376473e-05
0.013836076
1.8389625e-05
0.013281972
1.0861607e-05
0.012198524
0.010162894
-8.4362368e-06
0.0026305408
-2.0369139e-05
0.0069989202
-1.8684286e-05
0.010122595
-5.5171352e-06
0.012181062
1.003217e-05
0.013376637
2.1198419e-05
0.013884576
2.5025288e-05
0.013832249
2.1346656e-05
0.01328565
1.1952472e-05
0.012207918
0.010174847
-5.8188258e-06
0.0026363596
-1.1824989e-05
0.0070049263
-6.1097603e-06
0.01011688
7.2780639e-06
0.012167675
2.0572296e-05
0.013363343
2.8686432e-05
0.013876462
2.9656323e-05
0.013831279
2.3740045e-05
0.013291566
1.2820579e-05
0.012218837
0.010187667
-3.0141483e-06
0.0026393738
-3.5957902e-06
0.007005508
5.1030112e-06
0.010108181
1.8191205e-05
0.012154586
2.9354749e-05
0.013352179
3.484021e-05
0.013870976
3.3407075e-05
0.013832712
2.5641054e-05
0.013299332
1.3490237e-05
0.012230988
0.010201158
-2.3421737e-07
0.002639608
3.9066327e-06
0.0070013671
1.4739339e-05
0.010097348
2.7283725e-05
0.012142042
3.6557802e-05
0.013342905
3.9809888e-05
0.013867724
3.637485e-05
0.013836147
2.7098524e-05
0.013308609
1.397743e-05
0.012244109
0.010215135
2.2767618e-06
0.0026373312
1.0307813e-05
0.006993336
2.2679985e-05
0.010084976
3.4653346e-05
0.012130069
4.2305534e-05
0.013335253
4.3693357e-05
0.013866336
3.8618119e-05
0.013841223
2.8138123e-05
0.013319089
1.4288409e-05
0.012257959
0.010229424
4.3214634e-06
0.0026330097
1.5394207e-05
0.0069822633
2.8918957e-05
0.010071451
4.0371166e-05
0.012118616
4.667492e-05
0.013328949
4.6543046e-05
0.013866468
4.0160718e-05
0.013847605
2.8763913e-05
0.013330486
1.441982e-05
0.012272303
0.010243843
5.8170719e-06
0.0026271927
1.9123164e-05
0.0069689572
3.3492259e-05
0.010057082
4.4498503e-05
0.01210761
4.9714433e-05
0.013323733
4.8381715e-05
0.013867801
4.1003237e-05
0.013854983
2.8965383e-05
0.013342523
1.436206e-05
0.012286906
0.010258205
6.7756194e-06
0.002620417
2.1562189e-05
0.0069541706
3.6486779e-05
0.010042158
4.7108219e-05
0.012096989
5.146716e-05
0.013319374
4.9222634e-05
0.013870045
4.1138462e-05
0.013863068
2.8727599e-05
0.013354934
1.4103889e-05
0.01230153
0.010272309
7.2692819e-06
0.0026131478
2.2857547e-05
0.0069385824
3.80421e-05
0.010026973
4.8302315e-05
0.012086728
5.1992807e-05
0.013315684
4.909046e-05
0.013872948
4.0568557e-05
0.013871589
2.8043461e-05
0.013367459
1.3639162e-05
0.012315934
0.010285948
7.3946441e-06
0.0026057531
2.319917e-05
0.0069227779
3.8341838e-05
0.010011831
4.8219818e-05
0.012076851
5.13822e-05
0.013312522
4.8036817e-05
0.013876293
3.9318654e-05
0.013880308
2.692349e-05
0.013379855
1.297153e-05
0.012329886
0.01029892
7.2477592e-06
0.0025985054
2.2789374e-05
0.0069072362
3.7597274e-05
0.0099970226
4.7033908e-05
0.012067414
4.9761843e-05
0.013309794
4.6147667e-05
0.013879907
3.7444197e-05
0.013889011
2.5401402e-05
0.013391897
1.2117517e-05
0.01234317
0.010311038
6.9116046e-06
0.0025915938
2.182007e-05
0.0068923278
3.6028164e-05
0.0099828146
4.4940645e-05
0.012058501
4.728856e-05
0.013307446
4.3541272e-05
0.013883655
3.5030243e-05
0.013897522
2.3533557e-05
0.013403394
1.1105752e-05
0.012355598
0.010322143
6.4523791e-06
0.0025851414
2.0459654e-05
0.0068783205
3.3845902e-05
0.0099694283
4.2144256e-05
0.012050203
4.4138127e-05
0.013305452
4.0359542e-05
0.013887433
3.2184794e-05
0.013905697
2.1393972e-05
0.013414185
9.9740987e-06
0.012367018
0.010332117
5.9203934e-06
0.002579221
1.8847844e-05
0.0068653931
3.1241606e-05
0.0099570346
3.8843171e-05
0.012042602
4.0491919e-05
0.013303803
3.675622e-05
0.013891169
2.9028921e-05
0.013913424
1.9066865e-05
0.013424147
8.765447e-06
0.012377319
0.010340883
5.3527049e-06
0.0025738683
1.7095799e-05
0.00685365
2.8379667e-05
0.0099457507
3.5219406e-05
0.012035762
3.6524904e-05
0.013302498
3.2885213e-05
0.013894809
2.5686591e-05
0.013920623
1.6639046e-05
0.013433195
7.5236441e-06
0.012386435
0.010348406
4.7759853e-06
0.0025690923
1.5289051e-05
0.0068431369
2.5395734e-05
0.009935644
3.1431977e-05
0.012029726
3.2396603e-05
0.013301533
2.8890945e-05
0.013898314
2.2275895e-05
0.013927238
1.4193297e-05
0.013441277
6.2900581e-06
0.012394338
0.010354697
4.2090204e-06
0.0025648833
1.3491483e-05
0.0068338544
2.2397687e-05
0.0099267378
2.7613901e-05
0.012024509
2.8245332e-05
0.013300902
2.4901411e-05
0.013901658
1.8902395e-05
0.013933237
1.1803327e-05
0.013448376
5.10094e-06
0.01240104
0.010359797
3.6647086e-06
0.0025612186
1.1749371e-05
0.0068257698
1.9468287e-05
0.0099190189
2.3871889e-05
0.012020106
2.4185385e-05
0.013300588
2.1023995e-05
0.01390482
1.5654795e-05
0.013938606
9.5303874e-06
0.013454501
3.9858194e-06
0.012406585
0.010363783
3.1515575e-06
0.002558067
1.0094963e-05
0.0068188264
1.6668458e-05
0.0099124454
2.0287694e-05
0.012016486
2.0306376e-05
0.013300569
1.7343492e-05
0.013907783
1.2602559e-05
0.013943347
7.4213077e-06
0.013459682
2.966373e-06
0.01241104
0.01036675
2.6748317e-06
0.0025553922
8.5495439e-06
0.0068129517
1.4040796e-05
0.0099069541
1.6920628e-05
0.012013607
1.66744e-05
0.013300816
1.3922256e-05
0.013910535
9.7955899e-06
0.013947474
5.5081913e-06
0.013463969
2.0563906e-06
0.012414492
0.010368806
2.2374103e-06
0.0025531548
7.1259555e-06
0.0068080631
1.1612921e-05
0.0099024672
1.3810638e-05
0.012011409
1.3334376e-05
0.013301292
1.0801874e-05
0.013913067
7.2655003e-06
0.01395101
3.8094506e-06
0.013467425
1.2624678e-06
0.012417039
0.010370069
1.840439e-06
0.0025513143
5.8306855e-06
0.0068040729
9.4006417e-06
0.0098988972
1.0981762e-05
0.012009828
1.0313344e-05
0.01330196
8.0062264e-06
0.013915374
5.028445e-06
0.013953988
2.3322507e-06
0.013470122
5.8554043e-07
0.012418785
0.010370654
1.4838313e-06
0.0025498305
4.6655245e-06
0.0068008912
7.4106579e-06
0.0098961521
8.4453245e-06
0.012008793
7.6237223e-06
0.013302782
5.5445814e-06
0.013917453
3.088011e-06
0.013956444
1.0758672e-06
0.013472134
3.2946697e-08
0.012419828
0.010370687
1.1665755e-06
0.0025486639
3.6286339e-06
0.0067984291
5.6423516e-06
0.0098941384
6.2020691e-06
0.012008233
5.2655038e-06
0.013303719
3.4139793e-06
0.013919305
1.4388601e-06
0.01395842
4.1329324e-08
0.013473531
-4.103719e-07
0.01242028
0.010370277
8.8703323e-07
0.0025477769
2.7156578e-06
0.0067966005
4.0898953e-06
0.0098927642
4.2451876e-06
0.012008078
3.2302272e-06
0.013304734
1.604702e-06
0.013920931
7.5677228e-08
0.013959949
-7.9481753e-07
0.013474402
-7.6948531e-07
0.012420255
0.010369507
6.4320064e-07
0.0025471337
1.9207083e-06
0.006795323
2.7442431e-06
0.0098919406
2.563406e-06
0.012008259
1.5054096e-06
0.013305792
1.0686437e-07
0.013922329
-1.0293985e-06
0.013961085
-1.4650014e-06
0.013474837
-1.0486921e-06
0.012419839
0.010368458
4.3283343e-07
0.0025467009
1.2368887e-06
0.006794519
1.5942694e-06
0.0098915833
1.1430671e-06
0.01200871
7.7861888e-08
0.013306857
-1.1094713e-06
0.013923516
-1.913e-06
0.013961888
-1.9822537e-06
0.013474907
-1.25404e-06
0.01241911
0.010367204
2.5360638e-07
0.0025464473
6.5695211e-07
0.0067941156
6.2862695e-07
0.0098916116
-2.9964704e-08
0.012009369
-1.0819494e-06
0.013307909
-2.081859e-06
0.013924516
-2.5951792e-06
0.013962402
-2.3615381e-06
0.013474673
-1.3935133e-06
0.012418142
0.010365811
1.032606e-07
0.002546344
1.7386566e-07
0.006794045
-1.6619193e-07
0.0098919516
-9.8233065e-07
0.012010185
-2.0093028e-06
0.013308936
-2.8341128e-06
0.013925341
-3.0971612e-06
0.013962665
-2.6194011e-06
0.013474195
-1.4760734e-06
0.012416999
0.010364335
-2.0689465e-08
0.0025463647
-2.2163582e-07
0.0067942459
-8.1017823e-07
0.0098925402
-1.743105e-06
0.012011118
-2.7275944e-06
0.01330992
-3.3901112e-06
0.013926004
-3.4410748e-06
0.013962716
-2.7728046e-06
0.013473527
-1.51075e-06
0.012415737
0.010362824
-1.2126704e-07
0.002546486
-5.403976e-07
0.0067946651
-1.3221195e-06
0.0098933219
-2.3314785e-06
0.012012127
-3.2598224e-06
0.013310849
-3.7740344e-06
0.013926518
-3.6488875e-06
0.013962591
-2.8382135e-06
0.013472716
-1.5060968e-06
0.012414405
0.010361318
-2.0126317e-07
0.0025466872
-7.911692e-07
0.006795255
-1.7157237e-06
0.0098942464
-2.7667543e-06
0.012013178
-3.6288554e-06
0.013311711
-4.0094471e-06
0.013926898
-3.7415655e-06
0.013962323
-2.8309643e-06
0.013471806
-1.4698859e-06
0.012413044
0.010359848
-2.6293587e-07
0.0025469502
-9.8137531e-07
0.0067959734
-2.0045111e-06
0.0098952696
-3.0677803e-06
0.012014242
-3.8567435e-06
0.0133125
-4.1186924e-06
0.01392716
-3.7385834e-06
0.013961943
-2.7649547e-06
0.013470832
-1.4089581e-06
0.012411688
0.010358439
-3.0842222e-07
0.0025472586
-1.1182041e-06
0.0067967832
-2.201582e-06
0.009896353
-3.2526763e-06
0.012015293
-3.9644499e-06
0.013313211
-4.1226871e-06
0.013927319
-3.657845e-06
0.013961478
-2.6527227e-06
0.013469827
-1.3293788e-06
0.012410364
0.01035711
-3.3974561e-07
0.0025475983
-1.2085242e-06
0.006797652
-2.3194365e-06
0.0098974639
-3.3386069e-06
0.012016312
-3.9716034e-06
0.013313844
-4.0407269e-06
0.013927388
-3.5155995e-06
0.013960953
-2.5054567e-06
0.013468817
-1.2364744e-06
0.012409095
0.010355873
-3.5881659e-07
0.0025479571
-1.2588368e-06
0.006798552
-2.3698674e-06
0.0098985749
-3.3416317e-06
0.012017284
-3.8963482e-06
0.013314399
-3.8903915e-06
0.013927382
-3.3264041e-06
0.013960389
-2.333026e-06
0.013467823
-1.1348699e-06
0.012407897
0.010354738
-3.6742671e-07
0.0025483246
-1.2752272e-06
0.0067994598
-2.3638546e-06
0.0098996635
-3.2765605e-06
0.012018196
-3.7551978e-06
0.013314878
-3.6874118e-06
0.013927314
-3.1030529e-06
0.013959804
-2.1439261e-06
0.013466864
-1.0284947e-06
0.012406782
0.01035371
-3.672347e-07
0.0025486918
-1.2633208e-06
0.0068003559
-2.3114737e-06
0.0099007117
-3.1568227e-06
0.012019042
-3.5628781e-06
0.013315284
-3.445542e-06
0.013927197
-2.8564615e-06
0.013959215
-1.9452025e-06
0.013465953
-9.2044973e-07
0.012405757
0.010352789
-3.5977332e-07
0.0025490516
-1.2282783e-06
0.0068012244
-2.221886e-06
0.0099017053
-2.9944714e-06
0.012019814
-3.3323925e-06
0.013315622
-3.1766749e-06
0.013927041
-2.595825e-06
0.013958634
-1.7425894e-06
0.0134651
-8.1319118e-07
0.012404828
0.010351976
-3.4644024e-07
0.002549398
-1.1747859e-06
0.0068020527
-2.1033297e-06
0.0099026338
-2.800198e-06
0.012020511
-3.0750715e-06
0.013315897
-2.890955e-06
0.013926857
-2.3287837e-06
0.013958072
-1.5406768e-06
0.013464312
-7.0856504e-07
0.012403996
0.010351268
-3.2850756e-07
0.0025497265
-1.1070802e-06
0.0068028313
-1.9631818e-06
0.0099034899
-2.5834573e-06
0.012021131
-2.8007826e-06
0.013316114
-2.5970574e-06
0.013926653
-2.0617377e-06
0.013957537
-1.3432532e-06
0.013463593
-6.080568e-07
0.01240326
0.01035066
-3.0712565e-07
0.0025500337
-1.0289681e-06
0.0068035532
-1.8080137e-06
0.009904269
-2.3525677e-06
0.012021676
-2.5180925e-06
0.013316279
-2.3024145e-06
0.013926437
-1.8001098e-06
0.013957035
-1.153497e-06
0.013462947
-5.1295611e-07
0.01240262
0.010350147
-2.8331785e-07
0.002550317
-9.4382804e-07
0.0068042137
-1.6436014e-06
0.0099049688
-2.114758e-06
0.012022147
-2.2343389e-06
0.013316399
-2.0132951e-06
0.013926216
-1.5484232e-06
0.01395657
-9.7405344e-07
0.013462372
-4.2431909e-07
0.01240207
0.010349722
-2.5798797e-07
0.002550575
-8.5462253e-07
0.0068048103
-1.4749556e-06
0.0099055891
-1.8762025e-06
0.012022548
-1.9556771e-06
0.013316479
-1.734854e-06
0.013925996
-1.3103074e-06
0.013956145
-8.0701779e-07
0.013461869
-3.4300573e-07
0.012401606
0.010349379
-2.3191323e-07
0.0025508069
-7.6388352e-07
0.0068053423
-1.3062972e-06
0.0099061315
-1.6419919e-06
0.012022884
-1.6870394e-06
0.013316524
-1.4710679e-06
0.01392578
-1.0884223e-06
0.013955763
-6.5379548e-07
0.013461434
-2.695232e-07
0.012401222
0.01034911
-2.0574473e-07
0.0025510126
-6.7371324e-07
0.0068058103
-1.1410599e-06
0.0099065989
-1.4161436e-06
0.012023159
-1.4321418e-06
0.01331654
-1.2247177e-06
0.013925572
-8.8440092e-07
0.013955422
-5.1504316e-07
0.013461065
-2.0396089e-07
0.012400911
0.010348906
-1.8002246e-07
0.0025511926
-5.8582009e-07
0.0068062161
-9.8196119e-07
0.009906995
-1.201709e-06
0.012023379
-1.1936398e-06
0.013316532
-9.9758928e-07
0.013925376
-6.99056e-07
0.013955124
-3.9084782e-07
0.013460757
-1.4615504e-07
0.012400666
0.01034876
-1.5517395e-07
0.0025513478
-5.0154062e-07
0.0068065624
-8.310569e-07
0.0099073245
-1.0008776e-06
0.012023549
-9.7325129e-07
0.013316504
-7.9059386e-07
0.013925193
-5.3250145e-07
0.013954866
-2.8081433e-07
0.013460505
-9.5651095e-08
0.012400481
0.010348664
-1.3154111e-07
0.0025514794
-4.2190949e-07
0.0068068528
-6.898783e-07
0.0099075925
-8.1517752e-07
0.012023674
-7.7204229e-07
0.013316461
-6.0411097e-07
0.013925026
-3.8450058e-07
0.013954646
-1.8439294e-07
0.013460305
-5.2013364e-08
0.012400349
0.010348612
-1.0938221e-07
0.0025515887
-3.4769375e-07
0.0068070911
-5.5951314e-07
0.0099078043
-6.4560371e-07
0.01202376
-5.9056416e-07
0.013316406
-4.3813255e-07
0.013924873
-2.5459931e-07
0.013954462
-1.0093486e-07
0.013460151
-1.4338446e-08
0.012400262
0.010348598
-8.8891324e-08
0.0025516776
-2.7945279e-07
0.0068072817
-4.4071143e-07
0.0099079656
-4.9276843e-07
0.012023812
-4.2904407e-07
0.013316342
-2.9243414e-07
0.013924737
-1.4221708e-07
0.013954312
-2.9475601e-08
0.013460039
1.7644788e-08
0.012400215
0.010348615
-7.0200185e-08
0.0025517478
-2.1755346e-07
0.006807429
-3.3391296e-07
0.009908082
-3.5692562e-07
0.012023835
-2.8736321e-07
0.013316272
-1.6648162e-07
0.013924616
-4.6364404e-08
0.013954192
3.0504123e-08
0.013459962
4.3369663e-08
0.012400202
0.010348659
-5.3383687e-08
0.0025518012
-1.6217696e-07
0.0068075378
-2.3924927e-07
0.009908159
-2.3793515e-07
0.012023834
-1.6496814e-07
0.0133162
-5.9217125e-08
0.01392451
3.3851577e-08
0.013954099
7.8861665e-08
0.013459917
6.3052857e-08
0.012400218
0.010348722
-3.845619e-08
0.0025518397
-1.1331666e-07
0.0068076127
-1.5652503e-07
0.0099082023
-1.3522406e-07
0.012023813
-6.0739822e-08
0.013316125
3.0591137e-08
0.013924419
9.8812757e-08
0.013954031
1.1629532e-07
0.013459899
7.755874e-08
0.012400257
0.010348799
-2.5392563e-08
0.0025518651
-7.0817986e-08
0.0068076581
-8.5276137e-08
0.0099082167
-4.7796964e-08
0.012023775
2.6578011e-08
0.013316051
1.0361269e-07
0.013924342
1.4948144e-07
0.013953985
1.4414159e-07
0.013459905
8.7574564e-08
0.012400313
0.010348887
-1.411368e-08
0.0025518792
-3.4359887e-08
0.0068076784
-2.4706654e-08
0.0099082071
2.54427e-08
0.012023725
9.7810064e-08
0.013315978
1.6100418e-07
0.013924278
1.8764363e-07
0.013953958
1.6379611e-07
0.013459928
9.3912817e-08
0.012400383
0.010348981
-4.5122363e-09
0.0025518837
-3.5097226e-09
0.0068076774
2.5860029e-08
0.0099081777
8.5169125e-08
0.012023666
1.5400993e-07
0.013315909
2.0457758e-07
0.013924228
2.1495476e-07
0.013953948
1.764956e-07
0.013459967
9.7157812e-08
0.012400462
0.010349078
3.5186681e-09
0.0025518802
2.2041722e-08
0.0068076588
6.6919708e-08
0.0099081328
1.3233187e-07
0.0120236
1.9689822e-07
0.013315845
2.3612127e-07
0.013924189
2.3301765e-07
0.013953951
1.8341928e-07
0.013460016
9.7969552e-08
0.012400548
0.010349176
1.0051872e-08
0.0025518701
4.2553638e-08
0.0068076263
9.9182263e-08
0.0099080762
1.6826416e-07
0.012023531
2.2802282e-07
0.013315785
2.571872e-07
0.013924159
2.4314733e-07
0.013953965
1.8546614e-07
0.013460074
9.6710031e-08
0.012400637
0.010349273
1.5207045e-08
0.0025518549
5.8496742e-08
0.0068075831
1.2358776e-07
0.0099080111
1.942654e-07
0.01202346
2.4888176e-07
0.013315731
2.6923956e-07
0.013924139
2.4656841e-07
0.013953988
1.8347222e-07
0.013460137
9.3817177e-08
0.012400726
0.010349367
1.9115094e-08
0.0025518358
7.0346672e-08
0.0068075318
1.4101642e-07
0.0099079404
2.1153657e-07
0.01202339
2.6081136e-07
0.013315681
2.7354578e-07
0.013924126
2.4428388e-07
0.013954017
1.7806242e-07
0.013460203
8.95025e-08
0.012400815
0.010349456
2.1922307e-08
0.0025518139
7.8593552e-08
0.0068074752
1.5235868e-07
0.0099078667
2.2127169e-07
0.012023321
2.6514189e-07
0.013315637
2.7136195e-07
0.01392412
2.3730952e-07
0.013954051
1.6990248e-07
0.013460271
8.410877e-08
0.012400901
0.01034954
2.3760239e-08
0.0025517901
8.369798e-08
0.0068074152
1.5844177e-07
0.0099077919
2.245813e-07
0.012023255
2.6308135e-07
0.013315599
2.6381127e-07
0.013924119
2.2651864e-07
0.013954088
1.5952937e-07
0.013460338
7.7793901e-08
0.012400982
0.010349618
2.4775987e-08
0.0025517654
8.6140397e-08
0.0068073538
1.601232e-07
0.0099077179
2.2259985e-07
0.012023192
2.5588811e-07
0.013315566
2.5208734e-07
0.013924123
2.128955e-07
0.013954128
1.4763303e-07
0.013460403
7.0957691e-08
0.012401059
0.010349689
2.5094333e-08
0.0025517403
8.6357315e-08
0.0068072926
1.5818022e-07
0.0099076461
2.163605e-07
0.012023134
2.4468139e-07
0.013315537
2.372388e-07
0.013924131
1.9728725e-07
0.013954168
1.3476732e-07
0.013460466
6.3812074e-08
0.01240113
0.010349753
2.4847304e-08
0.0025517154
8.4779682e-08
0.0068072326
1.5337641e-07
0.0099075775
2.0686224e-07
0.012023081
2.305592e-07
0.013315514
2.2030226e-07
0.013924141
1.8055415e-07
0.013954207
1.2155906e-07
0.013460525
5.6732517e-08
0.012401195
0.010349809
2.4140242e-08
0.0025516913
8.1775024e-08
0.006807175
1.4635501e-07
0.0099075129
1.9494131e-07
0.012023032
2.1440478e-07
0.013315494
2.0208709e-07
0.013924153
1.6333387e-07
0.013954246
1.0841912e-07
0.01346058
4.9863371e-08
0.012401253
0.010349859
2.3074942e-08
0.0025516682
7.7677204e-08
0.0068071204
1.3769179e-07
0.0099074529
1.8132555e-07
0.012022988
1.9698136e-07
0.013315478
1.8327305e-07
0.013924167
1.4615677e-07
0.013954283
9.5702197e-08
0.01346063
4.3413334e-08
0.012401306
0.010349903
2.173273e-08
0.0025516465
7.2756554e-08
0.0068070694
1.2784281e-07
0.0099073978
1.6657586e-07
0.01202295
1.7883934e-07
0.013315466
1.6431727e-07
0.013924181
1.2932923e-07
0.013954318
8.35568e-08
0.013460676
3.7397553e-08
0.012401352
0.01034994
2.0185123e-08
0.0025516263
6.7241996e-08
0.0068070223
1.1718225e-07
0.0099073479
1.5112934e-07
0.012022916
1.6038944e-07
0.013315457
1.455235e-07
0.013924196
1.1301681e-07
0.013954351
7.2026498e-08
0.013460717
3.1809341e-08
0.012401392
0.010349972
1.8492569e-08
0.0025516078
6.1321652e-08
0.0068069795
1.0601061e-07
0.0099073032
1.3533291e-07
0.012022886
1.4193654e-07
0.01331545
1.2709427e-07
0.013924211
9.7297071e-08
0.01395438
6.1077561e-08
0.013460753
2.6560489e-08
0.012401426
0.010349998
1.6711183e-08
0.0025515911
5.5165756e-08
0.006806941
9.4597547e-08
0.0099072637
1.1948857e-07
0.012022862
1.2374731e-07
0.013315446
1.092105e-07
0.013924226
8.2241923e-08
0.013954407
5.0693394e-08
0.013460784
2.16194e-08
0.012401455
0.01035002
1.4890351e-08
0.0025515762
4.8927328e-08
0.006806907
8.3186242e-08
0.0099072295
1.0388149e-07
0.012022841
1.0608316e-07
0.013315444
9.2062355e-08
0.01392424
6.7952091e-08
0.013954431
4.0895819e-08
0.013460812
1.6947525e-08
0.012401479
0.010350037
1.3079124e-08
0.0025515631
4.2757384e-08
0.0068068773
7.2022111e-08
0.0099072002
8.8805474e-08
0.012022824
8.924046e-08
0.013315443
7.5904525e-08
0.013924253
5.4619703e-08
0.013954453
3.1814328e-08
0.013460834
1.2634784e-08
0.012401499
0.01035005
1.1317602e-08
0.0025515518
3.6787233e-08
0.0068068518
6.1329451e-08
0.0099071756
7.4538871e-08
0.012022811
7.3499515e-08
0.013315444
6.0987652e-08
0.013924265
4.2448709e-08
0.013954471
2.3600632e-08
0.013460853
8.7507802e-09
0.012401513
0.010350058
9.6412966e-09
0.0025515421
3.1134091e-08
0.0068068303
5.1301796e-08
0.0099071555
6.1320987e-08
0.012022801
5.9113728e-08
0.013315447
4.7552337e-08
0.013924277
3.1655706e-08
0.013954487
1.6432468e-08
0.013460868
5.4209807e-09
0.012401524
0.010350064
8.0701098e-09
0.0025515341
2.5870997e-08
0.0068068125
4.2064703e-08
0.0099071393
4.9305546e-08
0.012022794
4.6234441e-08
0.01331545
3.5727945e-08
0.013924287
2.2345932e-08
0.013954501
1.0403055e-08
0.01346088
2.7041618e-09
0.012401532
0.010350067
6.6249535e-09
0.0025515274
2.1046861e-08
0.0068067981
3.3709919e-08
0.0099071266
3.8643322e-08
0.012022789
3.5079371e-08
0.013315453
2.5792891e-08
0.013924297
1.4821013e-08
0.013954512
5.7830217e-09
0.013460889
7.7664444e-10
0.012401537
0.010350067
2.9924511e-09
9.5048658e-09
1.5119063e-08
1.7150319e-08
1.5304881e-08
1.0986638e-08
6.0247923e-09
2.0988989e-09
3.9424547e-11
)
;

boundaryField
{
    water_inlet
    {
        type            calculated;
        value           nonuniform List<scalar> 10(-0.0021750989 -0.0058428937 -0.0086267772 -0.010688211 -0.012161792 -0.013159549 -0.01377456 -0.014084001 -0.014151716 -0.014030398);
    }
    water_outlet
    {
        type            calculated;
        value           nonuniform List<scalar> 10(0.0025515244 0.0068067916 0.009907121 0.012022787 0.013315455 0.013924301 0.013954516 0.013460893 0.012401539 0.010350067);
    }
    water_wedge1
    {
        type            wedge;
        value           nonuniform List<scalar> 
1000
(
-1.1296408e-13
-1.4267828e-13
-1.1215882e-13
-1.0631127e-13
-9.9353707e-14
-9.3387909e-14
-8.8693824e-14
-8.4958338e-14
-8.19738e-14
-7.9485852e-14
-7.7281973e-14
-7.5238072e-14
-7.3266506e-14
-7.1279744e-14
-6.9186141e-14
-6.6855857e-14
-6.4130758e-14
-6.0816244e-14
-5.6667448e-14
-5.1409108e-14
-4.4793911e-14
-3.6657109e-14
-2.7078812e-14
-1.6557394e-14
-5.8649736e-15
4.059393e-15
1.2370193e-14
1.8673641e-14
2.2902874e-14
2.5298528e-14
2.6225062e-14
2.6009137e-14
2.5025478e-14
2.3510186e-14
2.168215e-14
1.9699107e-14
1.7630357e-14
1.5593141e-14
1.3605838e-14
1.1730096e-14
1.0000911e-14
8.3941936e-15
6.9273269e-15
5.6099711e-15
4.4455164e-15
3.4093884e-15
2.4945301e-15
1.7060393e-15
1.0438978e-15
4.8515154e-16
1.1444065e-17
-3.6856658e-16
-6.690088e-16
-9.0750247e-16
-1.0917535e-15
-1.2148665e-15
-1.2859523e-15
-1.3249543e-15
-1.3307182e-15
-1.3084529e-15
-1.2666406e-15
-1.2078391e-15
-1.131738e-15
-1.0474205e-15
-9.5273203e-16
-8.5714179e-16
-7.7014453e-16
-6.7614006e-16
-5.8098921e-16
-4.9483102e-16
-4.1875935e-16
-3.4768436e-16
-2.7442527e-16
-2.0767132e-16
-1.5010091e-16
-1.0654984e-16
-6.2870765e-17
-2.6920256e-17
1.490741e-18
2.7233738e-17
4.7283853e-17
6.5776714e-17
7.0023622e-17
7.7050631e-17
8.4029731e-17
8.825666e-17
8.5598234e-17
8.5146867e-17
8.479366e-17
7.5836523e-17
6.9622701e-17
6.5746464e-17
5.5231721e-17
4.8858659e-17
4.3871683e-17
3.4141036e-17
3.3169182e-17
2.7653148e-17
2.4853605e-17
1.3713907e-17
-6.8081129e-13
-1.0335447e-12
-8.3928927e-13
-7.9752546e-13
-7.4939863e-13
-7.0313781e-13
-6.6536352e-13
-6.3522794e-13
-6.1093562e-13
-5.9052775e-13
-5.7244824e-13
-5.5560472e-13
-5.3912548e-13
-5.2220011e-13
-5.0397406e-13
-4.8343156e-13
-4.5934417e-13
-4.3018734e-13
-3.9436638e-13
-3.5055547e-13
-2.9813894e-13
-2.3765227e-13
-1.7103103e-13
-1.0155356e-13
-3.3369764e-14
2.8944841e-14
8.1481884e-14
1.2214431e-13
1.5063521e-13
1.6797744e-13
1.7589954e-13
1.763566e-13
1.7126823e-13
1.6227186e-13
1.5073385e-13
1.3769823e-13
1.2392947e-13
1.1003721e-13
9.6434841e-14
8.3437655e-14
7.1225519e-14
5.9903006e-14
4.9551102e-14
4.019726e-14
3.1833286e-14
2.4424546e-14
1.7935477e-14
1.2311133e-14
7.5040578e-15
3.465458e-15
1.1437891e-16
-2.6197756e-15
-4.8049792e-15
-6.5037696e-15
-7.7689201e-15
-8.6587958e-15
-9.2144381e-15
-9.4939554e-15
-9.5323427e-15
-9.3766444e-15
-9.0670334e-15
-8.619984e-15
-8.0826771e-15
-7.4814114e-15
-6.8292069e-15
-6.1549954e-15
-5.4758232e-15
-4.8083105e-15
-4.1580568e-15
-3.5397829e-15
-2.9608634e-15
-2.4190885e-15
-1.9253211e-15
-1.478397e-15
-1.0834108e-15
-7.3755084e-16
-4.3276749e-16
-1.7209328e-16
4.4308613e-17
2.2070077e-16
3.607516e-16
4.6907965e-16
5.4384751e-16
5.9554499e-16
6.2935873e-16
6.4277344e-16
6.3921801e-16
6.2401234e-16
5.9658936e-16
5.6149121e-16
5.2295281e-16
4.857974e-16
4.3829535e-16
3.8576523e-16
3.4159044e-16
2.9727169e-16
2.5590357e-16
2.1319645e-16
1.7218962e-16
9.7873427e-17
3.1339118e-12
4.8023027e-12
3.9072357e-12
3.7113886e-12
3.4900557e-12
3.268935e-12
3.0860209e-12
2.9387802e-12
2.8176134e-12
2.7124746e-12
2.6152689e-12
2.5197155e-12
2.4205062e-12
2.3123551e-12
2.1894936e-12
2.0461144e-12
1.877493e-12
1.681099e-12
1.457425e-12
1.2105519e-12
9.4809435e-13
6.8016761e-13
4.1759453e-13
1.7019571e-13
-5.3295244e-14
-2.4552346e-13
-4.0214441e-13
-5.2202578e-13
-6.0636436e-13
-6.5807952e-13
-6.8131118e-13
-6.8088707e-13
-6.6177426e-13
-6.2868193e-13
-5.8578847e-13
-5.3663562e-13
-4.8411761e-13
-4.3049226e-13
-3.774853e-13
-3.2636004e-13