/*--------------------------------*- C++ -*----------------------------------*\
| =========                 |                                                 |
| \\      /  F ield         | OpenFOAM: The Open Source CFD Toolbox           |
|  \\    /   O peration     | Version:  2506                                  |
|   \\  /    A nd           | Website:  www.openfoam.com                      |
|    \\/     M anipulation  |                                                 |
\*---------------------------------------------------------------------------*/
FoamFile
{
    version     2.0;
    format      ascii;
    arch        "LSB;label=32;scalar=64";
    class       volVectorField;
    location    "11000/water";
    object      U;
}
// * * * * * * * * * * * * * * * * * * * * * * * * * * * * * * * * * * * * * //

dimensions      [0 1 -1 0 0 0 0];

internalField   nonuniform List<vector> 
1000
(
(0.25225587 -0.00012859767 3.4706575e-18)
(0.25226258 -0.00027067836 2.8016027e-19)
(0.25227485 -0.0004145054 1.8314647e-18)
(0.25228819 -0.00055572716 3.3692515e-19)
(0.25229018 -0.0006857579 7.2830663e-19)
(0.25223998 -0.00079863172 1.4544731e-19)
(0.25200713 -0.00089615194 -2.526417e-20)
(0.25115686 -0.0010460356 -4.0719657e-19)
(0.24780473 -0.0012820719 -3.8348831e-20)
(0.23308261 0.0010121611 -4.132502e-19)
(0.25653043 -7.7330445e-05 2.32338e-18)
(0.25653977 -0.0001890383 1.1742937e-18)
(0.25655871 -0.00029096535 1.8563164e-18)
(0.25657276 -0.00039024486 5.5753015e-19)
(0.25654377 -0.00048175037 4.7187293e-19)
(0.25636039 -0.00055898441 2.1513486e-19)
(0.25570613 -0.00060536497 -1.2298368e-19)
(0.25355952 -0.00065441364 -5.0785385e-19)
(0.24574266 -0.00084724775 -1.6928118e-19)
(0.21968686 0.00025718808 -4.7170854e-19)
(0.26021787 -7.3909969e-05 -2.0234875e-18)
(0.26022468 -0.0001805983 -1.3404757e-19)
(0.26023383 -0.00027741906 3.8147235e-19)
(0.26021807 -0.00037159735 1.0625403e-19)
(0.26010153 -0.00045735761 -4.039567e-19)
(0.25968006 -0.00053044579 -2.1390808e-19)
(0.25840621 -0.00057093067 -2.3982e-19)
(0.25452354 -0.00056554725 -4.0671877e-19)
(0.24186464 -0.00061987704 -3.8661403e-19)
(0.20839343 1.125278e-05 -4.9541529e-19)
(0.26340526 -6.8945962e-05 -1.2621265e-18)
(0.26340956 -0.00017058504 -6.637989e-19)
(0.26340597 -0.00026279221 2.7990361e-19)
(0.2633478 -0.00035138356 8.4600711e-20)
(0.26310913 -0.00042951118 -3.1465319e-19)
(0.26237282 -0.00049394953 -6.050296e-19)
(0.26030371 -0.00052750907 -3.5122886e-19)
(0.25430843 -0.00049289824 -5.0452816e-19)
(0.23723183 -0.00045934206 -4.2167995e-19)
(0.1995885 -4.8876743e-05 -3.4190282e-19)
(0.26641628 -6.4388934e-05 -1.9432877e-18)
(0.26641556 -0.00015946869 9.5917484e-19)
(0.266392 -0.00024539853 5.6080577e-19)
(0.26627267 -0.00032748761 5.1372884e-19)
(0.26586988 -0.00039791743 -2.4570742e-20)
(0.26472852 -0.00045250614 1.179981e-19)
(0.26164537 -0.00047360813 -2.243013e-19)
(0.25321241 -0.00041483727 -4.2860194e-19)
(0.23271018 -0.00033459201 -4.3110763e-19)
(0.19329527 -5.0634284e-05 -3.0651296e-19)
(0.26927574 -6.0867495e-05 -3.2878368e-19)
(0.26926716 -0.00015024322 1.0350785e-18)
(0.26921481 -0.00023070437 7.9011978e-19)
(0.26901237 -0.00030702735 2.6430706e-19)
(0.26839647 -0.00037050014 -1.27586e-19)
(0.26673517 -0.00041493283 3.030384e-19)
(0.26236786 -0.00041871905 -1.3840675e-19)
(0.25136274 -0.00033835083 -2.2778881e-19)
(0.22869804 -0.00023662924 -2.3956318e-19)
(0.18902137 -3.9495665e-05 -2.8010661e-19)
(0.27197991 -5.8057504e-05 3.2495646e-18)
(0.27196007 -0.00014287128 2.0854696e-18)
(0.2718683 -0.00021894827 -8.008591e-20)
(0.2715565 -0.00029030352 2.6019833e-19)
(0.27066608 -0.0003472901 -1.6459443e-19)
(0.26833153 -0.00038068343 -1.6898718e-19)
(0.26239849 -0.00036437362 -2.5929379e-19)
(0.24902638 -0.00026852594 -2.0618465e-19)
(0.22536099 -0.00016272818 -1.5066371e-19)
(0.18616827 -2.8774678e-05 -2.9050098e-19)
(0.27455816 -5.586179e-05 1.1678743e-18)
(0.27452281 -0.00013703201 1.5197941e-18)
(0.27437848 -0.00020952005 5.0579838e-19)
(0.27392442 -0.00027640497 3.3876684e-19)
(0.27267858 -0.00032682101 1.2281481e-19)
(0.26947688 -0.00034738462 2.4484491e-19)
(0.26178467 -0.0003109272 4.7840749e-21)
(0.24657378 -0.00020816907 -2.411282e-19)
(0.22271518 -0.00011050131 -3.7427997e-19)
(0.18425839 -2.0836611e-05 -3.1064e-19)
(0.27704027 -5.4085681e-05 1.7412472e-20)
(0.27698407 -0.00013225427 1.7593765e-19)
(0.27677058 -0.00020162562 1.4370178e-18)
(0.27613171 -0.00026417277 3.2951838e-19)
(0.27442314 -0.00030720577 2.4723176e-19)
(0.27014173 -0.0003129477 2.6576919e-19)
(0.26068997 -0.00025925781 9.6231937e-20)
(0.2442983 -0.00015836437 -1.1004354e-19)
(0.22067581 -7.5408476e-05 -3.3936565e-20)
(0.182962 -1.5153441e-05 -5.180197e-20)
(0.2794434 -5.255572e-05 1.7660002e-18)
(0.27935955 -0.00012814127 1.5038781e-18)
(0.27905543 -0.00019460738 1.8194069e-19)
(0.27817576 -0.00025259217 3.1975629e-19)
(0.27586798 -0.00028673429 3.5796064e-19)
(0.27032644 -0.00027659184 -7.8024787e-20)
(0.25933499 -0.00021094009 -1.8634217e-19)
(0.24234212 -0.00011891205 -5.5979923e-20)
(0.21912382 -5.2172016e-05 -7.3010406e-20)
(0.18206601 -1.0945956e-05 -1.429881e-19)
(0.28177654 -5.116664e-05 1.6787294e-18)
(0.28165619 -0.00012441966 1.7065852e-19)
(0.2812333 -0.00018797286 -6.1717864e-19)
(0.28003901 -0.00024077433 6.1628073e-19)
(0.27697398 -0.00026417616 3.363317e-19)
(0.27008762 -0.0002388038 -5.2100027e-20)
(0.25792265 -0.00016762304 -1.6960407e-19)
(0.24073178 -8.848133e-05 -7.7985163e-20)
(0.21795022 -3.6445914e-05 -2.525362e-19)
(0.1814394 -7.6996426e-06 -2.1572669e-19)
(0.28404476 -4.9854763e-05 1.1267947e-18)
(0.28387625 -0.0001208942 4.1030387e-19)
(0.28329739 -0.00018132903 3.0994362e-20)
(0.28169344 -0.00022787698 5.4715971e-19)
(0.27771472 -0.00023897372 1.8039905e-19)
(0.26953509 -0.00020087552 -8.3852962e-20)
(0.25659136 -0.00013036522 -6.7929039e-20)
(0.23943779 -6.5171471e-05 -1.3973299e-19)
(0.21706903 -2.5325527e-05 -1.0836362e-19)
(0.18100327 -5.1222236e-06 -1.8832997e-19)
(0.28625049 -4.8572093e-05 1.4555038e-18)
(0.28601827 -0.00011740093 9.6059269e-19)
(0.28523426 -0.00017430191 1.3989314e-19)
(0.28310494 -0.00021314196 5.5315964e-19)
(0.27809439 -0.00021129083 2.6688733e-19)
(0.26879942 -0.00016439858 -5.5077588e-20)
(0.25541092 -9.9329835e-05 -1.2315184e-19)
(0.238414 -4.7156076e-05 -1.7659062e-19)
(0.21641538 -1.7079032e-05 -1.4728311e-19)
(0.18070893 -3.0435039e-06 -1.1757382e-19)
(0.28839355 -4.7270968e-05 1.2676643e-18)
(0.28807682 -0.00011377577 1.1182568e-18)
(0.28702341 -0.00016645984 3.9637679e-19)
(0.28424078 -0.00019602608 6.0937048e-19)
(0.27815551 -0.0001818856 3.6396941e-19)
(0.26799601 -0.00013079013 -1.395813e-19)
(0.25440307 -7.3937459e-05 -3.1282321e-19)
(0.23761476 -3.3004093e-05 -1.7052968e-19)
(0.21594073 -1.0716191e-05 -2.467001e-19)
(0.18052447 -1.3526228e-06 -2.2575431e-19)
(0.29047097 -4.5891427e-05 1.873296e-18)
(0.29004195 -0.00010982904 2.4788381e-18)
(0.28863779 -0.00015729293 5.5295679e-19)
(0.28508025 -0.00017633836 -8.3442373e-20)
(0.27797084 -0.00015188702 -8.3485739e-20)
(0.26720627 -0.00010094647 -1.1678299e-19)
(0.25356402 -5.3258409e-05 -2.2632307e-19)
(0.23700053 -2.1698334e-05 -2.3700794e-19)
(0.2156086 -5.6595859e-06 -2.4754964e-19)
(0.18042757 3.4065951e-08 -1.3072413e-19)
(0.29247637 -4.4351517e-05 1.0444362e-18)
(0.2918983 -0.00010531329 -1.3679391e-19)
(0.2900463 -0.00014628179 3.3383428e-19)
(0.28562471 -0.00015430611 6.6280753e-19)
(0.27762409 -0.00012253888 -1.831579e-19)
(0.26647733 -7.5147187e-05 6.8228929e-20)
(0.25287922 -3.6357064e-05 8.4662544e-20)
(0.23653861 -1.2543838e-05 -1.6820235e-19)
(0.21539111 -1.5274352e-06 -1.5300422e-19)
(0.18040205 1.2056513e-06 8.2849858e-20)
(0.294399 -4.2542638e-05 -3.3900154e-20)
(0.2936244 -9.9894504e-05 6.4734458e-19)
(0.29121908 -0.00013303015 5.112123e-19)
(0.28590172 -0.00013054508 7.8000877e-19)
(0.27719085 -9.4943697e-05 4.710086e-20)
(0.26583133 -5.3197796e-05 1.523551e-19)
(0.25233096 -2.2452244e-05 1.8985269e-19)
(0.23620235 -5.0199642e-06 -6.7424331e-20)
(0.21526451 1.897751e-06 -9.4024662e-20)
(0.18043777 2.1934654e-06 -1.6767446e-19)
(0.29622248 -4.0322308e-05 6.9150558e-19)
(0.29519257 -9.3155433e-05 1.8749097e-19)
(0.29213502 -0.00011739317 5.4923083e-19)
(0.28595987 -0.00010594376 4.8173438e-19)
(0.27672821 -6.9857628e-05 3.0302105e-19)
(0.26527516 -3.4649749e-05 2.6773629e-19)
(0.2519011 -1.0911184e-05 2.6402749e-19)
(0.23596807 1.2315281e-06 1.5204322e-19)
(0.21521693 4.705866e-06 4.0743925e-20)
(0.18052217 2.9884654e-06 -1.0427207e-19)
(0.29792334 -3.7501412e-05 7.6707416e-19)
(0.29657067 -8.4660671e-05 6.807664e-19)
(0.29278916 -9.9552666e-05 3.5080431e-19)
(0.28585701 -8.1496998e-05 1.2912595e-19)
(0.27627358 -4.7620427e-05 2.650673e-19)
(0.26480714 -1.8985015e-05 1.7441328e-20)
(0.25157194 -1.2549439e-06 -2.100622e-19)
(0.23582162 6.4197166e-06 -2.7700774e-20)
(0.21523437 6.9886001e-06 -5.8740538e-20)
(0.18064612 3.6202198e-06 -1.8300369e-19)
(0.29946982 -3.3841766e-05 -1.6597237e-18)
(0.29772603 -7.408056e-05 1.9369647e-18)
(0.29319629 -8.002031e-05 -1.3691612e-19)
(0.28564804 -5.8126723e-05 -1.7662705e-18)
(0.27584862 -2.8226154e-05 -4.6642754e-19)
(0.26442122 -5.6911764e-06 -4.0185128e-19)
(0.25132938 6.8553943e-06 -3.0583326e-19)
(0.23575038 1.0704076e-05 -3.2255201e-19)
(0.21530523 8.8444193e-06 -1.694131e-19)
(0.18080241 4.1233974e-06 -8.9955564e-20)
(0.30082185 -2.9094944e-05 -2.6059143e-19)
(0.29863175 -6.1332374e-05 1.2626896e-18)
(0.29338823 -5.956736e-05 -6.1203822e-19)
(0.28537719 -3.6522776e-05 -1.2703989e-18)
(0.27546385 -1.1417266e-05 -3.9131922e-19)
(0.26410766 5.6164575e-06 -3.0546043e-19)
(0.25116541 1.3623334e-05 -3.8744727e-19)
(0.23574182 1.4219569e-05 -2.4400908e-19)
(0.21542011 1.0354592e-05 -1.6050031e-19)
(0.18098516 4.5262424e-06 8.6814968e-20)
(0.30193375 -2.310865e-05 2.4745375e-18)
(0.29927338 -4.6684551e-05 5.283603e-19)
(0.29340603 -3.9091358e-05 -2.5256981e-19)
(0.28507548 -1.704718e-05 6.607756e-19)
(0.27512089 3.0844516e-06 1.3266972e-18)
(0.26386445 1.5141076e-05 4.0594965e-19)
(0.25106783 1.9210687e-05 -1.6777687e-20)
(0.2357854 1.7095424e-05 1.5779037e-20)
(0.2155712 1.1581143e-05 -6.0336173e-21)
(0.18118947 4.8477797e-06 -3.3825251e-22)
(0.3027611 -1.5976706e-05 -1.3839739e-18)
(0.29965287 -3.0772773e-05 -1.3540522e-18)
(0.29329055 -1.943574e-05 -3.8190627e-19)
(0.2847612 1.6844027e-07 -4.0437052e-19)
(0.27482456 1.5441608e-05 3.0278193e-19)
(0.26368338 2.3072595e-05 -7.2828327e-20)
(0.25102649 2.3803546e-05 3.6730926e-19)
(0.23587241 1.9435418e-05 2.6094781e-19)
(0.21575201 1.2565722e-05 1.5354747e-19)
(0.1814111 5.0991888e-06 1.7074578e-19)
(0.30327132 -8.1277731e-06 -6.1586814e-20)
(0.29978732 -1.448597e-05 1.6434602e-18)
(0.29307476 -1.3053341e-06 -7.7738213e-19)
(0.28444916 1.5039586e-05 -3.252903e-19)
(0.27457432 2.5804181e-05 -8.518568e-19)
(0.26355614 2.9613954e-05 -9.1250033e-20)
(0.25103262 2.7545118e-05 -1.4926331e-19)
(0.23599544 2.1311898e-05 1.0322609e-19)
(0.21595699 1.3336634e-05 1.5514362e-20)
(0.18164635 5.2876057e-06 8.8546577e-20)
(0.30345395 -2.4262558e-07 2.8794709e-19)
(0.29970261 1.1323736e-06 9.8234313e-19)
(0.29278635 1.466149e-05 -4.2019195e-19)
(0.28414891 2.752468e-05 -4.5379137e-19)
(0.27436559 3.4335524e-05 -8.3323228e-19)
(0.26347495 3.4928707e-05 -5.7299197e-19)
(0.25107851 3.0535061e-05 -2.3652311e-19)
(0.23614811 2.2773495e-05 -1.5189317e-19)
(0.21618131 1.3912464e-05 2.9888061e-20)
(0.18189186 5.4171927e-06 1.7277524e-20)
(0.30332512 6.8803085e-06 -1.7916459e-18)
(0.29943294 1.498362e-05 -1.6426492e-18)
(0.29244688 2.7992269e-05 -1.1458922e-18)
(0.28386231 3.7674571e-05 -2.6276457e-18)
(0.27419302 4.1184815e-05 -1.3730053e-18)
(0.26343257 3.9125554e-05 -1.0116838e-18)
(0.2511573 3.2833888e-05 -2.4803215e-19)
(0.23632475 2.3847412e-05 -1.4449401e-19)
(0.21642058 1.4301823e-05 4.4773885e-20)
(0.18214446 5.4888077e-06 9.6671317e-20)
(0.30293054 1.2606176e-05 2.8374333e-18)
(0.29901533 2.6251364e-05 -6.1439984e-19)
(0.29206925 3.8505987e-05 -8.9056516e-19)
(0.28358877 4.558755e-05 -4.5709544e-19)
(0.27405097 4.6449635e-05 8.8625287e-19)
(0.26342221 4.22646e-05 6.1348712e-19)
(0.25126272 3.4470119e-05 6.4987496e-20)
(0.23652015 2.4541917e-05 3.4915251e-20)
(0.21667063 1.4503725e-05 -4.9546106e-20)
(0.18240104 5.5000348e-06 -6.9071143e-20)
(0.30233169 1.6685715e-05 -4.5652044e-19)
(0.29848536 3.4599867e-05 7.5146703e-20)
(0.29166297 4.6230214e-05 -4.4214599e-19)
(0.28332655 5.1359006e-05 5.5492737e-19)
(0.27393384 5.0193928e-05 4.7183685e-19)
(0.26343756 4.4377366e-05 -1.1661182e-19)
(0.25138895 3.5451723e-05 8.7110938e-20)
(0.23672933 2.485245e-05 4.0199792e-20)
(0.21692735 1.4510699e-05 -8.366795e-20)
(0.18265831 5.4464496e-06 -5.1299914e-20)
(0.3015933 1.9182042e-05 -5.4881852e-20)
(0.29787663 4.008418e-05 2.9287918e-18)
(0.29123639 5.1327057e-05 -1.5577055e-19)
(0.28307386 5.5103083e-05 2.0927707e-19)
(0.2738365 5.2478327e-05 -8.6557007e-19)
(0.26347282 4.5487333e-05 -4.967773e-19)
(0.25153053 3.5779504e-05 -4.2952606e-19)
(0.23694748 2.4770092e-05 -1.0283689e-19)
(0.21718656 1.4313319e-05 -4.4763851e-20)
(0.18291281 5.3232425e-06 3.1170067e-20)
(0.30077412 2.0344241e-05 2.4261705e-19)
(0.29721998 4.3030323e-05 8.0779636e-19)
(0.29079791 5.4064051e-05 5.0783975e-19)
(0.28282963 5.6975995e-05 -3.9541391e-19)
(0.2737546 5.3383816e-05 -1.8466245e-19)
(0.26352281 4.5628937e-05 1.2069444e-19)
(0.25168236 3.5461575e-05 -8.5887794e-20)
(0.2371699 2.4291491e-05 -8.5965838e-20)
(0.21744399 1.390591e-05 6.6245343e-20)
(0.18316087 5.127342e-06 7.3926581e-20)
(0.29992225 2.048421e-05 -3.9904898e-18)
(0.29654264 4.3899801e-05 -3.533597e-18)
(0.29035627 5.4781668e-05 -9.282664e-19)
(0.28259384 5.7182969e-05 -1.8211725e-18)
(0.27368474 5.3025491e-05 -8.3251041e-19)
(0.26358306 4.4861542e-05 -3.823833e-19)
(0.25183982 3.4525036e-05 4.551247e-20)
(0.2373921 2.3427178e-05 -4.4698905e-20)
(0.21769544 1.3291453e-05 8.100672e-20)
(0.18339879 4.8591717e-06 1.241505e-19)
(0.29907425 1.9897072e-05 1.9196221e-18)
(0.29586748 4.3180006e-05 -7.6742985e-19)
(0.28992021 5.3855792e-05 -1.0556405e-18)
(0.2823675 5.5970055e-05 6.1643297e-19)
(0.27362455 5.1555056e-05 1.0184045e-18)
(0.26364988 4.3275451e-05 6.1569444e-19)
(0.25199878 3.3022076e-05 2.2327518e-19)
(0.23760991 2.2206304e-05 5.9861819e-20)
(0.21793688 1.24846e-05 8.9195738e-20)
(0.18362305 4.5237785e-06 5.3097853e-21)
(0.29825616 1.8826365e-05 9.4863057e-19)
(0.29521264 4.1316717e-05 5.0462482e-19)
(0.28949797 5.1661924e-05 -5.4538552e-19)
(0.28215235 5.3606323e-05 1.6388021e-19)
(0.27357255 4.9153429e-05 8.2875401e-19)
(0.26372034 4.0989501e-05 2.4257026e-19)
(0.25215571 3.1029542e-05 4.6269936e-19)
(0.23781959 2.0676756e-05 3.0775675e-19)
(0.21816472 1.1511922e-05 1.2583904e-19)
(0.18383054 4.1309367e-06 1.1808733e-20)
(0.29748543 1.7458014e-05 3.2067102e-18)
(0.29459166 3.8683761e-05 4.3522062e-18)
(0.28909669 4.8547649e-05 1.3505463e-18)
(0.28195053 5.0363403e-05 5.2498843e-19)
(0.27352798 4.6017539e-05 -1.0358924e-18)
(0.26379222 3.814257e-05 -1.9048811e-19)
(0.25230769 2.8643257e-05 -3.1299431e-19)
(0.23801801 1.8901324e-05 9.2142017e-20)
(0.21837592 1.0409627e-05 6.9723047e-20)
(0.18401875 3.6942805e-06 -2.6168342e-20)
(0.2967729 1.5927544e-05 3.0495796e-18)
(0.29401395 3.5577264e-05 2.2896926e-18)
(0.28872209 4.4816108e-05 1.4488722e-18)
(0.28176412 4.6497869e-05 7.4390948e-19)
(0.27349055 4.2345972e-05 1.4795114e-20)
(0.26386388 3.4882523e-05 -1.2223404e-19)
(0.25245241 2.5969665e-05 -4.1968925e-19)
(0.23820265 1.6951684e-05 -2.7342129e-19)
(0.21856816 9.2197717e-06 -7.5100559e-20)
(0.18418591 3.2298262e-06 1.5592863e-21)
(0.29612447 1.4330927e-05 -2.1807216e-18)
(0.29348539 3.222263e-05 -3.2427553e-18)
(0.28837833 4.071942e-05 -7.6158356e-19)
(0.2815949 4.2239105e-05 -1.1728933e-18)
(0.27346017 3.8326676e-05 -3.5573815e-19)
(0.26393414 3.1355495e-05 -1.0997997e-18)
(0.25258815 2.3117129e-05 -2.0042836e-19)
(0.23837165 1.4901913e-05 -1.8563565e-19)
(0.21873985 7.986065e-06 -1.524367e-19)
(0.18433106 2.754266e-06 4.5437983e-20)
(0.29554244 1.273473e-05 1.3814901e-18)
(0.29300903 2.8786328e-05 -4.6917984e-19)
(0.28806807 3.6459259e-05 -2.1944091e-20)
(0.28144414 3.7782932e-05 1.4037918e-18)
(0.27343686 3.4128302e-05 1.1931585e-18)
(0.26400215 2.7697315e-05 7.4408481e-19)
(0.2527137 2.0188527e-05 2.5265993e-19)
(0.23852383 1.2822836e-05 1.1190897e-19)
(0.21889019 6.7501845e-06 -6.0813276e-20)
(0.18445399 2.283426e-06 -7.6003463e-20)
(0.29502659 1.1184192e-05 -6.4461107e-19)
(0.29258573 2.5388068e-05 1.5442312e-18)
(0.28779255 3.2191489e-05 6.6206615e-19)
(0.28131251 3.3289804e-05 9.7988794e-19)
(0.2734205 2.9895176e-05 1.4732114e-18)
(0.26406732 2.4027566e-05 1.4065523e-18)
(0.25282826 1.7275724e-05 5.2384444e-19)
(0.23865858 1.0777728e-05 1.9210238e-19)
(0.21901907 5.5490053e-06 7.8450472e-20)
(0.18455519 1.8311044e-06 5.7931701e-20)
(0.29457489 9.7092114e-06 3.9408327e-18)
(0.29221469 2.2111504e-05 5.6617828e-18)
(0.28755186 2.8032546e-05 2.1800931e-18)
(0.28120011 2.8886117e-05 9.8388473e-19)
(0.27341089 2.5745346e-05 6.316965e-20)
(0.2641292 2.0446237e-05 3.9006502e-19)
(0.25293144 1.4456118e-05 1.330643e-19)
(0.23877584 8.8195579e-06 2.0420802e-19)
(0.21912699 4.4128878e-06 1.6803569e-19)
(0.18463576 1.408395e-06 9.916165e-20)
(0.29418416 8.3286343e-06 5.775401e-18)
(0.29189389 1.901287e-05 3.2084543e-18)
(0.28734516 2.4066039e-05 3.1732421e-18)
(0.2811065 2.4667219e-05 3.0165701e-18)
(0.27340761 2.1770768e-05 2.1292816e-18)
(0.26418744 1.7032401e-05 1.1693289e-18)
(0.25302315 1.1790871e-05 5.3639412e-19)
(0.238876 6.9895252e-06 3.4384758e-19)
(0.21921496 3.364813e-06 2.3832652e-19)
(0.18469723 1.0233841e-06 -4.1376374e-20)
(0.29385043 7.0533471e-06 3.2855235e-19)
(0.29162051 1.6127769e-05 -1.0498759e-19)
(0.28717087 2.0348946e-05 3.9504854e-18)
(0.2810308 2.0701346e-05 2.7851388e-18)
(0.27341012 1.803907e-05 2.0228876e-18)
(0.26424177 1.3844624e-05 1.994119e-18)
(0.25310353 9.3247362e-06 1.2306172e-18)
(0.23895978 5.3168229e-06 4.7961391e-19)
(0.21928438 2.4203019e-06 4.2597322e-19)
(0.18474147 6.8120202e-07 1.5921214e-19)
(0.29356929 5.8885192e-06 6.140434e-19)
(0.29139117 1.3476439e-05 1.8527899e-18)
(0.2870269 1.6917125e-05 2.2999677e-18)
(0.28097179 1.7033895e-05 2.4862605e-18)
(0.27341774 1.4596331e-05 1.6774685e-18)
(0.26429201 1.0922647e-05 1.8186055e-18)
(0.25317295 7.0871199e-06 1.2729958e-18)
(0.23902821 3.8194044e-06 6.7132199e-19)
(0.21933692 1.5879575e-06 4.0207526e-19)
(0.18477052 3.8431363e-07 3.0353145e-19)
(0.29333611 4.8352755e-06 2.5202398e-18)
(0.29120219 1.1067896e-05 3.0528625e-18)
(0.28691082 1.3790189e-05 2.996988e-18)
(0.280928 1.369185e-05 4.2663589e-18)
(0.27342971 1.1470608e-05 3.6414663e-18)
(0.264338 8.2901495e-06 1.8016517e-18)
(0.25323191 5.0942987e-06 1.4336711e-18)
(0.23908248 2.5057376e-06 1.0786785e-18)
(0.21937438 8.7071613e-07 6.8641523e-19)
(0.18478647 1.3309201e-07 4.917067e-19)
(0.29314622 3.8919116e-06 2.9191416e-18)
(0.29104972 8.9030542e-06 2.4511631e-18)
(0.28682 1.0975457e-05 3.061962e-18)
(0.28089783 1.0687661e-05 3.485454e-18)
(0.27344523 8.6753089e-06 3.1724705e-18)
(0.26437968 5.9575001e-06 2.1427051e-18)
(0.25328104 3.351442e-06 1.5702884e-18)
(0.23912394 1.376007e-06 1.1383091e-18)
(0.21939865 2.7199561e-07 8.6189856e-19)
(0.1847914 -6.9762686e-08 5.878012e-19)
(0.29299502 3.054638e-06 -3.9118665e-19)
(0.29092992 6.976745e-06 9.9000773e-19)
(0.28675172 8.4706224e-06 4.7185813e-19)
(0.2808796 8.0219355e-06 1.0095727e-18)
(0.27346349 6.211457e-06 2.2830044e-18)
(0.26441701 3.9236275e-06 1.9968575e-18)
(0.25332109 1.8549969e-06 1.5985039e-18)
(0.23915393 4.2960624e-07 1.1407572e-18)
(0.21941124 -2.1335981e-07 8.2911202e-19)
(0.18478766 -2.2837865e-07 4.9642707e-19)
(0.29287806 2.3183141e-06 -6.0129163e-19)
(0.29083904 5.2796807e-06 1.4247124e-18)
(0.28670329 6.2666111e-06 2.9713826e-18)
(0.28087165 5.686731e-06 1.6364601e-18)
(0.27348374 4.0712456e-06 1.5276336e-18)
(0.26445003 2.1803832e-06 2.0164239e-18)
(0.25335275 6.0027039e-07 1.8298573e-18)
(0.23917356 -3.4249974e-07 1.4743246e-18)
(0.21941462 -6.0369785e-07 1.2505151e-18)
(0.1847768 -3.5382565e-07 7.9140347e-19)
(0.29279112 1.6770543e-06 2.3487326e-18)
(0.29077345 3.8001121e-06 1.4935918e-18)
(0.28667208 4.3501004e-06 1.731981e-18)
(0.28087235 3.6687985e-06 1.7182185e-18)
(0.27350523 2.2423067e-06 1.451704e-18)
(0.26447878 7.1896881e-07 1.9192911e-18)
(0.2533766 -4.2680962e-07 1.7485655e-18)
(0.23918484 -9.6312079e-07 1.5600806e-18)
(0.21941036 -9.1274621e-07 1.1816982e-18)
(0.18476026 -4.508611e-07 9.1236666e-19)
(0.29273021 1.1245145e-06 3.8729948e-18)
(0.29072973 2.5246723e-06 3.0095239e-18)
(0.28665557 2.7049758e-06 2.1058697e-18)
(0.28088012 1.9520845e-06 3.4572873e-18)
(0.27352724 7.1175915e-07 3.0243087e-18)
(0.26450318 -4.7905459e-07 1.5293605e-18)
(0.253394 -1.2537978e-06 1.6234327e-18)
(0.23918903 -1.4514276e-06 1.6373794e-18)
(0.21939992 -1.1470557e-06 1.4243202e-18)
(0.18473944 -5.211729e-07 1.0957518e-18)
(0.29269163 6.541637e-07 1.0487478e-18)
(0.29070465 1.4393723e-06 3.5470442e-18)
(0.28665137 1.3148952e-06 2.7830321e-18)
(0.28089346 5.2099702e-07 2.7080855e-18)
(0.27354903 -5.4259468e-07 2.4180454e-18)
(0.2645239 -1.444855e-06 1.9666275e-18)
(0.25340577 -1.9047538e-06 1.8067451e-18)
(0.23918731 -1.8201676e-06 1.6834378e-18)
(0.21938464 -1.3133932e-06 1.5348991e-18)
(0.18471559 -5.6720303e-07 1.1908696e-18)
(0.29267192 2.5987308e-07 -7.9309714e-19)
(0.29069522 5.3119392e-07 9.3873854e-19)
(0.28665722 1.6258692e-07 -1.8298772e-20)
(0.28091094 -6.4995997e-07 2.2509771e-19)
(0.2735705 -1.5543179e-06 1.0857769e-18)
(0.26454118 -2.2060653e-06 1.6591193e-18)
(0.25341264 -2.3975106e-06 1.626855e-18)
(0.23918075 -2.0820896e-06 1.4139994e-18)
(0.21936573 -1.4200293e-06 1.209105e-18)
(0.18468979 -5.9215087e-07 1.0083265e-18)
(0.29266789 -6.4875013e-08 1.6448338e-18)
(0.29069861 -2.1575511e-07 1.1603587e-18)
(0.28667109 -7.7715082e-07 2.8626131e-18)
(0.28093165 -1.5936311e-06 1.4218331e-18)
(0.27359126 -2.3520659e-06 4.6038037e-19)
(0.26455524 -2.7839229e-06 1.4968964e-18)
(0.25341532 -2.7496908e-06 1.5705819e-18)
(0.23917035 -2.2509501e-06 1.5567473e-18)
(0.21934425 -1.4757378e-06 1.4779728e-18)
(0.184663 -5.9937643e-07 1.1320384e-18)
(0.29267668 -3.2813439e-07 1.4646621e-18)
(0.29071242 -8.2076883e-07 1.9051971e-18)
(0.28669133 -1.5308723e-06 2.4788143e-18)
(0.28095459 -2.3355652e-06 1.8012242e-18)
(0.27361098 -2.9581519e-06 1.7576465e-18)
(0.26456636 -3.1992673e-06 1.6288691e-18)
(0.2534145 -2.9795395e-06 1.7153054e-18)
(0.23915703 -2.3405273e-06 1.7019492e-18)
(0.21932114 -1.4890384e-06 1.4771081e-18)
(0.18463597 -5.9211344e-07 1.1139227e-18)
(0.29269577 -5.3734012e-07 1.1684468e-19)
(0.29073449 -1.3003644e-06 2.0614914e-18)
(0.2867164 -2.1188085e-06 2.0785545e-18)
(0.28097887 -2.8973732e-06 1.7792992e-18)
(0.27362943 -3.3946833e-06 1.6518867e-18)
(0.26457479 -3.4730625e-06 1.4781301e-18)
(0.25341079 -3.1048411e-06 1.7197708e-18)
(0.23914158 -2.3638517e-06 1.5016328e-18)
(0.21929719 -1.4678262e-06 1.3953453e-18)
(0.18460933 -5.7334199e-07 1.1053777e-18)
(0.29272294 -6.9843497e-07 8.3592226e-19)
(0.2907629 -1.6683161e-06 2.4047149e-18)
(0.28674492 -2.5593897e-06 2.4044008e-18)
(0.28100376 -3.3001942e-06 1.9123e-18)
(0.27364643 -3.6833983e-06 2.8900939e-19)
(0.26458082 -3.6254694e-06 1.4700783e-18)
(0.25340478 -3.1423036e-06 1.5761511e-18)
(0.2391247 -2.3329005e-06 1.5024678e-18)
(0.21927306 -1.41921e-06 1.3966645e-18)
(0.18458359 -5.4572736e-07 1.2105939e-18)
(0.29275622 -8.1705569e-07 3.6051929e-18)
(0.29079597 -1.9376892e-06 1.9255986e-18)
(0.28677571 -2.8704156e-06 3.5203407e-18)
(0.28102862 -3.5645184e-06 2.5256612e-18)
(0.27366187 -3.8451233e-06 2.2372187e-18)
(0.26458474 -3.6754923e-06 1.1717715e-18)
(0.25339699 -3.1073983e-06 1.2691915e-18)
(0.23910702 -2.2585401e-06 1.3786131e-18)
(0.21924929 -1.3494847e-06 1.2247004e-18)
(0.18455913 -5.1159245e-07 1.1368254e-18)
(0.29279385 -8.9853766e-07 3.3713288e-18)
(0.2908322 -2.1209197e-06 2.7418152e-18)
(0.28680772 -3.0689238e-06 4.2271599e-18)
(0.28105293 -3.709884e-06 2.9647799e-18)
(0.27367569 -3.8995121e-06 2.7060837e-18)
(0.26458684 -3.6408162e-06 2.2286564e-18)
(0.25338791 -3.0142802e-06 1.6729318e-18)
(0.23908903 -2.1505257e-06 1.4561921e-18)
(0.21922631 -1.2641844e-06 1.448603e-18)
(0.18453623 -4.729488e-07 1.1352478e-18)
(0.29283432 -9.4789875e-07 8.9272731e-19)
(0.29087032 -2.2297535e-06 1.3519399e-18)
(0.2868401 -3.1710227e-06 1.8885469e-19)
(0.2810763 -3.7546598e-06 1.7528028e-18)
(0.27368789 -3.8648455e-06 2.1702931e-18)
(0.26458737 -3.537657e-06 2.0562513e-18)
(0.25337793 -2.8757133e-06 1.8618537e-18)
(0.23907116 -2.0174886e-06 1.6271368e-18)
(0.21920446 -1.1680979e-06 1.451867e-18)
(0.18451507 -4.3148678e-07 1.2189275e-18)
(0.29287633 -9.6984469e-07 9.1219227e-19)
(0.29090922 -2.2752101e-06 1.9523552e-18)
(0.28687212 -3.1917819e-06 1.6703951e-18)
(0.28109839 -3.7159011e-06 1.5932439e-18)
(0.2736985 -3.7578995e-06 1.8029453e-18)
(0.26458661 -3.3806766e-06 1.7886243e-18)
(0.25336744 -2.7030441e-06 1.7261298e-18)
(0.23905376 -1.8669719e-06 1.7911557e-18)
(0.21918398 -1.0653535e-06 1.5771498e-18)
(0.18449579 -3.8864427e-07 1.3089977e-18)
(0.29291878 -9.6872671e-07 8.6403495e-19)
(0.290948 -2.2674899e-06 1.0955305e-18)
(0.28690319 -3.1450916e-06 4.8154482e-19)
(0.281119 -3.6091815e-06 8.455184e-19)
(0.27370757 -3.5937796e-06 7.2769578e-19)
(0.2645848 -3.1828448e-06 1.6976173e-18)
(0.25335673 -2.506106e-06 1.5748629e-18)
(0.23903711 -1.705368e-06 1.6568296e-18)
(0.21916505 -9.5937356e-07 1.4775979e-18)
(0.18447842 -3.4558256e-07 1.2084689e-18)
(0.29296075 -9.4856321e-07 6.0020387e-19)
(0.29098591 -2.2159847e-06 1.2692154e-18)
(0.28693287 -3.0436489e-06 2.3465005e-18)
(0.28113794 -3.4485821e-06 1.3597987e-18)
(0.2737152 -3.3859428e-06 1.8786874e-18)
(0.26458216 -2.9555035e-06 8.7165359e-19)
(0.25334606 -2.2933138e-06 1.3992802e-18)
(0.23902141 -1.5380198e-06 1.3376088e-18)
(0.21914778 -8.5296389e-07 1.1348103e-18)
(0.18446299 -3.03256e-07 1.1071771e-18)
(0.29300148 -9.1301674e-07 1.3001118e-18)
(0.29102233 -2.1292453e-06 3.6474888e-18)
(0.28696078 -2.8989336e-06 4.5433517e-18)
(0.28115514 -3.2466874e-06 2.8710173e-18)
(0.27372147 -3.1462248e-06 2.5250268e-18)
(0.26457888 -2.7084328e-06 1.9021359e-18)
(0.25333564 -2.0717501e-06 1.631005e-18)
(0.23900682 -1.3692894e-06 1.4709778e-18)
(0.21913221 -7.4832257e-07 1.5649505e-18)
(0.18444945 -2.6238961e-07 1.26565e-18)
(0.29304039 -8.6542688e-07 2.2076894e-18)
(0.29105679 -2.0150377e-06 1.5796326e-18)
(0.28698669 -2.7212845e-06 -3.9515153e-19)
(0.28117054 -3.0147014e-06 1.6933627e-18)
(0.2737265 -2.8850076e-06 1.986417e-18)
(0.26457516 -2.4500564e-06 2.3395638e-18)
(0.25332565 -1.8473824e-06 1.8394983e-18)
(0.23899343 -1.2027516e-06 1.748267e-18)
(0.21911838 -6.4717971e-07 1.5686386e-18)
(0.18443774 -2.2353765e-07 1.2432064e-18)
(0.293077 -8.0880813e-07 1.7111661e-18)
(0.29108895 -1.8803623e-06 1.5002197e-18)
(0.2870104 -2.5199547e-06 1.3497041e-18)
(0.28118415 -2.762541e-06 1.756618e-18)
(0.2737304 -2.6113554e-06 1.7471525e-18)
(0.26457114 -2.1876132e-06 1.9158938e-18)
(0.25331621 -1.6252459e-06 1.9716605e-18)
(0.23898131 -1.0413511e-06 1.9680371e-18)
(0.21910624 -5.5089427e-07 1.6843451e-18)
(0.18442778 -1.8710176e-07 1.292669e-18)
(0.29311099 -7.4585536e-07 1.6818106e-18)
(0.29111856 -1.7314675e-06 3.0386798e-18)
(0.28703184 -2.3031413e-06 1.9946215e-18)
(0.28119602 -2.4988944e-06 1.5932394e-18)
(0.2737333 -2.3330999e-06 9.6080111e-19)
(0.26456697 -1.927259e-06 1.4920091e-18)
(0.25330742 -1.4095459e-06 1.9019131e-18)
(0.23897048 -8.8749497e-07 1.8464712e-18)
(0.21909575 -4.6054115e-07 1.6787403e-18)
(0.18441946 -1.5336986e-07 1.4119557e-18)
(0.29314213 -6.7893902e-07 1.7083173e-19)
(0.29114547 -1.5738468e-06 1.952649e-18)
(0.28705096 -2.0779926e-06 3.6415953e-18)
(0.2812062 -2.2312397e-06 2.2635039e-18)
(0.27373532 -2.0568675e-06 2.4977094e-18)
(0.26456275 -1.6740968e-06 1.2670833e-18)
(0.25329934 -1.2036911e-06 1.678301e-18)
(0.23896092 -7.4308888e-07 1.4504666e-18)
(0.21908682 -3.7694751e-07 1.2498493e-18)
(0.18441266 -1.2253417e-07 1.2333675e-18)
(0.29317029 -6.1010325e-07 -4.9564289e-19)
(0.29116962 -1.4122284e-06 1.3598084e-18)
(0.28706779 -1.8505941e-06 4.710091e-18)
(0.28121479 -1.9658298e-06 3.3703728e-18)
(0.27373657 -1.7880696e-06 2.6443183e-18)
(0.26455858 -1.4321714e-06 2.6123239e-18)
(0.25329201 -1.0102797e-06 1.9432068e-18)
(0.23895261 -6.0951895e-07 1.5805612e-18)
(0.21907935 -3.0069548e-07 1.5548676e-18)
(0.18440724 -9.4718726e-08 1.2629797e-18)
(0.29319544 -5.4105839e-07 2.1765417e-18)
(0.291191 -1.2505658e-06 1.040475e-18)
(0.2870824 -1.6259598e-06 -9.2309777e-19)
(0.2812219 -1.7076931e-06 1.8382313e-18)
(0.27373717 -1.5309027e-06 2.3519247e-18)
(0.26455454 -1.2044562e-06 2.9486512e-18)
(0.25328545 -8.3107685e-07 2.0462046e-18)
(0.23894549 -4.8761681e-07 1.8903495e-18)
(0.21907324 -2.320747e-07 1.807587e-18)
(0.18440305 -6.9958289e-08 1.4181869e-18)
(0.29321759 -4.7321615e-07 1.9452719e-18)
(0.29120967 -1.0920949e-06 1.7917738e-18)
(0.28709488 -1.4081091e-06 5.073706e-19)
(0.28122766 -1.4607317e-06 1.1155746e-18)
(0.27373723 -1.2884659e-06 1.9125208e-18)
(0.2645507 -9.9298061e-07 1.9321437e-18)
(0.25327966 -6.671254e-07 1.8449116e-18)
(0.2389395 -3.7773589e-07 1.996219e-18)
(0.21906836 -1.7112374e-07 1.8721495e-18)
(0.18439997 -4.8229132e-08 1.4729182e-18)
(0.29323682 -4.077021e-07 3.0526875e-19)
(0.29122572 -9.3938504e-07 1.2549396e-18)
(0.28710536 -1.200154e-06 1.3729916e-18)
(0.28123218 -1.2278422e-06 1.0720771e-18)
(0.27373684 -1.062901e-06 2.7545548e-20)
(0.26454709 -7.9896388e-07 1.1043258e-18)
(0.25327461 -5.1885353e-07 1.8318207e-18)
(0.23893455 -2.7981753e-07 1.963823e-18)
(0.2190646 -1.1763575e-07 1.757499e-18)
(0.18439784 -2.9422672e-08 1.4311618e-18)
(0.29325326 -3.4540763e-07 3.8741453e-19)
(0.29123931 -7.9444514e-07 1.5418222e-18)
(0.28711398 -1.0044533e-06 2.9435421e-18)
(0.2812356 -1.0111117e-06 2.2490494e-18)
(0.27373609 -8.5561428e-07 1.7869138e-18)
(0.26454375 -6.2304321e-07 9.7054499e-19)
(0.25327029 -3.8628353e-07 1.6079998e-18)
(0.23893056 -1.9355014e-07 1.5931617e-18)
(0.21906182 -7.1261158e-08 1.4401201e-18)
(0.18439656 -1.3382951e-08 1.3245678e-18)