# y+ ()         
# Time          	patch           	min             	max             	average         
30000           	water_to_rock	3.28409581e+01	4.44151145e+01	4.09088313e+01
