/*--------------------------------*- C++ -*----------------------------------*\
| =========                 |                                                 |
| \\      /  F ield         | OpenFOAM: The Open Source CFD Toolbox           |
|  \\    /   O peration     | Version:  2506                                  |
|   \\  /    A nd           | Website:  www.openfoam.com                      |
|    \\/     M anipulation  |                                                 |
\*---------------------------------------------------------------------------*/
FoamFile
{
    version     2.0;
    format      ascii;
    arch        "LSB;label=32;scalar=64";
    class       volScalarField;
    location    "12000/water";
    object      T;
}
// * * * * * * * * * * * * * * * * * * * * * * * * * * * * * * * * * * * * * //

dimensions      [0 0 0 1 0 0 0];

internalField   nonuniform List<scalar> 
6000
(
333.15
333.15
333.15
333.15
333.15
333.15
333.15
333.15
333.15
333.15
333.15
333.14998
333.14989
333.14924
333.14255
333.15
333.15
333.15
333.15
333.15
333.15
333.15
333.15
333.15
333.15
333.14999
333.14994
333.14968
333.14816
333.13666
333.15
333.15
333.15
333.15
333.15
333.15
333.15
333.15
333.15
333.14999
333.14997
333.14987
333.14939
333.14688
333.13171
333.15
333.15
333.15
333.15
333.15
333.15
333.15
333.15
333.15
333.14999
333.14994
333.14976
333.14903
333.14547
333.12738
333.15
333.15
333.15
333.15
333.15
333.15
333.15
333.15
333.14999
333.14997
333.1499
333.14963
333.1486
333.14395
333.12349
333.15
333.15
333.15
333.15
333.15
333.15
333.15
333.15
333.14999
333.14996
333.14985
333.14947
333.14812
333.14236
333.11996
333.15
333.15
333.15
333.15
333.15
333.15
333.15
333.14999
333.14998
333.14994
333.14978
333.14929
333.1476
333.14072
333.1167
333.15
333.15
333.15
333.15
333.15
333.15
333.15
333.14999
333.14997
333.14991
333.1497
333.14909
333.14703
333.13905
333.11369
333.15
333.15
333.15
333.15
333.15
333.15
333.15
333.14999
333.14996
333.14987
333.14961
333.14886
333.14642
333.13735
333.11088
333.15
333.15
333.15
333.15
333.15
333.15
333.14999
333.14998
333.14994
333.14983
333.14951
333.14862
333.14578
333.13565
333.10826
333.15
333.15
333.15
333.15
333.15
333.15
333.14999
333.14998
333.14993
333.14978
333.1494
333.14835
333.14509
333.13394
333.1058
333.15
333.15
333.15
333.15
333.15
333.15
333.14999
333.14997
333.1499
333.14973
333.14928
333.14807
333.14437
333.13225
333.1035
333.15
333.15
333.15
333.15
333.15
333.14999
333.14998
333.14996
333.14988
333.14967
333.14915
333.14777
333.1436
333.13057
333.10136
333.15
333.15
333.15
333.15
333.15
333.14999
333.14998
333.14994
333.14985
333.14961
333.14901
333.14744
333.14279
333.12891
333.09936
333.15
333.15
333.15
333.15
333.15
333.14999
333.14997
333.14993
333.14982
333.14954
333.14886
333.1471
333.14194
333.12728
333.09749
333.15
333.15
333.15
333.15
333.15
333.14999
333.14997
333.14991
333.14978
333.14946
333.1487
333.14673
333.14105
333.12568
333.09577
333.15
333.15
333.15
333.15
333.14999
333.14998
333.14996
333.1499
333.14974
333.14938
333.14852
333.14633
333.14012
333.12412
333.09418
333.15
333.15
333.15
333.15
333.14999
333.14998
333.14995
333.14988
333.1497
333.14929
333.14834
333.14591
333.13914
333.12261
333.09271
333.15
333.15
333.15
333.15
333.14999
333.14998
333.14994
333.14985
333.14965
333.1492
333.14814
333.14545
333.13812
333.12115
333.09137
333.15
333.15
333.15
333.14999
333.14999
333.14997
333.14993
333.14983
333.1496
333.14909
333.14792
333.14496
333.13707
333.11975
333.09015
333.15
333.15
333.15
333.14999
333.14999
333.14997
333.14992
333.1498
333.14955
333.14899
333.14769
333.14444
333.13599
333.11841
333.08904
333.15
333.15
333.15
333.14999
333.14998
333.14996
333.1499
333.14977
333.14949
333.14887
333.14745
333.14387
333.13488
333.11713
333.08804
333.15
333.15
333.15
333.14999
333.14998
333.14995
333.14989
333.14974
333.14943
333.14874
333.14718
333.14327
333.13376
333.11591
333.08713
333.15
333.15
333.14999
333.14999
333.14998
333.14994
333.14987
333.14971
333.14936
333.14861
333.14689
333.14262
333.13263
333.11476
333.08631
333.15
333.15
333.14999
333.14999
333.14997
333.14993
333.14985
333.14967
333.14929
333.14847
333.14658
333.14194
333.1315
333.11367
333.08557
333.15
333.15
333.14999
333.14998
333.14997
333.14992
333.14983
333.14963
333.14921
333.14831
333.14624
333.14121
333.13038
333.11264
333.08491
333.15
333.15
333.14999
333.14998
333.14996
333.14991
333.14981
333.14959
333.14913
333.14814
333.14588
333.14045
333.12928
333.11167
333.0843
333.15
333.14999
333.14999
333.14998
333.14995
333.1499
333.14979
333.14954
333.14904
333.14796
333.14548
333.13965
333.1282
333.11076
333.08376
333.15
333.14999
333.14999
333.14998
333.14995
333.14989
333.14976
333.14949
333.14895
333.14777
333.14506
333.13883
333.12715
333.1099
333.08326
333.14999
333.14999
333.14999
333.14997
333.14994
333.14987
333.14973
333.14944
333.14884
333.14756
333.1446
333.13798
333.12614
333.10909
333.08281
333.14999
333.14999
333.14998
333.14997
333.14993
333.14986
333.1497
333.14938
333.14873
333.14733
333.1441
333.13712
333.12516
333.10833
333.0824
333.14999
333.14999
333.14998
333.14996
333.14992
333.14984
333.14967
333.14932
333.14861
333.14708
333.14358
333.13625
333.12421
333.10761
333.08202
333.14999
333.14999
333.14998
333.14996
333.14991
333.14982
333.14964
333.14926
333.14848
333.14681
333.14302
333.13538
333.12331
333.10693
333.08168
333.14999
333.14999
333.14998
333.14995
333.1499
333.1498
333.1496
333.14919
333.14835
333.14651
333.14243
333.13451
333.12245
333.10628
333.08136
333.14999
333.14998
333.14997
333.14995
333.14989
333.14978
333.14956
333.14911
333.14819
333.14619
333.14181
333.13365
333.12162
333.10568
333.08107
333.14999
333.14998
333.14997
333.14994
333.14988
333.14976
333.14952
333.14903
333.14803
333.14585
333.14117
333.1328
333.12082
333.1051
333.0808
333.14999
333.14998
333.14997
333.14993
333.14987
333.14973
333.14947
333.14894
333.14785
333.14548
333.14051
333.13197
333.12007
333.10456
333.08054
333.14998
333.14998
333.14996
333.14993
333.14985
333.14971
333.14942
333.14885
333.14766
333.14508
333.13984
333.13116
333.11934
333.10404
333.08031
333.14998
333.14998
333.14996
333.14992
333.14984
333.14968
333.14937
333.14875
333.14745
333.14466
333.13915
333.13036
333.11865
333.10355
333.08009
333.14998
333.14997
333.14995
333.14991
333.14982
333.14965
333.14931
333.14863
333.14722
333.14421
333.13845
333.12959
333.11798
333.10308
333.07989
333.14998
333.14997
333.14995
333.1499
333.1498
333.14962
333.14925
333.14851
333.14697
333.14374
333.13775
333.12884
333.11735
333.10263
333.0797
333.14997
333.14996
333.14994
333.14989
333.14978
333.14958
333.14918
333.14838
333.14671
333.14324
333.13705
333.12811
333.11674
333.10221
333.07952
333.14997
333.14996
333.14993
333.14988
333.14976
333.14954
333.14911
333.14824
333.14642
333.14273
333.13636
333.12741
333.11615
333.1018
333.07935
333.14997
333.14996
333.14993
333.14986
333.14974
333.1495
333.14903
333.14808
333.14611
333.14219
333.13567
333.12673
333.11559
333.10141
333.07919
333.14996
333.14995
333.14992
333.14985
333.14972
333.14946
333.14895
333.14792
333.14578
333.14164
333.13498
333.12607
333.11505
333.10104
333.07905
333.14996
333.14995
333.14991
333.14984
333.14969
333.14941
333.14886
333.14774
333.14543
333.14108
333.13431
333.12543
333.11454
333.10069
333.07891
333.14995
333.14994
333.1499
333.14982
333.14966
333.14936
333.14876
333.14754
333.14506
333.14051
333.13365
333.12481
333.11404
333.10035
333.07877
333.14995
333.14993
333.14989
333.1498
333.14963
333.1493
333.14865
333.14733
333.14466
333.13993
333.133
333.12421
333.11356
333.10002
333.07865
333.14994
333.14993
333.14988
333.14979
333.1496
333.14924
333.14853
333.1471
333.14425
333.13935
333.13237
333.12364
333.1131
333.0997
333.07853
333.14994
333.14992
333.14987
333.14977
333.14956
333.14917
333.1484
333.14685
333.14382
333.13876
333.13174
333.12308
333.11265
333.0994
333.07842
333.14993
333.14991
333.14986
333.14974
333.14953
333.1491
333.14827
333.14658
333.14338
333.13818
333.13114
333.12253
333.11222
333.09911
333.07832
333.14993
333.1499
333.14984
333.14972
333.14949
333.14903
333.14812
333.1463
333.14292
333.1376
333.13054
333.12201
333.11181
333.09883
333.07822
333.14992
333.14989
333.14983
333.1497
333.14944
333.14894
333.14796
333.146
333.14244
333.13702
333.12996
333.1215
333.1114
333.09856
333.07813
333.14991
333.14988
333.14981
333.14967
333.14939
333.14885
333.14778
333.14568
333.14196
333.13644
333.1294
333.121
333.11102
333.0983
333.07804
333.1499
333.14987
333.1498
333.14964
333.14934
333.14875
333.14759
333.14534
333.14147
333.13588
333.12885
333.12053
333.11064
333.09805
333.07796
333.14989
333.14986
333.14978
333.14961
333.14928
333.14865
333.14739
333.14499
333.14097
333.13532
333.12831
333.12006
333.11028
333.09781
333.07788
333.14988
333.14985
333.14976
333.14957
333.14922
333.14853
333.14717
333.14462
333.14047
333.13477
333.12778
333.11961
333.10993
333.09758
333.07781
333.14987
333.14983
333.14974
333.14954
333.14915
333.1484
333.14694
333.14424
333.13996
333.13422
333.12727
333.11917
333.10959
333.09735
333.07774
333.14986
333.14982
333.14971
333.1495
333.14908
333.14827
333.14669
333.14384
333.13946
333.13369
333.12677
333.11875
333.10926
333.09713
333.07767
333.14985
333.1498
333.14969
333.14945
333.149
333.14812
333.14642
333.14343
333.13895
333.13316
333.12629
333.11833
333.10894
333.09692
333.07761
333.14983
333.14978
333.14966
333.14941
333.14892
333.14796
333.14614
333.14301
333.13845
333.13265
333.12581
333.11793
333.10862
333.09671
333.07755
333.14982
333.14976
333.14963
333.14936
333.14882
333.14779
333.14584
333.14259
333.13795
333.13214
333.12535
333.11754
333.10832
333.09652
333.07749
333.1498
333.14974
333.1496
333.1493
333.14872
333.1476
333.14553
333.14215
333.13745
333.13164
333.1249
333.11716
333.10803
333.09632
333.07744
333.14978
333.14972
333.14956
333.14924
333.14861
333.1474
333.14521
333.14171
333.13695
333.13115
333.12446
333.11679
333.10774
333.09613
333.07739
333.14976
333.1497
333.14952
333.14917
333.14849
333.14719
333.14487
333.14126
333.13646
333.13067
333.12403
333.11643
333.10746
333.09595
333.07734
333.14974
333.14967
333.14948
333.1491
333.14836
333.14696
333.14452
333.14082
333.13597
333.1302
333.1236
333.11608
333.10719
333.09578
333.07729
333.14972
333.14964
333.14944
333.14902
333.14822
333.14672
333.14415
333.14036
333.13549
333.12974
333.12319
333.11573
333.10693
333.0956
333.07725
333.14969
333.14961
333.14939
333.14894
333.14807
333.14647
333.14378
333.13991
333.13502
333.12929
333.12279
333.1154
333.10667
333.09544
333.07721
333.14967
333.14957
333.14933
333.14885
333.14791
333.1462
333.1434
333.13946
333.13455
333.12885
333.1224
333.11507
333.10642
333.09527
333.07717
333.14964
333.14954
333.14927
333.14875
333.14773
333.14591
333.14301
333.13901
333.13409
333.12841
333.12202
333.11475
333.10617
333.09511
333.07713
333.1496
333.1495
333.14921
333.14864
333.14755
333.14562
333.14261
333.13855
333.13363
333.12799
333.12164
333.11444
333.10593
333.09496
333.07709
333.14957
333.14945
333.14914
333.14852
333.14735
333.14531
333.14221
333.13811
333.13318
333.12757
333.12127
333.11413
333.1057
333.09481
333.07706
333.14953
333.1494
333.14906
333.14839
333.14713
333.14499
333.1418
333.13766
333.13274
333.12716
333.12091
333.11383
333.10547
333.09466
333.07702
333.14949
333.14935
333.14898
333.14825
333.14691
333.14466
333.14139
333.13721
333.1323
333.12676
333.12056
333.11354
333.10525
333.09452
333.07699
333.14944
333.14929
333.14889
333.1481
333.14666
333.14431
333.14097
333.13677
333.13187
333.12636
333.12022
333.11326
333.10503
333.09438
333.07696
333.14939
333.14923
333.14879
333.14794
333.14641
333.14396
333.14056
333.13634
333.13145
333.12597
333.11988
333.11298
333.10482
333.09424
333.07693
333.14934
333.14916
333.14869
333.14777
333.14614
333.1436
333.14014
333.1359
333.13103
333.12559
333.11955
333.1127
333.10461
333.09411
333.0769
333.14928
333.14908
333.14857
333.14758
333.14586
333.14324
333.13972
333.13547
333.13062
333.12522
333.11922
333.11243
333.1044
333.09398
333.07687
333.14921
333.149
333.14845
333.14738
333.14557
333.14286
333.1393
333.13505
333.13022
333.12485
333.1189
333.11217
333.1042
333.09385
333.07684
333.14914
333.1489
333.14831
333.14717
333.14527
333.14248
333.13889
333.13463
333.12982
333.12449
333.11859
333.11191
333.10401
333.09372
333.07682
333.14906
333.1488
333.14816
333.14695
333.14495
333.1421
333.13847
333.13421
333.12943
333.12414
333.11828
333.11166
333.10381
333.0936
333.07679
333.14897
333.14869
333.148
333.14671
333.14463
333.14171
333.13805
333.1338
333.12904
333.12379
333.11798
333.11141
333.10363
333.09348
333.07676
333.14887
333.14858
333.14783
333.14646
333.14429
333.14132
333.13764
333.13339
333.12866
333.12345
333.11768
333.11117
333.10344
333.09336
333.07674
333.14877
333.14845
333.14764
333.14619
333.14395
333.14092
333.13723
333.13299
333.12828
333.12311
333.11739
333.11093
333.10326
333.09324
333.07671
333.14865
333.1483
333.14744
333.14592
333.1436
333.14053
333.13682
333.13259
333.12791
333.12278
333.11711
333.1107
333.10308
333.09313
333.07669
333.14852
333.14815
333.14723
333.14563
333.14324
333.14013
333.13641
333.1322
333.12755
333.12245
333.11683
333.11047
333.1029
333.09301
333.07666
333.14838
333.14798
333.147
333.14532
333.14288
333.13973
333.13601
333.13181
333.12719
333.12213
333.11655
333.11024
333.10273
333.0929
333.07664
333.14823
333.1478
333.14676
333.14501
333.14251
333.13933
333.13561
333.13142
333.12683
333.12182
333.11628
333.11002
333.10256
333.09279
333.07661
333.14806
333.1476
333.14651
333.14469
333.14213
333.13893
333.13521
333.13104
333.12648
333.12151
333.11602
333.1098
333.10239
333.09268
333.07659
333.14788
333.14739
333.14624
333.14435
333.14175
333.13853
333.13481
333.13067
333.12614
333.1212
333.11575
333.10958
333.10223
333.09258
333.07656
333.14768
333.14716
333.14595
333.14401
333.14136
333.13813
333.13442
333.1303
333.1258
333.1209
333.11549
333.10937
333.10206
333.09247
333.07654
333.14747
333.14692
333.14565
333.14365
333.14098
333.13773
333.13403
333.12993
333.12547
333.1206
333.11524
333.10916
333.1019
333.09236
333.07651
333.14723
333.14666
333.14534
333.14329
333.14059
333.13733
333.13364
333.12957
333.12514
333.12031
333.11499
333.10895
333.10174
333.09226
333.07649
333.14698
333.14638
333.14502
333.14292
333.14019
333.13694
333.13325
333.12921
333.12481
333.12002
333.11474
333.10875
333.10159
333.09216
333.07646
333.14671
333.14608
333.14468
333.14255
333.1398
333.13654
333.13287
333.12885
333.12449
333.11974
333.1145
333.10855
333.10143
333.09206
333.07644
333.14642
333.14577
333.14433
333.14216
333.1394
333.13614
333.1325
333.1285
333.12417
333.11946
333.11426
333.10835
333.10128
333.09196
333.07641
333.14611
333.14544
333.14396
333.14178
333.139
333.13575
333.13212
333.12816
333.12386
333.11918
333.11402
333.10815
333.10113
333.09186
333.07638
333.14578
333.14509
333.14359
333.14138
333.1386
333.13536
333.13175
333.12781
333.12355
333.11891
333.11378
333.10796
333.10098
333.09176
333.07635
333.14544
333.14473
333.1432
333.14098
333.13819
333.13497
333.13138
333.12747
333.12324
333.11864
333.11355
333.10777
333.10083
333.09166
333.07633
333.14507
333.14435
333.14281
333.14057
333.13779
333.13458
333.13102
333.12714
333.12294
333.11837
333.11332
333.10758
333.10068
333.09156
333.0763
333.14469
333.14396
333.1424
333.14016
333.13739
333.13419
333.13065
333.1268
333.12264
333.11811
333.1131
333.10739
333.10054
333.09147
333.07627
333.14429
333.14355
333.14199
333.13975
333.13698
333.13381
333.13029
333.12647
333.12234
333.11785
333.11287
333.10721
333.1004
333.09137
333.07624
333.14387
333.14313
333.14157
333.13933
333.13658
333.13342
333.12994
333.12615
333.12205
333.11759
333.11265
333.10702
333.10025
333.09127
333.07621
333.14344
333.1427
333.14114
333.13891
333.13617
333.13304
333.12958
333.12583
333.12176
333.11733
333.11243
333.10684
333.10011
333.09118
333.07618
333.14299
333.14226
333.1407
333.13849
333.13577
333.13266
333.12923
333.1255
333.12147
333.11708
333.11222
333.10666
333.09997
333.09108
333.07614
333.14253
333.1418
333.14025
333.13806
333.13536
333.13228
333.12888
333.12519
333.12119
333.11683
333.112
333.10648
333.09983
333.09099
333.07611
333.14206
333.14134
333.13981
333.13763
333.13496
333.1319
333.12853
333.12487
333.12091
333.11658
333.11179
333.10631
333.09969
333.09089
333.07608
333.14158
333.14087
333.13935
333.1372
333.13455
333.13153
333.12819
333.12456
333.12063
333.11634
333.11158
333.10613
333.09955
333.0908
333.07604
333.1411
333.14039
333.13889
333.13676
333.13415
333.13115
333.12785
333.12425
333.12035
333.11609
333.11137
333.10596
333.09942
333.0907
333.07601
333.1406
333.13991
333.13843
333.13633
333.13374
333.13078
333.1275
333.12394
333.12007
333.11585
333.11116
333.10578
333.09928
333.09061
333.07597
333.1401
333.13942
333.13796
333.13589
333.13334
333.13041
333.12716
333.12363
333.1198
333.11561
333.11095
333.10561
333.09915
333.09051
333.07593
333.1396
333.13893
333.13749
333.13545
333.13293
333.13004
333.12683
333.12333
333.11953
333.11537
333.11075
333.10544
333.09901
333.09042
333.07589
333.13909
333.13843
333.13702
333.13501
333.13253
333.12967
333.12649
333.12303
333.11926
333.11514
333.11055
333.10527
333.09887
333.09032
333.07585
333.13858
333.13793
333.13655
333.13457
333.13212
333.1293
333.12616
333.12273
333.11899
333.1149
333.11034
333.1051
333.09874
333.09023
333.07581
333.13807
333.13743
333.13608
333.13413
333.13172
333.12893
333.12582
333.12243
333.11873
333.11467
333.11014
333.10493
333.09861
333.09013
333.07577
333.13755
333.13693
333.1356
333.13369
333.13132
333.12856
333.12549
333.12213
333.11846
333.11444
333.10994
333.10477
333.09847
333.09003
333.07572
333.13704
333.13643
333.13513
333.13325
333.13091
333.1282
333.12516
333.12184
333.1182
333.11421
333.10974
333.1046
333.09834
333.08994
333.07568
333.13653
333.13593
333.13466
333.13282
333.13051
333.12783
333.12483
333.12154
333.11794
333.11398
333.10955
333.10443
333.0982
333.08984
333.07563
333.13602
333.13543
333.13419
333.13238
333.13011
333.12747
333.12451
333.12125
333.11768
333.11375
333.10935
333.10427
333.09807
333.08974
333.07558
333.13551
333.13494
333.13371
333.13194
333.12971
333.12711
333.12418
333.12096
333.11742
333.11352
333.10915
333.1041
333.09793
333.08964
333.07553
333.135
333.13444
333.13325
333.13151
333.12932
333.12675
333.12386
333.12067
333.11716
333.11329
333.10896
333.10393
333.0978
333.08954
333.07548
333.13449
333.13395
333.13278
333.13107
333.12892
333.12639
333.12353
333.12038
333.1169
333.11307
333.10876
333.10377
333.09766
333.08944
333.07543
333.13399
333.13346
333.13232
333.13064
333.12852
333.12603
333.12321
333.12009
333.11665
333.11284
333.10856
333.1036
333.09753
333.08934
333.07537
333.1335
333.13298
333.13185
333.13021
333.12813
333.12567
333.12289
333.1198
333.11639
333.11262
333.10837
333.10344
333.09739
333.08924
333.07531
333.133
333.13249
333.1314
333.12979
333.12774
333.12532
333.12257
333.11951
333.11614
333.11239
333.10817
333.10327
333.09726
333.08913
333.07526
333.13251
333.13201
333.13094
333.12936
333.12735
333.12497
333.12225
333.11923
333.11589
333.11217
333.10798
333.1031
333.09712
333.08903
333.0752
333.13203
333.13154
333.13049
333.12894
333.12696
333.12461
333.12194
333.11894
333.11563
333.11195
333.10779
333.10294
333.09698
333.08892
333.07513
333.13154
333.13107
333.13004
333.12852
333.12658
333.12426
333.12162
333.11866
333.11538
333.11173
333.10759
333.10277
333.09685
333.08882
333.07507
333.13107
333.1306
333.12959
333.12811
333.1262
333.12392
333.1213
333.11838
333.11513
333.1115
333.1074
333.10261
333.09671
333.08871
333.075
333.1306
333.13014
333.12915
333.1277
333.12582
333.12357
333.12099
333.1181
333.11488
333.11128
333.1072
333.10244
333.09657
333.0886
333.07493
333.13013
333.12968
333.12872
333.12729
333.12544
333.12323
333.12068
333.11782
333.11463
333.11106
333.10701
333.10227
333.09643
333.08849
333.07486
333.12967
333.12923
333.12828
333.12688
333.12506
333.12288
333.12037
333.11754
333.11438
333.11084
333.10682
333.1021
333.09629
333.08838
333.07479
333.12921
333.12878
333.12786
333.12648
333.12469
333.12254
333.12006
333.11726
333.11413
333.11062
333.10662
333.10194
333.09615
333.08826
333.07472
333.12876
333.12834
333.12743
333.12608
333.12432
333.1222
333.11975
333.11698
333.11388
333.1104
333.10643
333.10177
333.096
333.08815
333.07464
333.12831
333.1279
333.12701
333.12568
333.12395
333.12187
333.11945
333.11671
333.11363
333.11018
333.10623
333.1016
333.09586
333.08803
333.07456
333.12787
333.12747
333.12659
333.12529
333.12359
333.12153
333.11914
333.11643
333.11339
333.10996
333.10604
333.10143
333.09572
333.08792
333.07448
333.12743
333.12704
333.12618
333.1249
333.12323
333.1212
333.11884
333.11616
333.11314
333.10974
333.10584
333.10126
333.09557
333.0878
333.07439
333.127
333.12662
333.12577
333.12451
333.12287
333.12087
333.11854
333.11588
333.11289
333.10952
333.10565
333.10109
333.09542
333.08768
333.07431
333.12658
333.1262
333.12537
333.12413
333.12251
333.12054
333.11824
333.11561
333.11265
333.1093
333.10545
333.10092
333.09527
333.08755
333.07422
333.12616
333.12578
333.12497
333.12375
333.12216
333.12021
333.11794
333.11534
333.1124
333.10908
333.10526
333.10074
333.09513
333.08743
333.07413
333.12574
333.12538
333.12458
333.12338
333.12181
333.11989
333.11764
333.11507
333.11216
333.10886
333.10506
333.10057
333.09498
333.0873
333.07404
333.12533
333.12497
333.12419
333.12301
333.12146
333.11957
333.11735
333.1148
333.11191
333.10864
333.10486
333.1004
333.09482
333.08718
333.07394
333.12492
333.12457
333.1238
333.12264
333.12112
333.11925
333.11705
333.11453
333.11167
333.10842
333.10467
333.10022
333.09467
333.08705
333.07384
333.12452
333.12418
333.12342
333.12228
333.12078
333.11893
333.11676
333.11427
333.11143
333.1082
333.10447
333.10005
333.09452
333.08692
333.07374
333.12413
333.12379
333.12304
333.12192
333.12044
333.11862
333.11647
333.114
333.11119
333.10798
333.10427
333.09987
333.09436
333.08679
333.07364
333.12373
333.1234
333.12267
333.12156
333.1201
333.1183
333.11618
333.11374
333.11095
333.10776
333.10407
333.09969
333.09421
333.08665
333.07354
333.12335
333.12302
333.1223
333.12121
333.11977
333.11799
333.1159
333.11347
333.1107
333.10754
333.10388
333.09952
333.09405
333.08652
333.07343
333.12297
333.12264
333.12193
333.12086
333.11944
333.11769
333.11561
333.11321
333.11046
333.10732
333.10368
333.09934
333.09389
333.08638
333.07332
333.12259
333.12227
333.12157
333.12051
333.11911
333.11738
333.11533
333.11295
333.11022
333.1071
333.10348
333.09916
333.09373
333.08624
333.07321
333.12222
333.1219
333.12121
333.12017
333.11879
333.11708
333.11504
333.11269
333.10998
333.10688
333.10328
333.09898
333.09357
333.0861
333.0731
333.12185
333.12154
333.12086
333.11983
333.11847
333.11677
333.11476
333.11243
333.10975
333.10667
333.10308
333.0988
333.09341
333.08596
333.07298
333.12148
333.12118
333.12051
333.1195
333.11815
333.11648
333.11448
333.11217
333.10951
333.10645
333.10288
333.09862
333.09325
333.08581
333.07286
333.12112
333.12082
333.12016
333.11916
333.11783
333.11618
333.11421
333.11191
333.10927
333.10623
333.10268
333.09843
333.09308
333.08567
333.07274
333.12077
333.12047
333.11982
333.11883
333.11752
333.11588
333.11393
333.11166
333.10903
333.10601
333.10248
333.09825
333.09292
333.08552
333.07262
333.12042
333.12012
333.11948
333.11851
333.11721
333.11559
333.11366
333.1114
333.1088
333.10579
333.10228
333.09807
333.09275
333.08537
333.07249
333.12007
333.11978
333.11915
333.11818
333.1169
333.1153
333.11338
333.11115
333.10856
333.10557
333.10208
333.09788
333.09258
333.08522
333.07237
333.11972
333.11944
333.11881
333.11786
333.11659
333.11501
333.11311
333.11089
333.10833
333.10536
333.10188
333.0977
333.09241
333.08507
333.07224
333.11938
333.1191
333.11849
333.11755
333.11629
333.11472
333.11284
333.11064
333.10809
333.10514
333.10168
333.09751
333.09224
333.08492
333.07211
333.11905
333.11877
333.11816
333.11723
333.11599
333.11444
333.11258
333.11039
333.10786
333.10492
333.10148
333.09733
333.09207
333.08476
333.07197
333.11871
333.11844
333.11784
333.11692
333.11569
333.11416
333.11231
333.11014
333.10762
333.1047
333.10127
333.09714
333.0919
333.08461
333.07184
333.11839
333.11812
333.11752
333.11661
333.1154
333.11388
333.11204
333.10989
333.10739
333.10449
333.10107
333.09695
333.09173
333.08445
333.0717
333.11806
333.11779
333.1172
333.11631
333.1151
333.1136
333.11178
333.10964
333.10716
333.10427
333.10087
333.09676
333.09155
333.08429
333.07156
333.11774
333.11747
333.11689
333.11601
333.11481
333.11332
333.11152
333.1094
333.10693
333.10405
333.10067
333.09657
333.09138
333.08413
333.07142
333.11742
333.11716
333.11658
333.11571
333.11453
333.11304
333.11126
333.10915
333.10669
333.10383
333.10046
333.09639
333.0912
333.08397
333.07128
333.1171
333.11685
333.11628
333.11541
333.11424
333.11277
333.111
333.1089
333.10646
333.10362
333.10026
333.09619
333.09102
333.08381
333.07114
333.11679
333.11654
333.11597
333.11511
333.11396
333.1125
333.11074
333.10866
333.10623
333.1034
333.10006
333.096
333.09085
333.08364
333.07099
333.11648
333.11623
333.11567
333.11482
333.11367
333.11223
333.11048
333.10842
333.106
333.10318
333.09985
333.09581
333.09067
333.08348
333.07084
333.11618
333.11593
333.11537
333.11453
333.11339
333.11196
333.11023
333.10817
333.10577
333.10297
333.09965
333.09562
333.09049
333.08331
333.0707
333.11587
333.11563
333.11508
333.11424
333.11312
333.1117
333.10997
333.10793
333.10554
333.10275
333.09944
333.09543
333.09031
333.08314
333.07054
333.11557
333.11533
333.11479
333.11396
333.11284
333.11143
333.10972
333.10769
333.10532
333.10253
333.09924
333.09523
333.09012
333.08297
333.07039
333.11528
333.11503
333.1145
333.11368
333.11257
333.11117
333.10947
333.10745
333.10509
333.10232
333.09903
333.09504
333.08994
333.0828
333.07024
333.11498
333.11474
333.11421
333.11339
333.1123
333.11091
333.10922
333.10721
333.10486
333.1021
333.09883
333.09485
333.08976
333.08263
333.07008
333.11469
333.11445
333.11392
333.11312
333.11203
333.11065
333.10897
333.10697
333.10463
333.10188
333.09862
333.09465
333.08957
333.08246
333.06993
333.1144
333.11416
333.11364
333.11284
333.11176
333.11039
333.10872
333.10674
333.10441
333.10167
333.09842
333.09446
333.08939
333.08229
333.06977
333.11411
333.11388
333.11336
333.11257
333.11149
333.11013
333.10847
333.1065
333.10418
333.10145
333.09821
333.09426
333.0892
333.08211
333.06961
333.11383
333.1136
333.11308
333.11229
333.11123
333.10987
333.10823
333.10626
333.10395
333.10124
333.098
333.09406
333.08902
333.08194
333.06945
333.11355
333.11332
333.11281
333.11202
333.11096
333.10962
333.10798
333.10603
333.10373
333.10102
333.0978
333.09387
333.08883
333.08176
333.06929
333.11327
333.11304
333.11253
333.11176
333.1107
333.10937
333.10774
333.10579
333.1035
333.1008
333.09759
333.09367
333.08864
333.08158
333.06912
333.11299
333.11276
333.11226
333.11149
333.11044
333.10912
333.10749
333.10556
333.10328
333.10059
333.09739
333.09347
333.08845
333.0814
333.06896
333.11272
333.11249
333.11199
333.11122
333.11018
333.10887
333.10725
333.10533
333.10305
333.10037
333.09718
333.09327
333.08826
333.08122
333.06879
333.11244
333.11222
333.11172
333.11096
333.10993
333.10862
333.10701
333.10509
333.10283
333.10016
333.09697
333.09307
333.08807
333.08104
333.06863
333.11217
333.11195
333.11146
333.1107
333.10967
333.10837
333.10677
333.10486
333.10261
333.09994
333.09676
333.09288
333.08788
333.08086
333.06846
333.1119
333.11168
333.11119
333.11044
333.10942
333.10812
333.10653
333.10463
333.10238
333.09973
333.09656
333.09268
333.08769
333.08068
333.06829
333.11164
333.11142
333.11093
333.11018
333.10917
333.10788
333.10629
333.1044
333.10216
333.09951
333.09635
333.09248
333.0875
333.0805
333.06812
333.11137
333.11115
333.11067
333.10993
333.10892
333.10763
333.10606
333.10417
333.10194
333.0993
333.09614
333.09228
333.08731
333.08032
333.06795
333.11111
333.11089
333.11041
333.10967
333.10867
333.10739
333.10582
333.10394
333.10172
333.09908
333.09593
333.09208
333.08712
333.08013
333.06778
333.11085
333.11063
333.11015
333.10942
333.10842
333.10715
333.10558
333.10371
333.10149
333.09887
333.09573
333.09188
333.08692
333.07995
333.0676
333.11059
333.11037
333.1099
333.10917
333.10817
333.1069
333.10535
333.10348
333.10127
333.09865
333.09552
333.09167
333.08673
333.07976
333.06743
333.11033
333.11012
333.10964
333.10892
333.10793
333.10666
333.10512
333.10326
333.10105
333.09844
333.09531
333.09147
333.08654
333.07958
333.06725
333.11007
333.10986
333.10939
333.10867
333.10768
333.10643
333.10488
333.10303
333.10083
333.09822
333.0951
333.09127
333.08634
333.07939
333.06708
333.10982
333.10961
333.10914
333.10842
333.10744
333.10619
333.10465
333.1028
333.10061
333.09801
333.09489
333.09107
333.08615
333.0792
333.0669
333.10956
333.10935
333.10889
333.10817
333.1072
333.10595
333.10442
333.10258
333.10039
333.09779
333.09469
333.09087
333.08595
333.07901
333.06672
333.10931
333.1091
333.10864
333.10793
333.10695
333.10571
333.10419
333.10235
333.10017
333.09758
333.09448
333.09067
333.08576
333.07883
333.06654
333.10906
333.10885
333.10839
333.10768
333.10671
333.10548
333.10396
333.10213
333.09995
333.09737
333.09427
333.09046
333.08556
333.07864
333.06636
333.10881
333.10861
333.10815
333.10744
333.10648
333.10524
333.10373
333.1019
333.09973
333.09715
333.09406
333.09026
333.08536
333.07845
333.06618
333.10857
333.10836
333.1079
333.1072
333.10624
333.10501
333.1035
333.10168
333.09951
333.09694
333.09385
333.09006
333.08517
333.07826
333.066
333.10832
333.10811
333.10766
333.10696
333.106
333.10478
333.10327
333.10145
333.09929
333.09672
333.09364
333.08985
333.08497
333.07807
333.06582
333.10807
333.10787
333.10742
333.10672
333.10576
333.10454
333.10304
333.10123
333.09907
333.09651
333.09343
333.08965
333.08477
333.07788
333.06564
333.10783
333.10763
333.10718
333.10648
333.10553
333.10431
333.10281
333.10101
333.09885
333.0963
333.09322
333.08945