/*--------------------------------*- C++ -*----------------------------------*\
| =========                 |                                                 |
| \\      /  F ield         | OpenFOAM: The Open Source CFD Toolbox           |
|  \\    /   O peration     | Version:  2506                                  |
|   \\  /    A nd           | Website:  www.openfoam.com                      |
|    \\/     M anipulation  |                                                 |
\*---------------------------------------------------------------------------*/
FoamFile
{
    version     2.0;
    format      ascii;
    arch        "LSB;label=32;scalar=64";
    class       volVectorField;
    location    "12000/water";
    object      U;
}
// * * * * * * * * * * * * * * * * * * * * * * * * * * * * * * * * * * * * * //

dimensions      [0 1 -1 0 0 0 0];

internalField   nonuniform List<vector> 
6000
(
(0.25028648 -3.4193492e-05 1.4949579e-18)
(0.25028875 -7.4648812e-05 -5.886235e-18)
(0.25029344 -0.00011804414 -1.1209952e-18)
(0.25030059 -0.00016540046 -1.5775878e-19)
(0.25031046 -0.00021487336 -3.4016224e-19)
(0.25032332 -0.00026685039 -5.9013184e-19)
(0.25033948 -0.00032192175 -4.6623404e-19)
(0.25035939 -0.00038078672 -2.5680181e-19)
(0.25038356 -0.00044434477 8.1504592e-20)
(0.25041254 -0.00051362452 6.7825802e-20)
(0.25044587 -0.0005867756 -3.8234205e-21)
(0.25047643 -0.00065822056 2.1016899e-19)
(0.25046276 -0.00078466513 -1.3276854e-19)
(0.25013031 -0.0015987837 -2.5524894e-19)
(0.24584996 0.0019968142 -1.0156783e-19)
(0.25104035 -3.7261304e-05 2.0715418e-18)
(0.25104514 -8.989598e-05 -3.3306115e-18)
(0.2510558 -0.00014352114 -8.7733718e-19)
(0.25107219 -0.00020025424 -1.5435945e-19)
(0.2510947 -0.0002571822 4.2708947e-19)
(0.25112368 -0.00031440571 -8.2680415e-19)
(0.25115965 -0.00037188242 -6.1818134e-19)
(0.25120324 -0.00042947839 -1.8129259e-20)
(0.2512551 -0.00048709454 9.6121217e-20)
(0.25131538 -0.00054561245 8.4445042e-20)
(0.25138039 -0.00060405492 -1.7103685e-19)
(0.25142587 -0.00063755821 1.8707928e-19)
(0.25133175 -0.00059164843 -6.4622645e-20)
(0.25037931 -0.0014370973 -2.841761e-19)
(0.24194277 0.00099520264 -1.4448158e-19)
(0.25195051 -3.6589029e-05 -3.4059565e-18)
(0.25195563 -9.0250613e-05 2.5161392e-18)
(0.25196731 -0.00014313025 1.2748494e-18)
(0.25198528 -0.00019912655 -7.3373665e-19)
(0.25200977 -0.00025508716 6.6443316e-20)
(0.25204101 -0.0003112558 -1.1493766e-18)
(0.25207932 -0.00036762123 -1.0317689e-18)
(0.25212505 -0.00042413945 -4.4703407e-19)
(0.25217823 -0.00048056787 -3.0779257e-19)
(0.25223708 -0.0005377572 -1.7644274e-19)
(0.25229114 -0.00060007155 -7.3673702e-19)
(0.25229033 -0.00065419843 -3.0498364e-19)
(0.25200573 -0.00054460881 -2.9993806e-19)
(0.25014357 -0.0012195308 -3.0929247e-19)
(0.23758495 0.00043820543 -2.2326669e-19)
(0.25283353 -3.7446604e-05 -6.9069565e-19)
(0.25283867 -9.3611088e-05 -2.0837619e-18)
(0.25285018 -0.00014906892 5.9115064e-19)
(0.25286783 -0.00020791578 -1.4683536e-19)
(0.25289182 -0.00026672308 -2.2652738e-19)
(0.25292238 -0.00032582165 -7.4561819e-19)
(0.25295982 -0.00038519269 -6.4159018e-19)
(0.25300432 -0.00044485276 -5.2149198e-19)
(0.25305525 -0.00050441426 -2.1961529e-19)
(0.25310809 -0.00056332944 6.4446825e-20)
(0.25314261 -0.00062607506 -4.7529169e-19)
(0.25307635 -0.00069910336 -1.9857109e-19)
(0.25255493 -0.0005845712 -3.8121341e-19)
(0.24963188 -0.001063787 -2.8621493e-19)
(0.23320285 0.0001058672 -1.8704386e-19)
(0.25372643 -3.8342944e-05 1.0344003e-17)
(0.2537317 -9.6368692e-05 1.0382276e-18)
(0.25374347 -0.00015372841 1.1183905e-18)
(0.25376156 -0.00021453144 1.3515238e-18)
(0.25378616 -0.00027516439 1.5400373e-19)
(0.25381749 -0.00033599427 5.718633e-19)
(0.25385581 -0.00039694563 3.2088833e-19)
(0.25390101 -0.00045805575 3.4707437e-19)
(0.25395133 -0.00051907431 4.0071053e-20)
(0.25399821 -0.00057855465 1.993881e-19)
(0.25400834 -0.00063773998 1.2678176e-19)
(0.25386022 -0.0007177221 1.4370034e-19)
(0.25305737 -0.00062191547 -6.4380634e-20)
(0.24895451 -0.00093835859 -1.1414173e-19)
(0.22897365 -8.3792338e-05 -2.9577723e-20)
(0.25464474 -3.866162e-05 1.9736368e-18)
(0.25465014 -9.7320119e-05 -8.5451999e-19)
(0.2546622 -0.00015516462 6.8695702e-19)
(0.25468073 -0.00021648309 1.0461463e-18)
(0.2547059 -0.00027758564 -4.437923e-19)
(0.25473792 -0.000338881 6.6569254e-19)
(0.25477689 -0.00040025681 3.9199914e-19)
(0.25482222 -0.000461728 1.9987392e-19)
(0.25487049 -0.00052322808 3.3169347e-19)
(0.2549078 -0.000583188 5.1402819e-19)
(0.25488519 -0.00063896641 2.2159444e-19)
(0.25463685 -0.00071821651 -5.1100688e-20)
(0.25350729 -0.0006469875 -3.615092e-21)
(0.248129 -0.00083894719 -8.6045844e-20)
(0.2249409 -0.00018589273 -6.2694969e-20)
(0.25557031 -3.8595293e-05 -3.9403251e-18)
(0.25557581 -9.7309346e-05 -3.4015656e-18)
(0.25558805 -0.00015511983 -1.3253316e-18)
(0.25560682 -0.00021642526 4.6298995e-19)
(0.2556323 -0.00027749359 -1.1496596e-18)
(0.25566463 -0.00033876345 3.4622464e-19)
(0.25570371 -0.00040009734 2.975484e-19)
(0.25574825 -0.00046144626 -7.7948619e-20)
(0.25579256 -0.00052279714 4.470233e-19)
(0.25581623 -0.0005828814 2.3279546e-19)
(0.25575267 -0.00063600478 2.9810471e-19)
(0.25538743 -0.00071016267 -1.5536815e-19)
(0.25388915 -0.00066107344 8.3683736e-20)
(0.24716598 -0.00076077854 -1.5632322e-20)
(0.22112141 -0.00023459296 -1.3229905e-19)
(0.25649134 -3.8297106e-05 1.9832317e-18)
(0.25649692 -9.6712128e-05 1.507907e-18)
(0.25650928 -0.00015419069 7.4496298e-19)
(0.25652824 -0.00021515485 8.9853647e-19)
(0.25655393 -0.00027585718 -5.0663357e-19)
(0.25658641 -0.0003367553 -1.7420166e-20)
(0.25662528 -0.00039769653 1.1107295e-19)
(0.2566683 -0.00045856441 -2.8924515e-20)
(0.25670691 -0.00051927104 -1.2809401e-20)
(0.25671305 -0.00057893859 -3.807303e-19)
(0.25660095 -0.00063003278 5.2287949e-20)
(0.25610359 -0.00069722485 -6.6388808e-20)
(0.25419746 -0.0006651972 -5.1791096e-20)
(0.24608527 -0.00069788903 1.2359606e-20)
(0.21752738 -0.00025081848 -3.2830256e-20)
(0.25740382 -3.7852859e-05 -2.22054e-18)
(0.25740947 -9.5689494e-05 -2.9327219e-19)
(0.25742193 -0.00015257331 5.1056782e-19)
(0.25744104 -0.00021291358 1.0077723e-18)
(0.25746687 -0.00027297291 1.0667709e-18)
(0.25749936 -0.0003332193 1.6542085e-19)
(0.2575377 -0.00039348924 9.5304464e-20)
(0.2575784 -0.00045361302 1.3793856e-19)
(0.25760945 -0.00051335259 -4.2451196e-20)
(0.25759421 -0.00057212214 2.398843e-19)
(0.25742635 -0.00062159363 2.7616619e-21)
(0.25678237 -0.00068144217 4.3020671e-20)
(0.25443121 -0.00066103685 -1.2736851e-20)
(0.24490935 -0.00064561644 6.6109752e-21)
(0.21416513 -0.00024776584 1.0016827e-19)
(0.25830515 -3.7308638e-05 3.1765571e-18)
(0.25831084 -9.4372769e-05 5.6933561e-19)
(0.25832339 -0.00015047649 -1.566793e-19)
(0.2583426 -0.00020999612 2.3291679e-19)
(0.25836849 -0.00026922145 -1.3551291e-20)
(0.25840083 -0.00032862339 2.356554e-19)
(0.25843826 -0.00038802595 3.3877703e-19)
(0.25847573 -0.00044722018 2.8834046e-19)
(0.25849727 -0.00050579279 1.4582916e-19)
(0.25845683 -0.00056328987 2.4468191e-20)
(0.25822634 -0.00061131676 1.7930521e-19)
(0.25742154 -0.00066417743 2.8381625e-19)
(0.2545896 -0.00065044234 1.4932791e-19)
(0.24365871 -0.00060064453 6.3653361e-21)
(0.21103455 -0.00023378679 1.4989966e-19)
(0.259193 -3.6693881e-05 7.7502764e-18)
(0.25919873 -9.285746e-05 6.0352587e-18)
(0.25921134 -0.00014806165 -1.0566291e-18)
(0.25923061 -0.00020663289 5.6751399e-19)
(0.25925648 -0.0002648995 7.3861078e-19)
(0.25928848 -0.00032332972 2.305267e-19)
(0.25932457 -0.00038173097 7.2396341e-19)
(0.25935785 -0.00043986308 3.4437181e-19)
(0.25936788 -0.00049714489 7.9345229e-20)
(0.25929853 -0.00055310431 -2.2561985e-19)
(0.2589988 -0.00059970361 3.0179691e-19)
(0.25801896 -0.00064623361 2.3699974e-19)
(0.25467145 -0.00063499349 6.1407679e-20)
(0.24235144 -0.00056062195 2.9243023e-21)
(0.20813123 -0.0002141088 1.0645163e-19)
(0.26006576 -3.6034055e-05 2.7954184e-18)
(0.26007152 -9.1214285e-05 4.7356e-18)
(0.26008417 -0.00014544281 -5.7560799e-19)
(0.26010346 -0.00020298347 3.9977624e-19)
(0.26012923 -0.00026021093 7.1692812e-19)
(0.2601607 -0.0003175869 7.9227463e-19)
(0.26019497 -0.00037489796 6.7335153e-19)
(0.26022303 -0.0004318747 3.8768497e-19)
(0.26021952 -0.00048779066 1.3067329e-19)
(0.26011767 -0.00054204301 -6.017761e-20)
(0.25974224 -0.00058714002 3.2990662e-19)
(0.25857279 -0.00062806077 1.6045476e-19)
(0.25467557 -0.00061594005 4.0189825e-20)
(0.24100379 -0.00052390611 7.8326866e-20)
(0.20544863 -0.00019196316 8.7725179e-20)
(0.2609225 -3.5349633e-05 2.7902538e-18)
(0.26092828 -8.9497286e-05 3.3532907e-18)
(0.26094096 -0.00014270541 1.0391628e-18)
(0.26096023 -0.00019916671 3.7252572e-19)
(0.2609858 -0.00025530722 7.8985042e-19)
(0.2610165 -0.00031157922 8.9748554e-19)
(0.26104844 -0.00036774517 4.7260099e-19)
(0.2610702 -0.00042350433 6.1476617e-19)
(0.26105114 -0.00047801113 3.3040421e-19)
(0.26091327 -0.00053046086 1.5520192e-19)
(0.2604557 -0.00057393662 1.4780787e-19)
(0.2590814 -0.00060990566 2.273557e-19)
(0.2546009 -0.00059424331 7.6238486e-20)
(0.23963056 -0.00048937354 1.3687069e-19)
(0.20297926 -0.00016931833 -1.2011794e-20)
(0.26176274 -3.4655538e-05 2.7237967e-18)
(0.26176854 -8.7746856e-05 2.666019e-18)
(0.26178122 -0.00013991377 -2.6404707e-20)
(0.26180042 -0.00019527247 1.0130631e-18)
(0.26182568 -0.00025030306 7.8612134e-19)
(0.26185536 -0.00030544608 7.1340779e-19)
(0.26188442 -0.00036043768 3.0863964e-19)
(0.26189878 -0.00041494196 3.6297072e-19)
(0.26186213 -0.00046801763 2.182314e-19)
(0.2616848 -0.00051862213 3.8957571e-19)
(0.26113855 -0.00056034346 6.7797238e-20)
(0.25954316 -0.00059189152 4.8859291e-20)
(0.25444651 -0.0005706321 -7.319273e-21)
(0.23824529 -0.00045627776 3.1721274e-20)
(0.20071509 -0.00014735259 -8.5589737e-20)
(0.26258633 -3.396306e-05 4.3903886e-18)
(0.26259213 -8.5993781e-05 1.369722e-18)
(0.26260479 -0.00013711719 2.4873108e-18)
(0.26262388 -0.00019136968 7.7438628e-19)
(0.2626487 -0.00024528655 -7.4792584e-19)
(0.26267708 -0.00029929459 4.7434553e-19)
(0.26270267 -0.00035310243 4.4069908e-19)
(0.26270848 -0.00040633486 1.8012845e-19)
(0.26265224 -0.00045797299 1.364671e-19)
(0.26243199 -0.00050672605 5.6018261e-20)
(0.26179026 -0.00054656345 7.893902e-20)
(0.25995633 -0.0005740675 7.7808468e-20)
(0.25421177 -0.00054566294 -4.5655477e-20)
(0.23686046 -0.00042415213 -1.7279175e-20)
(0.19864765 -0.0001267576 -2.3580582e-20)
(0.26339335 -3.32814e-05 3.5486514e-18)
(0.26339915 -8.4262741e-05 5.0373355e-18)
(0.26341177 -0.0001343551 2.5246642e-18)
(0.26343068 -0.0001875135 7.9087252e-19)
(0.26345493 -0.00024032822 1.3476433e-18)
(0.26348171 -0.00029321054 5.7707219e-19)
(0.2635032 -0.00034584107 5.5280027e-19)
(0.2634993 -0.00039780175 2.6781293e-19)
(0.26342146 -0.00044800829 3.8150802e-19)
(0.26315482 -0.00049492779 5.7588953e-20)
(0.26241041 -0.00053276478 1.7198122e-19)
(0.26031893 -0.00055643964 2.0301167e-19)
(0.2538966 -0.000519773 8.1562898e-20)
(0.23548766 -0.00039274464 3.7817047e-20)
(0.19676807 -0.00010792878 3.0243643e-20)
(0.26418413 -3.2618313e-05 2.0419311e-18)
(0.26418991 -8.2574226e-05 3.4615425e-18)
(0.26420246 -0.00013166021 1.4817014e-18)
(0.26422112 -0.0001837496 8.7618124e-19)
(0.26424465 -0.00023548649 9.9330341e-19)
(0.2642695 -0.00028726512 5.2136813e-19)
(0.26428624 -0.00033873796 2.7888612e-19)
(0.26427145 -0.00038944152 3.5816874e-19)
(0.26416998 -0.0004382328 4.86216e-19)
(0.26385341 -0.00048335173 1.4252571e-19)
(0.26299854 -0.00051908846 2.6767968e-19)
(0.26062878 -0.00053898815 7.7339458e-20)
(0.25350187 -0.00049331965 1.030782e-19)
(0.2341376 -0.00036197184 1.0957512e-19)
(0.19506692 -9.1079356e-05 1.3579872e-19)
(0.26495914 -3.1980325e-05 4.4798807e-18)
(0.2649649 -8.0945389e-05 2.8339283e-18)
(0.26497734 -0.00012905989 1.5647136e-18)
(0.26499568 -0.00018011622 9.4411682e-19)
(0.26501831 -0.00023081031 8.8174651e-19)
(0.26504088 -0.00028151806 6.1041544e-19)
(0.2650522 -0.00033186392 1.2173381e-19)
(0.2650253 -0.00038133727 3.3822457e-19)
(0.26489816 -0.00042873842 8.2836698e-20)
(0.26452796 -0.00047209828 7.2642829e-21)
(0.26355413 -0.00050565096 1.0994993e-19)
(0.2608835 -0.00052167636 1.2170686e-19)
(0.25302971 -0.00046660631 4.2908263e-20)
(0.23282016 -0.00033188327 1.0467935e-19)
(0.19353413 -7.6303785e-05 1.5489086e-19)
(0.26571903 -3.1372765e-05 4.8411622e-18)
(0.26572475 -7.9390278e-05 3.1400339e-18)
(0.26573705 -0.00012657658 -1.3699764e-19)
(0.26575498 -0.00017664472 1.1188372e-18)
(0.26577653 -0.00022633987 6.6739612e-19)
(0.26579644 -0.0002760185 7.7893475e-19)
(0.26580163 -0.0003252772 3.3151926e-19)
(0.26576141 -0.00037355728 4.068652e-19)
(0.26560652 -0.00041960061 1.5296414e-20)
(0.26517878 -0.00046124611 1.4675802e-19)
(0.26407657 -0.00049254343 2.6939848e-20)
(0.26108058 -0.00050445572 2.2796712e-19)
(0.25248384 -0.00043989699 1.4209022e-19)
(0.23154421 -0.00030262987 2.7041666e-20)
(0.19215888 -6.3609732e-05 1.4653132e-20)
(0.26646455 -3.0799673e-05 7.7820145e-18)
(0.26647021 -7.791971e-05 9.6538251e-19)
(0.26648233 -0.00012422759 3.6815489e-18)
(0.26649975 -0.0001733593 2.1534751e-18)
(0.26652002 -0.00022210618 -6.3246587e-19)
(0.26653688 -0.0002708044 1.0047076e-18)
(0.26653522 -0.00031902283 1.2055404e-18)
(0.26648042 -0.00036615421 1.09376e-18)
(0.26629564 -0.00041087723 8.0288072e-19)
(0.26580617 -0.00045085191 -8.1703197e-20)
(0.26456508 -0.00047982866 3.743518e-19)
(0.26121753 -0.00048726982 3.5957842e-19)
(0.25186982 -0.00041342264 3.85844e-19)
(0.23031742 -0.00027443217 1.8225517e-19)
(0.1909297 -5.2932834e-05 1.5360907e-19)
(0.26719653 -3.0263687e-05 3.989343e-18)
(0.26720212 -7.6541022e-05 -5.7392646e-19)
(0.26721401 -0.00012202465 3.5542947e-18)
(0.26723083 -0.00017027641 2.2370664e-18)
(0.2672496 -0.00021813033 8.2408197e-19)
(0.26726299 -0.00026590165 1.063786e-18)
(0.26725373 -0.0003131315 1.165415e-18)
(0.26718309 -0.00035916374 1.0195469e-18)
(0.26696618 -0.00040260692 7.4302451e-19)
(0.26641044 -0.00044094906 1.5174661e-19)
(0.26501868 -0.00046753759 4.9572413e-19)
(0.26129202 -0.00047005901 2.916744e-19)
(0.25119506 -0.00038738325 3.1101257e-19)
(0.2291461 -0.00024754677 1.7801184e-19)
(0.18983455 -4.4145099e-05 2.3068683e-19)
(0.26791589 -2.9765991e-05 -3.2473324e-18)
(0.26792138 -7.5257932e-05 4.4866671e-19)
(0.26793299 -0.00011997376 8.6474769e-19)
(0.26794908 -0.00016740448 1.3267798e-18)
(0.26796613 -0.00021442312 1.9473401e-18)
(0.26797562 -0.00026132351 5.7540516e-19)
(0.267958 -0.00030761887 5.9437254e-19)
(0.26787018 -0.00035260382 4.1037061e-19)
(0.2676188 -0.00039480805 4.7588617e-20)
(0.2669918 -0.00043154706 2.3545993e-19)
(0.26543617 -0.00045566687 1.5202009e-19)
(0.2613021 -0.00045276643 9.6732675e-20)
(0.2504687 -0.00036194908 4.7297442e-20)
(0.22803501 -0.00022223217 1.0806389e-19)
(0.18886112 -3.7064086e-05 6.6967836e-20)
(0.26862352 -2.9306383e-05 4.6585483e-18)
(0.2686289 -7.4070661e-05 1.2496064e-18)
(0.26864017 -0.00011807532 2.2948558e-18)
(0.26865542 -0.00016474412 2.5805849e-18)
(0.26867049 -0.00021098533 1.938062e-18)
(0.26867563 -0.000257071 1.2268935e-18)
(0.26864885 -0.00030248606 1.3279209e-18)
(0.26854251 -0.00034647515 1.1043558e-18)
(0.26825414 -0.00038747924 7.4253196e-19)
(0.26755035 -0.00042263245 -8.9555785e-20)
(0.2658161 -0.00044417905 3.7227336e-19)
(0.26124652 -0.00043534493 4.2459227e-19)
(0.24970133 -0.00033726333 3.287276e-19)
(0.22698727 -0.00019871676 3.9769701e-19)
(0.18799711 -3.1466398e-05 2.2650083e-19)
(0.26932033 -2.888346e-05 2.4790977e-18)
(0.26932558 -7.2976355e-05 -2.7802344e-19)
(0.26933645 -0.00011632481 6.2434201e-19)
(0.26935072 -0.00016228909 2.274026e-18)
(0.26936357 -0.0002078089 1.5216479e-18)
(0.26936389 -0.00025313433 1.4271987e-18)
(0.26932713 -0.0002977213 1.4929843e-18)
(0.26920083 -0.00034076321 1.2326221e-18)
(0.2688728 -0.00038060158 9.7734813e-19)
(0.26808605 -0.00041417146 3.5707864e-19)
(0.26615679 -0.00043300583 3.8709454e-19)
(0.26112496 -0.00041776402 3.7523694e-19)
(0.24890441 -0.00031344658 3.6601841e-19)
(0.22600436 -0.00017717261 3.4561561e-19)
(0.18723056 -2.7105586e-05 2.4235968e-19)
(0.27000719 -2.849491e-05 1.4459091e-18)
(0.27001228 -7.1969743e-05 2.95122e-18)
(0.27002267 -0.00011471384 3.2703133e-18)
(0.27003582 -0.00016002771 2.42168e-18)
(0.27004618 -0.00020487885 1.2188501e-18)
(0.27004119 -0.00024949516 1.6905934e-18)
(0.2699936 -0.00029330262 1.4849726e-18)
(0.26984584 -0.00033544136 1.1593936e-18)
(0.26947524 -0.00037414208 7.0974559e-19)
(0.2685986 -0.00040611399 3.7845534e-19)
(0.26645635 -0.00042205446 2.237633e-19)
(0.2609383 -0.00040001524 4.0531182e-19)
(0.24808975 -0.00029060213 4.3809646e-19)
(0.22508629 -0.00015769827 3.9838191e-19)
(0.18655015 -2.3732129e-05 1.8389869e-19)
(0.27068489 -2.8137825e-05 8.3100543e-18)
(0.2706898 -7.1043906e-05 3.640461e-18)
(0.27069965 -0.00011323138 5.1361482e-18)
(0.27071153 -0.00015794462 3.0828579e-18)
(0.2707191 -0.00020217545 2.0468319e-18)
(0.27070829 -0.00024612933 2.348206e-18)
(0.27064898 -0.00028920108 2.1000064e-18)
(0.27047818 -0.00033047455 1.6970005e-18)
(0.27006181 -0.00036805783 9.9913015e-19)
(0.26908753 -0.00039839812 1.2259339e-19)
(0.26671278 -0.00041121648 4.6689488e-19)
(0.26068881 -0.00038211515 6.9878664e-19)
(0.24726882 -0.00026882041 6.4951835e-19)
(0.22423175 -0.00014031231 5.0962898e-19)
(0.18594537 -2.1112147e-05 3.9882e-19)
(0.27135418 -2.7809011e-05 1.8062508e-18)
(0.27135887 -7.019104e-05 3.8857424e-18)
(0.2713681 -0.00011186497 2.5393864e-18)
(0.27137855 -0.00015602247 1.7425284e-18)
(0.27138303 -0.00019967637 2.8643897e-18)
(0.27136587 -0.00024300948 1.6843096e-18)
(0.27129391 -0.00028538386 1.5258802e-18)
(0.27109836 -0.000325823 7.825746e-19)
(0.27063272 -0.00036230005 5.9024948e-19)
(0.26955206 -0.00039095432 8.1081199e-20)
(0.26692403 -0.00040037783 1.7965702e-19)
(0.26038022 -0.00036410564 2.5914932e-19)
(0.24645221 -0.00024818088 2.7420805e-19)
(0.22343841 -0.00012495718 1.963622e-19)
(0.18540672 -1.904183e-05 2.4739697e-19)
(0.27201571 -2.7505235e-05 6.840753e-19)
(0.27202015 -6.9403099e-05 4.2380911e-18)
(0.27202866 -0.00011060176 2.6726989e-18)
(0.27203751 -0.00015424331 2.2195174e-18)
(0.2720386 -0.00019735858 2.2577101e-18)
(0.27201452 -0.00024010733 1.5978867e-18)
(0.27192892 -0.00028181693 1.2656093e-18)
(0.2717068 -0.00032144525 7.7173546e-19)
(0.27118802 -0.00035681747 6.5960445e-19)
(0.2699912 -0.00038370884 3.5433047e-19)
(0.26708822 -0.000389429 2.3849864e-19)
(0.26001771 -0.00034605163 3.1327033e-19)
(0.24564917 -0.00022875086 2.987345e-19)
(0.22270325 -0.00011151162 3.3000209e-19)
(0.18492573 -1.7355844e-05 1.2082107e-19)
(0.27267005 -2.7223403e-05 1.6053017e-18)
(0.27267421 -6.8672269e-05 1.7268163e-18)
(0.27268192 -0.00010942927 1.837452e-18)
(0.27268898 -0.00015258973 2.054737e-18)
(0.27268634 -0.00019519966 1.6817363e-18)
(0.27265476 -0.00023739527 1.5128071e-18)
(0.27255447 -0.00027846699 1.1089404e-18)
(0.2723038 -0.00031730047 9.127096e-19)
(0.27172757 -0.00035155884 6.7229745e-19)
(0.27040369 -0.00037658611 8.6983e-19)
(0.26720375 -0.00037827411 4.0857929e-19)
(0.25960771 -0.00032803713 4.3699939e-19)
(0.24486735 -0.00021058184 3.0716722e-19)
(0.22202277 -9.9808139e-05 2.7587722e-19)
(0.18449494 -1.5929484e-05 8.4098286e-20)
(0.27331772 -2.6960666e-05 4.9045544e-18)
(0.27332155 -6.7991274e-05 4.6230808e-18)
(0.27332837 -0.00010833587 3.2748431e-18)
(0.27333345 -0.00015104547 1.8978371e-18)
(0.27332673 -0.00019317869 6.8714557e-19)
(0.27328702 -0.00023484751 1.3137274e-18)
(0.27317093 -0.0002753027 1.0154389e-18)
(0.27288957 -0.00031334989 7.7809816e-19)
(0.27225107 -0.00034647442 7.9943068e-19)
(0.27078808 -0.00036951039 5.8565221e-19)
(0.26726952 -0.00036683813 4.1425335e-19)
(0.25915765 -0.0003101602 3.5367456e-19)
(0.24411266 -0.00019370463 4.0458218e-19)
(0.22139331 -8.9652401e-05 1.9429274e-19)
(0.1841079 -1.4675689e-05 1.119398e-19)
(0.27395916 -2.6714475e-05 7.1078856e-18)
(0.27396262 -6.7353542e-05 4.4376732e-18)
(0.27396843 -0.00010731104 4.0217151e-18)
(0.27397134 -0.00014959583 2.9486553e-18)
(0.27396016 -0.00019127671 1.246064e-18)
(0.27391168 -0.00023244055 2.0188615e-18)
(0.2737786 -0.00027229533 1.7778786e-18)
(0.27346419 -0.00030955757 1.4540724e-18)
(0.27275806 -0.00034151676 1.1687598e-18)
(0.27114274 -0.00036240704 2.2253059e-19)
(0.26728512 -0.00035507155 6.1715506e-19)
(0.25867552 -0.00029252748 5.8413764e-19)
(0.24338933 -0.00017812521 7.7602854e-19)
(0.22081116 -8.0841191e-05 6.1201662e-19)
(0.18375901 -1.3538667e-05 4.7391972e-19)
(0.27459475 -2.648259e-05 -3.7740044e-19)
(0.2745978 -6.675326e-05 2.3982145e-18)
(0.27460249 -0.0001063455 2.3393349e-18)
(0.274603 -0.0001482278 2.2144616e-18)
(0.27458699 -0.00018947691 2.4824675e-18)
(0.27452902 -0.00023015345 1.4002081e-18)
(0.27437767 -0.00026941895 1.289961e-18)
(0.27402763 -0.00030589064 1.1324331e-18)
(0.27324789 -0.00033664079 5.2341571e-19)
(0.27146593 -0.0003552038 5.0828046e-19)
(0.26725094 -0.00034295249 3.2203265e-19)
(0.25816956 -0.00027524859 4.8157055e-19)
(0.24270004 -0.00016382254 4.3018117e-19)
(0.22027275 -7.3177108e-05 4.3374015e-19)
(0.18344349 -1.2486088e-05 3.634405e-19)
(0.27522481 -2.6263072e-05 3.5284576e-18)
(0.27522741 -6.6185367e-05 2.8572815e-18)
(0.27523087 -0.00010543114 2.8100936e-18)
(0.27522875 -0.00014693 2.1746022e-18)
(0.27520748 -0.00018776456 2.6304977e-18)
(0.2751393 -0.00022796774 1.6668571e-18)
(0.27496829 -0.00026665041 1.497679e-18)
(0.27457978 -0.00030231921 1.206619e-18)
(0.27371976 -0.0003318036 6.7498276e-19)
(0.27175586 -0.00034783257 5.4659234e-19)
(0.26716832 -0.00033048644 4.6151125e-19)
(0.25764777 -0.0002584306 4.8993382e-19)
(0.24204621 -0.0001507494 3.5006101e-19)
(0.21977469 -6.6478883e-05 4.8208133e-19)
(0.18315725 -1.150142e-05 2.7350835e-19)
(0.27584964 -2.6054261e-05 3.8360003e-18)
(0.27585173 -6.5645512e-05 2.2624461e-18)
(0.27585383 -0.00010456099 1.4724834e-18)
(0.27584885 -0.00014569263 1.8169426e-18)
(0.27582189 -0.00018612688 2.2791335e-18)
(0.2757427 -0.00022586725 1.5650887e-18)
(0.27555053 -0.00026396905 1.3804677e-18)
(0.27512041 -0.00029881615 7.882283e-19)
(0.27417268 -0.00032696406 6.9197614e-19)
(0.27201082 -0.00034023144 7.6261487e-19)
(0.26703956 -0.00031770398 4.0690407e-19)
(0.25711762 -0.00024217267 3.7114849e-19)
(0.24142819 -0.00013883591 4.645368e-19)
(0.21931381 -6.0587301e-05 4.8937926e-19)
(0.18289682 -1.0577469e-05 3.35016e-19)
(0.27646948 -2.5854749e-05 2.9584008e-18)
(0.27647102 -6.5129981e-05 5.1786591e-18)
(0.27647162 -0.00010372909 3.8992295e-18)
(0.27646352 -0.0001445073 2.3995277e-18)
(0.2764304 -0.00018455289 1.2488303e-18)
(0.27633935 -0.00022383791 9.7481682e-19)
(0.27612438 -0.00026135648 8.336955e-19)
(0.27564919 -0.00029535665 7.5212867e-19)
(0.27460555 -0.00032208226 8.0897923e-19)
(0.27222923 -0.0003323472 8.0905549e-19)
(0.26686787 -0.00030465719 4.9190681e-19)
(0.25658579 -0.00022656125 4.7161028e-19)
(0.2408456 -0.00012799525 4.3797989e-19)
(0.21888719 -5.5367365e-05 3.4554136e-19)
(0.18265925 -9.7115795e-06 3.577658e-19)
(0.27708455 -2.5663344e-05 5.5132808e-18)
(0.27708548 -6.4635631e-05 5.498574e-18)
(0.27708444 -0.0001029304 5.1056187e-18)
(0.27707295 -0.00014336686 3.5854059e-18)
(0.27703318 -0.00018303314 1.425487e-18)
(0.27692935 -0.00022186743 2.0158585e-18)
(0.2766898 -0.00025879623 1.5789603e-18)
(0.27616569 -0.00029191777 1.6986238e-18)
(0.27501711 -0.00031711916 1.2245963e-18)
(0.27240981 -0.00032413774 5.9638484e-19)
(0.26665728 -0.00029141517 9.8169427e-19)
(0.256058 -0.00021166603 7.9442465e-19)
(0.24029748 -0.00011813047 6.4419426e-19)
(0.21849214 -5.0707641e-05 6.4294788e-19)
(0.18244204 -8.9025326e-06 4.7531224e-19)
(0.27769504 -2.5479044e-05 -7.3749072e-19)
(0.27769529 -6.4159806e-05 4.874235e-18)
(0.27769247 -0.00010216064 3.2441373e-18)
(0.27767729 -0.00014226521 1.9709153e-18)
(0.27763035 -0.0001815595 2.4651062e-18)
(0.27751275 -0.00021994503 1.4394222e-18)
(0.27724666 -0.00025627339 9.368794e-19)
(0.27666938 -0.00028847796 9.0768809e-19)
(0.275406 -0.00031203634 7.8456484e-19)
(0.27255164 -0.0003155742 5.3124935e-19)
(0.26641246 -0.00027805925 3.9738252e-19)
(0.25553894 -0.0001975371 4.996591e-19)
(0.23978254 -0.00010914112 3.3751757e-19)
(0.21812621 -4.6517859e-05 2.9665109e-19)
(0.18224308 -8.1488537e-06 2.6392716e-19)
(0.27830111 -2.5301005e-05 1.3959432e-18)
(0.27830062 -6.3700269e-05 2.9473725e-18)
(0.27829586 -0.0001014162 3.7685069e-18)
(0.2782767 -0.00014119716 2.4803865e-18)
(0.278222 -0.00018012493 2.7678741e-18)
(0.27808956 -0.00021806116 1.5323915e-18)
(0.2777948 -0.00025377436 8.664728e-19)
(0.27715962 -0.0002850166 6.1026892e-19)
(0.27577079 -0.00030679609 8.2453131e-19)
(0.27265429 -0.00030664248 5.6021276e-19)
(0.26613848 -0.00026467813 4.4490186e-19)
(0.2550323 -0.00018420368 5.1785245e-19)
(0.23929925 -0.00010092916 3.390601e-19)
(0.21778713 -4.2725643e-05 2.4763819e-19)
(0.18206056 -7.4481418e-06 3.2167599e-19)
(0.27890291 -2.5128516e-05 2.8270283e-18)
(0.27890162 -6.3255127e-05 1.0238727e-18)
(0.27889474 -0.00010069401 1.4108319e-18)
(0.27887126 -0.00014015826 2.9588755e-18)
(0.27880821 -0.00017872332 2.3373316e-18)
(0.27865976 -0.00021620724 1.7132099e-18)
(0.27833397 -0.00025128651 1.1478719e-18)
(0.27763569 -0.00028151345 6.7440389e-19)
(0.27611001 -0.00030136188 7.6907991e-19)
(0.2727179 -0.00029734386 9.2427385e-19)
(0.26584062 -0.00025136317 5.9512186e-19)
(0.25454084 -0.00017167439 3.6071433e-19)
(0.23884602 -9.3403158e-05 4.7282223e-19)
(0.21747286 -3.9273086e-05 3.2185227e-19)
(0.18189296 -6.7970326e-06 3.6614709e-19)
(0.27950056 -2.4960972e-05 1.4837279e-18)
(0.2794984 -6.2822774e-05 4.5667823e-18)
(0.27948922 -9.9991431e-05 1.7681921e-18)
(0.27946108 -0.00013914466 1.6022409e-18)
(0.279389 -0.00017734922 2.1052276e-18)
(0.27922329 -0.00021437542 9.2393297e-19)
(0.27886389 -0.00024879793 7.70062e-19)
(0.27809674 -0.00027794828 5.0574037e-19)
(0.27642222 -0.00029569921 3.821105e-19)
(0.27274323 -0.00028769474 6.1638562e-19)
(0.2655241 -0.00023820406 9.5835133e-20)
(0.25406651 -0.00015993912 -6.063279e-20)
(0.23842119 -8.648105e-05 1.4703384e-19)
(0.21718151 -3.611361e-05 1.76734e-19)
(0.18173897 -6.1914728e-06 1.7331784e-19)
(0.28009418 -2.4797856e-05 4.477299e-19)
(0.28009107 -6.2401833e-05 3.4056885e-18)
(0.28007941 -9.9306213e-05 3.0402251e-18)
(0.28004623 -0.00013815299 1.4493127e-18)
(0.27996442 -0.00017599777 1.806268e-18)
(0.27978006 -0.00021255837 8.7742967e-19)
(0.2793842 -0.00024629715 7.5119862e-19)
(0.27854186 -0.00027430051 6.6507226e-19)
(0.27670605 -0.00028977675 1.9220494e-19)
(0.27273166 -0.0002777256 6.2814919e-19)
(0.26519392 -0.00022528491 2.262424e-19)
(0.25361059 -0.00014897206 1.5282841e-19)
(0.23802316 -8.009123e-05 1.0519467e-19)
(0.21691137 -3.3209337e-05 2.4804303e-19)
(0.18159747 -5.6270971e-06 1.7891637e-19)
(0.28068388 -2.4638721e-05 -1.4925696e-19)
(0.28067974 -6.1991114e-05 3.5252111e-18)
(0.28066539 -9.8636369e-05 3.0319676e-18)
(0.28062676 -0.00013718022 1.8638894e-18)
(0.28053445 -0.00017466447 1.6364485e-18)
(0.28032993 -0.00021074911 9.464555e-19)
(0.27989449 -0.00024377295 6.1218459e-19)
(0.27897002 -0.0002705489 3.9384504e-19)
(0.27696025 -0.00028356785 2.3556467e-19)
(0.27268518 -0.00026747915 5.3377564e-19)
(0.26485469 -0.00021268092 2.8974619e-19)
(0.25317379 -0.00013873548 2.0281307e-19)
(0.23765034 -7.4172514e-05 1.7140949e-19)
(0.2166609 -3.0529028e-05 1.8211924e-19)
(0.18146749 -5.0995643e-06 1.6681844e-19)
(0.28126974 -2.4483172e-05 5.1353706e-18)
(0.28126449 -6.1589566e-05 6.7299359e-18)
(0.28124722 -9.7980135e-05 3.3479447e-18)
(0.28120271 -0.00013622363 7.4921805e-19)
(0.28109907 -0.00017334514 6.6121583e-19)
(0.28087275 -0.00020894082 1.2850383e-19)
(0.28039427 -0.00024121406 3.3962931e-20)
(0.27938014 -0.00026667151 -2.657393e-19)
(0.27718382 -0.00027705191 -2.0185733e-20)
(0.27260633 -0.00025700811 -1.8291562e-19)
(0.26451052 -0.00020045586 -3.3456446e-19)
(0.25275643 -0.00012918378 -3.4176485e-19)
(0.23730122 -6.8673274e-05 -2.4166527e-19)
(0.21642866 -2.8046558e-05 -1.3214383e-19)
(0.18134818 -4.6048119e-06 -6.6009021e-20)
(0.28185185 -2.4330856e-05 5.6002103e-18)
(0.28184539 -6.119625e-05 5.2274074e-18)
(0.28182498 -9.7335907e-05 3.154248e-18)
(0.28177412 -0.00013528067 9.9977838e-19)
(0.28165823 -0.00017203573 3.7182462e-19)
(0.2814083 -0.00020712676 2.6286956e-19)
(0.28088299 -0.00023860899 -1.5277326e-19)
(0.27977106 -0.0002626457 -1.4196701e-19)
(0.27737601 -0.00027021574 -1.1960609e-19)
(0.27249806 -0.00024637257 -2.1117166e-19)
(0.26416497 -0.0001886604 -1.7624273e-19)
(0.2523585 -0.00012026722 -1.9388626e-19)
(0.23697438 -6.3550125e-05 -1.7613008e-19)
(0.21621337 -2.5739815e-05 -2.1846771e-19)
(0.18123881 -4.1392035e-06 -1.0217588e-19)
(0.28243029 -2.4181448e-05 2.9139393e-18)
(0.28242252 -6.0810307e-05 5.0434175e-18)
(0.28239871 -9.6702197e-05 3.1997433e-18)
(0.28234099 -0.00013434892 2.4401166e-18)
(0.28221186 -0.00017073227 1.7246513e-18)
(0.28193636 -0.00020530013 1.2511385e-18)
(0.28136003 -0.00023594579 4.0610142e-19)
(0.2801416 -0.00025844846 5.8519263e-19)
(0.27753642 -0.00026305461 4.0347387e-19)
(0.27236366 -0.00023563725 -2.9197144e-21)
(0.26382105 -0.00017733135 3.2066352e-19)
(0.25197976 -0.0001119352 3.1866411e-19)
(0.23666845 -5.876649e-05 3.4657084e-19)
(0.21601387 -2.358992e-05 7.8614339e-20)
(0.1811387 -3.6995975e-06 9.3371455e-20)
(0.28300512 -2.4034647e-05 1.4041431e-18)
(0.28299594 -6.0430938e-05 2.2018945e-18)
(0.28296845 -9.6077596e-05 3.0116629e-18)
(0.28290332 -0.00013342601 2.7532859e-18)
(0.28275987 -0.00016943078 1.8363187e-18)
(0.28245663 -0.00020345398 1.429823e-18)
(0.28182471 -0.00023321186 7.8850749e-19)
(0.28049057 -0.0002540569 5.655024e-19)
(0.27766504 -0.00025557285 5.7002279e-19)
(0.27220658 -0.0002248688 4.1799621e-19)
(0.26348123 -0.00016649191 2.0875245e-19)
(0.25161982 -0.00010413863 2.670329e-19)
(0.23638216 -5.4291232e-05 1.1916475e-19)
(0.21582908 -2.158066e-05 1.263264e-19)
(0.18104728 -3.2833421e-06 1.0081223e-19)
(0.2835764 -2.3890166e-05 2.8956738e-18)
(0.28356569 -6.0057378e-05 1.9070754e-18)
(0.28353424 -9.5460738e-05 2.9648741e-18)
(0.2834611 -0.00013250962 2.5572198e-18)
(0.28330215 -0.00016812719 2.1017797e-18)
(0.28296879 -0.00020158114 1.4464994e-18)