/*--------------------------------*- C++ -*----------------------------------*\
| =========                 |                                                 |
| \\      /  F ield         | OpenFOAM: The Open Source CFD Toolbox           |
|  \\    /   O peration     | Version:  2506                                  |
|   \\  /    A nd           | Website:  www.openfoam.com                      |
|    \\/     M anipulation  |                                                 |
\*---------------------------------------------------------------------------*/
FoamFile
{
    version     2.0;
    format      ascii;
    arch        "LSB;label=32;scalar=64";
    class       volScalarField;
    location    "23000/rock";
    object      T;
}
// * * * * * * * * * * * * * * * * * * * * * * * * * * * * * * * * * * * * * //

dimensions      [0 0 0 1 0 0 0];

internalField   nonuniform List<scalar> 
16000
(
317.7494
306.98344
301.16478
297.54001
295.07817
293.3064
291.97691
290.9472
290.12957
289.4671
288.92134
288.46536
288.07983
287.75048
287.46659
287.21997
287.00422
286.81434
286.64632
286.49691
286.36348
286.24388
286.13629
286.03923
285.95142
285.8718
285.79945
285.73358
285.67351
285.61866
285.56848
285.52253
285.48036
285.44158
285.40582
285.37269
285.34178
285.3126
285.28449
285.25636
320.43451
309.70983
303.49877
299.51347
296.76642
294.7725
293.26819
292.09876
291.16768
290.41178
289.78806
289.26632
288.82474
288.4472
288.12154
287.83847
287.59073
287.37259
287.17948
287.00772
286.85429
286.71672
286.59295
286.48126
286.38021
286.28856
286.20527
286.12944
286.06029
285.99712
285.93935
285.88644
285.83789
285.79327
285.75213
285.71404
285.67856
285.64516
285.61319
285.58176
321.96955
311.71846
305.42443
301.24253
298.29897
296.13397
294.48605
293.19695
292.16588
291.32588
290.6309
290.04828
289.5543
289.13135
288.76609
288.44826
288.16986
287.92454
287.70724
287.51384
287.34101
287.18596
287.04642
286.92046
286.80647
286.70305
286.60905
286.52345
286.44538
286.37406
286.30884
286.2491
286.1943
286.14395
286.09756
286.05468
286.01482
285.97747
285.94202
285.90778
322.95342
313.22965
307.00878
302.74519
299.67849
297.38879
295.62727
294.23854
293.12125
292.2069
291.44769
290.80941
290.26697
289.80163
289.39911
289.04838
288.74079
288.46949
288.22895
288.01472
287.82314
287.65118
287.49633
287.35649
287.22988
287.11499
287.01053
286.91538
286.82858
286.74928
286.67675
286.61033
286.54942
286.49348
286.442
286.39447
286.35042
286.30934
286.27068
286.23392
323.64503
314.40129
308.3217
304.04936
300.91511
298.53975
296.69169
295.22222
294.03215
293.05316
292.23689
291.54832
290.96152
290.45695
290.01965
289.63798
289.30279
289.00678
288.74406
288.50986
288.30024
288.11196
287.94231
287.78902
287.65017
287.52411
287.40945
287.30499
287.20967
287.12258
287.04292
286.96998
286.90311
286.84172
286.78528
286.73328
286.68521
286.64059
286.59893
286.55981
324.16594
315.33767
309.42272
305.18485
302.02273
299.59286
297.68147
296.14833
294.89805
293.86377
292.99749
292.264
291.63698
291.09643
290.62692
290.21637
289.85523
289.53585
289.25205
288.99878
288.77189
288.56793
288.38402
288.21774
288.06703
287.93015
287.8056
287.69207
287.58846
287.49378
287.40717
287.32787
287.25519
287.18851
287.12727
287.07093
287.019
286.97101
286.92651
286.88512
324.57844
316.10672
310.35867
306.17919
303.01638
300.55589
298.60035
297.01844
295.71937
294.63856
293.72901
292.95585
292.29272
291.71944
291.2203
290.78295
290.39755
290.0562
289.75247
289.48109
289.23773
289.01876
288.82116
288.64237
288.48022
288.33287
288.19873
288.07642
287.96476
287.8627
287.76933
287.68384
287.60552
287.5337
287.4678
287.40728
287.35164
287.30041
287.25318
287.20961
324.91721
316.75321
311.16515
307.05615
303.91062
301.4373
299.45305
297.83501
296.49725
295.37791
294.43141
293.62357
292.92832
292.3255
291.79932
291.33727
290.92934
290.56743
290.24494
289.95643
289.69742
289.46414
289.25343
289.06264
288.88949
288.73205
288.58864
288.45784
288.33837
288.22915
288.12923
288.03774
287.95393
287.87713
287.80673
287.74216
287.68293
287.62859
287.57873
287.53304
325.20312
317.30734
311.86892
307.83549
304.71871
302.24552
300.24472
298.60107
297.23338
296.08267
295.10503
294.26721
293.54364
292.91437
292.36367
291.87899
291.45023
291.06918
290.72912
290.42449
290.15067
289.90379
289.68059
289.47832
289.29462
289.12747
288.97515
288.83613
288.70913
288.59299
288.48671
288.38941
288.30029
288.21866
288.14389
288.07542
288.01273
287.95537
287.90297
287.85519
325.44952
317.79007
312.49018
308.53333
305.45235
302.98854
300.98058
299.31993
297.9298
296.75402
295.75048
294.88703
294.13871
293.48594
292.91316
292.40788
291.95999
291.56121
291.20477
290.885
290.59722
290.33747
290.10241
289.88919
289.6954
289.51895
289.35805
289.21114
289.07686
288.95404
288.84162
288.73869
288.64444
288.55814
288.47915
288.40689
288.34085
288.28058
288.2257
288.17589
325.66543
318.21635
313.04426
309.16273
306.12159
303.67364
301.66572
299.99501
298.58873
297.39337
296.36863
295.4835
294.71376
294.04028
293.44775
292.92382
292.45843
292.04332
291.67166
291.33777
291.03689
290.76499
290.51868
290.29506
290.09165
289.90631
289.73719
289.58269
289.44142
289.31215
289.19381
289.08546
288.98624
288.89543
288.81235
288.73643
288.66715
288.60405
288.54676
288.49496
325.85717
318.59711
313.54293
309.73428
306.73504
304.30738
302.30491
300.62971
299.21251
298.00231
296.9605
296.05725
295.26915
294.57755
293.96748
293.42677
292.94547
292.51537
292.12966
291.78262
291.46948
291.18617
290.92924
290.69577
290.4832
290.28938
290.11241
289.95064
289.80266
289.66719
289.54315
289.42956
289.32555
289.23038
289.14336
289.0639
288.99148
288.92564
288.86599
288.81222
326.02936
318.94053
313.99535
310.25655
307.29995
304.89555
302.90256
301.22727
299.80348
298.58245
297.5272
296.60904
295.80535
295.09804
294.47249
293.91677
293.42109
292.97731
292.57865
292.21944
291.89487
291.60086
291.33395
291.09116
290.86992
290.66803
290.48356
290.31485
290.16043
290.01902
289.8895
289.77086
289.66224
289.56286
289.47203
289.38915
289.31369
289.24518
289.18324
289.12754
326.18548
319.25287
314.40874
310.73653
307.82248
305.44321
303.46268
301.79075
300.36392
299.13548
298.06994
297.1397
296.32293
295.60211
294.963
294.39394
293.88531
293.4291
293.01859
292.64814
292.31295
292.00896
291.73268
291.48111
291.25167
291.04212
290.85053
290.67519
290.51462
290.36752
290.23273
290.10926
289.99619
289.89276
289.79825
289.71206
289.63365
289.56255
289.49837
289.44078
326.32815
319.53902
314.78885
311.17997
308.30784
305.95479
303.98888
302.323
300.89603
299.66304
298.58992
297.6501
296.82251
296.09018
295.43929
294.85845
294.33824
293.87078
293.44946
293.06867
292.72367
292.41038
292.12533
291.86552
291.62834
291.41156
291.2132
291.03155
290.86511
290.71256
290.57274
290.44462
290.32728
290.21995
290.12189
290.0325
289.95124
289.87762
289.81125
289.75179
326.45947
319.80283
315.14032
311.5916
308.76042
306.43416
304.48438
302.82664
301.40185
300.16672
299.08836
298.14115
297.30476
296.56274
295.90169
295.31051
294.78
294.30242
293.87127
293.48103
293.12697
292.80506
292.51184
292.2443
291.99985
291.77623
291.57147
291.38383
291.2118
291.05406
290.90942
290.77684
290.65541
290.54431
290.44284
290.35037
290.26633
290.19027
290.12176
290.06046
326.58106
320.04742
315.46694
311.97536
309.18398
306.88466
304.95206
303.30404
301.88334
300.64806
299.56645
298.61377
297.77036
297.0203
296.35056
295.75038
295.21076
294.72413
294.2841
293.88522
293.52284
293.19296
292.89214
292.6174
292.36612
292.13607
291.92525
291.73193
291.5546
291.3919
291.24266
291.10582
290.98046
290.86576
290.761
290.66554
290.57883
290.50038
290.42978
290.36669
326.69427
320.27529
315.77183
312.33455
309.58171
307.30923
305.39448
303.75739
302.34228
301.10851
300.02535
299.06886
298.22001
297.46337
296.78632
296.17836
295.63073
295.13604
294.68801
294.28129
293.9113
293.57408
293.26622
292.98475
292.7271
292.49099
292.27447
292.07579
291.89342
291.72602
291.57238
291.43147
291.30235
291.18418
291.07625
290.97792
290.88861
290.80785
290.73522
290.67035
326.80016
320.48852
316.05758
312.67195
309.95636
307.7104
305.81391
304.18865
302.78032
301.54944
300.46617
299.50731
298.6544
297.89251
297.20936
296.59475
296.04014
295.53831
295.08312
294.66931
294.29238
293.94842
293.63405
293.34634
293.08273
292.84096
292.61907
292.41532
292.22819
292.05631
291.89851
291.75371
291.62098
291.4995
291.38853
291.28742
291.1956
291.11259
291.03797
290.97135
326.89963
320.68884
316.32636
312.98993
310.31028
308.0904
306.21238
304.59959
303.199
301.97213
300.88996
299.92997
299.07424
298.30826
297.62011
296.99988
296.43923
295.93113
295.46956
295.04937
294.66613
294.31599
293.99564
293.70215
293.43299
293.18593
292.959
292.75048
292.55884
292.38273
292.22096
292.07246
291.93629
291.81163
291.69773
291.59394
291.4997
291.41451
291.33794
291.26961
326.99341
320.8777
316.58001
313.29049
310.6455
308.45119
306.59168
304.99181
303.59969
302.37776
301.29773
300.33767
299.48018
298.71116
298.01901
297.39408
296.82827
296.31468
295.84746
295.42155
295.03261
294.67685
294.351
294.05217
293.77786
293.52586
293.29422
293.08121
292.88533
292.70521
292.53967
292.38765
292.2482
292.12049
292.00378
291.89742
291.80083
291.71352
291.63505
291.56504
327.08213
321.0563
316.8201
313.57537
310.96381
308.79448
306.9534
305.36675
303.98369
302.76743
301.6904
300.7312
299.87289
299.10175
298.40648
297.77771
297.20751
296.68919
296.21699
295.78598
295.3919
295.03104
294.70015
294.39642
294.11734
293.86075
293.6247
293.40749
293.2076
293.0237
292.85459
292.69922
292.55664
292.42601
292.30661
292.19777
292.09892
292.00955
291.92922
291.85757
327.1663
321.22569
317.04796
313.84607
311.26673
309.12177
307.29897
305.72573
304.35214
303.14218
302.06886
301.11131
300.25299
299.48054
298.78296
298.1511
297.57724
297.05485
296.57831
296.14279
295.74411
295.37862
295.04315
294.7349
294.45143
294.19057
293.95042
293.72927
293.52562
293.33815
293.16567
293.00711
292.86155
292.72815
292.60616
292.49494
292.39389
292.30253
292.2204
292.14711
327.24637
321.38675
317.26475
314.10388
311.55562
309.43441
307.62966
306.06992
304.70612
303.50294
302.43393
301.47869
300.62107
299.84803
299.14885
298.51459
297.93774
297.41191
296.93161
296.49211
296.08933
295.71968
295.38004
295.06767
294.78015
294.51534
294.27136
294.04653
293.83937
293.64853
293.47286
293.31129
293.16289
293.02683
292.90237
292.78885
292.6857
292.59239
292.5085
292.43362
327.32271
321.54026
317.47146
314.34993
311.83167
309.73358
307.94661
306.40037
305.0466
303.85057
302.78638
301.83402
300.97772
300.20472
299.50457
298.86854
298.28929
297.76058
297.27705
296.83409
296.42766
296.05428
295.71088
295.39475
295.10351
294.83506
294.58754
294.35928
294.14881
293.95482
293.77613
293.61171
293.46062
293.32202
293.19519
293.07947
292.97427
292.87909
292.79347
292.71703
327.39565
321.68687
317.66898
314.58522
312.09592
310.02033
308.25084
306.71806
305.37446
304.18589
303.12692
302.17793
301.32347
300.55108
299.85051
299.21326
298.63216
298.1011
297.61484
297.16887
296.75924
296.38254
296.03574
295.71619
295.42155
295.14975
294.89894
294.66749
294.45394
294.25698
294.07546
293.90834
293.75468
293.61368
293.48458
293.36674
293.25957
293.16257
293.07527
292.9973
327.46548
321.82717
317.85806
314.81061
312.34929
310.29559
308.54326
307.02385
305.6905
304.50963
303.45621
302.511
301.65885
300.88754
300.18706
299.54909
298.96662
298.43368
297.94515
297.4966
297.08418
296.70453
296.35468
296.03205
295.73431
295.45943
295.20559
294.97117
294.75474
294.55501
294.37082
294.20114
294.04506
293.90176
293.77049
293.65062
293.54155
293.44278
293.35385
293.27437
327.53245
321.96167
318.03939
315.02689
312.59262
310.5602
308.82469
307.31852
305.99548
304.82248
303.77488
302.83379
301.98433
301.21453
300.51459
299.87635
299.29296
298.75857
298.26818
297.81745
297.40261
297.02036
296.6678
296.34238
296.04182
295.76412
295.50749
295.27033
295.05122
294.84889
294.66219
294.49011
294.33173
294.18624
294.0529
293.93107
293.82017
293.71969
293.62917
293.54821
327.59676
322.09082
318.21355
315.23473
312.82664
310.81492
309.09589
307.6028
306.29007
305.12504
304.08349
303.1468
302.30038
301.53246
300.83344
300.19533
299.61142
299.07598
298.58411
298.13156
297.71465
297.33014
296.97518
296.64726
296.34415
296.06388
295.80468
295.56498
295.34338
295.13862
294.94957
294.77522
294.61466
294.46709
294.33178
294.20807
294.09541
293.99326
293.90119
293.81878
327.65863
322.21502
318.38107
315.43476
313.052
311.06042
309.35752
307.87734
306.57488
305.41792
304.38257
303.45054
302.60743
301.84172
301.14396
300.50634
299.92226
299.38613
298.89313
298.43911
298.02045
297.63397
297.27689
296.94674
296.64134
296.35872
296.09718
295.85514
295.63123
295.4242
295.23294
295.05646
294.89384
294.74429
294.60709
294.4816
294.36723
294.26347
294.16988
294.08605
327.71821
322.33461
318.54242
315.6275
313.2693
311.29731
309.61018
308.14273
306.85048
305.70164
304.67263
303.74543
302.90589
302.14266
301.44648
300.80966
300.22574
299.68923
299.19542
298.74023
298.32012
297.93196
297.57304
297.24091
296.93344
296.64871
296.38502
296.14083
295.91478
295.70564
295.51232
295.33382
295.16926
295.01784
294.87884
294.75162
294.63561
294.53029
294.43523
294.35
327.77567
322.44992
318.69804
315.81346
313.47906
311.52614
309.85445
308.39952
307.1174
305.97669
304.95412
304.03192
303.19615
302.43565
301.7413
301.10556
300.52209
299.9855
299.49116
299.03509
298.6138
298.22423
297.86371
297.52984
297.22053
296.93389
296.66824
296.42208
296.19405
295.98296
295.7877
295.60732
295.44092
295.28771
295.14699
295.01812
294.90053
294.79371
294.6972
294.61061
327.83114
322.56124
318.84829
315.99308
313.68176
311.7474
310.09081
308.6482
307.37611
306.24353
305.22746
304.31039
303.47856
302.72099
302.02872
301.39431
300.81155
300.27514
299.78054
299.32384
298.90162
298.51089
298.14899
297.81361
297.50267
297.21431
296.94688
296.69891
296.46907
296.25615
296.0591
295.87694
295.7088
295.55391
295.41155
295.2811
295.16198
295.0537
294.95579
294.86786
327.88475
322.66882
318.99352
316.16676
313.87785
311.96157
310.31972
308.88922
307.62706
306.50257
305.49306
304.58121
303.75347
302.99901
302.30901
301.67615
301.09433
300.55834
300.06372
299.60664
299.18372
298.79203
298.42899
298.0923
297.77991
297.49002
297.22099
296.97137
296.73985
296.52525
296.32652
296.1427
295.97293
295.81643
295.67251
295.54054
295.41996
295.31025
295.21098
295.12173
327.93662
322.77289
319.13404
316.33485
314.06771
312.16903
310.54162
309.123
307.87065
306.75422
305.75128
304.84473
304.0212
303.27
302.58244
301.95134
301.37066
300.8353
300.34088
299.88362
299.46022
299.06779
298.7038
298.36598
298.05234
297.76108
297.49061
297.23949
297.00643
296.79028
296.58998
296.4046
296.23329
296.07528
295.92987
295.79645
295.67445
295.56337
295.46276
295.37223
327.98685
322.87366
319.27013
316.49768
314.25171
312.37019
310.75687
309.34993
308.10725
306.99883
306.00246
305.10127
304.28204
303.53423
302.84927
302.22009
301.64074
301.1062
300.61217
300.15493
299.73124
299.33827
298.97351
298.63474
298.32001
298.02755
297.75578
297.5033
297.26884
297.05125
296.84951
296.66267
296.4899
296.33045
296.18363
296.04881
295.92545
295.81304
295.71114
295.61934
328.03554
322.97133
319.40204
316.65556
314.43016
312.56537
310.96584
309.57036
308.33722
307.23673
306.24693
305.35113
304.53628
303.79197
303.10974
302.48262
301.90477
301.37122
300.87776
300.42072
299.99692
299.60357
299.23821
298.89867
298.583
298.28949
298.01657
297.76286
297.52712
297.30821
297.10511
296.91691
296.74278
296.58197
296.43379
296.29765
296.17297
296.05927
295.9561
295.86306
328.08276
323.06606
319.53001
316.80876
314.60338
312.75489
311.16885
309.78461
308.56087
307.46824
306.48499
305.5946
304.78418
304.04346
303.36408
302.73915
302.16293
301.63054
301.13781
300.68113
300.25738
299.86381
299.49802
299.15784
298.84139
298.54696
298.27302
298.01821
297.7813
297.56117
297.35683
297.16736
296.99194
296.82984
296.68038
296.54295
296.41701
296.30206
296.19766
296.1034
328.12861
323.15802
319.65425
316.95753
314.77164
312.93905
311.3662
309.99298
308.7785
307.69364
306.7169
305.83194
305.026
304.28893
303.61249
302.98988
302.41542
301.88432
301.39245
300.93628
300.51273
300.1191
299.753
299.41234
299.09524
298.80002
298.52519
298.26939
298.03142
297.81018
297.60468
297.41402
297.2374
297.07408
296.92339
296.78474
296.65758
296.54142
296.43582
296.34037
328.17314
323.24736
319.77496
317.10209
314.93518
313.11812
311.55816
310.19576
308.99039
307.91321
306.94294
306.0634
305.26197
304.52862
303.8552
303.23499
302.66241
302.13271
301.64184
301.18632
300.7631
300.36953
300.00328
299.66225
299.34463
299.04874
298.77313
298.51645
298.27753
298.05527
297.8487
297.65693
297.47918
297.3147
297.16285
297.02303
296.89469
296.77736
296.67058
296.57397
328.21644
323.3342
319.89231
317.24265
315.09424
313.29233
311.74499
310.39319
309.19679
308.1272
307.16335
306.28921
305.49232
304.76272
304.09238
303.47467
302.90406
302.37588
301.88612
301.43136
301.0086
300.61522
300.24892
299.90766
299.58962
299.29319
299.0169
298.75945
298.51966
298.29647
298.08891
297.89612
297.7173
297.55173
297.39877
297.25782
297.12836
297.00988
296.90196
296.8042
328.25855
323.41868
320.00647
317.37942
315.24904
313.46192
311.92691
310.58552
309.39793
308.33584
307.37835
306.5096
305.71724
304.99144
304.32424
303.7091
303.14054
302.61396
302.12542
301.67153
301.24933
300.85626
300.49003
300.14864
299.8303
299.53342
299.25655
298.99842
298.75786
298.53382
298.32536
298.13161
297.95179
297.78519
297.63117
297.48915
297.35859
297.23901
297.12998
297.0311
328.29954
323.5009
320.11759
317.51257
315.39978
313.6271
312.10417
310.77297
309.59405
308.53935
307.58816
306.72477
305.93694
305.21496
304.55094
303.93842
303.372
302.84711
302.35988
301.90695
301.48542
301.09275
300.72669
300.38527
300.06673
299.7695
299.49215
299.23343
298.99218
298.76738
298.55808
298.36344
298.18268
298.01511
297.86008
297.71703
297.58541
297.46476
297.35464
297.25466
328.33947
323.58096
320.22581
317.64226
315.54663
313.78806
312.27694
310.95575
309.78535
308.73793
307.79298
306.93491
306.15161
305.43346
304.77266
304.16282
303.59858
303.07546
302.58961
302.13774
301.71696
301.32478
300.959
300.61764
300.29899
300.00149
299.72375
299.46452
299.22266
298.99716
298.7871
298.59163
298.41
298.2415
298.08552
297.94148
297.80885
297.68716
297.57598
297.47491
328.37837
323.65898
320.33127
317.76865
315.68977
313.94499
312.44543
311.13404
309.97203
308.93179
307.99299
307.1402
306.36142
305.64711
304.98955
304.38242
303.82043
303.29914
302.81475
302.364
301.94407
301.55247
301.18703
300.84583
300.52715
300.22947
299.95141
299.69174
299.44935
299.22323
299.01246
298.81623
298.63377
298.46441
298.30751
298.16252
298.02891
297.90621
297.794
297.69188
328.41629
323.73503
320.43408
317.89188
315.82935
314.09805
312.60981
311.30804
310.15425
309.12109
308.18838
307.34083
306.56654
305.85606
305.20177
304.59738
304.03769
303.51828
303.03541
302.58586
302.16683
301.77589
301.41088
301.06991
300.75128
300.45349
300.17519
299.91516
299.6723
299.44562
299.23421
299.03727
298.85404
298.68386
298.52609
298.38019
298.24563
298.12195
298.00873
297.90557
328.45327
323.8092
320.53435
318.01209
315.96553
314.24741
312.77025
311.47791
310.33221
309.306
308.37931
307.53694
306.76712
306.06048
305.40945
304.80784
304.25047
303.73299
303.2517
302.80341
302.38535
301.99513
301.63062
301.28995
300.97144
300.67362
300.39515
300.13482
299.89155
299.66437
299.45239
299.25479
299.07084
298.89987
298.74128
298.5945
298.45903
298.3344
298.2202
298.11602
328.48936
323.88156
320.63218
318.12939
316.09844
314.3932
312.92689
311.6438
310.50604
309.4867
308.56593
307.7287
306.96331
306.26049
305.61275
305.01392
304.45891
303.9434
303.46373
303.01675
302.59973
302.2103
301.84635
301.50604
301.18772
300.88992
300.61134
300.35078
300.10717
299.87954
299.66702
299.46882
299.2842
299.1125
298.95311
298.8055
298.66914
298.54359
298.42842
298.32325
328.52459
323.9522
320.72769
318.2439
316.2282
314.53557
313.07989
311.80586
310.67591
309.66332
308.7484
307.91625
307.15526
306.45625
305.81178
305.21576
304.66312
304.14962
303.67161
303.22599
302.81006
302.42146
302.05813
301.71824
301.40017
301.10246
300.82382
300.56308
300.31918
300.09117
299.87817
299.6794
299.49415
299.32176
299.16162
299.0132
298.876
298.74955
298.63344
298.52729
328.55899
324.02118
320.82095
318.35574
316.35495
314.67465
313.22937
311.96424
310.84195
309.836
308.92686
308.09973
307.3431
306.64787
306.00667
305.41346
304.86323
304.35175
303.87544
303.43122
303.01642
302.62871
302.26605
301.92664
301.60886
301.3113
301.03266
300.77179
300.52765
300.2993
300.08587
299.88658
299.70074
299.52769
299.36684
299.21764
299.07961
298.95229
298.83527
298.72816
328.5926
324.08855
320.91205
318.46499
316.47878
314.81056
313.37547
312.11906
311.0043
310.00488
309.10143
308.27926
307.52696
306.83549
306.19754
305.60715
305.05932
304.5499
304.07532
303.63253
303.2189
302.83212
302.47018
302.13129
301.81387
301.5165
301.23791
300.97696
300.73263
300.50398
300.29016
300.0904
299.90401
299.73033
299.5688
299.41886
299.28003
299.15187
299.03395
298.92589
328.62543
324.15439
321.00108
318.57176
316.59981
314.9434
313.5183
312.27044
311.16308
310.17009
309.27225
308.45498
307.70695
307.01921
306.38451
305.79693
305.25153
304.74417
304.27134
303.83001
303.41759
303.03179
302.6706
302.33228
302.01525
301.71812
301.43962
301.17865
300.93416
300.70525
300.49108
300.29089
300.10398
299.92972
299.76753
299.61688
299.47729
299.3483
299.2295
299.12053
328.65753
324.21874
321.08809
318.67613
316.71813
315.07329
313.65797
312.41851
311.31841
310.33175
309.43943
308.62699
307.8832
307.19916
306.56769
305.98291
305.43993
304.93465
304.46359
304.02376
303.61257
303.22777
302.86739
302.52967
302.21308
301.91622
301.63786
301.37689
301.1323
300.90318
300.68869
300.4881
300.30071
300.1259
299.96309
299.81175
299.67141
299.54161
299.42196
299.31208
328.68892
324.28166
321.17318
318.77819
316.83384
315.20033
313.7946
312.56337
311.4704
310.48995
309.60308
308.79541
308.05581
307.37543
306.74717
306.16518
305.62463
305.12145
304.65217
304.21385
303.80392
303.42016
303.0606
302.72353
302.40741
302.11086
301.83268
301.57175
301.32709
301.09779
300.88303
300.68207
300.49423
300.31889
300.15549
300.00349
299.86242
299.73185
299.61137
299.5006
328.71962
324.34319
321.25639
318.87801
316.94703
315.32461
313.92828
312.70512
311.61916
310.64482
309.7633
308.96035
308.22488
307.54814
306.92306
306.34386
305.80573
305.30463
304.83716
304.40037
303.99172
303.60902
303.25032
302.91392
302.5983
302.30211
302.02413
301.76329
301.51859
301.28914
301.07414
300.87284
300.68458
300.50875
300.34477
300.19214
300.05038
299.91905
299.79774
299.68611
328.74965
324.40339
321.3378
318.97567
317.05777
315.44622
314.0591
312.84387
311.76478
310.79646
309.92021
309.1219
308.39052
307.71738
307.09546
306.51902
305.9833
305.48431
305.01864
304.58339
304.17605
303.79443
303.43661
303.10091
302.78582
302.49001
302.21228
301.95154
301.70684
301.47727
301.26206
301.06046
300.87181
300.69551
300.53099
300.37774
300.2353
300.10323
299.98113
299.86864
328.77904
324.46229
321.41746
319.07124
317.16615
315.56524
314.18716
312.97969
311.90736
310.94495
310.0739
309.28016
308.55281
307.88323
307.26444
306.69076
306.15745
305.66055
305.19669
304.76299
304.35697
303.97645
303.61954
303.28457
302.97004
302.67463
302.39717
302.13657
301.89189
301.66224
301.44684
301.24496
301.05595
300.8792
300.71416
300.56033
300.41723
300.28444
300.16156
300.04823
328.80781
324.51995
321.49543
319.16479
317.27225
315.68176
314.31253
313.1127
312.047
311.09039
310.22446
309.43522
308.71186
308.0458
307.43011
306.85916
306.32825
305.83343
305.37139
304.93925
304.53456
304.15516
303.79917
303.46494
303.151
302.85603
302.57886
302.31843
302.0738
301.84409
301.62853
301.4264
301.23704
301.05987
300.89434
300.73993
300.5962
300.46271
300.33907
300.22491
328.83597
324.57639
321.57176
319.25637
317.37612
315.79586
314.43531
313.24295
312.18377
311.23288
310.37197
309.58718
308.86775
308.20516
307.59255
307.02431
306.49577
306.00304
305.54281
305.11224
304.70888
304.33062
303.97557
303.64211
303.32877
303.03425
302.7574
302.49716
302.2526
302.02286
301.80716
301.6048
301.41513
301.23757
301.07155
300.9166
300.77225
300.63808
300.51369
300.39873
328.86355
324.63165
321.6465
319.34605
317.47783
315.90759
314.55556
313.37054
312.31776
311.37248
310.51652
309.73611
309.02056
308.3614
307.75183
307.18627
306.66011
306.16945
305.71103
305.28203
304.88002
304.50289
304.1488
303.81612
303.5034
303.20936
302.93284
302.67282
302.42836
302.1986
301.98279
301.78023
301.59026
301.41232
301.24585
301.09037
300.94542
300.81058
300.68546
300.56971
328.89055
324.68577
321.7197
319.43387
317.57746
316.01704
314.67336
313.49555
312.44904
311.50928
310.65819
309.88209
309.17036
308.5146
307.90804
307.34514
306.82132
306.33273
305.87611
305.44868
305.04802
304.67204
304.31892
303.98703
303.67495
303.3814
303.10525
302.84546
302.60111
302.37136
302.15546
301.95271
301.76247
301.58416
301.41726
301.26127
301.11574
300.98025
300.85442
300.73789
328.91701
324.73878
321.7914
319.51991
317.67506
316.12426
314.78877
313.61803
312.5777
311.64336
310.79706
310.0252
309.31724
308.66483
308.06124
307.50098
306.97949
306.49295
306.03813
305.61226
305.21296
304.83814
304.48599
304.15491
303.84348
303.55044
303.27466
303.01512
302.7709
302.54119
302.32521
302.12229
301.9318
301.75315
301.58583
301.42934
301.28325
301.14713
301.0206
300.9033
328.94293
324.79072
321.86165
319.6042
317.77068
316.22933
314.90187
313.73807
312.70379
311.77478
310.9332
310.16552
309.46127
308.81217
308.21151
307.65386
307.13468
306.65018
306.19715
305.77285
305.37489
305.00123
304.65006
304.3198
304.00903
303.71652
303.44112
303.18185
302.93779
302.70812
302.49209
302.28902
302.09828
301.91932
301.75159
301.59463
301.44799
301.31125
301.18403
301.06599
328.96833
324.84161
321.93048
319.6868
317.86439
316.33229
315.01271
313.85572
312.82739
311.90362
311.06667
310.30311
309.60252
308.95668
308.35893
307.80385
307.28696
306.80449
306.35324
305.93049
305.53388
305.16138
304.8112
304.48176
304.17167
303.87969
303.6047
303.34571
303.10182
302.8722
302.65613
302.45293
302.26198
302.0827
301.9146
301.75717
301.60999
301.47265
301.34477
301.22599
328.99323
324.89148
321.99793
319.76774
317.95623
316.4332
315.12135
313.97105
312.94857
312.02994
311.19755
310.43804
309.74106
309.09843
308.50354
307.95102
307.4364
306.95593
306.50644
306.08524
305.68999
305.31865
304.96946
304.64086
304.33145
304.04001
303.76543
303.50674
303.26302
303.03349
302.81739
302.61407
302.42291
302.24335
302.07487
301.917
301.7693
301.63137
301.50283
301.38334
329.01763
324.94036
322.06404
319.84709
318.04625
316.53213
315.22786
314.08412
313.06738
312.15381
311.3259
310.57037
309.87695
309.23749
308.64543
308.09543
307.58305
307.10457
306.65684
306.23718
305.84327
305.4731
305.1249
304.79713
304.48841
304.19752
303.92337
303.66498
303.42146
303.19201
302.97591
302.77248
302.58113
302.40129
302.23246
302.07416
301.92595
301.78745
301.65827
301.53807
329.04155
324.98828
322.12885
319.92487
318.1345
316.62911
315.33229
314.19499
313.18388
312.27528
311.45178
310.70018
310.01025
309.37392
308.78465
308.23714
307.72698
307.25046
306.80448
306.38635
305.99378
305.62477
305.27756
304.95063
304.6426
304.35227
304.07856
303.82048
303.57717
303.34782
303.13172
302.9282
302.73667
302.55657
302.3874
302.22868
302.07999
301.94092
301.81111
301.69021
329.065
325.03526
322.19239
320.00112
318.22103
316.7242
315.43469
314.30371
313.29813
312.39442
311.57525
310.82751
310.14103
309.50777
308.92126
308.37621
307.86824
307.39368
306.94942
306.53281
306.14157
305.77372
305.4275
305.10141
304.79408
304.50432
304.23105
303.9733
303.7302
303.50096
303.28487
303.08128
302.88958
302.70923
302.53973
302.3806
302.23143
302.09182
301.96139
301.83982
329.08799
325.08132
322.2547
320.0759
318.30587
316.81745
315.5351
314.41033
313.41019
312.51128
311.69637
310.95242
310.26934
309.63912
309.05532
308.5127
308.0069
307.53426
307.09172
306.67662
306.2867
305.92
305.57478
305.24952
304.9429
304.6537
304.38088
304.12346
303.88059
303.65147
303.43541
303.23175
303.03989
302.85931
302.68949
302.52997
302.38034
302.24019
302.10916
301.98691
329.11055
325.12649
322.31579
320.14922
318.38908
316.9089
315.63359
314.51491
313.52011
312.62591
311.81519
311.07498
310.39523
309.768
309.18689
308.64666
308.143
307.67227
307.23142
306.81782
306.42922
306.06366
305.71943
305.39501
305.08909
304.80047
304.5281
304.27102
304.02838
303.7994
303.58337
303.37965
303.18765
303.00684
302.83671
302.67682
302.52673
302.38606
302.25444
302.13153
329.13266
325.17079
322.37571
320.22113
318.47068
316.9986
315.73018
314.61749
313.62794
312.73837
311.93176
311.19523
310.51877
309.89449
309.31601
308.77815
308.2766
307.80777
307.36859
306.95648
306.56918
306.20476
305.86151
305.53793
305.23272
304.94467
304.67276
304.41603
304.17362
303.94478
303.72879
303.52502
303.3329
303.15187
302.98145
302.82118
302.67065
302.52947
302.39727
302.27372
329.15436
325.21424
322.43448
320.29167
318.55073
317.08658
315.82494
314.71812
313.73372
312.8487
312.04615
311.31323
310.64001
310.01862
309.44275
308.90722
308.40776
307.94079
307.50327
307.09263
306.70663
306.34333
306.00106
305.67833
305.37381
305.08635
304.8149
304.55851
304.31635
304.08765
303.87172
303.66791
303.47566
303.29443
303.12372
302.9631
302.81214
302.67045
302.53769
302.41351
329.17564
325.25686
322.49212
320.36086
318.62925
317.17289
315.9179
314.81685
313.8375
312.95696
312.15839
311.42902
310.75898
310.14046
309.56715
309.03392
308.53652
308.07139
307.63551
307.22632
306.84161
306.47944
306.13814
305.81624
305.51243
305.22554
304.95455
304.69852
304.45661
304.22807
304.01219
303.80836
303.61599
303.43456
303.26358
303.10261
302.95123
302.80906
302.67573
302.55093
329.19652
325.29867
322.54868
320.42874
318.70628
317.25757
316.00911
314.91372
313.93934
313.06319
312.26853
311.54266
310.87575
310.26004
309.68926
309.1583
308.66293
308.19962
307.76537
307.35762
306.97417
306.61312