/*--------------------------------*- C++ -*----------------------------------*\
| =========                 |                                                 |
| \\      /  F ield         | OpenFOAM: The Open Source CFD Toolbox           |
|  \\    /   O peration     | Version:  2506                                  |
|   \\  /    A nd           | Website:  www.openfoam.com                      |
|    \\/     M anipulation  |                                                 |
\*---------------------------------------------------------------------------*/
FoamFile
{
    version     2.0;
    format      ascii;
    arch        "LSB;label=32;scalar=64";
    class       volScalarField;
    location    "7000/water";
    object      T;
}
// * * * * * * * * * * * * * * * * * * * * * * * * * * * * * * * * * * * * * //

dimensions      [0 0 0 1 0 0 0];

internalField   nonuniform List<scalar> 
6000
(
333.15
333.15
333.15
333.15
333.15
333.15
333.15
333.15
333.15
333.15
333.15
333.14998
333.14989
333.14924
333.14254
333.15
333.15
333.15
333.15
333.15
333.15
333.15
333.15
333.15
333.15
333.14999
333.14994
333.14968
333.14816
333.13663
333.15
333.15
333.15
333.15
333.15
333.15
333.15
333.15
333.15
333.14999
333.14997
333.14987
333.14939
333.14688
333.13166
333.15
333.15
333.15
333.15
333.15
333.15
333.15
333.15
333.15
333.14999
333.14994
333.14976
333.14902
333.14546
333.12731
333.15
333.15
333.15
333.15
333.15
333.15
333.15
333.15
333.14999
333.14997
333.1499
333.14963
333.1486
333.14393
333.1234
333.15
333.15
333.15
333.15
333.15
333.15
333.15
333.15
333.14999
333.14996
333.14985
333.14947
333.14812
333.14234
333.11984
333.15
333.15
333.15
333.15
333.15
333.15
333.15
333.14999
333.14998
333.14993
333.14978
333.14929
333.14759
333.14069
333.11656
333.15
333.15
333.15
333.15
333.15
333.15
333.15
333.14999
333.14997
333.14991
333.1497
333.14908
333.14702
333.13901
333.11352
333.15
333.15
333.15
333.15
333.15
333.15
333.15
333.14999
333.14996
333.14987
333.14961
333.14886
333.14641
333.1373
333.11068
333.15
333.15
333.15
333.15
333.15
333.15
333.14999
333.14998
333.14994
333.14983
333.14951
333.14861
333.14576
333.13559
333.10803
333.15
333.15
333.15
333.15
333.15
333.15
333.14999
333.14998
333.14993
333.14978
333.1494
333.14835
333.14507
333.13387
333.10554
333.15
333.15
333.15
333.15
333.15
333.15
333.14999
333.14997
333.1499
333.14973
333.14928
333.14806
333.14434
333.13216
333.10321
333.15
333.15
333.15
333.15
333.15
333.14999
333.14998
333.14996
333.14988
333.14967
333.14915
333.14776
333.14357
333.13046
333.10103
333.15
333.15
333.15
333.15
333.15
333.14999
333.14998
333.14994
333.14985
333.14961
333.14901
333.14743
333.14276
333.12879
333.09899
333.15
333.15
333.15
333.15
333.15
333.14999
333.14997
333.14993
333.14982
333.14954
333.14885
333.14709
333.1419
333.12714
333.09709
333.15
333.15
333.15
333.15
333.15
333.14999
333.14997
333.14991
333.14978
333.14946
333.14869
333.14671
333.14101
333.12552
333.09533
333.15
333.15
333.15
333.15
333.14999
333.14998
333.14996
333.1499
333.14974
333.14938
333.14852
333.14631
333.14006
333.12395
333.09369
333.15
333.15
333.15
333.15
333.14999
333.14998
333.14995
333.14988
333.1497
333.14929
333.14833
333.14589
333.13908
333.12242
333.09219
333.15
333.15
333.15
333.15
333.14999
333.14998
333.14994
333.14985
333.14965
333.14919
333.14813
333.14543
333.13805
333.12094
333.09081
333.15
333.15
333.15
333.14999
333.14999
333.14997
333.14993
333.14983
333.1496
333.14909
333.14791
333.14493
333.13699
333.11951
333.08955
333.15
333.15
333.15
333.14999
333.14999
333.14997
333.14992
333.1498
333.14955
333.14898
333.14768
333.1444
333.13589
333.11814
333.08839
333.15
333.15
333.15
333.14999
333.14998
333.14996
333.1499
333.14977
333.14949
333.14886
333.14743
333.14383
333.13478
333.11684
333.08735
333.15
333.15
333.15
333.14999
333.14998
333.14995
333.14989
333.14974
333.14942
333.14874
333.14717
333.14322
333.13364
333.1156
333.0864
333.15
333.15
333.14999
333.14999
333.14998
333.14994
333.14987
333.14971
333.14936
333.1486
333.14688
333.14257
333.13249
333.11442
333.08553
333.15
333.15
333.14999
333.14999
333.14997
333.14993
333.14985
333.14967
333.14928
333.14846
333.14656
333.14188
333.13135
333.1133
333.08475
333.15
333.15
333.14999
333.14998
333.14997
333.14992
333.14983
333.14963
333.14921
333.1483
333.14622
333.14115
333.13021
333.11225
333.08404
333.15
333.15
333.14999
333.14998
333.14996
333.14991
333.14981
333.14959
333.14912
333.14813
333.14585
333.14037
333.12909
333.11125
333.08339
333.15
333.14999
333.14999
333.14998
333.14995
333.1499
333.14978
333.14954
333.14904
333.14795
333.14545
333.13957
333.12799
333.11031
333.08281
333.15
333.14999
333.14999
333.14998
333.14995
333.14989
333.14976
333.14949
333.14894
333.14776
333.14502
333.13874
333.12693
333.10942
333.08227
333.14999
333.14999
333.14999
333.14997
333.14994
333.14987
333.14973
333.14944
333.14884
333.14754
333.14456
333.13788
333.12589
333.10858
333.08177
333.14999
333.14999
333.14998
333.14997
333.14993
333.14986
333.1497
333.14938
333.14873
333.14731
333.14406
333.13701
333.12489
333.10779
333.08132
333.14999
333.14999
333.14998
333.14996
333.14992
333.14984
333.14967
333.14932
333.14861
333.14706
333.14353
333.13612
333.12393
333.10704
333.0809
333.14999
333.14999
333.14998
333.14996
333.14991
333.14982
333.14963
333.14925
333.14848
333.14678
333.14296
333.13524
333.123
333.10633
333.08051
333.14999
333.14999
333.14998
333.14995
333.1499
333.1498
333.1496
333.14918
333.14833
333.14649
333.14236
333.13435
333.12211
333.10566
333.08014
333.14999
333.14998
333.14997
333.14995
333.14989
333.14978
333.14956
333.14911
333.14818
333.14616
333.14174
333.13348
333.12126
333.10502
333.0798
333.14999
333.14998
333.14997
333.14994
333.14988
333.14976
333.14951
333.14903
333.14802
333.14582
333.14109
333.13261
333.12045
333.10442
333.07949
333.14999
333.14998
333.14997
333.14993
333.14987
333.14973
333.14947
333.14894
333.14784
333.14544
333.14042
333.13176
333.11967
333.10384
333.07919
333.14998
333.14998
333.14996
333.14993
333.14985
333.14971
333.14942
333.14884
333.14764
333.14504
333.13973
333.13093
333.11892
333.10329
333.07891
333.14998
333.14997
333.14996
333.14992
333.14984
333.14968
333.14936
333.14874
333.14743
333.14461
333.13903
333.13012
333.1182
333.10277
333.07864
333.14998
333.14997
333.14995
333.14991
333.14982
333.14965
333.14931
333.14862
333.1472
333.14416
333.13832
333.12933
333.11751
333.10227
333.07839
333.14998
333.14997
333.14995
333.1499
333.1498
333.14961
333.14924
333.1485
333.14695
333.14368
333.13761
333.12856
333.11685
333.10179
333.07816
333.14997
333.14996
333.14994
333.14989
333.14978
333.14958
333.14918
333.14837
333.14668
333.14317
333.1369
333.12782
333.11622
333.10133
333.07793
333.14997
333.14996
333.14993
333.14988
333.14976
333.14954
333.1491
333.14823
333.14639
333.14265
333.13619
333.12709
333.11561
333.10089
333.07771
333.14997
333.14996
333.14993
333.14986
333.14974
333.1495
333.14902
333.14807
333.14607
333.14211
333.13548
333.12639
333.11502
333.10047
333.07751
333.14996
333.14995
333.14992
333.14985
333.14972
333.14945
333.14894
333.1479
333.14574
333.14155
333.13479
333.12571
333.11446
333.10007
333.07731
333.14996
333.14995
333.14991
333.14984
333.14969
333.14941
333.14885
333.14771
333.14538
333.14097
333.1341
333.12505
333.11391
333.09968
333.07712
333.14995
333.14994
333.1499
333.14982
333.14966
333.14935
333.14875
333.14752
333.145
333.14039
333.13342
333.12441
333.11339
333.0993
333.07694
333.14995
333.14993
333.14989
333.1498
333.14963
333.1493
333.14864
333.1473
333.1446
333.1398
333.13276
333.12379
333.11288
333.09894
333.07677
333.14994
333.14993
333.14988
333.14978
333.1496
333.14923
333.14852
333.14707
333.14419
333.13921
333.1321
333.12319
333.11239
333.09859
333.0766
333.14994
333.14992
333.14987
333.14976
333.14956
333.14917
333.14839
333.14682
333.14375
333.13861
333.13147
333.12261
333.11192
333.09826
333.07644
333.14993
333.14991
333.14986
333.14974
333.14952
333.1491
333.14825
333.14655
333.14329
333.13801
333.13084
333.12205
333.11147
333.09793
333.07629
333.14992
333.1499
333.14984
333.14972
333.14948
333.14902
333.1481
333.14626
333.14283
333.13742
333.13023
333.1215
333.11102
333.09762
333.07614
333.14992
333.14989
333.14983
333.14969
333.14944
333.14893
333.14793
333.14595
333.14234
333.13683
333.12963
333.12097
333.11059
333.09731
333.076
333.14991
333.14988
333.14981
333.14967
333.14939
333.14884
333.14776
333.14563
333.14185
333.13624
333.12905
333.12045
333.11018
333.09702
333.07586
333.1499
333.14987
333.14979
333.14964
333.14933
333.14874
333.14757
333.14529
333.14135
333.13566
333.12848
333.11995
333.10978
333.09673
333.07573
333.14989
333.14986
333.14978
333.14961
333.14928
333.14863
333.14736
333.14493
333.14084
333.13508
333.12792
333.11946
333.10938
333.09645
333.0756
333.14988
333.14985
333.14976
333.14957
333.14921
333.14851
333.14714
333.14455
333.14033
333.13452
333.12738
333.11899
333.109
333.09618
333.07547
333.14987
333.14983
333.14973
333.14953
333.14915
333.14839
333.1469
333.14416
333.13981
333.13396
333.12685
333.11853
333.10863
333.09592
333.07535
333.14986
333.14982
333.14971
333.14949
333.14907
333.14825
333.14665
333.14376
333.13929
333.13341
333.12633
333.11808
333.10827
333.09566
333.07523
333.14984
333.1498
333.14968
333.14945
333.14899
333.1481
333.14638
333.14334
333.13878
333.13286
333.12582
333.11764
333.10792
333.09542
333.07512
333.14983
333.14978
333.14966
333.1494
333.1489
333.14793
333.14609
333.14291
333.13826
333.13233
333.12533
333.11721
333.10758
333.09517
333.07501
333.14981
333.14976
333.14963
333.14935
333.14881
333.14776
333.14579
333.14247
333.13774
333.13181
333.12484
333.1168
333.10725
333.09494
333.0749
333.1498
333.14974
333.14959
333.14929
333.14871
333.14757
333.14547
333.14203
333.13723
333.13129
333.12437
333.11639
333.10693
333.09471
333.07479
333.14978
333.14972
333.14956
333.14923
333.14859
333.14737
333.14514
333.14158
333.13672
333.13078
333.12391
333.116
333.10661
333.09448
333.07469
333.14976
333.14969
333.14952
333.14916
333.14847
333.14715
333.14479
333.14112
333.13621
333.13029
333.12345
333.11561
333.1063
333.09426
333.07459
333.14974
333.14967
333.14948
333.14909
333.14834
333.14692
333.14443
333.14066
333.13571
333.1298
333.12301
333.11523
333.106
333.09405
333.07449
333.14972
333.14964
333.14943
333.14901
333.1482
333.14668
333.14406
333.1402
333.13522
333.12932
333.12258
333.11486
333.1057
333.09384
333.0744
333.14969
333.1496
333.14938
333.14893
333.14805
333.14642
333.14368
333.13973
333.13473
333.12885
333.12215
333.1145
333.10542
333.09363
333.0743
333.14966
333.14957
333.14933
333.14883
333.14788
333.14614
333.14329
333.13927
333.13424
333.12839
333.12174
333.11415
333.10513
333.09343
333.07421
333.14963
333.14953
333.14927
333.14873
333.1477
333.14585
333.14289
333.1388
333.13376
333.12793
333.12133
333.1138
333.10486
333.09323
333.07412
333.1496
333.14949
333.1492
333.14862
333.14751
333.14555
333.14248
333.13834
333.13329
333.12749
333.12093
333.11346
333.10458
333.09304
333.07403
333.14957
333.14944
333.14913
333.1485
333.14731
333.14523
333.14207
333.13787
333.13282
333.12705
333.12054
333.11313
333.10432
333.09285
333.07394
333.14953
333.14939
333.14905
333.14837
333.14709
333.1449
333.14165
333.13741
333.13236
333.12662
333.12016
333.1128
333.10406
333.09266
333.07386
333.14948
333.14934
333.14897
333.14823
333.14686
333.14456
333.14123
333.13695
333.13191
333.1262
333.11978
333.11249
333.1038
333.09248
333.07377
333.14944
333.14928
333.14888
333.14808
333.14661
333.14421
333.1408
333.1365
333.13146
333.12578
333.11942
333.11217
333.10355
333.0923
333.07369
333.14939
333.14922
333.14878
333.14791
333.14635
333.14385
333.14037
333.13605
333.13102
333.12537
333.11905
333.11186
333.10331
333.09212
333.0736
333.14933
333.14915
333.14867
333.14774
333.14608
333.14349
333.13994
333.1356
333.13059
333.12497
333.1187
333.11156
333.10307
333.09195
333.07352
333.14927
333.14907
333.14855
333.14755
333.14579
333.14311
333.13951
333.13515
333.13016
333.12457
333.11835
333.11127
333.10283
333.09178
333.07344
333.1492
333.14898
333.14842
333.14734
333.14549
333.14272
333.13908
333.13471
333.12973
333.12419
333.118
333.11098
333.1026
333.09161
333.07336
333.14913
333.14889
333.14828
333.14713
333.14518
333.14233
333.13865
333.13427
333.12931
333.1238
333.11767
333.11069
333.10237
333.09144
333.07328
333.14904
333.14879
333.14813
333.1469
333.14486
333.14194
333.13822
333.13384
333.1289
333.12343
333.11733
333.11041
333.10214
333.09128
333.0732
333.14896
333.14868
333.14797
333.14665
333.14453
333.14154
333.13779
333.13341
333.1285
333.12306
333.11701
333.11013
333.10192
333.09112
333.07312
333.14886
333.14855
333.14779
333.1464
333.14418
333.14114
333.13736
333.13299
333.1281
333.12269
333.11669
333.10986
333.1017
333.09096
333.07304
333.14875
333.14842
333.1476
333.14612
333.14383
333.14073
333.13693
333.13257
333.1277
333.12233
333.11637
333.10959
333.10148
333.0908
333.07296
333.14863
333.14828
333.1474
333.14584
333.14347
333.14032
333.13651
333.13215
333.12731
333.12198
333.11606
333.10933
333.10127
333.09064
333.07288
333.1485
333.14812
333.14718
333.14554
333.1431
333.13991
333.13609
333.13174
333.12692
333.12163
333.11575
333.10907
333.10106
333.09049
333.0728
333.14836
333.14795
333.14695
333.14523
333.14273
333.1395
333.13567
333.13133
333.12654
333.12128
333.11545
333.10881
333.10085
333.09034
333.07272
333.1482
333.14776
333.1467
333.14491
333.14234
333.13908
333.13525
333.13093
333.12617
333.12095
333.11515
333.10856
333.10065
333.09019
333.07264
333.14803
333.14756
333.14644
333.14458
333.14196
333.13867
333.13483
333.13053
333.1258
333.12061
333.11486
333.10831
333.10044
333.09004
333.07257
333.14784
333.14735
333.14617
333.14423
333.14156
333.13825
333.13442
333.13013
333.12543
333.12028
333.11457
333.10806
333.10024
333.08989
333.07249
333.14764
333.14711
333.14587
333.14388
333.14117
333.13784
333.13401
333.12974
333.12507
333.11996
333.11429
333.10782
333.10005
333.08974
333.07241
333.14742
333.14686
333.14557
333.14352
333.14077
333.13743
333.1336
333.12936
333.12471
333.11964
333.114
333.10758
333.09985
333.08959
333.07233
333.14718
333.14659
333.14525
333.14315
333.14036
333.13701
333.13319
333.12897
333.12436
333.11932
333.11373
333.10734
333.09966
333.08945
333.07225
333.14693
333.14631
333.14491
333.14276
333.13995
333.1366
333.13279
333.12859
333.12401
333.11901
333.11345
333.10711
333.09946
333.0893
333.07217
333.14665
333.14601
333.14456
333.14238
333.13954
333.13619
333.13239
333.12822
333.12367
333.1187
333.11318
333.10688
333.09927
333.08916
333.07209
333.14635
333.14568
333.1442
333.14198
333.13913
333.13577
333.132
333.12785
333.12333
333.11839
333.11291
333.10665
333.09909
333.08902
333.07201
333.14603
333.14535
333.14383
333.14158
333.13872
333.13536
333.1316
333.12748
333.12299
333.11809
333.11265
333.10642
333.0989
333.08888
333.07193
333.1457
333.14499
333.14344
333.14117
333.1383
333.13495
333.13121
333.12712
333.12266
333.11779
333.11238
333.10619
333.09871
333.08874
333.07185
333.14534
333.14462
333.14305
333.14076
333.13788
333.13455
333.13083
333.12676
333.12233
333.11749
333.11212
333.10597
333.09853
333.0886
333.07177
333.14496
333.14423
333.14264
333.14034
333.13746
333.13414
333.13044
333.1264
333.122
333.1172
333.11187
333.10575
333.09835
333.08846
333.07168
333.14457
333.14382
333.14222
333.13991
333.13704
333.13373
333.13006
333.12604
333.12168
333.11691
333.11161
333.10553
333.09817
333.08832
333.0716
333.14416
333.1434
333.14179
333.13948
333.13662
333.13333
333.12968
333.12569
333.12136
333.11663
333.11136
333.10532
333.09799
333.08818
333.07152
333.14373
333.14297
333.14136
333.13905
333.1362
333.13293
333.1293
333.12534
333.12104
333.11634
333.11111
333.1051
333.09781
333.08804
333.07143
333.14328
333.14252
333.14091
333.13861
333.13578
333.13253
333.12893
333.125
333.12073
333.11606
333.11086
333.10489
333.09763
333.0879
333.07135
333.14282
333.14207
333.14046
333.13817
333.13535
333.13213
333.12855
333.12465
333.12042
333.11578
333.11062
333.10467
333.09745
333.08776
333.07126
333.14235
333.1416
333.14
333.13772
333.13493
333.13173
333.12818
333.12431
333.12011
333.1155
333.11037
333.10446
333.09728
333.08763
333.07117
333.14186
333.14112
333.13953
333.13728
333.13451
333.13133
333.12781
333.12398
333.1198
333.11523
333.11013
333.10425
333.0971
333.08749
333.07109
333.14137
333.14063
333.13906
333.13683
333.13408
333.13093
333.12745
333.12364
333.1195
333.11496
333.10989
333.10405
333.09693
333.08735
333.071
333.14087
333.14013
333.13858
333.13637
333.13366
333.13054
333.12708
333.12331
333.1192
333.11469
333.10965
333.10384
333.09675
333.08721
333.07091
333.14035
333.13963
333.1381
333.13592
333.13323
333.13014
333.12672
333.12297
333.11889
333.11442
333.10941
333.10363
333.09658
333.08707
333.07082
333.13984
333.13913
333.13762
333.13546
333.13281
333.12975
333.12636
333.12264
333.1186
333.11415
333.10918
333.10343
333.09641
333.08694
333.07072
333.13931
333.13861
333.13713
333.13501
333.13238
333.12936
333.12599
333.12232
333.1183
333.11388
333.10894
333.10322
333.09623
333.0868
333.07063
333.13879
333.1381
333.13664
333.13455
333.13196
333.12896
333.12564
333.12199
333.118
333.11362
333.10871
333.10302
333.09606
333.08666
333.07054
333.13826
333.13758
333.13615
333.13409
333.13153
333.12857
333.12528
333.12166
333.11771
333.11336
333.10847
333.10282
333.09589
333.08652
333.07044
333.13772
333.13706
333.13565
333.13363
333.1311
333.12818
333.12492
333.12134
333.11742
333.1131
333.10824
333.10261
333.09572
333.08638
333.07035
333.13719
333.13654
333.13516
333.13317
333.13068
333.12779
333.12457
333.12102
333.11713
333.11283
333.10801
333.10241
333.09555
333.08624
333.07025
333.13665
333.13602
333.13466
333.1327
333.13026
333.12741
333.12421
333.1207
333.11684
333.11258
333.10778
333.10221
333.09537
333.0861
333.07015
333.13612
333.1355
333.13417
333.13224
333.12983
333.12702
333.12386
333.12038
333.11655
333.11232
333.10755
333.10201
333.0952
333.08596
333.07005
333.13558
333.13498
333.13367
333.13178
333.12941
333.12663
333.12351
333.12006
333.11626
333.11206
333.10732
333.10181
333.09503
333.08582
333.06994
333.13505
333.13446
333.13318
333.13132
333.12899
333.12625
333.12316
333.11974
333.11598
333.1118
333.10709
333.10161
333.09486
333.08567
333.06984
333.13452
333.13394
333.13269
333.13087
333.12857
333.12586
333.12281
333.11942
333.11569
333.11155
333.10687
333.10141
333.09468
333.08553
333.06973
333.13399
333.13342
333.1322
333.13041
333.12815
333.12548
333.12246
333.11911
333.1154
333.11129
333.10664
333.10121
333.09451
333.08538
333.06963
333.13347
333.13291
333.13171
333.12996
333.12773
333.1251
333.12211
333.11879
333.11512
333.11104
333.10641
333.10101
333.09434
333.08524
333.06952
333.13295
333.1324
333.13122
333.1295
333.12731
333.12471
333.12176
333.11848
333.11484
333.11078
333.10618
333.10081
333.09416
333.08509
333.06941
333.13243
333.13189
333.13074
333.12905
333.12689
333.12433
333.12142
333.11817
333.11455
333.11053
333.10596
333.10061
333.09399
333.08494
333.06929
333.13191
333.13139
333.13026
333.1286
333.12648
333.12396
333.12107
333.11785
333.11427
333.11027
333.10573
333.10041
333.09381
333.0848
333.06918
333.1314
333.13089
333.12978
333.12816
333.12607
333.12358
333.12073
333.11754
333.11399
333.11002
333.1055
333.1002
333.09364
333.08465
333.06906
333.13089
333.13039
333.12931
333.12771
333.12566
333.1232
333.12039
333.11723
333.11371
333.10977
333.10528
333.1
333.09346
333.08449
333.06894
333.13039
333.1299
333.12884
333.12727
333.12525
333.12283
333.12005
333.11692
333.11343
333.10951
333.10505
333.0998
333.09328
333.08434
333.06882
333.12989
333.12941
333.12837
333.12683
333.12484
333.12245
333.11971
333.11661
333.11315
333.10926
333.10482
333.0996
333.0931
333.08419
333.0687
333.1294
333.12893
333.12791
333.1264
333.12444
333.12208
333.11937
333.1163
333.11287
333.10901
333.1046
333.09939
333.09292
333.08403
333.06858
333.12891
333.12845
333.12745
333.12596
333.12404
333.12171
333.11903
333.11599
333.11259
333.10876
333.10437
333.09919
333.09274
333.08388
333.06845
333.12843
333.12798
333.12699
333.12553
333.12364
333.12135
333.11869
333.11569
333.11231
333.1085
333.10414
333.09899
333.09256
333.08372
333.06832
333.12795
333.12751
333.12654
333.12511
333.12324
333.12098
333.11836
333.11538
333.11203
333.10825
333.10391
333.09878
333.09238
333.08356
333.06819
333.12748
333.12704
333.1261
333.12468
333.12284
333.12062
333.11802
333.11508
333.11175
333.108
333.10368
333.09858
333.09219
333.0834
333.06805
333.12701
333.12658
333.12565
333.12426
333.12245
333.12025
333.11769
333.11477
333.11148
333.10775
333.10345
333.09837
333.09201
333.08323
333.06792
333.12654
333.12613
333.12521
333.12385
333.12206
333.11989
333.11736
333.11447
333.1112
333.10749
333.10323
333.09816
333.09182
333.08307
333.06778
333.12608
333.12567
333.12478
333.12343
333.12168
333.11953
333.11703
333.11417
333.11092
333.10724
333.103
333.09795
333.09164
333.0829
333.06764
333.12563
333.12523
333.12435
333.12302
333.12129
333.11918
333.1167
333.11386
333.11065
333.10699
333.10277
333.09775
333.09145
333.08273
333.0675
333.12518
333.12479
333.12392
333.12262
333.12091
333.11882
333.11637
333.11356
333.11037
333.10674
333.10254
333.09754
333.09126
333.08256
333.06735
333.12474
333.12435
333.1235
333.12222
333.12053
333.11847
333.11605
333.11326
333.11009
333.10648
333.1023
333.09732
333.09107
333.08239
333.0672
333.1243
333.12391
333.12308
333.12182
333.12016
333.11812
333.11572
333.11296
333.10982
333.10623
333.10207
333.09711
333.09087
333.08222
333.06705
333.12386
333.12349
333.12266
333.12142
333.11978
333.11777
333.1154
333.11266
333.10954
333.10598
333.10184
333.0969
333.09068
333.08204
333.0669
333.12343
333.12306
333.12225
333.12103
333.11941
333.11742
333.11508
333.11237
333.10927
333.10573
333.10161
333.09669
333.09048
333.08187
333.06674
333.12301
333.12264
333.12184
333.12064
333.11904
333.11708
333.11476
333.11207
333.109
333.10547
333.10138
333.09647
333.09029
333.08169
333.06659
333.12259
333.12223
333.12144
333.12025
333.11868
333.11674
333.11444
333.11177
333.10872
333.10522
333.10114
333.09626
333.09009
333.08151
333.06643
333.12217
333.12182
333.12104
333.11987
333.11832
333.1164
333.11412
333.11148
333.10845
333.10497
333.10091
333.09604
333.08989
333.08132
333.06626
333.12176
333.12141
333.12065
333.11949
333.11796
333.11606
333.1138
333.11118
333.10818
333.10471
333.10068
333.09583
333.08969
333.08114
333.0661
333.12135
333.12101
333.12026
333.11912
333.1176
333.11572
333.11349
333.11089
333.1079
333.10446
333.10044
333.09561
333.08949
333.08095
333.06593
333.12095
333.12061
333.11987
333.11874
333.11725
333.11539
333.11318
333.1106
333.10763
333.10421
333.10021
333.09539
333.08928
333.08076
333.06576
333.12055
333.12022
333.11949
333.11837
333.11689
333.11506
333.11286
333.11031
333.10736
333.10396
333.09997
333.09517
333.08908
333.08057
333.06559
333.12016
333.11983
333.11911
333.11801
333.11655
333.11473
333.11255
333.11002
333.10709
333.1037
333.09973
333.09495
333.08887
333.08038
333.06541
333.11977
333.11944
333.11873
333.11765
333.1162
333.1144
333.11225
333.10973
333.10682
333.10345
333.0995
333.09473
333.08867
333.08019
333.06524
333.11938
333.11906
333.11836
333.11729
333.11586
333.11407
333.11194
333.10944
333.10655
333.1032
333.09926
333.0945
333.08846
333.08
333.06506
333.119
333.11868
333.11799
333.11693
333.11551
333.11375
333.11163
333.10915
333.10628
333.10294
333.09902
333.09428
333.08825
333.0798
333.06488
333.11862
333.11831
333.11762
333.11658
333.11518
333.11343
333.11133
333.10887
333.10601
333.10269
333.09878
333.09406
333.08804
333.0796
333.0647
333.11825
333.11794
333.11726
333.11623
333.11484
333.11311
333.11103
333.10858
333.10574
333.10244
333.09854
333.09383
333.08782
333.0794
333.06451
333.11788
333.11757
333.1169
333.11588
333.11451
333.11279
333.11072
333.1083
333.10547
333.10218
333.09831
333.09361
333.08761
333.0792
333.06432
333.11751
333.11721
333.11655
333.11553
333.11418
333.11247
333.11042
333.10801
333.1052
333.10193
333.09807
333.09338
333.0874
333.079
333.06413
333.11715
333.11685
333.11619
333.11519
333.11385
333.11216
333.11013
333.10773
333.10493
333.10168
333.09783
333.09315
333.08718
333.07879
333.06394
333.11679
333.11649
333.11584
333.11485
333.11352
333.11185
333.10983
333.10745
333.10467
333.10142
333.09759
333.09292
333.08696
333.07858
333.06375
333.11643
333.11614
333.1155
333.11452
333.1132
333.11154
333.10953
333.10716
333.1044
333.10117
333.09734
333.09269
333.08674
333.07838
333.06355
333.11608
333.11579
333.11515
333.11418
333.11287
333.11123
333.10924
333.10688
333.10413
333.10091
333.0971
333.09246
333.08652
333.07817
333.06336
333.11573
333.11545
333.11481
333.11385
333.11255
333.11092
333.10894
333.1066
333.10387
333.10066
333.09686
333.09223
333.0863
333.07796
333.06316
333.11538
333.1151
333.11448
333.11352
333.11224
333.11061
333.10865
333.10633
333.1036
333.10041
333.09662
333.092
333.08608
333.07774
333.06296
333.11504
333.11476
333.11414
333.11319
333.11192
333.11031
333.10836
333.10605
333.10334
333.10015
333.09638
333.09177
333.08586
333.07753
333.06275
333.1147
333.11442
333.11381
333.11287
333.11161
333.11001
333.10807
333.10577
333.10307
333.0999
333.09613
333.09154
333.08564
333.07732
333.06255
333.11436
333.11409
333.11348
333.11255
333.11129
333.10971
333.10778
333.10549
333.1028
333.09965
333.09589
333.0913
333.08541
333.0771
333.06234
333.11403
333.11376
333.11315
333.11223
333.11098
333.10941
333.10749
333.10522
333.10254
333.09939
333.09565
333.09107
333.08518
333.07688
333.06214
333.1137
333.11343
333.11283
333.11191
333.11068
333.10911
333.10721
333.10494
333.10228
333.09914
333.0954
333.09083
333.08496
333.07666
333.06193
333.11337
333.1131
333.11251
333.1116
333.11037
333.10882
333.10692
333.10467
333.10201
333.09888
333.09516
333.0906
333.08473
333.07644
333.06172
333.11304
333.11278
333.11219
333.11129
333.11007
333.10852
333.10664
333.10439
333.10175
333.09863
333.09491
333.09036
333.0845
333.07622
333.06151
333.11272
333.11246
333.11187
333.11098
333.10976
333.10823
333.10635
333.10412
333.10149
333.09838
333.09467
333.09012
333.08427
333.076
333.06129
333.1124
333.11214
333.11156
333.11067
333.10946
333.10794
333.10607
333.10385
333.10122
333.09812
333.09442
333.08988
333.08404
333.07578
333.06108
333.11208
333.11182
333.11124
333.11036
333.10916
333.10765
333.10579
333.10358
333.10096
333.09787
333.09418
333.08965
333.08381
333.07555
333.06086
333.11176
333.1115
333.11093
333.11006
333.10887
333.10736
333.10551
333.1033
333.1007
333.09761
333.09393
333.08941
333.08358
333.07532
333.06064
333.11145
333.11119
333.11062
333.10975
333.10857
333.10707
333.10523
333.10303
333.10043
333.09736
333.09368
333.08917
333.08334
333.0751
333.06042
333.11114
333.11088
333.11032
333.10945
333.10828
333.10678
333.10495
333.10276
333.10017
333.09711
333.09344
333.08893
333.08311
333.07487
333.0602
333.11083
333.11057
333.11001
333.10915
333.10798
333.1065
333.10468
333.10249
333.09991
333.09685
333.09319
333.08869
333.08287
333.07464
333.05998
333.11052
333.11027
333.10971
333.10886
333.10769
333.10621
333.1044
333.10223
333.09965
333.0966
333.09294
333.08844
333.08264
333.07441
333.05976
333.11021
333.10997
333.10941
333.10856
333.1074
333.10593
333.10412
333.10196
333.09939
333.09634
333.09269
333.0882
333.0824
333.07418
333.05954
333.10991
333.10966
333.10911
333.10827
333.10711
333.10565
333.10385
333.10169
333.09913
333.09609
333.09244
333.08796
333.08216
333.07395
333.05931
333.10961
333.10936
333.10882
333.10797
333.10683
333.10537
333.10357
333.10142
333.09887
333.09583
333.0922
333.08772
333.08193
333.07372
333.05909
333.10931
333.10906
333.10852
333.10768
333.10654
333.10509
333.1033
333.10116
333.09861
333.09558
333.09195
333.08747
333.08169
333.07348
333.05886
333.10901
333.10877
333.10823
333.10739
333.10626
333.10481
333.10303
333.10089
333.09835
333.09533
333.0917
333.08723
333.08145
333.07325
333.05863
333.10872
333.10847
333.10793
333.1071
333.10597
333.10453
333.10276
333.10062
333.09809
333.09507
333.09145
333.08698
333.08121
333.07302
333.0584
333.10842
333.10818
333.10764
333.10682
333.10569
333.10425
333.10248
333.10036
333.09783
333.09482
333.0912
333.08674
333.08097
333.07278
333.05817
333.10813
333.10789
333.10735
333.10653
333.10541
333.10398
333.10221
333.10009
333.09757
333.09456
333.09095
333.08649
333.08073
333.07254
333.05794
333.10784
333.1076
333.10707
333.10625
333.10513
333.1037
333.10194
333.09983
333.09731
333.09431
333.0907
333.08625
333.08049
333.07231
333.05771
333.10755
333.10731
333.10678
333.10596
333.10485
333.10343
333.10167
333.09956
333.09705
333.09405
333.09045
333.086
333.08025
333.07207
333.05748
333.10726
333.10702
333.1065
333.10568
333.10457
333.10315
333.10141
333.0993
333.09679
333.0938
333.0902
333.08576
333.08
333.07183
333.05725
333.10697
333.10674
333.10621
333.1054
333.1043
333.10288
333.10114
333.09904
333.09653
333.09354
333.08995
333.08551
333.07976
333.07159
333.05701
333.10669
333.10645
333.10593
333.10512
333.10402
333.10261
333.10087
333.09877
333.09627
333.09329
333.0897
333.08526
333.07952
333.07135
333.05678
333.10641
333.10617
333.10565
333.10484
333.10375
333.10234
333.1006
333.09851
333.09601
333.09303
333.08945
333.08502
333.07927
333.07111
333.05654
333.10612
333.10589
333.10537
333.10457
333.10347
333.10207
333.10034
333.09825
333.09575
333.09278
333.0892
333.08477
333.07903
333.07087
333.05631
333.10584
333.10561
333.10509
333.10429
333.1032
333.1018
333.10007
333.09798
333.09549
333.09252
333.08894
333.08452
333.07878
333.07063
333.05607
333.10556
333.10533
333.10481
333.10401
333.10293
333.10153
333.0998
333.09772
333.09524
333.09227
333.08869
333.08427
333.07854
333.07039
333.05583
333.10528
333.10505
333.10454
333.10374
333.10265
333.10126
333.09954
333.09746
333.09498
333.09201
333.08844
333.08402
333.07829
333.07015
333.0556
333.105
333.10477
333.10426
333.10347
333.10238
333.10099
333.09927
333.0972
333.09472
333.09176
333.08819
333.08377
333.07805
333.06991
333.05536