/*--------------------------------*- C++ -*----------------------------------*\
| =========                 |                                                 |
| \\      /  F ield         | OpenFOAM: The Open Source CFD Toolbox           |
|  \\    /   O peration     | Version:  2506                                  |
|   \\  /    A nd           | Website:  www.openfoam.com                      |
|    \\/     M anipulation  |                                                 |
\*---------------------------------------------------------------------------*/
FoamFile
{
    version     2.0;
    format      ascii;
    arch        "LSB;label=32;scalar=64";
    class       volVectorField;
    location    "7000/water";
    object      U;
}
// * * * * * * * * * * * * * * * * * * * * * * * * * * * * * * * * * * * * * //

dimensions      [0 1 -1 0 0 0 0];

internalField   nonuniform List<vector> 
6000
(
(0.25028648 -3.4193492e-05 -1.3773888e-18)
(0.25028875 -7.4648812e-05 -5.8696073e-18)
(0.25029344 -0.00011804414 -3.8954834e-19)
(0.25030059 -0.00016540046 5.7454206e-21)
(0.25031046 -0.00021487336 -1.7911304e-19)
(0.25032332 -0.00026685039 -1.9015272e-19)
(0.25033948 -0.00032192175 3.1996149e-19)
(0.25035939 -0.00038078672 3.946607e-19)
(0.25038356 -0.00044434477 3.1482235e-19)
(0.25041254 -0.00051362452 1.3978226e-21)
(0.25044587 -0.0005867756 1.2853644e-19)
(0.25047643 -0.00065822056 -5.8709574e-21)
(0.25046276 -0.00078466513 -4.7572497e-20)
(0.25013031 -0.0015987837 8.9782906e-20)
(0.24584996 0.0019968142 1.8830726e-20)
(0.25104035 -3.7261304e-05 -7.2717551e-19)
(0.25104514 -8.989598e-05 -2.8882075e-18)
(0.2510558 -0.00014352114 -5.8751708e-19)
(0.25107219 -0.00020025424 -2.4503299e-19)
(0.2510947 -0.0002571822 5.9460736e-19)
(0.25112368 -0.00031440571 1.8306575e-19)
(0.25115965 -0.00037188242 5.4924223e-19)
(0.25120324 -0.00042947839 4.9771726e-19)
(0.2512551 -0.00048709454 3.0116439e-19)
(0.25131538 -0.00054561245 -1.7911889e-19)
(0.25138039 -0.00060405492 1.0446596e-20)
(0.25142587 -0.00063755821 5.3058112e-20)
(0.25133175 -0.00059164843 9.6468402e-21)
(0.25037931 -0.0014370973 1.6937347e-19)
(0.24194277 0.00099520264 -4.8050429e-20)
(0.25195051 -3.6589029e-05 -1.5883245e-18)
(0.25195563 -9.0250613e-05 4.7314289e-18)
(0.25196731 -0.00014313025 7.7984621e-19)
(0.25198528 -0.00019912656 -1.0658132e-18)
(0.25200977 -0.00025508716 7.3094318e-19)
(0.25204101 -0.0003112558 -2.6018241e-19)
(0.25207932 -0.00036762123 -5.4832968e-19)
(0.25212505 -0.00042413945 -6.1516556e-19)
(0.25217823 -0.00048056787 -6.3322723e-19)
(0.25223708 -0.0005377572 -2.2447943e-19)
(0.25229114 -0.00060007155 -5.4115543e-19)
(0.25229033 -0.00065419843 -4.5332928e-19)
(0.25200573 -0.00054460881 -2.5370359e-19)
(0.25014357 -0.0012195308 -6.9602541e-20)
(0.23758495 0.00043820543 -2.1029624e-19)
(0.25283353 -3.7446604e-05 9.0383941e-19)
(0.25283867 -9.3611088e-05 -9.2895513e-19)
(0.25285018 -0.00014906892 -3.0874727e-19)
(0.25286783 -0.00020791578 -4.0173505e-19)
(0.25289182 -0.00026672308 7.5518501e-19)
(0.25292238 -0.00032582165 -4.2116011e-19)
(0.25295982 -0.00038519269 -9.0163054e-19)
(0.25300432 -0.00044485276 -6.4143418e-19)
(0.25305525 -0.00050441426 -4.7126598e-19)
(0.25310809 -0.00056332944 4.0724002e-19)
(0.25314261 -0.00062607506 -2.3044908e-19)
(0.25307635 -0.00069910336 -4.2081854e-19)
(0.25255493 -0.0005845712 -2.9661511e-19)
(0.24963188 -0.001063787 -1.0235595e-19)
(0.23320285 0.0001058672 -2.1832441e-19)
(0.25372643 -3.8342944e-05 8.8895082e-18)
(0.2537317 -9.6368692e-05 -9.2203741e-20)
(0.25374347 -0.00015372841 1.6057916e-20)
(0.25376156 -0.00021453144 9.2287603e-19)
(0.25378616 -0.00027516439 4.2580427e-19)
(0.25381749 -0.00033599427 1.806437e-19)
(0.25385581 -0.00039694563 1.9720063e-19)
(0.25390101 -0.00045805575 5.2770779e-20)
(0.25395133 -0.00051907431 2.6282419e-19)
(0.25399821 -0.00057855465 3.2996718e-19)
(0.25400834 -0.00063773998 3.0440789e-19)
(0.25386022 -0.0007177221 1.7363714e-19)
(0.25305737 -0.00062191547 -3.0397567e-20)
(0.24895451 -0.00093835859 4.492341e-20)
(0.22897365 -8.3792338e-05 -2.8936619e-20)
(0.25464474 -3.866162e-05 -4.9772028e-19)
(0.25465014 -9.7320119e-05 -3.6867197e-19)
(0.2546622 -0.00015516462 1.0490292e-18)
(0.25468073 -0.00021648309 4.9407929e-19)
(0.2547059 -0.00027758564 -8.000283e-19)
(0.25473792 -0.000338881 1.6076928e-19)
(0.25477689 -0.00040025681 1.8034725e-19)
(0.25482222 -0.000461728 7.4567077e-20)
(0.25487049 -0.00052322808 3.1727235e-19)
(0.2549078 -0.000583188 1.6794532e-19)
(0.25488519 -0.00063896641 1.4558004e-19)
(0.25463685 -0.00071821651 1.0239274e-19)
(0.25350729 -0.0006469875 1.2691888e-20)
(0.248129 -0.00083894719 -5.9623714e-20)
(0.2249409 -0.00018589273 -2.1434674e-20)
(0.25557031 -3.8595293e-05 -1.230293e-18)
(0.25557581 -9.7309346e-05 -2.4548519e-18)
(0.25558805 -0.00015511983 -8.0900441e-19)
(0.25560682 -0.00021642526 4.9386129e-19)
(0.2556323 -0.00027749359 -1.1315548e-18)
(0.25566463 -0.00033876345 2.4974482e-19)
(0.25570371 -0.00040009734 1.8235066e-19)
(0.25574825 -0.00046144626 2.5243217e-19)
(0.25579256 -0.00052279714 1.8746594e-19)
(0.25581623 -0.0005828814 7.0364132e-20)
(0.25575267 -0.00063600478 3.0375709e-20)
(0.25538743 -0.00071016267 3.4902747e-20)
(0.25388915 -0.00066107344 3.8487073e-20)
(0.24716598 -0.00076077854 -5.9313784e-20)
(0.22112141 -0.00023459296 -1.6065123e-19)
(0.25649134 -3.8297107e-05 5.2944011e-18)
(0.25649692 -9.6712129e-05 5.7797022e-19)
(0.25650928 -0.00015419069 1.0216318e-18)
(0.25652824 -0.00021515485 9.1010663e-19)
(0.25655393 -0.00027585718 -2.6236851e-19)
(0.25658641 -0.0003367553 2.3228278e-19)
(0.25662528 -0.00039769653 7.5998592e-19)
(0.2566683 -0.00045856441 3.4485086e-19)
(0.25670691 -0.00051927104 2.0027706e-19)
(0.25671305 -0.00057893859 -4.0591573e-19)
(0.25660095 -0.00063003278 2.9170588e-20)
(0.25610359 -0.00069722485 -3.6923359e-20)
(0.25419746 -0.0006651972 -4.6857764e-20)
(0.24608527 -0.00069788903 -5.0394556e-20)
(0.21752738 -0.00025081848 -1.4028098e-19)
(0.25740382 -3.7852859e-05 -2.6007067e-18)
(0.25740947 -9.5689494e-05 -1.013643e-18)
(0.25742193 -0.00015257331 1.0024393e-18)
(0.25744104 -0.00021291359 1.0251159e-18)
(0.25746687 -0.00027297291 5.8913173e-19)
(0.25749936 -0.0003332193 3.1118486e-19)
(0.2575377 -0.00039348924 5.7958216e-19)
(0.2575784 -0.00045361302 5.768268e-19)
(0.25760945 -0.00051335259 2.9241395e-19)
(0.25759421 -0.00057212213 1.3828191e-19)
(0.25742635 -0.00062159363 1.0557048e-19)
(0.25678237 -0.00068144217 -1.2944637e-19)
(0.25443121 -0.00066103685 -1.4602083e-20)
(0.24490935 -0.00064561644 -1.2214895e-20)
(0.21416513 -0.00024776584 -8.9890586e-20)
(0.25830515 -3.7308638e-05 3.2023122e-19)
(0.25831084 -9.4372769e-05 3.0555426e-19)
(0.25832339 -0.00015047649 -7.4919207e-19)
(0.2583426 -0.00020999612 9.0421471e-20)
(0.25836849 -0.00026922145 -3.7489024e-19)
(0.25840083 -0.00032862339 2.331867e-19)
(0.25843826 -0.00038802595 1.8094595e-19)
(0.25847573 -0.00044722018 6.4001288e-19)
(0.25849727 -0.00050579279 5.0484367e-20)
(0.25845683 -0.00056328987 2.777862e-19)
(0.25822634 -0.00061131676 -6.5397768e-21)
(0.25742154 -0.00066417743 6.9405746e-20)
(0.2545896 -0.00065044234 2.1608483e-20)
(0.24365871 -0.00060064453 -1.3219902e-20)
(0.21103455 -0.00023378679 -1.5064066e-20)
(0.259193 -3.6693881e-05 6.813999e-18)
(0.25919873 -9.285746e-05 5.2107338e-18)
(0.25921134 -0.00014806165 -1.1203504e-18)
(0.25923061 -0.00020663289 -3.6564412e-19)
(0.25925648 -0.0002648995 9.0107792e-19)
(0.25928848 -0.00032332972 1.9969281e-19)
(0.25932457 -0.00038173097 3.6256699e-19)
(0.25935785 -0.00043986308 4.0778964e-19)
(0.25936788 -0.00049714489 4.16799e-20)
(0.25929853 -0.00055310431 -1.1935071e-19)
(0.2589988 -0.00059970361 -9.8226337e-20)
(0.25801896 -0.00064623361 2.0177968e-19)
(0.25467145 -0.00063499349 1.407539e-19)
(0.24235144 -0.00056062195 -3.4153983e-20)
(0.20813123 -0.0002141088 5.4518787e-21)
(0.26006576 -3.6034055e-05 6.6065872e-18)
(0.26007152 -9.1214285e-05 5.3798553e-18)
(0.26008417 -0.00014544281 3.5027118e-19)
(0.26010346 -0.00020298347 2.4021985e-19)
(0.26012923 -0.00026021093 5.8917247e-19)
(0.2601607 -0.0003175869 3.6589082e-19)
(0.26019497 -0.00037489796 2.3497732e-19)
(0.26022303 -0.0004318747 6.438816e-20)
(0.26021952 -0.00048779066 -5.6038946e-21)
(0.26011767 -0.00054204301 -1.0000916e-19)
(0.25974224 -0.00058714002 1.713805e-19)
(0.25857279 -0.00062806077 1.2567127e-19)
(0.25467557 -0.00061594005 1.0947848e-19)
(0.24100379 -0.00052390611 1.9952965e-20)
(0.20544863 -0.00019196316 -8.9744346e-20)
(0.2609225 -3.5349633e-05 6.1542287e-18)
(0.26092828 -8.9497286e-05 4.1017392e-18)
(0.26094096 -0.00014270541 1.0762729e-18)
(0.26096023 -0.00019916671 2.0927296e-19)
(0.2609858 -0.00025530722 4.1293816e-19)
(0.2610165 -0.00031157922 4.6038609e-19)
(0.26104844 -0.00036774517 2.4939912e-19)
(0.2610702 -0.00042350433 7.1615383e-20)
(0.26105114 -0.00047801113 -1.3625471e-20)
(0.26091327 -0.00053046086 2.1699446e-20)
(0.2604557 -0.00057393662 1.40389e-19)
(0.2590814 -0.00060990566 3.5031588e-20)
(0.2546009 -0.00059424331 -8.884853e-21)
(0.23963056 -0.00048937354 2.6346006e-20)
(0.20297926 -0.00016931833 -3.5878575e-20)
(0.26176274 -3.4655538e-05 2.6628808e-18)
(0.26176854 -8.7746856e-05 1.6798088e-18)
(0.26178122 -0.00013991377 -7.4147151e-19)
(0.26180042 -0.00019527247 6.1586753e-19)
(0.26182568 -0.00025030306 3.0454314e-19)
(0.26185536 -0.00030544608 6.2606391e-19)
(0.26188442 -0.00036043768 4.9833108e-19)
(0.26189878 -0.00041494196 2.5618705e-19)
(0.26186213 -0.00046801763 2.9444938e-19)
(0.2616848 -0.00051862213 -4.9498489e-20)
(0.26113855 -0.00056034346 9.5680836e-21)
(0.25954316 -0.00059189152 3.9750618e-20)
(0.25444651 -0.0005706321 5.1621628e-20)
(0.23824529 -0.00045627776 1.2497065e-22)
(0.20071509 -0.00014735259 5.8437308e-20)
(0.26258633 -3.3963061e-05 2.2561626e-18)
(0.26259213 -8.5993781e-05 1.4741284e-18)
(0.26260479 -0.00013711719 2.4529128e-18)
(0.26262388 -0.00019136968 8.2231069e-19)
(0.2626487 -0.00024528655 -1.2770102e-18)
(0.26267708 -0.00029929459 5.4071803e-19)
(0.26270267 -0.00035310243 4.9069292e-19)
(0.26270848 -0.00040633486 3.2306784e-19)
(0.26265224 -0.00045797299 5.0731702e-19)
(0.26243199 -0.00050672605 -5.3963796e-20)
(0.26179026 -0.00054656345 1.7612579e-19)
(0.25995633 -0.0005740675 1.5816824e-19)
(0.25421177 -0.00054566294 2.3638642e-20)
(0.23686046 -0.00042415213 -4.1016631e-20)
(0.19864765 -0.0001267576 1.3691149e-20)
(0.26339335 -3.32814e-05 1.5083839e-18)
(0.26339915 -8.4262741e-05 4.1316843e-18)
(0.26341177 -0.0001343551 2.5008723e-18)
(0.26343068 -0.0001875135 1.1030344e-18)
(0.26345493 -0.00024032822 1.2323444e-18)
(0.26348171 -0.00029321054 3.277784e-19)
(0.2635032 -0.00034584107 6.1004629e-19)
(0.2634993 -0.00039780175 4.7131436e-19)
(0.26342146 -0.00044800829 4.361229e-19)
(0.26315482 -0.00049492779 8.167196e-20)
(0.26241041 -0.00053276478 1.8289426e-19)
(0.26031893 -0.00055643964 1.8106752e-20)
(0.2538966 -0.000519773 5.2459085e-20)
(0.23548766 -0.00039274464 2.8233423e-20)
(0.19676807 -0.00010792878 -3.4455058e-20)
(0.26418413 -3.2618313e-05 -4.3632988e-19)
(0.26418991 -8.2574226e-05 2.3563235e-18)
(0.26420246 -0.00013166021 1.0829036e-18)
(0.26422112 -0.0001837496 1.4673635e-18)
(0.26424465 -0.00023548649 1.4690148e-18)
(0.2642695 -0.00028726512 4.1339355e-19)
(0.26428624 -0.00033873796 2.7576564e-19)
(0.26427145 -0.00038944152 5.0737125e-19)
(0.26416998 -0.0004382328 2.76463e-19)
(0.26385341 -0.00048335173 2.6464043e-19)
(0.26299854 -0.00051908846 1.8281599e-19)
(0.26062878 -0.00053898815 3.0971964e-20)
(0.25350187 -0.00049331965 1.2996605e-19)
(0.2341376 -0.00036197184 1.3501874e-19)
(0.19506692 -9.1079355e-05 9.1385178e-20)
(0.26495914 -3.1980325e-05 2.4888145e-18)
(0.2649649 -8.0945389e-05 3.763318e-18)
(0.26497734 -0.00012905989 1.6570616e-18)
(0.26499568 -0.00018011622 1.4620807e-18)
(0.26501831 -0.00023081031 1.5213955e-18)
(0.26504088 -0.00028151806 9.2547972e-19)
(0.2650522 -0.00033186392 5.0008073e-20)
(0.2650253 -0.00038133727 3.7348436e-19)
(0.26489816 -0.00042873842 4.1174369e-19)
(0.26452796 -0.00047209828 1.6478709e-19)
(0.26355413 -0.00050565096 1.0994993e-19)
(0.2608835 -0.00052167636 1.3522325e-19)
(0.25302971 -0.00046660631 4.0347052e-20)
(0.23282016 -0.00033188327 7.8085699e-20)
(0.19353413 -7.6303785e-05 1.0981452e-19)
(0.26571903 -3.1372765e-05 3.8799175e-18)
(0.26572475 -7.9390278e-05 2.3029468e-18)
(0.26573705 -0.00012657658 -1.0536609e-19)
(0.26575498 -0.00017664472 9.603576e-19)
(0.26577653 -0.00022633987 1.2511861e-18)
(0.26579644 -0.0002760185 8.769261e-19)
(0.26580163 -0.0003252772 4.9254447e-19)
(0.26576141 -0.00037355728 1.673142e-19)
(0.26560652 -0.0004196006 4.8766779e-19)
(0.26517878 -0.00046124611 5.6464055e-20)
(0.26407657 -0.00049254343 2.0742253e-20)
(0.26108058 -0.00050445572 3.9694807e-20)
(0.25248384 -0.00043989699 -1.5032405e-20)
(0.23154421 -0.00030262987 4.0825185e-20)
(0.19215888 -6.3609731e-05 9.4368113e-20)
(0.26646455 -3.0799672e-05 6.4442045e-18)
(0.26647021 -7.791971e-05 7.6563116e-19)
(0.26648233 -0.00012422758 3.5920136e-18)
(0.26649975 -0.0001733593 2.0638237e-18)
(0.26652002 -0.00022210618 -1.6110854e-19)
(0.26653688 -0.0002708044 1.5199558e-18)
(0.26653522 -0.00031902283 1.4547236e-18)
(0.26648042 -0.00036615421 1.1299144e-18)
(0.26629564 -0.00041087723 9.0273668e-19)
(0.26580617 -0.00045085191 -3.3894443e-20)
(0.26456508 -0.00047982866 2.8320447e-19)
(0.26121753 -0.00048726982 2.4745557e-19)
(0.25186982 -0.00041342264 2.3208488e-19)
(0.23031742 -0.00027443216 3.0131657e-19)
(0.1909297 -5.2932833e-05 2.3646917e-19)
(0.26719653 -3.0263687e-05 5.0304267e-18)
(0.26720212 -7.6541022e-05 1.9535905e-19)
(0.26721401 -0.00012202465 3.2333362e-18)
(0.26723083 -0.00017027641 2.3132887e-18)
(0.2672496 -0.00021813033 8.0470921e-19)
(0.26726299 -0.00026590165 1.4734433e-18)
(0.26725373 -0.0003131315 1.1571136e-18)
(0.26718309 -0.00035916374 1.1487868e-18)
(0.26696618 -0.00040260692 5.149615e-19)
(0.26641044 -0.00044094906 -3.9116706e-20)
(0.26501868 -0.00046753758 2.6590685e-19)
(0.26129202 -0.00047005901 3.198089e-19)
(0.25119506 -0.00038738325 2.4431165e-19)
(0.2291461 -0.00024754676 3.695224e-19)
(0.18983455 -4.4145099e-05 2.6033984e-19)
(0.26791589 -2.9765991e-05 1.0328215e-18)
(0.26792138 -7.5257932e-05 1.6540431e-20)
(0.26793299 -0.00011997376 3.2859215e-19)
(0.26794908 -0.00016740448 7.7281953e-19)
(0.26796613 -0.00021442312 1.2907809e-18)
(0.26797562 -0.00026132351 6.804853e-19)
(0.267958 -0.00030761887 5.0103322e-19)
(0.26787018 -0.00035260382 3.2271079e-19)
(0.2676188 -0.00039480805 -1.088681e-19)
(0.2669918 -0.00043154706 -9.8253374e-20)
(0.26543617 -0.00045566687 -1.2394239e-20)
(0.2613021 -0.00045276642 1.9240436e-19)
(0.2504687 -0.00036194908 1.0254871e-19)
(0.22803501 -0.00022223217 1.5636317e-19)
(0.18886112 -3.7064085e-05 1.7591278e-19)
(0.26862352 -2.9306382e-05 6.1822144e-18)
(0.2686289 -7.407066e-05 1.8557654e-18)
(0.26864017 -0.00011807532 2.2423436e-18)
(0.26865542 -0.00016474412 1.9435053e-18)
(0.26867049 -0.00021098532 1.8443565e-18)
(0.26867563 -0.000257071 1.5833903e-18)
(0.26864885 -0.00030248606 1.4802934e-18)
(0.26854251 -0.00034647515 1.0492327e-18)
(0.26825414 -0.00038747924 6.21468e-19)
(0.26755035 -0.00042263245 -2.2934942e-19)
(0.2658161 -0.00044417904 2.9686403e-19)
(0.26124652 -0.00043534493 4.7356459e-19)
(0.24970133 -0.00033726333 3.6128202e-19)
(0.22698727 -0.00019871676 3.4867706e-19)
(0.18799711 -3.1466397e-05 1.8053172e-19)
(0.26932033 -2.888346e-05 3.0134656e-18)
(0.26932558 -7.2976355e-05 7.8742862e-20)
(0.26933645 -0.00011632481 5.5089788e-19)
(0.26935072 -0.00016228909 2.2892245e-18)
(0.26936357 -0.0002078089 2.1294176e-18)
(0.26936389 -0.00025313433 1.3039879e-18)
(0.26932713 -0.0002977213 1.1283108e-18)
(0.26920083 -0.00034076321 9.037044e-19)
(0.2688728 -0.00038060158 4.7494595e-19)
(0.26808605 -0.00041417146 3.0817616e-19)
(0.26615679 -0.00043300583 4.1528456e-19)
(0.26112496 -0.00041776402 3.4846272e-19)
(0.24890441 -0.00031344658 4.3630775e-19)
(0.22600436 -0.0001771726 3.4928106e-19)
(0.18723056 -2.7105585e-05 1.1543268e-19)
(0.27000719 -2.849491e-05 3.5490737e-18)
(0.27001228 -7.1969742e-05 3.7014793e-18)
(0.27002267 -0.00011471384 3.2991376e-18)
(0.27003583 -0.00016002771 2.5032903e-18)
(0.27004618 -0.00020487885 1.2737803e-18)
(0.27004119 -0.00024949516 1.296873e-18)
(0.2699936 -0.00029330262 1.0407553e-18)
(0.26984584 -0.00033544136 8.5488259e-19)
(0.26947524 -0.00037414208 5.3837344e-19)
(0.2685986 -0.00040611399 5.1056358e-19)
(0.26645635 -0.00042205446 4.1782268e-19)
(0.2609383 -0.00040001524 3.9904175e-19)
(0.24808975 -0.00029060213 5.5436288e-19)
(0.22508629 -0.00015769827 3.7277899e-19)
(0.18655015 -2.3732127e-05 2.4070772e-19)
(0.27068489 -2.8137825e-05 6.6620651e-18)
(0.2706898 -7.1043906e-05 4.042204e-18)
(0.27069965 -0.00011323138 5.3796016e-18)
(0.27071153 -0.00015794462 3.5208367e-18)
(0.2707191 -0.00020217545 1.7576049e-18)
(0.27070829 -0.00024612933 2.2739082e-18)
(0.27064898 -0.00028920108 2.0016864e-18)
(0.27047818 -0.00033047455 1.5768247e-18)
(0.27006181 -0.00036805783 1.09702e-18)
(0.26908753 -0.00039839812 2.7646329e-19)
(0.26671278 -0.00041121648 7.1337122e-19)
(0.26068881 -0.00038211515 6.9285971e-19)
(0.24726882 -0.00026882041 6.6130479e-19)
(0.22423175 -0.00014031231 5.3660056e-19)
(0.18594537 -2.1112145e-05 5.3561565e-19)
(0.27135418 -2.7809011e-05 -1.2188118e-18)
(0.27135887 -7.019104e-05 2.8842858e-18)
(0.2713681 -0.00011186497 2.970888e-18)
(0.27137855 -0.00015602247 2.2065866e-18)
(0.27138303 -0.00019967637 2.4228017e-18)
(0.27136587 -0.00024300948 1.5978989e-18)
(0.27129391 -0.00028538386 1.2445157e-18)
(0.27109836 -0.00032582299 8.3407818e-19)
(0.27063272 -0.00036230005 6.4287749e-19)
(0.26955206 -0.00039095432 2.7610837e-19)
(0.26692403 -0.00040037783 3.9374506e-19)
(0.26038022 -0.00036410564 3.1989701e-19)
(0.24645221 -0.00024818088 3.1192636e-19)
(0.22343841 -0.00012495718 3.0295955e-19)
(0.18540672 -1.904183e-05 3.8180833e-19)
(0.27201571 -2.7505235e-05 2.2715182e-18)
(0.27202015 -6.9403099e-05 3.4690193e-18)
(0.27202866 -0.00011060176 2.5812599e-18)
(0.27203751 -0.00015424331 1.9129774e-18)
(0.2720386 -0.00019735858 1.9068389e-18)
(0.27201452 -0.00024010733 1.4446565e-18)
(0.27192892 -0.00028181693 1.3183389e-18)
(0.2717068 -0.00032144525 8.8468258e-19)
(0.27118802 -0.00035681747 8.0384096e-19)
(0.2699912 -0.00038370884 4.6761477e-19)
(0.26708822 -0.000389429 4.1138175e-19)
(0.26001771 -0.00034605163 4.5564242e-19)
(0.24564917 -0.00022875086 4.868223e-19)
(0.22270325 -0.00011151161 3.0726667e-19)
(0.18492573 -1.7355843e-05 2.2563236e-19)
(0.27267005 -2.7223403e-05 2.1491806e-18)
(0.27267421 -6.8672268e-05 1.2930282e-18)
(0.27268192 -0.00010942927 6.4993521e-19)
(0.27268898 -0.00015258973 1.6917928e-18)
(0.27268634 -0.00019519966 1.6521542e-18)
(0.27265476 -0.00023739527 1.244253e-18)
(0.27255447 -0.00027846699 1.0469361e-18)
(0.2723038 -0.00031730047 9.8951505e-19)
(0.27172757 -0.00035155883 5.8471304e-19)
(0.27040369 -0.00037658611 7.3255824e-19)
(0.26720375 -0.00037827411 3.8768452e-19)
(0.25960771 -0.00032803713 3.939586e-19)
(0.24486735 -0.00021058183 5.3831324e-19)
(0.22202277 -9.9808137e-05 2.9855674e-19)
(0.18449494 -1.5929483e-05 1.1455814e-19)
(0.27331772 -2.6960666e-05 2.8076093e-18)
(0.27332155 -6.7991273e-05 4.0616979e-18)
(0.27332837 -0.00010833587 3.4547475e-18)
(0.27333345 -0.00015104547 2.3095193e-18)
(0.27332673 -0.00019317869 1.0684033e-18)
(0.27328702 -0.00023484751 1.4290805e-18)
(0.27317093 -0.0002753027 1.1538473e-18)
(0.27288957 -0.00031334989 7.7358005e-19)
(0.27225107 -0.00034647442 3.6766016e-19)
(0.27078808 -0.00036951039 6.7748391e-19)
(0.26726952 -0.00036683813 3.7634883e-19)
(0.25915765 -0.0003101602 3.4880398e-19)
(0.24411266 -0.00019370463 5.1638092e-19)
(0.22139331 -8.96524e-05 4.1056051e-19)
(0.1841079 -1.4675688e-05 2.5063467e-19)
(0.27395916 -2.6714475e-05 6.8972811e-18)
(0.27396262 -6.7353541e-05 5.015075e-18)
(0.27396843 -0.00010731104 5.3969946e-18)
(0.27397134 -0.00014959583 3.4485967e-18)
(0.27396016 -0.00019127671 2.0226425e-18)
(0.27391168 -0.00023244055 2.1474724e-18)
(0.2737786 -0.00027229532 2.0060378e-18)
(0.27346419 -0.00030955757 1.535402e-18)
(0.27275806 -0.00034151676 1.0396202e-18)
(0.27114274 -0.00036240703 4.7125818e-19)
(0.26728512 -0.00035507155 7.0461382e-19)
(0.25867552 -0.00029252748 8.8311995e-19)
(0.24338933 -0.00017812521 7.1562516e-19)
(0.22081116 -8.084119e-05 7.3255068e-19)
(0.18375901 -1.3538666e-05 4.8088137e-19)
(0.27459475 -2.6482589e-05 8.2495814e-19)
(0.2745978 -6.6753259e-05 5.5423597e-18)
(0.27460249 -0.0001063455 3.4608329e-18)
(0.274603 -0.0001482278 2.1258809e-18)
(0.27458699 -0.00018947691 2.9589016e-18)
(0.27452902 -0.00023015345 1.0777162e-18)
(0.27437767 -0.00026941895 1.3044075e-18)
(0.27402763 -0.00030589064 9.0560067e-19)
(0.27324789 -0.00033664079 7.8918437e-19)
(0.27146593 -0.0003552038 3.4954263e-19)
(0.26725094 -0.00034295249 3.0610831e-19)
(0.25816956 -0.00027524859 6.0154309e-19)
(0.24270004 -0.00016382254 4.691906e-19)
(0.22027275 -7.3177108e-05 4.5141112e-19)
(0.18344349 -1.2486087e-05 3.2521028e-19)
(0.27522481 -2.6263071e-05 4.520292e-18)
(0.27522741 -6.6185367e-05 4.1212688e-18)
(0.27523087 -0.00010543114 2.8386878e-18)
(0.27522875 -0.00014693 2.6283622e-18)
(0.27520748 -0.00018776455 2.2193435e-18)
(0.2751393 -0.00022796774 1.4609126e-18)
(0.27496829 -0.00026665041 1.1779467e-18)
(0.27457978 -0.00030231921 8.7222187e-19)
(0.27371976 -0.0003318036 6.4570665e-19)
(0.27175586 -0.00034783257 3.1135529e-19)
(0.26716832 -0.00033048644 3.5210763e-19)
(0.25764777 -0.0002584306 5.8656692e-19)
(0.24204621 -0.0001507494 5.8637449e-19)
(0.21977469 -6.6478882e-05 3.8635538e-19)
(0.18315725 -1.150142e-05 3.5363863e-19)
(0.27584964 -2.6054261e-05 2.3086156e-18)
(0.27585173 -6.5645511e-05 4.4009159e-19)
(0.27585383 -0.00010456098 9.5051355e-19)
(0.27584885 -0.00014569263 2.3379656e-18)
(0.27582189 -0.00018612688 2.0744822e-18)
(0.2757427 -0.00022586725 1.6619284e-18)
(0.27555053 -0.00026396905 1.1794423e-18)
(0.27512041 -0.00029881615 9.7893909e-19)
(0.27417268 -0.00032696405 6.7082244e-19)
(0.27201082 -0.00034023144 7.2828733e-19)
(0.26703956 -0.00031770398 3.7045176e-19)
(0.25711762 -0.00024217267 3.644653e-19)
(0.24142819 -0.00013883591 4.4665275e-19)
(0.21931381 -6.0587301e-05 2.7821291e-19)
(0.18289682 -1.0577469e-05 2.7186705e-19)
(0.27646948 -2.5854749e-05 7.0227926e-19)
(0.27647102 -6.512998e-05 3.9374081e-18)
(0.27647162 -0.00010372909 3.2039682e-18)
(0.27646352 -0.0001445073 2.3206065e-18)
(0.2764304 -0.00018455289 1.5959741e-18)
(0.27633935 -0.00022383791 1.682404e-18)
(0.27612438 -0.00026135648 1.3396258e-18)
(0.27564919 -0.00029535665 1.0097425e-18)
(0.27460555 -0.00032208226 7.1538572e-19)
(0.27222923 -0.0003323472 6.7898691e-19)
(0.26686787 -0.00030465719 5.5047371e-19)
(0.25658579 -0.00022656125 2.3742383e-19)
(0.2408456 -0.00012799526 2.7986886e-19)
(0.21888719 -5.5367364e-05 3.6170075e-19)
(0.18265925 -9.711579e-06 2.8365444e-19)
(0.27708455 -2.5663344e-05 7.7782983e-18)
(0.27708548 -6.463563e-05 5.5642784e-18)
(0.27708444 -0.0001029304 4.8386784e-18)
(0.27707295 -0.00014336686 4.1222864e-18)
(0.27703318 -0.00018303314 1.9222047e-18)
(0.27692935 -0.00022186743 2.4545795e-18)
(0.2766898 -0.00025879623 1.7365382e-18)
(0.27616569 -0.00029191777 1.5006558e-18)
(0.27501711 -0.00031711916 1.1590732e-18)
(0.27240981 -0.00032413774 5.6847916e-19)
(0.26665728 -0.00029141517 1.0031745e-18)
(0.256058 -0.00021166603 9.4152691e-19)
(0.24029748 -0.00011813047 7.635996e-19)
(0.21849214 -5.0707641e-05 7.7805482e-19)
(0.18244204 -8.9025319e-06 5.0259436e-19)
(0.27769504 -2.5479044e-05 1.5801264e-19)
(0.27769529 -6.4159806e-05 4.2423807e-18)
(0.27769247 -0.00010216064 3.1690549e-18)
(0.27767729 -0.00014226521 2.6985423e-18)
(0.27763035 -0.0001815595 2.5884351e-18)
(0.27751275 -0.00021994503 1.6314366e-18)
(0.27724666 -0.00025627339 1.0851183e-18)
(0.27666938 -0.00028847796 7.5220082e-19)
(0.275406 -0.00031203634 7.9188956e-19)
(0.27255164 -0.0003155742 5.6169431e-19)
(0.26641246 -0.00027805925 5.7957836e-19)
(0.25553894 -0.0001975371 6.0023345e-19)
(0.23978254 -0.00010914112 5.9038942e-19)
(0.21812621 -4.6517859e-05 5.1144596e-19)
(0.18224308 -8.1488531e-06 3.1992059e-19)
(0.27830111 -2.5301005e-05 2.010516e-18)
(0.27830062 -6.3700268e-05 3.1195457e-18)
(0.27829586 -0.0001014162 3.183971e-18)
(0.2782767 -0.00014119716 2.5141085e-18)
(0.278222 -0.00018012493 2.2251527e-18)
(0.27808956 -0.00021806116 1.4624046e-18)
(0.2777948 -0.00025377436 1.2204339e-18)
(0.27715962 -0.0002850166 9.5740091e-19)
(0.27577079 -0.00030679609 6.1789144e-19)
(0.27265429 -0.00030664248 5.5058495e-19)
(0.26613848 -0.00026467813 6.1263838e-19)
(0.2550323 -0.00018420368 4.6109591e-19)
(0.23929925 -0.00010092916 5.6435157e-19)
(0.21778713 -4.2725643e-05 5.2349467e-19)
(0.18206056 -7.4481417e-06 3.5947388e-19)
(0.27890291 -2.5128515e-05 3.6084166e-18)
(0.27890162 -6.3255126e-05 2.084676e-18)
(0.27889474 -0.00010069401 1.0310085e-18)
(0.27887126 -0.00014015826 2.131648e-18)
(0.27880821 -0.00017872332 2.3505203e-18)
(0.27865976 -0.00021620724 1.3490903e-18)
(0.27833397 -0.00025128651 1.1098183e-18)
(0.27763569 -0.00028151345 9.2750297e-19)
(0.27611001 -0.00030136188 7.7924209e-19)
(0.2727179 -0.00029734386 9.5897297e-19)
(0.26584062 -0.00025136317 6.0921764e-19)
(0.25454084 -0.00017167439 4.9783001e-19)
(0.23884602 -9.3403158e-05 4.1061543e-19)
(0.21747286 -3.9273086e-05 4.8078481e-19)
(0.18189296 -6.797032e-06 4.002533e-19)
(0.27950056 -2.4960971e-05 7.9000856e-20)
(0.2794984 -6.2822773e-05 4.3867272e-18)
(0.27948922 -9.9991431e-05 1.7656109e-18)
(0.27946108 -0.00013914466 9.6281898e-19)
(0.279389 -0.00017734922 2.5078276e-18)
(0.27922329 -0.00021437542 1.1190958e-18)
(0.27886389 -0.00024879793 2.9718352e-19)
(0.27809674 -0.00027794828 4.4428331e-19)
(0.27642222 -0.00029569921 4.5398357e-19)
(0.27274323 -0.00028769474 7.0024457e-19)
(0.2655241 -0.00023820406 2.3463314e-19)
(0.25406651 -0.00015993912 1.0779799e-19)
(0.23842119 -8.648105e-05 -1.2176639e-19)
(0.21718151 -3.611361e-05 4.2934407e-20)
(0.18173897 -6.1914729e-06 2.4061673e-19)
(0.28009418 -2.4797856e-05 3.4063578e-18)
(0.28009107 -6.2401833e-05 4.1538918e-18)
(0.28007941 -9.9306212e-05 4.1541787e-18)
(0.28004623 -0.00013815299 1.3652643e-18)
(0.27996442 -0.00017599776 2.1134075e-18)
(0.27978006 -0.00021255837 1.2084513e-18)
(0.2793842 -0.00024629715 4.8610146e-19)
(0.27854186 -0.00027430051 5.7246055e-19)
(0.27670605 -0.00028977675 4.8090945e-19)
(0.27273166 -0.0002777256 7.5232398e-19)
(0.26519392 -0.00022528491 1.9805463e-19)
(0.25361059 -0.00014897206 1.4992553e-19)
(0.23802316 -8.0091229e-05 -5.1632115e-20)
(0.21691137 -3.3209337e-05 -5.4094648e-20)
(0.18159747 -5.627097e-06 1.6856854e-19)
(0.28068388 -2.4638721e-05 2.8004682e-18)
(0.28067974 -6.1991113e-05 4.2564104e-18)
(0.28066539 -9.8636368e-05 3.0912148e-18)
(0.28062676 -0.00013718022 1.6008102e-18)
(0.28053445 -0.00017466447 1.4713421e-18)
(0.28032993 -0.00021074911 7.7326511e-19)
(0.27989449 -0.00024377295 7.3337118e-19)
(0.27897002 -0.0002705489 5.1305993e-19)
(0.27696025 -0.00028356785 5.4195339e-19)
(0.27268518 -0.00026747915 7.0989444e-19)
(0.26485469 -0.00021268092 2.2779176e-19)
(0.25317379 -0.00013873548 9.9062426e-20)
(0.23765034 -7.4172514e-05 9.0727435e-20)
(0.2166609 -3.0529028e-05 -5.7080168e-20)
(0.18146749 -5.0995644e-06 6.285934e-20)
(0.28126974 -2.4483172e-05 8.2515819e-19)
(0.28126449 -6.1589566e-05 5.6320761e-18)
(0.28124722 -9.7980135e-05 2.887321e-18)
(0.28120271 -0.00013622363 9.8965602e-19)
(0.28109907 -0.00017334514 4.9627563e-19)
(0.28087275 -0.00020894082 3.2368085e-20)
(0.28039427 -0.00024121406 -9.024069e-20)
(0.27938014 -0.00026667151 -1.9082409e-19)
(0.27718382 -0.00027705191 -4.603055e-20)
(0.27260633 -0.00025700811 1.1424121e-19)
(0.26451052 -0.00020045586 -1.3024417e-19)
(0.25275643 -0.00012918378 -2.9962403e-19)
(0.23730122 -6.8673274e-05 -3.7264957e-19)
(0.21642866 -2.8046558e-05 -3.180348e-19)
(0.18134818 -4.6048108e-06 -9.5256405e-20)
(0.28185185 -2.4330856e-05 2.3963198e-18)
(0.28184539 -6.119625e-05 4.8278032e-18)
(0.28182498 -9.7335907e-05 3.575835e-18)
(0.28177412 -0.00013528067 1.2064478e-18)
(0.28165823 -0.00017203573 6.2262708e-19)
(0.2814083 -0.00020712676 3.6612726e-19)
(0.28088299 -0.00023860899 1.91932e-19)
(0.27977106 -0.0002626457 -1.0814772e-19)
(0.27737601 -0.00027021574 -2.7380323e-20)
(0.27249806 -0.00024637257 7.357268e-20)
(0.26416497 -0.0001886604 -3.5483737e-19)
(0.2523585 -0.00012026722 -2.5712023e-19)
(0.23697438 -6.3550125e-05 -3.945357e-19)
(0.21621337 -2.5739815e-05 -2.1271014e-19)
(0.18123881 -4.1392031e-06 -8.1628247e-20)
(0.28243029 -2.4181448e-05 3.3176799e-18)
(0.28242252 -6.0810307e-05 4.155308e-18)
(0.28239871 -9.6702197e-05 3.9316133e-18)
(0.28234099 -0.00013434892 2.6540034e-18)
(0.28221186 -0.00017073227 1.8819679e-18)
(0.28193636 -0.00020530013 1.503061e-18)
(0.28136003 -0.00023594579 1.0848402e-18)
(0.2801416 -0.00025844846 7.4554857e-19)
(0.27753642 -0.00026305461 4.8497047e-19)
(0.27236366 -0.00023563725 4.1576719e-20)
(0.26382105 -0.00017733136 1.2837444e-19)
(0.25197976 -0.0001119352 2.0657193e-20)
(0.23666845 -5.876649e-05 2.5014165e-19)
(0.21601387 -2.3589919e-05 6.3658218e-20)
(0.1811387 -3.6995974e-06 6.6568208e-20)
(0.28300512 -2.4034647e-05 1.9219263e-18)
(0.28299594 -6.0430937e-05 1.8762811e-18)
(0.28296845 -9.6077595e-05 3.3887548e-18)
(0.28290332 -0.00013342601 2.7031238e-18)
(0.28275987 -0.00016943078 2.0385762e-18)
(0.28245663 -0.00020345397 1.5784463e-18)
(0.28182471 -0.00023321186 7.8953207e-19)
(0.28049057 -0.0002540569 6.2128061e-19)
(0.27766504 -0.00025557285 6.1802426e-19)
(0.27220658 -0.0002248688 4.9290183e-19)
(0.26348123 -0.00016649191 2.1421021e-19)
(0.25161982 -0.00010413863 2.7171595e-21)
(0.23638216 -5.4291233e-05 1.8347736e-19)
(0.21582908 -2.1580661e-05 7.4538371e-20)
(0.18104728 -3.2833426e-06 2.4596365e-20)
(0.2835764 -2.3890166e-05 2.369185e-18)
(0.28356569 -6.0057378e-05 3.2367883e-18)
(0.28353424 -9.5460737e-05 2.8751865e-18)
(0.2834611 -0.00013250962 2.8374435e-18)
(0.28330215 -0.00016812719 2.0785235e-18)
(0.28296879 -0.00020158114 1.1914326e-18)