/*--------------------------------*- C++ -*----------------------------------*\
| =========                 |                                                 |
| \\      /  F ield         | OpenFOAM: The Open Source CFD Toolbox           |
|  \\    /   O peration     | Version:  2506                                  |
|   \\  /    A nd           | Website:  www.openfoam.com                      |
|    \\/     M anipulation  |                                                 |
\*---------------------------------------------------------------------------*/
FoamFile
{
    version     2.0;
    format      ascii;
    arch        "LSB;label=32;scalar=64";
    class       volScalarField;
    location    "18000/water";
    object      T;
}
// * * * * * * * * * * * * * * * * * * * * * * * * * * * * * * * * * * * * * //

dimensions      [0 0 0 1 0 0 0];

internalField   nonuniform List<scalar> 
6000
(
333.15
333.15
333.15
333.15
333.15
333.15
333.15
333.15
333.15
333.15
333.15
333.14998
333.14989
333.14924
333.14256
333.15
333.15
333.15
333.15
333.15
333.15
333.15
333.15
333.15
333.15
333.14999
333.14994
333.14968
333.14816
333.13667
333.15
333.15
333.15
333.15
333.15
333.15
333.15
333.15
333.15
333.14999
333.14997
333.14987
333.14939
333.14689
333.13172
333.15
333.15
333.15
333.15
333.15
333.15
333.15
333.15
333.15
333.14999
333.14994
333.14976
333.14903
333.14547
333.12739
333.15
333.15
333.15
333.15
333.15
333.15
333.15
333.15
333.14999
333.14997
333.1499
333.14963
333.1486
333.14396
333.12352
333.15
333.15
333.15
333.15
333.15
333.15
333.15
333.15
333.14999
333.14996
333.14985
333.14947
333.14812
333.14237
333.11999
333.15
333.15
333.15
333.15
333.15
333.15
333.15
333.14999
333.14998
333.14994
333.14978
333.14929
333.1476
333.14073
333.11674
333.15
333.15
333.15
333.15
333.15
333.15
333.15
333.14999
333.14997
333.14991
333.1497
333.14909
333.14703
333.13906
333.11373
333.15
333.15
333.15
333.15
333.15
333.15
333.15
333.14999
333.14996
333.14987
333.14961
333.14886
333.14643
333.13737
333.11093
333.15
333.15
333.15
333.15
333.15
333.15
333.14999
333.14998
333.14994
333.14983
333.14951
333.14862
333.14578
333.13566
333.10831
333.15
333.15
333.15
333.15
333.15
333.15
333.14999
333.14998
333.14993
333.14978
333.1494
333.14836
333.1451
333.13396
333.10587
333.15
333.15
333.15
333.15
333.15
333.15
333.14999
333.14997
333.1499
333.14973
333.14928
333.14807
333.14437
333.13227
333.10358
333.15
333.15
333.15
333.15
333.15
333.14999
333.14998
333.14996
333.14988
333.14967
333.14915
333.14777
333.14361
333.13059
333.10144
333.15
333.15
333.15
333.15
333.15
333.14999
333.14998
333.14994
333.14985
333.14961
333.14901
333.14745
333.1428
333.12894
333.09945
333.15
333.15
333.15
333.15
333.15
333.14999
333.14997
333.14993
333.14982
333.14954
333.14886
333.1471
333.14195
333.12731
333.09759
333.15
333.15
333.15
333.15
333.15
333.14999
333.14997
333.14991
333.14978
333.14946
333.1487
333.14673
333.14106
333.12572
333.09588
333.15
333.15
333.15
333.15
333.14999
333.14998
333.14996
333.1499
333.14974
333.14938
333.14852
333.14634
333.14013
333.12417
333.0943
333.15
333.15
333.15
333.15
333.14999
333.14998
333.14995
333.14988
333.1497
333.14929
333.14834
333.14591
333.13916
333.12266
333.09284
333.15
333.15
333.15
333.15
333.14999
333.14998
333.14994
333.14985
333.14965
333.1492
333.14814
333.14546
333.13814
333.12121
333.09151
333.15
333.15
333.15
333.14999
333.14999
333.14997
333.14993
333.14983
333.1496
333.14909
333.14793
333.14497
333.13709
333.11981
333.0903
333.15
333.15
333.15
333.14999
333.14999
333.14997
333.14992
333.1498
333.14955
333.14899
333.1477
333.14444
333.13601
333.11847
333.0892
333.15
333.15
333.15
333.14999
333.14998
333.14996
333.1499
333.14977
333.14949
333.14887
333.14745
333.14388
333.13491
333.1172
333.08821
333.15
333.15
333.15
333.14999
333.14998
333.14995
333.14989
333.14974
333.14943
333.14875
333.14718
333.14328
333.13379
333.11599
333.08731
333.15
333.15
333.14999
333.14999
333.14998
333.14994
333.14987
333.14971
333.14936
333.14861
333.1469
333.14263
333.13266
333.11484
333.0865
333.15
333.15
333.14999
333.14999
333.14997
333.14993
333.14985
333.14967
333.14929
333.14847
333.14659
333.14195
333.13154
333.11376
333.08577
333.15
333.15
333.14999
333.14998
333.14997
333.14992
333.14983
333.14963
333.14921
333.14831
333.14625
333.14123
333.13042
333.11273
333.08512
333.15
333.15
333.14999
333.14998
333.14996
333.14991
333.14981
333.14959
333.14913
333.14815
333.14589
333.14047
333.12933
333.11177
333.08453
333.15
333.14999
333.14999
333.14998
333.14996
333.1499
333.14979
333.14954
333.14904
333.14797
333.14549
333.13967
333.12825
333.11087
333.08399
333.15
333.14999
333.14999
333.14998
333.14995
333.14989
333.14976
333.14949
333.14895
333.14777
333.14507
333.13885
333.12721
333.11001
333.08351
333.14999
333.14999
333.14999
333.14997
333.14994
333.14987
333.14973
333.14944
333.14884
333.14756
333.14461
333.13801
333.1262
333.10921
333.08307
333.14999
333.14999
333.14998
333.14997
333.14993
333.14986
333.1497
333.14939
333.14873
333.14733
333.14411
333.13715
333.12522
333.10846
333.08267
333.14999
333.14999
333.14998
333.14996
333.14992
333.14984
333.14967
333.14932
333.14862
333.14708
333.14359
333.13629
333.12429
333.10774
333.0823
333.14999
333.14999
333.14998
333.14996
333.14991
333.14982
333.14964
333.14926
333.14849
333.14681
333.14303
333.13542
333.12339
333.10707
333.08197
333.14999
333.14999
333.14998
333.14995
333.1499
333.1498
333.1496
333.14919
333.14835
333.14652
333.14245
333.13455
333.12253
333.10644
333.08166
333.14999
333.14998
333.14997
333.14995
333.14989
333.14978
333.14956
333.14911
333.1482
333.1462
333.14183
333.13369
333.1217
333.10584
333.08138
333.14999
333.14998
333.14997
333.14994
333.14988
333.14976
333.14952
333.14903
333.14803
333.14586
333.1412
333.13285
333.12092
333.10527
333.08112
333.14999
333.14998
333.14997
333.14993
333.14987
333.14974
333.14947
333.14895
333.14786
333.14549
333.14054
333.13202
333.12017
333.10473
333.08088
333.14998
333.14998
333.14996
333.14993
333.14985
333.14971
333.14942
333.14885
333.14766
333.14509
333.13986
333.13121
333.11945
333.10422
333.08066
333.14998
333.14998
333.14996
333.14992
333.14984
333.14968
333.14937
333.14875
333.14745
333.14467
333.13918
333.13042
333.11876
333.10374
333.08045
333.14998
333.14997
333.14995
333.14991
333.14982
333.14965
333.14931
333.14864
333.14723
333.14423
333.13848
333.12965
333.1181
333.10328
333.08026
333.14998
333.14997
333.14995
333.1499
333.1498
333.14962
333.14925
333.14852
333.14698
333.14375
333.13779
333.12891
333.11747
333.10284
333.08008
333.14997
333.14996
333.14994
333.14989
333.14978
333.14958
333.14918
333.14839
333.14672
333.14326
333.13709
333.12819
333.11687
333.10242
333.07991
333.14997
333.14996
333.14993
333.14988
333.14976
333.14954
333.14911
333.14824
333.14643
333.14275
333.1364
333.12749
333.11629
333.10203
333.07976
333.14997
333.14996
333.14993
333.14986
333.14974
333.1495
333.14903
333.14809
333.14612
333.14221
333.13571
333.12681
333.11573
333.10165
333.07961
333.14996
333.14995
333.14992
333.14985
333.14972
333.14946
333.14895
333.14792
333.14579
333.14167
333.13503
333.12616
333.1152
333.10128
333.07947
333.14996
333.14995
333.14991
333.14984
333.14969
333.14941
333.14886
333.14774
333.14544
333.14111
333.13436
333.12552
333.11469
333.10094
333.07935
333.14995
333.14994
333.1499
333.14982
333.14966
333.14936
333.14876
333.14754
333.14507
333.14054
333.13371
333.12491
333.1142
333.1006
333.07923
333.14995
333.14993
333.14989
333.1498
333.14963
333.1493
333.14865
333.14733
333.14468
333.13996
333.13306
333.12432
333.11372
333.10028
333.07912
333.14994
333.14993
333.14988
333.14979
333.1496
333.14924
333.14853
333.1471
333.14427
333.13938
333.13243
333.12374
333.11327
333.09998
333.07901
333.14994
333.14992
333.14987
333.14977
333.14957
333.14918
333.14841
333.14686
333.14384
333.1388
333.13181
333.12319
333.11283
333.09968
333.07891
333.14993
333.14991
333.14986
333.14974
333.14953
333.14911
333.14827
333.14659
333.1434
333.13822
333.13121
333.12265
333.11241
333.0994
333.07882
333.14993
333.1499
333.14984
333.14972
333.14949
333.14903
333.14812
333.14631
333.14294
333.13764
333.13062
333.12213
333.112
333.09913
333.07874
333.14992
333.14989
333.14983
333.1497
333.14944
333.14894
333.14796
333.14601
333.14247
333.13706
333.13005
333.12163
333.11161
333.09887
333.07866
333.14991
333.14988
333.14981
333.14967
333.14939
333.14885
333.14779
333.14569
333.14199
333.1365
333.12948
333.12114
333.11122
333.09862
333.07858
333.1499
333.14987
333.1498
333.14964
333.14934
333.14876
333.1476
333.14536
333.1415
333.13593
333.12894
333.12067
333.11086
333.09838
333.07851
333.14989
333.14986
333.14978
333.14961
333.14928
333.14865
333.1474
333.14501
333.141
333.13538
333.1284
333.12021
333.1105
333.09815
333.07845
333.14988
333.14985
333.14976
333.14958
333.14922
333.14853
333.14718
333.14464
333.1405
333.13483
333.12789
333.11976
333.11016
333.09792
333.07839
333.14987
333.14983
333.14974
333.14954
333.14916
333.14841
333.14695
333.14426
333.14
333.13429
333.12738
333.11933
333.10982
333.0977
333.07833
333.14986
333.14982
333.14971
333.1495
333.14908
333.14827
333.1467
333.14386
333.1395
333.13376
333.12688
333.11891
333.1095
333.09749
333.07827
333.14985
333.1498
333.14969
333.14946
333.149
333.14812
333.14643
333.14346
333.139
333.13324
333.1264
333.11851
333.10919
333.09729
333.07822
333.14983
333.14978
333.14966
333.14941
333.14892
333.14796
333.14615
333.14304
333.13849
333.13272
333.12593
333.11811
333.10888
333.0971
333.07818
333.14982
333.14976
333.14963
333.14936
333.14882
333.14779
333.14586
333.14261
333.138
333.13222
333.12548
333.11772
333.10859
333.09691
333.07813
333.1498
333.14974
333.1496
333.1493
333.14872
333.14761
333.14555
333.14218
333.1375
333.13173
333.12503
333.11735
333.1083
333.09672
333.07809
333.14978
333.14972
333.14956
333.14924
333.14861
333.14741
333.14522
333.14174
333.13701
333.13124
333.12459
333.11699
333.10802
333.09654
333.07806
333.14976
333.1497
333.14952
333.14917
333.1485
333.1472
333.14489
333.1413
333.13652
333.13077
333.12417
333.11663
333.10775
333.09637
333.07802
333.14974
333.14967
333.14948
333.1491
333.14837
333.14697
333.14454
333.14085
333.13604
333.1303
333.12375
333.11628
333.10749
333.0962
333.07799
333.14972
333.14964
333.14944
333.14903
333.14823
333.14673
333.14418
333.1404
333.13556
333.12985
333.12335
333.11595
333.10723
333.09604
333.07796
333.14969
333.14961
333.14939
333.14894
333.14808
333.14648
333.1438
333.13996
333.13509
333.1294
333.12295
333.11562
333.10698
333.09588
333.07793
333.14967
333.14957
333.14933
333.14885
333.14792
333.14621
333.14342
333.13951
333.13463
333.12896
333.12256
333.1153
333.10674
333.09573
333.0779
333.14964
333.14954
333.14928
333.14875
333.14774
333.14593
333.14304
333.13906
333.13417
333.12853
333.12218
333.11499
333.1065
333.09558
333.07788
333.14961
333.1495
333.14921
333.14864
333.14756
333.14563
333.14264
333.13861
333.13372
333.12811
333.12181
333.11468
333.10627
333.09544
333.07785
333.14957
333.14945
333.14914
333.14852
333.14736
333.14533
333.14224
333.13816
333.13327
333.1277
333.12145
333.11438
333.10604
333.0953
333.07783
333.14953
333.1494
333.14907
333.1484
333.14714
333.14501
333.14184
333.13772
333.13283
333.12729
333.1211
333.11409
333.10582
333.09516
333.07781
333.14949
333.14935
333.14899
333.14826
333.14692
333.14468
333.14143
333.13728
333.1324
333.1269
333.12075
333.1138
333.10561
333.09503
333.07779
333.14944
333.14929
333.1489
333.14811
333.14668
333.14434
333.14102
333.13684
333.13197
333.12651
333.12041
333.11353
333.1054
333.0949
333.07778
333.14939
333.14923
333.1488
333.14795
333.14643
333.14399
333.1406
333.13641
333.13156
333.12612
333.12008
333.11325
333.10519
333.09477
333.07776
333.14934
333.14916
333.14869
333.14778
333.14616
333.14363
333.14019
333.13598
333.13114
333.12575
333.11976
333.11299
333.10499
333.09465
333.07774
333.14928
333.14908
333.14858
333.14759
333.14588
333.14327
333.13977
333.13555
333.13074
333.12538
333.11944
333.11273
333.1048
333.09453
333.07773
333.14921
333.149
333.14845
333.1474
333.14559
333.1429
333.13936
333.13513
333.13034
333.12502
333.11912
333.11247
333.1046
333.09441
333.07772
333.14914
333.14891
333.14831
333.14718
333.14529
333.14252
333.13894
333.13472
333.12994
333.12466
333.11882
333.11222
333.10442
333.09429
333.0777
333.14906
333.14881
333.14817
333.14696
333.14498
333.14214
333.13853
333.1343
333.12955
333.12431
333.11852
333.11197
333.10423
333.09418
333.07769
333.14897
333.1487
333.14801
333.14672
333.14465
333.14175
333.13812
333.1339
333.12917
333.12397
333.11822
333.11173
333.10405
333.09407
333.07768
333.14888
333.14858
333.14784
333.14647
333.14432
333.14136
333.13771
333.13349
333.1288
333.12363
333.11793
333.1115
333.10387
333.09396
333.07767
333.14877
333.14845
333.14765
333.14621
333.14398
333.14097
333.1373
333.1331
333.12843
333.1233
333.11765
333.11127
333.1037
333.09385
333.07765
333.14865
333.14831
333.14745
333.14593
333.14363
333.14058
333.1369
333.1327
333.12806
333.12298
333.11737
333.11104
333.10353
333.09375
333.07764
333.14853
333.14816
333.14724
333.14565
333.14328
333.14018
333.13649
333.13231
333.1277
333.12266
333.1171
333.11082
333.10336
333.09364
333.07763
333.14839
333.14799
333.14702
333.14535
333.14291
333.13979
333.13609
333.13193
333.12735
333.12234
333.11683
333.1106
333.1032
333.09354
333.07762
333.14824
333.14781
333.14678
333.14503
333.14255
333.13939
333.13569
333.13155
333.127
333.12203
333.11656
333.11038
333.10304
333.09344
333.07761
333.14807
333.14761
333.14652
333.14471
333.14217
333.13899
333.1353
333.13117
333.12665
333.12173
333.1163
333.11017
333.10288
333.09335
333.0776
333.14789
333.1474
333.14625
333.14438
333.14179
333.1386
333.13491
333.1308
333.12632
333.12143
333.11605
333.10996
333.10272
333.09325
333.07759
333.14769
333.14718
333.14597
333.14404
333.14141
333.1382
333.13452
333.13043
333.12598
333.12113
333.1158
333.10976
333.10257
333.09315
333.07758
333.14748
333.14693
333.14568
333.14369
333.14103
333.13781
333.13413
333.13007
333.12565
333.12084
333.11555
333.10955
333.10241
333.09306
333.07757
333.14725
333.14667
333.14537
333.14333
333.14064
333.13741
333.13375
333.12971
333.12533
333.12056
333.1153
333.10935
333.10227
333.09297
333.07755
333.147
333.1464
333.14504
333.14296
333.14025
333.13702
333.13337
333.12936
333.12501
333.12027
333.11506
333.10916
333.10212
333.09288
333.07754
333.14673
333.1461
333.14471
333.14259
333.13986
333.13663
333.13299
333.12901
333.12469
333.12
333.11483
333.10897
333.10197
333.09278
333.07753
333.14644
333.14579
333.14436
333.14221
333.13946
333.13624
333.13262
333.12867
333.12438
333.11972
333.11459
333.10878
333.10183
333.0927
333.07752
333.14613
333.14546
333.144
333.14182
333.13907
333.13585
333.13225
333.12832
333.12407
333.11945
333.11436
333.10859
333.10169
333.09261
333.07751
333.14581
333.14512
333.14363
333.14143
333.13867
333.13546
333.13188
333.12799
333.12377
333.11918
333.11413
333.1084
333.10155
333.09252
333.07749
333.14546
333.14476
333.14324
333.14103
333.13827
333.13507
333.13152
333.12765
333.12347
333.11892
333.11391
333.10822
333.10141
333.09243
333.07748
333.1451
333.14439
333.14285
333.14063
333.13787
333.13469
333.13116
333.12732
333.12317
333.11866
333.11369
333.10804
333.10127
333.09234
333.07746
333.14472
333.144
333.14245
333.14023
333.13747
333.13431
333.1308
333.12699
333.12288
333.1184
333.11347
333.10786
333.10113
333.09226
333.07745
333.14432
333.14359
333.14204
333.13982
333.13707
333.13393
333.13045
333.12667
333.12259
333.11815
333.11325
333.10768
333.101
333.09217
333.07743
333.1439
333.14317
333.14162
333.1394
333.13667
333.13355
333.1301
333.12635
333.1223
333.1179
333.11304
333.10751
333.10087
333.09209
333.07742
333.14347
333.14274
333.14119
333.13898
333.13627
333.13317
333.12975
333.12603
333.12202
333.11765
333.11283
333.10733
333.10073
333.092
333.0774
333.14303
333.1423
333.14076
333.13856
333.13587
333.13279
333.1294
333.12572
333.12173
333.1174
333.11262
333.10716
333.1006
333.09192
333.07738
333.14258
333.14185
333.14032
333.13814
333.13547
333.13242
333.12906
333.1254
333.12146
333.11716
333.11241
333.10699
333.10047
333.09184
333.07736
333.14211
333.14139
333.13987
333.13772
333.13507
333.13205
333.12871
333.12509
333.12118
333.11692
333.1122
333.10682
333.10034
333.09175
333.07734
333.14164
333.14093
333.13942
333.13729
333.13467
333.13168
333.12837
333.12479
333.12091
333.11668
333.112
333.10666
333.10022
333.09167
333.07732
333.14116
333.14045
333.13897
333.13686
333.13427
333.13131
333.12804
333.12448
333.12064
333.11645
333.1118
333.10649
333.10009
333.09158
333.0773
333.14067
333.13997
333.13851
333.13643
333.13387
333.13094
333.1277
333.12418
333.12037
333.11621
333.1116
333.10633
333.09996
333.0915
333.07728
333.14017
333.13949
333.13805
333.13599
333.13347
333.13057
333.12737
333.12388
333.1201
333.11598
333.1114
333.10616
333.09984
333.09142
333.07726
333.13967
333.139
333.13758
333.13556
333.13307
333.1302
333.12704
333.12358
333.11984
333.11575
333.1112
333.106
333.09971
333.09133
333.07723
333.13917
333.13851
333.13712
333.13513
333.13267
333.12984
333.12671
333.12329
333.11958
333.11552
333.11101
333.10584
333.09958
333.09125
333.0772
333.13866
333.13802
333.13665
333.13469
333.13227
333.12948
333.12638
333.12299
333.11931
333.11529
333.11081
333.10568
333.09946
333.09116
333.07718
333.13815
333.13752
333.13618
333.13426
333.13187
333.12911
333.12605
333.1227
333.11906
333.11506
333.11062
333.10552
333.09933
333.09108
333.07715
333.13765
333.13703
333.13571
333.13383
333.13147
333.12875
333.12572
333.12241
333.1188
333.11484
333.11043
333.10536
333.09921
333.09099
333.07712
333.13714
333.13653
333.13525
333.13339
333.13108
333.12839
333.1254
333.12212
333.11854
333.11462
333.11024
333.1052
333.09909
333.09091
333.07709
333.13663
333.13604
333.13478
333.13296
333.13068
333.12804
333.12508
333.12183
333.11829
333.11439
333.11005
333.10504
333.09896
333.09082
333.07706
333.13612
333.13555
333.13431
333.13253
333.13029
333.12768
333.12476
333.12155
333.11803
333.11417
333.10986
333.10488
333.09884
333.09074
333.07702
333.13562
333.13506
333.13385
333.1321
333.12989
333.12732
333.12444
333.12126
333.11778
333.11395
333.10967
333.10473
333.09871
333.09065
333.07699
333.13512
333.13457
333.13339
333.13167
333.1295
333.12697
333.12412
333.12098
333.11753
333.11373
333.10948
333.10457
333.09859
333.09056
333.07695
333.13462
333.13408
333.13292
333.13124
333.12911
333.12662
333.1238
333.12069
333.11728
333.11352
333.10929
333.10441
333.09846
333.09047
333.07691
333.13412
333.1336
333.13247
333.13082
333.12872
333.12626
333.12349
333.12041
333.11703
333.1133
333.10911
333.10426
333.09834
333.09038
333.07687
333.13363
333.13312
333.13201
333.13039
333.12834
333.12591
333.12317
333.12013
333.11678
333.11308
333.10892
333.1041
333.09821
333.09029
333.07683
333.13314
333.13264
333.13156
333.12997
333.12795
333.12557
333.12286
333.11985
333.11654
333.11287
333.10873
333.10394
333.09809
333.0902
333.07678
333.13266
333.13217
333.13111
333.12955
333.12757
333.12522
333.12255
333.11957
333.11629
333.11265
333.10855
333.10379
333.09796
333.09011
333.07674
333.13218
333.1317
333.13066
333.12914
333.12719
333.12487
333.12224
333.1193
333.11605
333.11243
333.10836
333.10363
333.09783
333.09001
333.07669
333.13171
333.13124
333.13022
333.12873
333.12681
333.12453
333.12193
333.11902
333.1158
333.11222
333.10818
333.10347
333.09771
333.08992
333.07664
333.13124
333.13078
333.12978
333.12832
333.12644
333.12419
333.12162
333.11875
333.11556
333.11201
333.10799
333.10332
333.09758
333.08982
333.07659
333.13077
333.13032
333.12935
333.12791
333.12606
333.12385
333.12131
333.11847
333.11531
333.11179
333.10781
333.10316
333.09745
333.08973
333.07653
333.13031
333.12987
333.12892
333.12751
333.12569
333.12351
333.12101
333.1182
333.11507
333.11158
333.10762
333.103
333.09732
333.08963
333.07648
333.12986
333.12943
333.12849
333.12711
333.12532
333.12318
333.12071
333.11793
333.11483
333.11136
333.10743
333.10284
333.09719
333.08953
333.07642
333.12941
333.12898
333.12807
333.12671
333.12496
333.12284
333.1204
333.11766
333.11459
333.11115
333.10725
333.10268
333.09706
333.08943
333.07636
333.12896
333.12855
333.12765
333.12632
333.12459
333.12251
333.1201
333.11739
333.11435
333.11094
333.10706
333.10253
333.09693
333.08932
333.0763
333.12852
333.12812
333.12724
333.12593
333.12423
333.12218
333.1198
333.11712
333.11411
333.11073
333.10688
333.10237
333.09679
333.08922
333.07624
333.12809
333.12769
333.12683
333.12555
333.12388
333.12185
333.11951
333.11685
333.11387
333.11051
333.10669
333.10221
333.09666
333.08912
333.07617
333.12766
333.12727
333.12642
333.12516
333.12352
333.12153
333.11921
333.11658
333.11363
333.1103
333.10651
333.10205
333.09653
333.08901
333.0761
333.12723
333.12685
333.12602
333.12479
333.12317
333.1212
333.11892
333.11632
333.11339
333.11009
333.10632
333.10188
333.09639
333.0889
333.07603
333.12681
333.12644
333.12563
333.12441
333.12282
333.12088
333.11863
333.11605
333.11315
333.10988
333.10613
333.10172
333.09625
333.08879
333.07596
333.1264
333.12603
333.12524
333.12404
333.12247
333.12056
333.11833
333.11579
333.11292
333.10967
333.10595
333.10156
333.09611
333.08868
333.07588
333.12599
333.12563
333.12485
333.12367
333.12213
333.12025
333.11804
333.11553
333.11268
333.10946
333.10576
333.1014
333.09598
333.08857
333.0758
333.12559
333.12524
333.12447
333.12331
333.12179
333.11993
333.11776
333.11527
333.11244
333.10925
333.10557
333.10123
333.09583
333.08845
333.07572
333.12519
333.12484
333.12409
333.12295
333.12145
333.11962
333.11747
333.11501
333.11221
333.10904
333.10539
333.10107
333.09569
333.08833
333.07564
333.1248
333.12446
333.12371
333.12259
333.12112
333.11931
333.11719
333.11475
333.11198
333.10882
333.1052
333.1009
333.09555
333.08822
333.07556
333.12441
333.12407
333.12334
333.12224
333.12079
333.11901
333.1169
333.11449
333.11174
333.10861
333.10501
333.10074
333.09541
333.0881
333.07547
333.12402
333.12369
333.12297
333.12189
333.12046
333.1187
333.11662
333.11423
333.11151
333.1084
333.10482
333.10057
333.09526
333.08798
333.07538
333.12364
333.12332
333.12261
333.12155
333.12013
333.1184
333.11634
333.11398
333.11128
333.10819
333.10463
333.1004
333.09512
333.08785
333.07529
333.12327
333.12295
333.12225
333.1212
333.11981
333.1181
333.11607
333.11372
333.11104
333.10798
333.10444
333.10024
333.09497
333.08773
333.07519
333.1229
333.12259
333.1219
333.12086
333.11949
333.1178
333.11579
333.11347
333.11081
333.10777
333.10426
333.10007
333.09482
333.0876
333.0751
333.12253
333.12223
333.12155
333.12053
333.11918
333.1175
333.11552
333.11322
333.11058
333.10756
333.10407
333.0999
333.09467
333.08748
333.075
333.12217
333.12187
333.1212
333.1202
333.11886
333.11721
333.11524
333.11296
333.11035
333.10736
333.10388
333.09973
333.09452
333.08735
333.0749
333.12182
333.12152
333.12086
333.11987
333.11855
333.11692
333.11497
333.11271
333.11012
333.10715
333.10369
333.09956
333.09437
333.08722
333.0748
333.12146
333.12117
333.12052
333.11954
333.11824
333.11663
333.1147
333.11247
333.10989
333.10694
333.1035
333.09938
333.09422
333.08708
333.07469
333.12112
333.12083
333.12019
333.11922
333.11794
333.11634
333.11444
333.11222
333.10967
333.10673
333.10331
333.09921
333.09406
333.08695
333.07459
333.12077
333.12049
333.11986
333.1189
333.11764
333.11606
333.11417
333.11197
333.10944
333.10652
333.10312
333.09904
333.09391
333.08682
333.07448
333.12043
333.12015
333.11953
333.11859
333.11734
333.11577
333.11391
333.11173
333.10921
333.10631
333.10292
333.09887
333.09375
333.08668
333.07437
333.1201
333.11982
333.11921
333.11828
333.11704
333.11549
333.11364
333.11148
333.10898
333.1061
333.10273
333.09869
333.0936
333.08654
333.07425
333.11976
333.11949
333.11889
333.11797
333.11674
333.11521
333.11338
333.11124
333.10876
333.10589
333.10254
333.09852
333.09344
333.0864
333.07414
333.11943
333.11916
333.11857
333.11766
333.11645
333.11494
333.11312
333.11099
333.10853
333.10568
333.10235
333.09834
333.09328
333.08626
333.07402
333.11911
333.11884
333.11825
333.11736
333.11616
333.11466
333.11286
333.11075
333.10831
333.10548
333.10216
333.09817
333.09312
333.08612
333.0739
333.11879
333.11853
333.11794
333.11706
333.11587
333.11439
333.11261
333.11051
333.10808
333.10527
333.10197
333.09799
333.09296
333.08597
333.07378
333.11847
333.11821
333.11764
333.11676
333.11559
333.11412
333.11235
333.11027
333.10786
333.10506
333.10177
333.09781
333.0928
333.08583
333.07366
333.11816
333.1179
333.11733
333.11647
333.11531
333.11385
333.1121
333.11004
333.10764
333.10485
333.10158
333.09763
333.09263
333.08568
333.07353
333.11785
333.11759
333.11703
333.11617
333.11503
333.11358
333.11185
333.1098
333.10742
333.10465
333.10139
333.09745
333.09247
333.08553
333.07341
333.11754
333.11729
333.11673
333.11589
333.11475
333.11332
333.11159
333.10956
333.10719
333.10444
333.10119
333.09727
333.0923
333.08538
333.07328
333.11724
333.11699
333.11644
333.1156
333.11447
333.11306
333.11134
333.10933
333.10697
333.10423
333.101
333.0971
333.09214
333.08523
333.07315
333.11693
333.11669
333.11614
333.11531
333.1142
333.11279
333.1111
333.10909
333.10675
333.10402
333.10081
333.09691
333.09197
333.08508
333.07302
333.11664
333.11639
333.11585
333.11503
333.11393
333.11253
333.11085
333.10886
333.10653
333.10382
333.10061
333.09673
333.0918
333.08493
333.07289
333.11634
333.1161
333.11557
333.11475
333.11366
333.11228
333.1106
333.10863
333.10631
333.10361
333.10042
333.09655
333.09163
333.08477
333.07275
333.11605
333.11581
333.11528
333.11448
333.11339
333.11202
333.11036
333.10839
333.10609
333.1034
333.10022
333.09637
333.09146
333.08462
333.07262
333.11576
333.11552
333.115
333.1142
333.11313
333.11177
333.11012
333.10816
333.10588
333.1032
333.10003
333.09619
333.09129
333.08446
333.07248
333.11547
333.11524
333.11472
333.11393
333.11286
333.11151
333.10988
333.10793
333.10566
333.10299
333.09984
333.09601
333.09112
333.0843
333.07234
333.11519
333.11496
333.11444
333.11366
333.1126
333.11126
333.10963
333.1077
333.10544
333.10279
333.09964
333.09582
333.09095
333.08415
333.0722
333.11491
333.11468
333.11417
333.11339
333.11234
333.11101
333.1094
333.10748
333.10522
333.10258
333.09945
333.09564
333.09078
333.08399
333.07206
333.11463
333.1144
333.1139
333.11313
333.11208
333.11076
333.10916
333.10725
333.10501
333.10237
333.09925
333.09545
333.09061
333.08383
333.07191
333.11435
333.11413
333.11363
333.11286
333.11183
333.11052
333.10892
333.10702
333.10479
333.10217
333.09906
333.09527
333.09043
333.08366
333.07177
333.11408
333.11386
333.11336
333.1126
333.11157
333.11027
333.10868
333.1068
333.10457
333.10196
333.09886
333.09508
333.09026
333.0835
333.07162
333.11381
333.11359
333.1131
333.11234
333.11132
333.11003
333.10845
333.10657
333.10436
333.10176
333.09867
333.0949
333.09008
333.08334
333.07148
333.11354
333.11332
333.11283
333.11208
333.11107
333.10978
333.10822
333.10635
333.10414
333.10155
333.09847
333.09471
333.08991
333.08317
333.07133
333.11327
333.11305
333.11257
333.11183
333.11082
333.10954
333.10798
333.10612
333.10393
333.10135
333.09827
333.09453
333.08973
333.08301
333.07118
333.11301
333.11279
333.11231
333.11157
333.11057
333.1093
333.10775
333.1059
333.10372
333.10114
333.09808
333.09434
333.08955
333.08284
333.07103
333.11275
333.11253
333.11205
333.11132
333.11033
333.10906
333.10752
333.10568
333.1035
333.10094
333.09788
333.09415
333.08938
333.08268
333.07088
333.11249
333.11227
333.1118
333.11107
333.11008
333.10883
333.10729
333.10546
333.10329
333.10073
333.09769
333.09396
333.0892
333.08251
333.07072
333.11223
333.11201
333.11154
333.11082
333.10984
333.10859
333.10706
333.10523
333.10308
333.10053
333.09749
333.09378
333.08902
333.08234
333.07057
333.11197
333.11176
333.11129
333.11057
333.1096
333.10835
333.10683
333.10501
333.10286
333.10032
333.09729
333.09359
333.08884
333.08217
333.07041
333.11172
333.11151
333.11104
333.11033
333.10936
333.10812
333.10661
333.10479
333.10265
333.10012
333.0971
333.0934
333.08866
333.082
333.07026
333.11146
333.11126
333.11079
333.11008
333.10912
333.10789
333.10638
333.10458
333.10244
333.09991
333.0969
333.09321
333.08848
333.08183
333.0701
333.11121
333.11101
333.11055
333.10984
333.10888
333.10765
333.10615
333.10436
333.10223
333.09971
333.0967
333.09302
333.0883
333.08166
333.06994
333.11096
333.11076
333.1103
333.1096
333.10864
333.10742
333.10593
333.10414
333.10202
333.09951
333.09651
333.09283
333.08812
333.08149
333.06978
333.11072
333.11051
333.11006
333.10936
333.10841
333.10719
333.10571
333.10392
333.10181
333.0993
333.09631
333.09264
333.08794
333.08132
333.06962
333.11047
333.11027
333.10981
333.10912
333.10817
333.10696
333.10548
333.1037
333.1016
333.0991
333.09611
333.09246
333.08776
333.08114
333.06946
333.11023
333.11002
333.10957
333.10888
333.10794
333.10674
333.10526
333.10349
333.10139
333.0989
333.09592
333.09227
333.08757
333.08097
333.0693
333.10998
333.10978
333.10933
333.10864
333.10771
333.10651
333.10504
333.10327
333.10118
333.09869
333.09572
333.09208
333.08739
333.0808
333.06914
333.10974
333.10954
333.10909
333.10841
333.10748
333.10628
333.10482
333.10306
333.10097
333.09849
333.09552
333.09188
333.08721
333.08062
333.06898
333.1095
333.1093
333.10886
333.10818
333.10725
333.10606
333.1046
333.10284
333.10076
333.09829
333.09533
333.09169
333.08702
333.08045
333.06881
333.10926
333.10906
333.10862
333.10794
333.10702
333.10583
333.10438
333.10263
333.10055
333.09808
333.09513
333.0915
333.08684
333.08027
333.06865
333.10902
333.10883
333.10839
333.10771
333.10679
333.10561
333.10416
333.10241
333.10034
333.09788
333.09493
333.09131
333.08666
333.08009
333.06848
333.10879
333.10859
333.10815
333.10748
333.10656
333.10539
333.10394
333.1022
333.10013
333.09768
333.09473
333.09112
333.08647
333.07992
333.06832
333.10855
333.10836
333.10792
333.10725
333.10634
333.10516
333.10372
333.10199
333.09992
333.09747
333.09454
333.09093
333.08629
333.07974
333.06815