/*--------------------------------*- C++ -*----------------------------------*\
| =========                 |                                                 |
| \\      /  F ield         | OpenFOAM: The Open Source CFD Toolbox           |
|  \\    /   O peration     | Version:  2506                                  |
|   \\  /    A nd           | Website:  www.openfoam.com                      |
|    \\/     M anipulation  |                                                 |
\*---------------------------------------------------------------------------*/
FoamFile
{
    version     2.0;
    format      ascii;
    arch        "LSB;label=32;scalar=64";
    class       volVectorField;
    location    "18000/water";
    object      U;
}
// * * * * * * * * * * * * * * * * * * * * * * * * * * * * * * * * * * * * * //

dimensions      [0 1 -1 0 0 0 0];

internalField   nonuniform List<vector> 
6000
(
(0.25028648 -3.4193492e-05 -4.9552799e-19)
(0.25028875 -7.4648812e-05 -4.8761024e-18)
(0.25029344 -0.00011804414 -5.9891175e-19)
(0.25030059 -0.00016540046 -6.4250064e-19)
(0.25031046 -0.00021487336 -8.1279417e-20)
(0.25032332 -0.00026685039 2.3204746e-19)
(0.25033948 -0.00032192175 1.2968544e-19)
(0.25035939 -0.00038078672 -1.0820674e-19)
(0.25038356 -0.00044434477 -2.6128074e-19)
(0.25041254 -0.00051362452 -3.6458983e-20)
(0.25044587 -0.00058677559 1.8535432e-19)
(0.25047643 -0.00065822056 1.9482189e-19)
(0.25046276 -0.00078466513 5.3113732e-20)
(0.25013031 -0.0015987837 1.6839776e-19)
(0.24584996 0.0019968142 2.4675316e-20)
(0.25104035 -3.7261304e-05 5.9185742e-19)
(0.25104514 -8.989598e-05 -2.3623312e-18)
(0.2510558 -0.00014352114 -1.0927081e-18)
(0.25107219 -0.00020025424 -8.5852629e-19)
(0.2510947 -0.0002571822 1.3763575e-18)
(0.25112368 -0.00031440571 5.9394418e-19)
(0.25115965 -0.00037188242 3.993536e-20)
(0.25120324 -0.00042947839 -1.78201e-21)
(0.2512551 -0.00048709454 -3.9886581e-19)
(0.25131538 -0.00054561245 -4.3645448e-21)
(0.25138039 -0.00060405492 2.606345e-19)
(0.25142587 -0.00063755821 3.6100896e-19)
(0.25133175 -0.00059164843 1.1226346e-19)
(0.25037931 -0.0014370973 1.7275816e-19)
(0.24194277 0.00099520264 6.0774689e-20)
(0.25195051 -3.6589029e-05 -9.6829116e-19)
(0.25195563 -9.0250613e-05 3.7533576e-18)
(0.25196731 -0.00014313025 8.5702413e-19)
(0.25198528 -0.00019912656 -7.6655816e-19)
(0.25200977 -0.00025508716 8.6686361e-19)
(0.25204101 -0.0003112558 -4.8433862e-19)
(0.25207932 -0.00036762123 -5.5462173e-19)
(0.25212505 -0.00042413945 -5.7790399e-19)
(0.25217823 -0.00048056787 -5.4265059e-19)
(0.25223708 -0.0005377572 -2.5244109e-19)
(0.25229114 -0.00060007155 -4.2744521e-19)
(0.25229033 -0.00065419843 -2.2270286e-19)
(0.25200573 -0.00054460881 -1.9706636e-19)
(0.25014357 -0.0012195308 -1.5314831e-19)
(0.23758495 0.00043820543 -6.5922816e-20)
(0.25283353 -3.7446604e-05 2.0463152e-19)
(0.25283867 -9.3611088e-05 6.1078725e-19)
(0.25285018 -0.00014906892 8.3076843e-19)
(0.25286783 -0.00020791578 2.8185956e-19)
(0.25289182 -0.00026672308 1.5709561e-19)
(0.25292238 -0.00032582165 -4.4345112e-19)
(0.25295982 -0.00038519269 -2.9347163e-19)
(0.25300432 -0.00044485276 -2.8705948e-19)
(0.25305525 -0.00050441426 -4.648545e-19)
(0.25310809 -0.00056332944 7.4486793e-20)
(0.25314261 -0.00062607506 -3.7891747e-19)
(0.25307635 -0.00069910336 -3.1544781e-19)
(0.25255493 -0.0005845712 -1.9615462e-19)
(0.24963188 -0.001063787 -1.1933656e-19)
(0.23320285 0.0001058672 -4.4176371e-20)
(0.25372643 -3.8342944e-05 9.1119603e-18)
(0.2537317 -9.6368692e-05 2.5873373e-18)
(0.25374347 -0.00015372841 1.5444127e-18)
(0.25376156 -0.00021453144 1.0310034e-18)
(0.25378616 -0.00027516439 6.432447e-19)
(0.25381749 -0.00033599427 7.0309519e-19)
(0.25385581 -0.00039694563 4.3828682e-19)
(0.25390101 -0.00045805575 3.9067491e-19)
(0.25395133 -0.00051907431 -8.4927109e-20)
(0.25399821 -0.00057855465 1.3338109e-19)
(0.25400834 -0.00063773998 1.6335185e-19)
(0.25386022 -0.0007177221 -1.2704167e-20)
(0.25305737 -0.00062191547 2.8625654e-20)
(0.24895451 -0.00093835859 1.5057115e-19)
(0.22897365 -8.3792338e-05 1.2825408e-19)
(0.25464474 -3.866162e-05 8.3235035e-19)
(0.25465014 -9.7320119e-05 -2.2366738e-18)
(0.2546622 -0.00015516462 5.9643896e-19)
(0.25468073 -0.00021648309 1.2346089e-19)
(0.2547059 -0.00027758564 -5.1328906e-20)
(0.25473792 -0.000338881 4.3055671e-19)
(0.25477689 -0.00040025681 9.0238035e-20)
(0.25482222 -0.000461728 1.4357665e-19)
(0.25487049 -0.00052322808 1.1537671e-19)
(0.2549078 -0.000583188 -1.2931259e-19)
(0.25488519 -0.00063896641 -3.5281798e-20)
(0.25463685 -0.00071821651 -1.9288177e-19)
(0.25350729 -0.0006469875 -1.5581357e-19)
(0.248129 -0.00083894719 1.2112768e-19)
(0.2249409 -0.00018589273 1.1726841e-19)
(0.25557031 -3.8595293e-05 -8.3454226e-19)
(0.25557581 -9.7309347e-05 -4.0634274e-18)
(0.25558805 -0.00015511983 -1.0857984e-18)
(0.25560682 -0.00021642527 2.0058359e-19)
(0.2556323 -0.0002774936 -1.152677e-18)
(0.25566463 -0.00033876345 5.342366e-19)
(0.25570371 -0.00040009734 -1.872176e-20)
(0.25574825 -0.00046144626 3.6413961e-20)
(0.25579256 -0.00052279714 9.6140201e-20)
(0.25581623 -0.0005828814 -4.4631499e-20)
(0.25575267 -0.00063600478 -2.1498773e-19)
(0.25538743 -0.00071016267 -6.8937908e-20)
(0.25388915 -0.00066107344 -1.4413187e-19)
(0.24716598 -0.00076077854 5.5653397e-20)
(0.22112141 -0.00023459296 1.2585502e-19)
(0.25649134 -3.8297106e-05 5.7686571e-18)
(0.25649692 -9.6712129e-05 2.4294661e-18)
(0.25650928 -0.00015419069 2.1283069e-18)
(0.25652824 -0.00021515485 1.056662e-18)
(0.25655393 -0.00027585718 -9.3183571e-19)
(0.25658641 -0.0003367553 3.4600887e-19)
(0.25662528 -0.00039769653 1.9480365e-19)
(0.2566683 -0.00045856441 8.7199872e-20)
(0.25670691 -0.00051927104 -1.1374509e-19)
(0.25671305 -0.00057893859 -3.9943947e-19)
(0.25660095 -0.00063003278 -2.0860798e-19)
(0.25610359 -0.00069722485 -8.7117584e-21)
(0.25419746 -0.0006651972 -4.839943e-20)
(0.24608527 -0.00069788903 1.2971842e-20)
(0.21752738 -0.00025081848 1.1941968e-19)
(0.25740382 -3.7852859e-05 -2.6611878e-18)
(0.25740947 -9.5689494e-05 -1.9685531e-18)
(0.25742193 -0.00015257331 7.7378553e-19)
(0.25744104 -0.00021291358 7.5532694e-19)
(0.25746687 -0.00027297291 5.0927408e-19)
(0.25749936 -0.0003332193 9.6244705e-20)
(0.2575377 -0.00039348924 -5.2175353e-20)
(0.2575784 -0.00045361302 1.7330352e-19)
(0.25760945 -0.00051335259 -3.6843406e-20)
(0.25759421 -0.00057212214 1.0513503e-19)
(0.25742635 -0.00062159363 4.6538318e-20)
(0.25678237 -0.00068144217 -7.5116095e-20)
(0.25443121 -0.00066103685 2.8609122e-20)
(0.24490935 -0.00064561644 3.1609262e-20)
(0.21416513 -0.00024776584 1.6101445e-19)
(0.25830515 -3.7308638e-05 8.2225213e-19)
(0.25831084 -9.4372769e-05 -7.0770108e-19)
(0.25832339 -0.00015047649 -8.4750136e-19)
(0.2583426 -0.00020999612 -2.6581681e-19)
(0.25836849 -0.00026922145 -5.1641466e-19)
(0.25840083 -0.00032862339 2.1343711e-19)
(0.25843826 -0.00038802595 1.6735784e-19)
(0.25847573 -0.00044722018 6.8092011e-20)
(0.25849727 -0.00050579279 1.9229973e-19)
(0.25845683 -0.00056328987 3.0665435e-19)
(0.25822634 -0.00061131675 2.0994632e-19)
(0.25742154 -0.00066417743 7.258691e-20)
(0.2545896 -0.00065044234 1.7852029e-20)
(0.24365871 -0.00060064453 4.2427045e-20)
(0.21103455 -0.00023378679 9.1157322e-20)
(0.259193 -3.669388e-05 4.8460824e-18)
(0.25919873 -9.285746e-05 6.1650062e-18)
(0.25921134 -0.00014806165 -1.2876189e-18)
(0.25923061 -0.00020663289 8.8428689e-20)
(0.25925648 -0.0002648995 6.5587288e-19)
(0.25928848 -0.00032332972 3.2056165e-19)
(0.25932457 -0.00038173097 5.422207e-19)
(0.25935785 -0.00043986308 2.102884e-19)
(0.25936788 -0.00049714489 8.6557738e-20)
(0.25929853 -0.00055310431 -8.7542258e-20)
(0.2589988 -0.00059970361 2.2955191e-19)
(0.25801896 -0.00064623362 1.9985858e-19)
(0.25467145 -0.00063499349 6.3854748e-22)
(0.24235144 -0.00056062195 4.5478284e-20)
(0.20813123 -0.0002141088 -3.4386425e-20)
(0.26006576 -3.6034055e-05 1.8491373e-18)
(0.26007152 -9.1214285e-05 3.8194188e-18)
(0.26008417 -0.00014544281 -8.966148e-19)
(0.26010346 -0.00020298347 2.3060802e-19)
(0.26012923 -0.00026021093 7.6953339e-19)
(0.2601607 -0.0003175869 -3.584653e-20)
(0.26019497 -0.00037489796 5.0322059e-19)
(0.26022303 -0.0004318747 1.6853139e-19)
(0.26021952 -0.00048779066 -6.6527813e-20)
(0.26011767 -0.00054204301 -1.6518806e-19)
(0.25974224 -0.00058714002 1.0839229e-20)
(0.25857279 -0.00062806077 2.1964935e-20)
(0.25467557 -0.00061594005 5.9173019e-20)
(0.24100379 -0.00052390611 8.9812835e-20)
(0.20544863 -0.00019196316 6.1371383e-21)
(0.2609225 -3.5349633e-05 4.5374346e-18)
(0.26092828 -8.9497286e-05 2.9853383e-18)
(0.26094096 -0.00014270541 8.218038e-19)
(0.26096023 -0.00019916671 6.9518999e-19)
(0.2609858 -0.00025530722 9.5052616e-19)
(0.2610165 -0.00031157921 -1.4785934e-19)
(0.26104844 -0.00036774517 1.6804517e-19)
(0.2610702 -0.00042350433 -1.257299e-20)
(0.26105114 -0.00047801113 4.0104107e-20)
(0.26091327 -0.00053046086 -1.1180303e-19)
(0.2604557 -0.00057393662 -2.0128417e-20)
(0.2590814 -0.00060990566 -1.1843917e-19)
(0.2546009 -0.00059424331 7.4967988e-20)
(0.23963056 -0.00048937354 2.7863809e-21)
(0.20297926 -0.00016931833 5.9139924e-20)
(0.26176274 -3.4655538e-05 5.3431832e-18)
(0.26176854 -8.7746856e-05 3.5017903e-18)
(0.26178122 -0.00013991377 -5.2165468e-19)
(0.26180042 -0.00019527247 6.5040627e-19)
(0.26182568 -0.00025030306 9.3914619e-19)
(0.26185536 -0.00030544608 5.1657651e-19)
(0.26188442 -0.00036043768 2.1483617e-19)
(0.26189878 -0.00041494196 9.601154e-20)
(0.26186213 -0.00046801762 3.6103983e-19)
(0.2616848 -0.00051862213 -1.025654e-19)
(0.26113855 -0.00056034346 7.7953486e-20)
(0.25954316 -0.00059189152 8.1390266e-20)
(0.25444651 -0.0005706321 4.3656641e-20)
(0.23824529 -0.00045627776 -1.6863996e-20)
(0.20071509 -0.00014735259 6.7857945e-20)
(0.26258633 -3.3963061e-05 3.3102089e-18)
(0.26259213 -8.5993781e-05 1.1358517e-18)
(0.26260479 -0.00013711719 1.6458836e-18)
(0.26262388 -0.00019136968 6.8939027e-20)
(0.2626487 -0.00024528655 -8.6333517e-19)
(0.26267708 -0.00029929459 6.3658943e-19)
(0.26270267 -0.00035310243 2.0426987e-19)
(0.26270848 -0.00040633486 3.4478016e-19)
(0.26265224 -0.00045797299 4.9367103e-19)
(0.26243199 -0.00050672606 -2.0910405e-19)
(0.26179026 -0.00054656345 1.8452149e-20)
(0.25995633 -0.0005740675 1.1864168e-19)
(0.25421177 -0.00054566294 1.0634453e-19)
(0.23686046 -0.00042415214 1.0746195e-19)
(0.19864765 -0.0001267576 1.0385585e-19)
(0.26339335 -3.32814e-05 2.0925631e-18)
(0.26339915 -8.4262741e-05 2.8671114e-18)
(0.26341177 -0.0001343551 2.0620442e-18)
(0.26343068 -0.0001875135 1.2160256e-18)
(0.26345493 -0.00024032822 1.1125534e-18)
(0.26348171 -0.00029321054 5.9672096e-19)
(0.2635032 -0.00034584107 1.7185405e-19)
(0.2634993 -0.00039780175 1.0048953e-19)
(0.26342146 -0.00044800829 1.8634016e-19)
(0.26315482 -0.00049492779 -7.3772906e-20)
(0.26241041 -0.00053276478 4.8527426e-20)
(0.26031893 -0.00055643964 1.4399946e-19)
(0.2538966 -0.000519773 1.4488768e-19)
(0.23548766 -0.00039274464 1.4307718e-19)
(0.19676807 -0.00010792878 1.295925e-19)
(0.26418413 -3.2618313e-05 1.492176e-18)
(0.26418991 -8.2574226e-05 3.1862804e-18)
(0.26420246 -0.00013166021 1.687703e-18)
(0.26422112 -0.0001837496 1.915055e-18)
(0.26424465 -0.00023548649 9.4842498e-19)
(0.2642695 -0.00028726512 3.5327134e-19)
(0.26428624 -0.00033873796 2.9760896e-19)
(0.26427145 -0.00038944152 3.3540248e-20)
(0.26416998 -0.0004382328 9.1623188e-20)
(0.26385341 -0.00048335173 9.426481e-20)
(0.26299854 -0.00051908846 6.9208148e-20)
(0.26062878 -0.00053898815 2.0822075e-19)
(0.25350187 -0.00049331965 9.443568e-20)
(0.2341376 -0.00036197184 1.2029665e-19)
(0.19506692 -9.1079356e-05 1.1139211e-19)
(0.26495914 -3.1980325e-05 3.8685884e-18)
(0.2649649 -8.0945389e-05 3.9216894e-18)
(0.26497734 -0.00012905989 2.5647111e-18)
(0.26499568 -0.00018011622 1.4716372e-18)
(0.26501831 -0.00023081031 1.2718128e-18)
(0.26504088 -0.00028151806 6.324822e-19)
(0.2650522 -0.00033186392 5.468907e-19)
(0.2650253 -0.00038133727 3.5811471e-19)
(0.26489816 -0.00042873842 1.8335839e-19)
(0.26452796 -0.00047209828 2.6955807e-19)
(0.26355413 -0.00050565096 3.1660886e-19)
(0.2608835 -0.00052167636 1.7939874e-19)
(0.25302971 -0.00046660631 1.35432e-19)
(0.23282016 -0.00033188327 8.2250969e-20)
(0.19353413 -7.6303786e-05 -5.2562761e-20)
(0.26571903 -3.1372765e-05 5.2081829e-18)
(0.26572475 -7.9390279e-05 2.8193587e-18)
(0.26573705 -0.00012657658 5.9843592e-19)
(0.26575498 -0.00017664472 1.0520085e-18)
(0.26577653 -0.00022633987 1.0406634e-18)
(0.26579644 -0.0002760185 1.0667843e-18)
(0.26580163 -0.0003252772 7.7719548e-19)
(0.26576141 -0.00037355728 4.1680883e-19)
(0.26560652 -0.00041960061 2.3659476e-19)
(0.26517878 -0.00046124612 3.4643247e-19)
(0.26407657 -0.00049254343 3.4714893e-19)
(0.26108058 -0.00050445572 1.7710057e-19)
(0.25248384 -0.00043989699 1.7217072e-19)
(0.23154421 -0.00030262987 2.3836197e-20)
(0.19215888 -6.3609731e-05 -3.858375e-20)
(0.26646455 -3.0799673e-05 6.8114464e-18)
(0.26647021 -7.7919711e-05 1.5313447e-18)
(0.26648233 -0.00012422759 3.0864024e-18)
(0.26649975 -0.0001733593 1.7319228e-18)
(0.26652002 -0.00022210618 -9.188602e-19)
(0.26653688 -0.0002708044 1.4220464e-18)
(0.26653522 -0.00031902283 1.0124234e-18)
(0.26648042 -0.00036615421 8.6417948e-19)
(0.26629564 -0.00041087723 5.0331285e-19)
(0.26580617 -0.00045085191 -8.3909754e-20)
(0.26456508 -0.00047982866 4.0128169e-19)
(0.26121753 -0.00048726982 3.4965604e-19)
(0.25186982 -0.00041342264 2.6213344e-19)
(0.23031742 -0.00027443217 1.2745167e-19)
(0.1909297 -5.2932834e-05 1.6271922e-19)
(0.26719653 -3.0263687e-05 2.4233432e-18)
(0.26720212 -7.6541023e-05 1.0103859e-18)
(0.26721401 -0.00012202465 2.9913019e-18)
(0.26723083 -0.00017027641 1.3090589e-18)
(0.2672496 -0.00021813034 2.4289907e-19)
(0.26726299 -0.00026590165 7.54403e-19)
(0.26725373 -0.0003131315 7.0157443e-19)
(0.26718309 -0.00035916374 8.1077467e-19)
(0.26696618 -0.00040260692 4.4485026e-19)
(0.26641044 -0.00044094906 -1.341799e-19)
(0.26501868 -0.00046753759 2.1260586e-19)
(0.26129202 -0.00047005901 2.8141358e-19)
(0.25119506 -0.00038738325 2.4335422e-19)
(0.2291461 -0.00024754677 1.4278414e-19)
(0.18983455 -4.4145099e-05 1.2100129e-19)
(0.26791589 -2.9765992e-05 -2.1532235e-18)
(0.26792138 -7.5257933e-05 1.2630585e-18)
(0.26793299 -0.00011997377 1.3719929e-18)
(0.26794908 -0.00016740448 9.8602761e-19)
(0.26796613 -0.00021442313 1.238673e-18)
(0.26797562 -0.00026132351 5.6113773e-20)
(0.267958 -0.00030761887 3.7554369e-19)
(0.26787018 -0.00035260382 4.2121512e-19)
(0.2676188 -0.00039480805 -1.3703706e-20)
(0.2669918 -0.00043154706 -1.0395225e-20)
(0.26543617 -0.00045566687 3.561582e-21)
(0.2613021 -0.00045276643 4.4427739e-20)
(0.2504687 -0.00036194908 1.2627331e-19)
(0.22803501 -0.00022223217 1.0774402e-19)
(0.18886112 -3.7064086e-05 9.6506224e-20)
(0.26862352 -2.9306383e-05 4.7286019e-18)
(0.2686289 -7.4070662e-05 6.1853682e-19)
(0.26864017 -0.00011807533 2.5364121e-18)
(0.26865542 -0.00016474412 2.4683828e-18)
(0.26867049 -0.00021098533 1.6881807e-18)
(0.26867563 -0.000257071 1.5467639e-18)
(0.26864885 -0.00030248607 1.1910966e-18)
(0.26854251 -0.00034647515 9.5254124e-19)
(0.26825414 -0.00038747924 3.8660391e-19)
(0.26755035 -0.00042263245 -1.5834313e-19)
(0.2658161 -0.00044417905 3.7366339e-19)
(0.26124652 -0.00043534493 3.6933296e-19)
(0.24970133 -0.00033726333 3.2920401e-19)
(0.22698727 -0.00019871676 4.218078e-19)
(0.18799711 -3.1466399e-05 3.3343877e-19)
(0.26932033 -2.8883461e-05 3.5653537e-18)
(0.26932558 -7.2976356e-05 -1.6262682e-18)
(0.26933645 -0.00011632481 5.2991385e-19)
(0.26935072 -0.00016228909 2.1467381e-18)
(0.26936357 -0.0002078089 2.1754833e-18)
(0.26936389 -0.00025313433 1.5138122e-18)
(0.26932713 -0.0002977213 1.0298903e-18)
(0.26920083 -0.00034076321 8.1605324e-19)
(0.2688728 -0.00038060158 6.9141506e-19)
(0.26808605 -0.00041417146 2.6371937e-19)
(0.26615679 -0.00043300583 3.6238476e-19)
(0.26112496 -0.00041776402 3.5342091e-19)
(0.24890441 -0.00031344658 3.5319535e-19)
(0.22600436 -0.00017717261 2.7836254e-19)
(0.18723056 -2.7105586e-05 2.917893e-19)
(0.27000719 -2.849491e-05 5.1527367e-18)
(0.27001228 -7.1969743e-05 3.4444844e-18)
(0.27002267 -0.00011471384 2.9427642e-18)
(0.27003582 -0.00016002771 2.2413782e-18)
(0.27004618 -0.00020487885 1.2737803e-18)
(0.27004119 -0.00024949516 1.1835108e-18)
(0.2699936 -0.00029330262 1.0345425e-18)
(0.26984584 -0.00033544136 1.0075899e-18)
(0.26947524 -0.00037414208 8.7060908e-19)
(0.2685986 -0.00040611399 4.3931419e-19)
(0.26645635 -0.00042205446 4.251391e-19)
(0.2609383 -0.00040001524 4.0201178e-19)
(0.24808975 -0.00029060213 4.4913941e-19)
(0.22508629 -0.00015769827 1.7662247e-19)
(0.18655015 -2.3732129e-05 1.7547638e-19)
(0.27068489 -2.8137826e-05 8.6606903e-18)
(0.2706898 -7.1043907e-05 4.4356636e-18)
(0.27069965 -0.00011323138 4.9869349e-18)
(0.27071153 -0.00015794462 3.3445076e-18)
(0.2707191 -0.00020217545 1.3601032e-18)
(0.27070829 -0.00024612933 1.9401771e-18)
(0.27064898 -0.00028920108 1.8081514e-18)
(0.27047818 -0.00033047455 1.5659818e-18)
(0.27006181 -0.00036805783 1.1544595e-18)
(0.26908753 -0.00039839812 2.8984328e-19)
(0.26671278 -0.00041121648 5.3348184e-19)
(0.26068881 -0.00038211515 7.6431209e-19)
(0.24726882 -0.00026882041 6.4134642e-19)
(0.22423175 -0.00014031231 6.1402487e-19)
(0.18594537 -2.1112147e-05 2.8173452e-19)
(0.27135418 -2.7809012e-05 7.9789659e-19)
(0.27135887 -7.0191041e-05 3.7160742e-18)
(0.2713681 -0.00011186497 3.133028e-18)
(0.27137855 -0.00015602247 2.4812332e-18)
(0.27138303 -0.00019967637 2.7354697e-18)
(0.27136587 -0.00024300948 1.5626044e-18)
(0.27129391 -0.00028538386 1.2517567e-18)
(0.27109836 -0.000325823 7.2564958e-19)
(0.27063272 -0.00036230005 6.3882918e-19)
(0.26955206 -0.00039095432 1.3095456e-19)
(0.26692403 -0.00040037784 1.7547289e-19)
(0.26038022 -0.00036410564 4.1151109e-19)
(0.24645221 -0.00024818088 3.3070726e-19)
(0.22343841 -0.00012495718 3.7402444e-19)
(0.18540672 -1.904183e-05 2.4095682e-19)
(0.27201571 -2.7505236e-05 2.1924395e-19)
(0.27202015 -6.94031e-05 4.0024078e-18)
(0.27202866 -0.00011060176 3.4120489e-18)
(0.27203751 -0.00015424331 3.0748018e-18)
(0.2720386 -0.00019735858 2.7166555e-18)
(0.27201452 -0.00024010733 1.9578561e-18)
(0.27192892 -0.00028181693 1.2170153e-18)
(0.2717068 -0.00032144525 8.3769658e-19)
(0.27118802 -0.00035681747 5.0726476e-19)
(0.2699912 -0.00038370884 5.4723302e-20)
(0.26708822 -0.000389429 3.6362976e-19)
(0.26001771 -0.00034605163 3.9182044e-19)
(0.24564917 -0.00022875086 3.3784803e-19)
(0.22270325 -0.00011151161 2.6866381e-19)
(0.18492573 -1.7355843e-05 2.5105053e-19)
(0.27267005 -2.7223403e-05 3.1578246e-19)
(0.27267421 -6.8672269e-05 1.9746952e-18)
(0.27268192 -0.00010942927 1.1432114e-18)
(0.27268898 -0.00015258973 2.2437705e-18)
(0.27268634 -0.00019519966 2.0559496e-18)
(0.27265476 -0.00023739527 1.7023748e-18)
(0.27255447 -0.00027846699 1.3176882e-18)
(0.2723038 -0.00031730047 8.7114429e-19)
(0.27172757 -0.00035155883 5.5227436e-19)
(0.27040369 -0.00037658611 6.6392235e-19)
(0.26720375 -0.00037827411 3.9778366e-19)
(0.25960771 -0.00032803713 3.8124201e-19)
(0.24486735 -0.00021058184 3.6084273e-19)
(0.22202277 -9.9808139e-05 3.7289517e-19)
(0.18449494 -1.5929484e-05 2.0750769e-19)
(0.27331772 -2.6960667e-05 2.7900617e-18)
(0.27332155 -6.7991274e-05 5.0234789e-18)
(0.27332837 -0.00010833587 3.3113454e-18)
(0.27333345 -0.00015104547 1.7392072e-18)
(0.27332673 -0.00019317869 9.7235001e-19)
(0.27328702 -0.00023484751 1.2566579e-18)
(0.27317093 -0.0002753027 1.3067163e-18)
(0.27288957 -0.00031334989 8.5580967e-19)
(0.27225107 -0.00034647442 7.4505356e-19)
(0.27078808 -0.00036951039 7.4169144e-19)
(0.26726952 -0.00036683813 3.1201548e-19)
(0.25915765 -0.0003101602 3.7055921e-19)
(0.24411266 -0.00019370463 3.6752183e-19)
(0.22139331 -8.9652402e-05 3.9445629e-19)
(0.1841079 -1.4675689e-05 2.1113504e-19)
(0.27395916 -2.6714475e-05 8.7049701e-18)
(0.27396262 -6.7353542e-05 4.3304414e-18)
(0.27396843 -0.00010731104 5.0114996e-18)
(0.27397134 -0.00014959583 3.8221379e-18)
(0.27396016 -0.00019127671 1.7687043e-18)
(0.27391168 -0.00023244055 2.0516209e-18)
(0.2737786 -0.00027229533 1.7954293e-18)
(0.27346419 -0.00030955757 1.6709515e-18)
(0.27275806 -0.00034151676 1.1979989e-18)
(0.27114274 -0.00036240704 2.957297e-19)
(0.26728512 -0.00035507155 5.1095513e-19)
(0.25867552 -0.00029252748 6.2227808e-19)
(0.24338933 -0.00017812521 7.0317561e-19)
(0.22081116 -8.0841191e-05 5.9273744e-19)
(0.18375901 -1.3538667e-05 4.0799819e-19)
(0.27459475 -2.648259e-05 3.773648e-19)
(0.2745978 -6.675326e-05 3.3006625e-18)
(0.27460249 -0.0001063455 2.6958204e-18)
(0.274603 -0.0001482278 2.8100253e-18)
(0.27458699 -0.00018947691 3.0592035e-18)
(0.27452902 -0.00023015345 1.4050576e-18)
(0.27437767 -0.00026941895 1.0340515e-18)
(0.27402763 -0.00030589064 9.4988269e-19)
(0.27324789 -0.00033664079 4.6733608e-19)
(0.27146593 -0.0003552038 2.0088931e-19)
(0.26725094 -0.00034295249 2.0917757e-19)
(0.25816956 -0.00027524859 3.4712411e-19)
(0.24270004 -0.00016382254 4.4272538e-19)
(0.22027275 -7.3177109e-05 3.5015491e-19)
(0.18344349 -1.2486088e-05 2.7650007e-19)
(0.27522481 -2.6263072e-05 -3.3355283e-19)
(0.27522741 -6.6185368e-05 3.6848432e-18)
(0.27523087 -0.00010543114 3.0336483e-18)
(0.27522875 -0.00014693 2.5059788e-18)
(0.27520748 -0.00018776456 2.4978673e-18)
(0.2751393 -0.00022796774 1.3664204e-18)
(0.27496829 -0.00026665041 1.0490223e-18)
(0.27457978 -0.00030231921 8.9391249e-19)
(0.27371976 -0.0003318036 2.7975531e-19)
(0.27175586 -0.00034783257 3.106085e-19)
(0.26716832 -0.00033048644 2.5167717e-19)
(0.25764777 -0.0002584306 4.8897389e-19)
(0.24204621 -0.0001507494 4.1005296e-19)
(0.21977469 -6.6478884e-05 3.2854533e-19)
(0.18315725 -1.1501421e-05 2.9801823e-19)
(0.27584964 -2.6054262e-05 3.0986422e-18)
(0.27585173 -6.5645512e-05 8.3088997e-19)
(0.27585383 -0.00010456099 1.2335718e-18)
(0.27584885 -0.00014569263 1.9975138e-18)
(0.27582189 -0.00018612688 2.3424429e-18)
(0.2757427 -0.00022586725 1.5626677e-18)
(0.27555052 -0.00026396905 1.1237737e-18)
(0.27512041 -0.00029881615 8.7047798e-19)
(0.27417268 -0.00032696406 4.5277652e-19)
(0.27201082 -0.00034023144 7.6559987e-19)
(0.26703956 -0.00031770398 3.2058776e-19)
(0.25711762 -0.00024217267 4.6407655e-19)
(0.24142819 -0.00013883591 4.5074486e-19)
(0.21931381 -6.0587303e-05 3.2900961e-19)
(0.18289682 -1.057747e-05 3.228374e-19)
(0.27646948 -2.585475e-05 6.2855217e-18)
(0.27647102 -6.5129982e-05 4.3977396e-18)
(0.27647162 -0.00010372909 2.599506e-18)
(0.27646352 -0.00014450731 2.0763264e-18)
(0.2764304 -0.00018455289 1.2267661e-18)
(0.27633935 -0.00022383791 1.8843989e-18)
(0.27612438 -0.00026135649 1.3808421e-18)
(0.27564919 -0.00029535665 8.4613512e-19)
(0.27460555 -0.00032208226 7.1457187e-19)
(0.27222923 -0.0003323472 6.8494994e-19)
(0.26686787 -0.00030465719 5.1382659e-19)
(0.25658579 -0.00022656125 4.8015492e-19)
(0.2408456 -0.00012799526 4.7630069e-19)
(0.21888719 -5.5367365e-05 3.2013692e-19)
(0.18265925 -9.7115795e-06 3.1804926e-19)
(0.27708455 -2.5663345e-05 8.3928379e-18)
(0.27708548 -6.4635631e-05 5.0181099e-18)
(0.27708444 -0.0001029304 4.9345696e-18)
(0.27707295 -0.00014336686 3.5572479e-18)
(0.27703318 -0.00018303314 1.5063138e-18)
(0.27692935 -0.00022186743 2.5415986e-18)
(0.2766898 -0.00025879623 1.9147144e-18)
(0.27616569 -0.00029191777 1.5612214e-18)
(0.27501711 -0.00031711916 1.2929683e-18)
(0.27240981 -0.00032413774 4.4792659e-19)
(0.26665728 -0.00029141517 7.4848014e-19)
(0.256058 -0.00021166603 6.9908351e-19)
(0.24029748 -0.00011813047 6.8925288e-19)
(0.21849214 -5.0707643e-05 6.3608593e-19)
(0.18244204 -8.9025331e-06 5.2706672e-19)
(0.27769504 -2.5479045e-05 -1.7471269e-18)
(0.27769529 -6.4159807e-05 4.5295872e-18)
(0.27769247 -0.00010216064 3.6324945e-18)
(0.27767729 -0.00014226521 2.1828273e-18)
(0.27763035 -0.0001815595 2.6589088e-18)
(0.27751275 -0.00021994503 1.3512646e-18)
(0.27724666 -0.00025627339 1.0017339e-18)
(0.27666938 -0.00028847797 9.8633573e-19)
(0.275406 -0.00031203634 6.5475449e-19)
(0.27255164 -0.00031557421 4.5959231e-19)
(0.26641246 -0.00027805925 3.3359701e-19)
(0.25553894 -0.0001975371 2.9991813e-19)
(0.23978254 -0.00010914113 2.8084198e-19)
(0.21812621 -4.6517861e-05 4.448135e-19)
(0.18224308 -8.1488544e-06 3.4804232e-19)
(0.27830111 -2.5301006e-05 6.5845574e-19)
(0.27830062 -6.3700269e-05 3.2958182e-18)
(0.27829586 -0.0001014162 2.604608e-18)
(0.2782767 -0.00014119716 2.6396293e-18)
(0.278222 -0.00018012493 2.6270599e-18)
(0.27808956 -0.00021806116 1.2114172e-18)
(0.2777948 -0.00025377436 1.432399e-18)
(0.27715962 -0.0002850166 9.2666526e-19)
(0.27577079 -0.00030679609 5.6948565e-19)
(0.27265429 -0.00030664249 4.480117e-19)
(0.26613848 -0.00026467813 5.238764e-19)
(0.2550323 -0.00018420368 3.9889696e-19)
(0.23929925 -0.00010092916 3.427827e-19)
(0.21778713 -4.2725645e-05 4.5203926e-19)
(0.18206056 -7.4481431e-06 2.9020007e-19)
(0.27890291 -2.5128516e-05 2.5724186e-18)
(0.27890162 -6.3255128e-05 1.3965874e-18)
(0.27889474 -0.00010069401 1.6149547e-18)
(0.27887126 -0.00014015826 2.6706559e-18)
(0.27880821 -0.00017872332 2.6333453e-18)
(0.27865976 -0.00021620724 1.6770391e-18)
(0.27833397 -0.00025128651 1.5201809e-18)
(0.27763569 -0.00028151345 9.0580876e-19)
(0.27611001 -0.00030136189 8.0078593e-19)
(0.2727179 -0.00029734386 1.0032697e-18)
(0.26584062 -0.00025136317 6.4210779e-19)
(0.25454084 -0.0001716744 3.9039439e-19)
(0.23884602 -9.3403161e-05 3.6101311e-19)
(0.21747286 -3.9273088e-05 4.1913194e-19)
(0.18189296 -6.7970333e-06 2.7675482e-19)
(0.27950056 -2.4960972e-05 -8.4285127e-19)
(0.2794984 -6.2822775e-05 4.6977314e-18)
(0.27948922 -9.9991432e-05 1.874022e-18)
(0.27946108 -0.00013914466 1.2731817e-18)
(0.279389 -0.00017734922 1.9807875e-18)
(0.27922329 -0.00021437542 1.1118676e-18)
(0.27886389 -0.00024879793 4.0203919e-19)
(0.27809674 -0.00027794828 3.8915272e-19)
(0.27642222 -0.00029569921 5.100202e-19)
(0.27274323 -0.00028769474 8.4626211e-19)
(0.2655241 -0.00023820407 2.5665398e-19)
(0.25406651 -0.00015993912 1.0057514e-19)
(0.23842119 -8.6481054e-05 6.816608e-20)
(0.21718151 -3.6113613e-05 -3.9878329e-21)
(0.18173897 -6.1914745e-06 9.7346177e-20)
(0.28009418 -2.4797857e-05 2.9673922e-18)
(0.28009107 -6.2401834e-05 3.409777e-18)
(0.28007941 -9.9306214e-05 2.7075862e-18)
(0.28004623 -0.00013815299 1.2513321e-18)
(0.27996442 -0.00017599777 1.7170513e-18)
(0.27978006 -0.00021255838 1.0399312e-18)
(0.2793842 -0.00024629715 6.4947529e-19)
(0.27854186 -0.00027430051 5.6206997e-19)
(0.27670605 -0.00028977676 4.5049816e-19)
(0.27273166 -0.0002777256 5.2119037e-19)
(0.26519392 -0.00022528491 2.4249181e-19)
(0.25361059 -0.00014897206 1.1707706e-19)
(0.23802316 -8.0091233e-05 1.8235757e-19)
(0.21691137 -3.320934e-05 2.7338797e-20)
(0.18159747 -5.6270987e-06 1.2811765e-19)
(0.28068388 -2.4638722e-05 2.7741313e-18)
(0.28067974 -6.1991115e-05 3.8315795e-18)
(0.28066539 -9.8636371e-05 3.3874506e-18)
(0.28062676 -0.00013718023 1.6008102e-18)
(0.28053445 -0.00017466448 1.6072261e-18)
(0.28032993 -0.00021074911 8.8030639e-19)
(0.27989449 -0.00024377295 8.2374763e-19)
(0.27897002 -0.0002705489 6.1150253e-19)
(0.27696025 -0.00028356786 3.6953385e-19)
(0.27268518 -0.00026747915 5.3778663e-19)
(0.26485469 -0.00021268092 2.9435982e-19)
(0.25317379 -0.00013873548 2.9820898e-19)
(0.23765034 -7.4172517e-05 3.1775105e-19)
(0.2166609 -3.0529031e-05 1.5253587e-19)
(0.18146749 -5.0995662e-06 1.6732434e-19)
(0.28126974 -2.4483173e-05 8.1637975e-19)
(0.28126448 -6.1589567e-05 5.4729068e-18)
(0.28124722 -9.7980137e-05 3.7262223e-18)
(0.28120271 -0.00013622364 1.123854e-18)
(0.28109907 -0.00017334515 6.1304746e-19)
(0.28087275 -0.00020894083 6.7217293e-20)
(0.28039427 -0.00024121406 -4.4049261e-20)
(0.27938014 -0.00026667151 -2.4295695e-20)
(0.27718382 -0.00027705191 -1.3527593e-19)
(0.27260633 -0.00025700812 2.60738e-20)
(0.26451052 -0.00020045587 -2.0064299e-19)
(0.25275643 -0.00012918378 -1.1912843e-19)
(0.23730122 -6.8673277e-05 -2.4546191e-19)
(0.21642866 -2.8046561e-05 -1.7668181e-19)
(0.18134818 -4.6048129e-06 -8.8034572e-20)
(0.28185185 -2.4330856e-05 2.062764e-18)
(0.28184539 -6.1196251e-05 4.8767344e-18)
(0.28182498 -9.7335908e-05 3.1491067e-18)
(0.28177412 -0.00013528068 6.2367731e-19)
(0.28165823 -0.00017203573 4.5931385e-19)
(0.2814083 -0.00020712677 3.9854538e-19)
(0.28088299 -0.00023860899 -8.1985573e-20)
(0.27977106 -0.0002626457 -3.5334097e-21)
(0.27737601 -0.00027021574 1.4906603e-20)
(0.27249806 -0.00024637257 -1.0723456e-19)
(0.26416497 -0.0001886604 -2.8229346e-19)
(0.2523585 -0.00012026722 -3.6811763e-19)
(0.23697438 -6.3550129e-05 -5.4113375e-19)
(0.21621337 -2.5739818e-05 -3.2925788e-19)
(0.18123881 -4.1392052e-06 -1.1771008e-19)
(0.28243029 -2.4181449e-05 3.4230036e-18)
(0.28242252 -6.0810309e-05 4.9578657e-18)
(0.28239871 -9.6702199e-05 3.4693796e-18)
(0.28234099 -0.00013434892 2.2671472e-18)
(0.28221186 -0.00017073227 1.4741101e-18)
(0.28193636 -0.00020530013 1.2727318e-18)
(0.28136003 -0.00023594579 5.8347577e-19)
(0.2801416 -0.00025844846 4.640248e-19)
(0.27753642 -0.00026305462 4.9621139e-19)
(0.27236366 -0.00023563726 -1.2249612e-20)
(0.26382105 -0.00017733136 2.5376631e-19)
(0.25197976 -0.0001119352 8.1154838e-20)
(0.23666845 -5.8766493e-05 7.1783914e-20)
(0.21601387 -2.3589922e-05 1.0691013e-20)
(0.1811387 -3.6995993e-06 6.7866795e-20)
(0.28300512 -2.4034648e-05 5.0022974e-18)
(0.28299594 -6.0430939e-05 3.1868752e-18)
(0.28296845 -9.6077597e-05 3.1861e-18)
(0.28290332 -0.00013342601 3.0208168e-18)
(0.28275987 -0.00016943078 1.9585462e-18)
(0.28245663 -0.00020345398 9.1563443e-19)
(0.28182471 -0.00023321186 8.8891697e-19)
(0.28049056 -0.0002540569 4.6204282e-19)
(0.27766504 -0.00025557285 5.0802091e-19)
(0.27220658 -0.0002248688 5.9134923e-19)
(0.26348123 -0.00016649191 2.3539917e-19)
(0.25161982 -0.00010413863 2.4905527e-19)
(0.23638216 -5.4291235e-05 3.1795575e-19)
(0.21582908 -2.1580663e-05 1.5482413e-19)
(0.18104728 -3.283344e-06 7.447043e-20)
(0.2835764 -2.3890167e-05 4.7032854e-18)
(0.28356569 -6.0057379e-05 4.0663339e-18)
(0.28353424 -9.5460739e-05 2.4549358e-18)
(0.2834611 -0.00013250962 2.1693604e-18)
(0.28330215 -0.00016812719 1.8314257e-18)