/*--------------------------------*- C++ -*----------------------------------*\
| =========                 |                                                 |
| \\      /  F ield         | OpenFOAM: The Open Source CFD Toolbox           |
|  \\    /   O peration     | Version:  2506                                  |
|   \\  /    A nd           | Website:  www.openfoam.com                      |
|    \\/     M anipulation  |                                                 |
\*---------------------------------------------------------------------------*/
FoamFile
{
    version     2.0;
    format      ascii;
    arch        "LSB;label=32;scalar=64";
    class       volScalarField;
    location    "14000/water";
    object      alphat;
}
// * * * * * * * * * * * * * * * * * * * * * * * * * * * * * * * * * * * * * //

dimensions      [1 -1 -1 0 0 0 0];

internalField   nonuniform List<scalar> 
2600
(
0.040489031
0.04048893
0.040488932
0.040488969
0.04048893
0.040488424
0.040485257
0.04046703
0.040362559
0.039762099
0.036475623
0.024118064
0.014862723
0.039376404
0.039376463
0.039376584
0.03937667
0.03937627
0.039373342
0.039357935
0.03928206
0.038918252
0.037247647
0.030707814
0.017504579
0.016810247
0.03845331
0.038453299
0.038453385
0.038453188
0.038451259
0.038441479
0.038397507
0.038208927
0.037432867
0.034484227
0.025768479
0.01464355
0.017680736
0.037674097
0.037673994
0.037673876
0.037672833
0.03766736
0.037643826
0.037549741
0.037190974
0.035896577
0.031717985
0.022022178
0.013507107
0.017935556
0.037006829
0.037006634
0.03700605
0.037003229
0.036991211
0.03694503
0.036777672
0.036201229
0.034343725
0.029136321
0.019390213
0.01332192
0.01787019
0.036428097
0.036427705
0.036426239
0.036420305
0.036397905
0.036319194
0.03605724
0.035231095
0.03281421
0.026833154
0.017684561
0.01376901
0.017658004
0.035920433
0.035919673
0.03591673
0.035905979
0.035868817
0.035747845
0.035374204
0.034281783
0.031338745
0.024847734
0.016751764
0.014701365
0.017395975
0.035470606
0.03546924
0.035464057
0.035446499
0.035390052
0.035218253
0.034721129
0.033357857
0.029935921
0.02320089
0.016491475
0.016024754
0.017137191
0.035068412
0.03506614
0.035057811
0.035031314
0.034951338
0.034722033
0.034094772
0.032463227
0.028616047
0.021918168
0.016839593
0.01764423
0.016909598
0.034705855
0.034702323
0.034689851
0.034652315
0.034545228
0.034254009
0.03349406
0.031599319
0.027389013
0.021039007
0.017742707
0.01944683
0.016725717
0.034376582
0.0343714
0.034353768
0.03430331
0.034166516
0.033811296
0.032918608
0.030765036
0.026274288
0.020612421
0.019134169
0.021310298
0.0165878
0.034075484
0.034068256
0.034044512
0.033979658
0.033811775
0.033392551
0.032367695
0.029958513
0.025310237
0.020682514
0.02092045
0.023125093
0.01649134
0.03379842
0.033788771
0.033758129
0.033677993
0.033478994
0.032997353
0.031839672
0.029180919
0.024557973
0.021270679
0.022983308
0.024813263
0.016428198
0.033542011
0.033529635
0.033491576
0.033396025
0.033167279
0.032625685
0.031331905
0.02844226
0.024095308
0.02236241
0.02519592
0.026333969
0.016389375
0.033303501
0.033288203
0.033242589
0.033132389
0.0328766
0.032277488
0.030841496
0.027768047
0.024001078
0.023903802
0.027443847
0.027676786
0.016366908
0.033080659
0.033062404
0.03300959
0.032886524
0.032607559
0.031952311
0.030367144
0.027204004
0.02433601
0.025808535
0.029640409
0.028850257
0.01635471
0.032871707
0.032850677
0.032791627
0.032658586
0.032361164
0.031649138
0.029912405
0.026815112
0.025128026
0.027972561
0.031731261
0.029871995
0.016348606
0.032675278
0.032651931
0.032588332
0.032449362
0.032138606
0.031366538
0.029490156
0.026676983
0.02636662
0.030291378
0.033689748
0.030762439
0.016345973
0.032490392
0.032465523
0.0323999
0.032260198
0.031941021
0.031103392
0.029127149
0.026861558
0.028006318
0.032674377
0.035508202
0.031541613
0.016345289
0.03231644
0.032291251
0.032227075
0.032092906
0.0317693
0.030860473
0.028866521
0.027422391
0.029976609
0.035052625
0.037189755
0.032227632
0.016345749
0.032153193
0.032129365
0.032071151
0.03194966
0.031623986
0.030643051
0.0287659
0.028384665
0.032194872
0.037379727
0.038742712
0.032836119
0.016346971
0.032000817
0.031980587
0.031933965
0.031832869
0.031505423
0.030464306
0.028890209
0.029742268
0.034578895
0.039628039
0.040177388
0.03338011
0.016348812
0.031859898
0.031846136
0.031817892
0.031745018
0.031414333
0.030348688
0.029300796
0.03146131
0.037056245
0.041783223
0.041504537
0.033870257
0.016351246
0.031731488
0.031727775
0.031725824
0.031688525
0.03135306
0.030333691
0.030044466
0.033487928
0.039569154
0.043839378
0.042734581
0.034315155
0.016354289
0.031617156
0.031627852
0.031661123
0.031665646
0.031327617
0.030468393
0.031145816
0.035757867
0.042075211
0.045795598
0.043877217
0.034721705
0.016357969
0.031519059
0.031549348
0.031627545
0.031678559
0.031350387
0.030808119
0.032604587
0.038205566
0.0445453
0.047653854
0.044941235
0.035095455
0.016362308
0.03144002
0.031495925
0.031629136
0.031729781
0.031442848
0.031406233
0.034397782
0.040771059
0.046960462
0.049417767
0.045934482
0.035440884
0.01636731
0.031383622
0.031471952
0.031670108
0.031823119
0.031637178
0.032305484
0.036485144
0.043403909
0.049308915
0.051091856
0.046863888
0.035761633
0.016372969
0.03135431
0.031482518
0.031754744
0.031965283
0.03197548
0.03353142
0.038816222
0.046064349
0.051583757
0.052681055
0.047735552
0.036060685
0.016379266
0.031357496
0.031533411
0.031887426
0.032168109
0.032505938
0.035089398
0.041337333
0.048722479
0.053781393
0.054190395
0.04855483
0.036340512
0.016386173
0.031399659
0.031631056
0.03207292
0.032450911
0.033276467
0.036965342
0.043997161
0.051356518
0.055900491
0.055624808
0.04932644
0.036603249
0.016393658
0.031488426
0.031782428
0.032317109
0.032842097
0.034327507
0.039129414
0.046750333
0.053950906
0.057941215
0.056988881
0.050054087
0.036848502
0.016401672
0.031632621
0.031994974
0.032628309
0.033378945
0.035685993
0.041541308
0.049558978
0.056494699
0.059904735
0.058286921
0.050741242
0.037078071
0.016410158
0.031842265
0.032276622
0.033019165
0.034104846
0.03736194
0.044155851
0.052392733
0.058980345
0.061792834
0.059522775
0.051390042
0.037294004
0.016419061
0.032128531
0.032636024
0.033508777
0.035064192
0.039348125
0.046927822
0.055227875
0.061402797
0.063607654
0.060699948
0.052002687
0.037497703
0.016428335
0.032503671
0.033083207
0.034124304
0.03629611
0.041622415
0.049815367
0.05804614
0.063758863
0.065351545
0.061821637
0.05258258
0.037690195
0.016437945
0.032981003
0.033630799
0.034901063
0.037828737
0.044151816
0.052781865
0.060833576
0.066046666
0.067026685
0.062889485
0.053132457
0.037872524
0.016447871
0.033575095
0.034295805
0.035880365
0.039675444
0.046897144
0.055796487
0.063579577
0.068265307
0.068635543
0.063907331
0.053654283
0.038045462
0.016458087
0.034302367
0.035101602
0.037105061
0.041833706
0.049817326
0.058833909
0.066276126
0.070414366
0.070179082
0.064878373
0.054149975
0.03820977
0.016468568
0.035182275
0.036079349
0.038613751
0.044286488
0.052872716
0.061873577
0.068917156
0.072494006
0.071660171
0.065805194
0.054621151
0.038366075
0.016479287
0.03623904
0.037267807
0.040435147
0.047005426
0.056027167
0.064898909
0.071498023
0.074503818
0.073081482
0.0666901
0.055069326
0.038514915
0.016490218
0.03750342
0.038710792
0.042584049
0.04995487
0.059248948
0.067896478
0.0740152
0.076444661
0.074445495
0.067535136
0.055495832
0.038656749
0.016501334
0.039013512
0.040452284
0.045059739
0.053095858
0.062510877
0.070855368
0.076465359
0.078317647
0.075754339
0.068342197
0.05590185
0.038791967
0.01651261
0.04081333
0.042530191
0.047846848
0.05638934
0.065789851
0.07376655
0.078846507
0.080124292
0.077009905
0.069112971
0.056288411
0.038920898
0.016524019
0.042948353
0.044970364
0.050918099
0.059798423
0.069066362
0.076622006
0.081156952
0.081865826
0.078213954
0.069848967
0.056656415
0.039043818
0.016535537
0.045458413
0.047782331
0.054237982
0.063289419
0.072323515
0.079415227
0.083396358
0.08354334
0.079368029
0.070551499
0.057006636
0.039160955
0.016547136
0.048369517
0.050957585
0.057766475
0.066832246
0.075546555
0.082140737
0.085564123
0.085157795
0.080473471
0.071221697
0.057339727
0.039272494
0.016558794
0.051686917
0.054470405
0.061462097
0.0703999
0.078721961
0.084794878
0.087659659
0.086709954
0.081531397
0.071860504
0.057656227
0.039378573
0.016570485
0.055391445
0.058280507
0.06528363
0.073967495
0.081839558
0.087374054
0.089682272
0.088200345
0.082542683
0.072468677
0.057956558
0.039479292
0.016582184
0.059439967
0.062336436
0.069190736
0.077513942
0.08489051
0.089874819
0.091631088
0.089629229
0.083507957
0.073046782
0.058241033
0.039574707
0.016593866
0.063769377
0.066579641
0.073146226
0.08102141
0.087866676
0.092293752
0.093505
0.090996578
0.084427589
0.073595196
0.058509851
0.039664832
0.016605506
0.068304054
0.070949044
0.077116055
0.08447366
0.09076044
0.094627396
0.095302643
0.092302068
0.085301688
0.074114107
0.058763103
0.039749643
0.016617075
0.072963857
0.075384264
0.081068478
0.087855744
0.093564599
0.096872233
0.097022402
0.093545082
0.086130111
0.074603519
0.059000775
0.039829075
0.016628545
0.077671134
0.079828301
0.084974008
0.091153808
0.096272323
0.099024712
0.098662443
0.094724743
0.08691248
0.075063267
0.059222754
0.039903025
0.016639885
0.082355796
0.084229546
0.088805523
0.094355004
0.09887717
0.10108131
0.10022078
0.09583996
0.087648217
0.075493033
0.059428836
0.03997136
0.016651062
0.086958186
0.088543072
0.092538493
0.097447512
0.10137315
0.10303866
0.10169539
0.096889501
0.088336587
0.075892374
0.059618745
0.040033919
0.016662042
0.091430089
0.092731277
0.096151262
0.10042063
0.1037548
0.10489361
0.10308428
0.097872081
0.088976762
0.07626076
0.059792151
0.040090522
0.016672786
0.095734385
0.096763954
0.099625299
0.10326493
0.10601735
0.10664341
0.10438565
0.098786463
0.089567893
0.076597624
0.059948692
0.040140978
0.016683257
0.099843932
0.10061793
0.10294535
0.10597238
0.10815678
0.1082858
0.10559802
0.099631564
0.090109188
0.076902409
0.060088011
0.040185101
0.016693412
0.1037401
0.10427641
0.10609947
0.10853648
0.11016993
0.10981912
0.10672029
0.10040656
0.0906
0.077174628
0.060209781
0.040222721
0.016703211
0.10741125
0.10772818
0.1090789
0.11095231
0.11205461
0.11124238
0.10775188
0.10111096
0.091039896
0.077413923
0.060313748
0.0402537
0.016712613
0.11085135
0.11096671
0.1118779
0.11321661
0.1138096
0.11255534
0.10869276
0.10174471
0.091428731
0.077620115
0.060399756
0.040277946
0.016721578
0.11405873
0.11398939
0.11449341
0.11532766
0.11543468
0.11375849
0.10954353
0.10230822
0.091766699
0.077793249
0.060467784
0.040295427
0.01673007
0.1170351
0.11679672
0.11692477
0.11728526
0.11693061
0.11485305
0.11030538
0.10280237
0.092054367
0.077933627
0.060517964
0.04030618
0.016738054
0.11978472
0.11939172
0.11917335
0.11909057
0.11829906
0.11584099
0.11098009
0.10322858
0.092292693
0.078041828
0.060550597
0.040310316
0.016745503
0.12231375
0.12177931
0.12124223
0.12074599
0.11954256
0.11672489
0.11157004
0.10358872
0.092483023
0.078118717
0.060566162
0.040308029
0.016752393
0.12462977
0.12396587
0.12313588
0.12225497
0.12066439
0.11750796
0.11207808
0.10388512
0.092627074
0.078165432
0.060565312
0.040299588
0.016758707
0.12674131
0.12595891
0.12485989
0.12362187
0.1216685
0.11819393
0.11250754
0.10412052
0.092726904
0.078183374
0.060548866
0.040285337
0.016764436
0.12865763
0.12776668
0.12642071
0.1248518
0.1225594
0.11878694
0.11286211
0.10429799
0.092784867
0.078174172
0.060517792
0.040265686
0.016769576
0.13038841
0.129398
0.12782543
0.12595044
0.12334204
0.11929151
0.11314582
0.1044209
0.092803566
0.078139652
0.060473185
0.040241099
0.016774131
0.13194357
0.13086202
0.12908162
0.12692394
0.12402173
0.11971243
0.1133629
0.1044928
0.092785797
0.078081797
0.060416241
0.040212083
0.01677811
0.13333315
0.13216808
0.13019713
0.12777877
0.12460406
0.12005467
0.11351775
0.10451743
0.092734501
0.078002704
0.06034823
0.040179177
0.016781528
0.13456716
0.13332554
0.13118001
0.1285216
0.12509476
0.12032334
0.11361489
0.10449861
0.092652704
0.077904544
0.060270467
0.040142934
0.016784407
0.13565549
0.13434376
0.13203833
0.12915921
0.12549967
0.12052359
0.11365886
0.1044402
0.09254347
0.077789518
0.060184287
0.040103911
0.01678677
0.13660785
0.1352319
0.13278017
0.12969844
0.12582465
0.1206606
0.11365419
0.10434603
0.092409855
0.077659825
0.060091016
0.040062658
0.016788647
0.1374337
0.13599898
0.13341347
0.13014604
0.12607553
0.12073945
0.11360534
0.10421988
0.092254868
0.077517625
0.059991952
0.040019705
0.016790067
0.13814219
0.13665373
0.13394602
0.1305087
0.12625803
0.12076517
0.11351668
0.10406546
0.092081439
0.077365012
0.059888343
0.039975558
0.016791064
0.13874216
0.13720459
0.1343854
0.13079293
0.12637778
0.12074264
0.11339245
0.10388631
0.091892387
0.077203995
0.059781377
0.039930686
0.016791671
0.13924211
0.13765971
0.13473892
0.13100508
0.12644022
0.12067658
0.11323673
0.10368587
0.091690405
0.077036479
0.059672168
0.039885526
0.016791921
0.13965014
0.13802687
0.13501365
0.13115126
0.12645061
0.12057154
0.11305342
0.10346738
0.091478038
0.076864248
0.059561746
0.039840472
0.01679185
0.139974
0.13831352
0.13521634
0.13123737
0.12641402
0.12043188
0.11284624
0.10323392
0.091257675
0.07668896
0.059451056
0.039795878
0.01679149
0.14022104
0.13852672
0.13535343
0.13126902
0.12633527
0.12026174
0.11261871
0.10298839
0.091031538
0.076512141
0.059340952
0.039752057
0.016790874
0.14039824
0.13867321
0.13543105
0.13125159
0.12621899
0.12006504
0.11237414
0.10273347
0.090801678
0.076335179
0.059232196
0.039709278
0.016790033
0.14051218
0.13875932
0.13545502
0.13119016
0.12606952
0.1198455
0.11211562
0.10247166
0.090569973
0.076159325
0.059125461
0.039667775
0.016788997
0.14056907
0.13879105
0.13543082
0.13108956
0.125891
0.1196066
0.11184605
0.10220527
0.090338128
0.075985692
0.059021328
0.039627736
0.016787794
0.14057474
0.13877402
0.13536362
0.13095432
0.1256873
0.11935159
0.1115681
0.10193639
0.090107671
0.075815244
0.058920246
0.039589107
0.016786449
0.14053467
0.13871353
0.13525828
0.1307887
0.12546206
0.11908349
0.11128422
0.10166693
0.089879954
0.075648808
0.058822571
0.039551837
0.016784984
0.14045397
0.13861451
0.13511934
0.1305967
0.12521865
0.11880513
0.11099666
0.1013986
0.089656148
0.075487017
0.058728324
0.039516217
0.016783417
0.14033741
0.13848159
0.13495106
0.13038205
0.12496025
0.11851908
0.11070748
0.10113292
0.089437278
0.075330452
0.058637845
0.039482371
0.016781769
0.14018945
0.13831905
0.13475737
0.13014822
0.12468976
0.11822772
0.11041851
0.10087122
0.089224133
0.075179235
0.058551565
0.03945039
0.01678006
0.14001422
0.13813091
0.13454198
0.12989841
0.12440989
0.11793322
0.1101314
0.10061463
0.089017341
0.075034062
0.05846963
0.039420323
0.016778308
0.13981556
0.13792086
0.13430827
0.12963563
0.12412312
0.11763754
0.10984763
0.10036414
0.088817448
0.074895392
0.058392167
0.039392204
0.016776531
0.139597
0.13769233
0.13405942
0.1293626
0.12383171
0.11734244
0.10956842
0.10012039
0.088625256
0.074763475
0.058319257
0.039366044
0.016774744
0.13936183
0.13744849
0.13379831
0.12908184
0.12353771
0.11704947
0.10929481
0.099884356
0.088441233
0.074638491
0.05825094
0.039341837
0.016772961
0.13911306
0.13719224
0.13352762
0.12879565
0.12324297
0.11675999
0.10902781
0.099656812
0.08826573
0.074520559
0.058187216
0.039319556
0.016771192
0.13885345
0.13692625
0.13324977
0.1285061
0.1229491
0.11647516
0.10876849
0.099438314
0.088099001
0.074409736
0.058128052
0.039299164
0.01676945
0.13858552
0.13665295
0.13296695
0.12821501
0.12265749
0.11619631
0.10851765
0.099229301
0.087941217
0.074306025
0.05807338
0.039280607
0.016767742
0.13831153
0.13637449
0.13268109
0.12792402
0.12236969
0.11592447
0.10827595
0.099030105
0.08779247
0.074209377
0.058023107
0.039263823
0.016766076
0.13803352
0.13609282
0.13239399
0.12763478
0.12208695
0.11566055
0.10804393
0.09884096
0.087652782
0.074119695
0.057977113
0.039248742
0.016764459
0.13775333
0.13580975
0.13210737
0.12734874
0.1218104
0.11540529
0.10782199
0.098662014
0.087522113
0.074036847
0.057935261
0.039235286
0.016762895
0.13747267
0.13552696
0.13182274
0.1270672
0.121541
0.11515933
0.10761047
0.098493335
0.087400367
0.073960664
0.057897396
0.039223374
0.016761389
0.13719311
0.13524595
0.1315415
0.12679129
0.12127959
0.11492318
0.10740958
0.098334925
0.087287403
0.073890954
0.057863354
0.039212921
0.016759943
0.13691606
0.1349681
0.13126486
0.126522
0.12102687
0.11469725
0.10721946
0.098186723
0.087183042
0.073827502
0.057832962
0.039203843
0.016758561
0.13664279
0.13469462
0.13099391
0.12626021
0.12078345
0.11448185
0.1070402
0.09804862
0.087087071
0.073770079
0.057806045
0.039196058
0.016757244
0.13637444
0.1344266
0.13072961
0.12600666
0.12054981
0.11427723
0.10687179
0.09792046
0.086999252
0.073718443
0.057782425
0.039189485
0.016755994
0.13611202
0.134165
0.13047279
0.12576199
0.12032635
0.11408352
0.10671418
0.097802046
0.086919324
0.073672346
0.057761922
0.039184043
0.016754811
0.13585643
0.13391066
0.13022417
0.12552674
0.12011338
0.11390082
0.10656727
0.097693147
0.086847006
0.073631529
0.057744359
0.039179656
0.016753696
0.13560842
0.1336643
0.12998437
0.12530134
0.11991112
0.11372914
0.1064309
0.097593498
0.086781999
0.073595729
0.057729557
0.039176248
0.016752648
0.13536867
0.13342655
0.12975388
0.12508613
0.11971972
0.11356842
0.10630486
0.097502804
0.086723988
0.073564677
0.057717339
0.039173747
0.016751668
0.13513772
0.1331979
0.12953313
0.12488136
0.11953923
0.11341855
0.1061889
0.097420743
0.086672645
0.073538097
0.057707527
0.039172078
0.016750755
0.13491603
0.13297878
0.12932242
0.1246872
0.11936966
0.11327937
0.10608274
0.097346967
0.086627628
0.073515714
0.057699944
0.039171171
0.016749908
0.13470394
0.13276949
0.12912198
0.12450375
0.11921094
0.11315066
0.10598606
0.097281111
0.086588588
0.073497248
0.057694413
0.039170954
0.016749124
0.13450173
0.13257028
0.12893196
0.12433101
0.11906293
0.11303217
0.10589851
0.097222791
0.08655517
0.07348242
0.057690762
0.039171357
0.016748403
0.13430957
0.13238128
0.12875244
0.12416895
0.11892547
0.11292358
0.1058197
0.097171615
0.086527018
0.073470956
0.057688822
0.039172313
0.016747742
0.13412759
0.13220259
0.12858341
0.12401746
0.11879832
0.11282458
0.10574927
0.097127186
0.086503779
0.07346259
0.057688431
0.039173759
0.016747139
0.13395583
0.13203423
0.12842484
0.12387641
0.11868123
0.11273483
0.1056868
0.09708911
0.086485109
0.073457062
0.057689435
0.039175634
0.016746591
0.13379428
0.13187615
0.12827662
0.12374559
0.11857392
0.11265395
0.1056319
0.097056996
0.086470675
0.07345413
0.05769169
0.039177885
0.016746097
0.13364289
0.13172828
0.12813863
0.12362479
0.11847607
0.11258157
0.10558417
0.097030464
0.086460155
0.073453561
0.057695062
0.03918046
0.016745653
0.13350157
0.13159051
0.12801068
0.12351376
0.11838737
0.11251732
0.10554322
0.097009144
0.086453245
0.073455137
0.05769943
0.039183316
0.016745257
0.13337018
0.13146268
0.12789258
0.12341224
0.11830748
0.11246082
0.10550865
0.09699268
0.086449652
0.073458655
0.057704678
0.039186412
0.016744908
0.13324856
0.1313446
0.12778409
0.12331994
0.11823605
0.11241168
0.10548007
0.096980725
0.0864491
0.073463922
0.057710703
0.039189713
0.016744602
0.13313651
0.13123606
0.12768497
0.12323654
0.11817272
0.11236951
0.10545713
0.096972942
0.08645132
0.073470758
0.057717406
0.039193188
0.016744339
0.1330338
0.13113682
0.12759492
0.12316171
0.11811712
0.11233393
0.10543943
0.096969002
0.086456055
0.073478988
0.057724695
0.039196804
0.016744115
0.13294018
0.13104659
0.12751365
0.12309511
0.11806887
0.11230455
0.1054266
0.096968581
0.086463054
0.073488443
0.057732481
0.039200533
0.016743928
0.13285535
0.13096508
0.12744082
0.12303637
0.11802758
0.11228097
0.10541827
0.096971359
0.086472069
0.073498959
0.057740676
0.039204346
0.016743777
0.13277899
0.13089196
0.12737607
0.12298511
0.11799284
0.11226277
0.10541407
0.096977021
0.08648286
0.073510376
0.057749195
0.039208214
0.016743659
0.13271076
0.13082686
0.12731902
0.12294091
0.11796423
0.11224957
0.10541364
0.096985259
0.086495193
0.073522539
0.057757956
0.039212107
0.016743571
0.13265028
0.13076941
0.12726929
0.12290337
0.11794134
0.11224096
0.1054166
0.096995769
0.086508838
0.073535298
0.057766878
0.039215998
0.016743511
0.13259716
0.1307192
0.12722644
0.12287207
0.11792375
0.11223653
0.10542261
0.097008261
0.08652358
0.07354851
0.057775885
0.03921986
0.016743477
0.13255101
0.13067584
0.12719008
0.12284658
0.11791103
0.1122359
0.10543131
0.097022456
0.086539214
0.073562044
0.057784909
0.039223666
0.016743466
0.13251141
0.13063892
0.12715978
0.12282648
0.1179028
0.1122387
0.1054424
0.097038097
0.08655555
0.07357578
0.057793886
0.039227397
0.016743475
0.13247796
0.13060801
0.12713513
0.12281137
0.11789865
0.11224458
0.10545557
0.097054945
0.086572418
0.07358961
0.057802764
0.039231033
0.016743503
0.13245026
0.13058273
0.12711573
0.12280085
0.11789821
0.11225319
0.10547053
0.097072783
0.086589667
0.073603445
0.057811498
0.039234561
0.016743547
0.13242794
0.13056268
0.1271012
0.12279456
0.11790115
0.11226424
0.10548705
0.097091419
0.086607166
0.073617206
0.057820054
0.03923797
0.016743605
0.13241061
0.13054751
0.12709117
0.12279214
0.11790713
0.11227745
0.10550488
0.097110683
0.086624801
0.073630832
0.057828406
0.039241256
0.016743675
0.13239795
0.13053686
0.1270853
0.12279326
0.11791586
0.11229255
0.10552382
0.097130422
0.086642475
0.073644269
0.057836534
0.039244416
0.016743757
0.1323896
0.13053039
0.12708326
0.12279762
0.11792706
0.11230931
0.10554368
0.097150503
0.086660104
0.073657476
0.057844425
0.03924745
0.016743849
0.13238526
0.1305278
0.12708474
0.12280492
0.11794046
0.11232751
0.1055643
0.097170805
0.086677612
0.073670416
0.057852066
0.039250347
0.01674395
0.13238463
0.13052878
0.12708945
0.12281487
0.11795581
0.11234693
0.1055855
0.097191213
0.086694931
0.073683054
0.057859443
0.03925309
0.016744059
0.13238739
0.13053303
0.12709709
0.12282721
0.11797288
0.11236738
0.10560714
0.097211621
0.086711993
0.073695352
0.057866525
0.039255696
0.016744174
0.13239326
0.13054025
0.12710738
0.12284168
0.11799142
0.11238867
0.10562907
0.097231923
0.086728732
0.073707275
0.057873301
0.039258165
0.016744294
0.13240195
0.13055016
0.12712003
0.122858
0.11801122
0.1124106
0.10565114
0.097252016
0.086745079
0.073718765
0.057879776
0.0392605
0.016744419
0.13241315
0.13056247
0.12713477
0.12287593
0.11803204
0.112433
0.10567321
0.097271799
0.086760966
0.0737298
0.057885936
0.039262701
0.016744547
0.13242658
0.13057688
0.12715132
0.12289521
0.11805366
0.11245568
0.10569514
0.097291169
0.086776313
0.073740364
0.057891773
0.039264767
0.016744677
0.13244194
0.13059312
0.12716941
0.12291559
0.11807588
0.11247846
0.1057168
0.097310026
0.086791084
0.07375043
0.057897276
0.039266697
0.016744808
0.13245894
0.13061089
0.12718877
0.12293682
0.11809848
0.11250118
0.10573806
0.097328285
0.086805241
0.073759976
0.05790244
0.039268491
0.01674494
0.1324773
0.13062992
0.12720914
0.12295869
0.11812127
0.1125237
0.1057588
0.097345893
0.086818749
0.073768987
0.057907262
0.039270148
0.016745071
0.13249676
0.13064995
0.12723028
0.12298098
0.11814408
0.11254586
0.10577894
0.097362801
0.086831579
0.073777454
0.05791174
0.039271671
0.0167452
0.13251705
0.13067074
0.12725196
0.12300348
0.11816674
0.11256755
0.10579842
0.097378966
0.086843714
0.073785375
0.05791588
0.039273061
0.016745327
0.13253794
0.13069205
0.12727397
0.12302601
0.1181891
0.11258868
0.10581717
0.097394358
0.086855144
0.073792751
0.057919687
0.039274321
0.016745451
0.13255922
0.13071368
0.12729612
0.12304842
0.11821106
0.11260918
0.10583515
0.097408958
0.086865869
0.073799593
0.057923172
0.039275458
0.016745572
0.1325807
0.13073544
0.12731824
0.12307057
0.11823252
0.11262898
0.10585233
0.097422755
0.086875893
0.073805911
0.057926345
0.039276476
0.016745689
0.13260221
0.13075718
0.12734019
0.12309236
0.1182534
0.11264804
0.10586869
0.097435749
0.086885227
0.073811722
0.057929221
0.039277382
0.016745801
0.1326236
0.13077875
0.12736187
0.12311369
0.11827364
0.11266632
0.1058842
0.097447941
0.086893887
0.073817044
0.057931811
0.039278183
0.016745909
0.13264476
0.13080005
0.12738316
0.12313449
0.11829318
0.11268378
0.10589887
0.097459342
0.086901889
0.073821894
0.057934132
0.039278883
0.016746013
0.1326656
0.13082097
0.12740399
0.12315467
0.11831198
0.11270041
0.10591269
0.097469963
0.086909252
0.073826291
0.057936196
0.03927949
0.016746112
0.13268604
0.13084146
0.12742428
0.12317421
0.11833001
0.11271619
0.10592566
0.097479822
0.086915997
0.073830257
0.057938017
0.03928001
0.016746207
0.132706
0.13086144
0.12744398
0.12319304
0.11834723
0.11273113
0.1059378
0.097488935
0.086922147
0.073833809
0.057939609
0.039280447
0.016746296
0.13272546
0.13088086
0.12746306
0.12321115
0.11836365
0.11274521
0.10594912
0.097497325
0.086927724
0.073836969
0.057940985
0.039280807
0.016746381
0.13274437
0.1308997
0.12748147
0.1232285
0.11837924
0.11275845
0.10595964
0.097505015
0.086932753
0.073839757
0.057942158
0.039281096
0.016746461
0.1327627
0.13091792
0.1274992
0.1232451
0.11839401
0.11277086
0.10596937
0.097512031
0.08693726
0.073842194
0.057943142
0.03928132
0.016746537
0.13278044
0.13093552
0.12751623
0.12326092
0.11840797
0.11278244
0.10597835
0.0975184
0.086941271
0.0738443
0.057943951
0.039281484
0.016746608
0.13279758
0.13095247
0.12753256
0.12327598
0.11842111
0.11279324
0.10598659
0.097524151
0.086944812
0.073846097
0.057944596
0.039281592
0.016746674
0.1328141
0.13096878
0.12754818
0.12329027
0.11843347
0.11280325
0.10599413
0.097529313
0.08694791
0.073847606
0.057945091
0.03928165
0.016746735
0.13283002
0.13098443
0.1275631
0.12330381
0.11844505
0.11281252
0.10600099
0.097533917
0.08695059
0.073848844
0.057945448
0.039281663
0.016746793
0.13284532
0.13099944
0.12757731
0.1233166
0.11845588
0.11282107
0.10600721
0.097537992
0.086952881
0.073849834
0.057945678
0.039281635
0.016746846
0.13286
0.1310138
0.12759084
0.12332867
0.11846597
0.11282892
0.10601282
0.09754157
0.086954808
0.073850592
0.057945791
0.03928157
0.016746895
0.13287406
0.13102752
0.12760367
0.12334002
0.11847535
0.11283611
0.10601785
0.097544683
0.086956397
0.073851141
0.057945801
0.039281472
0.01674694
0.1328875
0.13104059
0.12761583
0.12335067
0.11848405
0.11284266
0.10602233
0.097547362
0.086957677
0.073851497
0.057945716
0.039281344
0.016746981
0.13290031
0.13105301
0.12762732
0.12336065
0.11849209
0.11284862
0.1060263
0.09754964
0.086958674
0.073851683
0.057945551
0.039281194
0.016747019
0.13291249
0.13106478
0.12763814
0.12336996
0.1184995
0.11285401
0.10602979
0.097551549
0.086959416
0.073851717
0.057945317
0.039281024
0.016747053
0.13292401
0.1310759
0.1276483
0.12337862
0.1185063
0.11285885
0.10603284
0.09755312
0.086959928
0.07385162
0.057945025
0.039280841
0.016747084
0.13293486
0.13108635
0.1276578
0.12338664
0.11851251
0.11286318
0.10603547
0.097554379
0.086960233
0.073851407
0.057944686
0.039280648
0.016747112
0.13294503
0.13109612
0.12766663
0.12339402
0.11851814
0.11286702
0.1060377
0.097555347
0.086960349
0.073851092
0.057944309
0.039280451
0.016747137
0.13295447
0.13110518
0.12767478
0.12340077
0.1185232
0.11287037
0.10603955
0.097556042
0.08696029
0.073850685
0.057943898
0.039280251
0.01674716
0.13296316
0.13111351
0.12768223
0.12340687
0.11852769
0.11287325
0.10604104
0.097556471
0.086960063
0.073850189
0.057943455
0.039280048
0.01674718
0.13297107
0.13112108
0.12768896
0.12341232
0.11853161
0.11287567
0.10604216
0.09755664
0.086959669
0.073849604
0.057942979
0.039279841
0.016747198
0.13297818
0.13112788
0.12769497
0.12341712
0.11853497
0.11287761
0.10604292
0.09755655
0.086959107
0.073848926
0.057942463
0.039279624
0.016747213
0.13298446
0.13113388
0.12770024
0.12342124
0.11853775
0.11287909
0.10604331
0.097556202
0.086958377
0.073848151
0.057941901
0.039279393
0.016747225
0.13298992
0.13113909
0.12770477
0.12342472
0.11853998
0.11288012
0.10604337
0.097555606
0.086957482
0.073847279
0.057941291
0.039279144
0.016747234
0.13299457
0.13114352
0.12770858
0.12342756
0.11854168
0.11288072
0.1060431
0.097554778
0.086956436
0.073846318
0.057940634
0.039278873
0.01674724
0.13299846
0.13114721
0.12771171
0.1234298
0.11854288
0.11288093
0.10604254
0.09755375
0.086955263
0.073845284
0.057939939
0.039278584
0.016747243
0.13300163
0.13115021
0.12771421
0.12343151
0.11854364
0.1128808
0.10604173
0.097552564
0.086953996
0.073844201
0.05793922
0.039278282
0.016747242
0.13300416
0.1311526
0.12771616
0.12343274
0.11854402
0.1128804
0.10604075
0.097551272
0.08695268
0.073843105
0.057938501
0.039277978
0.016747239
0.13300613
0.13115444
0.12771763
0.12343357
0.11854411
0.11287979
0.10603964
0.097549925
0.086951359
0.073842029
0.057937807
0.039277685
0.016747235
0.13300761
0.13115583
0.12771868
0.12343407
0.11854394
0.11287903
0.10603846
0.097548571
0.086950073
0.073841007
0.057937162
0.039277419
0.016747229
0.13300867
0.13115681
0.12771938
0.12343428
0.11854358
0.11287815
0.10603725
0.09754724
0.086948847
0.073840059
0.057936582
0.039277191
0.016747224
0.13300935
0.13115742
0.12771975
0.12343424
0.11854304
0.11287718
0.10603601
0.097545939
0.086947686
0.073839188
0.057936071
0.039277006
0.01674722
0.13300967
0.13115769
0.12771982
0.12343395
0.11854233
0.11287611
0.10603473
0.097544651
0.086946572
0.073838379
0.057935619
0.039276862
0.016747217
0.13300963
0.13115762
0.12771957
0.12343339
0.11854141
0.11287489
0.10603337
0.097543334
0.086945462
0.073837592
0.057935196
0.039276741
0.016747214
0.13300921
0.13115717
0.12771899
0.12343253
0.11854025
0.1128735
0.10603189
0.097541936
0.086944304
0.073836781
0.057934762
0.039276621
0.016747211
0.1330084
0.13115634
0.12771804
0.12343136
0.11853882
0.11287188
0.10603023
0.097540408
0.08694305
0.073835898
0.057934276
0.039276466
0.016747207
0.13300722
0.13115514
0.12771672
0.12342985
0.11853709
0.11287002
0.10602838
0.097538719
0.086941667
0.07383491
0.057933708
0.03927626
0.016747199
0.13300569
0.13115359
0.12771507
0.12342802
0.1185351
0.11286794
0.10602634
0.097536875
0.086940154
0.073833811
0.057933051
0.039275995
0.016747188
0.13300389
0.13115177
0.12771316
0.12342596
0.11853289
0.11286568
0.10602415
0.097534917
0.086938545
0.07383263
0.057932323