/*--------------------------------*- C++ -*----------------------------------*\
| =========                 |                                                 |
| \\      /  F ield         | OpenFOAM: The Open Source CFD Toolbox           |
|  \\    /   O peration     | Version:  2506                                  |
|   \\  /    A nd           | Website:  www.openfoam.com                      |
|    \\/     M anipulation  |                                                 |
\*---------------------------------------------------------------------------*/
FoamFile
{
    version     2.0;
    format      ascii;
    arch        "LSB;label=32;scalar=64";
    class       volScalarField;
    location    "14000/water";
    object      epsilon;
}
// * * * * * * * * * * * * * * * * * * * * * * * * * * * * * * * * * * * * * //

dimensions      [0 2 -3 0 0 0 0];

internalField   nonuniform List<scalar> 
2600
(
8.8079773e-05
8.8079245e-05
8.8079271e-05
8.807949e-05
8.8079744e-05
8.8080245e-05
8.8082926e-05
8.8104349e-05
8.8272771e-05
8.9512908e-05
9.8428186e-05
0.00017145296
0.0010138716
6.7789348e-05
6.7791881e-05
6.7793339e-05
6.7794963e-05
6.7796901e-05
6.7799886e-05
6.7810178e-05
6.7875511e-05
6.8312468e-05
7.1039872e-05
8.7857083e-05
0.00021159534
0.0014669324
5.3500886e-05
5.3503148e-05
5.3504846e-05
5.3506859e-05
5.3509287e-05
5.3513643e-05
5.3532992e-05
5.3656306e-05
5.4399641e-05
5.8506995e-05
8.1500797e-05
0.00023956052
0.0017068244
4.3127504e-05
4.3128883e-05
4.3130503e-05
4.3132598e-05
4.3135149e-05
4.3140834e-05
4.3171684e-05
4.3362646e-05
4.4413342e-05
4.9710824e-05
7.7552644e-05
0.00025818579
0.0017816909
3.539909e-05
3.5400132e-05
3.5401605e-05
3.5403513e-05
3.5405834e-05
3.5412916e-05
3.5457613e-05
3.5722605e-05
3.7073304e-05
4.3450503e-05
7.5629285e-05
0.00027290618
0.0017622817
2.9510599e-05
2.9511446e-05
2.95127e-05
2.9514227e-05
2.9516143e-05
2.9525119e-05
2.9586798e-05
2.9933924e-05
3.159515e-05
3.9095388e-05
7.5939385e-05
0.00028837858
0.0017002497
2.4935213e-05
2.4935877e-05
2.4936847e-05
2.4937875e-05
2.4939416e-05
2.4951342e-05
2.503458e-05
2.5477125e-05
2.7489448e-05
3.6318413e-05
7.8818158e-05
0.0003073199
0.0016256765
2.1318423e-05
2.1318913e-05
2.1319549e-05
2.132003e-05
2.1321464e-05
2.1338095e-05
2.144948e-05
2.2008273e-05
2.4447975e-05
3.4968795e-05
8.4593389e-05
0.00033066897
0.0015541994
1.8415642e-05
1.8415958e-05
1.8416233e-05
1.8416208e-05
1.8418091e-05
1.8442025e-05
1.8590687e-05
1.9295945e-05
2.2279378e-05
3.5010665e-05
9.3512814e-05
0.00035786641
0.0014930959
1.6054297e-05
1.6054439e-05
1.6054351e-05
1.6053968e-05
1.6057197e-05
1.6092028e-05
1.6290179e-05
1.7183376e-05
2.0872546e-05
3.6486908e-05
0.00010564207
0.00038720676
0.0014449141
1.411016e-05
1.4110129e-05
1.4109712e-05
1.4109249e-05
1.4115119e-05
1.4165612e-05
1.4429188e-05
1.5565379e-05
2.0175367e-05
3.9486471e-05
0.00012074249
0.00041640751
0.0014094648
1.249217e-05
1.2491978e-05
1.249131e-05
1.24912e-05
1.2501471e-05
1.2573786e-05
1.2923263e-05
1.4374121e-05
2.0181311e-05
4.4103574e-05
0.00013819401
0.0004433175
0.0013850187
1.1132483e-05
1.1132152e-05
1.1131368e-05
1.1132227e-05
1.1149209e-05
1.1251189e-05
1.1712642e-05
1.3570321e-05
2.0918928e-05
5.0386672e-05
0.00015703479
0.00046647967
0.0013691707
9.9797899e-06
9.9793621e-06
9.9786681e-06
9.9813266e-06
1.0007987e-05
1.0149541e-05
1.0756002e-05
1.3137755e-05
2.2440689e-05
5.8285037e-05
0.00017613324
0.00048532287
0.0013594869
8.994766e-06
8.994305e-06
8.9939894e-06
8.9995396e-06
9.0396464e-06
9.2332357e-06
1.0026406e-05
1.3079617e-05
2.4808572e-05
6.7609618e-05
0.00019442665
0.00050000486
0.0013539038
8.1468971e-06
8.1464947e-06
8.1469469e-06
8.1567947e-06
8.2150975e-06
8.4763588e-06
9.5087285e-06
1.3415553e-05
2.807526e-05
7.8026841e-05
0.0002111215
0.00051110137
0.0013508788
7.4122408e-06
7.412023e-06
7.4137548e-06
7.4296903e-06
7.5121568e-06
7.8606834e-06
9.1980664e-06
1.4178291e-05
3.2262331e-05
8.9094588e-05
0.00022578146
0.00051932558
0.0013493668
6.7718206e-06
6.7719549e-06
6.7756276e-06
6.7999151e-06
6.9140283e-06
7.3743439e-06
9.0987625e-06
1.5408888e-05
3.7339829e-05
0.00010033155
0.00023829849
0.00052535582
0.0013487149
6.2104575e-06
6.2111621e-06
6.2176208e-06
6.2531142e-06
6.4082476e-06
7.0110033e-06
9.2236697e-06
1.7149875e-05
4.3213605e-05
0.00011129559
0.0002487951
0.00052976262
0.0013485457
5.7159095e-06
5.7174657e-06
5.7277834e-06
5.7780724e-06
5.9859581e-06
6.7693776e-06
9.5932706e-06
1.9436233e-05
4.9726067e-05
0.00012164394
0.00025751549
0.00053299526
0.0013486594
5.2782322e-06
5.2809984e-06
5.2965329e-06
5.3661281e-06
5.6414368e-06
6.6530083e-06
1.0234238e-05
2.2285131e-05
5.6672017e-05
0.00013115952
0.00026474159
0.00053539451
0.0013489619
4.889296e-06
4.893728e-06
4.9161934e-06
5.0107595e-06
5.3718124e-06
6.6701645e-06
1.1177042e-05
2.5686554e-05
6.3825678e-05
0.00013974422
0.00027074338
0.00053721258
0.0013494179
4.5424222e-06
4.549097e-06
4.5806559e-06
4.707302e-06
5.1769356e-06
6.8337316e-06
1.2452335e-05
2.9597477e-05
7.097079e-05
0.00014739148
0.0002757568
0.0005386328
0.0013500205
4.2321037e-06
4.2417515e-06
4.2851315e-06
4.4527719e-06
5.0593678e-06
7.1609028e-06
1.4086151e-05
3.3941829e-05
7.7925112e-05
0.00015415332
0.00027997823
0.0005397864
0.0013507744
3.9537926e-06
3.9673375e-06
4.0259782e-06
4.2457763e-06
5.0244498e-06
7.6724684e-06
1.6094423e-05
3.8616917e-05
8.4553949e-05
0.00016011196
0.00028356673
0.00054076614
0.0013516866
3.7037376e-06
3.7223496e-06
3.8005873e-06
4.0864974e-06
5.0804008e-06
8.3914974e-06
1.8477843e-05
4.3504909e-05
9.0772058e-05
0.00016536001
0.00028664925
0.00054163683
0.0013527623
3.4788613e-06
3.504022e-06
3.6073203e-06
3.9767408e-06
5.2383694e-06
9.3412704e-06
2.1218351e-05
4.8486362e-05
9.6537092e-05
0.00016998886
0.00028932618
0.00054244333
0.0013540034
3.2766694e-06
3.3102566e-06
3.4454921e-06
3.9200366e-06
5.5123349e-06
1.0542478e-05
2.427837e-05
5.3452376e-05
0.00010183911
0.00017408281
0.00029167657
0.00054321638
0.0013554083
3.0951868e-06
3.1395803e-06
3.315394e-06
3.9217755e-06
5.9187332e-06
1.2009945e-05
2.7603267e-05
5.8312864e-05
0.0001066899
0.0001777168
0.00029376258
0.00054397678
0.0013569728
2.9329181e-06
2.991133e-06
3.2183575e-06
3.9893517e-06
6.4756803e-06
1.3749403e-05
3.1126582e-05
6.3000087e-05
0.00011111418
0.00018095591
0.00029563314
0.00054473841
0.0013586903
2.7888292e-06
2.8646819e-06
3.1568533e-06
4.1322631e-06
7.2016971e-06
1.575503e-05
3.4776809e-05
6.7468127e-05
0.00011514329
0.00018385586
0.00029732667
0.00054550995
0.0013605531
2.6623516e-06
2.7606642e-06
3.1346229e-06
4.3621022e-06
8.113928e-06
1.8008405e-05
3.8484157e-05
7.1689806e-05
0.00011881108
0.00018646428
0.00029887505
0.00054629402
0.0013625492
2.5534088e-06
2.680258e-06
3.1568305e-06
4.6923498e-06
9.2259803e-06
2.0479255e-05
4.21859e-05
7.5652555e-05
0.00012215121
0.00018882083
0.0003003003
0.00054708342
0.0013646651
2.4624667e-06
2.6254827e-06
3.2302147e-06
5.1378784e-06
1.0545685e-05
2.3127917e-05
4.5829651e-05
7.9354436e-05
0.00012519597
0.00019095972
0.0003016212
0.00054787008
0.0013668874
2.3906118e-06
2.5993266e-06
3.3632045e-06
5.7140889e-06
1.2073206e-05
2.5908983e-05
4.9374525e-05
8.2800763e-05
0.00012797521
0.00019290919
0.00030285016
0.00054865283
0.0013692048
2.3396576e-06
2.6059009e-06
3.565945e-06
6.4356563e-06
1.379994e-05
2.8775318e-05
5.2790666e-05
8.600144e-05
0.00013051585
0.00019469159
0.00030399375
0.00054944269
0.0013716091
2.3122834e-06
2.6506068e-06
3.8501617e-06
7.3149528e-06
1.5708513e-05
3.1681692e-05
5.6057926e-05
8.896944e-05
0.00013284315
0.00019632773
0.00030505437
0.00055025018
0.0013740955
2.312204e-06
2.740297e-06
4.2287855e-06
8.360338e-06
1.7773921e-05
3.4587408e-05
5.9163896e-05
9.1718487e-05
0.00013497701
0.00019782951
0.00030604753
0.00055107625
0.0013766576
2.3443664e-06
2.8833943e-06
4.715266e-06
9.5746049e-06
1.996561e-05
3.7457897e-05
6.2102578e-05
9.4263952e-05
0.00013693776
0.0001992035
0.00030698678
0.0005519222
0.0013792894
2.4151613e-06
3.08991e-06
5.3225446e-06
1.0953905e-05
2.2249995e-05
4.0265063e-05
6.4872083e-05
9.661893e-05
0.00013873803
0.00020046567
0.00030788009
0.00055278762
0.0013819844
2.5326205e-06
3.3712893e-06
6.0617314e-06
1.2487423e-05
2.459302e-05
4.298726e-05
6.7474465e-05
9.8797817e-05
0.00014038633
0.00020163084
0.00030873384
0.00055367126
0.0013847363
2.7065546e-06
3.7399972e-06
6.9406295e-06
1.4157865e-05
2.6962173e-05
4.5608171e-05
6.9912766e-05
0.00010081056
0.00014189658
0.00020271014
0.00030955281
0.00055457139
0.0013875386
2.9485501e-06
4.2087762e-06
7.9623506e-06
1.5942735e-05
2.9328091e-05
4.8116704e-05
7.2192972e-05
0.0001026631
0.00014328329
0.00020371266
0.00031034057
0.00055548593
0.0013903848
3.2717205e-06
4.7895533e-06
9.1242819e-06
1.7815986e-05
3.1664999e-05
5.050453e-05
7.4318476e-05
0.00010436655
0.00014455809
0.00020464578
0.00031109968
0.00055641254
0.0013932687
3.6900853e-06
5.4920724e-06
1.0417682e-05
1.975001e-05
3.3951696e-05
5.276818e-05
7.6289663e-05
0.00010593298
0.00014573088
0.00020551553
0.00031183193
0.0005573487
0.001396184
4.217484e-06
6.3224269e-06
1.182795e-05
2.1717138e-05
3.6170243e-05
5.4901155e-05
7.8113752e-05
0.00010737248
0.00014680992
0.00020632672
0.00031253848
0.00055829174
0.0013991243
4.866025e-06
7.2817733e-06
1.3335591e-05
2.3691121e-05
3.8306685e-05
5.6898164e-05
7.9798301e-05
0.00010869389
0.00014780213
0.0002070832
0.00031321992
0.00055923886
0.0014020835
5.6442482e-06
8.3655552e-06
1.4917864e-05
2.5648779e-05
4.0344256e-05
5.8760205e-05
8.1350097e-05
0.00010990478
0.00014871321
0.00020778792
0.00031387635
0.00056018711
0.0014050554
6.5553582e-06
9.5634589e-06
1.6550685e-05
2.756532e-05
4.2272541e-05
6.0488808e-05
8.2775229e-05
0.00011101156
0.00014954783
0.00020844309
0.00031450746
0.00056113343
0.0014080337
7.5961528e-06
1.0860441e-05
1.8207369e-05
2.9419103e-05
4.4084531e-05
6.2085816e-05
8.4079036e-05
0.0001120196
0.00015030969
0.00020905023
0.00031511251
0.00056207458
0.0014110118
8.7563154e-06
1.2235551e-05
1.9861233e-05
3.1193218e-05
4.5774967e-05
6.3553183e-05
8.5266116e-05
0.00011293329
0.00015100166
0.00020961025
0.00031569041
0.00056300716
0.0014139831
1.0017523e-05
1.3664336e-05
2.148845e-05
3.2873861e-05
4.7340056e-05
6.4892871e-05
8.6340351e-05
0.00011375612
0.00015162581
0.00021012348
0.00031623968
0.0005639276
0.0014169405
1.1355903e-05
1.5121212e-05
2.3068173e-05
3.445018e-05
4.8777291e-05
6.6106815e-05
8.7304988e-05
0.00011449085
0.00015218356
0.00021058976
0.00031675854
0.00056483207
0.0014198767
1.2744267e-05
1.6581083e-05
2.4582904e-05
3.5914125e-05
5.0085356e-05
6.7196972e-05
8.816274e-05
0.00011513953
0.00015267569
0.00021100843
0.00031724483
0.00056571654
0.0014227835
1.4154484e-05
1.8020639e-05
2.6018605e-05
3.7260266e-05
5.1264093e-05
6.8165414e-05
8.8915932e-05
0.0001157037
0.00015310253
0.00021137848
0.00031769616
0.00056657675
0.0014256525
1.5559582e-05
1.9419303e-05
2.7364607e-05
3.8485598e-05
5.231449e-05
6.9014449e-05
8.9566664e-05
0.0001161845
0.000153464
0.00021169859
0.00031810988
0.00056740821
0.0014284745
1.693534e-05
2.0759787e-05
2.8613378e-05
3.9589303e-05
5.3238669e-05
6.9746756e-05
9.0116986e-05
0.00011658288
0.00015375982
0.00021196723
0.00031848322
0.00056820631
0.0014312396
1.826127e-05
2.2028326e-05
2.9760206e-05
4.0572477e-05
5.4039841e-05
7.0365495e-05
9.0569076e-05
0.00011689975
0.00015398961
0.00021218283
0.00031881336
0.00056896637
0.0014339377
1.9521048e-05
2.3214636e-05
3.0802835e-05
4.1437841e-05
5.4722227e-05
7.0874391e-05
9.092539e-05
0.00011713613
0.00015415307
0.0002123439
0.00031909759
0.00056968378
0.0014365579
2.0702516e-05
2.4311688e-05
3.1741086e-05
4.2189435e-05
5.5290937e-05
7.1277772e-05
9.1188791e-05
0.00011729337
0.00015425016
0.00021244916
0.00031933341
0.00057035412
0.0014390892
2.179737e-05
2.5315354e-05
3.257649e-05
4.2832332e-05
5.5751828e-05
7.1580559e-05
9.1362627e-05
0.00011737319
0.0001542812
0.00021249774
0.00031951875
0.00057097335
0.0014415208
2.2800694e-05
2.6223984e-05
3.3311942e-05
4.3372362e-05
5.6111338e-05
7.178822e-05
9.1450779e-05
0.00011737787
0.00015424704
0.00021248928
0.00031965203
0.00057153794
0.0014438419
2.3710403e-05
2.7037978e-05
3.3951389e-05
4.3815874e-05
5.6376317e-05
7.1906693e-05
9.1457659e-05
0.00011731023
0.00015414912
0.00021242402
0.00031973236
0.00057204504
0.0014460427
2.4526702e-05
2.7759361e-05
3.4499555e-05
4.4169529e-05
5.655387e-05
7.1942284e-05
9.1388171e-05
0.00011717368
0.00015398952
0.00021230292
0.00031975956
0.00057249261
0.0014481141
2.5251561e-05
2.8391403e-05
3.4961707e-05
4.444013e-05
5.6651213e-05
7.1901559e-05
9.1247656e-05
0.00011697222
0.00015377099
0.00021212769
0.00031973429
0.00057287949
0.0014500482
2.5888277e-05
2.8938286e-05
3.5343455e-05
4.4634485e-05
5.6675545e-05
7.1791234e-05
9.1041802e-05
0.00011671034
0.00015349694
0.00021190076
0.00031965799
0.00057320542
0.0014518387
2.6441081e-05
2.9404815e-05
3.565059e-05
4.4759302e-05
5.6633947e-05
7.1618066e-05
9.0776552e-05
0.00011639299
0.00015317135
0.00021162526
0.00031953293
0.00057347113
0.001453481
2.6914833e-05
2.9796195e-05
3.5888956e-05
4.4821105e-05
5.6533303e-05
7.1388763e-05
9.0458009e-05
0.00011602547
0.00015279873
0.00021130496
0.00031936209
0.00057367819
0.001454972
2.7314769e-05
3.0117835e-05
3.6064343e-05
4.4826182e-05
5.6380234e-05
7.1109901e-05
9.0092338e-05
0.00011561335
0.00015238398
0.00021094417
0.00031914909
0.00057382901
0.0014563107
2.7646309e-05
3.0375209e-05
3.6182414e-05
4.4780535e-05
5.6181057e-05
7.0787854e-05
8.9685674e-05
0.00011516232
0.00015193233
0.00021054762
0.00031889808
0.00057392669
0.0014574976
2.791491e-05
3.0573744e-05
3.6248643e-05
4.4689863e-05
5.5941753e-05
7.042874e-05
8.9244045e-05
0.00011467815
0.00015144919
0.00021012033
0.0003186136
0.00057397491
0.001458535
2.8125955e-05
3.0718739e-05
3.6268273e-05
4.4559536e-05
5.5667946e-05
7.003838e-05
8.8773298e-05
0.00011416656
0.00015094005
0.0002096675
0.00031830043
0.00057397777
0.0014594268
2.8284675e-05
3.0815302e-05
3.6246294e-05
4.4394595e-05
5.53649e-05
6.9622267e-05
8.8279043e-05
0.00011363314
0.00015041038
0.00020919438
0.0003179635
0.0005739397
0.001460178
2.8396094e-05
3.0868314e-05
3.6187415e-05
4.4199748e-05
5.5037506e-05
6.9185543e-05
8.7766606e-05
0.00011308328
0.00014986552
0.00020870618
0.00031760772
0.00057386524
0.0014607951
2.8464994e-05
3.0882401e-05
3.6096063e-05
4.3979371e-05
5.4690297e-05
6.873299e-05
8.724099e-05
0.00011252211
0.00014931062
0.00020820792
0.00031723792
0.00057375903
0.0014612851
2.8495892e-05
3.0861919e-05
3.5976377e-05
4.3737517e-05
5.4327443e-05
6.8269021e-05
8.670685e-05
0.00011195444
0.00014875055
0.00020770441
0.00031685871
0.0005736256
0.0014616561
2.8493026e-05
3.0810947e-05
3.5832206e-05
4.3477927e-05
5.3952769e-05
6.7797683e-05
8.6168479e-05
0.00011138476
0.00014818985
0.00020720015
0.00031647443
0.00057346936
0.0014619165
2.8460355e-05
3.0733284e-05
3.5667121e-05
4.3204035e-05
5.3569762e-05
6.7322658e-05
8.5629795e-05
0.00011081717
0.00014763271
0.00020669926
0.00031608909
0.0005732945
0.0014620749
2.840156e-05
3.0632458e-05
3.5484415e-05
4.2918987e-05
5.318159e-05
6.6847277e-05
8.5094343e-05
0.00011025537
0.00014708291
0.0002062055
0.00031570632
0.00057310491
0.0014621403
2.8320045e-05
3.0511728e-05
3.5287119e-05
4.2625651e-05
5.279111e-05
6.6374527e-05
8.4565293e-05
0.00010970271
0.00014654386
0.00020572218
0.00031532935
0.00057290419
0.0014621216
2.8218954e-05
3.0374095e-05
3.507801e-05
4.2326628e-05
5.2400888e-05
6.5907066e-05
8.4045456e-05
0.00010916211
0.0001460185
0.00020525221
0.00031496101
0.0005726956
0.0014620275
2.8101174e-05
3.0222312e-05
3.4859621e-05
4.2024271e-05
5.2013213e-05
6.5447241e-05
8.3537291e-05
0.00010863613
0.00014550942
0.00020479808
0.00031460372
0.00057248207
0.0014618665
2.7969352e-05
3.0058897e-05
3.4634257e-05
4.1720696e-05
5.1630115e-05
6.4997103e-05
8.3042926e-05
0.00010812694
0.00014501877
0.00020436186
0.00031425949
0.00057226616
0.0014616468
2.7825903e-05
2.9886144e-05
3.4404003e-05
4.1417795e-05
5.1253379e-05
6.4558424e-05
8.2564168e-05
0.00010763639
0.00014454834
0.00020394523
0.00031392995
0.0005720501
0.0014613763
2.7673027e-05
2.9706137e-05
3.4170742e-05
4.1117251e-05
5.088456e-05
6.4132716e-05
8.2102529e-05
0.00010716596
0.00014409957
0.00020354948
0.00031361637
0.00057183576
0.0014610622
2.751272e-05
2.9520759e-05
3.3936163e-05
4.0820554e-05
5.0525005e-05
6.3721249e-05
8.1659245e-05
0.00010671685
0.00014367354
0.0002031756
0.00031331978
0.0005716245
0.0014607111
2.7346786e-05
2.9331711e-05
3.3701775e-05
4.052901e-05
5.017586e-05
6.3325072e-05
8.1235296e-05
0.00010628995
0.00014327103
0.00020282423
0.0003130407
0.0005714164
0.0014603286
2.7176852e-05
2.9140517e-05
3.3468918e-05
4.0243757e-05
4.9838091e-05
6.2945026e-05
8.0831429e-05
0.00010588593
0.00014289261
0.00020249588
0.00031277951
0.00057120925
0.0014599198
2.7004377e-05
2.894854e-05
3.3238778e-05
3.9965774e-05
4.9512496e-05
6.2581765e-05
8.0448175e-05
0.00010550517
0.00014253849
0.00020219042
0.00031253532
0.00057100463
0.0014594897
2.6830666e-05
2.8756993e-05
3.3012394e-05
3.96959e-05
4.9199722e-05
6.2235776e-05
8.0085894e-05
0.00010514793
0.00014220885
0.00020190799
0.00031230608
0.00057080563
0.0014590437
2.6656881e-05
2.856695e-05
3.279067e-05
3.9434836e-05
4.8900276e-05
6.1907397e-05
7.9744768e-05
0.00010481423
0.00014190343
0.00020164697
0.00031209272
0.00057061383
0.0014585868
2.6484052e-05
2.8379355e-05
3.257439e-05
3.9183167e-05
4.861454e-05
6.1596824e-05
7.9424816e-05
0.00010450389
0.0001416217
0.00020140637
0.00031189572
0.00057043036
0.0014581235
2.6313086e-05
2.8195035e-05
3.2364222e-05
3.8941364e-05
4.8342786e-05
6.1304147e-05
7.9125972e-05
0.00010421666
0.0001413622
0.0002011862
0.00031171518
0.000570256
0.0014576576
2.6144776e-05
2.8014705e-05
3.2160732e-05
3.8709802e-05
4.8085188e-05
6.1029342e-05
7.8847988e-05
0.00010395153
0.00014112445
0.00020098613
0.00031155095
0.00057009123
0.0014571928
2.5979816e-05
2.7838985e-05
3.196439e-05
3.8488764e-05
4.7841824e-05
6.0772277e-05
7.8590338e-05
0.00010370764
0.00014090798
0.00020080566
0.00031140266
0.0005699363
0.0014567321
2.5818804e-05
2.76684e-05
3.1775585e-05
3.8278457e-05
4.7612707e-05
6.0532707e-05
7.8352158e-05
0.0001034845
0.00014071216
0.00020064415
0.0003112698
0.00056979128
0.0014562782
2.5662252e-05
2.7503399e-05
3.1594633e-05
3.8079035e-05
4.7397759e-05
6.030996e-05
7.8132965e-05
0.00010328148
0.00014053629
0.00020050087
0.00031115178
0.00056965614
0.0014558334
2.55106e-05
2.7344361e-05
3.1421801e-05
3.7890536e-05
4.7196576e-05
6.0103645e-05
7.7932211e-05
0.00010309789
0.00014037957
0.00020037499
0.00031104791
0.00056953071
0.0014553996
2.5364229e-05
2.7191606e-05
3.1257214e-05
3.7712812e-05
4.70089e-05
5.9913329e-05
7.7749295e-05
0.00010293299
0.00014024114
0.00020026562
0.00031095745
0.00056941479
0.0014549784
2.5223417e-05
2.7045323e-05
3.1100917e-05
3.7545751e-05
4.683444e-05
5.9738538e-05
7.758357e-05
0.00010278598
0.00014012011
0.00020017187
0.00031087965
0.0005693081
0.0014545711
2.5088368e-05
2.6905647e-05
3.0952918e-05
3.7389204e-05
4.667287e-05
5.9578763e-05
7.7434355e-05
0.00010265602
0.00014001554
0.00020009278
0.00031081372
0.00056921034
0.0014541788
2.4959232e-05
2.677267e-05
3.0813191e-05
3.7242993e-05
4.6523836e-05
5.9433468e-05
7.7300939e-05
0.00010254227
0.00013992648
0.00020002742
0.00031075889
0.00056912118
0.0014538025
2.4836111e-05
2.6646439e-05
3.0681675e-05
3.7106907e-05
4.6386954e-05
5.9302089e-05
7.7182586e-05
0.00010244384
0.00013985197
0.00019997483
0.00031071435
0.00056904027
0.0014534427
2.4719072e-05
2.6526967e-05
3.0558278e-05
3.6980708e-05
4.6261817e-05
5.9184043e-05
7.7078547e-05
0.00010235986
0.00013979106
0.00019993408
0.00031067936
0.00056896723
0.0014531
2.4608143e-05
2.6414235e-05
3.0442876e-05
3.6864135e-05
4.6147998e-05
5.9078728e-05
7.6988061e-05
0.00010228943
0.00013974279
0.00019990425
0.00031065315
0.0005689017
0.0014527748
2.4503322e-05
2.6308192e-05
3.0335323e-05
3.6756903e-05
4.6045053e-05
5.8985532e-05
7.6910361e-05
0.00010223167
0.00013970623
0.00019988443
0.00031063498
0.00056884327
0.0014524672
2.4404577e-05
2.6208761e-05
3.0235447e-05
3.6658708e-05
4.5952522e-05
5.8903837e-05
7.6844682e-05
0.0001021857
0.00013968046
0.00019987376
0.00031062414
0.00056879156
0.0014521774
2.431185e-05
2.6115841e-05
3.0143055e-05
3.656923e-05
4.5869935e-05
5.8833017e-05
7.6790262e-05
0.00010215068
0.00013966458
0.00019987138
0.00031061995
0.00056874616
0.0014519053
2.4225061e-05
2.6029309e-05
3.0057937e-05
3.6488137e-05
4.5796815e-05
5.8772447e-05
7.6746346e-05
0.00010212575
0.00013965773
0.00019987649
0.00031062175
0.00056870668
0.0014516508
2.4144109e-05
2.5949023e-05
2.9979865e-05
3.6415083e-05
4.5732679e-05
5.8721505e-05
7.6712192e-05
0.00010211009
0.00013965906
0.00019988831
0.0003106289
0.00056867271
0.0014514136
2.4068874e-05
2.5874823e-05
2.99086e-05
3.6349714e-05
4.5677043e-05
5.8679575e-05
7.6687073e-05
0.00010210291
0.00013966778
0.0001999061
0.00031064082
0.00056864389
0.0014511934
2.3999219e-05
2.5806536e-05
2.9843888e-05
3.6291671e-05
4.562942e-05
5.8646049e-05
7.667028e-05
0.00010210344
0.00013968311
0.00019992918
0.00031065696
0.00056861985
0.0014509897
2.3934993e-05
2.5743975e-05
2.978547e-05
3.6240589e-05
4.558933e-05
5.862033e-05
7.6661125e-05
0.00010211094
0.00013970433
0.00019995687
0.00031067679
0.00056860024
0.0014508021
2.3876032e-05
2.5686941e-05
2.9733075e-05
3.6196102e-05
4.5556295e-05
5.8601834e-05
7.6658942e-05
0.00010212471
0.00013973074
0.00019998857
0.00031069984
0.00056858475
0.00145063
2.3822164e-05
2.5635228e-05
2.968643e-05
3.6157843e-05
4.5529844e-05
5.8589992e-05
7.6663088e-05
0.00010214407
0.0001397617
0.00020002371
0.00031072565
0.00056857306
0.001450473
2.3773203e-05
2.5588622e-05
2.9645256e-05
3.6125445e-05
4.5509515e-05
5.8584253e-05
7.6672946e-05
0.00010216839
0.00013979659
0.00020006174
0.00031075382
0.00056856491
0.0014503304
2.372896e-05
2.5546902e-05
2.9609272e-05
3.6098548e-05
4.5494854e-05
5.858408e-05
7.6687927e-05
0.00010219705
0.00013983484
0.00020010219
0.00031078397
0.00056856001
0.0014502016
2.3689237e-05
2.5509842e-05
2.9578195e-05
3.607679e-05
4.548542e-05
5.858896e-05
7.6707467e-05
0.00010222948
0.00013987591
0.00020014457
0.00031081574
0.00056855811
0.0014500861
2.3653832e-05
2.5477215e-05
2.9551744e-05
3.605982e-05
4.5480782e-05
5.8598396e-05
7.6731029e-05
0.00010226514
0.00013991929
0.00020018848
0.0003108488
0.00056855896
0.0014499834
2.3622539e-05
2.544879e-05
2.9529639e-05
3.6047291e-05
4.5480526e-05
5.8611912e-05
7.6758104e-05
0.00010230353
0.00013996452
0.00020023351
0.00031088284
0.00056856229
0.0014498928
2.3595151e-05
2.5424336e-05
2.95116e-05
3.6038863e-05
4.5484246e-05
5.8629055e-05
7.6788209e-05
0.00010234417
0.00014001116
0.0002002793
0.00031091758
0.00056856788
0.0014498137
2.3571458e-05
2.5403622e-05
2.9497355e-05
3.6034207e-05
4.5491557e-05
5.864939e-05
7.6820892e-05
0.00010238661
0.00014005882
0.00020032551
0.00031095275
0.00056857545
0.0014497456
2.355125e-05
2.5386418e-05
2.9486633e-05
3.6033e-05
4.5502086e-05
5.8672508e-05
7.6855726e-05
0.00010243045
0.00014010711
0.00020037183
0.0003109881
0.00056858477
0.0014496879
2.3534319e-05
2.5372497e-05
2.947917e-05
3.6034933e-05
4.5515475e-05
5.8698018e-05
7.689231e-05
0.00010247529
0.00014015571
0.00020041799
0.0003110234
0.00056859561
0.0014496399
2.3520456e-05
2.5361634e-05
2.9474708e-05
3.6039705e-05
4.5531387e-05
5.8725554e-05
7.6930273e-05
0.00010252079
0.00014020431
0.00020046373
0.00031105846
0.00056860774
0.0014496009
2.3509458e-05
2.5353609e-05
2.9472996e-05
3.6047029e-05
4.5549497e-05
5.8754773e-05
7.6969271e-05
0.00010256663
0.00014025262
0.00020050883
0.00031109308
0.00056862094
0.0014495703
2.3501122e-05
2.5348206e-05
2.9473791e-05
3.6056629e-05
4.5569502e-05
5.8785352e-05
7.7008985e-05
0.00010261252
0.00014030039
0.0002005531
0.00031112711
0.00056863503
0.0014495475
2.3495252e-05
2.5345216e-05
2.947686e-05
3.6068241e-05
4.5591113e-05
5.8816993e-05
7.7049124e-05
0.00010265818
0.00014034742
0.00020059635
0.00031116041
0.00056864984
0.0014495318
2.3491654e-05
2.5344433e-05
2.9481976e-05
3.6081616e-05
4.5614061e-05
5.8849418e-05
7.708942e-05
0.00010270338
0.0001403935
0.00020063845
0.00031119287
0.00056866522
0.0014495225
2.3490141e-05
2.5345661e-05
2.9488923e-05
3.6096516e-05
4.5638093e-05
5.8882372e-05
7.7129632e-05
0.00010274792
0.00014043846
0.00020067927
0.00031122438
0.00056868105
0.0014495191
2.3490532e-05
2.534871e-05
2.9497495e-05
3.6112718e-05
4.5662974e-05
5.8915621e-05
7.7169541e-05
0.0001027916
0.00014048216
0.00020071871
0.00031125489
0.00056869722
0.001449521
2.349265e-05
2.5353396e-05
2.9507496e-05
3.6130012e-05
4.5688486e-05
5.894895e-05
7.7208952e-05
0.00010283426
0.00014052448
0.00020075668
0.00031128433
0.00056871364
0.0014495277
2.3496327e-05
2.5359543e-05
2.9518738e-05
3.61482e-05
4.5714428e-05
5.8982164e-05
7.724769e-05
0.00010287575
0.00014056531
0.00020079312
0.00031131265
0.00056873023
0.0014495387
2.3501401e-05
2.5366985e-05
2.9531046e-05
3.6167099e-05
4.5740614e-05
5.9015088e-05
7.72856e-05
0.00010291596
0.00014060456
0.00020082798
0.00031133981
0.0005687469
0.0014495535
2.3507715e-05
2.5375561e-05
2.9544253e-05
3.6186537e-05
4.5766874e-05
5.9047562e-05
7.7322545e-05
0.00010295478
0.00014064217
0.00020086121
0.00031136578
0.0005687636
0.0014495719
2.3515122e-05
2.538512e-05
2.9558203e-05
3.6206354e-05
4.5793052e-05
5.9079446e-05
7.7358407e-05
0.00010299212
0.00014067808
0.00020089278
0.00031139053
0.00056878023
0.0014495934
2.352348e-05
2.539552e-05
2.9572749e-05
3.6226404e-05
4.581901e-05
5.9110612e-05
7.7393084e-05
0.0001030279
0.00014071224
0.00020092267
0.00031141404
0.00056879672
0.0014496177
2.3532655e-05
2.5406623e-05
2.9587753e-05
3.6246552e-05
4.5844618e-05
5.914095e-05
7.7426488e-05
0.00010306207
0.00014074463
0.00020095087
0.00031143629
0.00056881294
0.0014496445
2.3542521e-05
2.5418303e-05
2.960309e-05
3.6266674e-05
4.5869763e-05
5.9170364e-05
7.7458547e-05
0.00010309458
0.00014077521
0.00020097736
0.00031145726
0.00056882873
0.0014496733
2.3552959e-05
2.5430442e-05
2.961864e-05
3.6286658e-05
4.5894345e-05
5.919877e-05
7.7489203e-05
0.00010312541
0.000140804
0.00020100217
0.00031147693
0.00056884376
0.0014497037
2.3563857e-05
2.5442927e-05
2.9634297e-05
3.6306402e-05
4.5918274e-05
5.9226101e-05
7.751841e-05
0.00010315453
0.00014083098
0.00020102528
0.00031149522
0.000568858
0.0014497355
2.357511e-05
2.5455655e-05
2.9649959e-05
3.6325815e-05
4.5941475e-05
5.9252298e-05
7.7546135e-05
0.00010318193
0.00014085618
0.00020104673
0.00031151201
0.00056887156
0.0014497682
2.3586621e-05
2.5468532e-05
2.9665538e-05
3.6344816e-05
4.596388e-05
5.9277316e-05
7.7572358e-05
0.00010320762
0.0001408796
0.00020106649
0.00031152736
0.00056888449
0.0014498016
2.3598302e-05
2.548147e-05
2.9680951e-05
3.6363335e-05
4.5985436e-05
5.9301123e-05
7.7597071e-05
0.00010323161
0.00014090129
0.0002010845
0.00031154138
0.00056889679
0.0014498354
2.3610069e-05
2.5494389e-05
2.9696126e-05
3.638131e-05
4.6006098e-05
5.9323697e-05
7.7620276e-05
0.00010325393
0.00014092122
0.00020110087
0.00031155413
0.00056890849
0.0014498694
2.3621848e-05
2.5507218e-05
2.9710998e-05
3.6398689e-05
4.6025832e-05
5.9345023e-05
7.7641979e-05
0.00010327459
0.0001409394
0.00020111568
0.00031156569
0.00056891959
0.0014499033
2.3633571e-05
2.5519891e-05
2.9725511e-05
3.6415429e-05
4.6044614e-05
5.9365102e-05
7.7662208e-05
0.00010329359
0.00014095593
0.000201129
0.00031157612
0.00056893009
0.0014499369
2.3645176e-05
2.5532352e-05
2.9739614e-05
3.6431495e-05
4.6062427e-05
5.9383938e-05
7.7680947e-05
0.00010331096
0.00014097086
0.00020114092
0.00031158549
0.00056894002
0.0014499701
2.3656608e-05
2.5544549e-05
2.9753268e-05
3.644686e-05
4.6079264e-05
5.9401525e-05
7.7698217e-05
0.00010332677
0.00014098427
0.0002011515
0.00031159385
0.00056894939
0.0014500026
2.366782e-05
2.5556438e-05
2.9766438e-05
3.6461505e-05
4.6095113e-05
5.9417864e-05
7.7714057e-05
0.00010334108
0.00014099624
0.00020116083
0.00031160128
0.0005689582
0.0014500344
2.367877e-05
2.5567983e-05
2.9779098e-05
3.6475411e-05
4.6109965e-05
5.9432976e-05
7.7728512e-05
0.00010335396
0.00014100683
0.00020116898
0.00031160781
0.00056896648
0.0014500654
2.3689422e-05
2.5579153e-05
2.9791219e-05
3.6488559e-05
4.6123823e-05
5.9446888e-05
7.7741632e-05
0.00010336545
0.00014101613
0.00020117601
0.00031161351
0.00056897423
0.0014500954
2.3699743e-05
2.5589916e-05
2.9802779e-05
3.6500943e-05
4.6136701e-05
5.9459633e-05
7.7753466e-05
0.00010337564
0.0001410242
0.000201182
0.00031161842
0.00056898147
0.0014501244
2.3709704e-05
2.5600246e-05
2.9813763e-05
3.651256e-05
4.6148615e-05
5.9471247e-05
7.7764071e-05
0.00010338459
0.00014103112
0.00020118702
0.0003116226
0.00056898821
0.0014501524
2.3719279e-05
2.5610124e-05
2.982416e-05
3.6523416e-05
4.6159585e-05
5.9481771e-05
7.77735e-05
0.00010339237
0.00014103695
0.00020119112
0.00031162609
0.00056899446
0.0014501792
2.372845e-05
2.5619535e-05
2.9833963e-05
3.6533517e-05
4.6169638e-05
5.9491245e-05
7.7781812e-05
0.00010339904
0.00014104177
0.00020119438
0.00031162894
0.00056900024
0.0014502049
2.37372e-05
2.5628466e-05
2.9843171e-05
3.6542876e-05
4.6178801e-05
5.9499716e-05
7.7789065e-05
0.00010340467
0.00014104565
0.00020119685
0.00031163119
0.00056900555
0.0014502294
2.3745518e-05
2.5636911e-05
2.9851787e-05
3.6551508e-05
4.6187106e-05
5.9507228e-05
7.7795318e-05
0.00010340933
0.00014104866
0.0002011986
0.0003116329
0.00056901043
0.0014502527
2.3753396e-05
2.5644867e-05
2.9859816e-05
3.6559433e-05
4.6194585e-05
5.951383e-05
7.7800629e-05
0.00010341308
0.00014105085
0.00020119969
0.0003116341
0.00056901488
0.0014502749
2.3760829e-05
2.5652332e-05
2.9867267e-05
3.656667e-05
4.6201273e-05
5.951957e-05
7.7805058e-05
0.00010341599
0.0001410523
0.00020120017
0.00031163483
0.00056901893
0.0014502958
2.3767816e-05
2.5659311e-05
2.9874151e-05
3.6573242e-05
4.6207207e-05
5.9524496e-05
7.7808663e-05
0.00010341812
0.00014105307
0.00020120009
0.00031163514
0.00056902258
0.0014503156
2.3774357e-05
2.5665807e-05
2.9880481e-05
3.6579175e-05
4.6212423e-05
5.9528657e-05
7.7811502e-05
0.00010341953
0.00014105322
0.00020119952
0.00031163505
0.00056902585
0.0014503342
2.3780457e-05