/*--------------------------------*- C++ -*----------------------------------*\
| =========                 |                                                 |
| \\      /  F ield         | OpenFOAM: The Open Source CFD Toolbox           |
|  \\    /   O peration     | Version:  2506                                  |
|   \\  /    A nd           | Website:  www.openfoam.com                      |
|    \\/     M anipulation  |                                                 |
\*---------------------------------------------------------------------------*/
FoamFile
{
    version     2.0;
    format      ascii;
    arch        "LSB;label=32;scalar=64";
    class       volScalarField;
    location    "14000/water";
    object      k;
}
// * * * * * * * * * * * * * * * * * * * * * * * * * * * * * * * * * * * * * //

dimensions      [0 2 -2 0 0 0 0];

internalField   nonuniform List<scalar> 
2600
(
0.0001992401
0.00019923925
0.00019923929
0.00019923963
0.00019923982
0.00019923914
0.00019923438
0.00019921375
0.00019914651
0.00019904325
0.00019990841
0.00021454267
0.00040955349
0.00017237279
0.00017237614
0.00017237826
0.00017238051
0.0001723821
0.00017237949
0.00017235884
0.00017227555
0.000172027
0.00017162102
0.00017329371
0.00020304806
0.00052391648
0.00015132731
0.00015133049
0.00015133306
0.00015133552
0.00015133516
0.00015132207
0.00015126283
0.00015106462
0.00015055477
0.00014985944
0.0001528957
0.00019760629
0.00057958156
0.00013448336
0.00013448533
0.00013448764
0.00013448905
0.00013448325
0.00013445009
0.00013432997
0.00013398205
0.00013321503
0.00013247936
0.00013787909
0.00019702317
0.00059640815
0.00012075551
0.00012075697
0.00012075853
0.00012075718
0.00012074152
0.0001206782
0.00012048052
0.00011997843
0.0001190486
0.00011870929
0.00012776334
0.00020116854
0.00059206885
0.0001093899
0.00010939088
0.000109391
0.00010938492
0.00010935483
0.00010925313
0.00010897207
0.00010834649
0.00010742643
0.0001080609
0.00012226457
0.00021023394
0.00057809221
9.984982e-05
9.9850093e-05
9.9847944e-05
9.9835056e-05
9.9786463e-05
9.9641865e-05
9.9284958e-05
9.859999e-05
9.7925044e-05
0.00010022517
0.00012123091
0.00022425603
0.00056106272
9.1744874e-05
9.174416e-05
9.1738826e-05
9.1717148e-05
9.1647174e-05
9.1460104e-05
9.1049018e-05
9.0398665e-05
9.0258419e-05
9.5030413e-05
0.00012461431
0.00024286356
0.00054449405
8.4785472e-05
8.4783454e-05
8.4774018e-05
8.4741918e-05
8.4649457e-05
8.4426122e-05
8.3996574e-05
8.3502376e-05
8.4241543e-05
9.2421343e-05
0.00013239492
0.00026511347
0.00053012765
7.8752977e-05
7.8749319e-05
7.8734951e-05
7.8691403e-05
7.8577619e-05
7.8330528e-05
7.7932172e-05
7.7743318e-05
7.9771153e-05
9.2438123e-05
0.00014444361
0.00028951151
0.0005186607
7.3479682e-05
7.3474066e-05
7.3454131e-05
7.3398964e-05
7.3267704e-05
7.3016085e-05
7.2712929e-05
7.3009357e-05
7.6815021e-05
9.5182833e-05
0.00016036324
0.00031428525
0.00051014247
6.8835097e-05
6.8827266e-05
6.8801436e-05
6.8735571e-05
6.8593744e-05
6.836405e-05
6.8235745e-05
6.9234209e-05
7.5403716e-05
0.00010076472
0.00017939076
0.00033780739
0.0005042266
6.4716374e-05
6.4706175e-05
6.4674551e-05
6.4600233e-05
6.4458202e-05
6.4284863e-05
6.4429045e-05
6.6391811e-05
7.5619872e-05
0.0001092241
0.00020043528
0.00035894529
0.00050037283
6.1041501e-05
6.1028932e-05
6.0992164e-05
6.091321e-05
6.0785257e-05
6.0711783e-05
6.1247563e-05
6.4493003e-05
7.7580807e-05
0.00012045028
0.00022225715
0.00037717552
0.0004980107
5.7744396e-05
5.7729653e-05
5.7689074e-05
5.7611142e-05
5.751606e-05
5.7596592e-05
5.8669223e-05
6.3582872e-05
8.1411586e-05
0.00013412437
0.00024370832
0.00039247762
0.00049664628
5.4771313e-05
5.4754847e-05
5.4712615e-05
5.4643526e-05
5.4605384e-05
5.4906753e-05
5.6693486e-05
6.3736861e-05
8.7208043e-05
0.00014971788
0.00026392364
0.00040513366
0.00049590625
5.2078186e-05
5.206076e-05
5.2020025e-05
5.1970154e-05
5.2019282e-05
5.2623661e-05
5.5340604e-05
6.5053658e-05
9.4994185e-05
0.00016655656
0.0002823955
0.00041554871
0.00049553614
4.9628636e-05
4.9611393e-05
4.9576492e-05
4.9559258e-05
4.9733503e-05
5.0741692e-05
5.4651195e-05
6.7643172e-05
0.00010468473
0.00018392817
0.00029893687
0.00042413794
0.00049537652
4.7392458e-05
4.7377004e-05
4.7353699e-05
4.7386176e-05
4.773248e-05
4.9267885e-05
5.4685329e-05
7.1608742e-05
0.00011606686
0.00020119288
0.00031358495
0.0004312733
0.0004953351
4.5344476e-05
4.5332971e-05
4.5328746e-05
4.5432431e-05
4.600877e-05
4.8222045e-05
5.5520138e-05
7.7024461e-05
0.00012881109
0.00021785898
0.00032650009
0.00043726613
0.00049536293
4.3463657e-05
4.3458933e-05
4.3483358e-05
4.3685127e-05
4.4562868e-05
4.7637065e-05
5.7244887e-05
8.3911105e-05
0.00014251076
0.00023360812
0.00033789056
0.00044236711
0.00049543702
4.1732429e-05
4.173814e-05
4.1803329e-05
4.2136614e-05
4.3403329e-05
4.7559127e-05
5.9952699e-05
9.2216773e-05
0.00015673762
0.00024827797
0.00034796834
0.00044677301
0.00049554866
4.0136167e-05
4.015697e-05
4.0278149e-05
4.0784372e-05
4.2547129e-05
4.8047288e-05
6.3728703e-05
0.00010180889
0.00017109625
0.00026182259
0.0003569282
0.00045063571
0.00049569618
3.8662802e-05
3.8704582e-05
3.8900797e-05
3.9631107e-05
4.2020194e-05
4.9171842e-05
6.8635434e-05
0.00011248166
0.00018526231
0.00027427019
0.00036494029
0.00045407115
0.0004958807
3.7302531e-05
3.7372692e-05
3.7667676e-05
3.8685008e-05
4.1857945e-05
5.1010819e-05
7.4697751e-05
0.00012397798
0.00019899862
0.00028568913
0.00037214924
0.00045716737
0.00049610392
3.6047628e-05
3.6155447e-05
3.6578682e-05
3.7960182e-05
4.2105653e-05
5.364414e-05
8.189077e-05
0.00013601989
0.00021215193
0.00029616534
0.00037867608
0.00045999117
0.00049636709
3.4892327e-05
3.5049398e-05
3.5637398e-05
3.7477201e-05
4.2818254e-05
5.7145345e-05
9.0134488e-05
0.00014833914
0.00022463801
0.00030578892
0.00038462122
0.00046259339
0.00049667064
3.383279e-05
3.4053568e-05
3.4851411e-05
3.7263736e-05
4.4059202e-05
6.1571459e-05
9.9297374e-05
0.00016070074
0.00023642314
0.00031464711
0.00039006761
0.00046501296
0.00049701415
3.2867148e-05
3.316962e-05
3.4232754e-05
3.735516e-05
4.5897907e-05
6.6952445e-05
0.0001092086
0.00017291577
0.00024750735
0.00032282075
0.00039508376
0.00046727993
0.00049739653
3.1995627e-05
3.2402111e-05
3.3798454e-05
3.779496e-05
4.8405422e-05
7.3282428e-05
0.00011967596
0.00018484394
0.00025791151
0.00033038286
0.00039972632
0.00046941772
0.00049781615
3.1220754e-05
3.1758868e-05
3.3571165e-05
3.8634687e-05
5.1648296e-05
8.0515029e-05
0.000130505
0.00019638896
0.00026766839
0.00033739836
0.00040404225
0.00047144509
0.00049827105
3.0547674e-05
3.1251458e-05
3.3579859e-05
3.9933127e-05
5.5680954e-05
8.8564414e-05
0.00014151527
0.00020749041
0.00027681667
0.00034392429
0.0004080699
0.00047336169
0.00049875827
2.9984563e-05
3.0895778e-05
3.3860462e-05
4.1754324e-05
6.0537588e-05
9.7312162e-05
0.00015255091
0.00021811504
0.00028539702
0.00035001001
0.00041183987
0.00047517688
0.00049927449
2.9543172e-05
3.0712741e-05
3.4456305e-05
4.4164155e-05
6.6225015e-05
0.00010661845
0.00016348532
0.00022824918
0.00029345005
0.00035569883
0.00041537502
0.00047690103
0.00049981639
2.9239499e-05
3.0729041e-05
3.5418151e-05
4.7225371e-05
7.2718228e-05
0.00011633499
0.00017422104
0.00023789275
0.00030101461
0.00036102775
0.00041869402
0.00047854315
0.00050038115
2.9094596e-05
3.0977953e-05
3.6803505e-05
5.099134e-05
7.9959891e-05
0.00012631697
0.00018468652
0.00024705469
0.00030812683
0.00036602757
0.00042181618
0.00048011509
0.00050096676
2.9135497e-05
3.1500047e-05
3.8674862e-05
5.5499191e-05
8.7864164e-05
0.00013643208
0.00019483194
0.00025575012
0.0003148208
0.00037072324
0.00042475504
0.0004816285
0.00050157199
2.9396231e-05
3.2343669e-05
4.109663e-05
6.0763499e-05
9.6324061e-05
0.00014656572
0.00020462428
0.00026399666
0.0003211252
0.00037513781
0.00042753001
0.0004830891
0.00050219527
2.991884e-05
3.3564907e-05
4.413058e-05
6.6771874e-05
0.00010522077
0.00015662299
0.00021404414
0.000271815
0.00032706601
0.00037928741
0.00043015891
0.00048450259
0.00050283509
3.075424e-05
3.5226721e-05
4.7830026e-05
7.3483541e-05
0.00011443285
0.00016652781
0.00022308099
0.0002792236
0.00033266464
0.00038319519
0.00043265447
0.00048587304
0.00050348987
3.1962693e-05
3.7396839e-05
5.2233343e-05
8.0831449e-05
0.00012384407
0.00017622136
0.00023173237
0.0002862417
0.00033793723
0.00038688254
0.00043502775
0.00048720353
0.00050415804
3.3613504e-05
4.0144091e-05
5.7357851e-05
8.87274e-05
0.00013334838
0.00018565853
0.00023999858
0.00029288461
0.00034290604
0.00039036654
0.00043728797
0.00048849639
0.00050483799
3.5783412e-05
4.3533081e-05
6.3195324e-05
9.7069255e-05
0.0001428531
0.00019480687
0.00024788474
0.00029916237
0.00034759337
0.00039366195
0.00043944278
0.00048975333
0.00050552814
3.855308e-05
4.761745e-05
6.9710143e-05
0.0001057483
0.0001522787
0.00020364083
0.00025539335
0.00030509335
0.00035201766
0.00039678125
0.0004414985
0.00049097553
0.00050622694
4.2001173e-05
5.2432587e-05
7.6840753e-05
0.00011465645
0.00016156006
0.00021214499
0.00026252198
0.00031069687
0.00035619504
0.00039973509
0.00044346035
0.00049216372
0.00050693284
4.6195941e-05
5.7988989e-05
8.4503844e-05
0.00012369063
0.00017064181
0.00022029903
0.00026928196
0.0003159893
0.00036013926
0.00040253238
0.00044533253
0.00049331828
0.00050764432
5.1185035e-05
6.4267729e-05
9.2600651e-05
0.0001327565
0.00017947939
0.00022808587
0.00027568468
0.000320985
0.00036386198
0.00040518052
0.00044711831
0.00049443917
0.00050835987
5.6985364e-05
7.1219292e-05
0.00010102456
0.00014177163
0.00018802204
0.00023550299
0.00028174025
0.00032569623
0.00036737295
0.00040768547
0.00044882017
0.00049552607
0.00050907797
6.3575462e-05
7.876606e-05
0.00010966804
0.00015065097
0.00019623695
0.00024254857
0.00028745738
0.00033013321
0.00037068013
0.00041005195
0.00045043977
0.00049657827
0.00050979709
7.0893447e-05
8.6808985e-05
0.00011841795
0.00015932157
0.00020409983
0.00024922131
0.00029284327
0.00033430418
0.00037378975
0.00041228338
0.00045197802
0.00049759475
0.00051051568
7.8838209e-05
9.5225323e-05
0.00012716542
0.00016772583
0.00021159046
0.00025551992
0.00029790351
0.00033821548
0.00037670641
0.00041438207
0.00045343512
0.00049857412
0.00051123211
8.7271687e-05
0.00010388133
0.00013581412
0.00017581502
0.00021869187
0.00026144293
0.0003026421
0.00034187164
0.00037943321
0.00041634917
0.00045481053
0.00049951468
0.00051194472
9.6036137e-05
0.00011264285
0.00014427882
0.00018354848
0.00022538997
0.00026698861
0.0003070616
0.00034527556
0.00038197182
0.0004181848
0.00045610306
0.00050041434
0.00051265169
0.00010496807
0.00012138216
0.00015248587
0.000190893
0.00023167335
0.00027215518
0.00031116335
0.00034842869
0.00038432265
0.00041988813
0.00045731088
0.00050127069
0.00051335114
0.00011391058
0.00012998322
0.00016037326
0.00019782237
0.00023753336
0.00027694112
0.00031494785
0.00035133134
0.00038648504
0.0004214575
0.00045843161
0.00050208102
0.00051404102
0.00012272249
0.00013834519
0.00016789037
0.00020431698
0.00024296427
0.00028134556
0.0003184152
0.00035398301
0.00038845752
0.00042289058
0.00045946238
0.00050284232
0.00051471914
0.00013128391
0.00014638431
0.00017499757
0.00021036349
0.00024796344
0.00028536879
0.00032156554
0.00035638283
0.00039023812
0.00042418459
0.00046040001
0.00050355144
0.00051538317
0.00013949846
0.00015403433
0.00018166562
0.00021595445
0.00025253145
0.00028901264
0.00032439962
0.00035852997
0.00039182473
0.00042533658
0.00046124118
0.0005042051
0.00051603067
0.00014729309
0.00016124587
0.00018787486
0.00022108785
0.00025667213
0.00029228086
0.0003269192
0.00036042415
0.00039321547
0.00042634368
0.00046198262
0.00050480009
0.00051665909
0.00015461615
0.00016798502
0.00019361431
0.00022576659
0.0002603925
0.00029517937
0.00032912751
0.00036206599
0.00039440905
0.00042720344
0.00046262135
0.00050533337
0.00051726584
0.00016143471
0.00017423148
0.00019888063
0.00022999797
0.00026370258
0.00029771633
0.00033102948
0.00036345742
0.00039540517
0.00042791416
0.00046315493
0.00050580228
0.00051784834
0.00016773144
0.00017997644
0.00020367705
0.00023379303
0.00026661509
0.00029990217
0.00033263197
0.00036460196
0.0003962048
0.00042847512
0.00046358171
0.00050620468
0.00051840409
0.00017350169
0.00018522059
0.00020801229
0.00023716601
0.0002691451
0.00030174948
0.00033394379
0.00036550486
0.0003968104
0.00042888684
0.00046390098
0.00050653908
0.00051893074
0.00017875064
0.00018997219
0.00021189952
0.00024013367
0.00027130965
0.00030327272
0.0003349757
0.00036617321
0.00039722607
0.00042915126
0.00046411316
0.00050680481
0.00051942618
0.00018349101
0.00019424529
0.00021535545
0.00024271483
0.00027312737
0.00030448804
0.00033574021
0.0003666159
0.00039745763
0.0004292718
0.00046421993
0.00050700203
0.00051988858
0.00018774102
0.00019805833
0.00021839939
0.00024492977
0.00027461806
0.00030541292
0.00033625145
0.00036684352
0.00039751254
0.00042925342
0.0004642242
0.00050713185
0.00052031647
0.00019152279
0.00020143283
0.00022105261
0.00024679984
0.00027580234
0.00030606587
0.00033652485
0.00036686818
0.00039739986
0.00042910253
0.00046413012
0.00050719626
0.00052070877
0.00019486099
0.00020439243
0.0002233376
0.00024834699
0.00027670132
0.00030646613
0.00033657688
0.00036670329
0.00039713002
0.00042882689
0.00046394303
0.00050719812
0.00052106483
0.00019778188
0.00020696201
0.00022527764
0.00024959348
0.00027733629
0.00030663332
0.00033642478
0.00036636327
0.00039671461
0.00042843543
0.00046366926
0.00050714105
0.00052138439
0.00020031249
0.0002091671
0.00022689628
0.00025056156
0.00027772852
0.00030658726
0.00033608626
0.00036586332
0.00039616617
0.00042793801
0.00046331604
0.00050702933
0.00052166763
0.00020248003
0.00021103335
0.00022821703
0.00025127325
0.00027789894
0.00030634764
0.00033557922
0.0003652191
0.00039549791
0.00042734527
0.00046289124
0.0005068678
0.00052191515
0.00020431143
0.00021258614
0.00022926308
0.0002517501
0.00027786808
0.00030593385
0.0003349215
0.0003644465
0.00039472341
0.00042666827
0.00046240321
0.00050666163
0.00052212786
0.00020583305
0.0002138503
0.00023005707
0.00025201307
0.00027765582
0.0003053648
0.00033413072
0.00036356137
0.00039385641
0.00042591836
0.00046186056
0.00050641627
0.00052230702
0.00020707037
0.0002148499
0.00023062095
0.00025208242
0.00027728133
0.00030465876
0.000333224
0.0003625793
0.00039291058
0.0004251069
0.00046127196
0.00050613723
0.00052245415
0.0002080479
0.0002156081
0.00023097581
0.00025197754
0.00027676297
0.00030383326
0.00033221786
0.00036151544
0.00039189927
0.00042424505
0.00046064598
0.00050583003
0.00052257099
0.00020878904
0.00021614702
0.00023114181
0.00025171698
0.00027611817
0.00030290497
0.0003311281
0.00036038435
0.0003908354
0.00042334365
0.00045999095
0.00050550001
0.00052265942
0.00020931599
0.0002164877
0.00023113815
0.00025131829
0.00027536348
0.00030188966
0.00032996967
0.00035919985
0.00038973126
0.00042241301
0.00045931479
0.0005051523
0.00052272148
0.00020964975
0.00021665004
0.000230983
0.00025079811
0.00027451443
0.00030080214
0.0003287566
0.00035797496
0.00038859841
0.00042146286
0.00045862494
0.00050479174
0.00052275925
0.00020981008
0.00021665281
0.00023069348
0.00025017204
0.0002735856
0.00029965624
0.000327502
0.00035672178
0.00038744764
0.00042050222
0.00045792832
0.00050442278
0.00052277485
0.00020981552
0.00021651361
0.00023028567
0.00024945471
0.00027259057
0.00029846478
0.00032621798
0.00035545152
0.00038628887
0.00041953936
0.00045723121
0.00050404951
0.00052277039
0.00020968343
0.00021624892
0.0002297746
0.00024865979
0.00027154193
0.00029723961
0.00032491565
0.00035417438
0.00038513112
0.00041858177
0.00045653928
0.00050367563
0.00052274796
0.00020942995
0.00021587412
0.00022917431
0.00024779993
0.00027045133
0.00029599159
0.00032360515
0.00035289966
0.00038398252
0.00041763615
0.00045585754
0.00050330438
0.00052270959
0.00020907013
0.00021540351
0.0002284978
0.00024688689
0.00026932946
0.00029473062
0.00032229567
0.00035163565
0.00038285031
0.0004167084
0.00045519039
0.00050293863
0.00052265723
0.00020861791
0.00021485031
0.00022775714
0.00024593146
0.0002681861
0.00029346566
0.00032099542
0.00035038976
0.00038174086
0.00041580363
0.00045454157
0.00050258082
0.00052259272
0.00020808615
0.00021422679
0.00022696345
0.00024494357
0.00026703016
0.0002922048
0.00031971172
0.00034916848
0.00038065965
0.00041492621
0.00045391425
0.000502233
0.00052251784
0.00020748675
0.00021354422
0.00022612695
0.00024393231
0.0002658697
0.00029095525
0.00031845103
0.00034797744
0.00037961139
0.00041407977
0.00045331088
0.00050189542
0.00052243413
0.00020683063
0.00021281296
0.00022525699
0.00024290591
0.00026471197
0.00028972341
0.00031721895
0.00034682144
0.00037859997
0.00041326719
0.00045273322
0.00050156779
0.00052234293
0.00020612779
0.00021204251
0.00022436214
0.00024187185
0.00026356344
0.00028851491
0.00031602035
0.00034570453
0.00037762861
0.00041249072
0.00045218163
0.000501251
0.00052224544
0.00020538739
0.00021124153
0.00022345014
0.00024083688
0.0002624299
0.00028733465
0.00031485931
0.00034463003
0.00037669974
0.00041175183
0.00045165676
0.00050094655
0.00052214287
0.00020461777
0.00021041791
0.00022252804
0.00023980702
0.00026131641
0.00028618685
0.00031373929
0.00034360064
0.00037581529
0.00041105096
0.00045115881
0.00050065636
0.0005220365
0.00020382653
0.00020957879
0.00022160217
0.00023878768
0.00026022743
0.00028507512
0.00031266311
0.00034261838
0.00037497621
0.00041038836
0.000450689
0.00050038145
0.00052192751
0.00020302052
0.00020873064
0.00022067823
0.00023778361
0.00025916682
0.00028400245
0.00031163298
0.00034168465
0.00037418296
0.0004097643
0.00045024818
0.00050012253
0.00052181697
0.00020220594
0.00020787925
0.0002197613
0.00023679902
0.00025813788
0.00028297133
0.00031065059
0.00034080018
0.00037343529
0.00040917943
0.00044983675
0.00049988002
0.00052170581
0.00020138836
0.00020702985
0.00021885589
0.00023583758
0.00025714341
0.00028198372
0.000309717
0.00033996494
0.00037273356
0.00040863393
0.00044945475
0.0004996541
0.00052159489
0.00020057276
0.00020618707
0.00021796598
0.00023490245
0.00025618571
0.00028104104
0.00030883263
0.00033917891
0.00037207785
0.00040812762
0.00044910192
0.00049944472
0.00052148495
0.0001997636
0.00020535503
0.00021709507
0.00023399633
0.00025526664
0.00028014422
0.00030799736
0.00033844218
0.00037146789
0.00040766
0.00044877778
0.00049925166
0.00052137662
0.00019896481
0.00020453736
0.00021624619
0.00023312152
0.00025438758
0.00027929338
0.00030721138
0.0003377545
0.00037090309
0.00040723032
0.00044848163
0.00049907458
0.00052127044
0.00019817985
0.00020373725
0.00021542198
0.00023227976
0.00025354913
0.00027848893
0.00030647459
0.0003371153
0.00037038258
0.00040683762
0.00044821263
0.00049891301
0.00052116687
0.00019741178
0.00020295745
0.00021462447
0.00023147225
0.00025275202
0.00027773097
0.00030578654
0.00033652376
0.00036990529
0.00040648075
0.0004479698
0.00049876642
0.00052106632
0.00019666314
0.00020220017
0.00021385533
0.00023070005
0.00025199668
0.00027701936
0.00030514659
0.00033597881
0.00036946993
0.0004061584
0.00044775206
0.00049863419
0.00052096908
0.00019593605
0.00020146728
0.00021311594
0.00022996397
0.0002512833
0.00027635369
0.00030455383
0.0003354792
0.00036907506
0.00040586918
0.00044755826
0.00049851568
0.00052087543
0.00019523232
0.00020076035
0.00021240743
0.00022926458
0.00025061184
0.00027573336
0.00030400718
0.00033502354
0.00036871915
0.0004056116
0.00044738719
0.00049841021
0.00052078556
0.00019455346
0.00020008066
0.00021173065
0.00022860218
0.00024998203
0.00027515757
0.00030350541
0.00033461028
0.00036840055
0.00040538411
0.00044723763
0.00049831709
0.00052069965
0.00019390071
0.00019942926
0.00021108625
0.00022797689
0.00024939344
0.00027462534
0.00030304713
0.00033423778
0.00036811753
0.00040518513
0.00044710836
0.00049823564
0.00052061781
0.00019327509
0.00019880696
0.00021047465
0.00022738863
0.00024884542
0.00027413556
0.00030263085
0.00033390433
0.00036786836
0.00040501308
0.00044699814
0.00049816516
0.00052054012
0.00019267736
0.00019821434
0.00020989604
0.00022683712
0.00024833722
0.000273687
0.00030225498
0.00033360815
0.00036765123
0.00040486636
0.00044690577
0.00049810499
0.00052046664
0.00019210811
0.0001976518
0.00020935048
0.00022632194
0.00024786792
0.00027327832
0.00030191786
0.00033334741
0.00036746436
0.00040474339
0.00044683002
0.00049805447
0.0005203974
0.00019156771
0.00019711954
0.00020883782
0.00022584253
0.0002474365
0.00027290808
0.00030161775
0.00033312025
0.00036730592
0.00040464258
0.00044676974
0.00049801294
0.00052033238
0.00019105635
0.00019661761
0.00020835778
0.00022539817
0.0002470418
0.00027257476
0.0003013529
0.00033292479
0.00036717413
0.00040456237
0.00044672375
0.00049797975
0.00052027155
0.00019057409
0.00019614586
0.00020790993
0.00022498803
0.0002466826
0.00027227677
0.00030112147
0.00033275915
0.00036706717
0.00040450124
0.00044669092
0.00049795427
0.00052021486
0.00019012079
0.00019570405
0.0002074937
0.0002246112
0.00024635758
0.0002720125
0.00030092164
0.00033262144
0.00036698328
0.00040445767
0.00044667014
0.00049793589
0.00052016224
0.00018969621
0.00019529178
0.00020710842
0.00022426663
0.00024606537
0.00027178025
0.00030075154
0.00033250977
0.00036692072
0.00040443021
0.00044666033
0.00049792398
0.00052011357
0.00018929997
0.00019490853
0.00020675332
0.00022395322
0.00024580452
0.00027157833
0.00030060934
0.0003324223
0.00036687777
0.00040441742
0.00044666046
0.00049791796
0.00052006874
0.00018893157
0.00019455368
0.00020642753
0.00022366981
0.00024557355
0.00027140503
0.0003004932
0.0003323572
0.00036685278
0.00040441792
0.00044666951
0.00049791725
0.00052002764
0.00018859042
0.00019422653
0.00020613011
0.00022341516
0.00024537098
0.00027125862
0.0003004013
0.00033231271
0.00036684415
0.00040443042
0.00044668655
0.00049792133
0.00051999012
0.00018827585
0.00019392628
0.00020586005
0.00022318801
0.00024519527
0.00027113742
0.00030033187
0.00033228711
0.00036685034
0.00040445366
0.00044671069
0.00049792967
0.00051995606
0.00018798712
0.0001936521
0.00020561632
0.00022298707
0.00024504491
0.00027103974
0.00030028319
0.00033227874
0.0003668699
0.00040448646
0.00044674109
0.00049794183
0.0005199253
0.00018772341
0.00019340307
0.00020539782
0.00022281103
0.00024491838
0.00027096395
0.00030025358
0.00033228604
0.00036690145
0.00040452773
0.00044677698
0.00049795736
0.00051989771
0.00018748386
0.00019317825
0.00020520343
0.00022265857
0.0002448142
0.00027090843
0.00030024144
0.00033230748
0.00036694368
0.00040457644
0.00044681765
0.00049797588
0.00051987315
0.00018726759
0.00019297665
0.00020503202
0.00022252838
0.00024473089
0.00027087163
0.00030024522
0.00033234164
0.00036699535
0.00040463163
0.00044686244
0.00049799702
0.00051985148
0.00018707364
0.00019279727
0.00020488244
0.00022241914
0.00024466701
0.00027085205
0.00030026343
0.00033238715
0.00036705533
0.0004046924
0.00044691073
0.00049802044
0.00051983257
0.00018690106
0.00019263907
0.00020475353
0.00022232955
0.00024462113
0.0002708482
0.00030029466
0.00033244273
0.0003671225
0.00040475791
0.00044696196
0.00049804583
0.00051981627
0.00018674885
0.000192501
0.00020464411
0.00022225832
0.00024459188
0.00027085869
0.00030033752
0.00033250713
0.00036719585
0.00040482738
0.00044701559
0.00049807289
0.00051980244
0.00018661601
0.000192382
0.00020455304
0.00022220418
0.0002445779
0.00027088213
0.00030039072
0.00033257918
0.00036727439
0.00040490005
0.00044707111
0.00049810133
0.00051979093
0.00018650151
0.00019228098
0.00020447913
0.00022216587
0.00024457787
0.00027091721
0.000300453
0.00033265778
0.0003673572
0.00040497523
0.00044712804
0.00049813087
0.0005197816
0.00018640431
0.00019219688
0.00020442124
0.00022214215
0.0002445905
0.00027096264
0.00030052316
0.00033274186
0.00036744342
0.00040505224
0.00044718591
0.00049816122
0.00051977428
0.00018632337
0.00019212861
0.00020437822
0.0002221318
0.00024461455
0.00027101721
0.00030060006
0.00033283041
0.0003675322
0.00040513046
0.00044724428
0.00049819213
0.00051976883
0.00018625764
0.00019207509
0.00020434893
0.00022213364
0.0002446488
0.00027107973
0.00030068261
0.00033292249
0.00036762278
0.0004052093
0.00044730276
0.00049822333
0.00051976508
0.00018620609
0.00019203525
0.00020433226
0.00022214653
0.00024469211
0.0002711491
0.0003007698
0.00033301723
0.00036771445
0.00040528822
0.00044736096
0.0004982546
0.00051976289
0.00018616768
0.00019200805
0.00020432713
0.00022216934
0.00024474337
0.00027122425
0.00030086066
0.00033311379
0.00036780656
0.00040536674
0.00044741855
0.00049828571
0.0005197621
0.00018614142
0.00019199246
0.00020433248
0.00022220102
0.00024480152
0.0002713042
0.00030095431
0.00033321145
0.0003678985
0.00040544442
0.00044747524
0.00049831649
0.00051976259
0.00018612632
0.00019198749
0.00020434731
0.00022224055
0.00024486559
0.00027138802
0.00030104994
0.00033330951
0.00036798976
0.00040552088
0.00044753076
0.00049834678
0.00051976421
0.00018612142
0.00019199218
0.00020437064
0.00022228696
0.00024493464
0.00027147489
0.00030114682
0.00033340739
0.00036807988
0.0004055958
0.00044758493
0.00049837645
0.00051976686
0.00018612583
0.00019200561
0.00020440156
0.00022233937
0.00024500783
0.00027156401
0.00030124429
0.00033350454
0.00036816846
0.00040566892
0.00044763758
0.00049840542
0.00051977043
0.00018613865
0.00019202691
0.00020443919
0.00022239691
0.00024508437
0.0002716547
0.00030134174
0.00033360052
0.00036825519
0.00040574002
0.00044768858
0.0004984336
0.00051977483
0.00018615907
0.00019205524
0.00020448273
0.00022245882
0.00024516353
0.0002717463
0.00030143867
0.00033369492
0.00036833976
0.00040580893
0.00044773783
0.00049846096
0.00051977996
0.00018618628
0.00019208982
0.0002045314
0.00022252436
0.00024524465
0.00027183825
0.0003015346
0.00033378738
0.00036842196
0.00040587551
0.00044778528
0.00049848745
0.00051978575
0.00018621954
0.0001921299
0.00020458447
0.00022259284
0.00024532711
0.00027193003
0.00030162912
0.00033387761
0.00036850157
0.00040593964
0.00044783085
0.00049851295
0.00051979211
0.00018625812
0.00019217478
0.00020464128
0.00022266364
0.00024541036
0.00027202116
0.00030172186
0.00033396533
0.00036857843
0.00040600122
0.00044787448
0.00049853729
0.00051979896
0.00018630136
0.00019222378
0.00020470117
0.00022273617
0.00024549386
0.00027211121
0.00030181249
0.00033405032
0.00036865238
0.00040606016
0.00044791603
0.00049856042
0.0005198062
0.00018634858
0.00019227628
0.00020476355
0.00022280988
0.00024557716
0.0002721998
0.0003019007
0.00033413236
0.00036872328
0.00040611635
0.00044795541
0.00049858235
0.00051981376
0.00018639919
0.00019233167
0.00020482785
0.00022288424
0.00024565979
0.00027228656
0.00030198622
0.00033421127
0.00036879102
0.00040616967
0.00044799254
0.00049860312
0.00051982155
0.00018645258
0.00019238938
0.00020489353
0.0002229588
0.00024574136
0.00027237116
0.00030206883
0.00033428686
0.00036885545
0.00040622003
0.00044802742
0.00049862275
0.00051982952
0.0001865082
0.00019244886
0.00020496009
0.00022303308
0.00024582149
0.00027245332
0.00030214829
0.000334359
0.00036891647
0.00040626733
0.00044806008
0.00049864126
0.00051983761
0.00018656551
0.00019250961
0.00020502706
0.0002231067
0.00024589985
0.00027253278
0.00030222442
0.00033442755
0.00036897395
0.0004063116
0.00044809055
0.00049865865
0.00051984574
0.00018662402
0.00019257114
0.00020509401
0.00022317926
0.00024597612
0.0002726093
0.00030229707
0.00033449239
0.00036902786
0.00040635285
0.00044811884
0.0004986749
0.00051985386
0.00018668326
0.00019263301
0.00020516052
0.00022325043
0.00024605004
0.00027268269
0.0003023661
0.00033455341
0.0003690782
0.00040639113
0.000448145
0.00049869003
0.00051986192
0.0001867428
0.0001926948
0.00020522623
0.0002233199
0.00024612139
0.0002727528
0.00030243137
0.0003346106
0.00036912502
0.00040642649
0.00044816907
0.00049870405
0.00051986988
0.00018680224
0.00019275615
0.00020529082
0.00022338742
0.00024618997
0.00027281947
0.00030249283
0.00033466398
0.00036916837
0.000406459
0.00044819111
0.00049871698
0.00051987769
0.00018686123
0.00019281673
0.00020535401
0.00022345276
0.0002462556
0.0002728826
0.00030255047
0.00033471361
0.00036920833
0.00040648874
0.00044821118
0.00049872885
0.00051988531
0.00018691945
0.00019287624
0.00020541555
0.00022351572
0.00024631815
0.00027294214
0.00030260431
0.00033475954
0.000369245
0.00040651582
0.00044822936
0.00049873969
0.00051989274
0.00018697664
0.00019293442
0.0002054752
0.00022357613
0.00024637752
0.00027299809
0.00030265441
0.00033480187
0.00036927848
0.00040654033
0.00044824573
0.00049874955
0.00051989993
0.00018703253
0.00019299105
0.00020553278
0.00022363386
0.00024643367
0.00027305045
0.00030270083
0.0003348407
0.00036930888
0.00040656238
0.00044826039
0.00049875848
0.00051990688
0.00018708692
0.00019304592
0.00020558815
0.00022368882
0.00024648658
0.00027309927
0.00030274365
0.00033487614
0.00036933634
0.00040658211
0.00044827342
0.00049876651
0.00051991356
0.00018713963
0.00019309888
0.00020564118
0.00022374096
0.00024653624
0.00027314459
0.00030278297
0.00033490833
0.00036936099
0.00040659961
0.00044828491
0.0004987737
0.00051991998
0.0001871905
0.0001931498
0.00020569178
0.00022379024
0.00024658267
0.0002731865
0.0003028189
0.00033493738
0.00036938295
0.00040661501
0.00044829494
0.00049878009
0.00051992613
0.00018723943
0.00019319859
0.00020573991
0.00022383666
0.00024662593
0.00027322508
0.00030285157
0.00033496343
0.00036940237
0.00040662843
0.00044830361
0.00049878572
0.00051993199
0.00018728633
0.00019324517
0.00020578551
0.00022388021
0.00024666606
0.00027326043
0.0003028811
0.00033498664
0.00036941937
0.00040663998
0.000448311
0.00049879063
0.00051993756
0.00018733112
0.0001932895
0.00020582859
0.00022392093
0.00024670313
0.00027329266
0.00030290762
0.00033500713
0.0003694341
0.00040664978
0.00044831718
0.00049879487
0.00051994285
0.00018737378
0.00019333154
0.00020586913
0.00022395886
0.00024673724
0.00027332188
0.00030293127
0.00033502505
0.00036944668
0.00040665794
0.00044832225
0.00049879848
0.00051994785
0.00018741426
0.0001933713
0.00020590717
0.00022399407
0.00024676848
0.00027334823
0.00030295221
0.00033504055
0.00036945727
0.00040666458
0.00044832628
0.0004988015
0.00051995257
0.00018745257