/*--------------------------------*- C++ -*----------------------------------*\
| =========                 |                                                 |
| \\      /  F ield         | OpenFOAM: The Open Source CFD Toolbox           |
|  \\    /   O peration     | Version:  2506                                  |
|   \\  /    A nd           | Website:  www.openfoam.com                      |
|    \\/     M anipulation  |                                                 |
\*---------------------------------------------------------------------------*/
FoamFile
{
    version     2.0;
    format      ascii;
    arch        "LSB;label=32;scalar=64";
    class       volScalarField;
    location    "14000/water";
    object      nut;
}
// * * * * * * * * * * * * * * * * * * * * * * * * * * * * * * * * * * * * * //

dimensions      [0 2 -1 0 0 0 0];

internalField   nonuniform List<scalar> 
2600
(
4.0562043e-05
4.0561942e-05
4.0561944e-05
4.0561981e-05
4.0561942e-05
4.0561434e-05
4.0558261e-05
4.0540002e-05
4.0435343e-05
3.98338e-05
3.6541397e-05
2.4161555e-05
1.4889524e-05
3.944741e-05
3.9447468e-05
3.944759e-05
3.9447676e-05
3.9447275e-05
3.9444342e-05
3.9428907e-05
3.9352895e-05
3.8988431e-05
3.7314814e-05
3.0763187e-05
1.7536145e-05
1.684056e-05
3.852265e-05
3.852264e-05
3.8522725e-05
3.8522528e-05
3.8520597e-05
3.8510798e-05
3.8466747e-05
3.8277827e-05
3.7500368e-05
3.454641e-05
2.5814945e-05
1.4669956e-05
1.7712619e-05
3.7742032e-05
3.774193e-05
3.7741811e-05
3.7740766e-05
3.7735283e-05
3.7711707e-05
3.7617453e-05
3.7258039e-05
3.5961308e-05
3.177518e-05
2.2061889e-05
1.3531464e-05
1.7967898e-05
3.7073562e-05
3.7073366e-05
3.7072781e-05
3.7069955e-05
3.7057916e-05
3.7011651e-05
3.6843992e-05
3.6266509e-05
3.4405655e-05
2.9188861e-05
1.9425178e-05
1.3345943e-05
1.7902414e-05
3.6493786e-05
3.6493393e-05
3.6491924e-05
3.648598e-05
3.646354e-05
3.6384687e-05
3.612226e-05
3.5294625e-05
3.2873382e-05
2.6881541e-05
1.771645e-05
1.3793839e-05
1.7689846e-05
3.5985207e-05
3.5984445e-05
3.5981496e-05
3.5970726e-05
3.5933497e-05
3.5812307e-05
3.5437992e-05
3.4343601e-05
3.1395257e-05
2.4892541e-05
1.6781972e-05
1.4727875e-05
1.7427344e-05
3.5534568e-05
3.55332e-05
3.5528007e-05
3.5510417e-05
3.5453869e-05
3.5281761e-05
3.478374e-05
3.3418009e-05
2.9989903e-05
2.3242727e-05
1.6521213e-05
1.605365e-05
1.7168093e-05
3.5131649e-05
3.5129373e-05
3.5121029e-05
3.5094485e-05
3.5014364e-05
3.4784646e-05
3.4156253e-05
3.2521766e-05
2.8667649e-05
2.1957692e-05
1.6869959e-05
1.7676047e-05
1.694009e-05
3.4768438e-05
3.47649e-05
3.4752406e-05
3.4714802e-05
3.4607522e-05
3.4315777e-05
3.3554458e-05
3.16563e-05
2.7438403e-05
2.1076946e-05
1.7774701e-05
1.9481897e-05
1.6755877e-05
3.4438571e-05
3.443338e-05
3.4415717e-05
3.4365168e-05
3.4228127e-05
3.3872266e-05
3.2977968e-05
3.0820513e-05
2.6321667e-05
2.0649591e-05
1.9168673e-05
2.1348726e-05
1.6617712e-05
3.4136931e-05
3.4129689e-05
3.4105903e-05
3.4040932e-05
3.3872746e-05
3.3452766e-05
3.2426062e-05
3.0012536e-05
2.5355877e-05
2.0719809e-05
2.0958175e-05
2.3166793e-05
1.6521078e-05
3.3859367e-05
3.3849701e-05
3.3819003e-05
3.3738723e-05
3.3539365e-05
3.3056856e-05
3.1897087e-05
2.923354e-05
2.4602257e-05
2.1309035e-05
2.3024752e-05
2.4858007e-05
1.6457822e-05
3.3602495e-05
3.3590098e-05
3.355197e-05
3.3456247e-05
3.3227088e-05
3.2684517e-05
3.1388405e-05
2.8493549e-05
2.4138757e-05
2.2402735e-05
2.5241354e-05
2.6381455e-05
1.6418929e-05
3.3363555e-05
3.334823e-05
3.3302533e-05
3.3192135e-05
3.2935885e-05
3.2335692e-05
3.0897111e-05
2.7818119e-05
2.4044358e-05
2.3946906e-05
2.7493335e-05
2.7726694e-05
1.6396422e-05
3.3140311e-05
3.3122024e-05
3.3069114e-05
3.2945826e-05
3.2666358e-05
3.2009929e-05
3.0421904e-05
2.7253059e-05
2.4379893e-05
2.5855075e-05
2.9693858e-05
2.8902281e-05
1.6384202e-05
3.2930983e-05
3.2909915e-05
3.2850758e-05
3.2717477e-05
3.2419519e-05
3.1706209e-05
2.9966345e-05
2.6863467e-05
2.5173338e-05
2.8023002e-05
3.1788481e-05
2.9925862e-05
1.6378087e-05
3.27342e-05
3.2710811e-05
3.2647097e-05
3.2507877e-05
3.219656e-05
3.1423099e-05
2.9543334e-05
2.6725088e-05
2.6414165e-05
3.0346001e-05
3.3750499e-05
3.0817911e-05
1.6375449e-05
3.254898e-05
3.2524066e-05
3.2458325e-05
3.2318371e-05
3.1998619e-05
3.1159479e-05
2.9179673e-05
2.6909996e-05
2.805682e-05
3.2733297e-05
3.5572232e-05
3.159849e-05
1.6374764e-05
3.2374714e-05
3.234948e-05
3.2285189e-05
3.2150777e-05
3.1826588e-05
3.0916122e-05
2.8918575e-05
2.747184e-05
3.0030664e-05
3.5115833e-05
3.7256817e-05
3.2285747e-05
1.6375224e-05
3.2211173e-05
3.2187303e-05
3.2128983e-05
3.2007273e-05
3.1681012e-05
3.0698308e-05
2.8817772e-05
2.8435849e-05
3.2252927e-05
3.7447132e-05
3.8812575e-05
3.289533e-05
1.6376448e-05
3.2058522e-05
3.2038256e-05
3.199155e-05
3.1890271e-05
3.1562235e-05
3.051924e-05
2.8942305e-05
2.97959e-05
3.4641249e-05
3.9699498e-05
4.0249838e-05
3.3440303e-05
1.6378293e-05
3.1917349e-05
3.1903563e-05
3.1875268e-05
3.1802263e-05
3.147098e-05
3.0403414e-05
2.9353633e-05
3.1518043e-05
3.7123067e-05
4.1858568e-05
4.157938e-05
3.3931334e-05
1.6380731e-05
3.1788707e-05
3.1784988e-05
3.1783034e-05
3.1745668e-05
3.1409597e-05
3.038839e-05
3.0098643e-05
3.3548315e-05
3.9640507e-05
4.3918432e-05
4.2811642e-05
3.4377033e-05
1.638378e-05
3.167417e-05
3.1684884e-05
3.1718215e-05
3.1722747e-05
3.1384109e-05
3.0523335e-05
3.1201979e-05
3.5822347e-05
4.2151083e-05
4.5878179e-05
4.3956338e-05
3.4784317e-05
1.6387467e-05
3.1575896e-05
3.1606239e-05
3.1684577e-05
3.1735683e-05
3.140692e-05
3.0863674e-05
3.2663381e-05
3.827446e-05
4.4625626e-05
4.7739786e-05
4.5022275e-05
3.5158741e-05
1.6391813e-05
3.1496714e-05
3.155272e-05
3.1686171e-05
3.1786998e-05
3.1499547e-05
3.1462867e-05
3.445981e-05
4.084458e-05
4.7045143e-05
4.9506879e-05
4.6017313e-05
3.5504793e-05
1.6396824e-05
3.1440215e-05
3.1528703e-05
3.1727217e-05
3.1880503e-05
3.1694227e-05
3.2363739e-05
3.6550936e-05
4.3482177e-05
4.9397831e-05
5.1183987e-05
4.6948395e-05
3.582612e-05
1.6402493e-05
3.141085e-05
3.1539289e-05
3.1812005e-05
3.2022924e-05
3.2033139e-05
3.3591885e-05
3.8886217e-05
4.6147414e-05
5.1676775e-05
5.2776052e-05
4.7821631e-05
3.6125712e-05
1.6408802e-05
3.1414042e-05
3.1590274e-05
3.1944926e-05
3.2226116e-05
3.2564554e-05
3.5152673e-05
4.1411874e-05
4.8810337e-05
5.3878374e-05
5.4288113e-05
4.8642386e-05
3.6406043e-05
1.6415722e-05
3.1456281e-05
3.1688095e-05
3.2130755e-05
3.2509428e-05
3.3336473e-05
3.7032e-05
4.4076498e-05
5.1449126e-05
5.6001293e-05
5.5725113e-05
4.9415387e-05
3.6669253e-05
1.642322e-05
3.1545208e-05
3.1839739e-05
3.2375385e-05
3.2901319e-05
3.4389408e-05
3.9199974e-05
4.6834636e-05
5.4048193e-05
5.8045697e-05
5.7091646e-05
5.0144347e-05
3.6914948e-05
1.6431248e-05
3.1689662e-05
3.2052668e-05
3.2687146e-05
3.3439136e-05
3.5750343e-05
4.1616217e-05
4.9648345e-05
5.6596573e-05
6.0012758e-05
5.8392027e-05
5.0832741e-05
3.7144932e-05
1.6439749e-05
3.1899684e-05
3.2334824e-05
3.3078707e-05
3.4166346e-05
3.7429313e-05
4.4235475e-05
5.248721e-05
5.9086701e-05
6.1904262e-05
5.9630109e-05
5.1482711e-05
3.7361254e-05
1.6448669e-05
3.2186466e-05
3.2694875e-05
3.3569202e-05
3.5127421e-05
3.941908e-05
4.7012444e-05
5.5327464e-05
6.1513521e-05
6.3722355e-05
6.0809405e-05
5.209646e-05
3.7565321e-05
1.6457959e-05
3.2562283e-05
3.3142865e-05
3.4185838e-05
3.6361561e-05
4.169747e-05
4.9905196e-05
5.8150811e-05
6.3873836e-05
6.546939e-05
6.1933116e-05
5.2677399e-05
3.7758159e-05
1.6467587e-05
3.3040476e-05
3.3691443e-05
3.4963998e-05
3.7896952e-05
4.4231433e-05
5.2877044e-05
6.0943274e-05
6.6165764e-05
6.7147551e-05
6.3002891e-05
5.3228268e-05
3.7940817e-05
1.6477531e-05
3.3635639e-05
3.4357649e-05
3.5945066e-05
3.9746988e-05
4.6981711e-05
5.5897102e-05
6.3694227e-05
6.8388406e-05
6.875931e-05
6.4022572e-05
5.3751035e-05
3.8114067e-05
1.6487765e-05
3.4364222e-05
3.5164899e-05
3.717197e-05
4.1909143e-05
4.9907159e-05
5.8940001e-05
6.6395639e-05
7.054134e-05
7.0305632e-05
6.4995365e-05
5.424762e-05
3.8278672e-05
1.6498265e-05
3.5245718e-05
3.6144408e-05
3.8683381e-05
4.4366347e-05
5.2968058e-05
6.198515e-05
6.904143e-05
7.2624731e-05
7.1789392e-05
6.5923857e-05
5.4719647e-05
3.8435259e-05
1.6509003e-05
3.6304388e-05
3.733501e-05
4.0508062e-05
4.7090189e-05
5.6128198e-05
6.5015938e-05
7.1626951e-05
7.4638167e-05
7.3213266e-05
6.6810358e-05
5.5168629e-05
3.8584367e-05
1.6519954e-05
3.7571047e-05
3.8780597e-05
4.2660838e-05
5.0044951e-05
5.9355789e-05
6.8018912e-05
7.4148667e-05
7.658251e-05
7.4579739e-05
6.7656918e-05
5.5595905e-05
3.8726457e-05
1.653109e-05
3.9083863e-05
4.0525229e-05
4.5140993e-05
5.3191603e-05
6.2623599e-05
7.0983137e-05
7.6603245e-05
7.8458873e-05
7.5890942e-05
6.8465435e-05
5.6002655e-05
3.8861919e-05
1.6542387e-05
4.0886926e-05
4.2606883e-05
4.7933127e-05
5.6491024e-05
6.5908486e-05
7.3899569e-05
7.8988687e-05
8.0268776e-05
7.7148773e-05
6.9237599e-05
5.6389913e-05
3.8991082e-05
1.6553816e-05
4.3025799e-05
4.5051456e-05
5.1009917e-05
5.9906254e-05
6.9190906e-05
7.6760175e-05
8.1303298e-05
8.201345e-05
7.8354993e-05
6.9974922e-05
5.675858e-05
3.9114224e-05
1.6565354e-05
4.5540386e-05
4.7868494e-05
5.4335787e-05
6.3403545e-05
7.2453932e-05
7.9558432e-05
8.3546742e-05
8.3693989e-05
7.9511149e-05
7.0678721e-05
5.7109433e-05
3.9231572e-05
1.6576975e-05
4.8456739e-05
5.1049474e-05
5.7870642e-05
6.6952761e-05
7.5682784e-05
8.2288857e-05
8.5718416e-05
8.5311356e-05
8.0618585e-05
7.1350127e-05
5.7443125e-05
3.9343312e-05
1.6588654e-05
5.1780121e-05
5.4568628e-05
6.1572928e-05
7.0526848e-05
7.8863916e-05
8.4947784e-05
8.7817731e-05
8.6866314e-05
8.1678418e-05
7.1990087e-05
5.7760195e-05
3.9449582e-05
1.6600365e-05
5.5491329e-05
5.8385601e-05
6.5401352e-05
7.4100877e-05
8.1987135e-05
8.7531611e-05
8.9843991e-05
8.8359392e-05
8.2691528e-05
7.2599356e-05
5.8061068e-05
3.9550483e-05
1.6612086e-05
5.9547152e-05
6.2448844e-05
6.9315503e-05
7.7653719e-05
8.5043589e-05
9.0036885e-05
9.1796322e-05
8.9790852e-05
8.3658542e-05
7.3178504e-05
5.8346056e-05
3.964607e-05
1.6623789e-05
6.3884369e-05
6.66997e-05
7.3278127e-05
8.1167511e-05
8.8025122e-05
9.2460181e-05
9.3673612e-05
9.1160667e-05
8.4579833e-05
7.3727906e-05
5.8615359e-05
3.9736358e-05
1.663545e-05
6.8427223e-05
7.1076983e-05
7.7255114e-05
8.4625986e-05
9.0924103e-05
9.4798033e-05
9.5474498e-05
9.2468511e-05
8.5455508e-05
7.4247753e-05
5.8869068e-05
3.9821322e-05
1.664704e-05
7.3095429e-05
7.55202e-05
8.1214664e-05
8.801417e-05
9.3733319e-05
9.7046918e-05
9.7197357e-05
9.3713767e-05
8.6285425e-05
7.4738048e-05
5.9107168e-05
3.9900896e-05
1.665853e-05
7.7811195e-05
7.9972251e-05
8.5127237e-05
9.1318181e-05
9.6445926e-05
9.9203278e-05
9.8840356e-05
9.4895555e-05
8.7069205e-05
7.5198625e-05
5.9329547e-05
3.997498e-05
1.6669891e-05
8.2504303e-05
8.4381433e-05
8.8965661e-05
9.4525149e-05
9.905547e-05
0.00010126359
0.00010040151
9.6012783e-05
8.7806269e-05
7.5629165e-05
5.9536e-05
4.0043438e-05
1.6681088e-05
8.7114993e-05
8.8702737e-05
9.2705362e-05
9.7623234e-05
0.00010155595
0.00010322446
0.00010187877
9.7064216e-05
8.849588e-05
7.6029226e-05
5.9726252e-05
4.010611e-05
1.6692088e-05
9.159496e-05
9.2898494e-05
9.6324646e-05
0.00010060172
0.0001039419
0.00010508276
0.00010327016
9.8048568e-05
8.9137209e-05
7.6398277e-05
5.9899971e-05
4.0162815e-05
1.6702852e-05
9.5907018e-05
9.6938443e-05
9.9804948e-05
0.00010345115
0.00010620853
0.00010683571
0.00010457389
9.8964599e-05
8.9729405e-05
7.6735748e-05
6.0056795e-05
4.0213362e-05
1.6713341e-05
0.00010002398
0.00010079937
0.00010313099
0.00010616348
0.00010835181
0.00010848106
0.00010578844
9.9811225e-05
9.0271677e-05
7.7041083e-05
6.0196364e-05
4.0257564e-05
1.6723514e-05
0.00010392717
0.00010446445
0.00010629079
0.00010873219
0.00011036859
0.00011001715
0.00010691273
0.00010058762
9.0763374e-05
7.7313793e-05
6.0318354e-05
4.0295252e-05
1.6733331e-05
0.00010760494
0.00010792244
0.0001092756
0.00011115239
0.00011225667
0.00011144298
0.00010794618
0.00010129329
9.1204063e-05
7.7553519e-05
6.0422508e-05
4.0326287e-05
1.674275e-05
0.00011105124
0.00011116681
0.00011207965
0.00011342076
0.00011401483
0.00011275831
0.00010888876
0.00010192818
9.1593599e-05
7.7760083e-05
6.0508672e-05
4.0350577e-05
1.6751731e-05
0.0001142644
0.00011419494
0.00011469987
0.00011553562
0.00011564284
0.00011396362
0.00010974107
0.0001024927
9.1932177e-05
7.7933529e-05
6.0576823e-05
4.036809e-05
1.6760238e-05
0.00011724614
0.00011700734
0.00011713562
0.00011749675
0.00011714147
0.00011506016
0.00011050428
0.00010298775
9.2220364e-05
7.807416e-05
6.0627093e-05
4.0378862e-05
1.6768237e-05
0.00012000072
0.00011960702
0.00011938825
0.00011930532
0.00011851239
0.00011604988
0.00011118022
0.00010341472
9.2459119e-05
7.8182557e-05
6.0659785e-05
4.0383006e-05
1.6775699e-05
0.00012253432
0.00012199891
0.00012146086
0.00012096372
0.00011975813
0.00011693537
0.00011177122
0.00010377551
9.2649792e-05
7.8259584e-05
6.0675378e-05
4.0380714e-05
1.6782601e-05
0.0001248545
0.00012418941
0.00012335793
0.00012247542
0.00012088198
0.00011771986
0.00011228018
0.00010407245
9.2794104e-05
7.8306384e-05
6.0674526e-05
4.0372258e-05
1.6788927e-05
0.00012696986
0.00012618604
0.00012508504
0.00012384479
0.0001218879
0.00011840706
0.00011271042
0.00010430828
9.2894114e-05
7.8324358e-05
6.0658051e-05
4.0357981e-05
1.6794666e-05
0.00012888963
0.00012799707
0.00012664868
0.00012507694
0.0001227804
0.00011900114
0.00011306563
0.00010448607
9.2952181e-05
7.8315139e-05
6.0626921e-05
4.0338295e-05
1.6799816e-05
0.00013062353
0.00012963133
0.00012805593
0.00012617756
0.00012356445
0.00011950662
0.00011334985
0.00010460919
9.2970913e-05
7.8280557e-05
6.0582233e-05
4.0313663e-05
1.6804379e-05
0.0001321815
0.000131098
0.00012931439
0.00012715282
0.00012424538
0.0001199283
0.00011356732
0.00010468123
9.2953113e-05
7.8222597e-05
6.0525186e-05
4.0284595e-05
1.6808365e-05
0.00013357358
0.00013240641
0.00013043191
0.00012800919
0.00012482875
0.00012027116
0.00011372245
0.0001047059
9.2901724e-05
7.8143362e-05
6.0457052e-05
4.025163e-05
1.6811789e-05
0.00013480982
0.00013356596
0.00013141656
0.00012875335
0.00012532034
0.00012054031
0.00011381977
0.00010468705
9.281978e-05
7.8045025e-05
6.037915e-05
4.0215321e-05
1.6814673e-05
0.00013590011
0.00013458601
0.00013227643
0.00012939212
0.00012572598
0.00012074093
0.00011386382
0.00010462853
9.2710348e-05
7.7929792e-05
6.0292814e-05
4.0176228e-05
1.6817041e-05
0.00013685419
0.00013547576
0.0001330196
0.00012993231
0.00012605155
0.00012087818
0.00011385914
0.00010453419
9.2576492e-05
7.7799865e-05
6.0199375e-05
4.0134901e-05
1.6818921e-05
0.00013768152
0.00013624422
0.00013365405
0.00013038072
0.00012630287
0.00012095718
0.0001138102
0.00010440782
9.2421226e-05
7.7657408e-05
6.0100132e-05
4.0091871e-05
1.6820344e-05
0.00013839129
0.00013690015
0.00013418756
0.00013074404
0.00012648571
0.00012098294
0.00011372138
0.00010425311
9.2247484e-05
7.750452e-05
5.9996336e-05
4.0047643e-05
1.6821342e-05
0.00013899235
0.00013745201
0.00013462773
0.00013102878
0.00012660567
0.00012096037
0.00011359692
0.00010407364
9.2058092e-05
7.7343213e-05
5.9889178e-05
4.0002691e-05
1.682195e-05
0.00013949319
0.00013790795
0.00013498189
0.00013124131
0.00012666822
0.00012089419
0.00011344092
0.00010387284
9.1855746e-05
7.7175395e-05
5.9779771e-05
3.995745e-05
1.6822201e-05
0.00013990196
0.00013827577
0.00013525712
0.00013138776
0.00012667863
0.00012078897
0.00011325728
0.00010365396
9.1642996e-05
7.7002853e-05
5.966915e-05
3.9912314e-05
1.682213e-05
0.00014022641
0.00013856293
0.00013546017
0.00013147402
0.00012664197
0.00012064905
0.00011304973
0.00010342008
9.1422235e-05
7.6827249e-05
5.9558261e-05
3.986764e-05
1.6821769e-05
0.0001404739
0.00013877652
0.0001355975
0.00013150573
0.00012656309
0.0001204786
0.00011282179
0.0001031741
9.119569e-05
7.6650111e-05
5.9447958e-05
3.9823739e-05
1.6821152e-05
0.00014065142
0.00013892327
0.00013567527
0.00013148827
0.00012644659
0.00012028155
0.00011257677
0.00010291872
9.0965416e-05
7.647283e-05
5.9339006e-05
3.9780884e-05
1.6820309e-05
0.00014076556
0.00013900954
0.00013569928
0.00013142673
0.00012629686
0.00012006161
0.00011231779
0.00010265644
9.0733293e-05
7.6296659e-05
5.9232078e-05
3.9739305e-05
1.6819271e-05
0.00014082255
0.00013904132
0.00013567504
0.00013132595
0.00012611801
0.00011982228
0.00011204774
0.00010238957
9.050103e-05
7.6122713e-05
5.9127758e-05
3.9699195e-05
1.6818066e-05
0.00014082823
0.00013902427
0.00013560772
0.00013119046
0.00012591395
0.00011956681
0.00011176928
0.00010212021
9.0270157e-05
7.5951958e-05
5.9026494e-05
3.9660496e-05
1.6816719e-05
0.00014078809
0.00013896367
0.00013550219
0.00013102455
0.00012568829
0.00011929823
0.00011148489
0.00010185026
9.004203e-05
7.5785221e-05
5.8928643e-05
3.9623159e-05
1.6815251e-05
0.00014070724
0.00013886447
0.000135363
0.0001308322
0.00012544445
0.00011901936
0.00011119681
0.00010158145
8.9817821e-05
7.5623139e-05
5.8834226e-05
3.9587474e-05
1.6813682e-05
0.00014059047
0.00013873131
0.00013519441
0.00013061716
0.00012518558
0.0001187328
0.00011090711
0.00010131529
8.9598556e-05
7.5466291e-05
5.8743583e-05
3.9553567e-05
1.6812031e-05
0.00014044225
0.00013856848
0.00013500037
0.0001303829
0.00012491461
0.00011844091
0.00011061762
0.00010105312
8.9385026e-05
7.5314802e-05
5.8657148e-05
3.9521528e-05
1.6810319e-05
0.0001402667
0.00013837999
0.00013478459
0.00013013265
0.00012463424
0.00011814588
0.00011033
0.00010079606
8.9177861e-05
7.5169366e-05
5.8575065e-05
3.9491408e-05
1.6808564e-05
0.00014006768
0.00013816956
0.00013455046
0.00012986939
0.00012434695
0.00011784966
0.00011004571
0.00010054512
8.8977608e-05
7.5030446e-05
5.8497462e-05
3.9463238e-05
1.6806783e-05
0.00013984873
0.00013794062
0.00013430116
0.00012959587
0.00012405501
0.00011755403
0.000109766
0.00010030094
8.8785069e-05
7.4898292e-05
5.8424421e-05
3.9437031e-05
1.6804993e-05
0.00013961314
0.00013769634
0.00013403958
0.00012931461
0.00012376048
0.00011726054
0.00010949189
0.00010006447
8.8600715e-05
7.4773082e-05
5.8355981e-05
3.941278e-05
1.6803206e-05
0.00013936392
0.00013743963
0.0001337684
0.0001290279
0.0001234652
0.00011697054
0.00010922441
9.9836517e-05
8.8424895e-05
7.4654937e-05
5.8292142e-05
3.9390459e-05
1.6801435e-05
0.00013910384
0.00013717316
0.00013349005
0.00012873783
0.0001231708
0.0001166852
0.00010896462
9.9617625e-05
8.8257865e-05
7.4543915e-05
5.8232871e-05
3.937003e-05
1.6799689e-05
0.00013883542
0.00013689936
0.00013320672
0.00012844622
0.00012287868
0.00011640584
0.00010871333
9.9408236e-05
8.8099797e-05
7.4440017e-05
5.8178101e-05
3.935144e-05
1.6797978e-05
0.00013856094
0.00013662041
0.00013292034
0.00012815469
0.00012259035
0.00011613351
0.0001084712
9.920868e-05
8.7950782e-05
7.4343194e-05
5.8127737e-05
3.9334626e-05
1.679631e-05
0.00013828243
0.00013633823
0.00013263273
0.00012786493
0.0001223071
0.00011586911
0.00010823876
9.9019195e-05
8.7810842e-05
7.4253351e-05
5.808166e-05
3.9319517e-05
1.6794689e-05
0.00013800173
0.00013605465
0.00013234559
0.00012757838
0.00012203006
0.0001156134
0.00010801642
9.8839926e-05
8.7679937e-05
7.4170353e-05
5.8039732e-05
3.9306037e-05
1.6793123e-05
0.00013772057
0.00013577134
0.00013206045
0.00012729633
0.00012176017
0.00011536699
0.00010780452
9.8670943e-05
8.7557972e-05
7.4094033e-05
5.8001799e-05
3.9294103e-05
1.6791614e-05
0.0001374405
0.00013548983
0.0001317787
0.00012701992
0.00012149829
0.00011513041
0.00010760326
9.8512247e-05
8.7444804e-05
7.4024197e-05
5.7967696e-05
3.9283631e-05
1.6790166e-05
0.00013716295
0.00013521148
0.00013150156
0.00012675015
0.00012124512
0.00011490408
0.00010741281
9.8363778e-05
8.7340255e-05
7.3960631e-05
5.793725e-05
3.9274537e-05
1.6788781e-05
0.00013688919
0.0001349375
0.00013123013
0.00012648789
0.00012100125
0.00011468829
0.00010723322
9.8225426e-05
8.7244111e-05
7.3903104e-05
5.7910284e-05
3.9266739e-05
1.6787462e-05
0.00013662036
0.000134669
0.00013096535
0.00012623388
0.00012076719
0.0001144833
0.00010706451
9.8097034e-05
8.7156133e-05
7.3851376e-05
5.788662e-05
3.9260153e-05
1.6786209e-05
0.00013635747
0.00013440693
0.00013070806
0.00012598877
0.00012054333
0.00011428924
0.00010690662
9.7978407e-05
8.7076061e-05
7.3805196e-05
5.7866081e-05
3.9254701e-05
1.6785024e-05
0.00013610141
0.00013415213
0.000130459
0.0001257531
0.00012032997
0.00011410621
0.00010675944
9.7869312e-05
8.7003613e-05
7.3764305e-05
5.7848486e-05
3.9250306e-05
1.6783907e-05
0.00013585296
0.00013390533
0.00013021876
0.00012552729
0.00012012735
0.00011393422
0.00010662282
9.7769483e-05
8.6938488e-05
7.3728441e-05
5.7833658e-05
3.9246893e-05
1.6782857e-05
0.00013561277
0.00013366715
0.00012998786
0.00012531169
0.0001199356
0.00011377321
0.00010649655
9.7678626e-05
8.6880373e-05
7.3697332e-05
5.7821418e-05
3.9244387e-05
1.6781876e-05
0.00013538141
0.00013343809
0.00012976671
0.00012510655
0.00011975479
0.00011362307
0.00010638039
9.7596416e-05
8.6828937e-05
7.3670705e-05
5.7811588e-05
3.9242715e-05
1.6780961e-05
0.00013515931
0.00013321857
0.00012955562
0.00012491204
0.00011958491
0.00011348364
0.00010627404
9.7522508e-05
8.6783839e-05
7.3648281e-05
5.7803991e-05
3.9241806e-05
1.6780112e-05
0.00013494684
0.00013300891
0.00012935482
0.00012472826
0.0001194259
0.0001133547
0.00010617718
9.7456533e-05
8.6744729e-05
7.3629781e-05
5.779845e-05
3.9241588e-05
1.6779327e-05
0.00013474427
0.00013280933
0.00012916446
0.00012455521
0.00011927763
0.00011323599
0.00010608947
9.7398107e-05
8.671125e-05
7.3614927e-05
5.7794793e-05
3.9241992e-05
1.6778605e-05
0.00013455177
0.00013262
0.00012898461
0.00012439286
0.00011913992
0.00011312721
0.00010601052
9.7346839e-05
8.6683047e-05
7.3603442e-05
5.7792849e-05
3.9242951e-05
1.6777942e-05
0.00013436946
0.00013244099
0.00012881528
0.0001242411
0.00011901254
0.00011302803
0.00010593996
9.730233e-05
8.6659767e-05
7.3595061e-05
5.7792457e-05
3.9244399e-05
1.6777338e-05
0.00013419738
0.00013227232
0.00012865642
0.00012409979
0.00011889524
0.00011293812
0.00010587738
9.7264185e-05
8.6641063e-05
7.3589524e-05
5.7793463e-05
3.9246278e-05
1.677679e-05
0.00013403554
0.00013211395
0.00012850794
0.00012396873
0.00011878773
0.00011285709
0.00010582238
9.7232013e-05
8.6626602e-05
7.3586586e-05
5.7795722e-05
3.9248532e-05
1.6776294e-05
0.00013388388
0.00013196582
0.00012836969
0.00012384771
0.00011868971
0.00011278458
0.00010577457
9.7205433e-05
8.6616064e-05
7.3586015e-05
5.7799101e-05
3.9251112e-05
1.6775849e-05
0.0001337423
0.0001318278
0.00012824151
0.00012373649
0.00011860085
0.00011272022
0.00010573354
9.7184075e-05
8.6609141e-05
7.3587594e-05
5.7803476e-05
3.9253973e-05
1.6775453e-05
0.00013361068
0.00013169974
0.0001281232
0.00012363479
0.00011852081
0.00011266361
0.0001056989
9.7167582e-05
8.6605542e-05
7.3591119e-05
5.7808734e-05
3.9257075e-05
1.6775103e-05
0.00013348884
0.00013158145
0.00012801452
0.00012354231
0.00011844925
0.00011261438
0.00010567028
9.7155605e-05
8.6604989e-05
7.3596396e-05
5.7814769e-05
3.9260382e-05
1.6774797e-05
0.00013337659
0.00013147271
0.00012791522
0.00012345876
0.00011838581
0.00011257214
0.00010564729
9.7147808e-05
8.6607213e-05
7.3603244e-05
5.7821485e-05
3.9263863e-05
1.6774533e-05
0.00013327369
0.00013137329
0.00012782501
0.0001233838
0.00011833012
0.0001125365
0.00010562956
9.7143861e-05
8.6611957e-05
7.3611489e-05
5.7828787e-05
3.9267486e-05
1.6774308e-05
0.0001331799
0.0001312829
0.00012774359
0.00012331708
0.00011828178
0.00011250706
0.00010561671
9.7143439e-05
8.6618968e-05
7.3620961e-05
5.7836587e-05
3.9271222e-05
1.6774122e-05
0.00013309492
0.00013120125
0.00012767063
0.00012325824
0.00011824041
0.00011248344
0.00010560837
9.7146222e-05
8.6627999e-05
7.3631496e-05
5.7844797e-05
3.9275041e-05
1.677397e-05
0.00013301842
0.00013112799
0.00012760576
0.00012320688
0.00011820561
0.00011246521
0.00010560416
9.7151895e-05
8.663881e-05
7.3642933e-05
5.7853331e-05
3.9278916e-05
1.6773851e-05
0.00013295007
0.00013106277
0.00012754861
0.0001231626
0.00011817695
0.00011245198
0.00010560373
9.7160147e-05
8.6651165e-05
7.3655118e-05
5.7862108e-05
3.9282816e-05
1.6773764e-05
0.00013288948
0.00013100522
0.00012749878
0.000123125
0.00011815402
0.00011244335
0.00010560669
9.7170676e-05
8.6664835e-05
7.36679e-05
5.7871046e-05
3.9286714e-05
1.6773704e-05
0.00013283627
0.00013095492
0.00012745586
0.00012309364
0.00011813639
0.00011243892
0.00010561271
9.718319e-05
8.6679604e-05
7.3681136e-05
5.7880069e-05
3.9290583e-05
1.6773669e-05
0.00013279003
0.00013091149
0.00012741943
0.0001230681
0.00011812366
0.00011243829
0.00010562143
9.7197412e-05
8.6695265e-05
7.3694695e-05
5.7889109e-05
3.9294396e-05
1.6773658e-05
0.00013275036
0.00013087449
0.00012738908
0.00012304796
0.0001181154
0.0001124411
0.00010563254
9.7213081e-05
8.6711631e-05
7.3708455e-05
5.7898103e-05
3.9298134e-05
1.6773668e-05
0.00013271685
0.00013084353
0.00012736438
0.00012303283
0.00011811125
0.00011244698
0.00010564573
9.7229959e-05
8.6728529e-05
7.3722311e-05
5.7906996e-05
3.9301776e-05
1.6773695e-05
0.0001326891
0.0001308182
0.00012734495
0.00012302229
0.00011811081
0.00011245561
0.00010566072
9.7247829e-05
8.674581e-05
7.373617e-05
5.7915746e-05
3.930531e-05
1.6773739e-05
0.00013266674
0.00013079812
0.00012733039
0.00012301599
0.00011811375
0.00011246668
0.00010567727
9.7266499e-05
8.676334e-05
7.3749956e-05
5.7924318e-05
3.9308726e-05
1.6773797e-05
0.00013264938
0.00013078292
0.00012732034
0.00012301356
0.00011811975
0.00011247991
0.00010569513
9.7285797e-05
8.6781007e-05
7.3763606e-05
5.7932684e-05
3.9312018e-05
1.6773868e-05
0.00013263669
0.00013077225
0.00012731446
0.00012301469
0.00011812849
0.00011249504
0.0001057141
9.7305572e-05
8.6798713e-05
7.3777068e-05
5.7940827e-05
3.9315184e-05
1.6773951e-05
0.00013262833
0.00013076577
0.00012731242
0.00012301905
0.00011813971
0.00011251183
0.000105734
9.7325689e-05
8.6816373e-05
7.3790299e-05
5.7948732e-05
3.9318223e-05
1.6774043e-05
0.00013262399
0.00013076318
0.00012731391
0.00012302636
0.00011815313
0.00011253006
0.00010575465
9.7346027e-05
8.6833913e-05
7.3803262e-05
5.7956387e-05
3.9321125e-05
1.6774144e-05
0.00013262335
0.00013076416
0.00012731862
0.00012303634
0.00011816852
0.00011254952
0.0001057759
9.7366473e-05
8.6851263e-05
7.3815923e-05
5.7963778e-05
3.9323873e-05
1.6774253e-05
0.00013262612
0.00013076841
0.00012732628
0.0001230487
0.00011818561
0.00011257001
0.00010579758
9.7386917e-05
8.6868356e-05
7.3828243e-05
5.7970872e-05
3.9326483e-05
1.6774368e-05
0.000132632
0.00013077565
0.00012733658
0.00012306319
0.00011820419
0.00011259134
0.00010581954
9.7407256e-05
8.6885126e-05
7.3840187e-05
5.7977661e-05
3.9328957e-05
1.6774488e-05
0.0001326407
0.00013078558
0.00012734926
0.00012307954
0.00011822402
0.00011261331
0.00010584165
9.7427385e-05
8.6901501e-05
7.3851698e-05
5.7984148e-05
3.9331297e-05
1.6774613e-05
0.00013265193
0.00013079791
0.00012736403
0.00012309751
0.00011824488
0.00011263574
0.00010586376
9.7447204e-05
8.6917417e-05
7.3862753e-05
5.7990319e-05
3.9333501e-05
1.6774741e-05
0.00013266538
0.00013081235
0.00012738061
0.00012311682
0.00011826654
0.00011265846
0.00010588573
9.7466609e-05
8.6932792e-05
7.3873336e-05
5.7996166e-05
3.9335571e-05
1.6774872e-05
0.00013268077
0.00013082861
0.00012739873
0.00012313723
0.0001182888
0.00011268128
0.00010590743
9.74855e-05
8.694759e-05
7.388342e-05
5.8001679e-05
3.9337504e-05
1.6775003e-05
0.0001326978
0.00013084641
0.00012741812
0.00012315851
0.00011831144
0.00011270405
0.00010592873
9.7503791e-05
8.6961772e-05
7.3892983e-05
5.8006852e-05
3.9339301e-05
1.6775135e-05
0.00013271619
0.00013086548
0.00012743853
0.00012318042
0.00011833428
0.00011272661
0.00010594951
9.7521432e-05
8.6975304e-05
7.3902011e-05
5.8011683e-05
3.9340962e-05
1.6775266e-05
0.00013273568
0.00013088555
0.00012745971
0.00012320274
0.00011835712
0.00011274881
0.00010596969
9.753837e-05
8.6988158e-05
7.3910493e-05
5.8016169e-05
3.9342487e-05
1.6775396e-05
0.00013275601
0.00013090637
0.00012748143
0.00012322528
0.00011837982
0.00011277053
0.0001059892
9.7554564e-05
8.7000315e-05
7.3918428e-05
5.8020317e-05
3.934388e-05
1.6775523e-05
0.00013277694
0.00013092772
0.00012750348
0.00012324786
0.00011840222
0.0001127917
0.00010600799
9.7569984e-05
8.7011765e-05
7.3925818e-05
5.8024131e-05
3.9345143e-05
1.6775647e-05
0.00013279826
0.00013094939
0.00012752566
0.00012327031
0.00011842422
0.00011281224
0.000106026
9.758461e-05
8.7022509e-05
7.3932671e-05
5.8027622e-05
3.9346281e-05
1.6775768e-05
0.00013281978
0.00013097119
0.00012754782
0.0001232925
0.00011844572
0.00011283208
0.00010604321
9.7598433e-05
8.7032551e-05
7.3939001e-05
5.80308e-05
3.9347301e-05
1.6775885e-05
0.00013284132
0.00013099296
0.00012756982
0.00012331433
0.00011846664
0.00011285117
0.00010605959
9.7611449e-05
8.7041903e-05
7.3944823e-05
5.8033681e-05
3.9348209e-05
1.6775998e-05
0.00013286275
0.00013101457
0.00012759153
0.0001233357
0.00011848692
0.00011286948
0.00010607514
9.7623664e-05
8.7050578e-05
7.3950154e-05
5.8036277e-05
3.9349011e-05
1.6776106e-05
0.00013288395
0.00013103591
0.00012761286
0.00012335653
0.00011850649
0.00011288698
0.00010608983
9.7635085e-05
8.7058594e-05
7.3955013e-05
5.8038602e-05
3.9349713e-05
1.677621e-05
0.00013290483
0.00013105688
0.00012763373
0.00012337675
0.00011852533
0.00011290364
0.00010610367
9.7645726e-05
8.7065971e-05
7.3959418e-05
5.8040669e-05
3.9350321e-05
1.677631e-05
0.0001329253
0.0001310774
0.00012765406
0.00012339632
0.00011854338
0.00011291945
0.00010611667
9.7655602e-05
8.7072728e-05
7.3963391e-05
5.8042494e-05
3.9350841e-05
1.6776404e-05
0.00013294531
0.00013109741
0.00012767379
0.00012341519
0.00011856064
0.00011293441
0.00010612883
9.7664731e-05
8.7078889e-05
7.3966949e-05
5.8044088e-05
3.9351279e-05
1.6776494e-05
0.0001329648
0.00013111687
0.0001276929
0.00012343333
0.00011857709
0.00011294852
0.00010614017
9.7673136e-05
8.7084476e-05
7.3970115e-05
5.8045466e-05
3.935164e-05
1.6776579e-05
0.00013298374
0.00013113574
0.00012771135
0.00012345071
0.00011859271
0.00011296178
0.00010615071
9.768084e-05
8.7089515e-05
7.3972908e-05
5.8046642e-05
3.935193e-05
1.6776659e-05
0.0001330021
0.000131154
0.00012772911
0.00012346734
0.0001186075
0.00011297421
0.00010616046
9.7687869e-05
8.709403e-05
7.3975349e-05
5.8047628e-05
3.9352154e-05
1.6776735e-05
0.00013301987