/*--------------------------------*- C++ -*----------------------------------*\
| =========                 |                                                 |
| \\      /  F ield         | OpenFOAM: The Open Source CFD Toolbox           |
|  \\    /   O peration     | Version:  2506                                  |
|   \\  /    A nd           | Website:  www.openfoam.com                      |
|    \\/     M anipulation  |                                                 |
\*---------------------------------------------------------------------------*/
FoamFile
{
    version     2.0;
    format      ascii;
    arch        "LSB;label=32;scalar=64";
    class       surfaceScalarField;
    location    "14000/water";
    object      phi;
}
// * * * * * * * * * * * * * * * * * * * * * * * * * * * * * * * * * * * * * //

dimensions      [1 0 -1 0 0 0 0];

oriented        oriented;

internalField   nonuniform List<scalar> 
4987
(
-6.9167736e-06
0.00085760419
-2.7656569e-05
0.0024926737
-6.1431121e-05
0.0040117068
-0.0001075903
0.0054211695
-0.00016565319
0.0067272392
-0.00023525167
0.0079357375
-0.00031606519
0.0090521266
-0.00040763483
0.010081416
-0.00050867084
0.011027654
-0.00061447105
0.011892066
-0.00070641237
0.012665127
-0.00069017742
0.01327532
0.013255156
-6.4252097e-06
0.00086402939
-2.4701717e-05
0.0025109502
-5.3973207e-05
0.0040409782
-9.3433184e-05
0.0054606295
-0.00014227852
0.0067760845
-0.00019970621
0.0079931652
-0.00026484255
0.0091172629
-0.00033648012
0.010153054
-0.00041221923
0.011103393
-0.0004856843
0.011965531
-0.00053558126
0.012715024
-0.00047144624
0.013211185
0.01278371
-6.163969e-06
0.00087019336
-2.380905e-05
0.0025285953
-5.2164898e-05
0.0040693341
-9.0528704e-05
0.0054989933
-0.00013822172
0.0068237776
-0.00019455674
0.0080495002
-0.00025870612
0.0091814123
-0.00032929751
0.010223645
-0.00040329175
0.011177387
-0.00047276141
0.012035
-0.00051220841
0.012754471
-0.00042242592
0.013121403
0.012361284
-6.1054147e-06
0.00087629878
-2.3924376e-05
0.0025464143
-5.2620538e-05
0.0040980303
-9.1395558e-05
0.0055377683
-0.00013947504
0.006871857
-0.00019604176
0.0081060669
-0.00026004543
0.009245416
-0.00032969289
0.010293293
-0.00040116834
0.011248863
-0.00046497904
0.012098811
-0.00049117541
0.012780667
-0.00037835998
0.013008587
0.011982924
-5.9919785e-06
0.00088229076
-2.3432324e-05
0.0025638546
-5.1502782e-05
0.0041261007
-8.9417765e-05
0.0055756833
-0.0001363976
0.0069188369
-0.00019157934
0.0081612487
-0.00025377584
0.0093076125
-0.0003208868
0.010360404
-0.00038849227
0.011316468
-0.0004456482
0.012155967
-0.00045837524
0.012793394
-0.00033102689
0.012881239
0.011651897
-5.8197985e-06
0.00088811056
-2.2720415e-05
0.0025807553
-4.9911332e-05
0.0041532916
-8.6629801e-05
0.0056124017
-0.00013209822
0.0069643053
-0.00018540983
0.0082145603
-0.00024524283
0.0093674455
-0.00030921061
0.010424371
-0.00037232044
0.011379578
-0.00042207813
0.012205725
-0.00042081904
0.012792135
-0.00028517408
0.012745594
0.011366723
-5.6148952e-06
0.00089372545
-2.1923414e-05
0.0025970638
-4.8158186e-05
0.0041795264
-8.35701e-05
0.0056478136
-0.00012737381
0.007008109
-0.00017860877
0.0082657952
-0.00023581604
0.0094246528
-0.00029633568
0.010484891
-0.0003545854
0.011437828
-0.00039630862
0.012247448
-0.00038067559
0.012776502
-0.00024201049
0.012606929
0.011124713
-5.4046946e-06
0.00089913014
-2.1106786e-05
0.0026127659
-4.6361914e-05
0.0042047815
-8.0433153e-05
0.0056818849
-0.00012252438
0.0070502002
-0.00017161842
0.0083148893
-0.0002261212
0.0094791555
-0.00028309872
0.010541869
-0.00033629459
0.011491024
-0.00036936757
0.012280521
-0.00033930313
0.012746438
-0.00020218079
0.012469807
0.010922532
-5.2040372e-06
0.00090433418
-2.0322449e-05
0.0026278843
-4.4632487e-05
0.0042290916
-7.7407183e-05
0.0057146596
-0.000117836
0.007090629
-0.00016484161
0.0083618949
-0.00021669175
0.0095310057
-0.00027015443
0.010595331
-0.00031814583
0.011539015
-0.00034189245
0.012304267
-0.00029797662
0.012702522
-0.0001662914
0.012338121
0.010756241
-5.0193754e-06
0.00090935356
-1.9599432e-05
0.0026424643
-4.3036007e-05
0.0042525281
-7.460817e-05
0.0057462317
-0.00011348606
0.0071295069
-0.00015852682
0.0084069356
-0.0002078498
0.0095803287
-0.00025787593
0.010645357
-0.00030047882
0.011581618
-0.00031421626
0.012318005
-0.00025799659
0.012646302
-0.00013488813
0.012215013
0.010621352
-4.8544121e-06
0.00091420797
-1.8953518e-05
0.0026565634
-4.1607992e-05
0.0042751826
-7.2098327e-05
0.0057767221
-0.00010956978
0.0071669784
-0.00015280648
0.0084501723
-0.00019976083
0.009627283
-0.00024643025
0.010692027
-0.00028338283
0.01161857
-0.00028657101
0.012321193
-0.00022065197
0.012580383
-0.00010831398
0.012102675
0.010513039
-4.7104907e-06
0.00091891846
-1.838964e-05
0.0026702426
-4.0359024e-05
0.004297152
-6.9895773e-05
0.0058062588
-0.00010611414
0.0072031967
-0.00014771517
0.0084917734
-0.00019245611
0.0096720239
-0.00023580475
0.010735375
-0.00026674607
0.011649512
-0.00025920371
0.012313651
-0.00018698909
0.012508168
-8.6549235e-05
0.012002235
0.010426489
-4.5864894e-06
0.00092350495
-1.7903118e-05
0.0026835592
-3.9278552e-05
0.0043185274
-6.7981782e-05
0.0058349621
-0.00010308929
0.0072383042
-0.0001432058
0.0085318899
-0.00018585427
0.0097146724
-0.00022583645
0.010775358
-0.0002503233
0.011673999
-0.00023244679
0.012295774
-0.00015760689
0.012433329
-6.9195207e-05
0.011913823
0.010357294
-4.47971e-06
0.00092798466
-1.7483378e-05
0.0026965629
-3.8343221e-05
0.0043393873
-6.6315361e-05
0.0058629342
-0.00010043089
0.0072724198
-0.00013918123
0.0085706402
-0.00017980338
0.0097552946
-0.00021627053
0.010811825
-0.0002338457
0.011691574
-0.00020673154
0.01226866
-0.0001326094
0.012359206
-5.5603113e-05
0.011836817
0.010301691
-4.3869482e-06
0.00093237161
-1.7117943e-05
0.0027092939
-3.7525517e-05
0.0043597948
-6.4848148e-05
0.0058902568
-9.8062773e-05
0.0073056344
-0.00013552609
0.0086081035
-0.00017412332
0.0097938918
-0.00020682319
0.010844525
-0.00021713162
0.011701882
-0.00018252415
0.012234053
-0.0001117049
0.012288387
-4.5044655e-05
0.011770157
0.010256646
-4.3051908e-06
0.0009366768
-1.6795059e-05
0.0027217838
-3.6799451e-05
0.0043797992
-6.3534222e-05
0.0059169916
-9.5911854e-05
0.007338012
-0.0001321276
0.0086443193
-0.00016863371
0.0098303979
-0.0001972305
0.010873121
-0.00020015793
0.01170481
-0.00016022089
0.012194115
-9.4372482e-05
0.012222539
-3.6838818e-05
0.011712623
0.010219807
-4.231915e-06
0.00094090871
-1.6504851e-05
0.0027340567
-3.6143084e-05
0.0043994375
-6.2334438e-05
0.005943183
-9.3914665e-05
0.0073695922
-0.00012888455
0.0086792892
-0.00016316714
0.0098646805
-0.00018728235
0.010897237
-0.00018307195
0.011700599
-0.00014006424
0.012151108
-8.001793e-05
0.012162492
-3.0412509e-05
0.011663018
0.010189395
-4.1651418e-06
0.00094507386
-1.6239539e-05
0.0027461311
-3.5538992e-05
0.0044187369
-6.1217189e-05
0.0059688612
-9.2018424e-05
0.0074003935
-0.00012570858
0.0087129793
-0.00015757395
0.0098965459
-0.00017684648
0.010916509
-0.00016614712
0.0116899
-0.0001221172
0.012107078
-6.8078244e-05
0.012108453
-2.5313028e-05
0.011620253
0.010164082
-4.1033745e-06
0.00094917723
-1.5993201e-05
0.0027580209
-3.4973725e-05
0.0044377174
-6.0157433e-05
0.0059940449
-9.0179432e-05
0.0074304155
-0.00012252186
0.0087453218
-0.00015172469
0.0099257487
-0.0001658846
0.010930669
-0.00014970629
0.011673722
-0.00010629218
0.012063664
-5.8071526e-05
0.012060233
-2.1196924e-05
0.011583378
0.010142885
-4.045497e-06
0.00095322273
-1.5761374e-05
0.0027697368
-3.4436919e-05
0.004456393
-5.9135102e-05
0.0060187431
-8.8360526e-05
0.0074596409
-0.00011925379
0.008776215
-0.00014551369
0.0099520086
-0.00015445694
0.010939612
-0.00013404494
0.01165331
-9.240639e-05
0.012022025
-4.9608157e-05
0.012017435
-1.7811016e-05
0.011551581
0.010125074
-3.9906705e-06
0.0009572134
-1.5540649e-05
0.0027812868
-3.3920384e-05
0.0044747727
-5.8133471e-05
0.0060429561
-8.6528475e-05
0.0074880359
-0.00011583834
0.0088055249
-0.00013886506
0.0099750353
-0.00014270996
0.010943457
-0.0001193799
0.01162998
-8.0236222e-05
0.011982881
-4.2382117e-05
0.01197958
-1.4972581e-05
0.011524171
0.010110101
-3.938246e-06
0.00096115164
-1.5328322e-05
0.0027926768
-3.3417324e-05
0.0044928617
-5.7137748e-05
0.0060666766
-8.4651726e-05
0.0075155499
-0.00011221298
0.0088330861
-0.00013174064
0.009994563
-0.0001308474
0.010942564
-0.00010583198
0.011604964
-6.9555641e-05
0.011946605
-3.6155801e-05
0.011946181
-1.2551498e-05
0.011500567
0.01009755
-3.8876948e-06
0.00096503934
-1.512212e-05
0.0028039113
-3.2921708e-05
0.0045106613
-5.613392e-05
0.0060898888
-8.2698664e-05
0.0075421146
-0.00010831969
0.0088587072
-0.00012414735
0.010010391
-0.00011909197
0.010937509
-9.3435686e-05
0.011579308
-6.0156873e-05
0.011913326
-3.0745106e-05
0.011916769
-1.0455487e-05
0.011480277
0.010087094
-3.8385569e-06
0.00096887789
-1.4919993e-05
0.0028149927
-3.2427784e-05
0.0045281691
-5.5107851e-05
0.0061125688
-8.0636494e-05
0.0075676433
-0.00010410814
0.0088821788
-0.00011614034
0.010022423
-0.00010764918
0.010929017
-8.2162713e-05
0.011553821
-5.1858101e-05
0.011883022
-2.6007005e-05
0.011890918
-8.618748e-06
0.011462889
0.010078476
-3.790402e-06
0.0009726683
-1.4719951e-05
0.0028259223
-3.1929706e-05
0.0045453789
-5.4044567e-05
0.0061346837
-7.8430841e-05
0.0075920295
-9.9540739e-05
0.0089032887
-0.00010781836
0.0100307
-9.6682494e-05
0.010917882
-7.1946863e-05
0.011529086
-4.4503981e-05
0.011855579
-2.1829765e-05
0.011868244
-6.9937158e-06
0.011448053
0.010071482
-3.7428002e-06
0.0009764111
-1.4519945e-05
0.0028366994
-3.1421228e-05
0.0045622801
-5.292771e-05
0.0061561902
-7.604626e-05
0.0076151481
-9.4598633e-05
0.0089218411
-9.9310977e-05
0.010035413
-8.6303381e-05
0.010904874
-6.2703812e-05
0.011505486
-3.7963172e-05
0.011830838
-1.8125367e-05
0.011848406
-5.5453182e-06
0.011435473
0.010065937
-3.6952978e-06
0.00098010639
-1.4317763e-05
0.0028473219
-3.0895462e-05
0.0045788578
-5.1739149e-05
0.0061770339
-7.3447803e-05
0.0076368567
-8.9287325e-05
0.0089376806
-9.0760501e-05
0.010036886
-7.6573793e-05
0.010890687
-5.4344062e-05
0.011483256
-3.2125098e-05
0.011808619
-1.4823731e-05
0.011831104
-4.247032e-06
0.011424896
0.01006169
-3.6473962e-06
0.00098375379
-1.4110935e-05
0.0028577854
-3.034464e-05
0.0045950915
-5.0458783e-05
0.006197148
-7.0603636e-05
0.0076570016
-8.3639739e-05
0.0089507167
-8.2303612e-05
0.01003555
-6.7515821e-05
0.010875899
-4.6780188e-05
0.011462521
-2.6896754e-05
0.011788736
-1.1868384e-05
0.011816076
-3.0782792e-06
0.011416106
0.010058611
-3.5985286e-06
0.00098735232
-1.3896641e-05
0.0028680835
-2.9759894e-05
0.0046109548
-4.9064617e-05
0.0062164527
-6.7488582e-05
0.0076754255
-7.7715071e-05
0.0089609432
-7.4057335e-05
0.010031892
-5.9123302e-05
0.010860965
-3.9930382e-05
0.011443328
-2.2199838e-05
0.011771005
-9.2132665e-06
0.011803089
-2.0226553e-06
0.011408916
0.010056589
-3.5480254e-06
0.00099090034
-1.3671563e-05
0.0028782071
-2.9130947e-05
0.0046264142
-4.7533106e-05
0.0062348549
-6.4087903e-05
0.0076919803
-7.1592532e-05
0.0089684478
-6.6111066e-05
0.010026411
-5.1371343e-05
0.010846226
-3.371892e-05
0.011425676
-1.7967032e-05
0.011755253
-6.8191288e-06
0.011791942
-1.0665307e-06
0.011403163
0.010055522
-3.4950997e-06
0.00099439544
-1.3431819e-05
0.0028881438
-2.844603e-05
0.0046414284
-4.584036e-05
0.0062522492
-6.0401291e-05
0.0077065413
-6.5362266e-05
0.0089734088
-5.8525742e-05
0.010019574
-4.422432e-05
0.010831924
-2.8076846e-05
0.011409528
-1.413994e-05
0.011741316
-4.6490773e-06
0.011782451
-1.6916269e-07
0.011398683
0.010055353
-3.4388796e-06
0.00099783432
-1.3173132e-05
0.002897878
-2.7692438e-05
0.0046559477
-4.3964992e-05
0.0062685218
-5.6447117e-05
0.0077190234
-5.9117535e-05
0.0089760792
-5.1340452e-05
0.010011797
-3.7645505e-05
0.010818229
-2.2947398e-05
0.01139483
-1.0674687e-05
0.011729044
-2.6810197e-06
0.011774457
6.6550539e-07
0.011395337
0.010056019
-3.3783152e-06
0.0010012126
-1.2890439e-05
0.0029073902
-2.6855996e-05
0.0046699133
-4.1889311e-05
0.0062835551
-5.2260832e-05
0.0077293949
-5.2943415e-05
0.0089767618
-4.4574233e-05
0.010003428
-3.1595972e-05
0.010805251
-1.8279586e-05
0.011381514
-7.5311489e-06
0.011718295
-8.8299904e-07
0.011767809
1.4050121e-06
0.011393049
0.010057424
-3.3120986e-06
0.0010045247
-1.2577618e-05
0.0029166557
-2.5921009e-05
0.0046832566
-3.9601335e-05
0.0062972354
-4.7891273e-05
0.0077376848
-4.6909587e-05
0.0089757801
-3.8229295e-05
0.0099947476
-2.6033946e-05
0.010793056
-1.40243e-05
0.011369504
-4.6695788e-06
0.011708941
7.746193e-07
0.011762365
2.0667039e-06
0.011391757
0.01005949
-3.2386931e-06
0.0010077634
-1.2227715e-05
0.0029256447
-2.4871689e-05
0.0046959006
-3.7098723e-05
0.0063094625
-4.3397677e-05
0.0077439838
-4.1070839e-05
0.0089734533
-3.2299188e-05
0.0099859759
-2.0920795e-05
0.010781677
-1.0140037e-05
0.011358723
-2.0592332e-06
0.01170086
2.2778974e-06
0.011758028
2.6638095e-06
0.011391371
0.010062154
-3.1562772e-06
0.0010109197
-1.1832823e-05
0.0029343212
-2.369304e-05
0.0047077608
-3.4390262e-05
0.0063201597
-3.8842836e-05
0.0077484364
-3.5466368e-05
0.0089700768
-2.6770549e-05
0.0099772801
-1.6218899e-05
0.010771126
-6.5854527e-06
0.01134909
3.4739239e-07
0.011693927
3.6321295e-06
0.011754743
3.2022461e-06
0.011391801
0.010065356
-3.0627119e-06
0.0010139824
-1.1384179e-05
0.0029426427
-2.2372406e-05
0.0047187491
-3.1496512e-05
0.0063292838
-3.4287382e-05
0.0077512272
-3.0121907e-05
0.0089659113
-2.1625999e-05
0.0099687842
-1.189414e-05
0.010761394
-3.3304213e-06
0.011340526
2.5509866e-06
0.011688046
4.8615711e-06
0.011752432
3.6897687e-06
0.011392972
0.010069046
-2.9555338e-06
0.001016938
-1.0872488e-05
0.0029505597
-2.0901464e-05
0.004728778
-2.8448955e-05
0.0063368313
-2.9785815e-05
0.0077525641
-2.5052631e-05
0.0089611782
-1.6845507e-05
0.0099605771
-7.9112612e-06
0.01075246
-3.2676847e-07
0.011332941
4.5433684e-06
0.011683175
5.9753326e-06
0.011751
4.1312991e-06
0.011394816
0.010073177
-2.8319475e-06
0.0010197699
-1.0288358e-05
0.0029580161
-1.9277897e-05
0.0047377676
-2.5286904e-05
0.0063428403
-2.5383498e-05
0.0077526607
-2.0264996e-05
0.0089560597
-1.2407945e-05
0.00995272
-4.2418453e-06
0.010744293
2.4380839e-06
0.011326262
6.3570749e-06
0.011679256
6.9858407e-06
0.011750371
4.5313643e-06
0.011397271
0.010077709
-2.6889069e-06
0.0010224588
-9.6232109e-06
0.0029649504
-1.7507128e-05
0.0047456515
-2.2054205e-05
0.0063473874
-2.1116454e-05
0.0077517229
-1.5759085e-05
0.0089507023
-8.2896105e-06
0.0099452505
-8.4661497e-07
0.01073685
4.9538017e-06
0.011320461
8.0066313e-06
0.011676204
7.9032169e-06
0.011750475
4.8940879e-06
0.01140028
0.010082603
-2.52325e-06
0.0010249821
-8.8703625e-06
0.0029712975
-1.5602905e-05
0.004752384
-1.8795204e-05
0.0063505797
-1.7011621e-05
0.0077499394
-1.1530664e-05
0.0089452213
-4.4699303e-06
0.0099381898
2.2910821e-06
0.010730089
7.2496562e-06
0.011315503
9.5070473e-06
0.011673946
8.7355974e-06
0.011751246
5.2224414e-06
0.011403793
0.010087825
-2.3319745e-06
0.001027314
-8.0264224e-06
0.0029769919
-1.3586999e-05
0.0047579446
-1.5551678e-05
0.0063525443
-1.3087755e-05
0.0077474754
-7.5699905e-06
0.0089397036
-9.1678357e-07
0.0099315366
5.1654391e-06
0.010724007
9.3449725e-06
0.011311323
1.0872085e-05
0.011672419
9.4907349e-06
0.011752628
5.5194378e-06
0.011407764
0.010093345
-2.1126543e-06
0.0010294267
-7.0926583e-06
0.0029819719
-1.1487672e-05
0.0047623396
-1.2360747e-05
0.0063534174
-9.3574243e-06
0.0077444721
-3.8680664e-06
0.0089342142
2.3812251e-06
0.0099252873
7.7971587e-06
0.010718591
1.1256358e-05
0.011307864
1.2113289e-05
0.011671562
1.0175039e-05
0.011754566
5.7874667e-06
0.011412152
0.010099132
-1.8640274e-06
0.0010312907
-6.0761509e-06
0.0029861841
-9.3374764e-06
0.0047656009
-9.253593e-06
0.0063533335
-5.8255931e-06
0.0077410441
-4.0089492e-07
0.0089287895
5.4171154e-06
0.0099194693
1.0206031e-05
0.010713802
1.2999067e-05
0.011305071
1.3240962e-05
0.01167132
1.0794215e-05
0.011757013
6.0286873e-06
0.011416918
0.010105161
-1.5866535e-06
0.0010328774
-4.9902429e-06
0.0029895877
-7.1706415e-06
0.0047677813
-6.2552973e-06
0.0063524182
-2.4927828e-06
0.0077372816
2.8316142e-06
0.0089234651
8.206697e-06
0.0099140942
1.2408816e-05
0.0107096
1.4586487e-05
0.011302893
1.4264103e-05
0.011671643
1.1353215e-05
0.011759924
6.2449773e-06
0.011422026
0.010111406
-1.2835203e-06
0.0010341609
-3.8541932e-06
0.0029921583
-5.0208038e-06
0.004768948
-3.3849885e-06
0.0063507824
6.4615473e-07
0.0077332504
5.8152797e-06
0.008918296
1.0765798e-05
0.0099091437
1.4420674e-05
0.010705945
1.6030634e-05
0.011301283
1.5190794e-05
0.011672482
1.1856509e-05
0.011763258
6.4380335e-06
0.011427444
0.010117844
-9.6035403e-07
0.0010351212
-2.6918365e-06
0.0029938898
-2.9183705e-06
0.0047691745
-6.506568e-07
0.0063485147
3.5781812e-06
0.0077290216
8.5628217e-06
0.0089133113
1.3108442e-05
0.0099045981
1.6254369e-05
0.010702799
1.7341343e-05
0.011300196
1.6027491e-05
0.011673796
1.2307539e-05
0.011766978
6.609098e-06
0.011433143
0.010124453
-6.2535669e-07
0.0010357466
-1.5291321e-06
0.0029947936
-8.8739296e-07
0.0047685327
1.9290546e-06
0.0063456982
6.2872584e-06
0.0077246634
1.1083991e-05
0.0089085146
1.5247402e-05
0.0099004347
1.7921607e-05
0.010700125
1.8527627e-05
0.01129959
1.6780123e-05
0.011675544
1.2709514e-05
0.011771048
6.7593638e-06
0.011439093
0.010131212
-2.8822135e-07
0.0010360348
-3.9068761e-07
0.0029948961
1.0456934e-06
0.0047670964
4.3266493e-06
0.0063424173
8.7770934e-06
0.007720213
1.3387427e-05
0.0089039043
1.7193104e-05
0.009896629
1.9431813e-05
0.010697887
1.9596603e-05
0.011299425
1.7453236e-05
0.011677687
1.306476e-05
0.011775437
6.8896035e-06
0.011445268
0.010138102
4.0780591e-08
0.001035994
6.9665505e-07
0.0029942402
2.8485941e-06
0.0047649444
6.529611e-06
0.0063387362
1.1049532e-05
0.007715693
1.5480328e-05
0.0088994735
1.8954109e-05
0.0098931552
2.0792613e-05
0.010696048
2.055392e-05
0.011299664
1.8050324e-05
0.011680191
1.3374965e-05
0.011780112
7.0003224e-06
0.011451643
0.010145102
3.5067624e-07
0.0010356434
1.7048736e-06
0.002992886
4.4971059e-06
0.0047621522
8.5308196e-06
0.0063347025
1.310578e-05
0.0077111181
1.7368101e-05
0.0088952112
2.0536856e-05
0.0098899864
2.2009627e-05
0.010694575
2.1403575e-05
0.01130027
1.8573663e-05
0.011683021
1.3641045e-05
0.011785045
7.0916525e-06
0.011458192
0.010152194
6.3199792e-07
0.0010350114
2.6138123e-06
0.0029909042
5.9772301e-06
0.0047587888
1.0324569e-05
0.0063303552
1.4946371e-05
0.0077064963
1.9054384e-05
0.0088911031
2.1945672e-05
0.0098870952
2.3086464e-05
0.010693434
2.2147876e-05
0.011301209
1.9024277e-05
0.011686144
1.3863113e-05
0.011790206
7.163364e-06
0.011464892
0.010159357
8.7876888e-07
0.0010341326
3.411403e-06
0.0029883715
7.2795914e-06
0.0047549206
1.1906978e-05
0.0063257278
1.6571595e-05
0.0077018317
2.0541474e-05
0.0088871333
2.3183144e-05
0.0098844535
2.4025017e-05
0.010692593
2.2787677e-05
0.011302446
1.940208e-05
0.01168953
1.4040563e-05
0.011795568
7.2148781e-06
0.011471717
0.010166572
1.0879077e-06
0.0010330447
4.0915748e-06
0.0029853679
8.39955e-06
0.0047506126
1.3276316e-05
0.006320851
1.7981915e-05
0.0076971261
2.1830715e-05
0.0088832845
2.4250435e-05
0.0098820338
2.4825692e-05
0.010692017
2.3322505e-05
0.011303949
1.9705968e-05
0.011693146
1.4172122e-05
0.011801101
7.2453197e-06
0.011478644
0.010173817
1.2589005e-06
0.0010317858
4.6536788e-06
0.0029819731
9.3371196e-06
0.0047459292
1.4433381e-05
0.0063157548
1.9178509e-05
0.0076923809
2.2923051e-05
0.0088795399
2.5147763e-05
0.0098798091
2.5487786e-05
0.010691677
2.3750861e-05
0.011305686
1.9934012e-05
0.011696963
1.4255965e-05
0.011806779
7.2535436e-06
0.011485647
0.010181071
1.3932168e-06
0.0010303926
5.1015263e-06
0.0029782648
1.0096618e-05
0.0047409341
1.5381743e-05
0.0063104697
2.0163807e-05
0.0076875989
2.3819617e-05
0.0088758841
2.5874939e-05
0.0098777537
2.6009935e-05
0.010691542
2.4070553e-05
0.011307626
2.0083701e-05
0.01170095
1.4289871e-05
0.011812573
7.2382191e-06
0.011492698
0.010188309
1.4936564e-06
0.0010288989
5.4422442e-06
0.0029743162
1.0686073e-05
0.0047356903
1.6127818e-05
0.0063050279
2.0941935e-05
0.0076827848
2.4522315e-05
0.0088723037
2.6431936e-05
0.0098758441
2.6390613e-05
0.010691584
2.4279098e-05
0.011309737
2.0152243e-05
0.011705077
1.4271427e-05
0.011818454
7.1979465e-06
0.011499772
0.010195507
1.5637642e-06
0.0010273352
5.6851373e-06
0.0029701948
1.1116463e-05
0.0047302589
1.6680742e-05
0.0062994636
2.1519024e-05
0.0076779465
2.5034333e-05
0.0088687884
2.681947e-05
0.009874059
2.6628679e-05
0.010691774
2.4374203e-05
0.011311992
2.0136938e-05
0.011709314
1.4198278e-05
0.011824393
7.1313485e-06
0.011506839
0.010202639
1.6073724e-06
0.0010257278
5.8406792e-06
0.0029659615
1.1400859e-05
0.0047246988
1.7052021e-05
0.0062938125
2.1903304e-05
0.0076730952
2.5360486e-05
0.0088653312
2.7039441e-05
0.00987238
2.6723833e-05
0.01069209
2.4354164e-05
0.011314361
2.0035514e-05
0.011713633
1.4068377e-05
0.01183036
7.0372496e-06
0.01151387
0.010209676
1.6282845e-06
0.0010240995
5.9197117e-06
0.0029616701
1.1553607e-05
0.0047190649
1.7255072e-05
0.006288111
2.2105041e-05
0.0076682452
2.5507448e-05
0.0088619288
2.7095318e-05
0.0098707921
2.6677059e-05
0.010692508
2.4218315e-05
0.01131682
1.9846502e-05
0.011718005
1.3880249e-05
0.011836326
6.91477e-06
0.011520835
0.010216591
1.630079e-06
0.0010224694
5.932857e-06
0.0029573673
1.1589582e-05
0.0047134081
1.7304665e-05
0.0062823959
2.213629e-05
0.0076634136
2.5483759e-05
0.0088585814
2.6992327e-05
0.0098692836
2.6490901e-05
0.01069301
2.3967312e-05
0.011319344
1.9569509e-05
0.011722403
1.3633211e-05
0.011842262
6.7634775e-06
0.011527705
0.010223354
1.6160066e-06
0.0010208534
5.8901348e-06
0.0029530932
1.1523592e-05
0.0047077747
1.7216375e-05
0.0062767031
2.2010566e-05
0.0076586194
2.5299736e-05
0.0088552922
2.673754e-05
0.0098678458
2.6169662e-05
0.010693578
2.3603398e-05
0.01132191
1.9205462e-05
0.0117268
1.3327552e-05
0.01184814
6.5834556e-06
0.011534449
0.010229937
1.5889485e-06
0.0010192645
5.8007362e-06
0.0029488814
1.1369912e-05
0.0047022055
1.7006058e-05
0.006271067
2.1742423e-05
0.007653883
2.4967224e-05
0.0088520674
2.6339779e-05
0.0098664732
2.5719431e-05
0.010694198
2.3130479e-05
0.011324499
1.8756726e-05
0.011731174
1.2964647e-05
0.011853932
6.3753967e-06
0.011541038
0.010236313
1.5514158e-06
0.001017713
5.6729231e-06
0.0029447599
1.1141982e-05
0.0046967364
1.6689413e-05
0.0062655196
2.1347045e-05
0.0076492254
2.4499296e-05
0.0088489151
2.5809447e-05
0.0098651631
2.5148018e-05
0.010694859
2.2554155e-05
0.011327093
1.8227156e-05
0.011735501
1.2547005e-05
0.011859613
6.1406061e-06
0.011547445
0.010242453
1.505571e-06
0.0010162075
5.5140089e-06
0.0029407514
1.0852205e-05
0.0046913982
1.6281627e-05
0.0062600901
2.0839845e-05
0.0076446672
2.3909899e-05
0.0088458451
2.5158268e-05
0.0098639147
2.4464782e-05
0.010695553
2.1881606e-05
0.011329676
1.7622045e-05
0.011739761
1.2078241e-05
0.011865156
5.8809937e-06
0.011553642
0.010248334
1.4532595e-06
0.0010147542
5.3303909e-06
0.0029368743
1.0511852e-05
0.0046862168
1.5797108e-05
0.0062548049
2.0236103e-05
0.0076402282
2.3213486e-05
0.0088428677
2.4398952e-05
0.0098627292
2.3680361e-05
0.010696271
2.112139e-05
0.011332235
1.6947972e-05
0.011743934
1.156298e-05
0.011870541
5.599036e-06
0.011559606
0.010253933
1.396047e-06
0.0010133582
5.1276174e-06
0.0029331427
1.0131042e-05
0.0046812134
1.5249313e-05
0.0062496866
1.9550675e-05
0.0076359268
2.242468e-05
0.0088399937
2.3544881e-05
0.009861609
2.2806401e-05
0.01069701
2.0283227e-05
0.011334758
1.6212629e-05
0.011748005
1.1006717e-05
0.011875747
5.2976653e-06
0.011565315
0.010259231
1.335255e-06
0.0010120229
4.9104635e-06
0.0029295675
9.7187575e-06
0.0046764051
1.4650629e-05
0.0062447547
1.8797748e-05
0.0076317797
2.1557954e-05
0.0088372335
2.2609751e-05
0.0098605572
2.18552e-05
0.010697765
1.937766e-05
0.011337235
1.5424545e-05
0.011751958
1.0415622e-05
0.011880756
4.9801955e-06
0.01157075
0.010264211
1.2719943e-06
0.0010107509
4.683016e-06
0.0029261565
9.2829071e-06
0.0046718052
1.4012325e-05
0.0062400253
1.7990671e-05
0.0076278014
2.0627366e-05
0.0088345968
2.1607273e-05
0.0098595773
2.0839406e-05
0.010698532
1.8415785e-05
0.011339659
1.4592835e-05
0.011755781
9.7963373e-06
0.011885553
4.6501799e-06
0.011575897
0.010268862
1.2071959e-06
0.0010095437
4.4487537e-06
0.002922915
8.830397e-06
0.0046674235
1.3344544e-05
0.0062355112
1.7141831e-05
0.0076240041
1.9646345e-05
0.0088320923
2.0550888e-05
0.0098586728
1.97717e-05
0.010699312
1.7408926e-05
0.011342022
1.3726915e-05
0.011759463
9.1557563e-06
0.011890124
4.3112976e-06
0.011580741
0.010273173
1.1416366e-06
0.0010084021
4.2106235e-06
0.002919846
8.367216e-06
0.0046632669
1.2656324e-05
0.0062312221
1.6262574e-05
0.0076203978
1.8627517e-05
0.0088297273
1.9453528e-05
0.0098578468
1.866452e-05
0.010700101
1.6368351e-05
0.011344318
1.2836239e-05
0.011762995
8.5008133e-06
0.011894459
3.9672365e-06
0.011585275
0.01027714
1.0759629e-06
0.0010073261
3.9711099e-06
0.0029169508
7.8985225e-06
0.0046593395
1.1955651e-05
0.0062271649
1.5363187e-05
0.0076169903
1.7582598e-05
0.0088275079
1.8327441e-05
0.0098571019
1.7529839e-05
0.010700898
1.5305037e-05
0.011346543
1.1930066e-05
0.01176637
7.8382905e-06
0.011898551
3.6215715e-06
0.011589491
0.010280762
1.0107096e-06
0.0010063154
3.7322958e-06
0.0029142292
7.428728e-06
0.0046556431
1.1249514e-05
0.0062233441
1.445288e-05
0.0076137869
1.6522303e-05
0.0088254385
1.7184029e-05
0.0098564402
1.6378961e-05
0.010701703
1.4229436e-05
0.011348692
1.1017249e-05
0.011769582
7.1746633e-06
0.011902394
3.2776941e-06
0.011593388
0.010284039
9.4631781e-07
0.0010053691
3.4959184e-06
0.0029116796
6.961583e-06
0.0046521774
1.0543985e-05
0.0062197617
1.3539834e-05
0.0076107911
1.5456334e-05
0.008823522
1.6033779e-05
0.0098558628
1.52224e-05
0.010702515
1.3151342e-05
0.011350763
1.0106089e-05
0.011772627
6.5159621e-06
0.011905984
2.9387151e-06
0.011596966
0.010286978
8.8314777e-07
0.0010044859
3.2634151e-06
0.0029092994
6.5002473e-06
0.0046489406
9.8442852e-06
0.0062164177
1.2631221e-05
0.0076080042
1.4393347e-05
0.0088217599
1.4886182e-05
0.0098553699
1.4069768e-05
0.010703331
1.2079743e-05
0.011352753
9.2041966e-06
0.011775503
5.8676811e-06
0.01190932
2.6074396e-06
0.011600226
0.010289585
8.2149194e-07
0.0010036645
3.0359664e-06
0.0029070849
6.0473636e-06
0.0046459292
9.154871e-06
0.0062133102
1.1733279e-05
0.0076054257
1.334099e-05
0.0088201522
1.3749724e-05
0.0098549612
1.2929723e-05
0.010704151
1.1022763e-05
0.01135466
8.3184307e-06
0.011778207
5.2347192e-06
0.011912404
2.2863194e-06
0.011603174
0.010291872
7.6158472e-07
0.0010029029
2.8145313e-06
0.0029050319
5.6051193e-06
0.0046431386
8.4795031e-06
0.0062104358
1.0851368e-05
0.0076030539
1.2305936e-05
0.0088186976
1.263189e-05
0.0098546352
1.1809947e-05
0.010704973
9.9876125e-06
0.011356483
7.4548419e-06
0.01178074
4.6213379e-06
0.011915238
1.9774436e-06
0.011605818
0.010293849
7.036112e-07
0.0010021993
2.5998781e-06
0.0029031357
5.1753027e-06
0.0046405632
7.8213179e-06
0.0062077898
9.9900391e-06
0.0076008852
1.1293927e-05
0.0088173937
1.1539179e-05
0.00985439
1.0717142e-05
0.010705795
8.9805703e-06
0.011358219
6.6186549e-06
0.011783102
4.0311636e-06
0.011917825
1.6825432e-06
0.011608167
0.010295532
6.4771439e-07
0.0010015515
2.3926115e-06
0.0029013908
4.7593538e-06
0.0046381964
7.1828973e-06
0.0062053663
9.1531042e-06
0.007598915
1.0309837e-05
0.008816237
1.0477159e-05
0.0098542227
9.6570606e-06
0.010706615
8.0070043e-06
0.011359869
5.8142836e-06
0.011785295
3.4671826e-06
0.011920172
1.4029912e-06
0.011610231
0.010296935
5.9400145e-07
0.0010009575
2.1931953e-06
0.0028997916
4.3584082e-06
0.0046360312
6.5663267e-06
0.0062031583
8.343702e-06
0.0075971376
9.357732e-06
0.008815223
9.4504979e-06
0.0098541299
8.6345279e-06
0.010707431
7.0713859e-06
0.011361433
5.0453399e-06
0.011787321
2.9317706e-06
0.011922286
1.1398269e-06
0.011612023
0.010298075
5.4254896e-07
0.001000415
2.001972e-06
0.0028983322
3.9733362e-06
0.0046340599
5.9732532e-06
0.0062011584
7.5643629e-06
0.0075955465
8.4409332e-06
0.0088143464
8.4630348e-06
0.0098541078
7.6535009e-06
0.010708241
6.1773327e-06
0.011362909
4.3146773e-06
0.011789183
2.4267207e-06
0.011924174
8.937773e-07
0.011613556
0.010298968
4.9340753e-07
0.00099992159
1.8191804e-06
0.0028970064
3.6047784e-06
0.0046322743
5.4049368e-06
0.0061993583
6.8170738e-06
0.0075941343
7.5620855e-06
0.0088136014
7.5178385e-06
0.009854152
6.7171246e-06
0.010709041
5.3276719e-06
0.011364298
3.6244409e-06
0.011790887
1.9532866e-06
0.011925845
6.6527343e-07
0.011614844
0.010299634
4.4660588e-07
0.00099947498
1.6449714e-06
0.002895808
3.2531779e-06
0.0046306661
4.8623003e-06
0.0061977491
6.1033381e-06
0.0075928933
6.7232217e-06
0.0088129815
6.6172753e-06
0.009854258
5.8277955e-06
0.010709831
4.524493e-06
0.011365601
2.976126e-06
0.011792435
1.5122396e-06
0.011927309
4.5450894e-07
0.011615902
0.010300088
4.0215547e-07
0.00099907282
1.479426e-06
0.0028947308
2.9188186e-06
0.0046292267
4.3459925e-06
0.006196322
5.4242637e-06
0.007591815
5.9258776e-06
0.0088124799
5.7631416e-06
0.0098544207
4.9873184e-06
0.010710607
3.7693252e-06
0.011366819
2.3707668e-06
0.011793834
1.1040569e-06
0.011928575
2.6158089e-07
0.011616744
0.01030035
3.6005328e-07
0.00099871277
1.3225663e-06
0.0028937682
2.601851e-06
0.0046279474
3.8564284e-06
0.0061950674
4.7806187e-06
0.0075908908
5.1711545e-06
0.0088120893
4.9567404e-06
0.0098546351
4.1969842e-06
0.010711366
3.0632312e-06
0.011367953
1.8090665e-06
0.011795088
7.2929042e-07
0.011929655
8.8996862e-08
0.011617384
0.010300439
3.2027899e-07
0.00099839249
1.1743432e-06
0.0028929142
2.3022611e-06
0.0046268195
3.3937318e-06
0.0061939759
4.1727341e-06
0.0075901118
4.4595696e-06
0.0088118025
4.1986567e-06
0.009854896
3.4572696e-06
0.010712108
2.4063958e-06
0.011369004
1.2908577e-06
0.011796203
3.8766181e-07
0.011930558
-6.2297208e-08
0.011617834
0.010300376
2.8279698e-07
0.0009981097
1.034645e-06
0.0028921623
2.0198891e-06
0.0046258342
2.9577678e-06
0.006193038
3.6005503e-06
0.007589469
3.7911179e-06
0.0088116119
3.4888412e-06
0.0098551983
2.7679452e-06
0.010712829
1.7983707e-06
0.011369974
8.1582439e-07
0.011797186
8.1244127e-08