/*--------------------------------*- C++ -*----------------------------------*\
| =========                 |                                                 |
| \\      /  F ield         | OpenFOAM: The Open Source CFD Toolbox           |
|  \\    /   O peration     | Version:  2506                                  |
|   \\  /    A nd           | Website:  www.openfoam.com                      |
|    \\/     M anipulation  |                                                 |
\*---------------------------------------------------------------------------*/
FoamFile
{
    version     2.0;
    format      ascii;
    arch        "LSB;label=32;scalar=64";
    class       volVectorField;
    location    "14000/water";
    object      U;
}
// * * * * * * * * * * * * * * * * * * * * * * * * * * * * * * * * * * * * * //

dimensions      [0 1 -1 0 0 0 0];

internalField   nonuniform List<vector> 
2600
(
(0.2509291 -6.6886033e-05 -9.6548547e-19)
(0.25093316 -0.00014739222 -3.1233963e-18)
(0.25094167 -0.00023143146 2.4080806e-20)
(0.2509543 -0.00031980044 -6.4570091e-19)
(0.25097092 -0.0004082391 -6.0327538e-20)
(0.25099124 -0.00049673665 1.9262504e-19)
(0.25101467 -0.0005856609 1.5575131e-19)
(0.25103908 -0.00067482201 1.8673356e-19)
(0.25105541 -0.00075972197 1.2114946e-19)
(0.25102652 -0.00083857781 3.341334e-20)
(0.25079811 -0.00098580402 -4.1246459e-20)
(0.24954942 -0.001485464 -1.9276312e-19)
(0.2411817 0.0014904344 -4.605832e-19)
(0.25290631 -5.2391824e-05 -1.4496351e-18)
(0.25291356 -0.00012867936 -3.3487556e-18)
(0.25292967 -0.00020232594 -1.87555e-19)
(0.25295369 -0.00027812692 -5.3779239e-19)
(0.25298503 -0.00035187867 5.3766046e-20)
(0.25302278 -0.00042368282 5.6754254e-20)
(0.25306456 -0.0004936843 1.5497558e-20)
(0.25310219 -0.00056251339 1.1163712e-19)
(0.25310631 -0.00062550536 2.1568274e-19)
(0.25297401 -0.00066089399 1.4888008e-19)
(0.25231856 -0.00068576655 1.9383421e-20)
(0.24919071 -0.0011507908 -2.6284093e-19)
(0.23317376 0.00055016191 -4.6834449e-19)
(0.25485703 -5.0201261e-05 -1.8243305e-20)
(0.25486389 -0.00012463928 -1.2201873e-18)
(0.2548791 -0.00019574884 -1.6391357e-18)
(0.2549016 -0.00026956178 2.6082065e-19)
(0.25493052 -0.00034177627 2.8699491e-19)
(0.25496396 -0.00041257844 3.5982524e-20)
(0.25499618 -0.00048173979 -3.6185059e-20)
(0.25500857 -0.00054996705 4.2806192e-19)
(0.25494172 -0.00061637669 4.7168006e-19)
(0.2546073 -0.0006602417 1.0826076e-19)
(0.25332071 -0.00063871076 3.7595071e-20)
(0.2478214 -0.00092597142 -2.597614e-19)
(0.22526486 0.00012340436 -5.1100414e-19)
(0.25664521 -4.974385e-05 3.2120923e-18)
(0.25665224 -0.00012488064 5.8844518e-19)
(0.2566674 -0.00019721364 -1.5200759e-19)
(0.2566896 -0.0002720698 3.5584643e-19)
(0.25671747 -0.00034495172 2.3362125e-19)
(0.25674738 -0.00041609227 4.5077569e-20)
(0.25676826 -0.0004848948 3.2449911e-19)
(0.25674667 -0.00055096518 4.6734538e-19)
(0.25658539 -0.00061444887 5.8807925e-20)
(0.2559957 -0.0006636637 6.2542409e-20)
(0.2539403 -0.00063277351 -1.6487616e-20)
(0.24583249 -0.00077044467 -3.2749741e-19)
(0.21800982 -5.9385922e-05 -4.602149e-19)
(0.25841323 -4.8556775e-05 1.7098914e-18)
(0.2584204 -0.00012219546 8.7019454e-19)
(0.25843571 -0.00019301892 1.2481748e-18)
(0.25845781 -0.00026625064 -3.8322166e-19)
(0.25848442 -0.00033744492 -3.5679222e-21)
(0.25850914 -0.00040689654 5.1184226e-20)
(0.25851346 -0.00047389151 1.5366253e-19)
(0.25844542 -0.00053705871 -6.0265274e-20)
(0.25816424 -0.00059536594 -1.1757217e-21)
(0.25726648 -0.00064373127 5.4660424e-20)
(0.25431322 -0.00061442321 -1.0958964e-19)
(0.24352458 -0.00065114414 -2.6035239e-19)
(0.21163262 -0.00012321892 -3.6789032e-19)
(0.26015467 -4.709344e-05 3.7384585e-19)
(0.26016187 -0.0001185153 1.1709311e-18)
(0.26017704 -0.0001870764 1.0843442e-18)
(0.2601984 -0.00025799462 5.1434346e-19)
(0.26022227 -0.00032687702 3.6048482e-20)
(0.26023853 -0.0003939878 4.2217822e-20)
(0.26021927 -0.00045855461 -3.9168383e-20)
(0.26009115 -0.00051865148 -6.0641344e-20)
(0.25966515 -0.00057157394 -5.5141594e-20)
(0.2584067 -0.0006148087 -6.4026726e-20)
(0.25443266 -0.00058544056 -1.1195218e-19)
(0.24102793 -0.0005571206 1.6825975e-20)
(0.20612335 -0.00013293671 -2.9704926e-19)
(0.26183846 -4.5390268e-05 -2.4404259e-19)
(0.26184561 -0.00011435405 1.715311e-18)
(0.26186042 -0.00018050108 1.1149081e-18)
(0.26188043 -0.00024892327 1.0739794e-18)
(0.26190008 -0.00031528561 -1.43857e-20)
(0.26190445 -0.00037977026 -1.5397567e-19)
(0.26185458 -0.00044151446 1.1658916e-19)
(0.2616533 -0.00049832849 -1.2903946e-19)
(0.26105826 -0.00054618084 -3.0148778e-19)
(0.25938354 -0.00058222647 -1.269654e-19)
(0.25426994 -0.00054801504 -3.2964581e-20)
(0.23842933 -0.00047868139 -5.1991088e-20)
(0.20141646 -0.00011963306 -4.0741727e-19)
(0.26345768 -4.3664882e-05 -1.9981295e-18)
(0.26346469 -0.00011008557 -3.187388e-19)
(0.26347885 -0.00017377013 1.4011094e-19)
(0.26349678 -0.00023963045 2.7526319e-19)
(0.26351051 -0.00030340684 1.4474234e-20)
(0.26349932 -0.00036518044 1.5117187e-20)
(0.26341166 -0.00042394823 -1.0108807e-19)
(0.2631242 -0.00047735793 -8.3814793e-20)
(0.26233468 -0.00052050214 -3.6541266e-20)
(0.26018092 -0.00054846095 -9.7203418e-20)
(0.25381559 -0.00050481858 -4.8267155e-20)
(0.23581666 -0.00040978299 8.261526e-20)
(0.19745226 -9.8494616e-05 -2.766439e-19)
(0.26501552 -4.2046877e-05 1.8536236e-18)
(0.26502225 -0.00010599907 5.531621e-19)
(0.26503542 -0.0001673021 1.0624182e-18)
(0.26505044 -0.00023067618 1.1276968e-18)
(0.26505633 -0.00029193976 3.695914e-19)
(0.26502564 -0.00035106733 2.3147247e-19)
(0.26489279 -0.0004068816 -1.8568355e-19)
(0.26450568 -0.00045685738 -1.8284695e-19)
(0.26349313 -0.00049549056 -4.6291662e-19)
(0.26078727 -0.00051473411 -6.5937684e-20)
(0.25307513 -0.00045847926 -1.073441e-19)
(0.23327192 -0.00034737981 2.9211885e-19)
(0.19416843 -7.6932879e-05 1.4852705e-20)
(0.2665165 -4.057706e-05 1.7830501e-18)
(0.26652283 -0.00010224007 1.6873458e-19)
(0.26653459 -0.00016134012 4.4419676e-19)
(0.26654572 -0.0002224043 6.7406198e-19)
(0.26654166 -0.00028132047 1.9832921e-19)
(0.26648729 -0.00033795567 1.2265662e-19)
(0.26630156 -0.0003909415 -1.4917353e-19)
(0.26580019 -0.00043752442 -3.7136294e-19)
(0.26453091 -0.00047164498 -3.4661944e-19)
(0.26118849 -0.00048140525 -9.103715e-20)
(0.25206937 -0.00041120617 -1.6147976e-19)
(0.23086314 -0.00029047959 -1.4453127e-19)
(0.19149027 -5.8333255e-05 -2.3025973e-19)
(0.26796591 -3.9276697e-05 -1.2644203e-18)
(0.26797166 -9.8886215e-05 -1.2600258e-18)
(0.26798155 -0.00015601486 -2.9787093e-19)
(0.26798768 -0.00021499986 5.9029953e-19)
(0.26797137 -0.00027178437 3.1548858e-19)
(0.26788889 -0.00032612646 4.0920299e-20)
(0.26764202 -0.00037645613 -1.6279413e-19)
(0.26700984 -0.00041972353 -1.393006e-19)
(0.26544297 -0.00044912486 -8.8496942e-20)
(0.26137042 -0.00044842588 -1.5548261e-19)
(0.25083979 -0.00036475941 -1.9067567e-19)
(0.22864123 -0.00023936528 -5.2234145e-19)
(0.18933265 -4.3854024e-05 -2.1693733e-19)
(0.26936985 -3.8151201e-05 -1.1813436e-18)
(0.26937484 -9.5961771e-05 -3.7448378e-19)
(0.26938229 -0.00015136516 2.3083323e-19)
(0.2693822 -0.00020851723 7.7223668e-19)
(0.26935114 -0.00026339986 3.0640055e-19)
(0.26923575 -0.00031565718 -3.9445711e-20)
(0.26891866 -0.00036350366 1.2211912e-19)
(0.26813622 -0.00040351927 7.2349766e-20)
(0.26622207 -0.00042777198 1.0422199e-21)
(0.26132397 -0.00041560855 -1.8210887e-19)
(0.24944814 -0.00032041762 -1.5123594e-19)
(0.22663743 -0.00019477817 -4.4376996e-19)
(0.18760708 -3.3365973e-05 -2.6917721e-19)
(0.27073452 -3.7186892e-05 3.150246e-19)
(0.27073851 -9.3441594e-05 -1.2160098e-19)
(0.27074291 -0.00014735094 7.8905171e-20)
(0.27073523 -0.00020290124 5.0166629e-19)
(0.27068668 -0.00025609589 2.6665956e-19)
(0.27053315 -0.00030645578 3.7936617e-20)
(0.27013553 -0.00035195662 1.3703619e-19)
(0.26917943 -0.00038871662 -1.0942581e-20)
(0.26685881 -0.00040716162 -1.9159929e-19)
(0.26105041 -0.00038281108 -2.4007934e-19)
(0.24796793 -0.00027903903 -1.881066e-19)
(0.2248628 -0.00015723519 -5.1072126e-19)
(0.18622942 -2.6089621e-05 -3.8672951e-19)
(0.27206549 -3.6358598e-05 2.485989e-19)
(0.27206822 -9.1270024e-05 -3.2693388e-20)
(0.27206885 -0.0001438843 -6.0373042e-21)
(0.27205207 -0.00019803069 8.4282364e-19)
(0.27198302 -0.00024971698 -7.0188569e-20)
(0.27178551 -0.0002983267 2.5653438e-19)
(0.27129541 -0.00034156266 3.626357e-19)
(0.27013718 -0.00037494839 -1.4609887e-19)
(0.26734241 -0.00038673535 -1.5226699e-19)
(0.2605654 -0.00035005845 -1.9255056e-19)
(0.24647172 -0.00024119444 -2.2769447e-19)
(0.22331131 -0.00012666962 -4.2685683e-19)
(0.18512583 -2.1076369e-05 -4.1658895e-19)
(0.27336737 -3.5638787e-05 -2.7755262e-19)
(0.27336856 -8.938186e-05 1.9147665e-19)
(0.27336463 -0.00014086217 8.0217858e-19)
(0.27333706 -0.00019376295 1.4821876e-19)
(0.27324415 -0.00024407934 -1.6013435e-19)
(0.27299604 -0.00029103798 3.7967408e-20)
(0.27239931 -0.00033202382 3.580272e-19)
(0.27100443 -0.00036176734 7.07611e-20)
(0.26766283 -0.00036596046 9.6957603e-20)
(0.25989992 -0.00031757793 -2.1008748e-19)
(0.24502002 -0.00020725745 -4.7053743e-19)
(0.22196569 -0.00010242448 -6.7574511e-20)
(0.18423545 -1.7507116e-05 -2.0077738e-19)
(0.27464382 -3.5002894e-05 1.3129816e-18)
(0.27464313 -8.7716017e-05 8.256724e-19)
(0.27463375 -0.00013818758 7.8000768e-19)
(0.2745935 -0.00018996324 2.3999311e-19)
(0.27447297 -0.00023900779 5.4135713e-19)
(0.27416661 -0.00028436529 1.7012673e-19)
(0.27344636 -0.00032304577 -4.1457472e-20)
(0.27177364 -0.00034871442 -2.447592e-20)
(0.26781391 -0.00034445792 -2.5397491e-19)
(0.25909705 -0.00028576382 -2.218884e-19)
(0.2436552 -0.00017740821 -3.6730828e-19)
(0.22080343 -8.3473062e-05 -4.0039512e-19)
(0.18351045 -1.4804616e-05 -5.3521717e-20)
(0.27589768 -3.4431105e-05 2.5325563e-18)
(0.27589473 -8.6221418e-05 1.4677665e-18)
(0.27587888 -0.00013577914 -2.1433605e-19)
(0.27582384 -0.00018651757 4.7067156e-20)
(0.27567139 -0.00023435206 5.373466e-19)
(0.27529788 -0.00027811161 2.3698941e-19)
(0.27443375 -0.00031435607 -2.077001e-19)
(0.27243556 -0.00033536392 -8.2520921e-20)
(0.26779662 -0.00032206948 -1.5953216e-19)
(0.25820551 -0.00025510598 -5.9625674e-20)
(0.24240122 -0.00015160163 -2.4547025e-20)
(0.21980119 -6.8691007e-05 -4.5622437e-19)
(0.18291435 -1.2618556e-05 -3.5490518e-19)
(0.27713109 -3.3908296e-05 1.6321717e-18)
(0.27712546 -8.4858001e-05 3.5837994e-19)
(0.27710201 -0.00013357264 1.9297984e-19)
(0.27702977 -0.00018333502 3.2442233e-19)
(0.27684047 -0.00022998947 5.5122502e-19)
(0.2763893 -0.00027211088 6.0802422e-21)
(0.27535691 -0.00030570399 -1.5153295e-19)
(0.2729805 -0.00032135787 -5.54921e-20)
(0.26762111 -0.00029886295 -1.5223467e-19)
(0.25727242 -0.00022610441 -6.7272727e-20)
(0.24126718 -0.00012956886 -2.1415106e-19)
(0.21893722 -5.7057438e-05 -2.0172118e-19)
(0.18241982 -1.0759086e-05 -2.6959471e-19)
(0.27834572 -3.3423243e-05 -1.5179003e-18)
(0.27833694 -8.3595438e-05 -2.7886665e-19)
(0.2783046 -0.00013151911 6.2920774e-19)
(0.27821241 -0.00018034488 8.9589949e-19)
(0.27798052 -0.00022582105 5.5631338e-20)
(0.27743925 -0.00026622306 -4.1020485e-20)
(0.27620962 -0.00029685485 2.105856e-19)
(0.27340008 -0.00030643644 -9.3457313e-20)
(0.26730692 -0.00027509383 -1.3427173e-19)
(0.25633756 -0.0001991843 -2.4886371e-19)
(0.24025214 -0.0001108758 -2.6915635e-19)
(0.21819234 -4.7749365e-05 -2.1807794e-19)
(0.18200662 -9.1303521e-06 -3.516777e-19)
(0.27954284 -3.2967675e-05 -2.6722175e-18)
(0.27953036 -8.2411064e-05 2.3212333e-19)
(0.27948767 -0.00012958149 1.1752577e-18)
(0.27937237 -0.00017749196 3.3490225e-20)
(0.27909121 -0.00022176546 3.4068534e-20)
(0.27844503 -0.00026032527 2.1411579e-19)
(0.27698441 -0.0002875873 1.8485679e-19)
(0.27368915 -0.00029046172 -7.4100429e-20)
(0.26688073 -0.00025114511 3.4036805e-20)
(0.25543062 -0.00017462895 -3.5626616e-20)
(0.2393495 -9.5013844e-05 -4.9228839e-20)
(0.21755 -4.0152298e-05 -6.8221003e-20)
(0.18165972 -7.6839506e-06 -1.5546538e-19)
(0.28072346 -3.253541e-05 2.6930315e-19)
(0.28070667 -8.1287793e-05 1.0059184e-18)
(0.28065194 -0.00012773124 4.9813896e-19)
(0.28050986 -0.0001747318 2.6949059e-19)
(0.28017156 -0.00021775303 1.7357481e-19)
(0.27940289 -0.00025430188 3.1864789e-19)
(0.27767312 -0.00027769789 3.3728192e-19)
(0.27384765 -0.00027342827 3.059427e-19)
(0.26637281 -0.00022746052 7.9840978e-20)
(0.2545711 -0.00015254849 -2.0700977e-19)
(0.23855012 -8.1484015e-05 -3.3895904e-19)
(0.21699614 -3.382742e-05 2.5268743e-20)
(0.18136794 -6.3925265e-06 1.0770523e-19)
(0.28188837 -3.2121656e-05 3.1165572e-18)
(0.28186655 -8.0212343e-05 1.8051598e-18)
(0.28179785 -0.00012594549 -3.9835443e-19)
(0.28162471 -0.00017202641 2.9347104e-19)
(0.28121999 -0.00021372065 3.7542599e-20)
(0.28030804 -0.00024803603 1.7880743e-19)
(0.27826773 -0.00026701328 1.6820902e-19)
(0.27388156 -0.00025545691 3.7474246e-19)
(0.26581311 -0.00020447966 6.6712091e-21)
(0.25377001 -0.00013289055 -4.0519742e-19)
(0.23784411 -6.9849908e-05 -3.5890483e-19)
(0.21651887 -2.8467144e-05 -8.2311822e-20)
(0.18112283 -5.2370842e-06 -7.2207047e-20)
(0.28303819 -3.1722487e-05 2.3088233e-18)
(0.28301052 -7.9173851e-05 1.7930436e-18)
(0.28292559 -0.00012420469 5.3837537e-20)
(0.28271638 -0.00016934096 -1.441935e-19)
(0.2822343 -0.00020960734 4.3882141e-19)
(0.28115476 -0.00024140494 1.7085829e-19)
(0.27876144 -0.00025540748 -1.4593018e-19)
(0.27380291 -0.00023677356 2.2830736e-19)
(0.26522808 -0.00018258167 6.6146669e-20)
(0.25303215 -0.00011548282 7.8178706e-20)
(0.23722187 -5.9756963e-05 1.5992735e-19)
(0.21610816 -2.3855678e-05 -4.4844684e-20)
(0.18091788 -4.2018459e-06 7.0614058e-20)
(0.28417339 -3.1334453e-05 -4.0396629e-19)
(0.28413893 -7.816282e-05 5.5823029e-19)
(0.28403512 -0.00012249081 3.1328447e-19)
(0.28378396 -0.00016664114 3.1441384e-19)
(0.28321158 -0.0002053501 -8.3655145e-20)
(0.28193659 -0.00023428041 7.8371791e-20)
(0.27914984 -0.00024281874 4.9763907e-19)
(0.27362851 -0.00021767781 5.3697933e-19)
(0.26463906 -0.00016204559 1.4047197e-19)
(0.25235823 -0.00010008755 -3.9453479e-19)
(0.23667446 -5.0928454e-05 -3.0060073e-19)
(0.21575559 -1.9839575e-05 -1.8081567e-19)
(0.18074793 -3.2726551e-06 2.8545105e-20)
(0.28529433 -3.0954306e-05 1.0386591e-18)
(0.28525196 -7.7170339e-05 -6.078075e-19)
(0.28512619 -0.000120786 1.419938e-18)
(0.28482614 -0.00016389139 3.4682348e-19)
(0.28414822 -0.00020087987 -1.7738658e-20)
(0.28264669 -0.00022653516 1.6052712e-19)
(0.27943202 -0.00022926077 4.2234398e-19)
(0.27337791 -0.00019850623 1.9085252e-20)
(0.26406181 -0.00014303342 7.4027289e-20)
(0.25174654 -8.6449714e-05 2.8331113e-20)
(0.23619383 -4.315112e-05 -4.0466568e-19)
(0.21545404 -1.6307516e-05 -2.8490466e-19)
(0.18060883 -2.4367356e-06 -5.4844112e-20)
(0.28640123 -3.0578785e-05 9.1319098e-19)
(0.28634965 -7.6187465e-05 -2.9409115e-19)
(0.28619826 -0.00011907139 9.3542544e-19)
(0.28584114 -0.00016105349 -1.0997374e-20)
(0.28503985 -0.00019611848 4.9051476e-19)
(0.2832784 -0.00021805402 1.6178515e-19)
(0.27961117 -0.00021482472 -1.7968396e-19)
(0.27307114 -0.00017959429 1.9329069e-20)
(0.26350715 -0.00012559661 2.0621315e-19)
(0.25119402 -7.4329005e-05 5.3018641e-19)
(0.23577276 -3.625941e-05 1.6395607e-19)
(0.21519748 -1.3176867e-05 -6.0596121e-20)
(0.18049716 -1.6827829e-06 5.3516887e-20)
(0.28749419 -3.0204451e-05 -4.5137693e-19)
(0.28743185 -7.5204719e-05 1.1738712e-18)
(0.28725056 -0.00011732616 -2.6356369e-19)
(0.28682673 -0.0001580853 6.6137565e-21)
(0.28588145 -0.00019097762 5.3807562e-19)
(0.28382593 -0.00020874814 1.4572739e-19)
(0.27969464 -0.0001996716 -2.4830517e-19)
(0.27272686 -0.00016124196 3.3592433e-20)
(0.26298189 -0.00010969949 6.1643146e-20)
(0.25069697 -6.3515047e-05 -2.8963389e-20)
(0.23540492 -3.0122563e-05 1.829544e-19)
(0.21498079 -1.0384813e-05 2.1959774e-20)
(0.18041 -1.0010088e-06 -6.6264292e-20)
(0.28857317 -2.9827534e-05 8.6390752e-20)
(0.28849825 -7.4211609e-05 1.0566519e-18)
(0.28828196 -0.00011552671 1.3881957e-19)
(0.28778008 -0.00015493914 2.0150614e-19)
(0.28666738 -0.00018536089 7.1814016e-19)
(0.28428521 -0.00019856896 3.1502088e-19)
(0.27969327 -0.00018401638 -1.5812222e-19)
(0.27236107 -0.00014368792 1.444795e-19)
(0.26248991 -9.5249873e-05 -9.4186245e-20)
(0.25025143 -5.3830553e-05 -1.3812537e-19)
(0.23508472 -2.463526e-05 -8.9726702e-21)
(0.21479959 -7.8824709e-06 -7.1639924e-20)
(0.18034487 -3.8305882e-07 -6.8655444e-20)
(0.28963798 -2.9443748e-05 -6.8970213e-19)
(0.28954832 -7.3196102e-05 7.0709272e-19)
(0.28929102 -0.00011364593 -7.9456125e-20)
(0.2886978 -0.00015155981 6.8517603e-19)
(0.28739174 -0.00017916927 1.0473907e-19)
(0.28465455 -0.00018751865 5.1708779e-19)
(0.27962017 -0.0001681064 6.4545637e-19)
(0.2719867 -0.00012709646 5.9929611e-19)
(0.26203302 -8.2127495e-05 1.5969181e-19)
(0.24985346 -4.5128096e-05 -4.9014092e-19)
(0.23480728 -1.971122e-05 -3.7018497e-19)
(0.21465012 -5.6309488e-06 -6.8736286e-20)
(0.18029962 1.7817052e-07 -5.2844132e-20)
(0.29068824 -2.9047996e-05 1.0708636e-18)
(0.29058125 -7.2143818e-05 8.6432584e-20)
(0.29027586 -0.0001116522 5.3683797e-19)
(0.28957586 -0.00014788247 4.780168e-19)
(0.28804865 -0.00017230925 2.2699536e-19)
(0.28493523 -0.00017565383 5.7099593e-19)
(0.2794894 -0.00015219576 7.317977e-19)
(0.2716136 -0.00011155657 2.7860136e-19)
(0.26161163 -7.0203509e-05 2.3136295e-19)
(0.24949925 -3.7283145e-05 1.4502362e-19)
(0.23456828 -1.5276996e-05 -9.0030398e-20)
(0.21452909 -3.5978231e-06 1.1546264e-19)
(0.18027234 6.8896173e-07 -6.3587437e-22)
(0.29172336 -2.863428e-05 2.2125323e-18)
(0.291596 -7.1037634e-05 2.9010237e-19)
(0.29123415 -0.00010950892 6.3410034e-19)
(0.29040962 -0.00014383256 1.621459e-19)
(0.28863287 -0.00016470428 8.0370229e-19)
(0.28513156 -0.00016308393 1.7600911e-19)
(0.27931466 -0.00013652202 1.2741816e-19)
(0.27124896 -9.7093501e-05 2.4485237e-19)
(0.26122524 -5.9353582e-05 1.6075415e-19)
(0.24918522 -3.0190107e-05 6.3583659e-19)
(0.23436395 -1.1270241e-05 4.3108762e-19)
(0.2144337 -1.7305122e-06 2.0100281e-19)
(0.18026136 1.1761822e-06 1.6843707e-19)
(0.29274252 -2.8196036e-05 2.0247992e-18)
(0.29259116 -6.9858463e-05 2.6459769e-18)
(0.29216305 -0.00010717577 6.0515674e-19)
(0.29119393 -0.00013933085 1.7211139e-20)
(0.28914031 -0.00015631031 3.8489115e-19)
(0.28525057 -0.0001499678 1.5029016e-19)
(0.27910837 -0.00012129293 -1.4391942e-19)
(0.2708978 -8.3692795e-05 -5.0471876e-20)
(0.26087272 -4.947155e-05 1.6778412e-19)
(0.24890802 -2.3766728e-05 1.7115207e-19)
(0.23419085 -7.6476302e-06 3.6827256e-19)
(0.21436056 -1.6252437e-08 2.0756365e-19)
(0.18026627 1.6403881e-06 2.5982963e-20)
(0.2937446 -2.77251e-05 1.4864776e-18)
(0.29356496 -6.8583194e-05 2.2165268e-18)
(0.29305914 -0.00010460504 1.1840625e-18)
(0.29192334 -0.00013429446 2.3487467e-20)
(0.28956868 -0.00014712077 1.7458971e-19)
(0.2853013 -0.00013649477 3.3003324e-19)
(0.27888121 -0.00010666834 1.2443466e-20)
(0.27056351 -7.1310449e-05 1.7876816e-19)
(0.26055265 -4.0462876e-05 1.7277774e-19)
(0.24866458 -1.7940254e-05 1.9670771e-19)
(0.23404606 -4.3539277e-06 3.0964887e-19)
(0.21430781 1.537371e-06 1.3090879e-19)
(0.18028522 2.0563428e-06 2.2433394e-20)
(0.29472815 -2.7211026e-05 3.4861724e-19)
(0.29451518 -6.7183249e-05 -2.013219e-19)
(0.29391842 -0.00010173907 9.0679725e-19)
(0.29259237 -0.00012864185 9.1587956e-19)
(0.28991788 -0.00013716949 -3.5010646e-19)
(0.28529394 -0.00012286451 1.7033207e-19)
(0.27864192 -9.2752927e-05 1.0398348e-18)
(0.27024822 -5.9882456e-05 9.8614237e-19)
(0.26026336 -3.2238694e-05 1.7813787e-19)
(0.24845204 -1.2642428e-05 -3.4817609e-19)
(0.23392646 -1.3359494e-06 -3.7474064e-19)
(0.21427448 2.9561096e-06 1.587375e-22)
(0.18031663 2.4262453e-06 2.7326217e-20)
(0.29569132 -2.6641402e-05 -6.3673471e-19)
(0.2954391 -6.5625549e-05 -1.1836401e-18)
(0.29473631 -9.8512687e-05 1.1697342e-18)
(0.29319592 -0.0001223057 9.7794726e-19)
(0.29019018 -0.00012653597 1.3873898e-20)
(0.28523889 -0.00010927517 4.0626297e-20)
(0.27839743 -7.9607299e-05 5.3221879e-19)
(0.26995312 -4.9342283e-05 3.4726801e-19)
(0.26000309 -2.4722254e-05 3.0551968e-19)
(0.24826773 -7.8151828e-06 1.0743613e-19)
(0.23382956 1.4150563e-06 -2.3131252e-19)
(0.21425921 4.2390063e-06 -1.8046501e-19)
(0.18035932 2.7543737e-06 -1.6528481e-20)
(0.29663173 -2.600118e-05 -1.6082851e-18)
(0.29633339 -6.3871154e-05 2.3882417e-19)
(0.29550768 -9.4853895e-05 1.816762e-19)
(0.29372976 -0.0001152412 3.9328752e-19)
(0.29039011 -0.00011533899 7.6774146e-19)
(0.28514604 -9.5905418e-05 2.9424465e-19)
(0.27815305 -6.7254195e-05 -2.1580003e-19)
(0.26967872 -3.962341e-05 1.2498165e-19)
(0.25977003 -1.7841947e-05 4.1796179e-19)
(0.24810923 -3.3840621e-06 4.6106242e-19)
(0.23375398 3.9311249e-06 2.2976052e-19)
(0.21425996 5.3905583e-06 -3.605394e-20)
(0.18041214 3.0443087e-06 1.3181178e-19)
(0.29754645 -2.5272389e-05 -1.658606e-19)
(0.29719411 -6.187445e-05 2.8630234e-18)
(0.29622706 -9.0687762e-05 -9.5636041e-20)
(0.29419101 -0.0001074348 3.7688586e-19)
(0.290524 -0.00010372739 6.5565158e-19)
(0.28502427 -8.2903408e-05 3.7850822e-19)
(0.27791278 -5.5688995e-05 1.1562764e-19)
(0.269425 -3.0662303e-05 -9.9247452e-20)
(0.25956226 -1.1539755e-05 1.3808162e-19)
(0.24797362 6.7583376e-07 -2.3210232e-20)
(0.23369893 6.2276836e-06 5.6221917e-20)
(0.21427537 6.4296289e-06 1.3917348e-19)
(0.18047413 3.3031011e-06 1.7274463e-20)
(0.29843186 -2.4434088e-05 1.2772915e-18)
(0.29801658 -5.9582978e-05 2.2997977e-18)
(0.29688883 -8.5943396e-05 8.605274e-19)
(0.29457851 -9.8910851e-05 3.4718094e-19)
(0.29059935 -9.1868445e-05 5.6844747e-19)
(0.28488126 -7.0382643e-05 1.8953669e-19)
(0.27767954 -4.4890705e-05 1.3539744e-19)
(0.26919163 -2.2395864e-05 7.3332207e-20)
(0.25937815 -5.7364269e-06 2.2131654e-20)
(0.24785972 4.3904926e-06 3.667038e-19)
(0.2336621 8.3016288e-06 1.9518836e-19)
(0.21430404 7.3667435e-06 2.1052373e-21)
(0.18054443 3.5355219e-06 4.2680041e-21)
(0.29928359 -2.3462153e-05 1.8390808e-18)
(0.29879547 -5.6937591e-05 3.9270153e-19)
(0.29748763 -8.056162e-05 3.7431252e-19)
(0.29489309 -8.9732426e-05 9.0581147e-19)
(0.29062422 -7.9932332e-05 -1.060259e-19)
(0.28472341 -5.8420085e-05 6.6763847e-19)
(0.27745536 -3.4827498e-05 1.1667652e-18)
(0.26897783 -1.4770356e-05 1.0304504e-18)
(0.25921519 -3.9172625e-07 3.1700492e-19)
(0.24776702 7.7921354e-06 -1.5575417e-19)
(0.23364198 1.0181202e-05 -2.9396958e-19)
(0.21434474 8.2148524e-06 -1.0891685e-19)
(0.18062225 3.7450805e-06 -4.4281845e-20)
(0.30009637 -2.232973e-05 6.4903402e-19)
(0.29952479 -5.3875496e-05 2.010725e-18)
(0.29801875 -7.4505248e-05 4.8063456e-19)
(0.29513749 -7.9999932e-05 7.2166465e-19)
(0.29060659 -6.8080542e-05 4.0229246e-19)
(0.28455591 -4.7062417e-05 7.8326609e-19)
(0.27724164 -2.5459136e-05 7.9398885e-19)
(0.2687829 -7.7155539e-06 3.6520556e-19)
(0.25907248 4.515529e-06 1.7115594e-19)
(0.24769347 1.088153e-05 -1.5486018e-19)
(0.23363709 1.1885002e-05 -4.250601e-20)
(0.21439637 8.9838508e-06 1.5792195e-20)
(0.18070689 3.93443e-06 -1.4533863e-19)
(0.30086402 -2.1007836e-05 9.49187e-19)
(0.30019808 -5.0335133e-05 4.2079395e-18)
(0.29847858 -6.7767483e-05 2.6116229e-18)
(0.29531607 -6.9843583e-05 -7.1956005e-19)
(0.29055391 -5.6454356e-05 5.5998728e-19)
(0.28438287 -3.6331924e-05 2.4168438e-19)
(0.27703906 -1.6748132e-05 -2.9117392e-19)
(0.2686053 -1.1873702e-06 -5.3909771e-19)
(0.25894976 9.0215063e-06 -1.9306779e-19)
(0.24763751 1.3689961e-05 2.4334334e-19)
(0.23364609 1.3431227e-05 4.6201823e-19)
(0.21445793 9.6807742e-06 -1.4001133e-19)
(0.18079772 4.105072e-06 -1.1374653e-19)
(0.30157943 -1.9467188e-05 1.2793219e-18)
(0.30080863 -4.626433e-05 3.1153947e-18)
(0.29886499 -6.0378803e-05 1.4884522e-18)
(0.29543444 -5.9413905e-05 2.5297858e-20)
(0.29047286 -4.5169292e-05 2.322983e-19)
(0.28420752 -2.6229051e-05 1.0631951e-19)
(0.27684812 -8.6361473e-06 -3.7485384e-19)
(0.26844451 4.8387808e-06 -5.2803341e-19)
(0.25884557 1.3135904e-05 -1.9840922e-20)
(0.2475977 1.6244218e-05 2.9714358e-19)
(0.23366777 1.4835444e-05 2.3263336e-19)
(0.21452853 1.0312031e-05 -9.5096826e-20)
(0.18089414 4.2585361e-06 -9.7881223e-20)
(0.30223466 -1.7681565e-05 2.2518226e-18)
(0.3013499 -4.1630417e-05 -1.1368352e-18)
(0.29917751 -5.2409514e-05 2.5928023e-21)
(0.29549883 -4.8869382e-05 9.734138e-19)
(0.29036918 -3.4313598e-05 9.7886202e-19)
(0.28403214 -1.674745e-05 4.6589514e-19)
(0.27666826 -1.0890405e-06 4.619971e-19)
(0.26830087 1.0391043e-05 6.5689538e-20)
(0.25875851 1.688854e-05 4.1101901e-21)
(0.24757272 1.856822e-05 -2.4048997e-19)
(0.23370102 1.6110029e-05 -9.6256038e-20)
(0.21460732 1.0882746e-05 -8.4678789e-20)
(0.18099561 4.396031e-06 -6.8108203e-20)
(0.30282117 -1.5633389e-05 2.204675e-18)
(0.30181594 -3.6431481e-05 3.7539448e-19)
(0.29941741 -4.3968547e-05 9.7317042e-19)
(0.29551566 -3.8365458e-05 7.7814136e-19)
(0.2902477 -2.3945221e-05 8.328204e-19)
(0.28385859 -7.8477351e-06 4.7909649e-19)
(0.27649982 5.9140984e-06 6.8369182e-19)
(0.26817343 1.5479772e-05 8.9033635e-20)
(0.25868728 2.0310782e-05 -7.165989e-20)
(0.24756135 2.0682561e-05 -3.7143442e-19)
(0.23374485 1.7265617e-05 -8.0629963e-21)
(0.21469358 1.1397508e-05 4.5124677e-20)
(0.18110164 4.5186801e-06 -8.9265977e-20)
(0.30333026 -1.3320794e-05 1.2945054e-18)
(0.30220188 -3.0705598e-05 3.1169469e-18)
(0.29958744 -3.5196395e-05 2.5154343e-19)
(0.29549103 -2.8043687e-05 1.062657e-18)
(0.29011218 -1.4099909e-05 4.5439067e-19)
(0.28368732 4.850738e-07 3.5503262e-19)
(0.276344 1.2388772e-05 -2.6080839e-19)
(0.26806118 2.0134976e-05 7.6829525e-20)
(0.2586307 2.3431184e-05 7.1058338e-20)
(0.24756246 2.2604393e-05 4.5938764e-19)
(0.23379832 1.8311314e-05 2.1814307e-19)
(0.21478659 1.1860346e-05 2.9820293e-19)
(0.18121177 4.6274574e-06 -1.0990293e-20)
(0.30375374 -1.0764918e-05 1.3770573e-18)
(0.30250438 -2.4536387e-05 2.1475724e-18)
(0.29969147 -2.6255652e-05 8.6120806e-19)
(0.29543051 -1.8024291e-05 -2.1369582e-19)
(0.28996562 -4.7859446e-06 1.4857192e-19)
(0.28352015 8.2429506e-06 2.1781026e-19)
(0.27620025 1.8335683e-05 -2.2097561e-19)
(0.26796311 2.4389244e-05 1.3025944e-20)
(0.25858763 2.6274424e-05 2.4503229e-19)
(0.24757502 2.4348688e-05 3.1784783e-19)
(0.2338606 1.9255345e-05 -1.5142353e-20)
(0.21488574 1.2274955e-05 -8.7801675e-20)
(0.18132555 4.7232654e-06 1.7019956e-20)
(0.30408466 -8.0145976e-06 -7.6116052e-19)
(0.30272186 -1.8051845e-05 2.4054259e-18)
(0.29973407 -1.7315975e-05 9.7931109e-19)
(0.29533886 -8.3897143e-06 1.6035828e-20)
(0.28980995 3.9787929e-06 2.4505184e-19)
(0.28335876 1.5424298e-05 -1.5962658e-19)
(0.27606809 2.3784508e-05 -1.3838601e-19)
(0.26787825 2.8272041e-05 -3.4652111e-19)
(0.25855702 2.8859926e-05 -1.4574331e-21)
(0.24759809 2.5927396e-05 4.2733253e-21)
(0.23393091 2.0104241e-05 1.8572717e-20)
(0.21499042 1.2644125e-05 7.4444262e-20)
(0.1814426 4.8066821e-06 7.0662852e-22)
(0.30431819 -5.1449695e-06 -1.2245539e-18)
(0.30285461 -1.1412702e-05 -5.9785871e-19)
(0.29971994 -8.5332624e-06 -3.5283032e-19)
(0.29521955 7.8194831e-07 1.1923577e-18)
(0.28964857 1.2142919e-05 4.5922673e-19)
(0.28320331 2.2022438e-05 2.97825e-19)
(0.27594691 2.8764928e-05 5.9432702e-19)
(0.26780566 3.18085e-05 4.3994087e-20)
(0.25853789 3.1204989e-05 -2.8231331e-19)
(0.24763076 2.7351557e-05 -3.0306291e-19)
(0.23400854 2.086409e-05 -1.361155e-19)
(0.2151001 1.2970494e-05 -3.2834822e-20)
(0.18156252 4.8782877e-06 -2.6800318e-20)
(0.30445222 -2.2472524e-06 -1.5315036e-18)
(0.30290466 -4.7892907e-06 1.5974111e-19)
(0.29965341 -5.7527359e-08 9.580067e-19)
(0.29507686 9.3867691e-06 5.9134852e-19)
(0.28948321 1.9670437e-05 5.7405219e-19)
(0.28305386 2.8057683e-05 5.907211e-19)
(0.27583605 3.3302564e-05 4.8240678e-19)
(0.26774441 3.501809e-05 3.6492625e-19)
(0.25852929 3.3323349e-05 4.3483488e-20)
(0.24767222 2.862985e-05 -3.6063045e-20)
(0.23409279 2.1539464e-05 -1.0534603e-19)
(0.21521426 1.3255893e-05 -9.3366836e-20)
(0.18168495 4.9383952e-06 -3.352223e-20)
(0.30448759 5.8142747e-07 2.5795727e-18)
(0.30287533 1.6331728e-06 2.3287577e-18)
(0.2995394 7.940346e-06 1.1129232e-18)
(0.29491435 1.7334202e-05 1.9498887e-19)
(0.28931491 2.6550351e-05 3.530983e-19)
(0.28291026 3.3548698e-05 2.0951778e-19)
(0.27573481 3.7416519e-05 -1.7739994e-19)
(0.26769361 3.7916288e-05 3.185268e-19)
(0.25853035 3.5226145e-05 2.4844085e-19)
(0.24772169 2.9769125e-05 2.2844057e-19)
(0.23418305 2.2133791e-05 3.1406036e-19)
(0.2153324 1.3501579e-05 1.7225457e-19)
(0.18180954 4.9871458e-06 6.4174883e-20)
(0.30442825 3.238157e-06 1.3403484e-18)
(0.30277199 7.6570075e-06 2.6907127e-18)
(0.29938292 1.5304028e-05 2.156309e-18)
(0.29473444 2.4565409e-05 -4.2649337e-19)
(0.28914434 3.2781756e-05 -1.6249635e-19)
(0.28277222 3.850821e-05 -6.6834878e-20)
(0.27564244 4.1120559e-05 1.5650071e-19)
(0.26765239 4.0514718e-05 1.5136625e-19)
(0.25854021 3.6921503e-05 2.4344285e-19)
(0.24777843 3.0774043e-05 1.2722247e-19)
(0.23427872 2.2649127e-05 3.1180387e-19)
(0.21545406 1.3708108e-05 6.1556279e-21)
(0.18193594 5.0244597e-06 9.0684969e-20)
(0.30428148 5.6356274e-06 1.934167e-18)
(0.30260141 1.312245e-05 3.2086819e-18)
(0.29918843 2.1930509e-05 1.0707741e-18)
(0.29453912 3.1047634e-05 1.1567796e-19)
(0.28897192 3.8362828e-05 -1.1077167e-19)
(0.28263933 4.2943717e-05 -1.4710988e-19)
(0.2755582 4.4424033e-05 2.5407422e-20)
(0.26761989 4.2821195e-05 1.684173e-20)
(0.25855808 3.8414465e-05 1.4421353e-19)
(0.24784174 3.1647049e-05 3.6778309e-19)
(0.23437921 2.3086124e-05 1.0186292e-19)
(0.21557877 1.3875278e-05 1.0799393e-19)
(0.18206381 5.0500087e-06 7.774742e-20)
(0.30405678 7.7205926e-06 2.501305e-18)
(0.30237113 1.7926812e-05 1.1652538e-18)
(0.29896016 2.7756953e-05 8.8433874e-19)
(0.29433004 3.6759687e-05 2.6519078e-19)
(0.28879784 4.3291199e-05 2.5619212e-19)
(0.2825111 4.6859834e-05 3.3505857e-19)
(0.2754813 4.7332844e-05 2.3470686e-19)
(0.26759529 4.4840192e-05 2.3917619e-19)
(0.25858316 3.9707339e-05 7.2315935e-20)
(0.24791094 3.2388613e-05 3.6997523e-19)
(0.23448396 2.3444165e-05 3.5075561e-20)
(0.21570609 1.4002214e-05 -5.0193655e-21)
(0.18219278 5.0632441e-06 1.7829611e-20)
(0.30376497 9.4677428e-06 5.2928415e-19)
(0.30208913 2.2015594e-05 -7.3776215e-19)
(0.29870222 3.2752084e-05 1.4536225e-18)
(0.29410866 4.1691643e-05 5.7107193e-19)
(0.2886222 4.7566531e-05 4.7515028e-19)
(0.28238699 5.0259713e-05 7.1821406e-19)