/*--------------------------------*- C++ -*----------------------------------*\
| =========                 |                                                 |
| \\      /  F ield         | OpenFOAM: The Open Source CFD Toolbox           |
|  \\    /   O peration     | Version:  2506                                  |
|   \\  /    A nd           | Website:  www.openfoam.com                      |
|    \\/     M anipulation  |                                                 |
\*---------------------------------------------------------------------------*/
FoamFile
{
    version     2.0;
    format      ascii;
    arch        "LSB;label=32;scalar=64";
    class       volScalarField;
    location    "13000/water";
    object      alphat;
}
// * * * * * * * * * * * * * * * * * * * * * * * * * * * * * * * * * * * * * //

dimensions      [1 -1 -1 0 0 0 0];

internalField   nonuniform List<scalar> 
1000
(
0.038690245
0.038689577
0.038688046
0.038679676
0.038634252
0.038395956
0.037190881
0.031863289
0.019099264
0.016301307
0.036437656
0.036436968
0.036430539
0.036397696
0.036243742
0.035561449
0.032798675
0.024476365
0.014644261
0.017654592
0.034756095
0.034752687
0.034735392
0.034658264
0.034338315
0.033096044
0.028914329
0.020078533
0.014287398
0.017671293
0.033455038
0.033447371
0.03341324
0.033276591
0.032760733
0.030940109
0.025769896
0.018271989
0.015952006
0.01730153
0.032418332
0.032405139
0.032350678
0.03215053
0.031437447
0.029070417
0.023556173
0.018635886
0.01886158
0.016925717
0.031571667
0.031552637
0.031479597
0.031226172
0.03032816
0.027485387
0.022555302
0.02080388
0.022278957
0.016666263
0.030866455
0.030843488
0.030761496
0.030477952
0.02940214
0.02629241
0.023062178
0.024244128
0.025541428
0.016525223
0.03027085
0.030249444
0.030178149
0.029894477
0.028644346
0.0257876
0.02513869
0.028280609
0.028304974
0.016463218
0.029764732
0.029755534
0.029725651
0.029468603
0.028107099
0.026357244
0.028508457
0.032334507
0.030519157
0.016442692
0.02933706
0.02935752
0.029409739
0.029196672
0.027980983
0.02823736
0.032681279
0.03608064
0.032267545
0.016440708
0.028984746
0.029060623
0.029241295
0.029099497
0.02858342
0.031375062
0.03716479
0.039413688
0.033659195
0.016446404
0.028712537
0.02887868
0.029233095
0.029270283
0.030215262
0.035478696
0.041608904
0.042341708
0.03478781
0.016455612
0.02853363
0.028833061
0.029403335
0.029912915
0.033002843
0.040161677
0.045828335
0.044910684
0.035723433
0.016467076
0.028470727
0.028950946
0.029795617
0.031303807
0.03685232
0.045075741
0.049751754
0.047172372
0.036515382
0.016480529
0.028557129
0.02926405
0.030516047
0.033675843
0.041512132
0.049977239
0.053365816
0.049174
0.037197762
0.016495912
0.028837301
0.029812356
0.031757435
0.037113987
0.046676313
0.054726074
0.05668174
0.050955435
0.037793672
0.016513132
0.029366682
0.030660612
0.033764406
0.041530972
0.052070964
0.059252842
0.059719546
0.052547764
0.038312903
0.016531933
0.030212383
0.031928162
0.036741671
0.046714437
0.057495233
0.06352728
0.062500739
0.053971552
0.038771742
0.016552023
0.031460574
0.033808195
0.040769104
0.052403219
0.062820509
0.067538923
0.065043957
0.055250017
0.039180819
0.016573205
0.033237505
0.03653787
0.04577554
0.058353793
0.067970001
0.071287151
0.067367674
0.056402531
0.039547888
0.016595312
0.035735563
0.040316919
0.051571216
0.0643749
0.072897622
0.074772705
0.069492296
0.057443853
0.039878901
0.016618165
0.039206587
0.045225379
0.057909508
0.07033031
0.077571328
0.078005535
0.071434711
0.058385884
0.04017819
0.016641574
0.043888619
0.051190315
0.064545172
0.076123175
0.081973047
0.080996656
0.073208606
0.059237957
0.040448877
0.016665341
0.049892311
0.058009136
0.071267193
0.08168222
0.086093997
0.083754591
0.074824615
0.060007046
0.040693106
0.016689268
0.057119956
0.065403928
0.07790527
0.086957055
0.08992745
0.086284825
0.076290129
0.060697905
0.040912156
0.016713145
0.065267607
0.073076429
0.084332596
0.091909978
0.093464919
0.088589309
0.077609317
0.061313239
0.041106542
0.016736751
0.073906352
0.080754267
0.090454324
0.096507606
0.096695959
0.090666678
0.078783474
0.061853979
0.041276127
0.016759844
0.082592564
0.08820749
0.09619396
0.10072089
0.09960928
0.092513272
0.079811766
0.062319739
0.041420314
0.016782161
0.090953549
0.095254232
0.10149051
0.10452646
0.1021948
0.094124792
0.080692346
0.06270945
0.041538291
0.016803421
0.098725591
0.10176155
0.10629856
0.10790848
0.10444599
0.095498254
0.081423692
0.063022118
0.041629343
0.01682334
0.10575266
0.10764332
0.11058918
0.11086012
0.10636185
0.0966338
0.082005919
0.063257591
0.041693151
0.016841648
0.11196513
0.1128553
0.11435019
0.11338434
0.1079481
0.097536015
0.082441847
0.063417216
0.041730061
0.016858111
0.11735421
0.11738799
0.11758521
0.11549356
0.10921748
0.098214534
0.082737632
0.06350426
0.041741253
0.016872551
0.12195002
0.12125848
0.12031172
0.11720869
0.11018917
0.098683948
0.082902882
0.06352405
0.04172879
0.016884864
0.12580545
0.12450266
0.12255827
0.11855753
0.11088763
0.09896309
0.082950298
0.06348378
0.041695521
0.016895023
0.12898539
0.12716852
0.12436148
0.11957284
0.11134115
0.099073913
0.082894926
0.063392085
0.041644884
0.01690308
0.13155961
0.12931079
0.12576313
0.12029045
0.1115802
0.099040197
0.082753212
0.063258448
0.041580642
0.016909154
0.13359842
0.13098696
0.12680759
0.12074749
0.11163594
0.098886265
0.082542035
0.063092582
0.041506606
0.016913417
0.13516984
0.13225432
0.12753964
0.12098086
0.11153896
0.098635899
0.082277848
0.062903883
0.041426399
0.016916072
0.13633802
0.13316812
0.12800296
0.1210261
0.11131832
0.098311501
0.081976026
0.062701013
0.041343281
0.016917342
0.13716221
0.13378018
0.12823894
0.12091659
0.11100093
0.09793354
0.081650417
0.062491621
0.041260047
0.016917452
0.13769641
0.13413831
0.128286
0.12068301
0.11061112
0.097520215
0.081313098
0.062282199
0.041178979
0.01691662
0.13798918
0.13428584
0.1281792
0.1203531
0.11017047
0.09708731
0.080974269
0.062078045
0.041101849
0.016915049
0.13808379
0.13426163
0.12795004
0.11995148
0.10969773
0.096648172
0.080642259
0.061883284
0.041029936
0.016912922
0.1380184
0.13410012
0.12762642
0.11949969
0.10920888
0.096213748
0.080323522
0.061700684
0.040963011
0.016910389
0.13782642
0.13383149
0.12723279
0.11901628
0.1087172
0.095792679
0.080022638
0.061531294
0.040902197
0.016907574
0.13753687
0.13348199
0.12679026
0.11851692
0.10823346
0.095391374
0.079742117
0.06137718
0.040847957
0.016904602
0.13717472
0.13307423
0.12631687
0.1180146
0.10776599
0.095013959
0.079485064
0.061239125
0.040800449
0.016901577
0.13676132
0.13262744
0.12582773
0.11751973
0.10732071
0.094664728
0.079252937
0.061117357
0.040759597
0.016898582
0.13631471
0.13215777
0.12533513
0.11704029
0.10690337
0.094346131
0.07904631
0.06101166
0.040725139
0.016895683
0.13584984
0.13167841
0.12484921
0.11658369
0.10651772
0.094059435
0.078865054
0.060921458
0.040696685
0.016892929
0.13537906
0.13120059
0.12437876
0.11615524
0.10616611
0.093804944
0.078708458
0.06084589
0.040673757
0.016890354
0.13491282
0.13073366
0.12393058
0.11575866
0.1058497
0.093582164
0.078575358
0.060783892
0.040655821
0.016887981
0.13445959
0.13028502
0.12350969
0.1153963
0.10556863
0.093389977
0.078464254
0.060734273
0.040642323
0.016885823
0.13402602
0.12986032
0.12311965
0.11506935
0.10532229
0.093226797
0.078373432
0.060695781
0.040632713
0.016883884
0.13361719
0.12946373
0.12276277
0.11477808
0.10510945
0.093090728
0.078301069
0.060667164
0.040626464
0.016882165
0.13323678
0.12909812
0.12244028
0.11452202
0.10492846
0.092979676
0.078245308
0.060647208
0.040623083
0.016880659
0.13288732
0.12876529
0.12215257
0.11430011
0.10477732
0.092891438
0.078204303
0.060634753
0.040622117
0.01687936
0.13257029
0.12846611
0.12189929
0.11411079
0.10465383
0.092823749
0.07817625
0.060628702
0.040623147
0.016878256
0.13228633
0.12820064
0.12167948
0.11395217
0.10455559
0.092774326
0.0781594
0.060628024
0.040625791
0.016877336
0.13203531
0.1279683
0.12149169
0.11382201
0.10448011
0.0927409
0.078152071
0.060631756
0.040629699
0.016876585
0.13181647
0.12776791
0.12133403
0.1137179
0.10442483
0.092721261
0.078152678
0.060639007
0.040634553
0.016875988
0.13162852
0.12759785
0.12120435
0.11363728
0.10438725
0.092713305
0.078159751
0.060648978
0.040640078
0.016875527
0.13146977
0.12745618
0.12110028
0.11357759
0.10436493
0.09271507
0.078171963
0.060660962
0.040646035
0.016875189
0.13133824
0.12734072
0.12101937
0.1135363
0.10435559
0.092724767
0.078188134
0.06067435
0.040652224
0.016874957
0.13123178
0.12724916
0.12095915
0.11351097
0.10435711
0.092740786
0.078207233
0.060688623
0.040658483
0.016874817
0.13114811
0.12717915
0.1209172
0.1134993
0.10436753
0.092761692
0.078228365
0.060703345
0.040664677
0.016874756
0.13108495
0.12712833
0.12089116
0.11349913
0.1043851
0.09278621
0.078250754
0.060718148
0.040670698
0.016874762
0.13103999
0.12709436
0.12087876
0.11350844
0.10440819
0.09281321
0.078273732
0.060732724
0.040676456
0.016874822
0.13101096
0.127075
0.12087787
0.11352536
0.10443535
0.092841703
0.078296726
0.060746816
0.040681882
0.016874926
0.13099566
0.12706806
0.12088646
0.1135482
0.10446531
0.092870831
0.078319256
0.060760219
0.040686922
0.016875065
0.13099198
0.12707149
0.12090267
0.11357541
0.10449692
0.092899868
0.07834093
0.060772764
0.040691494
0.016875227
0.13099794
0.12708337
0.12092478
0.11360564
0.10452923
0.092928218
0.078361432
0.060784297
0.040695577
0.016875405
0.13101169
0.12710194
0.12095129
0.11363773
0.10456144
0.092955401
0.078380508
0.060794749
0.040699192
0.016875592
0.13103157
0.12712563
0.12098087
0.11367067
0.10459289
0.092981033
0.078398005
0.060804123
0.040702357
0.016875783
0.13105609
0.12715306
0.12101236
0.11370363
0.10462304
0.093004847
0.078413876
0.060812427
0.040705098
0.016875973
0.13108395
0.12718301
0.12104479
0.11373591
0.10465149
0.093026715
0.078428098
0.060819692
0.04070744
0.01687616
0.13111399
0.12721442
0.1210773
0.11376697
0.10467801
0.093046552
0.078440685
0.060825965
0.040709411
0.01687634
0.13114523
0.12724639
0.12110921
0.11379641
0.1047024
0.093064325
0.078451681
0.060831301
0.040711042
0.016876511
0.13117681
0.12727817
0.12114002
0.11382394
0.10472455
0.093080045
0.078461151
0.060835762
0.04071236
0.016876672
0.13120805
0.12730918
0.12116929
0.11384935
0.10474443
0.09309376
0.078469176
0.060839416
0.040713397
0.016876821
0.13123839
0.12733892
0.12119672
0.11387249
0.10476202
0.093105546
0.078475849
0.060842331
0.04071418
0.016876957
0.13126737
0.12736702
0.12122207
0.1138933
0.10477737
0.093115506
0.078481274
0.060844581
0.040714739
0.016877079
0.13129464
0.1273932
0.12124519
0.11391176
0.10479057
0.093123763
0.078485566
0.060846238
0.040715102
0.016877188
0.13131994
0.12741726
0.12126601
0.11392793
0.10480173
0.093130456
0.078488842
0.060847376
0.040715299
0.016877283
0.13134312
0.12743909
0.12128451
0.11394187
0.10481101
0.093135734
0.07849122
0.060848068
0.040715355
0.016877366
0.13136408
0.12745865
0.12130073
0.11395372
0.10481854
0.093139747
0.078492818
0.060848382
0.040715296
0.016877436
0.13138277
0.12747593
0.12131476
0.1139636
0.1048245
0.093142643
0.078493745
0.060848381
0.040715144
0.016877496
0.13139923
0.127491
0.1213267
0.11397167
0.10482904
0.093144567
0.078494104
0.060848122
0.040714919
0.016877544
0.13141351
0.12750394
0.12133667
0.11397808
0.10483233
0.093145652
0.07849399
0.060847657
0.040714639
0.016877583
0.1314257
0.12751486
0.12134483
0.11398301
0.10483453
0.093146027
0.078493489
0.060847031
0.040714319
0.016877613
0.13143593
0.12752389
0.12135132
0.11398662
0.10483577
0.093145812
0.078492682
0.060846287
0.040713973
0.016877635
0.13144432
0.12753118
0.12135632
0.11398906
0.10483622
0.093145116
0.078491639
0.060845462
0.040713613
0.01687765
0.13145103
0.12753689
0.12135997
0.1139905
0.104836
0.09314404
0.078490425
0.060844586
0.040713248
0.016877659
0.13145621
0.12754118
0.12136246
0.11399108
0.10483523
0.093142675
0.078489095
0.060843687
0.040712888
0.016877664
0.13146004
0.12754422
0.12136393
0.11399094
0.10483404
0.0931411
0.078487697
0.060842787
0.040712538
0.016877664
0.13146267
0.12754616
0.12136453
0.11399023
0.10483251
0.093139383
0.078486272
0.060841905
0.040712203
0.01687766
0.13146427
0.12754717
0.12136442
0.11398905
0.10483075
0.093137587
0.078484852
0.060841054
0.040711888
0.016877654
0.13146499
0.1275474
0.12136372
0.11398752
0.10482883
0.093135763
0.078483468
0.060840247
0.040711595
0.016877645
0.131465
0.127547
0.12136257
0.11398574
0.10482683
0.093133958
0.07848214
0.060839491
0.040711324
0.016877635
)
;

boundaryField
{
    water_inlet
    {
        type            calculated;
        value           uniform 0.041850807;
    }
    water_outlet
    {
        type            calculated;
        value           nonuniform List<scalar> 10(0.131465 0.127547 0.12136257 0.11398574 0.10482683 0.093133958 0.07848214 0.060839491 0.040711324 0.016877635);
    }
    water_wedge1
    {
        type            wedge;
    }
    water_wedge2
    {
        type            wedge;
    }
    water_to_rock
    {
        type            compressible::alphatWallFunction;
        value           nonuniform List<scalar> 
100
(
0.0020384971
0.0022594581
0.0022621707
0.0022020357
0.0021407416
0.002098319
0.0020752209
0.0020650585
0.0020616933
0.0020613683
0.0020623025
0.0020638123
0.0020656915
0.0020678964
0.0020704177
0.0020732401
0.0020763212
0.0020796128
0.0020830824
0.0020867026
0.0020904446
0.0020942773
0.0020981682
0.0021020845
0.0021059917
0.0021098534
0.0021136302
0.0021172795
0.0021207556
0.0021240124
0.0021270055
0.0021296965
0.0021320563
0.0021340678
0.0021357272
0.0021370432
0.0021380354
0.0021387318
0.0021391657
0.0021393733
0.0021393914
0.0021392555
0.0021389989
0.0021386516
0.0021382376
0.0021377776
0.0021372919
0.0021367975
0.0021363083
0.0021358348
0.002135385
0.0021349645
0.0021345769
0.0021342241
0.0021339072
0.0021336262
0.0021333801
0.0021331679
0.0021329878
0.0021328376
0.0021327149
0.0021326172
0.0021325419
0.0021324864
0.0021324484
0.0021324255
0.0021324156
0.0021324166
0.0021324265
0.0021324436
0.0021324661
0.0021324927
0.0021325217
0.0021325523
0.0021325834
0.0021326146
0.0021326452
0.0021326747
0.0021327028
0.0021327291
0.0021327535
0.0021327757
0.0021327958
0.0021328136
0.0021328292
0.0021328427
0.0021328542
0.0021328638
0.0021328717
0.002132878
0.0021328829
0.0021328864
0.0021328889
0.0021328904
0.002132891
0.002132891
0.0021328903
0.0021328893
0.0021328879
0.0021328862
)
;
    }
}


// ************************************************************************* //
