/*--------------------------------*- C++ -*----------------------------------*\
| =========                 |                                                 |
| \\      /  F ield         | OpenFOAM: The Open Source CFD Toolbox           |
|  \\    /   O peration     | Version:  2506                                  |
|   \\  /    A nd           | Website:  www.openfoam.com                      |
|    \\/     M anipulation  |                                                 |
\*---------------------------------------------------------------------------*/
FoamFile
{
    version     2.0;
    format      ascii;
    arch        "LSB;label=32;scalar=64";
    class       volScalarField;
    location    "13000/water";
    object      epsilon;
}
// * * * * * * * * * * * * * * * * * * * * * * * * * * * * * * * * * * * * * //

dimensions      [0 2 -3 0 0 0 0];

internalField   nonuniform List<scalar> 
1000
(
7.2399316e-05
7.2397808e-05
7.2397502e-05
7.2398682e-05
7.2424146e-05
7.2686938e-05
7.4736184e-05
8.8973295e-05
0.00019794853
0.0013048048
4.7739543e-05
4.7745807e-05
4.7746167e-05
4.7748745e-05
4.7810065e-05
4.8371228e-05
5.2145894e-05
7.5319309e-05
0.00023607334
0.0016574915
3.3261229e-05
3.326441e-05
3.3263962e-05
3.3272039e-05
3.3396639e-05
3.4348943e-05
3.9973156e-05
7.1502161e-05
0.00026550005
0.0016622
2.4212884e-05
2.4213778e-05
2.421353e-05
2.4236018e-05
2.4468829e-05
2.5979975e-05
3.4086778e-05
7.6375718e-05
0.00030233757
0.0015600261
1.8263229e-05
1.8263302e-05
1.8265922e-05
1.8318446e-05
1.8730725e-05
2.1090747e-05
3.2935775e-05
9.0424068e-05
0.00035053785
0.0014605609
1.4183053e-05
1.4183388e-05
1.4193787e-05
1.4301413e-05
1.5003319e-05
1.8678174e-05
3.6168107e-05
0.00011337755
0.00040230512
0.0013944176
1.1285033e-05
1.1287109e-05
1.1313191e-05
1.1514086e-05
1.2672047e-05
1.8360627e-05
4.3854098e-05
0.00014255056
0.00044702257
0.0013593143
9.1651308e-06
9.1712237e-06
9.2251467e-06
9.5765145e-06
1.1437656e-05
2.010715e-05
5.5828121e-05
0.00017322859
0.00047957507
0.0013440712
7.5754962e-06
7.5890767e-06
7.6892445e-06
8.276099e-06
1.119819e-05
2.4041153e-05
7.1186944e-05
0.00020099048
0.0005008072
0.0013390506
6.3585386e-06
6.3848725e-06
6.5589447e-06
7.5064159e-06
1.1984494e-05
3.0236046e-05
8.8277418e-05
0.00022355931
0.00051393034
0.0013385664
5.4111025e-06
5.4581714e-06
5.7474929e-06
7.2369229e-06
1.3906646e-05
3.8515421e-05
0.00010524328
0.00024078327
0.0005219792
0.0013399587
4.6642398e-06
4.7441302e-06
5.2100523e-06
7.4969406e-06
1.7086988e-05
4.8355601e-05
0.0001206826
0.00025359572
0.00052708094
0.0013422108
4.071468e-06
4.2024405e-06
4.9349817e-06
8.3622616e-06
2.1575453e-05
5.8975562e-05
0.00013393079
0.00026313437
0.00053055299
0.0013450174
3.6019039e-06
3.811414e-06
4.9402465e-06
9.9351125e-06
2.7272204e-05
6.9567118e-05
0.00014492639
0.00027035443
0.00053316281
0.0013483157
3.2363936e-06
3.565362e-06
5.2715557e-06
1.2311447e-05
3.3901671e-05
7.9510713e-05
0.00015392451
0.0002759563
0.00053534075
0.0013520947
2.9656648e-06
3.4742263e-06
5.9984151e-06
1.5537494e-05
4.1062715e-05
8.8461004e-05
0.00016127363
0.00028042541
0.00053731667
0.0013563339
2.7900139e-06
3.5645574e-06
7.2040779e-06
1.9569968e-05
4.8330057e-05
9.630706e-05
0.00016730385
0.00028408927
0.00053917784
0.0013609725
2.7202664e-06
3.8804215e-06
8.9664009e-06
2.426143e-05
5.535002e-05
0.00010308384
0.00017229241
0.00028715805
0.00054093724
0.0013659403
2.7797392e-06
4.4819677e-06
1.1330806e-05
2.9383042e-05
6.1887476e-05
0.00010889376
0.00017645204
0.00028975397
0.00054267272
0.0013711906
3.0065652e-06
5.4386952e-06
1.4283597e-05
3.4675016e-05
6.7820822e-05
0.00011385658
0.0001799385
0.00029198029
0.00054443427
0.0013766841
3.4547838e-06
6.8148431e-06
1.7738597e-05
3.9899682e-05
7.3111791e-05
0.00011808663
0.00018285376
0.00029394132
0.0005462361
0.0013823788
4.1911343e-06
8.6475783e-06
2.1546198e-05
4.4874668e-05
7.7769092e-05
0.00012165869
0.00018531773
0.00029569717
0.00054807338
0.001388229
5.2835587e-06
1.0924828e-05
2.5521699e-05
4.9477994e-05
8.1803614e-05
0.00012466933
0.00018741271
0.00029728382
0.00054993236
0.0013941864
6.7798775e-06
1.3574382e-05
2.9480233e-05
5.362254e-05
8.5253101e-05
0.00012719929
0.00018919518
0.00029872105
0.00055179404
0.0014002009
8.6831806e-06
1.6474031e-05
3.324999e-05
5.7259531e-05
8.8167065e-05
0.00012930775
0.00019070237
0.00030001696
0.00055363556
0.0014062197
1.0937762e-05
1.94642e-05
3.6694125e-05
6.037719e-05
9.0586631e-05
0.00013103657
0.00019195683
0.00030117081
0.00055543079
0.0014121863
1.3423211e-05
2.2384303e-05
3.9726966e-05
6.2977865e-05
9.2544767e-05
0.0001324142
0.00019297021
0.00030217522
0.00055715075
0.0014180389
1.5988059e-05
2.510348e-05
4.2303146e-05
6.5074388e-05
9.4068633e-05
0.0001334598
0.00019374669
0.00030301839
0.00055876453
0.0014237103
1.8484488e-05
2.7531369e-05
4.4410688e-05
6.6689229e-05
9.518312e-05
0.00013418754
0.00019428661
0.00030368667
0.00056024076
0.0014291278
2.0793626e-05
2.9617728e-05
4.6063538e-05
6.7854287e-05
9.5914452e-05
0.00013461092
0.00019459026
0.00030416764
0.00056155004
0.0014342168
2.2836454e-05
3.1345705e-05
4.7294045e-05
6.8609976e-05
9.6292864e-05
0.00013474635
0.00019466135
0.00030445323
0.00056266796
0.0014389054
2.4572746e-05
3.2723041e-05
4.8146007e-05
6.9003273e-05
9.6353782e-05
0.00013461554
0.00019450965
0.00030454236
0.00056357799
0.0014431299
2.5993493e-05
3.3773752e-05
4.8668846e-05
6.908505e-05
9.6137497e-05
0.00013424636
0.00019415231
0.00030444252
0.00056427365
0.0014468416
2.7111503e-05
3.4531304e-05
4.8913215e-05
6.8907268e-05
9.5687702e-05
0.00013367229
0.00019361378
0.00030416988
0.00056475913
0.0014500107
2.79529e-05
3.503353e-05
4.8928015e-05
6.8520505e-05
9.5049468e-05
0.00013293076
0.0001929244
0.00030374805
0.00056504837
0.0014526287
2.8550565e-05
3.5319095e-05
4.8758564e-05
6.797209e-05
9.4267148e-05
0.00013206104
0.00019211823
0.00030320584
0.00056516295
0.0014547073
2.8939588e-05
3.542521e-05
4.8445634e-05
6.7304868e-05
9.3382582e-05
0.00013110203
0.0001912306
0.00030257464
0.0005651294
0.001456276
2.9154377e-05
3.5386273e-05
4.8025079e-05
6.6556557e-05
9.2433752e-05
0.00013009035
0.00019029584
0.00030188593
0.00056497641
0.0014573778
2.9226988e-05
3.5233174e-05
4.7527829e-05
6.5759536e-05
9.1453959e-05
0.00012905895
0.00018934548
0.00030116916
0.00056473256
0.0014580646
2.9186278e-05
3.4993032e-05
4.6980126e-05
6.494096e-05
9.0471432e-05
0.00012803619
0.00018840694
0.00030045029
0.00056442448
0.0014583933
2.9057591e-05
3.4689223e-05
4.6403871e-05
6.4123072e-05
8.9509309e-05
0.00012704545
0.00018750288
0.00029975097
0.00056407575
0.001458422
2.8862767e-05
3.4341571e-05
4.5817041e-05
6.3323632e-05
8.8585864e-05
0.00012610508
0.00018665096
0.00029908811
0.00056370625
0.0014582069
2.8620331e-05
3.3966632e-05
4.5234121e-05
6.2556412e-05
8.771491e-05
0.00012522869
0.00018586401
0.00029847406
0.00056333195
0.0014578008
2.8345772e-05
3.3578026e-05
4.4666536e-05
6.1831695e-05
8.6906285e-05
0.00012442557
0.0001851504
0.00029791682
0.00056296493
0.0014572511
2.8051869e-05
3.3186774e-05
4.4123056e-05
6.1156763e-05
8.6166382e-05
0.00012370119
0.00018451455
0.00029742047
0.00056260944
0.001456596
2.774902e-05
3.2801634e-05
4.3610182e-05
6.0536369e-05
8.5498719e-05
0.00012305797
0.00018395787
0.00029698508
0.00056226353
0.0014558685
2.7445554e-05
3.2429412e-05
4.3132499e-05
5.9973188e-05
8.4904496e-05
0.00012249581
0.00018347858
0.0002966045
0.00056194009
0.0014551004
2.7148026e-05
3.2075254e-05
4.2692998e-05
5.946821e-05
8.4383032e-05
0.00012201227
0.00018306996
0.00029628013
0.00056164591
0.001454319
2.6861489e-05
3.174291e-05
4.2293363e-05
5.902108e-05
8.393202e-05
0.00012160115
0.00018272927
0.00029601077
0.00056138399
0.0014535461
2.6589736e-05
3.1434987e-05
4.1934284e-05
5.8630213e-05
8.3546358e-05
0.00012125842
0.00018245243
0.00029579322
0.00056115496
0.0014527984
2.6335535e-05
3.1153169e-05
4.1615241e-05
5.8292214e-05
8.3222166e-05
0.00012097925
0.00018223426
0.00029562314
0.00056095795
0.0014520885
2.6100686e-05
3.0898013e-05
4.1334732e-05
5.8004102e-05
8.2955004e-05
0.00012075815
0.00018206894
0.00029549557
0.00056079114
0.001451425
2.5886081e-05
3.0669407e-05
4.1091074e-05
5.7762528e-05
8.2740062e-05
0.00012058934
0.0001819504
0.00029540534
0.00056065224
0.0014508134
2.5692075e-05
3.0466826e-05
4.0882269e-05
5.7563884e-05
8.2572329e-05
0.00012046688
0.0001818726
0.00029534738
0.00056053875
0.0014502571
2.5518593e-05
3.0289404e-05
4.0706073e-05
5.7404402e-05
8.2446739e-05
0.00012038494
0.00018182971
0.00029531684
0.00056044815
0.0014497574
2.5365217e-05
3.0135997e-05
4.0560061e-05
5.7280245e-05
8.2358284e-05
0.00012033788
0.00018181621
0.00029530923
0.00056037802
0.0014493142
2.5231252e-05
3.0005244e-05
4.0441691e-05
5.7187581e-05
8.2302106e-05
0.00012032037
0.00018182699
0.00029532043
0.00056032598
0.0014489264
2.5115789e-05
2.9895625e-05
4.0348363e-05
5.7122651e-05
8.2273563e-05
0.00012032742
0.00018185736
0.00029534669
0.00056028974
0.0014485921
2.5017747e-05
2.9805503e-05
4.0277464e-05
5.7081817e-05
8.2268282e-05
0.00012035442
0.00018190308
0.00029538464
0.00056026708
0.0014483083
2.4935923e-05
2.9733173e-05
4.0226418e-05
5.7061612e-05
8.2282199e-05
0.00012039719
0.00018196036
0.00029543128
0.00056025588
0.0014480718
2.486903e-05
2.96769e-05
4.0192719e-05
5.7058774e-05
8.2311585e-05
0.00012045199
0.00018202588
0.000295484
0.0005602542
0.0014478786
2.4815731e-05
2.9634948e-05
4.0173968e-05
5.7070271e-05
8.2353069e-05
0.00012051551
0.00018209676
0.00029554056
0.00056026028
0.0014477246
2.4774669e-05
2.9605617e-05
4.0167895e-05
5.7093327e-05
8.240364e-05
0.00012058487
0.00018217057
0.00029559911
0.00056027259
0.0014476059
2.4744496e-05
2.9587261e-05
4.0172382e-05
5.7125424e-05
8.2460646e-05
0.0001206576
0.00018224528
0.00029565809
0.00056028982
0.0014475185
2.472389e-05
2.9578313e-05
4.0185475e-05
5.7164311e-05
8.2521783e-05
0.00012073163
0.0001823192
0.00029571627
0.00056031079
0.0014474585
2.4711579e-05
2.9577293e-05
4.0205392e-05
5.7207999e-05
8.2585073e-05
0.0001208052
0.00018239099
0.00029577265
0.00056033447
0.0014474225
2.4706351e-05
2.9582828e-05
4.0230526e-05
5.725475e-05
8.2648845e-05
0.00012087692
0.00018245958
0.00029582641
0.00056035996
0.0014474069
2.4707065e-05
2.9593652e-05
4.0259448e-05
5.7303071e-05
8.2711714e-05
0.00012094565
0.00018252415
0.00029587695
0.0005603864
0.0014474085
2.4712665e-05
2.9608615e-05
4.02909e-05
5.7351696e-05
8.2772554e-05
0.00012101051
0.00018258409
0.0002959238
0.00056041309
0.0014474242
2.4722177e-05
2.9626685e-05
4.0323793e-05
5.7399577e-05
8.2830482e-05
0.00012107088
0.00018263902
0.00029596667
0.0005604394
0.0014474511
2.4734722e-05
2.9646946e-05
4.0357201e-05
5.7445866e-05
8.288483e-05
0.00012112631
0.0001826887
0.00029600538
0.00056046487
0.0014474866
2.4749512e-05
2.9668599e-05
4.039035e-05
5.7489897e-05
8.2935123e-05
0.00012117656
0.00018273305
0.00029603988
0.00056048892
0.0014475283
2.4765851e-05
2.9690958e-05
4.0422607e-05
5.7531171e-05
8.2981054e-05
0.00012122153
0.00018277213
0.00029607016
0.00056051088
0.0014475741
2.4783134e-05
2.9713442e-05
4.0453471e-05
5.7569333e-05
8.3022465e-05
0.00012126124
0.00018280606
0.00029609614
0.00056053067
0.0014476222
2.4800843e-05
2.973557e-05
4.0482559e-05
5.7604159e-05
8.305932e-05
0.00012129583
0.00018283496
0.00029611796
0.00056054864
0.0014476713
2.4818543e-05
2.9756956e-05
4.0509593e-05
5.7635533e-05
8.3091682e-05
0.00012132543
0.00018285901
0.00029613609
0.0005605649
0.0014477204
2.4835876e-05
2.9777294e-05
4.0534388e-05
5.7663436e-05
8.3119647e-05
0.00012135022
0.00018287867
0.00029615091
0.00056057953
0.0014477686
2.4852554e-05
2.979636e-05
4.0556846e-05
5.7687883e-05
8.3143352e-05
0.00012137059
0.00018289437
0.00029616276
0.00056059256
0.0014478152
2.486836e-05
2.9813997e-05
4.0576895e-05
5.7708945e-05
8.3163078e-05
0.00012138694
0.00018290652
0.00029617196
0.00056060401
0.0014478595
2.4883121e-05
2.983008e-05
4.0594532e-05
5.7726787e-05
8.3179137e-05
0.00012139965
0.00018291553
0.00029617879
0.00056061394
0.001447901
2.4896707e-05
2.9844542e-05
4.0609815e-05
5.7741615e-05
8.319186e-05
0.00012140914
0.00018292179
0.00029618355
0.0005606224
0.0014479394
2.4909041e-05
2.9857367e-05
4.0622844e-05
5.7753665e-05
8.3201589e-05
0.00012141579
0.00018292566
0.00029618652
0.00056062949
0.0014479745
2.4920085e-05
2.9868577e-05
4.0633753e-05
5.7763187e-05
8.3208667e-05
0.00012141998
0.00018292751
0.00029618796
0.0005606353
0.001448006
2.4929838e-05
2.9878227e-05
4.0642695e-05
5.7770441e-05
8.321343e-05
0.00012142207
0.00018292767
0.00029618813
0.00056063995
0.001448034
2.4938328e-05
2.9886396e-05
4.064984e-05
5.7775689e-05
8.3216199e-05
0.00012142241
0.00018292644
0.00029618725
0.00056064357
0.0014480586
2.4945603e-05
2.989318e-05
4.0655363e-05
5.7779186e-05
8.321728e-05
0.00012142131
0.0001829241
0.00029618553
0.00056064626
0.0014480799
2.4951731e-05
2.9898688e-05
4.0659444e-05
5.7781176e-05
8.3216958e-05
0.00012141905
0.0001829209
0.00029618316
0.00056064813
0.001448098
2.4956791e-05
2.9903035e-05
4.0662259e-05
5.7781892e-05
8.3215495e-05
0.00012141589
0.00018291707
0.00029618031
0.0005606493
0.0014481132
2.496087e-05
2.990634e-05
4.0663977e-05
5.7781549e-05
8.3213126e-05
0.00012141206
0.00018291279
0.00029617712
0.00056064986
0.0014481256
2.496406e-05
2.9908724e-05
4.0664763e-05
5.7780347e-05
8.3210066e-05
0.00012140775
0.00018290824
0.00029617372
0.0005606499
0.0014481355
2.4966457e-05
2.9910304e-05
4.0664769e-05
5.7778466e-05
8.3206503e-05
0.00012140315
0.00018290355
0.00029617021
0.00056064952
0.0014481431
2.4968153e-05
2.9911192e-05
4.0664136e-05
5.7776068e-05
8.3202602e-05
0.0001213984
0.00018289886
0.00029616668
0.0005606488
0.0014481487
2.4969241e-05
2.9911495e-05
4.0662993e-05
5.7773298e-05
8.3198506e-05
0.00012139363
0.00018289425
0.00029616322
0.00056064783
0.0014481526
2.4969808e-05
2.9911313e-05
4.0661456e-05
5.777028e-05
8.3194336e-05
0.00012138893
0.00018288981
0.00029615989
0.00056064666
0.0014481549
2.4969937e-05
2.9910738e-05
4.0659629e-05
5.7767122e-05
8.319019e-05
0.00012138441
0.00018288561
0.00029615672
0.00056064535
0.0014481559
2.4969705e-05
2.9909853e-05
4.0657602e-05
5.7763915e-05
8.3186152e-05
0.00012138011
0.00018288167
0.00029615376
0.00056064396
0.0014481558
2.4969183e-05
2.9908734e-05
4.0655454e-05
5.7760734e-05
8.3182285e-05
0.00012137608
0.00018287805
0.00029615103
0.00056064253
0.0014481548
2.4968434e-05
2.9907445e-05
4.0653253e-05
5.7757642e-05
8.317864e-05
0.00012137237
0.00018287476
0.00029614854
0.00056064111
0.0014481531
2.4967516e-05
2.9906047e-05
4.0651054e-05
5.7754688e-05
8.3175254e-05
0.00012136899
0.0001828718
0.00029614631
0.00056063973
0.0014481509
2.4966482e-05
2.9904593e-05
4.0648913e-05
5.7751922e-05
8.3172161e-05
0.00012136596
0.00018286918
0.00029614432
0.00056063836
0.0014481483
)
;

boundaryField
{
    water_inlet
    {
        type            turbulentMixingLengthDissipationRateInlet;
        mixingLength    0.005;
        phi             phi;
        k               k;
        value           uniform 0.00011791765;
    }
    water_outlet
    {
        type            inletOutlet;
        inletValue      uniform 0.0001;
        value           nonuniform List<scalar> 10(2.4966482e-05 2.9904593e-05 4.0648913e-05 5.7751922e-05 8.3172161e-05 0.00012136596 0.00018286918 0.00029614432 0.00056063836 0.0014481483);
    }
    water_wedge1
    {
        type            wedge;
    }
    water_wedge2
    {
        type            wedge;
    }
    water_to_rock
    {
        type            epsilonWallFunction;
        blending        stepwise;
        value           nonuniform List<scalar> 
100
(
0.0013048048
0.0016574915
0.0016622
0.0015600261
0.0014605609
0.0013944176
0.0013593143
0.0013440712
0.0013390506
0.0013385664
0.0013399587
0.0013422108
0.0013450174
0.0013483157
0.0013520947
0.0013563339
0.0013609725
0.0013659403
0.0013711906
0.0013766841
0.0013823788
0.001388229
0.0013941864
0.0014002009
0.0014062197
0.0014121863
0.0014180389
0.0014237103
0.0014291278
0.0014342168
0.0014389054
0.0014431299
0.0014468416
0.0014500107
0.0014526287
0.0014547073
0.001456276
0.0014573778
0.0014580646
0.0014583933
0.001458422
0.0014582069
0.0014578008
0.0014572511
0.001456596
0.0014558685
0.0014551004
0.001454319
0.0014535461
0.0014527984
0.0014520885
0.001451425
0.0014508134
0.0014502571
0.0014497574
0.0014493142
0.0014489264
0.0014485921
0.0014483083
0.0014480718
0.0014478786
0.0014477246
0.0014476059
0.0014475185
0.0014474585
0.0014474225
0.0014474069
0.0014474085
0.0014474242
0.0014474511
0.0014474866
0.0014475283
0.0014475741
0.0014476222
0.0014476713
0.0014477204
0.0014477686
0.0014478152
0.0014478595
0.001447901
0.0014479394
0.0014479745
0.001448006
0.001448034
0.0014480586
0.0014480799
0.001448098
0.0014481132
0.0014481256
0.0014481355
0.0014481431
0.0014481487
0.0014481526
0.0014481549
0.0014481559
0.0014481558
0.0014481548
0.0014481531
0.0014481509
0.0014481483
)
;
    }
}


// ************************************************************************* //
