/*--------------------------------*- C++ -*----------------------------------*\
| =========                 |                                                 |
| \\      /  F ield         | OpenFOAM: The Open Source CFD Toolbox           |
|  \\    /   O peration     | Version:  2506                                  |
|   \\  /    A nd           | Website:  www.openfoam.com                      |
|    \\/     M anipulation  |                                                 |
\*---------------------------------------------------------------------------*/
FoamFile
{
    version     2.0;
    format      ascii;
    arch        "LSB;label=32;scalar=64";
    class       volScalarField;
    location    "13000/water";
    object      k;
}
// * * * * * * * * * * * * * * * * * * * * * * * * * * * * * * * * * * * * * //

dimensions      [0 2 -2 0 0 0 0];

internalField   nonuniform List<scalar> 
1000
(
0.00017657855
0.00017657518
0.00017657131
0.00017655365
0.00017648098
0.00017625478
0.00017589507
0.00017764177
0.00020514192
0.00048657967
0.00013915035
0.00013915817
0.00013914641
0.00013908743
0.00013888206
0.0001383736
0.00013797747
0.00014325064
0.00019616755
0.00057072179
0.00011343696
0.00011343683
0.00011340783
0.00011329561
0.00011298241
0.0001124902
0.00011342551
0.00012641411
0.00020548439
0.00057180213
9.4956344e-05
9.4947215e-05
9.4898274e-05
9.4747991e-05
9.446118e-05
9.4591094e-05
9.8882461e-05
0.00012463515
0.00023169875
0.00054812316
8.1180941e-05
8.1164581e-05
8.1102166e-05
8.0967055e-05
8.0960074e-05
8.2611701e-05
9.2930073e-05
0.00013695787
0.00027128542
0.00052456985
7.0599818e-05
7.0579371e-05
7.0523474e-05
7.0504821e-05
7.1168313e-05
7.5594135e-05
9.5292161e-05
0.00016203382
0.00031586039
0.00050861072
6.2267978e-05
6.2250533e-05
6.2239522e-05
6.2499651e-05
6.4399548e-05
7.3304209e-05
0.0001061024
0.00019613618
0.00035649815
0.00050003865
5.5571434e-05
5.5570244e-05
5.5667652e-05
5.645068e-05
6.0389012e-05
7.5971497e-05
0.00012498785
0.00023352002
0.00038871352
0.00049629336
5.0098704e-05
5.0135841e-05
5.044028e-05
5.2102981e-05
5.9190485e-05
8.3984203e-05
0.00015029931
0.00026896194
0.00041246919
0.00049505667
4.5567679e-05
4.5677861e-05
4.6337493e-05
4.9391583e-05
6.1095792e-05
9.7486506e-05
0.0001792026
0.00029964254
0.00042964034
0.0004949373
4.1782805e-05
4.2019029e-05
4.3252129e-05
4.8416086e-05
6.6517859e-05
0.00011597906
0.00020865702
0.00032501743
0.00044223023
0.00049528041
3.8609678e-05
3.9051429e-05
4.1174507e-05
4.9422585e-05
7.5808149e-05
0.00013819018
0.00023642066
0.00034572048
0.00045177496
0.00049583519
3.5960356e-05
3.6725366e-05
4.0189355e-05
5.2766855e-05
8.9027792e-05
0.00016237229
0.00026138293
0.00036268834
0.00045931533
0.00049652619
3.3785885e-05
3.504648e-05
4.0478132e-05
5.8837598e-05
0.00010577
0.00018682862
0.00028330087
0.00037677368
0.00046551943
0.00049733763
3.2074353e-05
3.4079169e-05
4.2315892e-05
6.7933463e-05
0.00012516071
0.00021031436
0.00030238165
0.0003886493
0.00047080766
0.00049826649
3.0853775e-05
3.3954486e-05
4.6048017e-05
8.0117845e-05
0.00014606362
0.00023213629
0.00031898719
0.00039881722
0.00047543885
0.0004993074
3.0199558e-05
3.4878932e-05
5.2034181e-05
9.511545e-05
0.00016736954
0.0002520308
0.00033348874
0.00040763785
0.00047952197
0.0005004451
3.0246016e-05
3.7136107e-05
6.0556182e-05
0.00011231913
0.0001882109
0.00026998858
0.00034621479
0.00041534875
0.00048317122
0.00050166217
3.1200051e-05
4.1069112e-05
7.1707727e-05
0.00013091739
0.00020802813
0.00028612021
0.00035742653
0.00042213452
0.00048649201
0.00050294689
3.3351816e-05
4.7031512e-05
8.5311092e-05
0.00015007655
0.00022652186
0.00030057625
0.00036733117
0.00042815008
0.00048955821
0.00050428937
3.7070694e-05
5.5302092e-05
0.00010090978
0.00016908807
0.00024356807
0.00031350312
0.00037608866
0.0004335329
0.00049241554
0.00050567913
4.2767638e-05
6.5979394e-05
0.00011785017
0.00018743118
0.00025913382
0.00032501563
0.00038386904
0.00043837672
0.00049509039
0.0005071048
5.080532e-05
7.889894e-05
0.00013541184
0.00020475497
0.00027320695
0.00033526122
0.00039079639
0.00044274701
0.00049759709
0.00050855449
6.1361744e-05
9.3622062e-05
0.00015292562
0.00022080425
0.00028583242
0.0003443631
0.00039696046
0.00044668771
0.00049994115
0.00051001597
7.430248e-05
0.00010951455
0.00016980448
0.00023542158
0.00029707718
0.000352411
0.00040242243
0.00045022512
0.00050212071
0.00051147644
8.9142137e-05
0.00012582789
0.00018559487
0.00024853511
0.00030699149
0.00035946522
0.0004072196
0.00045337079
0.00050412752
0.00051292224
0.0001050846
0.00014184842
0.00019999877
0.0002601026
0.00031560949
0.00036556204
0.00041137004
0.0004561243
0.0005059479
0.00051433849
0.00012123787
0.00015699639
0.0002128287
0.00027010634
0.0003229552
0.00037072102
0.00041487815
0.00045847669
0.0005075643
0.000515709
0.00013679918
0.00017085434
0.00022398886
0.00027855499
0.00032905185
0.00037495407
0.00041774145
0.00046041485
0.00050895763
0.00051701643
0.00015116455
0.00018316298
0.0002334599
0.00028548704
0.00033393188
0.00037827517
0.00041995805
0.00046192659
0.00051011016
0.00051824304
0.00016395699
0.00019379944
0.00024128455
0.00029097205
0.00033764472
0.00038070888
0.00042153383
0.00046300596
0.00051100884
0.00051937181
0.00017500006
0.00020274856
0.0002475532
0.00029510824
0.00034026075
0.00038229628
0.00042248801
0.00046365762
0.00051164824
0.00052038783
0.00018426872
0.00021007359
0.00025238982
0.00029801689
0.00034187115
0.00038309731
0.00042285628
0.00046389965
0.00051203258
0.00052127973
0.00019183935
0.00021588999
0.00025593934
0.00029983504
0.00034258431
0.00038318977
0.00042269091
0.00046376413
0.00051217631
0.00052204069
0.00019784867
0.000220344
0.0002583569
0.00030070788
0.00034252033
0.00038266551
0.00042205837
0.00046329552
0.00051210318
0.0005226689
0.00020246389
0.00022359627
0.00025979952
0.00030078179
0.00034180468
0.00038162514
0.00042103502
0.00046254742
0.00051184402
0.00052316742
0.00020586258
0.00022581021
0.00026041978
0.00030019868
0.00034056223
0.00038017225
0.00041970204
0.00046157842
0.0005114339
0.00052354347
0.00020822003
0.00022714407
0.00026036142
0.00029909176
0.00033891226
0.00037840816
0.00041814047
0.00046044795
0.00051090921
0.00052380749
0.00020970168
0.00022774602
0.00025975658
0.00029758269
0.00033696478
0.00037642767
0.00041642702
0.00045921275
0.00051030517
0.00052397203
0.00021045915
0.00022775131
0.0002587242
0.00029578002
0.00033481817
0.00037431609
0.00041463107
0.00045792416
0.0005096539
0.00052405076
0.00021062844
0.00022728101
0.00025736947
0.00029377853
0.00033255798
0.00037214762
0.00041281278
0.00045662654
0.00050898331
0.00052405762
0.00021032953
0.00022644172
0.00025578385
0.00029165937
0.00033025666
0.00036998454
0.00041102225
0.00045535647
0.00050831646
0.00052400609
0.00020966687
0.000225326
0.00025404569
0.00028949063
0.0003279739
0.00036787741
0.00040929942
0.00045414263
0.00050767156
0.00052390878
0.00020873028
0.00022401314
0.00025222103
0.00028732826
0.00032575747
0.00036586562
0.00040767458
0.0004530062
0.00050706199
0.00052377708
0.00020759618
0.00022257022
0.00025036467
0.00028521713
0.00032364422
0.00036397828
0.00040616888
0.0004519604
0.00050648829
0.00052362011
0.00020632889
0.00022105323
0.0002485212
0.00028319223
0.00032166136
0.00036223549
0.00040479541
0.0004510091
0.00050595657
0.00052344576
0.00020498191
0.00021950825
0.00024672618
0.00028127991
0.0003198277
0.00036064933
0.00040355852
0.00045015522
0.00050547553
0.00052326167
0.00020359923
0.00021797264
0.00024500727
0.000279499
0.00031815473
0.00035922406
0.00040245866
0.00044940274
0.00050504926
0.00052307434
0.00020221653
0.00021647613
0.00024338525
0.00027786186
0.00031664713
0.00035795868
0.00040149645
0.00044875159
0.00050467863
0.00052288899
0.00020086226
0.00021504184
0.00024187501
0.00027637477
0.00031530395
0.00035685186
0.00040066887
0.0004481986
0.00050436234
0.00052270965
0.00019955867
0.00021368713
0.00024048559
0.00027503891
0.00031412348
0.00035589885
0.00039996987
0.00044773838
0.00050409761
0.00052253933
0.00019832235
0.00021242378
0.00023922174
0.00027385376
0.00031310083
0.00035509214
0.0003993913
0.00044736404
0.00050388065
0.00052238011
0.00019716496
0.00021125955
0.0002380855
0.00027281598
0.00031222861
0.00035442223
0.00039892353
0.0004470678
0.00050370714
0.00052223336
0.00019609451
0.00021019908
0.00023707621
0.00027191987
0.00031149757
0.00035387829
0.00039855616
0.00044684144
0.00050357254
0.00052209986
0.000195116
0.00020924426
0.00023619095
0.00027115798
0.00031089722
0.00035344872
0.00039827846
0.00044667672
0.00050347231
0.00052197993
0.00019423183
0.00020839476
0.00023542501
0.00027052156
0.00031041628
0.00035312166
0.00039807977
0.00044656566
0.00050340209
0.00052187356
0.00019344229
0.00020764836
0.00023477226
0.00027000098
0.00031004311
0.0003528853
0.0003979498
0.00044650067
0.00050335778
0.00052178048
0.0001927459
0.00020700135
0.00023422553
0.00026958607
0.00030976601
0.00035272813
0.00039787874
0.00044647467
0.00050333551
0.0005217002
0.00019213972
0.00020644885
0.00023377691
0.00026926643
0.00030957348
0.00035263915
0.00039785737
0.00044648107
0.00050333172
0.00052163205
0.00019161971
0.00020598505
0.00023341799
0.00026903159
0.00030945431
0.0003526079
0.00039787712
0.00044651383
0.00050334307
0.00052157523
0.00019118087
0.00020560346
0.00023314008
0.00026887121
0.00030939782
0.0003526246
0.00039793009
0.0004465674
0.00050336652
0.00052152883
0.00019081756
0.00020529716
0.00023293441
0.00026877529
0.0003093939
0.00035268022
0.00039800911
0.00044663685
0.00050339932
0.00052149187
0.00019052365
0.00020505894
0.00023279229
0.00026873427
0.00030943318
0.00035276656
0.00039810778
0.00044671781
0.00050343907
0.00052146338
0.00019029274
0.00020488153
0.00023270532
0.00026873919
0.0003095071
0.00035287629
0.0003982205
0.00044680651
0.0005034837
0.0005214424
0.00019011832
0.00020475773
0.00023266548
0.00026878178
0.00030960796
0.00035300297
0.00039834245
0.00044689978
0.00050353146
0.00052142802
0.00018999392
0.00020468058
0.00023266522
0.00026885447
0.00030972892
0.00035314102
0.00039846953
0.00044699494
0.00050358086
0.00052141936
0.00018991326
0.00020464341
0.00023269757
0.00026895048
0.00030986396
0.00035328564
0.00039859828
0.00044708979
0.00050363067
0.00052141561
0.00018987027
0.00020463995
0.00023275613
0.00026906374
0.00031000787
0.00035343276
0.00039872585
0.00044718249
0.00050367984
0.00052141598
0.00018985921
0.00020466433
0.0002328351
0.00026918891
0.00031015616
0.00035357895
0.00039884987
0.00044727157
0.00050372749
0.00052141974
0.00018987471
0.00020471118
0.00023292926
0.00026932133
0.00031030504
0.00035372142
0.00039896845
0.00044735586
0.00050377291
0.0005214262
0.00018991179
0.00020477557
0.00023303402
0.000269457
0.00031045133
0.00035385788
0.00039908011
0.00044743446
0.00050381556
0.00052143474
0.00018996589
0.0002048531
0.00023314532
0.00026959255
0.00031059249
0.0003539866
0.00039918377
0.00044750673
0.00050385468
0.00052144477
0.00019003291
0.00020493985
0.00023325974
0.0002697252
0.00031072652
0.00035410629
0.00039927869
0.00044757207
0.00050388983
0.00052145576
0.00019010918
0.00020503242
0.00023337435
0.00026985274
0.00031085192
0.00035421609
0.00039936435
0.00044763019
0.0005039211
0.00052146731
0.00019019152
0.00020512787
0.00023348678
0.00026997347
0.00031096766
0.00035431544
0.00039944049
0.0004476812
0.00050394878
0.0005214791
0.00019027718
0.00020522375
0.00023359512
0.00027008613
0.00031107306
0.00035440404
0.00039950719
0.00044772547
0.00050397305
0.00052149089
0.00019036384
0.00020531805
0.00023369791
0.00027018985
0.00031116771
0.00035448192
0.0003995649
0.00044776342
0.00050399413
0.00052150246
0.00019044957
0.00020540913
0.00023379402
0.00027028401
0.0003112515
0.00035454947
0.00039961411
0.00044779547
0.00050401219
0.00052151363
0.00019053282
0.00020549573
0.00023388262
0.00027036833
0.00031132468
0.0003546072
0.0003996554
0.00044782206
0.00050402743
0.00052152425
0.0001906123
0.00020557682
0.0002339632
0.00027044283
0.00031138768
0.00035465573
0.00039968937
0.00044784365
0.00050404005
0.00052153421
0.00019068703
0.00020565169
0.00023403551
0.00027050775
0.00031144104
0.00035469571
0.00039971664
0.00044786069
0.00050405027
0.00052154343
0.00019075631
0.00020571989
0.00023409954
0.00027056346
0.0003114854
0.00035472787
0.00039973787
0.00044787367
0.0005040583
0.00052155184
0.00019081966
0.00020578121
0.00023415545
0.00027061049
0.00031152147
0.00035475297
0.00039975371
0.00044788304
0.00050406438
0.00052155941
0.00019087682
0.0002058356
0.00023420355
0.00027064942
0.00031155001
0.00035477176
0.00039976481
0.00044788926
0.00050406872
0.00052156614
0.00019092771
0.00020588318
0.00023424424
0.00027068091
0.00031157179
0.00035478501
0.00039977181
0.00044789278
0.00050407156
0.00052157205
0.00019097241
0.00020592419
0.00023427802
0.00027070567
0.0003115876
0.00035479345
0.00039977531
0.00044789403
0.00050407312
0.00052157715
0.0001910111
0.00020595896
0.00023430545
0.0002707244
0.0003115982
0.00035479779
0.00039977588
0.0004478934
0.0005040736
0.00052158151
0.00019104406
0.00020598789
0.00023432711
0.00027073781
0.00031160431
0.00035479869
0.00039977405
0.00044789124
0.00050407318
0.00052158515
0.00019107164
0.00020601145
0.00023434359
0.00027074659
0.00031160663
0.00035479675
0.00039977029
0.00044788788
0.00050407204
0.00052158813
0.00019109423
0.00020603012
0.00023435549
0.0002707514
0.00031160579
0.00035479253
0.00039976502
0.00044788359
0.00050407033
0.00052159051
0.00019111227
0.00020604438
0.00023436338
0.00027075285
0.00031160238
0.00035478651
0.00039975863
0.00044787863
0.00050406817
0.00052159235
0.0001911262
0.00020605473
0.00023436783
0.00027075151
0.00031159693
0.00035477916
0.00039975144
0.00044787323
0.00050406571
0.0005215937
0.00019113646
0.00020606167
0.00023436935
0.00027074792
0.00031158992
0.00035477086
0.00039974375
0.00044786758
0.00050406304
0.00052159463
0.00019114351
0.00020606565
0.00023436846
0.00027074255
0.00031158178
0.00035476196
0.00039973581
0.00044786183
0.00050406026
0.00052159519
0.00019114777
0.00020606714
0.00023436559
0.00027073584
0.00031157288
0.00035475275
0.00039972783
0.00044785613
0.00050405744
0.00052159544
0.00019114967
0.00020606655
0.00023436117
0.00027072817
0.00031156355
0.00035474346
0.00039971997
0.00044785058
0.00050405465
0.00052159542
0.00019114958
0.00020606426
0.00023435556
0.00027071986
0.00031155404
0.00035473432
0.00039971238
0.00044784526
0.00050405193
0.00052159518
0.00019114787
0.00020606064
0.0002343491
0.00027071122
0.00031154459
0.00035472547
0.00039970517
0.00044784025
0.00050404934
0.00052159478
0.00019114489
0.000206056
0.00023434209
0.00027070248
0.0003115354
0.00035471706
0.00039969841
0.0004478356
0.00050404691
0.00052159425
0.00019114094
0.00020605067
0.00023433481
0.00027069388
0.00031152663
0.00035470919
0.00039969217
0.00044783131
0.00050404462
0.00052159363
)
;

boundaryField
{
    water_inlet
    {
        type            turbulentIntensityKineticEnergyInlet;
        intensity       0.05;
        value           uniform 0.000234375;
    }
    water_outlet
    {
        type            inletOutlet;
        inletValue      uniform 0.0001;
        value           nonuniform List<scalar> 10(0.00019114094 0.00020605067 0.00023433481 0.00027069388 0.00031152663 0.00035470919 0.00039969217 0.00044783131 0.00050404462 0.00052159363);
    }
    water_wedge1
    {
        type            wedge;
    }
    water_wedge2
    {
        type            wedge;
    }
    water_to_rock
    {
        type            kqRWallFunction;
        value           nonuniform List<scalar> 
100
(
0.00048657967
0.00057072179
0.00057180213
0.00054812316
0.00052456985
0.00050861072
0.00050003865
0.00049629336
0.00049505667
0.0004949373
0.00049528041
0.00049583519
0.00049652619
0.00049733763
0.00049826649
0.0004993074
0.0005004451
0.00050166217
0.00050294689
0.00050428937
0.00050567913
0.0005071048
0.00050855449
0.00051001597
0.00051147644
0.00051292224
0.00051433849
0.000515709
0.00051701643
0.00051824304
0.00051937181
0.00052038783
0.00052127973
0.00052204069
0.0005226689
0.00052316742
0.00052354347
0.00052380749
0.00052397203
0.00052405076
0.00052405762
0.00052400609
0.00052390878
0.00052377708
0.00052362011
0.00052344576
0.00052326167
0.00052307434
0.00052288899
0.00052270965
0.00052253933
0.00052238011
0.00052223336
0.00052209986
0.00052197993
0.00052187356
0.00052178048
0.0005217002
0.00052163205
0.00052157523
0.00052152883
0.00052149187
0.00052146338
0.0005214424
0.00052142802
0.00052141936
0.00052141561
0.00052141598
0.00052141974
0.0005214262
0.00052143474
0.00052144477
0.00052145576
0.00052146731
0.0005214791
0.00052149089
0.00052150246
0.00052151363
0.00052152425
0.00052153421
0.00052154343
0.00052155184
0.00052155941
0.00052156614
0.00052157205
0.00052157715
0.00052158151
0.00052158515
0.00052158813
0.00052159051
0.00052159235
0.0005215937
0.00052159463
0.00052159519
0.00052159544
0.00052159542
0.00052159518
0.00052159478
0.00052159425
0.00052159363
)
;
    }
}


// ************************************************************************* //
