/*--------------------------------*- C++ -*----------------------------------*\
| =========                 |                                                 |
| \\      /  F ield         | OpenFOAM: The Open Source CFD Toolbox           |
|  \\    /   O peration     | Version:  2506                                  |
|   \\  /    A nd           | Website:  www.openfoam.com                      |
|    \\/     M anipulation  |                                                 |
\*---------------------------------------------------------------------------*/
FoamFile
{
    version     2.0;
    format      ascii;
    arch        "LSB;label=32;scalar=64";
    class       volScalarField;
    location    "13000/water";
    object      nut;
}
// * * * * * * * * * * * * * * * * * * * * * * * * * * * * * * * * * * * * * //

dimensions      [0 2 -1 0 0 0 0];

internalField   nonuniform List<scalar> 
1000
(
3.8760013e-05
3.8759344e-05
3.875781e-05
3.8749425e-05
3.8703919e-05
3.8465194e-05
3.7257946e-05
3.1920746e-05
1.9133704e-05
1.6330702e-05
3.6503362e-05
3.6502673e-05
3.6496232e-05
3.646333e-05
3.6309098e-05
3.5625575e-05
3.2857819e-05
2.4520502e-05
1.4670668e-05
1.7686427e-05
3.4818768e-05
3.4815355e-05
3.4798028e-05
3.4720761e-05
3.4400236e-05
3.3155724e-05
2.8966468e-05
2.011474e-05
1.4313162e-05
1.7703159e-05
3.3515366e-05
3.3507684e-05
3.3473492e-05
3.3336596e-05
3.2819809e-05
3.0995901e-05
2.5816365e-05
1.8304938e-05
1.5980772e-05
1.7332729e-05
3.247679e-05
3.2463573e-05
3.2409014e-05
3.2208505e-05
3.1494137e-05
2.9122838e-05
2.3598651e-05
1.8669491e-05
1.8895592e-05
1.6956238e-05
3.1628598e-05
3.1609534e-05
3.1536363e-05
3.1282481e-05
3.0382849e-05
2.753495e-05
2.2595975e-05
2.0841395e-05
2.2319131e-05
1.6696316e-05
3.0922115e-05
3.0899107e-05
3.0816967e-05
3.0532911e-05
2.945516e-05
2.6339822e-05
2.3103765e-05
2.4287846e-05
2.5587486e-05
1.6555022e-05
3.0325436e-05
3.0303992e-05
3.0232568e-05
2.9948384e-05
2.8695999e-05
2.5834101e-05
2.5184021e-05
2.8331606e-05
2.8356015e-05
1.6492905e-05
2.9818405e-05
2.980919e-05
2.9779254e-05
2.9521742e-05
2.8157783e-05
2.6404772e-05
2.8559865e-05
3.2392814e-05
3.0574191e-05
1.6472342e-05
2.9389962e-05
2.9410459e-05
2.9462772e-05
2.924932e-05
2.8031439e-05
2.8288279e-05
3.2740212e-05
3.6145703e-05
3.2325731e-05
1.6470355e-05
2.9037012e-05
2.9113026e-05
2.9294024e-05
2.9151971e-05
2.8634963e-05
3.1431639e-05
3.7231808e-05
3.9484761e-05
3.3719891e-05
1.6476061e-05
2.8764313e-05
2.8930756e-05
2.9285809e-05
2.9323065e-05
3.0269747e-05
3.5542673e-05
4.1683935e-05
4.2418061e-05
3.4850541e-05
1.6485286e-05
2.8585083e-05
2.8885055e-05
2.9456357e-05
2.9966855e-05
3.3062355e-05
4.0234098e-05
4.5910975e-05
4.4991669e-05
3.5787851e-05
1.6496771e-05
2.8522066e-05
2.9003152e-05
2.9849346e-05
3.1360255e-05
3.6918774e-05
4.5157024e-05
4.9841469e-05
4.7257435e-05
3.6581228e-05
1.6510247e-05
2.8608625e-05
2.9316821e-05
3.0571075e-05
3.3736569e-05
4.1586989e-05
5.0067361e-05
5.3462048e-05
4.9262673e-05
3.7264838e-05
1.6525658e-05
2.8889302e-05
2.9866115e-05
3.1814701e-05
3.7180913e-05
4.6760482e-05
5.4824758e-05
5.6783951e-05
5.104732e-05
3.7861823e-05
1.6542909e-05
2.9419637e-05
3.0715901e-05
3.3825292e-05
4.1605863e-05
5.2164861e-05
5.935969e-05
5.9827235e-05
5.264252e-05
3.8381991e-05
1.6561744e-05
3.0266863e-05
3.1985737e-05
3.6807925e-05
4.6798674e-05
5.7598912e-05
6.3641835e-05
6.2613443e-05
5.4068876e-05
3.8841657e-05
1.658187e-05
3.1517306e-05
3.3869159e-05
4.0842621e-05
5.2497715e-05
6.293379e-05
6.7660712e-05
6.5161247e-05
5.5349647e-05
3.9251471e-05
1.6603091e-05
3.3297441e-05
3.6603757e-05
4.5858084e-05
5.8459019e-05
6.8092568e-05
7.1415699e-05
6.7489154e-05
5.6504239e-05
3.9619203e-05
1.6625237e-05
3.5800003e-05
4.038962e-05
5.1664211e-05
6.4490984e-05
7.3029074e-05
7.4907539e-05
6.9617608e-05
5.7547439e-05
3.9950812e-05
1.6648131e-05
3.9277286e-05
4.5306932e-05
5.8013933e-05
7.0457133e-05
7.7711208e-05
7.8146198e-05
7.1563526e-05
5.8491168e-05
4.0250641e-05
1.6671583e-05
4.3967761e-05
5.1282624e-05
6.4661563e-05
7.6260444e-05
8.2120864e-05
8.1142713e-05
7.3340619e-05
5.9344778e-05
4.0521816e-05
1.6695393e-05
4.9982279e-05
5.8113741e-05
7.1395705e-05
8.1829514e-05
8.6249246e-05
8.3905621e-05
7.4959542e-05
6.0115253e-05
4.0766485e-05
1.6719363e-05
5.7222957e-05
6.5521868e-05
7.8045752e-05
8.711386e-05
9.0089611e-05
8.6440418e-05
7.6427698e-05
6.0807358e-05
4.0985931e-05
1.6743283e-05
6.53853e-05
7.3208203e-05
8.4484669e-05
9.2075714e-05
9.363346e-05
8.8749057e-05
7.7749265e-05
6.1423801e-05
4.1180667e-05
1.6766931e-05
7.4039623e-05
8.0899887e-05
9.0617435e-05
9.6681633e-05
9.6870326e-05
9.0830172e-05
7.892554e-05
6.1965517e-05
4.1350558e-05
1.6790066e-05
8.2741499e-05
8.8366549e-05
9.6367421e-05
0.00010090251
9.97889e-05
9.2680096e-05
7.9955686e-05
6.2432116e-05
4.1495005e-05
1.6812423e-05
9.1117561e-05
9.5425999e-05
0.00010167352
0.00010471495
0.00010237908
9.4294523e-05
8.0837854e-05
6.282253e-05
4.1613195e-05
1.6833722e-05
9.8903617e-05
0.00010194505
0.00010649024
0.00010810306
0.00010463433
9.5670461e-05
8.1570518e-05
6.3135762e-05
4.1704411e-05
1.6853676e-05
0.00010594336
0.00010783743
0.0001107886
0.00011106003
0.00010655365
9.6808055e-05
8.2153795e-05
6.337166e-05
4.1768334e-05
1.6872018e-05
0.00011216703
0.00011305881
0.00011455639
0.0001135888
0.00010814276
9.7711896e-05
8.259051e-05
6.3531572e-05
4.180531e-05
1.688851e-05
0.00011756583
0.00011759967
0.00011779725
0.00011570182
0.00010941443
9.8391639e-05
8.2886828e-05
6.3618774e-05
4.1816523e-05
1.6902977e-05
0.00012216992
0.00012147714
0.00012052867
0.00011742005
0.00011038786
9.88619e-05
8.3052377e-05
6.3638599e-05
4.1804037e-05
1.6915312e-05
0.00012603231
0.00012472717
0.00012277927
0.00011877132
0.00011108759
9.9141544e-05
8.3099878e-05
6.3598257e-05
4.1770708e-05
1.6925489e-05
0.00012921798
0.00012739784
0.00012458573
0.00011978846
0.00011154193
9.9252568e-05
8.3044406e-05
6.3506397e-05
4.171998e-05
1.693356e-05
0.00013179684
0.00012954397
0.00012598992
0.00012050737
0.00011178141
9.9218791e-05
8.2902436e-05
6.3372518e-05
4.1655623e-05
1.6939645e-05
0.00013383933
0.00013122316
0.00012703625
0.00012096523
0.00011183725
9.9064581e-05
8.2690878e-05
6.3206353e-05
4.1581453e-05
1.6943916e-05
0.00013541359
0.00013249281
0.00012776963
0.00012119902
0.00011174009
9.8813763e-05
8.2426216e-05
6.3017315e-05
4.1501101e-05
1.6946576e-05
0.00013658387
0.00013340825
0.00012823378
0.00012124434
0.00011151905
9.8488781e-05
8.2123849e-05
6.2814079e-05
4.1417833e-05
1.6947848e-05
0.00013740955
0.00013402142
0.00012847018
0.00012113463
0.00011120109
9.8110138e-05
8.1797653e-05
6.2604308e-05
4.1334449e-05
1.6947958e-05
0.00013794471
0.00013438019
0.00012851733
0.00012090063
0.00011081058
9.7696068e-05
8.1459726e-05
6.2394509e-05
4.1253235e-05
1.6947125e-05
0.00013823801
0.00013452799
0.00012841034
0.00012057012
0.00011036914
9.7262382e-05
8.1120285e-05
6.2189987e-05
4.1175965e-05
1.6945551e-05
0.00013833278
0.00013450374
0.00012818076
0.00012016778
0.00010989554
9.6822452e-05
8.0787677e-05
6.1994874e-05
4.1103924e-05
1.6943421e-05
0.00013826728
0.00013434193
0.00012785656
0.00011971518
0.00010940581
9.6387245e-05
8.0468365e-05
6.1811945e-05
4.1036878e-05
1.6940882e-05
0.00013807496
0.00013407282
0.00012746222
0.0001192309
0.00010891324
9.5965416e-05
8.0166938e-05
6.164225e-05
4.0975954e-05
1.6938063e-05
0.00013778488
0.0001337227
0.0001270189
0.00011873064
0.00010842863
9.5563389e-05
7.9885912e-05
6.1487858e-05
4.0921615e-05
1.6935085e-05
0.00013742207
0.00013331419
0.00012654465
0.00011822741
0.00010796032
9.5185293e-05
7.9628395e-05
6.1349554e-05
4.0874023e-05
1.6932055e-05
0.00013700793
0.0001328666
0.00012605463
0.00011773165
0.00010751423
9.4835432e-05
7.939585e-05
6.1227566e-05
4.0833096e-05
1.6929055e-05
0.00013656052
0.00013239608
0.00012556114
0.00011725135
0.00010709614
9.4516261e-05
7.918885e-05
6.1121679e-05
4.0798576e-05
1.692615e-05
0.00013609481
0.00013191586
0.00012507434
0.00011679392
0.0001067098
9.4229048e-05
7.9007267e-05
6.1031314e-05
4.0770071e-05
1.6923391e-05
0.00013562318
0.00013143718
0.00012460305
0.00011636469
0.00010635756
9.3974097e-05
7.8850389e-05
6.095561e-05
4.0747102e-05
1.6920811e-05
0.0001351561
0.0001309694
0.00012415405
0.0001159674
0.00010604057
9.3750916e-05
7.8717049e-05
6.08935e-05
4.0729133e-05
1.6918434e-05
0.00013470205
0.00013051995
0.00012373241
0.00011560438
0.00010575899
9.3558382e-05
7.8605744e-05
6.0843792e-05
4.0715611e-05
1.6916272e-05
0.0001342677
0.00013009449
0.00012334167
0.00011527685
0.00010551221
9.3394908e-05
7.8514759e-05
6.080523e-05
4.0705984e-05
1.691433e-05
0.00013385813
0.00012969718
0.00012298414
0.00011498506
0.00010529899
9.3258593e-05
7.8442266e-05
6.0776562e-05
4.0699723e-05
1.6912607e-05
0.00013347704
0.00012933092
0.00012266107
0.00011472853
0.00010511767
9.3147341e-05
7.8386403e-05
6.075657e-05
4.0696336e-05
1.6911099e-05
0.00013312695
0.00012899749
0.00012237284
0.00011450622
0.00010496626
9.3058944e-05
7.8345325e-05
6.0744092e-05
4.0695368e-05
1.6909797e-05
0.00013280935
0.00012869776
0.0001221191
0.00011431656
0.00010484255
9.2991133e-05
7.8317221e-05
6.073803e-05
4.0696401e-05
1.6908692e-05
0.00013252488
0.00012843182
0.0001218989
0.00011415765
0.00010474413
9.2941621e-05
7.830034e-05
6.0737352e-05
4.069905e-05
1.690777e-05
0.0001322734
0.00012819906
0.00012171077
0.00011402726
0.00010466851
9.2908134e-05
7.8292998e-05
6.0741089e-05
4.0702964e-05
1.6907018e-05
0.00013205417
0.0001279983
0.00012155283
0.00011392296
0.00010461313
9.288846e-05
7.8293606e-05
6.0748354e-05
4.0707827e-05
1.6906419e-05
0.00013186588
0.00012782794
0.00012142291
0.0001138422
0.00010457548
9.288049e-05
7.8300693e-05
6.0758343e-05
4.0713362e-05
1.6905958e-05
0.00013170684
0.00012768602
0.00012131865
0.0001137824
0.00010455312
9.2882258e-05
7.8312926e-05
6.0770349e-05
4.0719329e-05
1.6905619e-05
0.00013157508
0.00012757035
0.00012123759
0.00011374103
0.00010454377
9.2891973e-05
7.8329127e-05
6.078376e-05
4.072553e-05
1.6905387e-05
0.00013146842
0.00012747863
0.00012117727
0.00011371566
0.00010454529
9.2908021e-05
7.834826e-05
6.0798059e-05
4.07318e-05
1.6905247e-05
0.00013138461
0.00012740849
0.00012113524
0.00011370397
0.00010455573
9.2928964e-05
7.836943e-05
6.0812808e-05
4.0738005e-05
1.6905185e-05
0.00013132133
0.00012735757
0.00012110915
0.00011370379
0.00010457333
9.2953526e-05
7.839186e-05
6.0827638e-05
4.0744037e-05
1.6905191e-05
0.00013127629
0.00012732355
0.00012109674
0.00011371312
0.00010459646
9.2980575e-05
7.8414879e-05
6.084224e-05
4.0749806e-05
1.6905251e-05
0.0001312472
0.00012730415
0.00012109585
0.00011373007
0.00010462368
9.300912e-05
7.8437914e-05
6.0856358e-05
4.0755241e-05
1.6905356e-05
0.00013123188
0.0001272972
0.00012110445
0.00011375295
0.00010465368
9.30383e-05
7.8460485e-05
6.0869785e-05
4.076029e-05
1.6905494e-05
0.00013122819
0.00012730063
0.00012112068
0.00011378021
0.00010468535
9.306739e-05
7.8482198e-05
6.0882352e-05
4.0764871e-05
1.6905657e-05
0.00013123416
0.00012731253
0.00012114284
0.0001138105
0.00010471772
9.3095791e-05
7.8502737e-05
6.0893906e-05
4.0768961e-05
1.6905836e-05
0.00013124793
0.00012733114
0.0001211694
0.00011384264
0.00010474999
9.3123023e-05
7.8521847e-05
6.0904377e-05
4.0772582e-05
1.6906023e-05
0.00013126785
0.00012735487
0.00012119903
0.00011387564
0.0001047815
9.3148701e-05
7.8539375e-05
6.0913768e-05
4.0775754e-05
1.6906214e-05
0.00013129242
0.00012738235
0.00012123058
0.00011390866
0.0001048117
9.3172557e-05
7.8555275e-05
6.0922087e-05
4.0778499e-05
1.6906405e-05
0.00013132032
0.00012741235
0.00012126306
0.000113941
0.00010484021
9.3194465e-05
7.8569523e-05
6.0929365e-05
4.0780845e-05
1.6906592e-05
0.00013135042
0.00012744382
0.00012129563
0.00011397212
0.00010486677
9.3214338e-05
7.8582133e-05
6.0935649e-05
4.078282e-05
1.6906772e-05
0.00013138172
0.00012747584
0.0001213276
0.00011400161
0.0001048912
9.3232143e-05
7.8593149e-05
6.0940994e-05
4.0784454e-05
1.6906944e-05
0.00013141336
0.00012750769
0.00012135846
0.0001140292
0.0001049134
9.3247891e-05
7.8602636e-05
6.0945464e-05
4.0785775e-05
1.6907105e-05
0.00013144466
0.00012753875
0.00012138779
0.00011405465
0.00010493331
9.3261631e-05
7.8610675e-05
6.0949124e-05
4.0786813e-05
1.6907254e-05
0.00013147505
0.00012756854
0.00012141527
0.00011407783
0.00010495093
9.3273438e-05
7.861736e-05
6.0952045e-05
4.0787597e-05
1.690739e-05
0.00013150407
0.00012759669
0.00012144066
0.00011409868
0.00010496631
9.3283416e-05
7.8622796e-05
6.0954298e-05
4.0788157e-05
1.6907513e-05
0.00013153139
0.00012762292
0.00012146382
0.00011411718
0.00010497953
9.3291688e-05
7.8627095e-05
6.0955958e-05
4.0788522e-05
1.6907622e-05
0.00013155675
0.00012764702
0.00012148468
0.00011413337
0.00010499072
9.3298393e-05
7.8630376e-05
6.0957099e-05
4.0788718e-05
1.6907717e-05
0.00013157997
0.0001276689
0.00012150321
0.00011414734
0.00010500001
9.3303681e-05
7.8632759e-05
6.0957792e-05
4.0788775e-05
1.69078e-05
0.00013160096
0.00012768849
0.00012151947
0.0001141592
0.00010500755
9.3307701e-05
7.863436e-05
6.0958106e-05
4.0788715e-05
1.6907871e-05
0.00013161969
0.00012770581
0.00012153352
0.0001141691
0.00010501352
9.3310602e-05
7.8635288e-05
6.0958105e-05
4.0788563e-05
1.690793e-05
0.00013163618
0.0001277209
0.00012154548
0.00011417719
0.00010501807
9.3312529e-05
7.8635648e-05
6.0957846e-05
4.0788338e-05
1.6907978e-05
0.00013165048
0.00012773386
0.00012155547
0.00011418361
0.00010502137
9.3313617e-05
7.8635534e-05
6.095738e-05
4.0788057e-05
1.6908017e-05
0.0001316627
0.0001277448
0.00012156364
0.00011418855
0.00010502357
9.3313993e-05
7.8635032e-05
6.0956754e-05
4.0787737e-05
1.6908047e-05
0.00013167294
0.00012775384
0.00012157015
0.00011419216
0.00010502482
9.3313777e-05
7.8634223e-05
6.0956008e-05
4.078739e-05
1.6908069e-05
0.00013168134
0.00012776115
0.00012157515
0.00011419461
0.00010502526
9.3313079e-05
7.8633178e-05
6.0955181e-05
4.0787029e-05
1.6908085e-05
0.00013168807
0.00012776687
0.00012157882
0.00011419605
0.00010502504
9.3312001e-05
7.8631962e-05
6.0954304e-05
4.0786664e-05
1.6908094e-05
0.00013169326
0.00012777117
0.00012158131
0.00011419663
0.00010502428
9.3310634e-05
7.863063e-05
6.0953403e-05
4.0786303e-05
1.6908098e-05
0.00013169709
0.00012777421
0.00012158278
0.0001141965
0.00010502308
9.3309056e-05
7.862923e-05
6.0952502e-05
4.0785952e-05
1.6908098e-05
0.00013169973
0.00012777616
0.00012158338
0.00011419578
0.00010502155
9.3307337e-05
7.8627802e-05
6.0951618e-05
4.0785617e-05
1.6908095e-05
0.00013170133
0.00012777717
0.00012158327
0.0001141946
0.00010501979
9.3305537e-05
7.862638e-05
6.0950765e-05
4.0785301e-05
1.6908088e-05
0.00013170205
0.0001277774
0.00012158257
0.00011419306
0.00010501786
9.330371e-05
7.8624993e-05
6.0949957e-05
4.0785008e-05
1.690808e-05
0.00013170207
0.000127777
0.00012158142
0.00011419128
0.00010501586
9.3301901e-05
7.8623663e-05
6.09492e-05
4.0784736e-05
1.690807e-05
)
;

boundaryField
{
    water_inlet
    {
        type            calculated;
        value           uniform 4.1926275e-05;
    }
    water_outlet
    {
        type            calculated;
        value           nonuniform List<scalar> 10(0.00013170207 0.000127777 0.00012158142 0.00011419128 0.00010501586 9.3301901e-05 7.8623663e-05 6.09492e-05 4.0784736e-05 1.690807e-05);
    }
    water_wedge1
    {
        type            wedge;
    }
    water_wedge2
    {
        type            wedge;
    }
    water_to_rock
    {
        type            nutkWallFunction;
        blending        stepwise;
        value           nonuniform List<scalar> 
100
(
1.7358471e-06
1.9240026e-06
1.9263124e-06
1.8751056e-06
1.8229116e-06
1.7867874e-06
1.7671186e-06
1.7584649e-06
1.7555994e-06
1.7553226e-06
1.7561181e-06
1.7574038e-06
1.759004e-06
1.7608815e-06
1.7630285e-06
1.7654319e-06
1.7680555e-06
1.7708584e-06
1.7738129e-06
1.7768956e-06
1.7800821e-06
1.7833457e-06
1.786659e-06
1.7899938e-06
1.7933209e-06
1.7966093e-06
1.7998254e-06
1.8029328e-06
1.8058929e-06
1.8086661e-06
1.8112148e-06
1.8135063e-06
1.8155157e-06
1.8172286e-06
1.8186417e-06
1.8197623e-06
1.8206072e-06
1.8212002e-06
1.8215697e-06
1.8217465e-06
1.8217618e-06
1.8216462e-06
1.8214277e-06
1.8211319e-06
1.8207794e-06
1.8203877e-06
1.8199741e-06
1.8195531e-06
1.8191365e-06
1.8187333e-06
1.8183503e-06
1.8179922e-06
1.8176621e-06
1.8173618e-06
1.8170919e-06
1.8168526e-06
1.8166431e-06
1.8164624e-06
1.816309e-06
1.8161811e-06
1.8160766e-06
1.8159934e-06
1.8159293e-06
1.815882e-06
1.8158497e-06
1.8158302e-06
1.8158217e-06
1.8158226e-06
1.815831e-06
1.8158456e-06
1.8158648e-06
1.8158874e-06
1.8159121e-06
1.8159381e-06
1.8159647e-06
1.8159912e-06
1.8160172e-06
1.8160424e-06
1.8160663e-06
1.8160887e-06
1.8161095e-06
1.8161284e-06
1.8161455e-06
1.8161606e-06
1.8161739e-06
1.8161854e-06
1.8161952e-06
1.8162034e-06
1.8162101e-06
1.8162155e-06
1.8162196e-06
1.8162227e-06
1.8162248e-06
1.816226e-06
1.8162266e-06
1.8162265e-06
1.816226e-06
1.8162251e-06
1.8162239e-06
1.8162225e-06
)
;
    }
}


// ************************************************************************* //
