/*--------------------------------*- C++ -*----------------------------------*\
| =========                 |                                                 |
| \\      /  F ield         | OpenFOAM: The Open Source CFD Toolbox           |
|  \\    /   O peration     | Version:  2506                                  |
|   \\  /    A nd           | Website:  www.openfoam.com                      |
|    \\/     M anipulation  |                                                 |
\*---------------------------------------------------------------------------*/
FoamFile
{
    version     2.0;
    format      ascii;
    arch        "LSB;label=32;scalar=64";
    class       surfaceScalarField;
    location    "13000/water";
    object      phi;
}
// * * * * * * * * * * * * * * * * * * * * * * * * * * * * * * * * * * * * * //

dimensions      [1 0 -1 0 0 0 0];

oriented        oriented;

internalField   nonuniform List<scalar> 
1890
(
-4.1736244e-05
0.0022168351
-0.00015753621
0.0059586937
-0.00032930668
0.0087985477
-0.00054203242
0.010900937
-0.00078239502
0.012402155
-0.0010351825
0.013412336
-0.0012746193
0.014013996
-0.0014359745
0.014245356
-0.001284859
0.0140006
0.012745539
-3.1455818e-05
0.002248291
-0.00011269721
0.0060399351
-0.00023219384
0.0089180443
-0.0003799942
0.011048737
-0.00054594254
0.012568103
-0.00071649901
0.013582893
-0.00086674515
0.014164243
-0.00093361963
0.01431223
-0.00073394521
0.013800926
0.012011594
-2.9138814e-05
0.0022774298
-0.00010672991
0.0061175262
-0.00022105534
0.0090323698
-0.00036160317
0.011189285
-0.00051700127
0.012723501
-0.00067116212
0.013737054
-0.00079396147
0.014287042
-0.00081139736
0.014329666
-0.00056729904
0.013556828
0.011444295
-2.7339928e-05
0.0023047697
-0.00010102592
0.0061912122
-0.00020924228
0.0091405861
-0.00034097879
0.011321022
-0.00048374634
0.012866269
-0.00061911413
0.013872422
-0.0007108802
0.014378808
-0.00067659665
0.014295383
-0.00042025924
0.01330049
0.011024036
-2.5625234e-05
0.0023303949
-9.4386145e-05
0.0062599731
-0.0001950669
0.0092412668
-0.00031669855
0.011442653
-0.00044589471
0.012995465
-0.00056132296
0.01398785
-0.0006188252
0.01443631
-0.00053650943
0.014213067
-0.00029565277
0.013059634
0.010728383
-2.4159512e-05
0.0023545544
-8.8799566e-05
0.0063246131
-0.00018306062
0.0093355278
-0.00029574192
0.011555335
-0.00041210911
0.013111832
-0.00050662327
0.014082364
-0.00052703645
0.014456723
-0.00040878489
0.014094815
-0.00020043337
0.012851282
0.010527949
-2.2965504e-05
0.0023775199
-8.4333553e-05
0.0063859811
-0.00017335362
0.0094245479
-0.00027826903
0.01166025
-0.00038232771
0.013215891
-0.00045438015
0.014154416
-0.00043820751
0.014440551
-0.00030321936
0.013959827
-0.0001337906
0.012681853
0.010394159
-2.2023846e-05
0.0023995438
-8.0769817e-05
0.0064447271
-0.00016540587
0.0095091839
-0.00026327235
0.011758116
-0.00035472779
0.013307346
-0.00040244534
0.014202134
-0.00035546139
0.014393567
-0.00022237198
0.013826738
-8.9857235e-05
0.012549338
0.010304302
-2.1260557e-05
0.0024208043
-7.7812578e-05
0.0065012791
-0.00015855235
0.0095899236
-0.00024948558
0.01184905
-0.00032712321
0.013384984
-0.00034954739
0.014224558
-0.00028213071
0.01432615
-0.00016300367
0.013707611
-6.1426949e-05
0.012447762
0.010242875
-2.0607127e-05
0.0024414114
-7.521659e-05
0.0065558886
-0.0001522323
0.0096669394
-0.00023577782
0.011932595
-0.00029784678
0.013447053
-0.00029644831
0.014223159
-0.00022023914
0.014249941
-0.00011980512
0.013607177
-4.268927e-05
0.012370646
0.010200185
-2.0018259e-05
0.0024614297
-7.2804608e-05
0.0066086749
-0.00014600119
0.0097401359
-0.00022120565
0.0120078
-0.00026613504
0.013491982
-0.00024531905
0.014202343
-0.0001697471
0.014174369
-8.7950585e-05
0.01352538
-2.9805376e-05
0.012312501
0.01017038
-1.9463518e-05
0.0024808932
-7.0441331e-05
0.0066596528
-0.00013947734
0.009809172
-0.00020502169
0.012073344
-0.00023228037
0.013519241
-0.00019838381
0.014168447
-0.00012919625
0.014105181
-6.3917603e-05
0.013460101
-2.0485371e-05
0.012269068
0.010149895
-1.891874e-05
0.002499812
-6.8008075e-05
0.0067087421
-0.0001322986
0.0098734625
-0.00018675543
0.012127801
-0.00019748112
0.013529966
-0.00015697946
0.014127945
-9.6700014e-05
0.014044902
-4.5354926e-05
0.013408756
-1.3426711e-05
0.01223714
0.010136468
-1.8360393e-05
0.0025181724
-6.5381793e-05
0.0067557635
-0.00012410686
0.0099321876
-0.00016633437
0.012170028
-0.00016333278
0.013526965
-0.00012140697
0.01408602
-7.0531043e-05
0.013994026
-3.0720862e-05
0.013368946
-7.8902318e-06
0.01221431
0.010128578
-1.7761426e-05
0.0025359338
-6.2419632e-05
0.0068004217
-0.00011457685
0.0099843448
-0.00014416254
0.012199614
-0.00013124019
0.013514043
-9.1273874e-05
0.014046053
-4.9297218e-05
0.013952049
-1.8987378e-05
0.013338636
-3.4333258e-06
0.012198756
0.010125144
-1.7087909e-05
0.0025530217
-5.8952453e-05
0.0068422863
-0.00010349023
0.010028883
-0.00012105255
0.012217176
-0.00010208327
0.013495073
-6.5899398e-05
0.014009869
-3.1932496e-05
0.013918082
-9.4512567e-06
0.013316155
2.8663099e-07
0.012189018
0.010125431
-1.6296448e-05
0.0025693182
-5.479314e-05
0.006880783
-9.0831982e-05
0.010064921
-9.7998296e-05
0.012224343
-7.6209256e-05
0.013473284
-4.457119e-05
0.013978231
-1.7626298e-05
0.013891137
-1.5564163e-06
0.013300085
3.3723207e-06
0.012184089
0.010128803
-1.5331753e-05
0.0025846499
-4.9761851e-05
0.0069152131
-7.6852282e-05
0.010092012
-7.5897902e-05
0.012223388
-5.3587991e-05
0.013450974
-2.6633492e-05
0.013951277
-5.7243695e-06
0.013870228
4.9988632e-06
0.013289362
5.8501121e-06
0.012183238
0.010134653
-1.4126741e-05
0.0025987767
-4.3732661e-05
0.006944819
-6.2044088e-05
0.010110323
-5.5379317e-05
0.012216724
-3.3985651e-05
0.013429581
-1.1511645e-05
0.013928803
4.2377538e-06
0.013854479
1.0368336e-05
0.013283232
7.8671501e-06
0.012185739
0.010142521
-1.2609191e-05
0.0026113859
-3.669489e-05
0.0069689047
-4.703175e-05
0.01012066
-3.6775991e-05
0.012206468
-1.7081546e-05
0.013409886
1.3269952e-06
0.013910394
1.2525565e-05
0.01384328
1.4772577e-05
0.013280985
9.5148921e-06
0.012190997
0.010152035
-1.0718726e-05
0.0026221046
-2.8801278e-05
0.0069869873
-3.2421197e-05
0.01012428
-2.0183045e-05
0.01219423
-2.4833268e-06
0.013392187
1.2168928e-05
0.013895742
1.9373511e-05
0.013836076
1.8386736e-05
0.013281971
1.085968e-05
0.012198524
0.010162895
-8.4364394e-06
0.002630541
-2.0369914e-05
0.0069989208
-1.8685882e-05
0.010122596
-5.5196314e-06
0.012181063
1.002879e-05
0.013376638
2.1194305e-05
0.013884577
2.5020717e-05
0.013832249
2.1342245e-05
0.01328565
1.1949435e-05
0.012207917
0.010174845
-5.8191117e-06
0.0026363601
-1.1825952e-05
0.0070049276
-6.1114339e-06
0.010116882
7.2757955e-06
0.012167676
2.0569565e-05
0.013363344
2.8683349e-05
0.013876463
2.9653068e-05
0.01383128
2.3736981e-05
0.013291566
1.2818456e-05
0.012218835
0.010187663
-3.0143682e-06
0.0026393745
-3.5963736e-06
0.0070055096
5.1023258e-06
0.010108183
1.8190666e-05
0.012154588
2.9354481e-05
0.013352181
3.4840235e-05
0.013870977
3.3407334e-05
0.013832713
2.5641408e-05
0.013299332
1.3490458e-05
0.012230986
0.010201153
-2.3420258e-07
0.0026396087
3.9068612e-06
0.0070013685
1.4740165e-05
0.01009735
2.7285357e-05
0.012142043
3.6560289e-05
0.013342906
3.981312e-05
0.013867724
3.6378546e-05
0.013836147
2.7102127e-05
0.013308608
1.3979891e-05
0.012244108
0.010215133
2.2770244e-06
0.0026373317
1.0308746e-05
0.0069933368
2.268185e-05
0.010084976
3.4656194e-05
0.012130068
4.2309273e-05
0.013335253
4.3697788e-05
0.013866336
3.8622904e-05
0.013841222
2.8142638e-05
0.013319089
1.4291483e-05
0.012257959
0.010229425
4.321817e-06
0.0026330099
1.5395294e-05
0.0069822633
2.8920796e-05
0.010071451
4.0373604e-05
0.012118616
4.6677758e-05
0.013328948
4.6546075e-05
0.013866467
4.0163721e-05
0.013847604
2.876659e-05
0.013330486
1.4421642e-05
0.012272304
0.010243846
5.8173089e-06
0.0026271926
1.9123821e-05
0.0069689568
3.3493134e-05
0.010057082
4.4499327e-05
0.012107609
4.9714975e-05
0.013323733
4.8381847e-05
0.0138678
4.1002953e-05
0.013854983
2.8964834e-05
0.013342524
1.4361611e-05
0.012286907
0.010258208
6.7756748e-06
0.0026204169
2.1562257e-05
0.0069541702
3.6486582e-05
0.010042157
4.7107504e-05
0.012096988
5.146577e-05
0.013319374
4.9220545e-05
0.013870046
4.1135824e-05
0.013863068
2.8724839e-05
0.013354935
1.4101907e-05
0.01230153
0.01027231
7.2692286e-06
0.0026131477
2.2857295e-05
0.0069385822
3.8041445e-05
0.010026973
4.830114e-05
0.012086729
5.1991074e-05
0.013315685
4.9088222e-05
0.013872949
4.0565973e-05
0.01387159
2.804088e-05
0.01336746
1.3637284e-05
0.012315934
0.010285947
7.3946111e-06
0.002605753
2.3199017e-05
0.0069227778
3.8341529e-05
0.010011831
4.8219389e-05
0.012076851
5.138172e-05
0.013312522
4.8036348e-05
0.013876294
3.9318232e-05
0.013880308
2.6923125e-05
0.013379855
1.2971227e-05
0.012329886
0.010298918
7.2478033e-06
0.0025985052
2.278953e-05
0.006907236
3.7597654e-05
0.0099970225
4.7034647e-05
0.012067414
4.9763036e-05
0.013309794
4.6149338e-05
0.013879908
3.7446236e-05
0.013889011
2.5403472e-05
0.013391898
1.2118917e-05
0.01234317
0.010311037
6.911696e-06
0.0025915935
2.1820435e-05
0.0068923273
3.6028971e-05
0.009982814
4.4942022e-05
0.012058501
4.7290564e-05
0.013307445
4.3543877e-05
0.013883654
3.5033268e-05
0.013897522
2.3536553e-05
0.013403394
1.1107812e-05
0.012355599
0.010322145
6.4524384e-06
0.0025851411
2.0459941e-05
0.0068783198
3.3846531e-05
0.0099694274
4.2145274e-05
0.012050202
4.4139525e-05
0.013305451
4.0361272e-05
0.013887432
3.2186727e-05
0.013905697
2.1395829e-05
0.013414185
9.9753646e-06
0.01236702
0.010332121
5.9203665e-06
0.0025792207
1.8847827e-05
0.0068653923
3.1241598e-05
0.0099570336
3.8843127e-05
0.0120426
4.0491781e-05
0.013303802
3.6755966e-05
0.013891168
2.9028554e-05
0.013913424
1.9066431e-05
0.013424147
8.7651105e-06
0.012377321
0.010340886
5.3525999e-06
0.0025738681
1.7095464e-05
0.0068536494
2.8379002e-05
0.00994575
3.5218319e-05
0.012035761
3.6523349e-05
0.013302497
3.2883215e-05
0.013894808
2.5684279e-05
0.013920623
1.6636736e-05
0.013433195
7.5220302e-06
0.012386436
0.010348408
4.7758501e-06
0.0025690923
1.5288564e-05
0.0068431367
2.5394763e-05
0.0099356438
3.1430458e-05
0.012029725
3.2394535e-05
0.013301533
2.8888402e-05
0.013898315
2.2273059e-05
0.013927238
1.4190553e-05
0.013441277
6.2881558e-06
0.012394338
0.010354696
4.2089198e-06
0.0025648834
1.3491082e-05
0.0068338546
2.2396902e-05
0.009926738
2.7612738e-05
0.01202451
2.8243849e-05
0.013300902
2.4899697e-05
0.013901659
1.8900595e-05
0.013933237
1.180169e-05
0.013448376
5.0998774e-06
0.01240104
0.010359796
3.6646685e-06
0.0025612187
1.1749192e-05
0.00682577
1.9467972e-05
0.0099190192
2.3871515e-05
0.012020106
2.4185042e-05
0.013300589
2.1023755e-05
0.01390482
1.5654711e-05
0.013938606
9.5304729e-06
0.013454501
3.9859638e-06
0.012406584
0.010363782
3.1515755e-06
0.0025580671
1.0095014e-05
0.0068188266
1.6668622e-05
0.0099124456
2.0288075e-05
0.012016487
2.0307062e-05
0.01330057
1.7344513e-05
0.013907783
1.2603872e-05
0.013943347
7.4227412e-06
0.013459682
2.9674579e-06
0.01241104
0.010366749
2.6748742e-06
0.0025553922
8.5497135e-06
0.0068129518
1.4041196e-05
0.0099069542
1.6921346e-05
0.012013607
1.6675486e-05
0.013300815
1.3923703e-05
0.013910534
9.7973075e-06
0.013947473
5.5099505e-06
0.013463969
2.0576658e-06
0.012414492
0.010368807
2.2374397e-06
0.0025531548
7.1260985e-06
0.0068080631
1.1613251e-05
0.009902467
1.3811198e-05
0.012011409
1.3335176e-05
0.013301291
1.080289e-05
0.013913067
7.2666558e-06
0.01395101
3.8105789e-06
0.013467425
1.2632425e-06
0.012417039
0.01037007
1.8404356e-06
0.0025513144
5.8307077e-06
0.0068040728
9.4007065e-06
0.009898897
1.0981868e-05
0.012009827
1.0313478e-05
0.01330196
8.0063808e-06
0.013915374
5.0285971e-06
0.013953987
2.3323541e-06
0.013470121
5.855692e-07
0.012418786
0.010370656
1.4837915e-06
0.0025498306
4.6654001e-06
0.0068008912
7.410414e-06
0.009896152
8.4449368e-06
0.012008793
7.6231852e-06
0.013302782
5.5439207e-06
0.013917453
3.0872673e-06
0.013956444
1.0751086e-06
0.013472134
3.2384558e-08
0.012419829
0.010370688
1.1665105e-06
0.0025486641
3.6283988e-06
0.0067984293
5.6418804e-06
0.0098941385
6.2013407e-06
0.012008233
5.264537e-06
0.013303718
3.4128375e-06
0.013919305
1.4376327e-06
0.013958419
4.0160441e-08
0.013473531
-4.111954e-07
0.01242028
0.010370277
8.8696136e-07
0.0025477771
2.7153749e-06
0.0067966009
4.0893282e-06
0.0098927646
4.244327e-06
0.012008078
3.2291196e-06
0.013304734
1.6034323e-06
0.01392093
7.4364024e-08
0.013959948
-7.9600506e-07
0.013474401
-7.7026291e-07
0.012420254
0.010369507
6.4313152e-07
0.002547134
1.9204269e-06
0.0067953236
2.743677e-06
0.0098919413
2.5625578e-06
0.01200826
1.5043289e-06
0.013305792
1.0564165e-07
0.013922329
-1.0306451e-06
0.013961085
-1.4660977e-06
0.013474837
-1.049377e-06
0.012419838
0.010368457
4.3278448e-07
0.0025467012
1.236663e-06
0.0067945198
1.5938042e-06
0.0098915842
1.1423635e-06
0.012008711
7.6964791e-08
0.013306857
-1.1104999e-06
0.013923517
-1.9140614e-06
0.013961888
-1.9831749e-06
0.013474906
-1.2545733e-06
0.012419109
0.010367203
2.5358379e-07
0.0025464476
6.5681636e-07
0.0067941165
6.283301e-07
0.0098916127
-3.0423096e-08
0.01200937
-1.0825427e-06
0.013307909
-2.0825588e-06
0.013924517
-2.5959155e-06
0.013962402
-2.3621834e-06
0.013474672
-1.3938922e-06
0.012418141
0.010365809
1.0327316e-07
0.0025463443
1.7385677e-07
0.0067940459
-1.6624239e-07
0.0098919528
-9.8241903e-07
0.012010186
-2.0094153e-06
0.013308936
-2.8342498e-06
0.013925341
-3.0973127e-06
0.013962665
-2.6195323e-06
0.013474194
-1.4761488e-06
0.012416997
0.010364333
-2.0640304e-08
0.002546365
-2.215022e-07
0.0067942468
-8.0994076e-07
0.0098925412
-1.7427465e-06
0.012011119
-2.7271082e-06
0.013309921
-3.3895313e-06
0.013926004
-3.4404556e-06
0.013962716
-2.7722359e-06
0.013473526
-1.5103845e-06
0.012415736
0.010362822
-1.2119193e-07
0.0025464862
-5.401454e-07
0.0067946658
-1.3216363e-06
0.0098933227
-2.3307382e-06
0.012012128
-3.2588354e-06
0.013310849
-3.7728508e-06
0.013926518
-3.647617e-06
0.01396259
-2.8370463e-06
0.013472716
-1.505348e-06
0.012414404
0.010361317
-2.0117821e-07
0.0025466874
-7.9085973e-07
0.0067952555
-1.7151213e-06
0.009894247
-2.7658467e-06
0.012013179
-3.627671e-06
0.013311711
-4.0080552e-06
0.013926898
-3.7400877e-06
0.013962322
-2.8296079e-06
0.013471805
-1.4689976e-06
0.012413043
0.010359848
-2.6286616e-07
0.0025469502
-9.8110062e-07
0.0067959737
-2.0039857e-06
0.0098952699
-3.0670254e-06
0.012014242
-3.8558166e-06
0.0133125
-4.1176641e-06
0.01392716
-3.7375398e-06
0.013961942
-2.7640269e-06
0.013470832
-1.4083549e-06
0.012411688
0.01035844
-3.083818e-07
0.0025472586
-1.1180343e-06
0.0067967833
-2.2012846e-06
0.0098963531
-3.2523177e-06
0.012015293
-3.9641092e-06
0.013313211
-4.1224234e-06
0.013927318
-3.6576839e-06
0.013961478
-2.6526528e-06
0.013469827
-1.3293447e-06
0.012410364
0.01035711
-3.3973608e-07
0.0025475983
-1.2084777e-06
0.0067976521
-2.3194038e-06
0.0098974641
-3.3386848e-06
0.012016312
-3.9718765e-06
0.013313845
-4.0412337e-06
0.013927388
-3.516302e-06
0.013960953
-2.50622e-06
0.013468817
-1.2370092e-06
0.012409095
0.010355873
-3.5882334e-07
0.0025479572
-1.2588651e-06
0.0067985521
-2.3699872e-06
0.0098985752
-3.3419357e-06
0.012017284
-3.8969037e-06
0.013314399
-3.8912155e-06
0.013927382
-3.3274376e-06
0.013960389
-2.3340948e-06
0.013467823
-1.135627e-06
0.012407897
0.010354738
-3.6742619e-07
0.0025483246
-1.2752375e-06
0.0067994599
-2.3639178e-06
0.0098996639
-3.2767269e-06
0.012018197
-3.7554991e-06
0.013314878
-3.6878601e-06
0.013927314
-3.1036234e-06
0.013959805
-2.1445291e-06
0.013466864
-1.028943e-06
0.012406781
0.010353709
-3.6721024e-07
0.0025486918
-1.2632333e-06
0.006800356
-2.3112997e-06
0.0099007119
-3.1565515e-06
0.012019042
-3.5625055e-06
0.013315284
-3.4450923e-06
0.013927197
-2.8559812e-06
0.013959216
-1.9447698e-06
0.013465953
-9.2019845e-07
0.012405757
0.010352788
-3.5972517e-07
0.0025490515
-1.2280759e-06
0.0068012243
-2.2214338e-06
0.0099017053
-2.9937056e-06
0.012019814
-3.3312927e-06
0.013315622
-3.1752871e-06
0.013927041
-2.594274e-06
0.013958635
-1.7411128e-06
0.0134651
-8.1222592e-07
0.012404828
0.010351976
-3.4638595e-07
0.0025493979
-1.1745283e-06
0.0068020525
-2.1027325e-06
0.0099026335
-2.7991789e-06
0.012020511
-3.0736144e-06
0.013315896
-2.8891224e-06
0.013926857
-2.3267355e-06
0.013958072
-1.5387234e-06
0.013464312
-7.0724903e-07
0.012403996
0.010351269
-3.2847982e-07
0.0025497264
-1.1068901e-06
0.0068028309
-1.9627075e-06
0.0099034893
-2.5826365e-06
0.012021131
-2.7996196e-06
0.013316113
-2.5956078e-06
0.013926653
-2.0601276e-06
0.013957537
-1.3417212e-06
0.013463593
-6.0701921e-07
0.012403262
0.010350662
-3.0714817e-07
0.0025500335
-1.0289602e-06
0.0068035527
-1.8079171e-06
0.0099042683
-2.3523674e-06
0.012021675
-2.5178017e-06
0.013316279
-2.3020527e-06
0.013926437
-1.7997099e-06
0.013957034
-1.1531103e-06
0.013462947
-5.1266536e-07
0.012402621
0.010350149
-2.8340235e-07
0.0025503169
-9.4406543e-07
0.0068042133
-1.6440205e-06
0.0099049682
-2.1153835e-06
0.012022146
-2.2351754e-06
0.013316398
-2.014298e-06
0.013926216
-1.5495006e-06
0.013956569
-9.7505303e-07
0.013462372
-4.2495456e-07
0.012402071
0.010349724
-2.5812029e-07
0.0025505751
-8.5507289e-07
0.0068048103
-1.4758248e-06
0.009905589
-1.8775258e-06
0.012022548
-1.9574222e-06
0.013316478
-1.7369095e-06
0.013925995
-1.3124815e-06
0.013956145
-8.0900594e-07
0.013461869
-3.4429723e-07
0.012401606
0.01034938
-2.320616e-07
0.0025508071
-7.6443735e-07
0.0068053427
-1.3073849e-06
0.0099061319
-1.6436221e-06
0.012022884
-1.6891291e-06
0.013316524
-1.4734574e-06
0.01392578
-1.0908815e-06
0.013955762
-6.559907e-07
0.013461434
-2.7093777e-07
0.012401221
0.010349109
-2.0587514e-07
0.002551013
-6.7423463e-07
0.006805811
-1.1420792e-06
0.0099065998
-1.4176218e-06
0.01202316
-1.4339541e-06
0.01331654
-1.226692e-06
0.013925572
-8.8633624e-07
0.013955422
-5.1669031e-07
0.013461064
-2.0499928e-07
0.01240091
0.010348904
-1.8010803e-07
0.0025511931
-5.8619727e-07
0.0068062171
-9.8268412e-07
0.0099069963
-1.2026947e-06
0.01202338
-1.1947462e-06
0.013316532
-9.9867075e-07
0.013925376
-6.9998802e-07
0.013955123
-3.9153034e-07
0.013460756
-1.4653714e-07
0.012400665
0.010348758
-1.5520824e-07
0.0025513483
-5.0173251e-07
0.0068065637
-8.314096e-07
0.0099073259
-1.0012925e-06
0.01202355
-9.7360461e-07
0.013316505
-7.9079067e-07
0.013925194
-5.3249704e-07
0.013954865
-2.8064145e-07
0.013460504
-9.5466208e-08
0.012400479
0.010348662
-1.3153423e-07
0.0025514798
-4.2194528e-07
0.0068068541
-6.8993845e-07
0.0099075939
-8.1518236e-07
0.012023675
-7.7191569e-07
0.013316461
-6.0381239e-07
0.013925025
-3.8403668e-07
0.013954645
-1.8385153e-07
0.013460304
-5.1605462e-08
0.012400347
0.01034861
-1.0935258e-07
0.0025515892
-3.4764493e-07
0.0068070924
-5.5944088e-07
0.0099078057
-6.4547958e-07
0.012023761
-5.9036891e-07
0.013316406
-4.378578e-07
0.013924873
-2.5426136e-07
0.013954462
-1.0058671e-07
0.01346015
-1.408844e-08
0.012400261
0.010348596
-8.8856236e-08
0.0025516781
-2.7938993e-07
0.0068072829
-4.406582e-07
0.009907967
-4.9275831e-07
0.012023813
-4.2910321e-07
0.013316343
-2.9256842e-07
0.013924736
-1.4241101e-07
0.013954312
-2.9697214e-08
0.013460037
1.7483983e-08
0.012400213
0.010348614
-7.0164597e-08
0.0025517482
-2.1750408e-07
0.0068074302
-3.3393464e-07
0.0099080834
-3.5710177e-07
0.012023836
-2.8775072e-07
0.013316273
-1.6708655e-07
0.013924616
-4.7132746e-08
0.013954192
2.9709123e-08
0.013459961
4.2808028e-08
0.0124002
0.010348657
-5.3338822e-08
0.0025518016
-1.6211623e-07
0.006807539
-2.3928541e-07
0.0099081606
-2.3818201e-07
0.012023835
-1.6549602e-07
0.0133162
-6.0031484e-08
0.01392451
3.2824677e-08
0.013954099
7.7810857e-08
0.013459916
6.2312701e-08
0.012400216
0.010348719
-3.8389148e-08
0.0025518399
-1.1318727e-07
0.0068076138
-1.5644558e-07
0.0099082039
-1.353127e-07
0.012023814
-6.1075868e-08
0.013316126
2.9985242e-08
0.013924419
9.7991759e-08
0.013954031
1.1541566e-07
0.013459898
7.6906209e-08
0.012400254
0.010348796
-2.5284687e-08
0.0025518652
-7.0547775e-08
0.0068076591
-8.4923329e-08
0.0099082182
-4.7469703e-08
0.012023777
2.6779955e-08
0.013316052
1.0362911e-07
0.013924342
1.4930208e-07
0.013953985
1.4383822e-07
0.013459904
8.7308828e-08
0.012400311
0.010348883
-1.3959617e-08
0.0025518792
-3.390786e-08
0.006807679
-2.3985005e-08
0.0099082083
2.6328804e-08
0.012023726
9.8729584e-08
0.01331598
1.6183951e-07
0.013924279
1.8830691e-07
0.013953959
1.6424539e-07
0.013459928
9.4120629e-08
0.012400381
0.010348977
-4.3122692e-09
0.0025518835
-2.8695775e-09
0.0068076776
2.6960071e-08
0.0099081785
8.6615715e-08
0.012023667
1.5564547e-07
0.013315911
2.0622225e-07
0.013924229
2.1644366e-07
0.013953948
1.7766975e-07
0.013459967
9.7835481e-08
0.012400461
0.010349075
3.7483109e-09
0.0025518798
2.2823732e-08
0.0068076585
6.8307816e-08
0.009908133
1.3420812e-07
0.012023601
1.9906563e-07
0.013315846
2.3835195e-07
0.013924189
2.3507883e-07
0.013953952
1.8507185e-07
0.013460017
9.8931171e-08
0.012400547
0.010349174
1.0293367e-08
0.0025518695
4.3410788e-08
0.0068076254
1.0073417e-07
0.0099080757
1.7038015e-07
0.012023531
2.3047448e-07
0.013315786
2.5970731e-07
0.01392416
2.4546767e-07
0.013953966
1.8731136e-07
0.013460075
9.7774931e-08
0.012400637
0.010349272
1.5441032e-08
0.002551854
5.9360634e-08
0.0068075815
1.2517016e-07
0.0099080099
1.964248e-07
0.01202346
2.5136771e-07
0.013315731
2.7176684e-07
0.01392414
2.4885612e-07
0.013953989
1.8524902e-07
0.013460138
9.4811713e-08
0.012400727
0.010349367
1.9329489e-08
0.0025518347
7.1166393e-08
0.0068075296
1.4253605e-07
0.0099079385
2.1360964e-07
0.012023389
2.6318467e-07
0.013315681
2.7593224e-07
0.013924127
2.4640576e-07
0.013954018
1.7966666e-07
0.013460205
9.0376192e-08
0.012400816
0.010349457
2.2107354e-08
0.0025518126
7.9335412e-08
0.0068074724
1.5375635e-07
0.0099078641
2.2319369e-07
0.012023319
2.6734507e-07
0.013315637
2.735725e-07
0.013924121
2.3925782e-07
0.013954053
1.713566e-07
0.013460273
8.4880897e-08
0.012400903
0.010349542
2.3914398e-08
0.0025517887
8.4352084e-08
0.006807412
1.5970842e-07
0.0099077887
2.2635614e-07
0.012023253
2.6515099e-07
0.013315598
2.6592053e-07
0.01392412
2.2841337e-07
0.01395409
1.609789e-07
0.01346034
7.8595416e-08
0.012400985
0.01034962
2.4893548e-08
0.0025517638
8.6692373e-08
0.0068073502
1.6124254e-07
0.0099077142
2.2422236e-07
0.01202319
2.5784157e-07
0.013315565
2.5414591e-07
0.013924124
2.1481827e-07
0.01395413
1.4917477e-07
0.013460406
7.1854314e-08
0.012401062
0.010349692
2.5171841e-08
0.0025517386
8.6791367e-08
0.0068072885
1.5912538e-07
0.0099076419
2.1779647e-07
0.012023131
2.4648657e-07
0.013315536
2.3922605e-07
0.013924131
1.9923776e-07
0.01395417
1.3642444e-07
0.013460469
6.4842273e-08
0.012401134
0.010349757
2.4875523e-08
0.0025517137
8.5061668e-08
0.0068072284
1.5407638e-07
0.0099075728
2.0800663e-07
0.012023077
2.3208098e-07
0.013315512
2.2206477e-07
0.013924141
1.8237439e-07
0.013954209
1.2319022e-07
0.013460528
5.7796288e-08
0.012401199
0.010349815
2.4110096e-08
0.0025516896
8.1863905e-08
0.0068071706
1.4672012e-07
0.009907508
1.9564678e-07
0.012023028
2.1543923e-07
0.013315492
2.0337943e-07
0.013924153
1.6476222e-07
0.013954248
1.0977801e-07
0.013460583
5.0797217e-08
0.012401258
0.010349866
2.2980658e-08
0.0025516666
7.753605e-08
0.0068071161
1.3763431e-07
0.0099074479
1.8144345e-07
0.012022984
1.9732147e-07
0.013315476
1.8384147e-07
0.013924167
1.4690602e-07
0.013954285
9.6507847e-08
0.013460633
4.4021476e-08
0.012401311
0.01034991
2.1573379e-08
0.0025516451
7.2367243e-08
0.0068070653
1.2731028e-07
0.0099073929
1.6601239e-07
0.012022946
1.7834801e-07
0.013315464
1.6398027e-07
0.013924181
1.2919232e-07
0.01395432
8.3599163e-08
0.013460679
3.7517865e-08
0.012401357
0.010349947
1.9972395e-08
0.0025516251
6.6624879e-08
0.0068070186
1.1619934e-07
0.0099073434
1.4990974e-07
0.012022912
1.5908771e-07
0.013315455
1.4429201e-07
0.013924196
1.1198703e-07
0.013954352
7.1285383e-08
0.01346072
3.1428244e-08
0.012401397
0.010349979
1.8242681e-08
0.0025516069
6.0528024e-08
0.0068069763
1.0466766e-07
0.0099072992
1.3358508e-07
0.012022883
1.399803e-07
0.013315448
1.251413e-07
0.013924211
9.5540163e-08
0.013954381
5.9687904e-08
0.013460756
2.5755013e-08
0.012401431
0.010350004
1.6447873e-08
0.0025515904
5.4275336e-08
0.0068069385
9.3044184e-08
0.0099072604
1.1743145e-07
0.012022859
1.2141569e-07
0.013315444
1.0684908e-07
0.013924225
8.0081219e-08
0.013954408
4.8953677e-08
0.013460787
2.058375e-08
0.012401459
0.010350025
1.4635613e-08
0.0025515758
4.8025216e-08
0.0068069051
8.158786e-08
0.0099072269
1.0175773e-07
0.012022839
1.0368206e-07
0.013315442
8.9639035e-08
0.013924239
6.5744431e-08
0.013954432
3.9127519e-08
0.013460813
1.5904286e-08
0.012401482
0.010350041
1.2850125e-08
0.0025515629
4.1914133e-08
0.006806876
7.0516694e-08
0.0099071983
8.6811754e-08
0.012022822
8.7007788e-08
0.013315442
7.3682171e-08
0.013924252
5.263334e-08
0.013954453
3.0264862e-08
0.013460836
1.1742539e-08
0.012401501
0.010350053
1.1123512e-08
0.0025515518
3.6045263e-08
0.0068068511
5.999446e-08
0.0099071743
7.2779127e-08
0.012022809
7.155221e-08
0.013315443
5.9083406e-08
0.013924265
4.0796429e-08
0.013954471
2.2365368e-08
0.013460854
8.0785484e-09
0.012401515
0.010350061
9.4834523e-09
0.0025515423
3.0504539e-08
0.0068068301
5.01557e-08
0.0099071546
5.980562e-08
0.0120228
5.7438984e-08
0.013315446
4.592984e-08
0.013924276
3.0273228e-08
0.013954487
1.5440296e-08
0.013460869
4.9141943e-09
0.012401526
0.010350066
7.9448492e-09
0.0025515344
2.5343418e-08
0.0068068127
4.1078475e-08
0.0099071389
4.7973773e-08
0.012022793
4.4735842e-08
0.013315449
3.4253055e-08
0.013924287
2.1072906e-08
0.0139545
9.4801071e-09
0.01346088
2.2302121e-09
0.012401533
0.010350068
6.5296534e-09
0.0025515278
2.0614339e-08
0.0068067986
3.2863744e-08
0.0099071266
3.7456166e-08
0.012022788
3.3687608e-08
0.013315453
2.4359805e-08
0.013924296
1.3516999e-08
0.013954511
4.7689233e-09
0.013460889
2.1777351e-10
0.012401537
0.010350068
2.9589451e-09
9.3083993e-09
1.4723805e-08
1.6564719e-08
1.4627872e-08
1.0244839e-08
5.3763258e-09
1.62316e-09
-7.1928541e-11
)
;

boundaryField
{
    water_inlet
    {
        type            calculated;
        value           nonuniform List<scalar> 10(-0.0021750989 -0.0058428937 -0.0086267772 -0.010688211 -0.012161792 -0.013159549 -0.01377456 -0.014084001 -0.014151716 -0.014030398);
    }
    water_outlet
    {
        type            calculated;
        value           nonuniform List<scalar> 10(0.0025515249 0.0068067922 0.0099071213 0.012022786 0.013315455 0.013924301 0.013954516 0.013460893 0.012401539 0.010350068);
    }
    water_wedge1
    {
        type            wedge;
        value           nonuniform List<scalar> 
1000
(
-1.1296444e-13
-1.4267836e-13
-1.1216322e-13
-1.0631739e-13
-9.9353425e-14
-9.3388379e-14
-8.8693593e-14
-8.4953155e-14
-8.197586e-14
-7.949013e-14
-7.7281044e-14
-7.5237553e-14
-7.3264146e-14
-7.127978e-14
-6.9187137e-14
-6.6857338e-14
-6.4134697e-14
-6.0816802e-14
-5.6666726e-14
-5.1409109e-14
-4.4792902e-14
-3.6655533e-14
-2.7079894e-14
-1.6560568e-14
-5.8622168e-15
4.0653858e-15
1.237578e-14
1.8672097e-14
2.289659e-14
2.5297314e-14
2.6221468e-14
2.6006188e-14
2.5029784e-14
2.3516637e-14
2.1681752e-14
1.9698089e-14
1.7628412e-14
1.5586907e-14
1.3608505e-14
1.1731983e-14
1.0000299e-14
8.3937159e-15
6.931804e-15
5.6157391e-15
4.440739e-15
3.4017476e-15
2.4920315e-15
1.7145539e-15
1.0447102e-15
4.8037834e-16
1.3584461e-17
-3.6993026e-16
-6.6977702e-16
-9.113335e-16
-1.0861078e-15
-1.2062886e-15
-1.2867896e-15
-1.3256391e-15
-1.3360688e-15
-1.3150514e-15
-1.2631458e-15
-1.2028611e-15
-1.1337676e-15
-1.0446696e-15
-9.5359479e-16
-8.6481018e-16
-7.685629e-16
-6.7116313e-16
-5.8531836e-16
-4.9728996e-16
-4.1588527e-16
-3.426707e-16
-2.726573e-16
-2.1219727e-16
-1.5160619e-16
-1.0441729e-16
-6.2131785e-17
-2.5146083e-17
4.8151171e-18
2.7485277e-17
4.5369284e-17
6.1433889e-17
6.9928555e-17
8.1638337e-17
8.3693857e-17
8.3345719e-17
8.9997593e-17
8.7386074e-17
7.8017181e-17
7.1896128e-17
7.0288388e-17
6.6858614e-17
5.8675544e-17
4.8594403e-17
4.1273598e-17
4.1031558e-17
3.4085625e-17
2.4681093e-17
1.67795e-17
4.6048622e-18
-6.8081267e-13
-1.0335453e-12
-8.3929088e-13
-7.9752883e-13
-7.4940023e-13
-7.0313891e-13
-6.6536505e-13
-6.3522818e-13
-6.109359e-13
-5.9052899e-13
-5.7244914e-13
-5.5560485e-13
-5.3912494e-13
-5.2219991e-13
-5.0397533e-13
-4.8343145e-13
-4.5934345e-13
-4.3018947e-13
-3.9436557e-13
-3.5055297e-13
-2.9814173e-13
-2.3765844e-13
-1.7103771e-13
-1.0155576e-13
-3.3369055e-14
2.8950074e-14
8.1488669e-14
1.2214901e-13
1.506352e-13
1.6797586e-13
1.7589779e-13
1.7635575e-13
1.7127296e-13
1.6227846e-13
1.5073245e-13
1.3769011e-13
1.2392591e-13
1.1003897e-13
9.6438679e-14
8.3435671e-14
7.1225269e-14
5.9902892e-14
4.9551244e-14
4.0197794e-14
3.1830909e-14
2.4420824e-14
1.7931803e-14
1.2310859e-14
7.506484e-15
3.4662123e-15
1.1422562e-16
-2.6195558e-15
-4.8030269e-15
-6.5012005e-15
-7.7688304e-15
-8.6596347e-15
-9.2158293e-15
-9.4921371e-15
-9.5363709e-15
-9.3778083e-15
-9.0594567e-15
-8.6161401e-15
-8.0830981e-15
-7.4836988e-15
-6.8346853e-15
-6.1623219e-15
-5.4807209e-15
-4.8078679e-15
-4.1607181e-15
-3.541655e-15
-2.9596353e-15
-2.4155531e-15
-1.9217706e-15
-1.478839e-15
-1.0836392e-15
-7.3573819e-16
-4.2485648e-16
-1.6434105e-16
5.1365298e-17
2.2433299e-16
3.5922087e-16
4.7227391e-16
5.5444257e-16
6.0076335e-16
6.2976818e-16
6.4351417e-16
6.3934444e-16
6.2322898e-16
5.9558259e-16
5.6159508e-16
5.2050388e-16
4.7545845e-16
4.3082095e-16
3.8461862e-16
3.3630679e-16
2.9098949e-16
2.5250048e-16
2.1027538e-16
1.6665379e-16
9.3475167e-17
3.1339118e-12
4.8023013e-12
3.9072323e-12
3.7113843e-12
3.4900543e-12
3.2689373e-12
3.0860239e-12
2.9387835e-12
2.8176153e-12
2.7124734e-12
2.6152658e-12
2.5197135e-12
2.4205042e-12
2.3123539e-12
2.1894932e-12
2.0461129e-12
1.8774902e-12
1.6810955e-12
1.4574231e-12
1.2105557e-12
9.4810499e-13
6.8018415e-13
4.1761286e-13
1.7020524e-13
-5.3299144e-14
-2.4554021e-13
-4.0216361e-13
-5.2203677e-13
-6.0636685e-13
-6.5807536e-13
-6.8131145e-13
-6.8089744e-13
-6.6178666e-13
-6.2868825e-13
-5.8578692e-13
-5.3662742e-13
-4.8410307e-13
-4.3047794e-13
-3.7747852e-13