/*--------------------------------*- C++ -*----------------------------------*\
| =========                 |                                                 |
| \\      /  F ield         | OpenFOAM: The Open Source CFD Toolbox           |
|  \\    /   O peration     | Version:  2506                                  |
|   \\  /    A nd           | Website:  www.openfoam.com                      |
|    \\/     M anipulation  |                                                 |
\*---------------------------------------------------------------------------*/
FoamFile
{
    version     2.0;
    format      ascii;
    arch        "LSB;label=32;scalar=64";
    class       volVectorField;
    location    "13000/water";
    object      U;
}
// * * * * * * * * * * * * * * * * * * * * * * * * * * * * * * * * * * * * * //

dimensions      [0 1 -1 0 0 0 0];

internalField   nonuniform List<vector> 
1000
(
(0.25225587 -0.00012859766 3.6004032e-18)
(0.25226258 -0.00027067835 8.2341051e-19)
(0.25227485 -0.00041450539 1.7644603e-18)
(0.25228819 -0.00055572715 3.6278143e-19)
(0.25229018 -0.00068575788 5.9978173e-19)
(0.25223998 -0.00079863171 1.3616293e-19)
(0.25200713 -0.00089615193 8.4604695e-21)
(0.25115686 -0.0010460356 -3.5456488e-19)
(0.24780473 -0.0012820719 -2.2580307e-19)
(0.23308262 0.0010121611 -5.6032296e-19)
(0.25653043 -7.7330435e-05 2.3565712e-18)
(0.25653977 -0.00018903828 1.4324541e-18)
(0.25655871 -0.00029096533 2.3034533e-18)
(0.25657276 -0.00039024482 6.4088885e-19)
(0.25654377 -0.00048175033 7.2792925e-19)
(0.25636039 -0.00055898436 3.3394931e-19)
(0.25570613 -0.00060536492 -7.4438422e-21)
(0.25355952 -0.00065441359 -4.3136778e-19)
(0.24574266 -0.0008472477 -3.2245208e-19)
(0.21968686 0.00025718806 -6.0946221e-19)
(0.26021787 -7.3909943e-05 -4.5534132e-19)
(0.26022468 -0.00018059825 5.6960753e-19)
(0.26023383 -0.00027741899 1.4233589e-18)
(0.26021807 -0.00037159725 5.131981e-19)
(0.26010153 -0.00045735749 1.6676831e-19)
(0.25968006 -0.00053044561 -1.646717e-20)
(0.25840621 -0.0005709303 -9.0879622e-20)
(0.25452354 -0.00056554642 -3.253726e-19)
(0.24186464 -0.00061987587 -4.5063664e-19)
(0.20839343 1.1253163e-05 -4.6684105e-19)
(0.26340526 -6.8945954e-05 9.2089933e-19)
(0.26340956 -0.000170585 7.3941679e-19)
(0.26340597 -0.00026279215 1.5593962e-18)
(0.2633478 -0.00035138347 8.5415146e-19)
(0.26310913 -0.00042951104 2.6219189e-20)
(0.26237282 -0.00049394923 -3.9327379e-19)
(0.26030372 -0.00052750831 -1.3757042e-19)
(0.25430845 -0.00049289639 -3.4125235e-19)
(0.23723184 -0.00045933962 -4.6342771e-19)
(0.19958847 -4.8874903e-05 -4.7751567e-19)
(0.26641628 -6.4388954e-05 -2.0464678e-18)
(0.26641555 -0.00015946872 1.581807e-18)
(0.266392 -0.00024539856 1.0529054e-18)
(0.26627267 -0.00032748764 6.3879109e-19)
(0.26586988 -0.00039791743 -9.8277857e-20)
(0.26472851 -0.00045250598 1.7272753e-19)
(0.26164538 -0.0004736076 4.7946934e-20)
(0.25321242 -0.00041483595 -3.8739041e-19)
(0.23271018 -0.00033459027 -4.728129e-19)
(0.19329525 -5.063241e-05 -4.9220648e-19)
(0.26927574 -6.0867567e-05 -1.9037385e-19)
(0.26926716 -0.00015024335 1.2875403e-18)
(0.2692148 -0.00023070456 6.9279063e-19)
(0.26901237 -0.00030702758 3.6283333e-19)
(0.26839647 -0.0003705004 -8.1897038e-20)
(0.26673516 -0.00041493308 3.1169655e-19)
(0.26236783 -0.0004187193 -8.7005391e-20)
(0.25136273 -0.00033835123 -3.5461215e-19)
(0.22869806 -0.00023662943 -2.641795e-19)
(0.1890214 -3.949549e-05 -3.3903912e-19)
(0.27197991 -5.805758e-05 3.127921e-18)
(0.27196007 -0.00014287144 2.3882011e-18)
(0.2718683 -0.00021894851 1.0303901e-19)
(0.2715565 -0.00029030384 3.947452e-19)
(0.27066608 -0.00034729053 3.0813112e-19)
(0.26833151 -0.000380684 -1.3977162e-20)
(0.26239845 -0.00036437448 -2.6421808e-19)
(0.24902636 -0.0002685272 -2.1946167e-19)
(0.22536102 -0.00016272915 -8.7931762e-20)
(0.18616832 -2.8775349e-05 -2.9589966e-19)
(0.27455816 -5.5861838e-05 -6.9732794e-19)
(0.27452281 -0.00013703213 1.368653e-18)
(0.27437848 -0.00020952025 4.2578931e-19)
(0.27392442 -0.00027640527 5.3840551e-19)
(0.27267857 -0.0003268215 5.0277723e-19)
(0.26947685 -0.00034738539 1.8232074e-19)
(0.26178464 -0.0003109283 2.3780328e-21)
(0.24657377 -0.00020817032 -1.4399846e-19)
(0.2227152 -0.00011050224 -2.055699e-19)
(0.18425841 -2.0837095e-05 -2.2974139e-19)
(0.27704027 -5.4085698e-05 7.3356805e-19)
(0.27698407 -0.00013225434 1.4242323e-19)
(0.27677058 -0.00020162574 1.5254044e-18)
(0.27613171 -0.00026417304 7.5309535e-19)
(0.27442314 -0.00030720631 2.5489825e-19)
(0.27014172 -0.00031294856 2.3967061e-20)
(0.26068996 -0.00025925889 -3.0653232e-21)
(0.24429829 -0.00015836544 -1.355784e-19)
(0.22067582 -7.540932e-05 -1.3266881e-19)
(0.182962 -1.5153729e-05 -9.6754013e-20)
(0.27944341 -5.2555684e-05 3.2872547e-18)
(0.27935955 -0.00012814124 1.975933e-18)
(0.27905543 -0.0001946074 9.494114e-19)
(0.27817576 -0.00025259234 4.1365098e-19)
(0.27586798 -0.00028673469 1.5230985e-20)
(0.27032644 -0.00027659236 -2.6500176e-19)
(0.25933498 -0.00021094058 -1.6695025e-19)
(0.24234212 -0.00011891246 -1.2751935e-19)
(0.21912381 -5.2172342e-05 -1.9126196e-19)
(0.182066 -1.0945985e-05 -1.9063015e-19)
(0.28177654 -5.1166583e-05 1.3727016e-18)
(0.28165619 -0.00012441955 6.5353278e-19)
(0.2812333 -0.00018797276 1.9254112e-19)
(0.28003902 -0.00024077431 8.6544126e-19)
(0.276974 -0.00026417614 2.0856309e-19)
(0.27008762 -0.00023880351 3.0845447e-20)
(0.25792264 -0.00016762244 -8.7332576e-20)
(0.24073177 -8.8480685e-05 -1.6231022e-19)
(0.21795021 -3.6445444e-05 -2.4255155e-19)
(0.18143937 -7.6992905e-06 -1.8737851e-19)
(0.28404476 -4.9854708e-05 9.6956047e-19)
(0.28387625 -0.00012089407 6.672724e-19)
(0.2832974 -0.00018132885 -5.6321613e-20)
(0.28169345 -0.00022787674 6.3098995e-19)
(0.27771474 -0.00023897319 1.8592185e-19)
(0.26953508 -0.00020087446 3.8465315e-20)
(0.25659134 -0.00013036387 -1.1254976e-19)
(0.23943778 -6.5170305e-05 -1.5490107e-19)
(0.21706902 -2.5324775e-05 -2.7487123e-19)
(0.18100327 -5.1218306e-06 -2.1171526e-19)
(0.28625048 -4.8572073e-05 6.3620952e-19)
(0.28601827 -0.00011740085 9.1936546e-19)
(0.28523427 -0.00017430175 1.0632326e-19)
(0.28310495 -0.00021314165 3.5499953e-19)
(0.27809438 -0.00021129014 1.1105298e-19)
(0.26879939 -0.00016439754 -1.3872289e-19)
(0.25541089 -9.9328873e-05 -1.3866322e-19)
(0.23841398 -4.7155535e-05 -1.5933836e-19)
(0.21641539 -1.7078841e-05 -1.639335e-19)
(0.18070896 -3.0436046e-06 -1.9802674e-19)
(0.28839354 -4.7270973e-05 1.2850304e-18)
(0.28807682 -0.00011377574 1.1141608e-18)
(0.28702341 -0.00016645976 5.211074e-19)
(0.28424078 -0.00019602592 5.4523224e-19)
(0.27815549 -0.00018188531 2.7210946e-19)
(0.26799598 -0.00013078992 -1.4175127e-19)
(0.25440304 -7.3937695e-05 -4.6717883e-19)
(0.23761476 -3.3004721e-05 -2.7927413e-19)
(0.21594075 -1.0716797e-05 -1.6642995e-19)
(0.18052452 -1.3532222e-06 -2.4591146e-19)
(0.29047097 -4.5891434e-05 2.2272459e-18)
(0.29004194 -0.00010982905 2.9908619e-18)
(0.28863779 -0.00015729295 5.6664319e-19)
(0.28508024 -0.00017633846 2.6718993e-19)
(0.27797082 -0.00015188728 2.3474595e-19)
(0.26720624 -0.00010094712 1.7584978e-19)
(0.253564 -5.3259543e-05 -1.8660705e-19)
(0.23700053 -2.1699634e-05 -2.1486947e-19)
(0.21560862 -5.6605461e-06 -2.2753976e-19)
(0.18042761 3.345364e-08 -7.3565833e-20)
(0.29247637 -4.4351484e-05 1.5838011e-18)
(0.2918983 -0.00010531324 -8.0471709e-20)
(0.2900463 -0.00014628179 4.7382508e-19)
(0.28562471 -0.00015430625 1.0174906e-18)
(0.27762409 -0.00012253922 2.9160378e-19)
(0.26647732 -7.5147813e-05 5.0239959e-19)
(0.25287922 -3.6357967e-05 4.1342408e-19)
(0.23653862 -1.2544742e-05 4.0884671e-20)
(0.21539111 -1.5280346e-06 4.9109637e-20)
(0.18040204 1.2054859e-06 1.5571945e-19)
(0.29439899 -4.2542567e-05 1.3963555e-18)
(0.29362439 -9.9894364e-05 6.1160115e-19)
(0.29121909 -0.00013302999 6.3506114e-19)
(0.28590173 -0.00013054489 4.8997661e-19)
(0.27719085 -9.4943434e-05 4.331832e-19)
(0.26583134 -5.319752e-05 3.3047973e-19)
(0.25233096 -2.2452022e-05 9.7555626e-20)
(0.23620235 -5.0197523e-06 1.2722956e-19)
(0.2152645 1.8979107e-06 1.0614692e-20)
(0.18043774 2.193754e-06 -1.1519676e-19)
(0.29622247 -4.0322224e-05 9.3313215e-19)
(0.29519257 -9.3155218e-05 1.308597e-18)
(0.29213503 -0.00011739281 7.4171057e-19)
(0.28595988 -0.00010594315 5.9319078e-19)
(0.27672821 -6.9856681e-05 7.2264798e-19)
(0.26527516 -3.4648604e-05 3.0799889e-19)
(0.2519011 -1.0910023e-05 7.0389129e-20)
(0.23596807 1.2325596e-06 1.2960385e-19)
(0.21521693 4.7065141e-06 -1.3517265e-20)
(0.18052216 2.9888182e-06 -9.470396e-20)
(0.29792334 -3.7501335e-05 5.385698e-19)
(0.29657067 -8.4660475e-05 5.4690445e-19)
(0.29278916 -9.9552326e-05 4.9261498e-19)
(0.28585701 -8.1496398e-05 5.7089128e-19)
(0.27627357 -4.7619541e-05 6.1419831e-19)
(0.26480713 -1.8984032e-05 -1.2920465e-19)
(0.25157193 -1.2540288e-06 -2.6743197e-19)
(0.23582162 6.4204456e-06 -5.6280295e-20)
(0.21523438 6.9890031e-06 1.8841712e-20)
(0.18064615 3.6202202e-06 -1.5356176e-19)
(0.29946982 -3.3841814e-05 -1.6835418e-18)
(0.29772602 -7.4080671e-05 7.8223306e-19)
(0.29319628 -8.002052e-05 -5.6458031e-19)
(0.28564803 -5.8126968e-05 -1.4768419e-18)
(0.27584861 -2.8226442e-05 -2.136842e-19)
(0.2644212 -5.6916329e-06 -6.2743435e-19)
(0.25132937 6.8547616e-06 -4.3043689e-19)
(0.23575038 1.0703381e-05 -2.6583218e-19)
(0.21530526 8.8438443e-06 -1.6802189e-19)
(0.18080246 4.1228316e-06 -6.942661e-20)
(0.30082184 -2.9095256e-05 -7.3570561e-19)
(0.29863174 -6.1333091e-05 1.5224412e-18)
(0.29338823 -5.9568531e-05 -8.7120199e-19)
(0.28537719 -3.6524334e-05 -9.5520577e-19)
(0.27546384 -1.1419162e-05 -5.105678e-19)
(0.26410765 5.6142399e-06 1.8930631e-21)
(0.25116541 1.3620961e-05 -2.8239732e-19)
(0.23574182 1.4217359e-05 -3.0111117e-19)
(0.21542012 1.035299e-05 -1.9663063e-19)
(0.1809852 4.5252999e-06 4.7444944e-20)
(0.30193376 -2.3109292e-05 1.6984824e-18)
(0.29927339 -4.6685904e-05 1.4286487e-18)
(0.29340605 -3.909332e-05 -7.787927e-20)
(0.28507549 -1.7049584e-05 6.8186787e-19)
(0.2751209 3.0817303e-06 1.0854583e-18)
(0.26386446 1.5138144e-05 2.7651901e-19)
(0.25106783 1.9207748e-05 2.4243911e-20)
(0.2357854 1.7092804e-05 -1.2429868e-19)
(0.21557118 1.1579271e-05 -1.7826439e-19)
(0.18118945 4.8469291e-06 -1.123799e-19)
(0.30276115 -1.5977488e-05 -1.2594247e-18)
(0.29965291 -3.0774282e-05 -5.3529158e-19)
(0.29329059 -1.9437611e-05 -4.5625831e-19)
(0.28476124 1.6647246e-07 -5.3608342e-19)
(0.27482458 1.5439665e-05 3.5862132e-19)
(0.2636834 2.3070734e-05 -4.3968021e-19)
(0.2510265 2.3801843e-05 1.8611846e-19)
(0.2358724 1.9433992e-05 -1.7684881e-20)
(0.21575197 1.2564697e-05 -6.6957775e-20)
(0.18141103 5.0989027e-06 4.6840479e-20)
(0.3032714 -8.1282173e-06 8.9712522e-19)
(0.29978739 -1.4486768e-05 1.2860543e-18)
(0.29307481 -1.3059938e-06 -6.2035774e-19)
(0.28444921 1.5039316e-05 -8.0742155e-19)
(0.27457435 2.5804319e-05 -8.5737446e-19)
(0.26355616 2.9614427e-05 -2.9037858e-19)
(0.25103262 2.7545804e-05 -3.5072959e-19)
(0.23599542 2.1312617e-05 -1.7004569e-19)
(0.21595695 1.3337121e-05 2.7142146e-20)
(0.18164626 5.2880279e-06 4.6749913e-20)
(0.30345404 -2.4234495e-07 -6.3766581e-19)
(0.29970268 1.1328811e-06 8.3635284e-19)
(0.2927864 1.4662531e-05 -8.4138625e-19)
(0.28414894 2.7526372e-05 -8.9110282e-19)
(0.2743656 3.4337759e-05 -9.8152909e-19)
(0.26347496 3.4931301e-05 -4.8733176e-19)
(0.25107851 3.0537748e-05 -1.6802779e-19)
(0.2361481 2.2775909e-05 2.2126748e-20)
(0.21618128 1.3914136e-05 9.5852073e-20)
(0.1818918 5.4180159e-06 4.9948398e-20)
(0.3033252 6.8811687e-06 -3.6699266e-18)
(0.29943299 1.4985163e-05 -2.2285874e-18)
(0.2924469 2.7994405e-05 -1.2778926e-18)
(0.28386232 3.7677236e-05 -1.838841e-18)
(0.27419302 4.118782e-05 -1.6064209e-18)
(0.26343256 3.9128679e-05 -9.6811386e-19)
(0.25115729 3.2836873e-05 -5.2174309e-20)
(0.23632475 2.3849934e-05 1.1074169e-19)
(0.21642058 1.4303531e-05 7.0881524e-20)
(0.18214446 5.4894309e-06 1.7232749e-19)
(0.30293057 1.2607096e-05 1.1380662e-18)
(0.29901534 2.6253048e-05 -1.3823906e-18)
(0.29206924 3.8508028e-05 -9.257423e-19)
(0.28358876 4.5589727e-05 4.9752582e-19)
(0.27405095 4.6451756e-05 1.0698103e-18)
(0.26342219 4.2266504e-05 3.2463329e-19)
(0.25126271 3.4471682e-05 3.2504143e-20)
(0.23652015 2.454305e-05 1.4707369e-20)
(0.21667065 1.450442e-05 -3.303401e-20)
(0.18240109 5.5000641e-06 6.3687174e-21)
(0.30233169 1.6686204e-05 2.4764498e-19)
(0.29848535 3.4600818e-05 -4.9655981e-19)
(0.29166295 4.6231181e-05 -7.4410178e-19)
(0.28332653 5.1359714e-05 -1.7540558e-19)
(0.27393382 5.0194245e-05 6.4715319e-19)
(0.26343755 4.4377249e-05 3.2785453e-19)
(0.25138894 3.5451225e-05 1.607833e-19)
(0.23672934 2.4851736e-05 8.1167434e-20)
(0.21692738 1.4510077e-05 -6.9187816e-21)
(0.18265837 5.4459116e-06 -2.2604457e-20)
(0.30159328 1.9182049e-05 2.1751186e-18)
(0.29787661 4.0084235e-05 3.1980986e-18)
(0.29123637 5.1326895e-05 2.5204976e-19)
(0.28307385 5.5102498e-05 -8.6891036e-19)
(0.27383649 5.2477285e-05 -1.0876517e-18)
(0.26347282 4.5485893e-05 -4.1190125e-19)
(0.25153053 3.5777818e-05 -3.752876e-19)
(0.23694749 2.4768433e-05 -1.616951e-19)
(0.21718657 1.4312062e-05 -4.987442e-20)
(0.18291284 5.322594e-06 -6.6820165e-20)
(0.3007741 2.0344071e-05 6.2390839e-19)
(0.29721996 4.3030001e-05 1.2141973e-18)
(0.2907979 5.4063506e-05 -1.0252875e-20)
(0.28282964 5.6975163e-05 1.2050407e-19)
(0.27375461 5.3382739e-05 -2.4000999e-19)
(0.26352282 4.5627708e-05 -7.7161048e-20)
(0.25168238 3.5460325e-05 -9.382876e-20)
(0.23716991 2.429039e-05 -1.1713518e-19)
(0.21744399 1.3905125e-05 2.537406e-20)
(0.18316086 5.1271193e-06 3.6439069e-20)
(0.29992224 2.0484182e-05 -2.7072513e-18)
(0.29654263 4.3899739e-05 -2.786858e-18)
(0.29035627 5.4781584e-05 -1.0489092e-18)
(0.28259385 5.7182906e-05 -1.3697417e-18)
(0.27368475 5.3025513e-05 -1.0861675e-18)
(0.26358308 4.4861706e-05 -5.9836178e-19)
(0.25183984 3.4525359e-05 9.8187448e-20)
(0.23739211 2.3427617e-05 -7.0234972e-20)
(0.21769543 1.3291848e-05 -3.8887423e-20)
(0.18339876 4.8596014e-06 1.6431994e-19)
(0.29907424 1.9897279e-05 3.0666379e-18)
(0.29586747 4.3180453e-05 2.4309032e-19)
(0.28992022 5.3856473e-05 7.2468725e-20)
(0.2823675 5.5971025e-05 -1.2349926e-19)
(0.27362456 5.1556348e-05 9.1849183e-20)
(0.26364989 4.3277052e-05 -4.6841427e-20)
(0.25199879 3.3023894e-05 -4.6490801e-20)
(0.23760991 2.2208128e-05 -1.8210775e-19)
(0.21793688 1.2486054e-05 -1.8680251e-19)
(0.18362303 4.5246653e-06 -8.4760512e-20)
(0.29825613 1.8826658e-05 -4.3964054e-19)
(0.29521262 4.1317409e-05 -3.1773719e-19)
(0.28949796 5.1662974e-05 -1.9802291e-19)
(0.28215235 5.3607726e-05 -3.8185056e-19)
(0.27357254 4.9155162e-05 5.4076936e-19)
(0.26372034 4.099151e-05 5.2035398e-19)
(0.25215571 3.103171e-05 1.3632636e-19)
(0.2378196 2.0678863e-05 -3.7877093e-20)
(0.21816473 1.1513625e-05 9.6935248e-21)
(0.18383056 4.1318299e-06 -8.5478975e-20)
(0.2974854 1.7458162e-05 9.9878759e-19)
(0.29459163 3.8684195e-05 2.4817157e-18)
(0.28909666 4.8548337e-05 5.5016581e-19)
(0.28195051 5.0364277e-05 -5.9959873e-20)
(0.27352796 4.6018548e-05 -5.012376e-19)
(0.26379221 3.8143671e-05 -1.9024563e-19)
(0.25230768 2.8644408e-05 -4.2164607e-19)
(0.23801802 1.8902452e-05 -1.5953839e-19)
(0.21837595 1.0410633e-05 -4.4418222e-20)
(0.1840188 3.694758e-06 -1.1692275e-19)
(0.29677287 1.5927428e-05 3.1524467e-18)
(0.29401391 3.5577115e-05 2.6977499e-18)
(0.28872205 4.481594e-05 1.1216038e-18)
(0.28176409 4.6497606e-05 7.0292642e-19)
(0.27349052 4.2345582e-05 -5.8963536e-19)
(0.26386387 3.4882022e-05 -5.2973948e-19)
(0.25245241 2.5969123e-05 -2.4952468e-19)
(0.23820265 1.6951228e-05 2.993464e-20)
(0.21856819 9.2195903e-06 -3.3128238e-20)
(0.18418598 3.2297301e-06 -7.2552268e-20)
(0.29612444 1.4330603e-05 -1.9568687e-18)
(0.29348536 3.2221948e-05 -1.0360689e-18)
(0.28837831 4.0718444e-05 3.6272103e-20)
(0.28159488 4.2237815e-05 -5.1783258e-19)
(0.27346016 3.8325091e-05 -7.0725836e-19)
(0.26393413 3.135369e-05 -2.6523953e-19)
(0.25258815 2.3115251e-05 2.0925201e-19)
(0.23837166 1.4900203e-05 2.8455638e-19)
(0.21873987 7.9848778e-06 1.7894265e-19)
(0.1843311 2.7537304e-06 1.6115784e-19)
(0.29554243 1.2734356e-05 1.9013345e-18)
(0.29300901 2.8785446e-05 -3.8023642e-19)
(0.28806805 3.6457962e-05 7.8399062e-20)
(0.28144413 3.7781277e-05 1.0175886e-18)
(0.27343685 3.4126359e-05 1.5357903e-18)
(0.26400215 2.7695177e-05 8.3748843e-19)
(0.2527137 2.0186328e-05 2.9791418e-19)
(0.23852383 1.2820793e-05 1.1864109e-19)
(0.2188902 6.7486135e-06 2.3293631e-20)
(0.18445399 2.2827195e-06 -2.4778181e-20)
(0.29502659 1.1183943e-05 1.4370999e-18)
(0.29258573 2.5387404e-05 -1.9662582e-19)
(0.28779255 3.2190495e-05 -9.3627931e-21)
(0.28131251 3.3288593e-05 1.0247625e-18)
(0.27342051 2.9893833e-05 1.2296062e-18)
(0.26406733 2.402615e-05 7.0146262e-19)
(0.25282827 1.7274281e-05 4.7412705e-19)
(0.23865858 1.0776329e-05 1.2650137e-19)
(0.21901906 5.5477792e-06 4.6092839e-20)
(0.18455517 1.8305181e-06 1.9653371e-20)
(0.2945749 9.7091462e-06 2.9521265e-18)
(0.2922147 2.211127e-05 3.7092918e-18)
(0.28755187 2.8032202e-05 1.8281658e-18)
(0.28120012 2.8885782e-05 1.0495983e-18)
(0.2734109 2.5745081e-05 -5.4748469e-20)
(0.26412921 2.0446038e-05 5.2202422e-19)
(0.25293145 1.4455922e-05 1.8239714e-19)
(0.23877584 8.8192685e-06 2.4876921e-19)
(0.21912697 4.4124099e-06 1.3685043e-19)
(0.18463572 1.4080685e-06 8.1882103e-20)
(0.29418417 8.3287285e-06 5.1398669e-18)
(0.2918939 1.9013049e-05 4.1289164e-18)
(0.28734517 2.4066334e-05 2.3235746e-18)
(0.28110651 2.466771e-05 2.2863875e-18)
(0.27340762 2.1771475e-05 2.0167568e-18)
(0.26418744 1.7033267e-05 1.3426273e-18)
(0.25302315 1.1791765e-05 4.3620223e-19)
(0.23887599 6.9902497e-06 2.1601156e-19)
(0.21921495 3.3651323e-06 9.0420415e-20)
(0.18469721 1.0233675e-06 -1.0394789e-19)
(0.29385044 7.0534947e-06 6.1562117e-19)
(0.29162052 1.6128135e-05 5.2708791e-19)
(0.28717088 2.0349549e-05 3.638176e-18)
(0.2810308 2.0702212e-05 3.0948669e-18)
(0.27341012 1.8040185e-05 2.1231993e-18)
(0.26424177 1.3845919e-05 1.6401628e-18)
(0.25310353 9.3260871e-06 9.8474851e-19)
(0.23895978 5.3180432e-06 4.8004505e-19)
(0.21928438 2.421139e-06 4.1107361e-19)
(0.18474147 6.8144496e-07 8.9715735e-20)
(0.29356929 5.8886162e-06 8.4517987e-19)
(0.29139117 1.3476732e-05 2.4481751e-18)
(0.2870269 1.6917632e-05 3.7654146e-18)
(0.28097178 1.7034604e-05 2.9779039e-18)
(0.27341773 1.459722e-05 2.2679269e-18)
(0.264292 1.0923683e-05 1.3190753e-18)
(0.25317294 7.0882518e-06 9.0864193e-19)
(0.23902821 3.82054e-06 5.9407714e-19)
(0.21933693 1.588928e-06 3.9769441e-19)
(0.18477054 3.847281e-07 2.8187997e-19)
(0.29333611 4.8352651e-06 9.560597e-19)
(0.29120218 1.1067944e-05 3.2680373e-18)
(0.28691081 1.3790318e-05 2.8111333e-18)
(0.28092799 1.3692044e-05 3.8518357e-18)
(0.2734297 1.147087e-05 3.2302999e-18)
(0.26433799 8.290506e-06 1.2113344e-18)
(0.2532319 5.0947925e-06 9.9846501e-19)
(0.23908248 2.5063974e-06 7.5636604e-19)
(0.21937439 8.7149531e-07 5.6653616e-19)
(0.1847865 1.33571e-07 5.3051176e-19)
(0.29314623 3.8917873e-06 8.4559087e-19)
(0.29104972 8.902812e-06 2.0949077e-18)
(0.28681999 1.097513e-05 2.7684187e-18)
(0.28089782 1.0687256e-05 3.3020099e-18)
(0.27344522 8.6748649e-06 2.8417294e-18)
(0.26437967 5.9570986e-06 2.2961836e-18)
(0.25328104 3.3511961e-06 1.589826e-18)
(0.23912393 1.3760339e-06 1.1351324e-18)
(0.21939865 2.7236187e-07 9.0635608e-19)
(0.18479143 -6.9361123e-08 5.9195709e-19)
(0.29299503 3.0544418e-06 1.2269012e-18)
(0.29092993 6.9762886e-06 1.3706991e-18)
(0.28675172 8.4699447e-06 5.6154927e-19)
(0.2808796 8.0210741e-06 8.9705821e-19)
(0.27346349 6.2104826e-06 2.2991998e-18)
(0.264417 3.9226465e-06 2.3766968e-18)
(0.25332108 1.8541458e-06 1.949889e-18)
(0.23915392 4.2903721e-07 1.383735e-18)
(0.21941125 -2.1350467e-07 8.0900418e-19)
(0.18478768 -2.2820084e-07 4.9534686e-19)
(0.29287808 2.3180965e-06 2.0065237e-18)
(0.29083905 5.2791298e-06 2.0743562e-18)
(0.2867033 6.2657617e-06 2.1510818e-18)
(0.28087166 5.6856446e-06 1.2073418e-18)
(0.27348374 4.070004e-06 9.2660442e-19)
(0.26445003 2.1790833e-06 1.9334531e-18)
(0.25335274 5.9902649e-07 1.877127e-18)
(0.23917355 -3.435493e-07 1.5601252e-18)
(0.21941461 -6.0437626e-07 1.1598344e-18)
(0.18477679 -3.5399558e-07 7.0404834e-19)
(0.29279115 1.6768608e-06 3.1351161e-18)
(0.29077347 3.7995859e-06 2.0691965e-18)
(0.2866721 4.3492625e-06 2.435973e-18)
(0.28087236 3.6677182e-06 2.0879864e-18)
(0.27350523 2.2410556e-06 1.3095904e-18)
(0.26447878 7.176094e-07 1.5529073e-18)
(0.25337659 -4.2821242e-07 1.532065e-18)
(0.23918483 -9.6446821e-07 1.2943281e-18)
(0.21941035 -9.1385358e-07 1.1867766e-18)
(0.18476024 -4.513942e-07 8.9083934e-19)
(0.29273025 1.1243864e-06 7.8151379e-19)
(0.29072976 2.5242792e-06 2.4165858e-18)
(0.28665559 2.7043166e-06 3.0999467e-18)
(0.28088014 1.9512217e-06 3.807907e-18)
(0.27352725 7.1074362e-07 3.0938075e-18)
(0.26450318 -4.8019943e-07 1.3932615e-18)
(0.253394 -1.2550574e-06 1.4446776e-18)
(0.23918902 -1.4527509e-06 1.2786381e-18)
(0.2193999 -1.1482885e-06 1.1637959e-18)
(0.18473941 -5.2190971e-07 1.0693218e-18)
(0.29269167 6.541231e-07 7.2563613e-19)
(0.29070469 1.439186e-06 2.224672e-18)
(0.2866514 1.3145398e-06 3.1949216e-18)
(0.28089348 5.2052084e-07 3.2330722e-18)
(0.27354904 -5.4316188e-07 3.243505e-18)
(0.2645239 -1.4455192e-06 2.300073e-18)
(0.25340577 -1.9055386e-06 1.6638212e-18)
(0.23918729 -1.8210752e-06 1.4628706e-18)
(0.21938462 -1.3143547e-06 1.2458192e-18)
(0.18471555 -5.6787715e-07 1.0544269e-18)
(0.29267196 2.5993515e-07 9.1369321e-19)
(0.29069526 5.3126305e-07 6.7696632e-19)
(0.28665725 1.6262256e-07 6.4196664e-19)
(0.28091096 -6.4992585e-07 9.3978363e-19)
(0.27357051 -1.5542728e-06 2.1519015e-18)
(0.26454118 -2.2060337e-06 2.4573783e-18)
(0.25341264 -2.3975459e-06 1.7438237e-18)
(0.23918073 -2.0822527e-06 1.4576137e-18)
(0.2193657 -1.4203711e-06 1.1635201e-18)
(0.18468975 -5.9249976e-07 9.1689421e-19)
(0.29266793 -6.4720193e-08 9.5277853e-19)
(0.29069865 -2.1543719e-07 1.6640002e-18)
(0.28667112 -7.7671952e-07 1.8967709e-18)
(0.28093167 -1.5930756e-06 5.9280926e-19)
(0.27359127 -2.3513926e-06 5.1685528e-19)
(0.26455525 -2.7831697e-06 1.8330081e-18)
(0.25341532 -2.7489317e-06 1.8667348e-18)
(0.23917034 -2.250298e-06 1.5936314e-18)
(0.21934423 -1.4753531e-06 1.5471804e-18)
(0.18466296 -5.9929155e-07 1.0530812e-18)
(0.29267671 -3.2792445e-07 2.0445318e-18)
(0.29071245 -8.2027872e-07 2.55409e-18)
(0.28669136 -1.5301545e-06 1.5569476e-18)
(0.2809546 -2.3346409e-06 1.050882e-18)
(0.27361099 -2.9570509e-06 1.2434596e-18)
(0.26456636 -3.1980368e-06 1.4363875e-18)
(0.25341449 -2.9782596e-06 1.6969282e-18)
(0.23915702 -2.3393311e-06 1.6038555e-18)
(0.21932113 -1.4881326e-06 1.4316128e-18)
(0.18463594 -5.9169324e-07 1.1099113e-18)
(0.29269579 -5.3712527e-07 4.8870964e-19)
(0.29073451 -1.2998291e-06 2.1141427e-18)
(0.28671642 -2.1180061e-06 2.331325e-18)
(0.28097888 -2.8963626e-06 1.8577235e-18)
(0.27362943 -3.3935193e-06 1.5599092e-18)
(0.26457479 -3.4717951e-06 1.7013229e-18)
(0.25341078 -3.1035353e-06 1.6103154e-18)
(0.23914157 -2.3626119e-06 1.6398745e-18)
(0.21929718 -1.4668139e-06 1.4247384e-18)
(0.18460932 -5.7282029e-07 1.1465749e-18)
(0.29272295 -6.9827717e-07 2.2653626e-18)
(0.29076292 -1.6678913e-06 2.0471702e-18)
(0.28674494 -2.5587506e-06 2.0005583e-18)
(0.28100376 -3.2994335e-06 2.0466813e-18)
(0.27364643 -3.6825882e-06 8.0659014e-19)
(0.26458082 -3.624653e-06 1.4529844e-18)
(0.25340477 -3.1415066e-06 1.5820693e-18)
(0.2391247 -2.3321508e-06 1.6741281e-18)
(0.21927306 -1.4185481e-06 1.5887406e-18)
(0.1845836 -5.4536591e-07 1.2875834e-18)
(0.29275622 -8.1698255e-07 1.6357914e-18)
(0.29079598 -1.9374682e-06 2.196943e-18)
(0.28677571 -2.8700981e-06 3.3168302e-18)
(0.28102862 -3.5642137e-06 2.5776965e-18)
(0.27366186 -3.8449059e-06 2.2442993e-18)
(0.26458474 -3.675386e-06 1.1245011e-18)
(0.25339699 -3.1073794e-06 1.4482804e-18)
(0.23910701 -2.2585466e-06 1.5568745e-18)
(0.21924929 -1.3494202e-06 1.3126001e-18)
(0.18455914 -5.1153075e-07 1.2386599e-18)
(0.29279385 -8.985387e-07 3.2594039e-19)
(0.29083221 -2.1208972e-06 3.0555279e-18)
(0.28680772 -3.0689258e-06 5.2650637e-18)
(0.28105293 -3.7100112e-06 3.1704399e-18)
(0.27367569 -3.8998245e-06 2.0152838e-18)
(0.26458683 -3.6413147e-06 1.8612682e-18)
(0.2533879 -3.0149065e-06 1.6344696e-18)
(0.23908902 -2.1511594e-06 1.5074604e-18)
(0.21922631 -1.2646469e-06 1.4598117e-18)
(0.18453623 -4.7315116e-07 1.1921097e-18)
(0.29283432 -9.4792817e-07 1.1667046e-18)
(0.29087032 -2.2298243e-06 1.7243419e-18)
(0.2868401 -3.1711726e-06 2.7060273e-19)
(0.2810763 -3.7549598e-06 2.1307761e-18)
(0.2736879 -3.8653323e-06 2.0575807e-18)
(0.26458738 -3.5383221e-06 2.01091e-18)
(0.25337794 -2.8764996e-06 1.7794546e-18)
(0.23907116 -2.0182845e-06 1.5942098e-18)
(0.21920445 -1.1687458e-06 1.4476128e-18)
(0.18451506 -4.3178335e-07 1.1533006e-18)
(0.29287633 -9.6983664e-07 1.1485609e-18)
(0.29090923 -2.2752104e-06 1.179873e-18)
(0.28687213 -3.1918116e-06 9.1865095e-19)
(0.2810984 -3.7159935e-06 1.7286589e-18)
(0.27369851 -3.7580755e-06 1.8361691e-18)
(0.26458662 -3.380939e-06 1.9154878e-18)
(0.25336744 -2.7033797e-06 1.8244379e-18)
(0.23905376 -1.8673484e-06 1.8120493e-18)
(0.21918397 -1.0657293e-06 1.5958172e-18)
(0.18449576 -3.8881088e-07 1.2185008e-18)
(0.29291878 -9.686464e-07 2.7880576e-18)
(0.29094801 -2.2673072e-06 2.8419388e-18)
(0.2869032 -3.1448048e-06 2.133665e-18)
(0.28111901 -3.6087968e-06 1.2745371e-18)
(0.27370759 -3.593317e-06 5.0871767e-19)
(0.26458481 -3.1823386e-06 1.3276155e-18)
(0.25335673 -2.5056113e-06 1.709382e-18)
(0.23903711 -1.7049633e-06 1.7150728e-18)
(0.21916504 -9.5917066e-07 1.5172357e-18)
(0.1844784 -3.4548093e-07 1.2435326e-18)
(0.29296075 -9.4842154e-07 2.9984315e-18)
(0.29098591 -2.2156182e-06 2.1963453e-18)
(0.28693287 -3.0430298e-06 3.7271982e-18)
(0.28113795 -3.4477098e-06 2.0444513e-18)
(0.2737152 -3.384852e-06 1.9678466e-18)
(0.26458216 -2.9542643e-06 6.6479283e-19)
(0.25334606 -2.2920379e-06 1.294596e-18)
(0.23902141 -1.5368717e-06 1.3323118e-18)
(0.21914777 -8.5216611e-07 1.1421972e-18)
(0.18446297 -3.0288514e-07 1.20222e-18)
(0.29300147 -9.1287406e-07 1.2963605e-19)
(0.29102232 -2.1288268e-06 1.3148785e-18)
(0.28696078 -2.8981859e-06 3.7015503e-18)
(0.28115513 -3.2456197e-06 2.7700543e-18)
(0.27372147 -3.1448881e-06 2.4198553e-18)
(0.26457888 -2.706913e-06 1.9901005e-18)
(0.25333564 -2.0701722e-06 1.5847064e-18)
(0.23900682 -1.3678316e-06 1.4400319e-18)
(0.21913222 -7.4721636e-07 1.6127463e-18)
(0.18444946 -2.6187914e-07 1.2887004e-18)
(0.29304037 -8.65372e-07 4.7774269e-19)
(0.29105678 -2.0147859e-06 4.8311315e-19)
(0.28698667 -2.7207573e-06 -1.1078376e-18)
(0.28117053 -3.0139181e-06 1.9665457e-18)
(0.27372649 -2.8840208e-06 2.7675541e-18)
(0.26457515 -2.4489337e-06 2.9272607e-18)
(0.25332565 -1.8462026e-06 2.1386702e-18)
(0.23899344 -1.20162e-06 1.7497311e-18)
(0.2191184 -6.4623095e-07 1.5741435e-18)
(0.18443777 -2.2309342e-07 1.205177e-18)
(0.29307698 -8.089014e-07 2.3970602e-18)
(0.29108893 -1.8804588e-06 1.5680746e-18)
(0.28701038 -2.5199571e-06 1.1169913e-18)
(0.28118414 -2.7624612e-06 1.8011275e-18)
(0.27373039 -2.6112183e-06 2.216582e-18)
(0.26457113 -2.1874322e-06 2.6870859e-18)
(0.2533162 -1.625013e-06 2.132893e-18)
(0.23898132 -1.0410454e-06 1.8164809e-18)
(0.21910626 -5.5049429e-07 1.4743983e-18)
(0.18442782 -1.8688443e-07 1.2804792e-18)
(0.29311098 -7.4611471e-07 5.9976903e-19)
(0.29111854 -1.7319907e-06 3.2226455e-18)
(0.28703182 -2.303818e-06 2.1624739e-18)
(0.281196 -2.4997019e-06 1.6099235e-18)
(0.27373329 -2.3340079e-06 9.3691014e-19)
(0.26456695 -1.9282083e-06 1.9945713e-18)
(0.25330741 -1.4104363e-06 1.9303009e-18)
(0.23897048 -8.8818575e-07 1.8328121e-18)
(0.21909577 -4.6086854e-07 1.6613078e-18)
(0.1844195 -1.5345572e-07 1.3794298e-18)
(0.29314213 -6.7931532e-07 3.1238792e-19)
(0.29114547 -1.574711e-06 2.8594191e-18)
(0.28705095 -2.0792313e-06 3.3106823e-18)
(0.28120619 -2.2327718e-06 2.458812e-18)
(0.27373531 -2.058597e-06 2.5442904e-18)
(0.26456274 -1.6759025e-06 9.6147928e-19)
(0.25329933 -1.2054141e-06 1.6750408e-18)
(0.23896092 -7.4452716e-07 1.7342965e-18)
(0.21908683 -3.778736e-07 1.5910943e-18)
(0.18441268 -1.2287721e-07 1.3313086e-18)
(0.29317031 -6.105032e-07 2.0399719e-18)
(0.29116963 -1.4132241e-06 2.7568415e-18)
(0.2870678 -1.8520808e-06 3.986736e-18)
(0.28121479 -1.9676638e-06 2.3931794e-18)
(0.27373657 -1.7900998e-06 2.7760094e-18)
(0.26455858 -1.4342464e-06 2.1551656e-18)
(0.25329201 -1.0122394e-06 1.8993397e-18)
(0.23895261 -6.1118218e-07 1.7852721e-18)
(0.21907935 -3.0186814e-07 1.8226511e-18)
(0.18440723 -9.5184041e-08 1.3808748e-18)
(0.29319547 -5.4138961e-07 1.4642304e-18)
(0.29119102 -1.2514552e-06 1.6278452e-18)
(0.28708242 -1.6273234e-06 5.9383131e-20)
(0.28122192 -1.709344e-06 2.0333405e-18)
(0.27373718 -1.5326651e-06 2.3428578e-18)
(0.26455454 -1.2061887e-06 2.6965516e-18)
(0.25328545 -8.3266812e-07 2.0953412e-18)
(0.23894549 -4.8896906e-07 1.8396559e-18)
(0.21907322 -2.3310023e-07 1.7142267e-18)
(0.18440303 -7.0397943e-08 1.4046868e-18)
(0.29321764 -4.7341567e-07 8.8208738e-20)
(0.29120971 -1.0927006e-06 7.1823084e-19)
(0.28709491 -1.4090687e-06 7.077758e-19)
(0.28122768 -1.4618511e-06 1.5791403e-18)
(0.27373724 -1.2895804e-06 1.9429658e-18)
(0.2645507 -9.9398874e-07 2.0068667e-18)
(0.25327965 -6.6798568e-07 2.0853861e-18)
(0.23893949 -3.7845284e-07 1.8320193e-18)
(0.21906834 -1.7172805e-07 1.7187797e-18)
(0.18439993 -4.8529444e-08 1.435897e-18)
(0.29323688 -4.0776181e-07 1.8079835e-18)
(0.29122577 -9.3965667e-07 1.8699351e-18)
(0.2871054 -1.2006263e-06 7.2071515e-19)
(0.28123221 -1.2283526e-06 3.8092968e-19)
(0.27373686 -1.0633234e-06 8.8189408e-19)
(0.26454709 -7.9924283e-07 1.6021085e-18)
(0.2532746 -5.1900386e-07 1.7116143e-18)
(0.23893453 -2.7991269e-07 1.807123e-18)
(0.21906457 -1.1777955e-07 1.5867541e-18)
(0.1843978 -2.955668e-08 1.3581402e-18)
(0.29325332 -3.4536753e-07 1.276206e-18)
(0.29123936 -7.9445701e-07 2.2594903e-18)
(0.28711402 -1.0045513e-06 3.1192432e-18)
(0.28123563 -1.0111908e-06 2.2659657e-18)
(0.27373611 -8.5559728e-07 2.1326778e-18)
(0.26454375 -6.229076e-07 1.0015757e-18)
(0.25327028 -3.8606134e-07 1.4298744e-18)
(0.23893055 -1.9332221e-07 1.5482131e-18)
(0.21906179 -7.1129288e-08 1.2482228e-18)
(0.18439652 -1.3409875e-08 1.2283203e-18)