/*--------------------------------*- C++ -*----------------------------------*\
| =========                 |                                                 |
| \\      /  F ield         | OpenFOAM: The Open Source CFD Toolbox           |
|  \\    /   O peration     | Version:  2506                                  |
|   \\  /    A nd           | Website:  www.openfoam.com                      |
|    \\/     M anipulation  |                                                 |
\*---------------------------------------------------------------------------*/
FoamFile
{
    version     2.0;
    format      ascii;
    arch        "LSB;label=32;scalar=64";
    class       volScalarField;
    location    "10000/water";
    object      alphat;
}
// * * * * * * * * * * * * * * * * * * * * * * * * * * * * * * * * * * * * * //

dimensions      [1 -1 -1 0 0 0 0];

internalField   nonuniform List<scalar> 
6000
(
0.041292847
0.041292824
0.041292831
0.041292856
0.041292889
0.041292932
0.041292983
0.041293016
0.041292808
0.041290571
0.041271537
0.041111294
0.0397723
0.030564074
0.013464793
0.040788543
0.040788537
0.040788576
0.040788654
0.040788758
0.040788888
0.04078902
0.040788972
0.040787494
0.040776037
0.040696382
0.040161217
0.036863805
0.023766469
0.015141611
0.04033569
0.040335696
0.040335761
0.040335884
0.040336044
0.040336229
0.04033633
0.040335685
0.040330323
0.040296649
0.040097616
0.038983223
0.033614213
0.0194951
0.016360294
0.039926215
0.039926219
0.039926301
0.039926459
0.03992666
0.039926848
0.039926701
0.039924457
0.039910659
0.039835636
0.039448738
0.037597438
0.030384627
0.016783057
0.017196555
0.039553796
0.039553808
0.039553906
0.039554093
0.039554312
0.039554413
0.039553622
0.0395481
0.039519187
0.039379112
0.038737841
0.036066498
0.027427863
0.015063192
0.01773179
0.039213273
0.039213296
0.039213408
0.039213613
0.039213809
0.039213657
0.039211571
0.039200298
0.039147643
0.038916647
0.037965398
0.034462847
0.024852826
0.013984463
0.018040007
0.038900366
0.038900399
0.038900521
0.038900723
0.038900826
0.038900159
0.038895819
0.03887551
0.038788999
0.038441492
0.037140256
0.032849727
0.022675913
0.013336844
0.018183117
0.038611532
0.038611573
0.038611697
0.038611866
0.038611765
0.038610199
0.038602307
0.038568928
0.038437606
0.037950377
0.036275872
0.031274836
0.020870828
0.012994967
0.018210197
0.038343817
0.038343862
0.038343975
0.038344065
0.038343601
0.038340605
0.038327517
0.03827644
0.038089201
0.037442856
0.03538704
0.029770034
0.019396999
0.012882914
0.018158676
0.038094736
0.03809478
0.038094862
0.038094803
0.038093753
0.038088644
0.038068396
0.037994592
0.037740813
0.036920504
0.03448763
0.028354169
0.018213448
0.012953916
0.018056304
0.037862183
0.037862216
0.037862238
0.037861935
0.037860009
0.037851941
0.037822294
0.037720559
0.037390607
0.036386134
0.033589398
0.02703684
0.017284481
0.013178532
0.017923231
0.03764436
0.037644371
0.037644291
0.037643618
0.037640447
0.037628426
0.037586933
0.037452106
0.037037684
0.035843147
0.032701562
0.025821837
0.016581272
0.013537499
0.017773886
0.037439726
0.037439699
0.03743946
0.037438254
0.037433393
0.037416287
0.037360374
0.037187532
0.036681868
0.035295042
0.031830871
0.02470985
0.016081614
0.014017191
0.017618497
0.037246949
0.037246861
0.037246392
0.037244452
0.037237378
0.037213943
0.037140989
0.036925609
0.0363235
0.034745073
0.030981931
0.023700436
0.015768976
0.014606606
0.017464261
0.037064871
0.037064693
0.037063903
0.037060987
0.037051109
0.037020016
0.036927437
0.036665512
0.035963258
0.03419604
0.030157673
0.022793377
0.015631332
0.015295285
0.017316197
0.03689248
0.036892177
0.036890955
0.036886782
0.036873442
0.036833316
0.036718634
0.03640675
0.035602004
0.033650187
0.029359858
0.021989539
0.015659917
0.016071914
0.01717775
0.036728885
0.036728414
0.036726628
0.036720878
0.03670337
0.036652818
0.036513731
0.036149096
0.035240656
0.033109157
0.028589603
0.021291346
0.015847992
0.016923492
0.017051196
0.036573301
0.03657261
0.036570106
0.036562424
0.036540005
0.036477653
0.03631208
0.035892529
0.034880099
0.032574024
0.027847913
0.02070292
0.016189617
0.01783505
0.016937916
0.036425028
0.036424056
0.036420663
0.036410663
0.036382564
0.036307092
0.036113215
0.03563717
0.034521109
0.032045349
0.027136212
0.020229919
0.016678486
0.018789895
0.016838558
0.036283441
0.03628212
0.036277645
0.036264917
0.036230367
0.036140535
0.03591682
0.035383242
0.034164308
0.031523285
0.026456862
0.019879123
0.017306891
0.019770317
0.016753165
0.036147982
0.036146234
0.036140468
0.036124584
0.036082821
0.035977497
0.035722708
0.035131018
0.033810124
0.031007717
0.025813646
0.019657797
0.018064912
0.0207586
0.016681265
0.036018143
0.036015885
0.036008605
0.035989127
0.035939416
0.035817597
0.035530799
0.034880794
0.033458783
0.030498445
0.025212142
0.019572905
0.018939949
0.021738147
0.016621966
0.03589347
0.03589061
0.035881581
0.035858069
0.035799718
0.035660549
0.035341095
0.034632853
0.033110301
0.029995409
0.024659951
0.019630248
0.019916664
0.02269449
0.016574063
0.035773545
0.035769987
0.035758968
0.035730991
0.035663366
0.035506152
0.035153669
0.034387441
0.032764498
0.029498968
0.024166686
0.019833637
0.020977366
0.023616003
0.016536152
0.035657992
0.035653635
0.035640383
0.035607524
0.035530063
0.035354279
0.034968643
0.03414475
0.03242103
0.029010211
0.023743688
0.020184173
0.022102784
0.024494228
0.016506745
0.035546464
0.035541207
0.035525479
0.035487349
0.035399574
0.035204869
0.034786172
0.033904896
0.032079439
0.028531301
0.023403466
0.020679734
0.023273104
0.025323802
0.016484372
0.035438647
0.035432386
0.035413948
0.035370193
0.035271718
0.035057919
0.034606436
0.03366791
0.03173923
0.028065808
0.023158914
0.021314706
0.0244691
0.026102089
0.016467662
0.035334251
0.035326887
0.035305516
0.035255823
0.03514637
0.034913479
0.03442962
0.033433727
0.031399978
0.02761899
0.023022388
0.022080017
0.02567317
0.026828633
0.016455398
0.035233012
0.035224448
0.035199939
0.03514405
0.035023453
0.034771643
0.034255909
0.033202186
0.031061475
0.027197981
0.02300477
0.022963453
0.026870128
0.027504567
0.016446544
0.035134691
0.035124836
0.035097009
0.035034724
0.034902936
0.03463254
0.03408547
0.032973033
0.030723902
0.0268118
0.023114634
0.02395025
0.02804767
0.02813208
0.016440248
0.035039067
0.03502784
0.034996542
0.034927732
0.034784832
0.034496333
0.033918446
0.032745938
0.030388046
0.026471168
0.023357597
0.025023884
0.029196491
0.028713983
0.016435834
0.034945943
0.034933275
0.034898386
0.034822996
0.034669194
0.034363211
0.033754944
0.032520522
0.030055535
0.0261881
0.023735916
0.026166983
0.030310099
0.029253407
0.016432778
0.034855141
0.034840974
0.034802418
0.034720475
0.034556112
0.034233382
0.033595029
0.032296402
0.029729078
0.025975302
0.024248334
0.027362251
0.031384439
0.029753594
0.016430685
0.034766502
0.034750797
0.03470854
0.034620164
0.034445715
0.034107066
0.033438713
0.032073259
0.029412693
0.025845434
0.02489019
0.028593298
0.032417399
0.030217765
0.016429265
0.034679887
0.034662624
0.034616684
0.034522088
0.034338162
0.033984492
0.033285952
0.031850929
0.029111866
0.025810314
0.025653731
0.029845306
0.033408314
0.030649046
0.016428312
0.034595176
0.034576356
0.034526808
0.034426308
0.034233647
0.033865888
0.033136649
0.03162952
0.028833633
0.025880169
0.026528618
0.031105457
0.034357528
0.031050409
0.016427682
0.034512269
0.034491917
0.034438897
0.034332917
0.034132389
0.033751478
0.032990657
0.031409555
0.028586514
0.026063008
0.027502552
0.032363142
0.03526604
0.031424646
0.016427279
0.034431083
0.034409252
0.034352965
0.034242042
0.034034637
0.033641469
0.032847794
0.031192142
0.028380314
0.026364173
0.028561976
0.033609945
0.036135246
0.031774345
0.016427047
0.034351558
0.034328331
0.034269052
0.034153841
0.033940664
0.03353605
0.032707868
0.030979149
0.028225757
0.026786087
0.029692785
0.03483947
0.036966767
0.032101873
0.01642695
0.034273652
0.034249145
0.03418723
0.034068505
0.03385076
0.033435383
0.03257072
0.030773392
0.028133995
0.027328217
0.03088099
0.036047064
0.037762341
0.032409379
0.016426974
0.034197344
0.03417171
0.034107598
0.033986257
0.033765237
0.033339598
0.032436275
0.03057878
0.02811603
0.027987221
0.032113281
0.0372295
0.038523753
0.032698797
0.016427117
0.034122637
0.034096065
0.034030285
0.033907355
0.033684417
0.033248788
0.032304627
0.030400434
0.028182105
0.028757247
0.033377458
0.038384661
0.039252793
0.032971854
0.016427382
0.034049553
0.034022276
0.033955452
0.033832084
0.033608631
0.033163012
0.03217613
0.030244713
0.028341139
0.029630357
0.034662707
0.039511266
0.039951229
0.033230087
0.016427779
0.03397814
0.033950437
0.033883292
0.033760766
0.033538214
0.0330823
0.032051524
0.030119154
0.028600248
0.030597023
0.03595973
0.040608644
0.04062078
0.033474858
0.016428318
0.033908471
0.033880668
0.033814033
0.033693749
0.033473498
0.033006662
0.031932062
0.030032292
0.028964399
0.031646656
0.037260749
0.041676564
0.041263105
0.033707376
0.01642901
0.033840644
0.033813121
0.033747936
0.033631414
0.033414804
0.032936115
0.031819663
0.029993372
0.029436216
0.032768136
0.038559412
0.042715115
0.041879786
0.03392871
0.016429865
0.033774787
0.03374798
0.033685299
0.033574167
0.033362442
0.032870718
0.031717047
0.030011966
0.030015941
0.033950292
0.039850637
0.04372462
0.042472321
0.034139807
0.016430892
0.033711057
0.03368546
0.033626458
0.033522441
0.0333167
0.032810616
0.031627856
0.030097526
0.030701532
0.035182311
0.041130424
0.044705572
0.04304212
0.034341507
0.016432098
0.033649643
0.033625814
0.033571787
0.03347669
0.033277845
0.032756114
0.031556738
0.030258911
0.031488887
0.036454053
0.04239567
0.045658593
0.043590503
0.034534556
0.016433487
0.03359077
0.033569333
0.033521698
0.033437387
0.033246121
0.032707757
0.031509361
0.030503945
0.032372151
0.037756272
0.043643999
0.046584398
0.044118701
0.034719619
0.016435065
0.033534699
0.033516348
0.033476647
0.033405019
0.033221753
0.032666434
0.031492361
0.030839032
0.033344091
0.039080736
0.044873611
0.047483768
0.044627862
0.034897288
0.016436831
0.033481731
0.033467235
0.033437127
0.033380083
0.033204962
0.032633491
0.031513198
0.031268867
0.03439649
0.04042026
0.046083169
0.048357526
0.045119053
0.035068092
0.016438788
0.033432211
0.033422413
0.033403675
0.033363076
0.033195977
0.032610855
0.031579921
0.031796261
0.035520547
0.041768679
0.047271704
0.049206518
0.045593265
0.035232506
0.016440933
0.033386531
0.033382352
0.033376864
0.033354497
0.033195077
0.032601148
0.031700866
0.032422081
0.036707241
0.043120771
0.048438545
0.050031597
0.046051422
0.035390958
0.016443265
0.033345134
0.033347573
0.033357309
0.033354835
0.033202626
0.032607788
0.031884297
0.033145302
0.037947655
0.044472159
0.04958326
0.050833612
0.046494379
0.035543832
0.016445781
0.033308517
0.033318652
0.03334566
0.03336457
0.03321914
0.032635054
0.032138028
0.033963157
0.039233227
0.045819197
0.050705615
0.051613399
0.046922933
0.035691476
0.016448478
0.033277237
0.03329622
0.033342601
0.033384173
0.033245359
0.032688101
0.032469053
0.034871359
0.040555942
0.047158868
0.051805538
0.052371775
0.047337823
0.035834207
0.01645135
0.033251914
0.033280969
0.033348844
0.033414105
0.033282341
0.032772906
0.032883229
0.035864376
0.041908449
0.048488681
0.052883083
0.053109532
0.047739737
0.035972311
0.016454393
0.033233235
0.033273651
0.033365128
0.033454834
0.033331559
0.032896156
0.033385018
0.036935741
0.043284125
0.049806593
0.053938411
0.053827436
0.048129314
0.036106049
0.016457603
0.033221962
0.033275082
0.03339221
0.033506851
0.033395014
0.033065044
0.033977325
0.038078355
0.044677082
0.051110935
0.054971761
0.054526224
0.048507149
0.03623566
0.016460973
0.033218934
0.033286139
0.033430864
0.033570697
0.033475332
0.033287021
0.034661422
0.039284783
0.046082141
0.052400357
0.055983436
0.055206605
0.048873798
0.036361365
0.016464499
0.033225073
0.033307763
0.033481872
0.033647011
0.033575851
0.033569493
0.035436966
0.040547513
0.04749479
0.053673777
0.056973788
0.055869259
0.049229783
0.036483371
0.016468174
0.033241387
0.033340956
0.033546023
0.033736584
0.033700673
0.0339195
0.036302098
0.041859177
0.048911114
0.054930341
0.0579432
0.056514815
0.049575482
0.036601107
0.016471991
0.033268973
0.033386782
0.033624116
0.03384043
0.033854673
0.034343399
0.037253607
0.043212715
0.050327734
0.056169387
0.058892071
0.057143865
0.04991129
0.036714909
0.016475943
0.033309025
0.033446358
0.033716959
0.033959875
0.034043452
0.03484659
0.038287142
0.044601497
0.051741741
0.057390414
0.059820817
0.057756977
0.05023761
0.03682508
0.016480021
0.033362831
0.033520856
0.033825384
0.034096648
0.034273223
0.035433283
0.039397454
0.046019396
0.053150639
0.058593057
0.060729866
0.058354702
0.050554852
0.036931888
0.016484216
0.033431777
0.033611495
0.033950267
0.034252978
0.034550641
0.036106347
0.040578642
0.047460821
0.054552291
0.059777067
0.061619644
0.058937516
0.050862976
0.037035617
0.01648852
0.033517346
0.033719537
0.03409256
0.034431692
0.034882568
0.036867228
0.041824403
0.048920725
0.055944874
0.06094229
0.062490573
0.059505861
0.051162195
0.037136428
0.016492925
0.033621116
0.033846286
0.034253334
0.034636276
0.035275816
0.03771595
0.043128244
0.050394582
0.057326839
0.062088646
0.063343071
0.060060194
0.051453011
0.037234409
0.016497427
0.033744759
0.033993082
0.034433842
0.034870927
0.035736851
0.038651184
0.044483678
0.051878363
0.058696874
0.063216123
0.064177557
0.060600979
0.051735861
0.037329668
0.01650202
0.033890033
0.034161308
0.034635592
0.035140541
0.03627152
0.039670374
0.04588437
0.053368492
0.060053874
0.064324764
0.064994441
0.061128547
0.052011151
0.037422333
0.016506701
0.034058782
0.034352399
0.034860431
0.035450658
0.036884799
0.040769911
0.047324261
0.054861808
0.061396919
0.065414652
0.065794072
0.061642888
0.052279268
0.03751255
0.016511468
0.034252928
0.034567858
0.035110638
0.035807349
0.037580585
0.041945329
0.048797637
0.056355525
0.062725236
0.066485897
0.066576817
0.062144574
0.052540421
0.037600425
0.016516317
0.034474465
0.034809288
0.035389017
0.036217033
0.038361559
0.043191516
0.050299182
0.05784719
0.064038188
0.06753864
0.067343062
0.062634118
0.05279483
0.037686045
0.016521246
0.034725463
0.035078434
0.035698974
0.036686265
0.039229105
0.044502921
0.051823996
0.059334646
0.065335251
0.068573048
0.068093209
0.063111982
0.053042727
0.037769489
0.016526251
0.035008074
0.035377242
0.036044575
0.037221472
0.04018331
0.045873745
0.053367598
0.060816007
0.066616001
0.06958927
0.068827159
0.063578632
0.053284363
0.037850854
0.016531328
0.035324541
0.035707931
0.036430554
0.037828691
0.041223015
0.047298105
0.054925915
0.062289617
0.067880088
0.070587461
0.069545394
0.064034377
0.053519949
0.037930228
0.016536475
0.035677226
0.036073078
0.036862289
0.038513305
0.042345928
0.048770178
0.056495254
0.063754026
0.069127224
0.071567813
0.070248387
0.064479519
0.053749673
0.038007688
0.016541689
0.036068652
0.036475709
0.037345706
0.039279817
0.043548771
0.050284301
0.058072285
0.06520796
0.070357186
0.072530553
0.070936577
0.064914356
0.053973713
0.038083297
0.016546965
0.036501555
0.036919383
0.03788713
0.040131665
0.044827451
0.051835056
0.059654008
0.06665032
0.07156979
0.073475531
0.071610343
0.065339185
0.054192261
0.038157119
0.0165523
0.036978955
0.037408267
0.038493086
0.041071102
0.046177252
0.053417317
0.061237725
0.068080126
0.072764863
0.074403046
0.072270037
0.065754269
0.054405492
0.038229214
0.016557691
0.037504235
0.037947173
0.039170052
0.042099134
0.047593008
0.055026281
0.062821008
0.069496511
0.073942292
0.075313422
0.072915973
0.066159857
0.054613566
0.038299637
0.016563135
0.038081227
0.038541556
0.039924198
0.043215529
0.04906928
0.05665748
0.064401675
0.070898718
0.075101931
0.076206937
0.073548448
0.066556187
0.054816629
0.038368437
0.016568629
0.038714283
0.039197451
0.04076112
0.044418877
0.050600503
0.058306784
0.065977774
0.072286077
0.076243567
0.077083834
0.074167735
0.0669435
0.055014818
0.038435659
0.016574168
0.039408326
0.03992135
0.041685594
0.045706701
0.052181109
0.059970382
0.067547529
0.073657957
0.077367216
0.077944414
0.074774092
0.067322015
0.055208267
0.038501344
0.01657975
0.040168853
0.040720012
0.042701372
0.047075601
0.053805632
0.061644769
0.069109334
0.07501382
0.07847296
0.078788926
0.075367767
0.067691935
0.055397094
0.038565529
0.016585371
0.041001882
0.041600216
0.043811037
0.048521422
0.05546878
0.063326749
0.070661777
0.076353059
0.07956072
0.079617568
0.075949006
0.068053453
0.055581412
0.038628247
0.016591028
0.041913825
0.042568476
0.045015911
0.05003942
0.057165488
0.065013373
0.072203504
0.077675199
0.080630683
0.080430537
0.076518037
0.06840675
0.055761324
0.038689529
0.016596717
0.042911282
0.043630737
0.04631604
0.051624435
0.058890942
0.066701923
0.073733287
0.078979923
0.081682975
0.081228026
0.077075075
0.068751995
0.055936928
0.038749404
0.016602435
0.044000767
0.044792072
0.047710224
0.053271043
0.06064062
0.068389956
0.075249982
0.080266751
0.082717638
0.082010227
0.077620318
0.069089347
0.056108312
0.038807894
0.01660818
0.045188365
0.046056411
0.049196111
0.054973689
0.062410262
0.070075147
0.076752479
0.081535585
0.083734727
0.082777318
0.078153957
0.069418951
0.056275557
0.038865023
0.016613947
0.046479373
0.047426321
0.050770312
0.056726789
0.064195872
0.071755346
0.078239833
0.082786293
0.084734305
0.083529461
0.078676167
0.069740945
0.05643874
0.03892081
0.016619733
0.047877926
0.048902849
0.052428559
0.058524841
0.065993763
0.073428577
0.079711021
0.084018651
0.085716434
0.084266811
0.079187111
0.070055455
0.05659793
0.038975273
0.016625536
0.049386662
0.050485429
0.054165842
0.060362441
0.067800388
0.075092886
0.081165555
0.085232477
0.086681165
0.084989508
0.07968694
0.070362597
0.056753191
0.039028429
0.016631351
0.051006464
0.052171881
0.055976583
0.062234392
0.069612489
0.076746325
0.082602814
0.086427598
0.08762854
0.08569768
0.080175794
0.070662478
0.056904582
0.039080292
0.016637177
0.052736273
0.053958452
0.057854745
0.064135604
0.071426848
0.078387509
0.084022194
0.087603844
0.088558591
0.086391442
0.080653796
0.070955198
0.057052154
0.039130872
0.01664301
0.054573037
0.05583994
0.059793989
0.066061204
0.073240247
0.080015153
0.085423128
0.088761042
0.089471338
0.087070892
0.08112106
0.071240842
0.057195957
0.039180182
0.016648846
0.056511746
0.057809835
0.061787676
0.068006288
0.075050126
0.081628012
0.086805069
0.089899013
0.090366786
0.087736112
0.081577684
0.071519491
0.057336031
0.03922823
0.016654684
0.058545591
0.059860501
0.063828961
0.069966083
0.076854128
0.0832249
0.088167484
0.091017569
0.091244922
0.088387169
0.082023753
0.071791211
0.057472414
0.039275023
0.016660519
0.060666139
0.061983258
0.065910728
0.071936444
0.078650017
0.084804686
0.089509846
0.092116512
0.092105717
0.08902411
0.082459335
0.07205606
0.057605134
0.039320566
0.016666349
0.062863544
0.064168743
0.068026171
0.073913384
0.08043566
0.086366278
0.090831632
0.093195626
0.092949119
0.089646962
0.082884484
0.072314084
0.057734217
0.039364861
0.016672171
0.065126996
0.066407201
0.070168537
0.075893052
0.082209015
0.08790862
0.092132317
0.094254678
0.093775056
0.090255732
0.083299236
0.072565319
0.05785968
0.039407908
0.016677981
0.067445105
0.068688658
0.072331156
0.077871727
0.083968117
0.089430681
0.093411371
0.095293415
0.09458343
0.090850407
0.08370361
0.072809786
0.057981534
0.039449705
0.016683778
0.069806251
0.071003125
0.074507479
0.079845798
0.085711066
0.090931449
0.094668254
0.096311564
0.09537412
0.091430948
0.084097609
0.073047496
0.058099782
0.039490248
0.016689556
0.072198886
0.073340773
0.076691117
0.081811762
0.087436017
0.092409931
0.09590242
0.097308831
0.096146983
0.091997296
0.084481214
0.073278446
0.05821442
0.039529528
0.016695314
0.074611802
0.075692089
0.07887587
0.083766217
0.089141173
0.093865145
0.097113313
0.0982849
0.096901847
0.09254937
0.084854391
0.073502621
0.058325436
0.039567534
0.016701048
0.077034329
0.078048001
0.081055773
0.08570586
0.090824783
0.095296123
0.098300368
0.099239438
0.097638522
0.093087064
0.085217086
0.073719991
0.058432812
0.039604253
0.016706753
0.07945649
0.080399979
0.083225128
0.087627498
0.092485139
0.096701912
0.099463017
0.10017209
0.098356793
0.093610254
0.085569228
0.073930514
0.058536521
0.039639666
0.016712426
0.081869099
0.082740109
0.08537854
0.08952805
0.094120577
0.098081571
0.10060069
0.1010825
0.099056428
0.094118795
0.085910729
0.074134138
0.058636527
0.039673756
0.016718064
0.08426382
0.085061136
0.087510943
0.09140456
0.09572948
0.09943418
0.10171281
0.10197029
0.099737178
0.094612525
0.086241486
0.074330797
0.058732791
0.039706497
0.016723661
0.086633187
0.087356491
0.08961763
0.093254214
0.097310287
0.10075884
0.10279882
0.10283509
0.10039878
0.095091268
0.086561383
0.074520414
0.058825264
0.039737865
0.016729214
0.088970597
0.089620298
0.091694272
0.09507435
0.098861499
0.10205469
0.10385818
0.1036765
0.10104098
0.095554837
0.086870291
0.074702905
0.058913894
0.039767833
0.016734718
0.091270285
0.09184736
0.093736924
0.096862472
0.10038168
0.10332089
0.10489034
0.10449417
0.1016635
0.096003038
0.087168074
0.074878179
0.058998622
0.039796369
0.016740167
0.093527272
0.094033138
0.095742038
0.098616265
0.10186949
0.10455665
0.10589481
0.10528774
0.10226607
0.096435673
0.087454589
0.075046136
0.059079386
0.039823442
0.016745558
0.095737325
0.096173717
0.097706459
0.1003336
0.10332366
0.10576124
0.1068711
0.10605687
0.10284844
0.096852546
0.087729692
0.075206676
0.059156122
0.03984902
0.016750883
0.097896886
0.098265771
0.099627417
0.10201256
0.10474302
0.10693396
0.10781878
0.10680123
0.10341036
0.097253465
0.087993238
0.075359695
0.059228764
0.03987307
0.016756139
0.10000302
0.10030652
0.10150252
0.10365142
0.10612651
0.10807418
0.10873746
0.10752056
0.1039516
0.09763825
0.088245086
0.075505091
0.059297246
0.039895558
0.016761319
0.10205337
0.10229368
0.10332974
0.10524865
0.10747317
0.10918135
0.10962678
0.10821458
0.10447197
0.098006734
0.088485103
0.075642766
0.059361503
0.039916452
0.016766418
0.10404605
0.10422543
0.10510737
0.10680296
0.10878217
0.11025498
0.11048644
0.1088831
0.1049713
0.09835877
0.088713168
0.075772628
0.059421475
0.039935722
0.01677143
0.10597965
0.10610036
0.10683406
0.10831323
0.11005278
0.11129465
0.11131621
0.10952595
0.10544943
0.098694232
0.088929173
0.075894591
0.059477103
0.039953338
0.016776348
0.10785316
0.10791743
0.10850874
0.10977857
0.11128441
0.11230003
0.1121159
0.11014299
0.10590627
0.09901302
0.089133027
0.076008581
0.059528337
0.039969275
0.016781168
0.1096659
0.10967594
0.1101306
0.11119825
0.11247657
0.11327086
0.11288538
0.11073417
0.10634175
0.099315063
0.089324659
0.076114537
0.059575133
0.039983509
0.016785883
0.11141753
0.11137546
0.11169911
0.11257174
0.11362889
0.11420696
0.11362458
0.11129944
0.10675584
0.099600323
0.08950402
0.076212412
0.059617455
0.039996021
0.016790488
0.11310793
0.11301584
0.11321397
0.11389868
0.11474113
0.11510823
0.11433351
0.11183884
0.10714856
0.099868791
0.089671086
0.076302174
0.059655276
0.040006796
0.016794978
0.11473728
0.11459717
0.11467505
0.11517888
0.11581316
0.11597465
0.11501223
0.11235245
0.10751998
0.1001205
0.089825859
0.076383811
0.059688582
0.040015826
0.016799346
0.11630589
0.1161197
0.11608246
0.11641229
0.11684495
0.11680629
0.11566084
0.1128404
0.10787018
0.10035551
0.089968367
0.076457328
0.059717368
0.040023104
0.016803588
0.11781431
0.11758388
0.11743643
0.11759901
0.11783656
0.11760326
0.11627953
0.11330285
0.10819932
0.10057391
0.090098667
0.07652275
0.059741642
0.040028634
0.016807699
0.11926318
0.11899031
0.11873736
0.11873924
0.11878818
0.11836577
0.11686852
0.11374005
0.10850758
0.10077586
0.090216842
0.076580124
0.059761427
0.040032421
0.016811675
0.1206533
0.1203397
0.11998578
0.11983332
0.11970007
0.1190941
0.11742811
0.11415225
0.1087952
0.10096151
0.090323007
0.076629515
0.059776754
0.040034479
0.016815512
0.12198557
0.12163288
0.12118231
0.1208817
0.12057255
0.11978856
0.11795862
0.11453978
0.10906244
0.10113108
0.090417302
0.07667101
0.059787672
0.040034827
0.016819205
0.12326098
0.12287077
0.12232769
0.12188489
0.12140606
0.12044955
0.11846043
0.11490298
0.1093096
0.10128479
0.090499895
0.076704717
0.059794241
0.04003349
0.016822751
0.12448057
0.12405436
0.12342273
0.12284351
0.12220107
0.12107751
0.11893398
0.11524227
0.10953703
0.10142292
0.090570982
0.076730765
0.059796534
0.0400305
0.016826149
0.12564547
0.12518471
0.12446831
0.12375824
0.12295814
0.12167294
0.11937973
0.11555805
0.1097451
0.10154576
0.090630781
0.076749299
0.059794637
0.040025892
0.016829395
0.12675685
0.12626293
0.12546539
0.12462982
0.12367788
0.12223638
0.11979818
0.11585081
0.10993421
0.10165365
0.090679537
0.076760487
0.059788648
0.040019711
0.016832487
0.1278159
0.12729017
0.12641496
0.12545905
0.12436093
0.1227684
0.12018987
0.11612102
0.11010478
0.10174693
0.090717515
0.07676451
0.059778677
0.040012004
0.016835425
0.12882388
0.12826762
0.12731805
0.12624678
0.125008
0.12326961
0.12055537
0.11636921
0.11025728
0.10182597
0.090745002
0.076761569
0.059764844
0.040002823
0.016838207
0.12978203
0.12919648
0.12817573
0.1269939
0.12561981
0.12374068
0.12089527
0.11659592
0.11039218
0.10189118
0.090762302
0.076751878
0.05974728
0.039992226
0.016840833
0.13069163
0.13007799
0.1289891
0.12770131
0.12619714
0.12418226
0.12121018
0.11680171
0.11050997
0.10194297
0.090769739
0.076735667
0.059726125
0.039980275
0.016843304
0.13155398
0.1309134
0.12975929
0.12836997
0.1267408
0.12459506
0.12150075
0.11698717
0.11061117
0.10198176
0.090767649
0.076713175
0.059701526
0.039967034
0.016845619
0.13237037
0.13170395
0.13048742
0.12900085
0.12725159
0.12497981
0.12176762
0.11715288
0.11069631
0.102008
0.090756383
0.076684656
0.059673639
0.039952571
0.016847779
0.1331421
0.13245092
0.13117465
0.12959493
0.12773035
0.12533724
0.12201147
0.11729945
0.11076592
0.10202214
0.090736302
0.076650369
0.059642627
0.039936957
0.016849787
0.13387047
0.13315556
0.13182213
0.13015322
0.12817796
0.12566811
0.12223298
0.11742751
0.11082055
0.10202466
0.090707778
0.076610584
0.059608654
0.039920266
0.016851644
0.1345568
0.13381914
0.13243102
0.13067673
0.12859528
0.12597318
0.12243284
0.11753768
0.11086076
0.10201603
0.090671188
0.076565578
0.059571893
0.039902571
0.016853352
0.13520238
0.13444292
0.13300249
0.13116649
0.12898319
0.12625322
0.12261174
0.11763059
0.11088711
0.10199672
0.090626919
0.07651563
0.059532518
0.039883948
0.016854914
0.13580849
0.13502817
0.1335377
0.13162351
0.12934259
0.12650903
0.1227704
0.11770688
0.11090016
0.10196722
0.090575359
0.076461026
0.059490706
0.039864473
0.016856334
0.13637643
0.13557613
0.13403781
0.13204882
0.12967436
0.12674138
0.12290951
0.11776719
0.11090049
0.10192801
0.090516899
0.076402052
0.059446635
0.039844224
0.016857613
0.13690747
0.13608804
0.13450398
0.13244346
0.1299794
0.12695108
0.12302979
0.11781215
0.11088866
0.10187959
0.090451934
0.076338997
0.059400483
0.039823276
0.016858757
0.13740286
0.13656513
0.13493736
0.13280846
0.13025862
0.1271389
0.12313195
0.11784241
0.11086525
0.10182244
0.090380855
0.076272149
0.059352429
0.039801705
0.016859768
0.13786387
0.13700863
0.13533907
0.13314482
0.13051291
0.12730565
0.12321669
0.1178586
0.11083081
0.10175704
0.090304054
0.076201794
0.05930265
0.039779587
0.016860651
0.13829173
0.13741973
0.13571027
0.13345357
0.13074316
0.12745211
0.12328472
0.11786136
0.1107859
0.10168388
0.090221919
0.076128218
0.059251321
0.039756995
0.01686141
0.13868766
0.13779964
0.13605205
0.13373572
0.13095027
0.12757907
0.12333675
0.11785132
0.11073109
0.10160342
0.090134834
0.076051701
0.059198615
0.039734
0.01686205
0.13905285
0.13814952
0.13636553
0.13399225
0.13113511
0.1276873
0.12337345
0.11782909
0.11066692
0.10151615
0.09004318
0.075972521
0.059144701
0.039710674
0.016862574
0.1393885
0.13847054
0.13665179
0.13422417
0.13129856
0.12777758
0.12339553
0.11779528
0.11059393
0.10142252
0.089947329
0.075890949
0.059089745
0.039687084
0.016862988
0.13969576
0.13876382
0.13691191
0.13443244
0.13144148
0.12785067
0.12340367
0.11775052
0.11051267
0.101323
0.089847648
0.075807253
0.059033908
0.039663296
0.016863296
0.13997579
0.13903049
0.13714694
0.13461802
0.13156472
0.12790733
0.12339852
0.11769539
0.11042365
0.10121802
0.089744495
0.075721691
0.058977347
0.039639373
0.016863504
0.14022969
0.13927165
0.13735792
0.13478185
0.13166913
0.1279483
0.12338076
0.11763047
0.11032738
0.10110802
0.089638219
0.075634516
0.058920213
0.039615376
0.016863615
0.14045858
0.13948836
0.13754586
0.13492487
0.13175554
0.1279743
0.12335103
0.11755636
0.11022438
0.10099344
0.089529162
0.075545973
0.058862652
0.039591363
0.016863635
0.14066351
0.13968168
0.13771176
0.13504799
0.13182475
0.12798607
0.12330997
0.1174736
0.11011513
0.10087468
0.089417653
0.075456298
0.058804803
0.039567388
0.016863568
0.14084555
0.13985263
0.13785659
0.1351521
0.13187757
0.12798431
0.12325821
0.11738275
0.11000012
0.10075215
0.089304013
0.075365718
0.0587468
0.039543504
0.016863419
0.14100571
0.14000223
0.1379813
0.13523806
0.13191477
0.12796971
0.12319635
0.11728435
0.1098798
0.10062625
0.089188551
0.075274453
0.05868877
0.039519758
0.016863193
0.141145
0.14013144
0.13808683
0.13530674
0.13193713
0.12794294
0.12312499
0.11717892
0.10975465
0.10049735
0.089071563
0.075182711
0.058630834
0.039496196
0.016862895
0.14126438
0.14024122
0.13817407
0.13535896
0.13194537
0.12790466
0.12304471
0.11706698
0.10962508
0.10036581
0.088953337
0.075090692
0.058573105
0.039472862
0.016862529
0.1413648
0.1403325
0.13824392
0.13539554
0.13194025
0.12785553
0.12295609
0.11694901
0.10949154
0.100232
0.088834145
0.074998586
0.058515691
0.039449794
0.016862099
0.14144719
0.14040617
0.13829722
0.13541727
0.13192245
0.12779616
0.12285966
0.1168255
0.10935443
0.10009625
0.08871425
0.074906572
0.058458692
0.039427028
0.01686161
0.14151242
0.14046312
0.13833482
0.13542492
0.13189269
0.12772717
0.12275598
0.11669691
0.10921415
0.099958889
0.088593902
0.074814821
0.058402202
0.039404597
0.016861067
0.14156138
0.1405042
0.13835751
0.13541923
0.13185161
0.12764916
0.12264555
0.11656371
0.10907109
0.099820226
0.088473339
0.074723493
0.058346309
0.039382533
0.016860472