/*--------------------------------*- C++ -*----------------------------------*\
| =========                 |                                                 |
| \\      /  F ield         | OpenFOAM: The Open Source CFD Toolbox           |
|  \\    /   O peration     | Version:  2506                                  |
|   \\  /    A nd           | Website:  www.openfoam.com                      |
|    \\/     M anipulation  |                                                 |
\*---------------------------------------------------------------------------*/
FoamFile
{
    version     2.0;
    format      ascii;
    arch        "LSB;label=32;scalar=64";
    class       volScalarField;
    location    "10000/water";
    object      epsilon;
}
// * * * * * * * * * * * * * * * * * * * * * * * * * * * * * * * * * * * * * //

dimensions      [0 2 -3 0 0 0 0];

internalField   nonuniform List<scalar> 
6000
(
0.00010005327
0.00010005311
0.00010005314
0.00010005327
0.00010005342
0.00010005363
0.0001000539
0.00010005427
0.00010005511
0.00010005982
0.00010010144
0.00010049509
0.00010424183
0.00014354191
0.00073980483
8.5785229e-05
8.5785556e-05
8.5786111e-05
8.5786982e-05
8.5788138e-05
8.5789633e-05
8.5791527e-05
8.5794043e-05
8.5798789e-05
8.581901e-05
8.5962524e-05
8.7071869e-05
9.5619929e-05
0.00016974081
0.0010520452
7.4267219e-05
7.4268013e-05
7.426896e-05
7.4270365e-05
7.4272213e-05
7.4274585e-05
7.4277581e-05
7.4281747e-05
7.4291154e-05
7.4336305e-05
7.4633748e-05
7.6634978e-05
9.0041817e-05
0.00019500629
0.0013270628
6.4852864e-05
6.485355e-05
6.4854661e-05
6.4856389e-05
6.4858676e-05
6.4861616e-05
6.4865387e-05
6.4871112e-05
6.4886838e-05
6.4967364e-05
6.5458677e-05
6.84101e-05
8.6285088e-05
0.00021715658
0.0015411415
5.7072087e-05
5.7072704e-05
5.7073918e-05
5.7075861e-05
5.7078448e-05
5.7081784e-05
5.7086167e-05
5.7093598e-05
5.7117581e-05
5.7242267e-05
5.7947685e-05
6.180797e-05
8.3505097e-05
0.0002348614
0.0016895689
5.0576692e-05
5.0577312e-05
5.0578592e-05
5.0580667e-05
5.0583434e-05
5.0587016e-05
5.0591882e-05
5.0601216e-05
5.0635234e-05
5.0810032e-05
5.1732149e-05
5.6406881e-05
8.1259069e-05
0.00024828861
0.0017792142
4.5104569e-05
4.5105188e-05
4.5106499e-05
4.5108638e-05
4.5111496e-05
4.5115213e-05
4.5120483e-05
4.5131961e-05
4.5177479e-05
4.5405527e-05
4.6535255e-05
5.1917397e-05
7.9376731e-05
0.00025838324
0.0018218943
4.0455895e-05
4.0456503e-05
4.045782e-05
4.0459977e-05
4.0462859e-05
4.0466628e-05
4.0472257e-05
4.0486117e-05
4.0544208e-05
4.0826355e-05
4.2148994e-05
4.8144563e-05
7.7837439e-05
0.00026629433
0.0018300463
3.6476506e-05
3.6477102e-05
3.6478406e-05
3.6480546e-05
3.6483399e-05
3.6487156e-05
3.6493116e-05
3.6509564e-05
3.6580944e-05
3.6916576e-05
3.8416896e-05
4.4958845e-05
7.6693461e-05
0.00027309124
0.0018145574
3.304611e-05
3.3046691e-05
3.304797e-05
3.3050065e-05
3.3052847e-05
3.3056537e-05
3.3062809e-05
3.3082024e-05
3.3167159e-05
3.3555102e-05
3.5220975e-05
4.2274823e-05
7.6025068e-05
0.00027965054
0.0017840405
3.0069857e-05
3.007042e-05
3.0071664e-05
3.0073692e-05
3.0076366e-05
3.0079941e-05
3.0086514e-05
3.0108667e-05
3.0207924e-05
3.0647227e-05
3.2471858e-05
4.0036357e-05
7.5917105e-05
0.00028663427
0.001744886
2.7472233e-05
2.7472777e-05
2.7473976e-05
2.7475917e-05
2.747845e-05
2.7481869e-05
2.7488744e-05
2.7514021e-05
2.7627825e-05
2.8118369e-05
3.010146e-05
3.820687e-05
7.6449192e-05
0.00029450875
0.0017016307
2.5192577e-05
2.5193098e-05
2.5194246e-05
2.5196082e-05
2.5198442e-05
2.520167e-05
2.520887e-05
2.5237507e-05
2.5366478e-05
2.5909414e-05
2.805763e-05
3.6763308e-05
7.7693097e-05
0.0003035735
0.00165739
2.3181748e-05
2.3182245e-05
2.3183333e-05
2.3185048e-05
2.3187207e-05
2.3190219e-05
2.3197794e-05
2.323011e-05
2.3375184e-05
2.3973213e-05
2.6300284e-05
3.5692527e-05
7.9712907e-05
0.00031398658
0.0016142425
2.1399629e-05
2.14001e-05
2.140112e-05
2.1402697e-05
2.140463e-05
2.1407412e-05
2.1415452e-05
2.1451882e-05
2.1614405e-05
2.2271964e-05
2.4798652e-05
3.4989203e-05
8.2565442e-05
0.00032578296
0.0015735325
1.9813231e-05
1.9813672e-05
1.9814616e-05
1.981604e-05
1.9817725e-05
1.9820279e-05
1.9828922e-05
1.9870043e-05
2.0051847e-05
2.0775227e-05
2.3529325e-05
3.4654636e-05
8.6299521e-05
0.00033888748
0.0015360911
1.8395236e-05
1.8395645e-05
1.8396506e-05
1.8397761e-05
1.8399183e-05
1.8401531e-05
1.8410972e-05
1.8457531e-05
1.8660989e-05
1.9458432e-05
2.2474895e-05
3.4695971e-05
9.095345e-05
0.00035312607
0.0015023901
1.7122886e-05
1.7123259e-05
1.7124028e-05
1.7125102e-05
1.712625e-05
1.7128438e-05
1.7138942e-05
1.7191872e-05
1.7419954e-05
1.8301752e-05
2.1622992e-05
3.5125546e-05
9.6550687e-05
0.00036823944
0.0014726449
1.5977101e-05
1.5977436e-05
1.5978105e-05
1.5978984e-05
1.5979859e-05
1.598196e-05
1.5993865e-05
1.6054312e-05
1.6310628e-05
1.7289248e-05
2.0965619e-05
3.5960111e-05
0.00010309413
0.00038390222
0.0014468811
1.4941799e-05
1.4942091e-05
1.4942652e-05
1.4943329e-05
1.494394e-05
1.4946058e-05
1.4959787e-05
1.5029124e-05
1.5317979e-05
1.6408225e-05
2.049868e-05
3.7219755e-05
0.00011055991
0.00039974861
0.00142498
1.4003348e-05
1.4003595e-05
1.4004041e-05
1.4004511e-05
1.400488e-05
1.4007153e-05
1.402322e-05
1.4103071e-05
1.442952e-05
1.5648751e-05
2.0221625e-05
3.8926414e-05
0.00011889194
0.00041540307
0.0014067117
1.3150142e-05
1.315034e-05
1.3150665e-05
1.3150927e-05
1.315109e-05
1.3153695e-05
1.3172714e-05
1.3264971e-05
1.3634892e-05
1.5003284e-05
2.0137155e-05
4.1101901e-05
0.00012799852
0.0004305123
0.0013917631
1.2372247e-05
1.2372393e-05
1.2372592e-05
1.237265e-05
1.2372659e-05
1.2375814e-05
1.2398506e-05
1.2505359e-05
1.2925534e-05
1.446641e-05
2.0250947e-05
4.3765469e-05
0.00013775238
0.00044477369
0.0013797649
1.1661123e-05
1.1661215e-05
1.1661286e-05
1.166115e-05
1.1661074e-05
1.1665043e-05
1.1692246e-05
1.1816209e-05
1.2294425e-05
1.4034634e-05
2.0571326e-05
4.6930996e-05
0.00014799478
0.00045795585
0.0013703185
1.1009401e-05
1.1009437e-05
1.1009378e-05
1.1009066e-05
1.1008994e-05
1.101409e-05
1.104677e-05
1.1190715e-05
1.1735881e-05
1.3706238e-05
2.1108871e-05
5.0604014e-05
0.00015854368
0.00046990849
0.0013630208
1.0410692e-05
1.041067e-05
1.0410485e-05
1.0410022e-05
1.0410062e-05
1.0416652e-05
1.0455917e-05
1.0623112e-05
1.1245399e-05
1.3481165e-05
2.1875889e-05
5.4778859e-05
0.00016920526
0.00048056142
0.0013574861
9.8594384e-06
9.8593586e-06
9.8590515e-06
9.8584721e-06
9.8587577e-06
9.8672657e-06
9.9143754e-06
1.0108535e-05
1.0819533e-05
1.3360938e-05
2.2885735e-05
5.9436317e-05
0.00017978706
0.00048991474
0.001353362
9.3507874e-06
9.3506504e-06
9.3502304e-06
9.3495787e-06
9.3502669e-06
9.3611826e-06
9.4175684e-06
9.6428999e-06
1.045581e-05
1.3348574e-05
2.4151946e-05
6.4542152e-05
0.00019011095
0.00049802341
0.0013503406
8.8804873e-06
8.8802951e-06
8.8797751e-06
8.879106e-06
8.8803818e-06
8.8942644e-06
8.9615474e-06
9.2228179e-06
1.0152655e-05
1.3448503e-05
2.5687206e-05
7.0046824e-05
0.00020002406
0.00050498001
0.0013481619
8.4448007e-06
8.4445568e-06
8.4439543e-06
8.4433345e-06
8.4454129e-06
8.4628989e-06
8.5429123e-06
8.8455163e-06
9.9093487e-06
1.3666457e-05
2.7502143e-05
7.588662e-05
0.00020940613
0.0005108985
0.0013466143
8.0404324e-06
8.0401416e-06
8.0394792e-06
8.0389884e-06
8.0421174e-06
8.0639293e-06
8.1587433e-06
8.508784e-06
9.7259953e-06
1.4009323e-05
2.9604058e-05
8.1986182e-05
0.00021817297
0.00051590099
0.00134553
7.664468e-06
7.6641372e-06
7.663443e-06
7.6631755e-06
7.6676392e-06
7.6945949e-06
7.8065457e-06
8.2109262e-06
9.6034999e-06
1.4484935e-05
3.1995646e-05
8.8262228e-05
0.00022627582
0.0005201082
0.0013447796
7.3143234e-06
7.3139614e-06
7.3132697e-06
7.3133351e-06
7.319458e-06
7.3524816e-06
7.4842048e-06
7.950732e-06
9.5435554e-06
1.5101802e-05
3.4673864e-05
9.4628077e-05
0.00023369766
0.00052363336
0.0013442658
6.9877006e-06
6.9873184e-06
6.9866703e-06
6.9871959e-06
6.9953468e-06
7.0354818e-06
7.1899496e-06
7.7274515e-06
9.5486283e-06
1.5868742e-05
3.7629068e-05
0.00010099842
0.00024044745
0.0005265791
0.0013439174
6.6825513e-06
6.6821625e-06
6.6816065e-06
6.6827386e-06
6.6933357e-06
6.741759e-06
6.9223234e-06
7.5407805e-06
9.6219392e-06
1.6794438e-05
4.0844541e-05
0.00010729381
0.00024655353
0.00052903628
0.0013436835
6.3970453e-06
6.396666e-06
6.3962591e-06
6.3981651e-06
6.411682e-06
6.4697206e-06
6.6801611e-06
7.3908531e-06
9.7674314e-06
1.7886905e-05
4.4296529e-05
0.00011344428
0.00025205715
0.0005310841
0.0013435288
6.1295436e-06
6.129193e-06
6.129001e-06
6.1318719e-06
6.1488438e-06
6.2179935e-06
6.4625723e-06
7.2782395e-06
9.9897187e-06
1.9152894e-05
4.7954808e-05
0.00011939198
0.00025700691
0.00053279086
0.0013434301
5.8785752e-06
5.8782757e-06
5.8783746e-06
5.8824275e-06
5.903459e-06
5.9854055e-06
6.2689287e-06
7.2039479e-06
1.0294006e-05
2.0597266e-05
5.1783773e-05
0.00012509231
0.00026145423
0.00053421506
0.001343373
5.6428172e-06
5.642595e-06
5.6430719e-06
5.6485531e-06
5.6743264e-06
5.7709696e-06
6.0988564e-06
7.1694287e-06
1.0685974e-05
2.2222385e-05
5.5743958e-05
0.00013051409
0.00026545026
0.00053540648
0.0013433493
5.4210776e-06
5.4209629e-06
5.4219174e-06
5.4291059e-06
5.4603909e-06
5.5738715e-06
5.9522322e-06
7.1765788e-06
1.1171622e-05
2.402758e-05
5.9793837e-05
0.00013563849
0.00026904379
0.00053640726
0.0013433553
5.2122808e-06
5.2123081e-06
5.2138535e-06
5.2230651e-06
5.26073e-06
5.3934608e-06
5.8291825e-06
7.2277423e-06
1.1757062e-05
2.6008736e-05
6.3891721e-05
0.00014045746
0.00027228005
0.0005372529
0.0013433902
5.0154542e-06
5.0156629e-06
5.0179281e-06
5.0295196e-06
5.0745437e-06
5.2292435e-06
5.7300867e-06
7.3257059e-06
1.2448272e-05
2.8158069e-05
6.7997577e-05
0.00014497165
0.00027520025
0.00053797314
0.0013434553
4.8297171e-06
4.8301524e-06
4.8332834e-06
4.847658e-06
4.9011459e-06
5.0808782e-06
5.6555823e-06
7.4736833e-06
1.3250796e-05
3.046412e-05
7.2074576e-05
0.00014918835
0.0002778414
0.00053859275
0.0013435527
4.654271e-06
4.6549842e-06
4.6591465e-06
4.6767597e-06
4.739957e-06
4.9481738e-06
5.6065719e-06
7.6752861e-06
1.4169424e-05
3.2911987e-05
7.6090277e-05
0.00015311953
0.00028023648
0.00053913229
0.0013436849
4.4883913e-06
4.4894404e-06
4.4948214e-06
4.5161875e-06
4.5904991e-06
4.8310889e-06
5.5842316e-06
7.9344756e-06
1.5207849e-05
3.5483783e-05
8.001736e-05
0.00015678017
0.00028241474
0.00053960872
0.0013438547
4.3314193e-06
4.3328703e-06
4.3396818e-06
4.3653818e-06
4.452392e-06
4.7297343e-06
5.5900196e-06
8.2554924e-06
1.6368331e-05
3.8159287e-05
8.3833931e-05
0.00016018692
0.00028440196
0.00054003598
0.0013440645
4.1827562e-06
4.1846838e-06
4.1931653e-06
4.2238553e-06
4.3253508e-06
4.6443763e-06
5.6256833e-06
8.6427599e-06
1.7651409e-05
4.0916738e-05
8.7523431e-05
0.0001633571
0.00028622082
0.00054042549
0.0013443166
4.0418571e-06
4.0443457e-06
4.0547683e-06
4.0911891e-06
4.2091847e-06
4.5754417e-06
5.6932629e-06
9.1007598e-06
1.9055658e-05
4.3733689e-05
9.1074252e-05
0.00016630804
0.00028789122
0.00054078656
0.0013446125
3.9082261e-06
3.9113713e-06
3.9240414e-06
3.96703e-06
4.103797e-06
4.5235248e-06
5.7950908e-06
9.63388e-06
2.0577551e-05
4.6587858e-05
9.4479145e-05
0.00016905654
0.00028943059
0.00054112676
0.0013449537
3.781412e-06
3.7853219e-06
3.8005859e-06
3.8510876e-06
4.0091864e-06
4.4893953e-06
5.9337825e-06
1.0246237e-05
2.2211423e-05
4.9457894e-05
9.7734534e-05
0.00017161866
0.00029085416
0.00054145225
0.001345341
3.6610043e-06
3.6658014e-06
3.6840513e-06
3.7431338e-06
3.9254494e-06
4.4740067e-06
6.112218e-06
1.0941478e-05
2.3949549e-05
5.2324019e-05
0.0001008398
0.00017400949
0.00029217524
0.00054176796
0.0013457749
3.5466302e-06
3.5524531e-06
3.5741321e-06
3.6430016e-06
3.8527838e-06
4.4785051e-06
6.3335101e-06
1.1722579e-05
2.5782347e-05
5.5168497e-05
0.00010379664
0.00017624311
0.00029340545
0.0005420779
0.0013462555
3.4379516e-06
3.4449572e-06
3.470567e-06
3.5505856e-06
3.7914931e-06
4.5042378e-06
6.600958e-06
1.2591637e-05
2.7698674e-05
5.7975926e-05
0.00010660842
0.00017833256
0.00029455494
0.00054238527
0.0013467827
3.3346627e-06
3.3430286e-06
3.373137e-06
3.4658429e-06
3.7419925e-06
4.5527599e-06
6.9179828e-06
1.3549688e-05
2.9686212e-05
6.0733359e-05
0.00010927977
0.00018028983
0.00029563259
0.0005426926
0.0013473559
3.2364878e-06
3.2464154e-06
3.281665e-06
3.3887949e-06
3.7048153e-06
4.6258385e-06
7.2880458e-06
1.4596556e-05
3.1731893e-05
6.3430281e-05
0.00011181612
0.00018212594
0.00029664616
0.00054300193
0.0013479746
3.1431799e-06
3.1548974e-06
3.1960156e-06
3.3195298e-06
3.6806199e-06
4.7254525e-06
7.7145473e-06
1.5730748e-05
3.3822343e-05
6.6058472e-05
0.00011422341
0.00018385093
0.00029760243
0.00054331482
0.0013486377
3.0545192e-06
3.0682854e-06
3.1160958e-06
3.2582055e-06
3.6701987e-06
4.8537872e-06
8.2007102e-06
1.6949411e-05
3.5944307e-05
6.8611794e-05
0.00011650786
0.00018547399
0.00029850738
0.00054363252
0.0013493444
2.9703119e-06
2.9864203e-06
3.0418551e-06
3.2050543e-06
3.6744853e-06
5.0132201e-06
8.7494495e-06
1.8248352e-05
3.808502e-05
7.1085934e-05
0.0001186758
0.00018700345
0.00029936622
0.00054395596
0.0013500934
2.8903898e-06
2.9091733e-06
2.9732878e-06
3.1603869e-06
3.6945634e-06
5.2062989e-06
9.3632364e-06
1.9622127e-05
4.0232519e-05
7.347814e-05
0.00012073352
0.0001884469
0.00030018357
0.00054428585
0.0013508837
2.8146096e-06
2.836446e-06
2.9104344e-06
3.1245986e-06
3.7316742e-06
5.4357069e-06
1.0043962e-05
2.1064185e-05
4.2375865e-05
7.5786956e-05
0.0001226872
0.00018981123
0.00030096348
0.00054462272
0.0013517138
2.7428528e-06
2.7681709e-06
2.8533843e-06
3.098175e-06
3.7872218e-06
5.7042171e-06
1.0792811e-05
2.2567073e-05
4.4505289e-05
7.8011985e-05
0.0001245428
0.00019110268
0.00030170951
0.00054496688
0.0013525824
2.6750262e-06
2.7043127e-06
2.8022791e-06
3.0816992e-06
3.8627771e-06
6.0146322e-06
1.1610156e-05
2.4122667e-05
4.6612265e-05
8.0153676e-05
0.00012630606
0.00019232691
0.00030242478
0.00054531839
0.0013534883
2.6110622e-06
2.6448693e-06
2.7573159e-06
3.0758592e-06
3.9600781e-06
6.3697127e-06
1.2495478e-05
2.5722423e-05
4.8689513e-05
8.221315e-05
0.00012798248
0.00019348921
0.00030311294
0.00054567957
0.0013544297
2.5509198e-06
2.5898742e-06
2.718752e-06
3.0814556e-06
4.0810246e-06
6.7720925e-06
1.3447327e-05
2.7357634e-05
5.0730958e-05
8.4192045e-05
0.00012957728
0.00019459429
0.00030377606
0.00054604528
0.0013554047
2.494586e-06
2.5393984e-06
2.6869098e-06
3.0994093e-06
4.227667e-06
7.2241854e-06
1.4463312e-05
2.9019656e-05
5.2731641e-05
8.6092376e-05
0.00013109535
0.00019564632
0.00030441569
0.0005464139
0.0013564112
2.4420772e-06
2.4935535e-06
2.6621823e-06
3.130769e-06
4.402188e-06
7.7280856e-06
1.554015e-05
3.0700116e-05
5.4687618e-05
8.791643e-05
0.00013254128
0.000196649
0.00030503322
0.00054678543
0.0013574472
2.3934419e-06
2.452495e-06
2.6450394e-06
3.1767175e-06
4.6068748e-06
8.2854697e-06
1.6673732e-05
3.2391078e-05
5.6595851e-05
8.9666695e-05
0.00013391943
0.00019760622
0.00030563166
0.00054715687
0.0013585106
2.3487625e-06
2.4164266e-06
2.6360345e-06
3.238577e-06
4.8440818e-06
8.8975037e-06
1.7859248e-05
3.4085167e-05
5.8454098e-05
9.1345797e-05
0.00013523393
0.00019852132
0.00030621165
0.00054752775
0.0013595998
2.3081594e-06
2.3856041e-06
2.6358122e-06
3.3178115e-06
5.1161828e-06
9.5647627e-06
1.9091317e-05
3.5775657e-05
6.0260801e-05
9.2956423e-05
0.00013648855
0.00019939684
0.00030677282
0.00054789993
0.0013607133
2.2717941e-06
2.3603413e-06
2.6451155e-06
3.4160254e-06
5.4255134e-06
1.0287169e-05
2.0364144e-05
3.7456509e-05
6.201498e-05
9.4501263e-05
0.00013768673
0.00020023501
0.00030731585
0.0005482746
0.0013618502
2.2398737e-06
2.3410153e-06
2.6647934e-06
3.5349587e-06
5.7743036e-06
1.1063956e-05
2.1671679e-05
3.9122387e-05
6.3716144e-05
9.5983003e-05
0.00013883177
0.00020103828
0.00030784113
0.00054865303
0.0013630094
2.2126561e-06
2.3280734e-06
2.6958089e-06
3.6764753e-06
6.1646044e-06
1.1893653e-05
2.3007771e-05
4.0768649e-05
6.5364231e-05
9.7404378e-05
0.0001399271
0.00020180978
0.00030834739
0.00054903707
0.0013641905
2.1904555e-06
2.3220399e-06
2.7392449e-06
3.8425449e-06
6.5982093e-06
1.277411e-05
2.4366311e-05
4.2391314e-05
6.6959512e-05
9.8768006e-05
0.00014097537
0.0002025499
0.00030883706
0.0005494272
0.0013653929
2.1736491e-06
2.3235241e-06
2.7963107e-06
4.0352173e-06
7.0765771e-06
1.3702536e-05
2.5741352e-05
4.3987016e-05
6.8502521e-05
0.00010007635
0.0001419789
0.00020325983
0.000309312
0.0005498233
0.0013666158
2.1626844e-06
2.3332283e-06
2.8683445e-06
4.2565873e-06
7.6007582e-06
1.4675574e-05
2.7127208e-05
4.5552952e-05
6.9993988e-05
0.00010133173
0.0001429398
0.0002039411
0.00030977371
0.00055022514
0.0013678584
2.1580871e-06
2.3519561e-06
2.9568143e-06
4.5087511e-06
8.1713313e-06
1.5689389e-05
2.8518531e-05
4.7086844e-05
7.1434913e-05
0.00010253686
0.0001438616
0.00020459279
0.00031022406
0.00055063284
0.0013691198
2.1604701e-06
2.3806212e-06
3.0633145e-06
4.7937544e-06
8.7883536e-06
1.673977e-05
2.9910366e-05
4.8586876e-05
7.2826383e-05
0.00010369386
0.00014474507
0.00020521733
0.00031066412
0.0005510465
0.0013703992
2.1705428e-06
2.4202555e-06
3.1895571e-06
5.1135327e-06
9.451329e-06
1.7822237e-05
3.1298173e-05
5.0051626e-05
7.4169515e-05
0.00010480458
0.00014559154
0.0002058168
0.00031109462
0.00055146602
0.0013716959
2.1891217e-06
2.4720161e-06
3.3373572e-06
5.4698463e-06
1.0159198e-05
1.8932151e-05
3.2677843e-05
5.1480007e-05
7.5465441e-05
0.00010587076
0.00014640259
0.00020639299
0.00031151615
0.00055189117
0.0013730091
2.2171401e-06
2.5371909e-06
3.5086103e-06
5.8642132e-06
1.0910345e-05
2.0064816e-05
3.4045709e-05
5.2871319e-05
7.6715737e-05
0.00010689538
0.00014717789
0.00020694774
0.00031192943
0.00055232172
0.0013743378
2.255659e-06
2.6172022e-06
3.7052628e-06
6.297842e-06
1.1702635e-05
2.1215569e-05
3.5398525e-05
5.4225088e-05
7.792158e-05
0.00010787909
0.00014791982
0.00020748239
0.00031233508
0.00055275743
0.0013756814
2.3058769e-06
2.713606e-06
3.9292726e-06
6.7715712e-06
1.2533456e-05
2.2379858e-05
3.6733433e-05
5.5541004e-05
7.9084021e-05
0.00010882309
0.00014863041
0.00020799806
0.00031273357
0.00055319805
0.0013770389
2.369138e-06
2.828087e-06
4.1825623e-06
7.2858161e-06
1.3399787e-05
2.3553303e-05
3.8047955e-05
5.6819018e-05
8.0204472e-05
0.00010972822
0.00014931153
0.00020849575
0.00031312527
0.00055364329
0.0013784095
2.4469391e-06
2.9624477e-06
4.4669646e-06
7.8405296e-06
1.4298275e-05
2.4731752e-05
3.9339992e-05
5.8059346e-05
8.1284511e-05
0.00011059504
0.00014996484
0.00020897649
0.00031351053
0.00055409283
0.0013797924
2.5409324e-06
3.1185896e-06
4.7841615e-06
8.4351771e-06
1.5225307e-05
2.5911302e-05
4.060772e-05
5.9262059e-05
8.2324541e-05
0.00011142558
0.00015059175
0.00020944117
0.00031388962
0.00055454636
0.0013811868
2.6529239e-06
3.2984864e-06
5.135621e-06
9.0687299e-06
1.6177096e-05
2.7088315e-05
4.184955e-05
6.0427247e-05
8.3325351e-05
0.0001122216
0.00015119351
0.00020989055
0.00031426278
0.00055500357
0.0013825919
2.7848641e-06
3.504148e-06
5.5225331e-06
9.7396763e-06
1.7149761e-05
2.8259478e-05
4.3064394e-05
6.1556083e-05
8.4286629e-05
0.00011298476
0.00015177132
0.00021032534
0.0003146302
0.00055546411
0.0013840068
2.9388319e-06
3.737574e-06
5.9457497e-06
1.0446049e-05
1.8139391e-05
2.9421742e-05
4.4251132e-05
6.2648244e-05
8.5209855e-05
0.00011371648
0.00015232629
0.00021074616
0.00031499203
0.00055592766
0.0013854307
3.1170063e-06
4.0006993e-06
6.4057323e-06
1.1185463e-05
1.9142099e-05
3.0572292e-05
4.5408715e-05
6.3703713e-05
8.6096471e-05
0.00011441803
0.00015285943
0.00021115358
0.0003153484
0.00055639387
0.0013868629
3.3216267e-06
4.2953313e-06
6.9025109e-06
1.1955181e-05
2.0154113e-05
3.1708763e-05
4.6537109e-05
6.4721733e-05
8.6947803e-05
0.00011509065
0.00015337162
0.00021154809
0.00031569938
0.0005568624
0.0013883025
3.55494e-06
4.6230817e-06
7.4356571e-06
1.2752162e-05
2.1171768e-05
3.2828859e-05
4.763517e-05
6.5702976e-05
8.7765036e-05
0.00011573548
0.00015386371
0.00021193015
0.00031604505
0.0005573329
0.0013897488
3.8191341e-06
4.9852962e-06
8.0042722e-06
1.3573129e-05
2.2191544e-05
3.3930514e-05
4.8701819e-05
6.6648275e-05
8.8549266e-05
0.00011635356
0.00015433643
0.00021230015
0.00031638543
0.00055780504
0.001391201
4.1162601e-06
5.3829871e-06
8.6069972e-06
1.4414663e-05
2.321022e-05
3.5012448e-05
4.9735629e-05
6.7558396e-05
8.9301543e-05
0.00011694585
0.00015479049
0.00021265842
0.00031672053
0.00055827844
0.0013926582
4.4481441e-06
5.8167705e-06
9.2420303e-06
1.5273214e-05
2.4224573e-05
3.6072356e-05
5.0736567e-05
6.8434046e-05
9.0022851e-05
0.00011751324
0.00015522649
0.00021300528
0.00031705033
0.00055875276
0.0013941199
4.8162958e-06
6.2868179e-06
9.9071804e-06
1.6145284e-05
2.5232104e-05
3.7107747e-05
5.1704608e-05
6.9275914e-05
9.07141e-05
0.00011805653
0.00015564498
0.00021334097
0.00031737479
0.00055922764
0.0013955852
5.2218179e-06
6.7928166e-06
1.0599896e-05
1.7027292e-05
2.622974e-05
3.8117088e-05
5.2639747e-05
7.0084667e-05
9.1376138e-05
0.00011857646
0.00015604648
0.00021366571
0.00031769385
0.0005597027
0.0013970533
5.6653269e-06
7.3339639e-06
1.1317402e-05
1.7916115e-05
2.7213967e-05
3.9099268e-05
5.3542025e-05
7.0860938e-05
9.2009747e-05
0.00011907371
0.00015643141
0.00021397969
0.00031800743
0.00056017757
0.0013985236
6.1468883e-06
7.9089654e-06
1.2056709e-05
1.8808003e-05
2.8182081e-05
4.0053291e-05
5.4411511e-05
7.1605324e-05
9.2615647e-05
0.00011954888
0.00015680017
0.00021428304
0.00031831541
0.00056065186
0.0013999952
6.6659879e-06
8.5161047e-06
1.2814831e-05
1.9698929e-05
2.9131793e-05
4.0978286e-05
5.5248302e-05
7.2318385e-05
9.3194496e-05
0.00012000253
0.0001571531
0.00021457588
0.00031861766
0.00056112517
0.0014014675
7.2215956e-06
9.1533522e-06
1.3587896e-05
2.0585511e-05
3.0061015e-05
4.1873486e-05
5.6052508e-05
7.3000642e-05
9.3746892e-05
0.00012043513
0.0001574905
0.00021485826
0.00031891404
0.0005615971
0.0014029396
7.8119797e-06
9.8178426e-06
1.4372239e-05
2.1464571e-05
3.096786e-05
4.2738226e-05
5.6824252e-05
7.3652576e-05
9.4273376e-05
0.00012084712
0.0001578126
0.00021513024
0.00031920438
0.00056206723
0.0014044108
8.4346855e-06
1.0506371e-05
1.5164208e-05
2.233314e-05
3.1850626e-05
4.3571927e-05
5.756366e-05
7.4274627e-05
9.4774433e-05
0.00012123887
0.0001581196
0.00021539181
0.00031948848
0.00056253512
0.0014058803
9.0866924e-06
1.1215438e-05
1.5960218e-05
2.3188479e-05
3.2707795e-05
4.4374095e-05
5.8270863e-05
7.4867197e-05
9.5250493e-05
0.00012161071
0.00015841167
0.00021564295
0.00031976612
0.00056300033
0.0014073472
9.7645039e-06
1.1941333e-05
1.6756799e-05
2.4028077e-05
3.3538027e-05
4.5144314e-05
5.8945994e-05
7.5430648e-05
9.5701934e-05
0.00012196292
0.00015868893
0.00021588361
0.00032003706
0.00056346238
0.0014088108
1.0464253e-05
1.2680215e-05
1.7550628e-05
2.4849664e-05
3.4340156e-05
4.5882244e-05
5.9589191e-05
7.596531e-05
9.6129088e-05
0.00012229572
0.00015895144
0.00021611369
0.00032030106
0.00056392081
0.00141027
1.1181814e-05
1.3428193e-05
1.8338561e-05
2.5651202e-05
3.5113183e-05
4.6587619e-05
6.0200598e-05
7.6471481e-05
9.653224e-05
0.0001226093
0.00015919925
0.00021633308
0.00032055782
0.00056437512
0.0014117241
1.1912915e-05
1.41814e-05
1.9117661e-05
2.6430894e-05
3.5856273e-05
4.726025e-05
6.0780365e-05
7.694943e-05
9.6911637e-05
0.00012290379
0.00015943237
0.00021654164
0.00032080706
0.00056482478
0.001413172
1.2653249e-05
1.4936064e-05
1.9885209e-05
2.7187171e-05
3.6568753e-05
4.7900021e-05
6.132866e-05
7.7399406e-05
9.7267487e-05
0.0001231793
0.00015965076
0.00021673919
0.00032104843
0.00056526926
0.0014146126
1.3398567e-05
1.5688561e-05
2.0638721e-05
2.7918689e-05
3.7250105e-05
4.8506898e-05
6.1845666e-05
7.7821642e-05
9.7599969e-05
0.00012343591
0.00015985436
0.00021692554
0.00032128161
0.00056570802
0.0014160451
1.4144766e-05
1.6435469e-05
2.1375954e-05
2.8624322e-05
3.7899963e-05
4.9080921e-05
6.233159e-05
7.8216362e-05
9.7909237e-05
0.00012367365
0.0001600431
0.00021710048
0.00032150623
0.00056614048
0.0014174681
1.4887955e-05
1.7173601e-05
2.2094906e-05
2.9303151e-05
3.8518102e-05
4.9622214e-05
6.278667e-05
7.8583785e-05
9.8195426e-05
0.00012389254
0.00016021686
0.00021726376
0.00032172191
0.00056656606
0.0014188807
1.5624512e-05
1.790004e-05
2.2793822e-05
2.9954454e-05
3.910444e-05
5.0130978e-05
6.3211177e-05
7.8924136e-05
9.8458658e-05
0.00012409258
0.0001603755
0.00021741513
0.00032192827
0.00056698415
0.0014202814
1.6351119e-05
1.8612151e-05
2.3471183e-05
3.0577691e-05
3.9659021e-05
5.0607496e-05
6.3605422e-05
7.923765e-05
9.869905e-05
0.00012427376
0.0001605189
0.00021755432
0.0003221249
0.00056739414
0.0014216692
1.7064789e-05
1.9307593e-05
2.4125703e-05
3.1172495e-05
4.0182013e-05
5.1052131e-05
6.3969756e-05
7.9524578e-05
9.891672e-05
0.00012443605
0.00016064689
0.00021768105
0.00032231138
0.0005677954
0.0014230426
1.7762877e-05
1.9984322e-05
2.4756318e-05
3.1738657e-05
4.0673695e-05
5.1465319e-05
6.4304582e-05
7.9785197e-05
9.9111793e-05
0.00012457945
0.00016075933
0.00021779504
0.0003224873
0.00056818729
0.0014244003
1.8443082e-05
2.0640589e-05
2.5362177e-05
3.2276114e-05
4.1134452e-05
5.1847572e-05
6.4610346e-05
8.001981e-05
9.9284411e-05
0.00012470392
0.00016085604
0.00021789601
0.00032265224
0.00056856919
0.0014257409
1.9103438e-05
2.1274925e-05
2.5942628e-05
3.2784933e-05
4.1564757e-05
5.219947e-05
6.4887547e-05
8.0228753e-05
9.9434732e-05
0.00012480947
0.00016093689
0.00021798367
0.00032280578
0.00056894044
0.001427063
1.9742304e-05
2.1886133e-05
2.6497205e-05
3.3265303e-05
4.1965171e-05
5.2521657e-05
6.5136733e-05
8.0412401e-05
9.9562944e-05
0.0001248961
0.00016100175
0.00021805777
0.00032294753
0.00056930041
0.001428365
2.0358346e-05
2.2473266e-05
2.7025611e-05
3.3717517e-05
4.2336325e-05
5.2814836e-05
6.5358499e-05
8.0571166e-05
9.9669262e-05
0.00012496387
0.00016105048
0.00021811804
0.00032307709
0.00056964849
0.0014296455
2.0950511e-05
2.3035616e-05
2.7527707e-05
3.4141964e-05
4.2678914e-05
5.3079761e-05
6.5553489e-05
8.0705502e-05
9.9753939e-05
0.00012501283
0.00016108301
0.00021816427
0.00032319409
0.00056998407
0.001430903
2.1518011e-05
2.3572685e-05
2.8003498e-05
3.4539115e-05
4.2993688e-05
5.3317233e-05
6.5722389e-05
8.0815905e-05
9.9817263e-05
0.00012504308
0.00016109928
0.00021819624
0.00032329819
0.00057030656
0.001432136
2.2060292e-05
2.4084175e-05
2.8453114e-05
3.4909514e-05
4.328144e-05
5.352809e-05
6.5865928e-05
8.0902912e-05
9.9859564e-05
0.00012505477
0.00016109925
0.0002182138
0.00032338908
0.00057061541
0.0014333429
2.2577014e-05
2.4569957e-05
2.8876798e-05
3.5253765e-05
4.3543001e-05
5.3713205e-05
6.5984871e-05
8.0967102e-05
9.9881213e-05
0.00012504807
0.00016108294
0.00021821682
0.00032346649
0.00057091012
0.0014345224
2.3068025e-05
2.503006e-05
2.9274892e-05
3.5572527e-05
4.3779231e-05
5.3873476e-05
6.6080014e-05
8.1009091e-05
9.9882626e-05
0.00012502321
0.00016105041
0.00021820522
0.00032353019
0.0005711902
0.0014356729
2.3533339e-05
2.5464649e-05
2.9647826e-05
3.5866498e-05
4.3991009e-05
5.4009822e-05
6.6152184e-05
8.1029534e-05
9.9864258e-05
0.00012498045
0.00016100176
0.00021817895
0.00032358001
0.00057145522
0.0014367931
2.3973115e-05
2.5874005e-05
2.9996103e-05
3.6136415e-05
4.4179234e-05
5.4123175e-05
6.620223e-05
8.102912e-05
9.982661e-05
0.00012492011
0.00016093716
0.00021813804
0.00032361582
0.00057170483
0.0014378817
2.4387633e-05
2.625851e-05
3.0320288e-05
3.6383041e-05
4.434481e-05
5.4214477e-05
6.623102e-05
8.1008568e-05
9.9770219e-05
0.00012484256
0.0001608568
0.00021808256
0.00032363756
0.0005719387
0.0014389372
2.4777284e-05
2.6618635e-05
3.0621001e-05
3.660716e-05
4.4488647e-05
5.4284674e-05
6.6239435e-05
8.0968624e-05
9.9695666e-05
0.0001247482
0.00016076095
0.00021801263
0.00032364521
0.0005721566
0.0014399587
2.5142542e-05
2.695492e-05
3.0898901e-05
3.6809573e-05
4.4611656e-05
5.4334712e-05
6.6228369e-05
8.0910058e-05
9.9603563e-05
0.00012463748
0.00016064991
0.00021792844
0.00032363883
0.00057235833
0.0014409448
2.5483959e-05
2.7267964e-05
3.1154685e-05
3.6991088e-05
4.4714741e-05
5.4365531e-05
6.6198719e-05
8.0833661e-05
9.949456e-05
0.00012451091
0.00016052405
0.00021783023
0.00032361854
0.00057254378
0.0014418947
2.5802144e-05
2.7558417e-05
3.1389074e-05
3.7152519e-05
4.4798801e-05
5.4378066e-05
6.6151386e-05
8.0740239e-05
9.9369332e-05
0.00012436903
0.00016038379
0.00021771831
0.00032358451
0.00057271292
0.0014428075
2.6097757e-05
2.7826963e-05
3.1602809e-05
3.7294683e-05
4.4864722e-05
5.4373238e-05
6.6087268e-05
8.0630611e-05
9.9228586e-05
0.00012421242
0.00016022958
0.00021759302
0.00032353699
0.00057286577
0.0014436823
2.6371493e-05
2.8074318e-05
3.1796643e-05
3.741839e-05
4.4913378e-05
5.4351957e-05
6.6007259e-05
8.0505605e-05
9.9073048e-05
0.0001240417
0.00016006194
0.00021745479
0.00032347629
0.00057300243
0.0014445185
2.6624076e-05
2.8301215e-05
3.1971339e-05
3.7524447e-05
4.4945629e-05
5.4315115e-05
6.5912245e-05
8.0366054e-05
9.8903466e-05
0.0001238575
0.00015988141
0.00021730407
0.00032340277
0.00057312306
0.0014453155
2.685625e-05
2.8508406e-05
3.2127662e-05
3.7613652e-05
4.4962315e-05
5.4263587e-05
6.5803101e-05
8.0212792e-05
9.8720603e-05
0.00012366052
0.00015968859
0.00021714137
0.00032331683
0.0005732279
0.001446073
2.7068772e-05
2.8696647e-05
3.2266377e-05
3.768679e-05
4.4964259e-05
5.4198231e-05
6.568069e-05
8.0046652e-05
9.8525235e-05
0.00012345144
0.00015948411
0.00021696726
0.00032321896
0.00057331724
0.0014467906
2.7262405e-05
2.8866699e-05
3.2388243e-05
3.7744636e-05
4.4952265e-05
5.4119881e-05
6.5545859e-05
7.9868465e-05
9.8318144e-05
0.00012323101
0.00015926863
0.00021678232
0.00032310967
0.00057339145
0.0014474681
2.7437915e-05
2.9019321e-05
3.2494012e-05
3.7787946e-05
4.4927116e-05
5.4029351e-05
6.539944e-05
7.9679052e-05
9.8100119e-05
0.00012299994
0.00015904282
0.00021658718
0.00032298952
0.00057345093
0.0014481057
2.7596066e-05
2.9155267e-05
3.2584427e-05
3.7817463e-05
4.4889574e-05
5.3927434e-05
6.5242245e-05
7.9479225e-05
9.7871952e-05
0.000122759
0.0001588074
0.00021638251
0.0003228591
0.00057349614
0.0014487033
2.7737612e-05
2.9275284e-05
3.2660217e-05
3.7833912e-05
4.4840379e-05
5.3814897e-05
6.5075069e-05
7.9269787e-05
9.7634429e-05
0.00012250895
0.0001585631
0.00021616899
0.00032271904
0.00057352759
0.0014492612
2.7863303e-05
2.9380105e-05
3.27221e-05
3.7838001e-05