/*--------------------------------*- C++ -*----------------------------------*\
| =========                 |                                                 |
| \\      /  F ield         | OpenFOAM: The Open Source CFD Toolbox           |
|  \\    /   O peration     | Version:  2506                                  |
|   \\  /    A nd           | Website:  www.openfoam.com                      |
|    \\/     M anipulation  |                                                 |
\*---------------------------------------------------------------------------*/
FoamFile
{
    version     2.0;
    format      ascii;
    arch        "LSB;label=32;scalar=64";
    class       volScalarField;
    location    "10000/water";
    object      k;
}
// * * * * * * * * * * * * * * * * * * * * * * * * * * * * * * * * * * * * * //

dimensions      [0 2 -2 0 0 0 0];

internalField   nonuniform List<scalar> 
6000
(
0.0002144485
0.00021444827
0.00021444833
0.00021444852
0.00021444878
0.00021444911
0.00021444953
0.00021445001
0.00021445038
0.00021444961
0.00021444477
0.00021444847
0.00021482328
0.00022098609
0.00033298785
0.00019735372
0.00019735408
0.00019735481
0.00019735601
0.00019735759
0.00019735962
0.00019736212
0.0001973649
0.00019736678
0.00019736231
0.00019733424
0.0001972933
0.00019808165
0.00021190706
0.00042108833
0.00018260526
0.00018260625
0.00018260756
0.00018260957
0.0001826122
0.00018261554
0.00018261945
0.00018262311
0.00018262253
0.00018260174
0.00018251429
0.00018235696
0.00018354965
0.00020571076
0.0004915993
0.00016977104
0.00016977195
0.00016977358
0.00016977617
0.00016977959
0.00016978384
0.00016978847
0.00016979119
0.00016978242
0.00016972799
0.0001695392
0.00016920344
0.00017083025
0.00020141509
0.00054314021
0.00015851703
0.00015851791
0.00015851979
0.00015852287
0.0001585269
0.00015853173
0.00015853623
0.00015853548
0.0001585108
0.00015840225
0.00015807228
0.00015752308
0.00015966967
0.00019844232
0.00057747636
0.00014858047
0.00014858142
0.00014858351
0.00014858695
0.00014859139
0.00014859636
0.00014859955
0.0001485919
0.00014854197
0.00014835849
0.00014785779
0.00014709963
0.00014993181
0.00019659445
0.00059772639
0.00013975169
0.00013975271
0.00013975496
0.00013975864
0.00013976325
0.00013976781
0.00013976817
0.00013974945
0.00013966425
0.0001393877
0.00013870223
0.00013778194
0.00014154644
0.00019585229
0.00060724748
0.00013186192
0.00013186298
0.00013186534
0.00013186914
0.00013187366
0.00013187713
0.00013187282
0.00013183836
0.00013170812
0.00013132527
0.00013045854
0.00012946164
0.00013447268
0.00019626303
0.00060905754
0.00012477404
0.00012477514
0.00012477755
0.00012478136
0.00012478548
0.00012478703
0.00012477592
0.00012472085
0.00012453699
0.00012404097
0.00012301362
0.00012205827
0.00012868159
0.00019789321
0.0006056161
0.00011837572
0.00011837682
0.00011837924
0.0001183829
0.00011838626
0.00011838492
0.00011836468
0.00011828424
0.00011804014
0.00011743108
0.00011627928
0.00011550993
0.00012414935
0.00020080676
0.00059880682
0.0001125741
0.0001125752
0.00011257756
0.00011258091
0.00011258305
0.00011257774
0.00011254594
0.00011243584
0.00011212738
0.0001114124
0.00011018555
0.00010976786
0.00012085593
0.00020505367
0.00059001308
0.00010729189
0.00010729297
0.0001072952
0.00010729803
0.00010729845
0.00010728799
0.00010724223
0.00010709893
0.00010672477
0.00010591759
0.00010467621
0.00010479348
0.00011878602
0.00021066301
0.00058022149
0.0001024643
0.00010246533
0.00010246733
0.00010246942
0.00010246756
0.00010245071
0.00010238875
0.00010220964
0.0001017714
0.00010089174
9.9705638e-05
0.000100557
0.00011793046
0.00021763683
0.00057012062
9.8036637e-05
9.8037572e-05
9.8039255e-05
9.8040328e-05
9.8035582e-05
9.8011091e-05
9.7930966e-05
9.7714594e-05
9.7216801e-05
9.6289669e-05
9.5236719e-05
9.703687e-05
0.00011828673
0.00022594366
0.0005601824
9.3962451e-05
9.3963259e-05
9.3964497e-05
9.3964262e-05
9.3955981e-05
9.3922652e-05
9.3822751e-05
9.3568903e-05
9.3018884e-05
9.2074025e-05
9.1239503e-05
9.4219615e-05
0.00011985802
0.00023551194
0.0005507241
9.0202076e-05
9.020271e-05
9.0203366e-05
9.0201504e-05
9.0189027e-05
9.0145749e-05
9.0024925e-05
8.9734681e-05
8.914241e-05
8.8213812e-05
8.7690325e-05
9.20998e-05
0.00012265037
0.00024622465
0.00054195294
8.6721448e-05
8.6721856e-05
8.6721775e-05
8.6717945e-05
8.6700619e-05
8.664642e-05
8.6504047e-05
8.61798e-05
8.5557736e-05
8.4683334e-05
8.4571272e-05
9.0679902e-05
0.00012666793
0.00025791693
0.00053399692
8.3491166e-05
8.3491287e-05
8.3490304e-05
8.3484151e-05
8.3461349e-05
8.3395437e-05
8.3231463e-05
8.2876915e-05
8.2239851e-05
8.1461425e-05
8.1869885e-05
8.9969913e-05
0.00013190642
0.00027037857
0.00052692519
8.0485733e-05
8.0485502e-05
8.0483437e-05
8.0474603e-05
8.0445747e-05
8.0367548e-05
8.018253e-05
7.9802669e-05
7.9167636e-05
7.8530889e-05
7.9578989e-05
8.9986538e-05
0.00013834557
0.00028336255
0.00052076146
7.7682937e-05
7.7682283e-05
7.767895e-05
7.7667083e-05
7.7631664e-05
7.7540855e-05
7.7335982e-05
7.6937064e-05
7.6323276e-05
7.5878109e-05
7.7696612e-05
9.0751816e-05
0.00014594134
0.00029659939
0.00051549302
7.5063349e-05
7.5062196e-05
7.5057404e-05
7.5042167e-05
7.4999765e-05
7.4896302e-05
7.4673418e-05
7.4262946e-05
7.369182e-05
7.3492783e-05
7.6225917e-05
9.229105e-05
0.00015461944
0.000309816
0.00051107779
7.2609902e-05
7.2608172e-05
7.260173e-05
7.2582813e-05
7.2533118e-05
7.2417256e-05
7.2178869e-05
7.1765596e-05
7.1260831e-05
7.1367745e-05
7.5175079e-05
9.4629939e-05
0.00016427135
0.00032275576
0.00050745065
7.0307551e-05
7.0305165e-05
7.0296888e-05
7.0274015e-05
7.0216842e-05
7.0089161e-05
6.9838457e-05
6.94324e-05
6.9020131e-05
6.949887e-05
7.4557053e-05
9.7790947e-05
0.00017475428
0.00033519669
0.00050453001
6.8142984e-05
6.8139863e-05
6.8129574e-05
6.8102519e-05
6.8037823e-05
6.7899244e-05
6.7640104e-05
6.7252585e-05
6.6961603e-05
6.7885016e-05
7.438916e-05
0.00010178904
0.0001858954
0.00034696444
0.00050222457
6.6104382e-05
6.6100451e-05
6.608799e-05
6.6056581e-05
6.5984475e-05
6.5836276e-05
6.5573296e-05
6.5217006e-05
6.5079053e-05
6.6528011e-05
7.4692423e-05
0.00010662718
0.00019750038
0.00035793856
0.00050043991
6.418122e-05
6.4176406e-05
6.4161633e-05
6.4125766e-05
6.4046535e-05
6.3890369e-05
6.3628889e-05
6.3317981e-05
6.3368113e-05
6.5432644e-05
7.5490606e-05
0.00011229203
0.00020936499
0.00036805173
0.00049908424
6.2364094e-05
6.2358333e-05
6.2341135e-05
6.230078e-05
6.2214894e-05
6.2052808e-05
6.1798947e-05
6.1549161e-05
6.182618e-05
6.4606648e-05
7.680889e-05
0.00011875054
0.00022128816
0.00037728353
0.00049807291
6.064458e-05
6.0637817e-05
6.0618111e-05
6.0573325e-05
6.0481451e-05
6.031591e-05
6.0076617e-05
5.9905429e-05
6.045239e-05
6.4060643e-05
7.8672186e-05
0.00012594803
0.00023308444
0.00038565069
0.00049733132
5.9015114e-05
5.9007302e-05
5.8985044e-05
5.8935977e-05
5.8838997e-05
5.8672904e-05
5.8456016e-05
5.8382826e-05
5.9247607e-05
6.380802e-05
8.1103079e-05
0.00013380822
0.00024459408
0.00039319634
0.00049679626
5.746888e-05
5.745999e-05
5.7435175e-05
5.7382083e-05
5.7281105e-05
5.7117831e-05
5.6932149e-05
5.6978499e-05
5.8214438e-05
6.3864707e-05
8.4119511e-05
0.00014223537
0.0002556896
0.00039997992
0.00049641599
5.599973e-05
5.5989745e-05
5.596242e-05
5.590567e-05
5.5802046e-05
5.5645466e-05
5.5500841e-05
5.5690668e-05
5.7357258e-05
6.424881e-05
8.773233e-05
0.00015111851
0.00026627829
0.00040606903
0.00049614946
5.4602101e-05
5.4591025e-05
5.4561286e-05
5.4501369e-05
5.4396714e-05
5.4251246e-05
5.4158685e-05
5.4518612e-05
5.6682234e-05
6.4980079e-05
9.1942942e-05
0.00016033718
0.00027630116
0.00041153336
0.00049596497
5.3270953e-05
5.3258808e-05
5.3226813e-05
5.3164353e-05
5.3060564e-05
5.2931212e-05
5.2903001e-05
5.3462663e-05
5.6197343e-05
6.6079181e-05
9.6741327e-05
0.00016976802
0.00028572901
0.00041644086
0.00049583865
5.2001708e-05
5.198854e-05
5.1954511e-05
5.1890276e-05
5.1789556e-05
5.1681971e-05
5.1731808e-05
5.2524225e-05
5.5912363e-05
6.7566765e-05
0.00010210472
0.00017929137
0.00029455685
0.00042085544
0.00049575298
5.0790203e-05
5.0776083e-05
5.0740313e-05
5.067523e-05
5.0580113e-05
5.050065e-05
5.0643813e-05
5.1705788e-05
5.5838828e-05
6.946233e-05
0.00010799714
0.00018879709
0.00030279789
0.00042483586
0.00049569544
4.9632648e-05
4.9617675e-05
4.9580534e-05
4.9515698e-05
4.942908e-05
4.9384875e-05
4.9638394e-05
5.1010966e-05
5.5989917e-05
7.1782919e-05
0.00011437
0.00019818901
0.00031047772
0.00042843533
0.0004956574
4.8525586e-05
4.8509888e-05
4.8471831e-05
4.8408525e-05
4.8333699e-05
4.8332748e-05
4.8715611e-05
5.0444524e-05
5.6380275e-05
7.4541724e-05
0.0001211637
0.00020738764
0.00031762941
0.00043170149
0.00049563313
4.7465859e-05
4.74496e-05
4.7411173e-05
4.7350883e-05
4.7291577e-05
4.7342831e-05
4.7876206e-05
5.0012417e-05
5.7025719e-05
7.7746676e-05
0.00012831013
0.00021633121
0.00032428981
0.00043467666
0.00049561908
4.6450583e-05
4.6433963e-05
4.6395814e-05
4.6340247e-05
4.6300671e-05
4.641414e-05
4.7121628e-05
4.9721816e-05
5.7942846e-05
8.1399162e-05
0.00013573578
0.00022497509
0.00033049681
0.00043739816
0.00049561324
4.5477121e-05
4.5460379e-05
4.5423267e-05
4.5374375e-05
4.5359268e-05
4.5546142e-05
4.6454049e-05
4.9581125e-05
5.9148506e-05
8.5493014e-05
0.00014336521
0.00023329014
0.00033628764
0.00043989866
0.00049561471
4.4543061e-05
4.4526479e-05
4.4491284e-05
4.4451289e-05
4.446598e-05
4.4738756e-05
4.5876394e-05
4.9599965e-05
6.0659157e-05
9.0013878e-05
0.0001511244
0.00024126036
0.00034169779
0.00044220662
0.00049562332
4.3646195e-05
4.3630105e-05
4.359784e-05
4.3569259e-05
4.3619731e-05
4.3992365e-05
4.5392377e-05
4.9789137e-05
6.2490098e-05
9.4939087e-05
0.0001589437
0.0002488802
0.00034676053
0.00044434669
0.00049563933
4.2784505e-05
4.2769292e-05
4.2741115e-05
4.2726796e-05
4.2819756e-05
4.3307822e-05
4.500653e-05
5.0160522e-05
6.4654625e-05
0.00010023808
0.00016676014
0.00025615208
0.00035150662
0.00044634015
0.00049566327
4.1956147e-05
4.1942252e-05
4.1919486e-05
4.1922641e-05
4.2065604e-05
4.2686474e-05
4.4724243e-05
5.0726937e-05
6.7163136e-05
0.00010587334
0.00017451902
0.00026308404
0.00035596429
0.00044820532
0.00049569579
4.1159436e-05
4.1147367e-05
4.1131511e-05
4.1155759e-05
4.1357137e-05
4.2130176e-05
4.4551789e-05
5.1501908e-05
7.0022258e-05
0.00011180181
0.00018217462
0.00026968791
0.00036015927
0.00044995794
0.00049573755
4.039284e-05
4.0383173e-05
4.0375928e-05
4.0425336e-05
4.0694538e-05
4.1641323e-05
4.4496353e-05
5.2499371e-05
7.3234068e-05
0.00011797662
0.00018969028
0.00027597788
0.00036411492
0.00045161149
0.00049578915
3.9654963e-05
3.9648355e-05
3.9651641e-05
3.9730781e-05
4.0078323e-05
4.1222873e-05
4.4566032e-05
5.3733287e-05
7.6795474e-05
0.00012434898
0.0001970379
0.00028196941
0.00036785238
0.00045317757
0.00049585113
3.8944544e-05
3.8941738e-05
3.8957721e-05
3.9071722e-05
3.9509355e-05
4.0878379e-05
4.4769832e-05
5.5217175e-05
8.0697848e-05
0.00013087003
0.000204197
0.0002876785
0.00037139068
0.00045466611
0.0004959239
3.8260447e-05
3.8262283e-05
3.8293404e-05
3.8448018e-05
3.8988856e-05
4.0612025e-05
4.5117615e-05
5.6963573e-05
8.4926937e-05
0.00013749257
0.0002111537
0.00029312119
0.00037474696
0.00045608565
0.00049600779
3.7601653e-05
3.7609082e-05
3.7658086e-05
3.7859757e-05
3.851843e-05
4.0428653e-05
4.5620031e-05
5.8983448e-05
8.9463099e-05
0.00014417247
0.00021789951
0.00029831319
0.00037793661
0.00045744356
0.00049610301
3.6967262e-05
3.6981351e-05
3.7051327e-05
3.7307273e-05
3.8100084e-05
4.03338e-05
4.6288381e-05
6.1285584e-05
9.4281846e-05
0.00015086965
0.00022443029
0.0003032697
0.00038097344
0.00045874618
0.00049620967
3.6356483e-05
3.6378439e-05
3.6472854e-05
3.6791149e-05
3.7736253e-05
4.0333719e-05
4.7134449e-05
6.3875987e-05
9.9354663e-05
0.0001575488
0.00023074525
0.00030800522
0.00038386988
0.000459999
0.00049632781
3.5768637e-05
3.5799814e-05
3.5922562e-05
3.6312237e-05
3.7429827e-05
4.0435397e-05
4.8170257e-05
6.6757349e-05
0.00010465001
0.00016417959
0.00023684616
0.00031253352
0.00038663705
0.00046120677
0.00049645737
3.5203153e-05
3.5245078e-05
3.5400526e-05
3.587167e-05
3.7184184e-05
4.0646558e-05
4.9407771e-05
6.9928635e-05
0.00011013446
0.0001707367
0.00024273668
0.00031686755
0.00038928498
0.00046237365
0.00049659823
3.4659571e-05
3.4713957e-05
3.4907005e-05
3.5470884e-05
3.7003215e-05
4.0975651e-05
5.0858545e-05
7.3384806e-05
0.00011577384
0.00017719946
0.0002484218
0.00032101945
0.00039182266
0.00046350324
0.00049675022
3.4137541e-05
3.4206315e-05
3.4442453e-05
3.5111632e-05
3.6891358e-05
4.1431803e-05
5.2533314e-05
7.7116743e-05
0.00012153429
0.00018355151
0.00025390751
0.00032500056
0.00039425824
0.00046459871
0.00049691313
3.3636827e-05
3.3722154e-05
3.4007531e-05
3.4796015e-05
3.6853629e-05
4.2024753e-05
5.4441553e-05
8.1111364e-05
0.00012738323
0.00018978026
0.0002592004
0.00032882143
0.00039659902
0.00046566283
0.00049708669
3.3157312e-05
3.3261621e-05
3.3603121e-05
3.4526501e-05
3.6895649e-05
4.2764739e-05
5.6591024e-05
8.5351947e-05
0.00013329009
0.00019587634
0.00026430747
0.00033249185
0.00039885163
0.00046669806
0.00049727064
3.2699001e-05
3.2825019e-05
3.3230344e-05
3.4305956e-05
3.7023659e-05
4.3662348e-05
5.8987333e-05
8.9818626e-05
0.00013922682
0.00020183313
0.0002692359
0.00033602091
0.00040102205
0.00046770657
0.00049746465
3.2262029e-05
3.2412818e-05
3.2890574e-05
3.4137671e-05
3.7244542e-05
4.4728314e-05
6.1633536e-05
9.4489028e-05
0.00014516825
0.00020764626
0.00027399296
0.00033941703
0.00040311572
0.00046869026
0.00049766842
3.1846672e-05
3.2025663e-05
3.2585463e-05
3.402539e-05
3.7565812e-05
4.5973276e-05
6.4529818e-05
9.9338995e-05
0.00015109222
0.00021331321
0.00027858584
0.00034268798
0.00040513756
0.00046965085
0.00049788162
3.1453353e-05
3.1664392e-05
3.2316961e-05
3.3973347e-05
3.79956e-05
4.7407483e-05
6.7673285e-05
0.00010434334
0.00015697954
0.00021883297
0.00028302161
0.00034584097
0.00040709204
0.0004705898
0.0004981039
3.1082657e-05
3.1330051e-05
3.2087342e-05
3.3986289e-05
3.854261e-05
4.9040468e-05
7.1057884e-05
0.00010947659
0.00016281389
0.00022420575
0.00028730717
0.00034888274
0.00040898339
0.00047150458
0.00049833483
3.0735343e-05
3.1023913e-05
3.189923e-05
3.4069508e-05
3.9216053e-05
5.0880696e-05
7.4674463e-05
0.00011471363
0.0001685816
0.00022943271
0.00029144916
0.00035181942
0.00041081484
0.00047239525
0.00049857396
3.0412363e-05
3.0747499e-05
3.1755628e-05
3.4228863e-05
4.0025535e-05
5.2935199e-05
7.8510966e-05
0.00012003028
0.0001742714
0.00023451574
0.00029545394
0.00035465659
0.0004125893
0.00047326314
0.00049882077
3.0114878e-05
3.05026e-05
3.165995e-05
3.4470796e-05
4.0980923e-05
5.5209222e-05
8.2552767e-05
0.00012540372
0.00017987413
0.00023945729
0.00029932755
0.00035739936
0.00041430956
0.00047411007
0.00049907473
2.9844282e-05
3.0291302e-05
3.1616051e-05
3.4802339e-05
4.2092161e-05
5.7705912e-05
8.6783094e-05
0.00013081281
0.00018538251
0.00024426028
0.00030307586
0.0003600528
0.00041597766
0.00047493665
0.00049933535
2.9602223e-05
3.0116019e-05
3.1628261e-05
3.5231104e-05
4.3369051e-05
6.0426062e-05
9.1183534e-05
0.00013623827
0.00019079087
0.00024892793
0.00030670443
0.00036262138
0.00041759511
0.00047574375
0.00049960221
2.9390632e-05
2.9979519e-05
3.1701413e-05
3.5765262e-05
4.4820998e-05
6.336794e-05
9.5734571e-05
0.00014166276
0.00019609495
0.00025346369
0.00031021845
0.00036510894
0.00041916383
0.00047653282
0.00049987496
2.9211752e-05
2.9884957e-05
3.1840877e-05
3.6413486e-05
4.6456718e-05
6.652721e-05
0.00010041611
0.0001470709
0.00020129165
0.00025787111
0.00031362278
0.00036751899
0.00042068622
0.00047730512
0.00050015335
2.9068172e-05
2.9835913e-05
3.2052584e-05
3.7184877e-05
4.8283934e-05
6.9896967e-05
0.00010520797
0.00015244918
0.00020637887
0.00026215384
0.00031692208
0.0003698549
0.00042216431
0.00047806206
0.00050043714
2.8962862e-05
2.9836428e-05
3.2343044e-05
3.8088857e-05
5.0309069e-05
7.3467876e-05
0.00011009033
0.0001577859
0.00021135539
0.00026631567
0.00032012107
0.00037211961
0.00042359893
0.00047880546
0.0005007262
2.8899214e-05
2.9891041e-05
3.2719357e-05
3.9135017e-05
5.253694e-05
7.7228409e-05
0.00011504407
0.00016307097
0.00021622069
0.00027036027
0.00032322363
0.00037431531
0.00042499267
0.00047953622
0.00050102037
2.8881081e-05
3.0004827e-05
3.3189211e-05
4.0332938e-05
5.4970502e-05
8.1165162e-05
0.00012005109
0.00016829583
0.0002209748
0.00027429118
0.0003262333
0.00037644473
0.00042634782
0.00048025491
0.00050131947
2.8912827e-05
3.0183436e-05
3.3760859e-05
4.1691977e-05
5.761063e-05
8.5263228e-05
0.00012509443
0.00017345324
0.00022561819
0.0002781118
0.00032915348
0.00037851078
0.00042766643
0.00048096196
0.00050162329
2.899937e-05
3.0433125e-05
3.4443077e-05
4.3221006e-05
6.0455975e-05
8.9506604e-05
0.00013015845
0.00017853719
0.00023015187
0.00028182603
0.00033198796
0.00038051407
0.00042895091
0.00048165809
0.00050193162
2.9146228e-05
3.0760788e-05
3.5245091e-05
4.4928148e-05
6.3502906e-05
9.3878594e-05
0.00013522889
0.00018354277
0.00023457705
0.000285437
0.00033473879
0.00038245785
0.00043020292
0.00048234393
0.00050224426
2.9359569e-05
3.1173974e-05
3.617648e-05
4.6820482e-05
6.6745537e-05
9.8362201e-05
0.00014029282
0.00018846593
0.0002388951
0.00028894752
0.00033740865
0.00038434503
0.00043142383
0.00048301995
0.00050256102
2.9646257e-05
3.1680897e-05
3.7247029e-05
4.890376e-05
7.017584e-05
0.00010294047
0.00014533865
0.00019330343
0.00024310744
0.00029236035
0.00034000043
0.00038617825
0.00043261482
0.00048368649
0.0005028817
3.0013885e-05
3.2290424e-05
3.8466563e-05
5.1182138e-05
7.3783837e-05
0.0001075968
0.00015035607
0.00019805288
0.00024721628
0.00029567921
0.00034251463
0.00038796019
0.00043377725
0.00048434388
0.00050320609
3.047081e-05
3.3012042e-05
3.9844725e-05
5.3657943e-05
7.7557863e-05
0.00011231515
0.00015533598
0.00020271238
0.00025122317
0.00029890554
0.00034495487
0.00038969297
0.00043491232
0.00048499241
0.00050353398
3.102617e-05
3.3855799e-05
4.1390733e-05
5.6331494e-05
8.1484866e-05
0.00011708027
0.00016027034
0.00020728044
0.00025512956
0.00030204154
0.00034732428
0.00039137842
0.00043602107
0.00048563236
0.00050386517
3.1689881e-05
3.4832205e-05
4.3113102e-05
5.9200992e-05
8.5550737e-05
0.00012187777
0.00016515214
0.00021175614
0.00025893741
0.00030508888
0.00034962573
0.00039301831
0.00043710441
0.00048626391
0.00050419946
3.2472607e-05
3.5952096e-05
4.5019356e-05
6.2262485e-05
8.9740647e-05
0.00012669426
0.00016997534
0.00021613911
0.00026264883
0.00030804875
0.00035186186
0.00039461436
0.00043816317
0.00048688724
0.00050453664
3.3385702e-05
3.7226455e-05
4.7115725e-05
6.550991e-05
9.4039356e-05
0.00013151733
0.00017473464
0.00022042871
0.0002662644
0.00031092448
0.00035403494
0.00039616814
0.00043919814
0.00048750249
0.00050487651
3.4441105e-05
3.8666179e-05
4.9406872e-05
6.8935215e-05
9.8431503e-05
0.00013633554
0.00017942531
0.00022462444
0.00026978547
0.00031371898
0.00035614706
0.00039768103
0.00044021002
0.00048810976
0.00050521887
3.5651176e-05
4.028181e-05
5.1895642e-05
7.2528548e-05
0.00010290188
0.00014113854
0.00018404389
0.00022872765
0.0002732113
0.00031643488
0.00035820023
0.00039915433
0.00044119944
0.00048870914
0.00050556351
3.7028489e-05
4.2083215e-05
5.4582861e-05
7.6278495e-05
0.00010743561
0.00014591687
0.0001885868
0.00023273709
0.00027654451
0.00031907453
0.00036019635
0.00040058923
0.00044216696
0.00048930069
0.00050591023
3.8585537e-05
4.407925e-05
5.7467203e-05
8.0172349e-05
0.0001120183
0.0001506618
0.00019305069
0.00023665228
0.00027978757
0.00032164007
0.00036213713
0.00040198684
0.00044311309
0.00048988443
0.00050625885
4.033439e-05
4.6277392e-05
6.0545134e-05
8.4196423e-05
0.00011663627
0.00015536593
0.00019743442
0.00024047109
0.00028294259
0.00032413356
0.00036402413
0.00040334814
0.0004440383
0.0004904604
0.00050660916
4.2286273e-05
4.8683388e-05
6.3810923e-05
8.833632e-05
0.00012127646
0.00016002206
0.00020173443
0.00024419461
0.00028601153
0.00032655693
0.00036585883
0.00040467406
0.00044494298
0.00049102857
0.00050696096
4.4451104e-05
5.1300921e-05
6.7256739e-05
9.2577203e-05
0.00012592654
0.00016462368
0.00020594749
0.00024782416
0.00028899617
0.00032891194
0.00036764257
0.0004059654
0.0004458275
0.00049158895
0.00050731408
4.6836996e-05
5.4131331e-05
7.0872827e-05
9.6904138e-05
0.0001305753
0.00016916626
0.00021006948
0.00025136076
0.00029189825
0.00033120025
0.00036937657
0.00040722294
0.00044669217
0.00049214149
0.00050766832
4.9449764e-05
5.7173392e-05
7.4647695e-05
0.00010130213
0.00013521165
0.00017364273
0.00021409986
0.0002548054
0.00029471939
0.00033342336
0.00037106198
0.00040844734
0.00044753727
0.00049268614
0.00050802349
5.2292469e-05
6.042319e-05
7.8568451e-05
0.00010575673
0.00013982676
0.00017804552
0.00021803791
0.00025815903
0.00029746108
0.00033558265
0.0003726998
0.00040963922
0.00044836303
0.00049322283
0.00050837941
5.536503e-05
6.3874078e-05
8.2620965e-05
0.00011025349
0.00014441014
0.00018236994
0.00022188292
0.00026142255
0.00030012468
0.0003376794
0.00037429097
0.0004107991
0.00044916964
0.0004937515
0.0005087359
5.8663978e-05
6.7516795e-05
8.6790483e-05
0.00011477971
0.0001489501
0.00018661236
0.00022563429
0.00026459681
0.00030271145
0.00033971475
0.00037583632
0.00041192748
0.00044995726
0.00049427204
0.00050909277
6.218233e-05
7.1339599e-05
9.1061601e-05
0.00011932071
0.00015343774
0.00019076938
0.00022929147
0.00026768256
0.00030522251
0.00034168972
0.00037733659
0.00041302475
0.000450726
0.00049478435
0.00050944984
6.5909697e-05
7.5328727e-05
9.5419093e-05
0.00012386113
0.00015786548
0.00019483793
0.00023285397
0.00027068048
0.00030765887
0.00034360523
0.0003787924
0.00041409125
0.00045147593
0.00049528829
0.00050980693
6.9832843e-05
7.9468909e-05
9.9844495e-05
0.00012838825
0.00016222627
0.00019881514
0.00023632131
0.00027359115
0.00031002142
0.00034546207
0.00038020432
0.00041512725
0.0004522071
0.00049578373
0.00051016386
7.3934977e-05
8.3741313e-05
0.00010432063
0.00013289009
0.00016651366
0.0002026984
0.00023969302
0.00027641506
0.00031231089
0.00034726091
0.0003815728
0.00041613298
0.00045291951
0.00049627049
0.00051052042
7.8196071e-05
8.812597e-05
0.0001088306
0.00013735544
0.00017072168
0.00020648527
0.0002429686
0.00027915259
0.00031452794
0.00034900231
0.0003828982
0.00041710857
0.00045361309
0.00049674839
0.00051087644
8.2593923e-05
9.2602048e-05
0.00011335797
0.0001417738
0.00017484483
0.00021017351
0.00024614757
0.00028180403
0.00031667305
0.00035068672
0.00038418079
0.00041805409
0.00045428776
0.00049721723
0.00051123172
8.7104825e-05
9.7148275e-05
0.00011788687
0.00014613542
0.0001788781
0.00021376104
0.00024922941
0.00028436956
0.00031874662
0.00035231447
0.00038542076
0.00041896955
0.00045494338
0.00049767676
0.00051158605
9.1704221e-05
0.00010174334
0.00012240209
0.00015043126
0.00018281687
0.00021724591
0.00025221359
0.00028684927
0.00032074892
0.00035388579
0.00038661818
0.0004198549
0.00045557978
0.00049812672
0.00051193922
9.6367336e-05
0.00010636628
0.0001268892
0.00015465297
0.00018665698
0.00022062636
0.00025509958
0.00028924317
0.0003226801
0.0003554008
0.00038777306
0.00042071001
0.00045619671
0.00049856683
0.00051229101
0.00010106974
0.00011099679
0.00013133465
0.00015879293
0.00019039464
0.00022390077
0.00025788684
0.00029155119
0.00032454022
0.0003568595
0.00038888532
0.00042153468
0.00045679392
0.00049899678
0.00051264118
0.00010578782
0.00011561549
0.00013572576
0.00016284416
0.00019402649
0.00022706769
0.00026057486
0.00029377319
0.00032632924
0.00035826183
0.00038995479
0.00042232866
0.00045737107
0.00049941622
0.00051298951
0.0001104992
0.00012020418
0.00014005084
0.00016680038
0.00019754953
0.00023012586
0.00026316315
0.00029590899
0.00032804705
0.00035960763
0.00039098124
0.00042309163
0.00045792781
0.00049982479
0.00051333573
0.00011518301
0.00012474599
0.00014429919
0.00017065597
0.00020096119
0.00023307418
0.00026565127
0.00029795838
0.00032969346
0.00036089666
0.00039196434
0.00042382322
0.00045846372
0.00050022208
0.00051367958
0.00011982009
0.00012922551
0.00014846113
0.00017440598
0.00020425927
0.00023591177
0.00026803886
0.00029992115
0.00033126826
0.00036212862
0.00039290374
0.00042452301
0.00045897838
0.00050060768
0.00051402077
0.00012439314
0.00013362883
0.00015252802
0.00017804605
0.00020744195
0.00023863796
0.00027032565
0.00030179709
0.00033277117
0.00036330319
0.00039379901
0.00042519054
0.0004594713
0.00050098115
0.00051435903
0.00012888679
0.00013794361
0.00015649224
0.0001815725
0.0002105078
0.0002412523
0.00027251147
0.00030358604
0.00033420194
0.00036441997
0.0003946497
0.00042582529
0.00045994197
0.00050134202
0.00051469404
0.00013328754
0.00014215904
0.00016034716
0.00018498223
0.00021345576
0.00024375455
0.00027459628
0.00030528788
0.00033556032
0.00036547859
0.00039545533
0.00042642675
0.00046038988
0.00050168982
0.00051502549
0.00013758379
0.00014626583
0.00016408717
0.00018827274
0.00021628513
0.00024614474
0.00027658019
0.00030690257
0.00033684606
0.00036647865
0.0003962154
0.00042699437
0.00046081448
0.00050202407
0.00051535305
0.00014176569
0.00015025611
0.00016770757
0.00019144208
0.00021899559
0.00024842311
0.00027846346
0.00030843017
0.000338059
0.0003674198
0.00039692943
0.00042752761
0.00046121523
0.00050234427
0.00051567639
0.0001458251
0.00015412339
0.00017120457
0.00019448886
0.00022158713
0.00025059014
0.00028024652
0.00030987086
0.00033919903
0.00036830169
0.00039759694
0.00042802591
0.00046159158
0.00050264994
0.00051599516
0.00014975542
0.00015786246
0.00017457524
0.00019741219
0.00022406008
0.00025264657
0.00028192999
0.00031122493
0.00034026613
0.00036912407
0.0003982175
0.00042848877
0.000461943
0.00050294058
0.00051630901
0.00015355148
0.00016146928
0.00017781742
0.00020021167
0.00022641511
0.00025459334
0.00028351464
0.00031249281
0.00034126037
0.00036988672
0.0003987907
0.00042891569
0.00046226898
0.00050321573
0.00051661759
0.0001572094
0.00016494088
0.0001809297
0.00020288735
0.00022865314
0.00025643163
0.00028500145
0.0003136751
0.00034218196
0.00037058952
0.00039931623
0.00042930622
0.00046256905
0.00050347494
0.00051692052
0.00016072649
0.00016827527
0.00018391132
0.00020543969
0.00023077538
0.00025816282
0.00028639157
0.00031477253
0.0003430312
0.00037123247
0.00039979383
0.00042965998
0.00046284276
0.00050371778
0.00051721747
0.00016410107
0.00017147133
0.00018676215
0.00020786953
0.00023278331
0.00025978851
0.00028768632
0.00031578599
0.00034380857
0.00037181564
0.00040022333
0.00042997666
0.00046308973
0.00050394387
0.00051750806
0.00016733237
0.00017452872
0.0001894826
0.00021017807
0.00023467862
0.00026131045
0.0002888872
0.00031671654
0.00034451465
0.00037233926
0.00040060467
0.00043025599
0.00046330963
0.00050415285
0.00051779195
0.00017042045
0.00017744778
0.00019207357
0.00021236682
0.00023646322
0.0002627306
0.00028999586
0.0003175654
0.00034515019
0.00037280367
0.00040093788
0.00043049785
0.0004635022
0.00050434442
0.0005180688
0.00017336603
0.00018022945
0.0001945364
0.00021443757
0.0002381392
0.00026405104
0.00029101412
0.00031833392
0.00034571608
0.00037320934
0.00040122313
0.00043070216
0.00046366727
0.00050451834
0.00051833827
0.00017617045
0.00018287517
0.00019687278
0.00021639236
0.00023970882
0.00026527401
0.00029194393
0.00031902361
0.00034621336
0.00037355689
0.00040146071
0.00043086898
0.00046380472
0.0005046744
0.00051860004
0.00017883553
0.00018538684
0.00019908477
0.00021823343
0.00024117451
0.00026640188
0.00029278735
0.00031963613
0.0003466432
0.00037384706
0.000401651
0.00043099845
0.00046391456
0.00050481249
0.00051885383
0.00018136355
0.00018776673
0.00020117469
0.00021996324
0.00024253878
0.0002674371
0.0002935466
0.00032017325
0.00034700693
0.00037408075
0.00040179456
0.00043109086
0.00046399685
0.00050493253
0.00051909933
0.00018375711
0.00019001743
0.00020314511
0.00022158439
0.00024380428
0.00026838223
0.00029422395
0.00032063687
0.00034730599
0.00037425897
0.00040189203
0.00043114659
0.00046405177
0.00050503451
0.0005193363
0.00018601914
0.00019214178
0.00020499877
0.0002230996
0.00024497375
0.00026923992
0.0002948218
0.00032102899
0.00034754195
0.00037438288
0.00040194422
0.00043116612
0.0004640796
0.00050511852
0.0005195645
0.00018815279
0.00019414284
0.00020673861
0.00022451173
0.00024604998
0.00027001285
0.0002953426
0.00032135172
0.00034771651
0.00037445377
0.00040195204
0.00043115008
0.0004640807
0.00050518469
0.00051978372
0.00019016139
0.00019602384
0.00020836769
0.00022582371
0.00024703584
0.00027070377
0.00029578888
0.00032160725
0.00034783145
0.00037447302
0.00040191651
0.00043109919
0.00046405552
0.00050523323
0.00051999377
0.00019204842
0.00019778812
0.00020988915
0.00022703853
0.00024793422
0.00027131547
0.00029616321
0.00032179784
0.00034788868
0.00037444214
0.00040183879
0.00043101428
0.00046400462
0.00050526441
0.00052019451
0.00019381748
0.00019943916
0.00021130625
0.00022815926
0.00024874806
0.00027185076
0.00029646821
0.00032192582
0.00034789016
0.00037436273
0.00040172013
0.00043089629
0.00046392865
0.00050527857
0.00052038581
0.00019547224
0.00020098047
0.00021262227
0.00022918897
0.00024948031
0.00027231246
0.00029670651
0.00032199357
0.00034783794
0.0003742365
0.00040156188
0.00043074624
0.00046382833
0.00050527612
0.00052056757
0.00019701642
0.00020241564
0.00021384054
0.00023013078
0.00025013391
0.00027270339
0.00029688079
0.0003220035
0.00034773415
0.00037406523
0.00040136549
0.00043056526
0.00046370446
0.00050525752
0.00052073974
0.00019845376
0.00020374824
0.0002149644
0.00023098778
0.00025071183
0.00027302639
0.00029699371
0.00032195807
0.00034758094
0.00037385075
0.00040113248
0.00043035455
0.00046355793
0.00050522329
0.00052090228
0.000199788
0.00020498189
0.00021599721
0.00023176309
0.00025121698
0.00027328426
0.00029704793
0.00032185973
0.00034738053
0.00037359499
0.00040086445
0.00043011538
0.00046338967
0.00050517399
0.0005210552
0.0002010229
0.00020612019
0.0002169423
0.00023245981
0.00025165231
0.0002734798
0.00029704612
0.00032171098
0.00034713515
0.00037329991
0.00040056304
0.0004298491
0.00046320069
0.00050511024
0.00052119852
0.00020216217
0.00020716669
0.00021780298
0.000233081
0.00025202069
0.00027361579
0.00029699094
0.0003215143
0.00034684707