/*--------------------------------*- C++ -*----------------------------------*\
| =========                 |                                                 |
| \\      /  F ield         | OpenFOAM: The Open Source CFD Toolbox           |
|  \\    /   O peration     | Version:  2506                                  |
|   \\  /    A nd           | Website:  www.openfoam.com                      |
|    \\/     M anipulation  |                                                 |
\*---------------------------------------------------------------------------*/
FoamFile
{
    version     2.0;
    format      ascii;
    arch        "LSB;label=32;scalar=64";
    class       volScalarField;
    location    "10000/water";
    object      nut;
}
// * * * * * * * * * * * * * * * * * * * * * * * * * * * * * * * * * * * * * //

dimensions      [0 2 -1 0 0 0 0];

internalField   nonuniform List<scalar> 
6000
(
4.1367308e-05
4.1367285e-05
4.1367292e-05
4.1367317e-05
4.136735e-05
4.1367394e-05
4.1367445e-05
4.1367477e-05
4.1367269e-05
4.1365028e-05
4.1345959e-05
4.1185428e-05
3.984402e-05
3.0619188e-05
1.3489073e-05
4.0862094e-05
4.0862089e-05
4.0862128e-05
4.0862206e-05
4.086231e-05
4.0862441e-05
4.0862573e-05
4.0862525e-05
4.0861044e-05
4.0849566e-05
4.0769767e-05
4.0233638e-05
3.6930279e-05
2.3809326e-05
1.5168915e-05
4.0408426e-05
4.0408431e-05
4.0408496e-05
4.0408619e-05
4.040878e-05
4.0408965e-05
4.0409066e-05
4.0408421e-05
4.0403049e-05
4.0369314e-05
4.0169922e-05
3.9053519e-05
3.3674827e-05
1.9530254e-05
1.6389796e-05
3.9998212e-05
3.9998216e-05
3.9998298e-05
3.9998456e-05
3.9998657e-05
3.9998846e-05
3.9998699e-05
3.999645e-05
3.9982628e-05
3.9907469e-05
3.9519874e-05
3.7665236e-05
3.0439418e-05
1.6813321e-05
1.7227565e-05
3.9625122e-05
3.9625133e-05
3.9625231e-05
3.9625419e-05
3.9625638e-05
3.9625739e-05
3.9624947e-05
3.9619415e-05
3.959045e-05
3.9450123e-05
3.8807695e-05
3.6131535e-05
2.7477322e-05
1.5090355e-05
1.7763765e-05
3.9283984e-05
3.9284007e-05
3.9284119e-05
3.9284324e-05
3.9284521e-05
3.9284369e-05
3.9282279e-05
3.9270986e-05
3.9218236e-05
3.8986823e-05
3.8033859e-05
3.4524992e-05
2.4897642e-05
1.400968e-05
1.8072537e-05
3.8970512e-05
3.8970546e-05
3.8970668e-05
3.8970871e-05
3.8970973e-05
3.8970306e-05
3.8965958e-05
3.8945612e-05
3.8858945e-05
3.8510812e-05
3.7207229e-05
3.2908964e-05
2.2716803e-05
1.3360893e-05
1.8215906e-05
3.8681158e-05
3.8681199e-05
3.8681323e-05
3.8681493e-05
3.8681392e-05
3.8679823e-05
3.8671916e-05
3.8638477e-05
3.8506919e-05
3.801881e-05
3.6341286e-05
3.1331233e-05
2.0908463e-05
1.30184e-05
1.8243034e-05
3.841296e-05
3.8413006e-05
3.8413119e-05
3.8413209e-05
3.8412743e-05
3.8409742e-05
3.8396631e-05
3.8345462e-05
3.8157885e-05
3.7510375e-05
3.5450851e-05
2.9823717e-05
1.9431977e-05
1.2906145e-05
1.8191421e-05
3.816343e-05
3.8163474e-05
3.8163556e-05
3.8163497e-05
3.8162446e-05
3.8157327e-05
3.8137042e-05
3.8063106e-05
3.7808869e-05
3.6987081e-05
3.454982e-05
2.8405299e-05
1.8246291e-05
1.2977275e-05
1.8088864e-05
3.7930457e-05
3.7930491e-05
3.7930513e-05
3.793021e-05
3.7928279e-05
3.7920197e-05
3.7890497e-05
3.7788579e-05
3.7458031e-05
3.6451747e-05
3.3649968e-05
2.7085594e-05
1.7315649e-05
1.3202296e-05
1.7955551e-05
3.7712242e-05
3.7712253e-05
3.7712173e-05
3.7711499e-05
3.7708322e-05
3.7696279e-05
3.7654711e-05
3.7519641e-05
3.7104472e-05
3.5907781e-05
3.2760531e-05
2.58684e-05
1.6611172e-05
1.3561911e-05
1.7805936e-05
3.7507239e-05
3.7507212e-05
3.7506973e-05
3.7505765e-05
3.7500895e-05
3.7483757e-05
3.7427744e-05
3.725459e-05
3.6748014e-05
3.5358688e-05
3.188827e-05
2.4754408e-05
1.6110613e-05
1.4042468e-05
1.7650267e-05
3.7314115e-05
3.7314026e-05
3.7313557e-05
3.7311613e-05
3.7304527e-05
3.7281048e-05
3.7207963e-05
3.6992195e-05
3.6389e-05
3.4807726e-05
3.1037799e-05
2.3743174e-05
1.5797412e-05
1.4632945e-05
1.7495753e-05
3.7131708e-05
3.713153e-05
3.7130739e-05
3.7127817e-05
3.7117921e-05
3.7086772e-05
3.6994026e-05
3.6731629e-05
3.6028109e-05
3.4257704e-05
3.0212055e-05
2.2834479e-05
1.5659519e-05
1.5322866e-05
1.7347422e-05
3.6959006e-05
3.6958703e-05
3.6957478e-05
3.6953298e-05
3.6939934e-05
3.6899735e-05
3.6784847e-05
3.64724e-05
3.5666203e-05
3.3710866e-05
2.9412801e-05
2.2029191e-05
1.5688155e-05
1.6100896e-05
1.7208725e-05
3.6795116e-05
3.6794644e-05
3.6792855e-05
3.6787094e-05
3.6769555e-05
3.6718912e-05
3.6579574e-05
3.6214282e-05
3.5304204e-05
3.3168861e-05
2.8641157e-05
2.132974e-05
1.587657e-05
1.6954009e-05
1.7081944e-05
3.6639251e-05
3.6638559e-05
3.6636051e-05
3.6628355e-05
3.6605895e-05
3.6543431e-05
3.637756e-05
3.5957252e-05
3.4942996e-05
3.2632763e-05
2.789813e-05
2.0740252e-05
1.6218811e-05
1.7867211e-05
1.6968459e-05
3.6490711e-05
3.6489738e-05
3.6486338e-05
3.6476321e-05
3.6448171e-05
3.6372563e-05
3.6178336e-05
3.5701433e-05
3.4583359e-05
3.2103134e-05
2.7185145e-05
2.0266398e-05
1.6708562e-05
1.8823777e-05
1.6868922e-05
3.6348869e-05
3.6347546e-05
3.6343063e-05
3.6330312e-05
3.62957e-05
3.6205706e-05
3.5981587e-05
3.5447046e-05
3.4225914e-05
3.1580129e-05
2.6504571e-05
1.991497e-05
1.7338099e-05
1.9805967e-05
1.6783375e-05
3.6213165e-05
3.6211415e-05
3.6205638e-05
3.6189726e-05
3.6147887e-05
3.6042373e-05
3.5787125e-05
3.5194368e-05
3.3871092e-05
3.1063631e-05
2.5860194e-05
1.9693245e-05
1.8097487e-05
2.0796033e-05
1.6711346e-05
3.6083093e-05
3.6080831e-05
3.6073537e-05
3.6054024e-05
3.6004223e-05
3.5882185e-05
3.5594869e-05
3.4943693e-05
3.3519118e-05
3.0553441e-05
2.5257605e-05
1.96082e-05
1.8974102e-05
2.1777346e-05
1.6651939e-05
3.5958194e-05
3.5955329e-05
3.5946284e-05
3.592273e-05
3.5864274e-05
3.5724854e-05
3.5404824e-05
3.4695304e-05
3.3170007e-05
3.0049498e-05
2.4704419e-05
1.9665646e-05
1.9952579e-05
2.2735414e-05
1.660395e-05
3.5838054e-05
3.5834489e-05
3.582345e-05
3.5795422e-05
3.5727676e-05
3.5570179e-05
3.521706e-05
3.444945e-05
3.2823581e-05
2.9552162e-05
2.4210265e-05
1.9869402e-05
2.1015194e-05
2.3658589e-05
1.6565971e-05
3.5722292e-05
3.5717927e-05
3.5704651e-05
3.5671733e-05
3.5594133e-05
3.5418031e-05
3.50317e-05
3.4206321e-05
3.2479493e-05
2.9062524e-05
2.3786503e-05
2.022057e-05
2.2142641e-05
2.4538397e-05
1.6536511e-05
3.5610563e-05
3.5605296e-05
3.558954e-05
3.5551342e-05
3.5463408e-05
3.5268352e-05
3.48489e-05
3.3966035e-05
3.2137286e-05
2.858275e-05
2.3445668e-05
2.0717024e-05
2.3315071e-05
2.5369467e-05
1.6514097e-05
3.5502551e-05
3.549628e-05
3.5477808e-05
3.5433974e-05
3.5335321e-05
3.5121137e-05
3.466884e-05
3.3728621e-05
3.1796463e-05
2.8116417e-05
2.3200676e-05
2.1353141e-05
2.4513224e-05
2.6149157e-05
1.6497357e-05
3.5397967e-05
3.539059e-05
3.536918e-05
3.5319398e-05
3.5209747e-05
3.4976437e-05
3.4491706e-05
3.3494016e-05
3.14566e-05
2.7668794e-05
2.3063903e-05
2.2119832e-05
2.5719465e-05
2.6877012e-05
1.6485071e-05
3.5296546e-05
3.5287966e-05
3.5263414e-05
3.5207424e-05
3.5086609e-05
3.4834344e-05
3.4317681e-05
3.3262058e-05
3.1117487e-05
2.7247026e-05
2.3046253e-05
2.3004862e-05
2.6918581e-05
2.7554165e-05
1.6476201e-05
3.5198047e-05
3.5188175e-05
3.5160297e-05
3.5097901e-05
3.4965875e-05
3.4694991e-05
3.4146934e-05
3.3032492e-05
3.0779305e-05
2.6860148e-05
2.3156315e-05
2.3993438e-05
2.8098247e-05
2.8182809e-05
1.6469894e-05
3.5102251e-05
3.5091004e-05
3.5059649e-05
3.4990715e-05
3.4847558e-05
3.4558539e-05
3.3979609e-05
3.2804987e-05
3.0442844e-05
2.6518902e-05
2.3399717e-05
2.5069008e-05
2.9249139e-05
2.8765761e-05
1.6465472e-05
3.5008959e-05
3.4996268e-05
3.4961317e-05
3.488579e-05
3.4731711e-05
3.4425177e-05
3.3815813e-05
3.2579164e-05
3.0109732e-05
2.6235323e-05
2.3778717e-05
2.6214169e-05
3.0364756e-05
2.9306158e-05
1.646241e-05
3.4917993e-05
3.4903801e-05
3.4865175e-05
3.4783085e-05
3.4618425e-05
3.4295113e-05
3.3655609e-05
3.235464e-05
2.9782687e-05
2.6022142e-05
2.429206e-05
2.7411592e-05
3.1441033e-05
2.9807247e-05
1.6460314e-05
3.4829195e-05
3.4813462e-05
3.4771128e-05
3.4682592e-05
3.4507829e-05
3.416857e-05
3.3499011e-05
3.2131095e-05
2.9465731e-05
2.589204e-05
2.4935073e-05
2.8644859e-05
3.2475855e-05
3.0272255e-05
1.6458891e-05
3.4742423e-05
3.4725129e-05
3.4679107e-05
3.4584339e-05
3.4400083e-05
3.4045774e-05
3.3345975e-05
3.1908364e-05
2.9164362e-05
2.5856856e-05
2.5699991e-05
2.9899124e-05
3.3468557e-05
3.0704313e-05
1.6457936e-05
3.465756e-05
3.4638706e-05
3.4589068e-05
3.4488387e-05
3.4295378e-05
3.3926957e-05
3.3196403e-05
3.1686556e-05
2.8885627e-05
2.5926837e-05
2.6576456e-05
3.1161548e-05
3.4419483e-05
3.11064e-05
1.6457305e-05
3.4574503e-05
3.4554114e-05
3.4500999e-05
3.4394828e-05
3.4193938e-05
3.381234e-05
3.3050147e-05
3.1466194e-05
2.8638062e-05
2.6110006e-05
2.7552146e-05
3.2421501e-05
3.5329634e-05
3.1481313e-05
1.6456902e-05
3.4493171e-05
3.4471301e-05
3.4414911e-05
3.4303789e-05
3.409601e-05
3.3702133e-05
3.2907027e-05
3.1248389e-05
2.843149e-05
2.6411714e-05
2.861348e-05
3.3670552e-05
3.6200407e-05
3.1831642e-05
1.6456669e-05
3.4413502e-05
3.4390234e-05
3.4330848e-05
3.4215429e-05
3.4001867e-05
3.3596524e-05
3.2766849e-05
3.1035013e-05
2.8276655e-05
2.6834389e-05
2.9746328e-05
3.4902294e-05
3.7033428e-05
3.215976e-05
1.6456572e-05
3.4335456e-05
3.4310905e-05
3.4248878e-05
3.4129939e-05
3.3911801e-05
3.3495676e-05
3.2629453e-05
3.0828884e-05
2.8184728e-05
2.7377496e-05
3.0936676e-05
3.6112066e-05
3.7830436e-05
3.2467821e-05
1.6456596e-05
3.4259011e-05
3.423333e-05
3.4169102e-05
3.4047543e-05
3.3826124e-05
3.3399718e-05
3.2494766e-05
3.0633921e-05
2.816673e-05
2.8037689e-05
3.2171189e-05
3.7296634e-05
3.8593221e-05
3.2757761e-05
1.6456739e-05
3.4184168e-05
3.4157548e-05
3.409165e-05
3.3968498e-05
3.3745158e-05
3.3308744e-05
3.236288e-05
3.0455254e-05
2.8232924e-05
2.8809103e-05
3.3437646e-05
3.8453878e-05
3.9323576e-05
3.3031311e-05
1.6457005e-05
3.4110952e-05
3.4083626e-05
3.4016682e-05
3.3893092e-05
3.3669236e-05
3.3222814e-05
3.2234152e-05
3.0299252e-05
2.8392245e-05
2.9683788e-05
3.4725212e-05
3.9582515e-05
4.0023271e-05
3.3290009e-05
1.6457402e-05
3.4039411e-05
3.4011658e-05
3.3944392e-05
3.3821645e-05
3.3598692e-05
3.3141955e-05
3.210932e-05
3.0173467e-05
2.8651821e-05
3.0652197e-05
3.6024574e-05
4.0681871e-05
4.0694029e-05
3.3535222e-05
1.6457942e-05
3.3969616e-05
3.3941763e-05
3.3875008e-05
3.3754507e-05
3.3533859e-05
3.3066181e-05
3.1989643e-05
3.0086448e-05
2.9016629e-05
3.1703722e-05
3.7327939e-05
4.1751717e-05
4.1337512e-05
3.3768159e-05
1.6458635e-05
3.3901667e-05
3.3874095e-05
3.3808792e-05
3.369206e-05
3.3475059e-05
3.2995507e-05
3.1877041e-05
3.0047457e-05
2.9489297e-05
3.2827225e-05
3.8628945e-05
4.2792141e-05
4.1955305e-05
3.3989892e-05
1.6459492e-05
3.3835691e-05
3.3808835e-05
3.3746042e-05
3.3634709e-05
3.3422602e-05
3.2929992e-05
3.177424e-05
3.0066085e-05
3.0070067e-05
3.4011513e-05
3.9922498e-05
4.3803466e-05
4.2548909e-05
3.4201369e-05
1.6460521e-05
3.3771846e-05
3.3746203e-05
3.3687095e-05
3.358289e-05
3.3376778e-05
3.2869782e-05
3.1684889e-05
3.0151799e-05
3.0756894e-05
3.5245753e-05
4.1204592e-05
4.4786187e-05
4.3119736e-05
3.4403433e-05
1.6461729e-05
3.3710322e-05
3.3686449e-05
3.3632325e-05
3.3537056e-05
3.3337853e-05
3.2815182e-05
3.1613642e-05
3.0313475e-05
3.1545669e-05
3.6519788e-05
4.247212e-05
4.5740926e-05
4.3669107e-05
3.459683e-05
1.6463121e-05
3.3651343e-05
3.3629867e-05
3.3582146e-05
3.3497683e-05
3.3306072e-05
3.2766738e-05
3.156618e-05
3.0558951e-05
3.2430526e-05
3.7824356e-05
4.37227e-05
4.6668401e-05
4.4198258e-05
3.4782227e-05
1.6464701e-05
3.359517e-05
3.3576787e-05
3.3537014e-05
3.3465257e-05
3.328166e-05
3.272534e-05
3.154915e-05
3.0894642e-05
3.3404219e-05
3.9151208e-05
4.4954529e-05
4.7569393e-05
4.4708337e-05
3.4960216e-05
1.6466471e-05
3.3542106e-05
3.3527584e-05
3.3497423e-05
3.3440275e-05
3.3264838e-05
3.2692338e-05
3.1570024e-05
3.1325252e-05
3.4458516e-05
4.0493148e-05
4.6166268e-05
4.8444726e-05
4.5200413e-05
3.5131328e-05
1.6468431e-05
3.3492497e-05
3.3482682e-05
3.346391e-05
3.3423238e-05
3.3255838e-05
3.266966e-05
3.1636867e-05
3.1853597e-05
3.5584599e-05
4.1843998e-05
4.7356947e-05
4.9295249e-05
4.5675481e-05
3.5296039e-05
1.647058e-05
3.3446735e-05
3.3442548e-05
3.3437051e-05
3.3414643e-05
3.3254936e-05
3.2659936e-05
3.175803e-05
3.2480546e-05
3.6773434e-05
4.3198528e-05
4.8525891e-05
5.0121816e-05
4.6134464e-05
3.5454777e-05
1.6472917e-05
3.3405264e-05
3.3407707e-05
3.3417461e-05
3.3414982e-05
3.3262498e-05
3.2666588e-05
3.1941792e-05
3.3205071e-05
3.8016084e-05
4.4552353e-05
4.967267e-05
5.0925277e-05
4.657822e-05
3.5607926e-05
1.6475437e-05
3.3368581e-05
3.3378733e-05
3.3405791e-05
3.3424735e-05
3.3279042e-05
3.2693903e-05
3.219598e-05
3.4024401e-05
3.9303974e-05
4.5901821e-05
5.079705e-05
5.1706471e-05
4.7007547e-05
3.5755837e-05
1.6478138e-05
3.3337244e-05
3.3356261e-05
3.3402726e-05
3.3444372e-05
3.3305309e-05
3.2747045e-05
3.2527603e-05
3.493424e-05
4.0629074e-05
4.7243907e-05
5.1898956e-05
5.2466214e-05
4.7423185e-05
3.5898825e-05
1.6481016e-05
3.3311875e-05
3.3340983e-05
3.340898e-05
3.3474359e-05
3.3342357e-05
3.2832004e-05
3.2942525e-05
3.5929048e-05
4.1984021e-05
4.8576118e-05
5.2978444e-05
5.3205302e-05
4.7825823e-05
3.6037178e-05
1.6484065e-05
3.3293162e-05
3.3333652e-05
3.3425294e-05
3.3515161e-05
3.3391664e-05
3.2955476e-05
3.3445219e-05
3.7002345e-05
4.3362177e-05
4.9896406e-05
5.4035675e-05
5.39245e-05
4.8216103e-05
3.6171157e-05
1.648728e-05
3.3281869e-05
3.3335085e-05
3.3452425e-05
3.3567272e-05
3.3455233e-05
3.3124668e-05
3.4038594e-05
3.814702e-05
4.4757645e-05
5.1203101e-05
5.5070888e-05
5.4624548e-05
4.8594619e-05
3.6301002e-05
1.6490656e-05
3.3278836e-05
3.3346162e-05
3.3491148e-05
3.3631233e-05
3.3535696e-05
3.3347046e-05
3.4723925e-05
3.9355623e-05
4.6165239e-05
5.2494848e-05
5.6084388e-05
5.5306156e-05
4.896193e-05
3.6426934e-05
1.6494188e-05
3.3284986e-05
3.3367825e-05
3.3542248e-05
3.3707685e-05
3.3636396e-05
3.3630027e-05
3.5500868e-05
4.0620631e-05
4.7580435e-05
5.3770564e-05
5.7076526e-05
5.5970005e-05
4.9318557e-05
3.6549159e-05
1.649787e-05
3.3301329e-05
3.3401078e-05
3.3606515e-05
3.3797419e-05
3.3761443e-05
3.3980665e-05
3.636756e-05
4.1934659e-05
4.8999313e-05
5.5029394e-05
5.8047685e-05
5.6616725e-05
4.9664879e-05
3.6667108e-05
1.6501694e-05
3.3328965e-05
3.3446986e-05
3.3684749e-05
3.3901453e-05
3.3915721e-05
3.4405329e-05
3.7320785e-05
4.3290638e-05
5.0418487e-05
5.6270674e-05
5.8998268e-05
5.7246909e-05
5.0001292e-05
3.6781115e-05
1.6505653e-05
3.336909e-05
3.350667e-05
3.3777759e-05
3.4021113e-05
3.4104841e-05
3.4909427e-05
3.8356183e-05
4.4681925e-05
5.1835044e-05
5.7493903e-05
5.9928689e-05
5.7861127e-05
5.0328201e-05
3.6891485e-05
1.6509738e-05
3.3422993e-05
3.3581302e-05
3.3886379e-05
3.4158132e-05
3.4335026e-05
3.5497178e-05
3.9468497e-05
4.610238e-05
5.3246483e-05
5.8698715e-05
6.0839377e-05
5.845993e-05
5.0646015e-05
3.6998485e-05
1.6513941e-05
3.3492063e-05
3.3672104e-05
3.4011488e-05
3.4314745e-05
3.4612944e-05
3.6171456e-05
4.0651816e-05
4.7546405e-05
5.4650662e-05
5.988486e-05
6.1730759e-05
5.9043795e-05
5.0954694e-05
3.7102401e-05
1.6518253e-05
3.3577786e-05
3.3780342e-05
3.4154037e-05
3.449378e-05
3.494547e-05
3.6933709e-05
4.1899823e-05
4.9008941e-05
5.6045757e-05
6.1052183e-05
6.2603259e-05
5.9613165e-05
5.1254453e-05
3.7203394e-05
1.6522666e-05
3.3681743e-05
3.3907319e-05
3.4315101e-05
3.4698734e-05
3.5339427e-05
3.7783961e-05
4.3206015e-05
5.0485456e-05
5.7430213e-05
6.2200607e-05
6.3457294e-05
6.0168498e-05
5.1545793e-05
3.7301552e-05
1.6527176e-05
3.3805609e-05
3.405438e-05
3.4495935e-05
3.4933808e-05
3.5801293e-05
3.8720881e-05
4.4563893e-05
5.1971912e-05
5.8802718e-05
6.3330117e-05
6.4293285e-05
6.0710257e-05
5.1829154e-05
3.7396982e-05
1.6531778e-05
3.3951145e-05
3.4222909e-05
3.4698049e-05
3.5203908e-05
3.6336927e-05
3.974191e-05
4.5967111e-05
5.3464728e-05
6.0162166e-05
6.4440757e-05
6.5111642e-05
6.1238777e-05
5.210494e-05
3.7489814e-05
1.6536467e-05
3.4120199e-05
3.4414345e-05
3.4923293e-05
3.5514585e-05
3.6951311e-05
4.0843429e-05
4.7409598e-05
5.4960738e-05
6.1507632e-05
6.5532611e-05
6.5912715e-05
6.1754046e-05
5.2373541e-05
3.7580194e-05
1.6541242e-05
3.4314694e-05
3.4630192e-05
3.5173951e-05
3.5871918e-05
3.7648353e-05
4.2020966e-05
4.8885631e-05
5.6457148e-05
6.2838345e-05
6.6605788e-05
6.6696871e-05
6.2256636e-05
5.2635164e-05
3.7668228e-05
1.65461e-05
3.453663e-05
3.4872057e-05
3.5452832e-05
3.6282341e-05
3.8430734e-05
4.3269401e-05
5.0389884e-05
5.7951503e-05
6.4153665e-05
6.7660429e-05
6.7464498e-05
6.2747062e-05
5.2890032e-05
3.7754002e-05
1.6551038e-05
3.4788082e-05
3.5141689e-05
3.5763348e-05
3.6752419e-05
3.9299845e-05
4.4583171e-05
5.1917447e-05
5.9441641e-05
6.5453066e-05
6.8696702e-05
6.8215998e-05
6.3225788e-05
5.3138376e-05
3.7837597e-05
1.6556052e-05
3.5071202e-05
3.5441036e-05
3.6109572e-05
3.7288592e-05
4.0255771e-05
4.5956466e-05
5.3463833e-05
6.0925673e-05
6.6736126e-05
6.9714756e-05
6.8951271e-05
6.369328e-05
5.3380448e-05
3.7919109e-05
1.6561138e-05
3.5388239e-05
3.5772321e-05
3.6496247e-05
3.7896906e-05
4.1297351e-05
4.7383396e-05
5.502496e-05
6.2401941e-05
6.8002492e-05
7.0714747e-05
6.9670801e-05
6.4149847e-05
5.3616459e-05
3.7998626e-05
1.6566295e-05
3.5741561e-05
3.6138126e-05
3.6928761e-05
3.8582754e-05
4.2422288e-05
4.8858123e-05
5.6597129e-05
6.386899e-05
6.9251877e-05
7.1696867e-05
7.0375062e-05
6.4595792e-05
5.3846597e-05
3.8076225e-05
1.6571517e-05
3.6133693e-05
3.6541483e-05
3.7413049e-05
3.9350648e-05
4.36273e-05
5.0374976e-05
5.8177003e-05
6.5325546e-05
7.0484057e-05
7.2661344e-05
7.1064493e-05
6.5031412e-05
5.4071041e-05
3.8151971e-05
1.6576803e-05
3.6567376e-05
3.6985958e-05
3.795545e-05
4.0204032e-05
4.4908286e-05
5.1928527e-05
5.9761579e-05
6.6770507e-05
7.1698848e-05
7.3608025e-05
7.1739474e-05
6.5457007e-05
5.4289983e-05
3.8225926e-05
1.6582148e-05
3.7045637e-05
3.7475723e-05
3.8562498e-05
4.1145163e-05
4.6260521e-05
5.3513642e-05
6.1348152e-05
6.8202891e-05
7.2896076e-05
7.4537213e-05
7.2400357e-05
6.587284e-05
5.4503599e-05
3.8298151e-05
1.6587549e-05
3.7571864e-05
3.8015601e-05
3.9240685e-05
4.2175049e-05
4.767883e-05
5.5125507e-05
6.293429e-05
6.962183e-05
7.4075628e-05
7.544923e-05
7.3047459e-05
6.6279159e-05
5.4712048e-05
3.8368701e-05
1.6593003e-05
3.8149897e-05
3.8611055e-05
3.9996191e-05
4.3293457e-05
4.9157764e-05
5.6759648e-05
6.4517808e-05
7.1026566e-05
7.5237359e-05
7.6344357e-05
7.3681074e-05
6.6676204e-05
5.4915476e-05
3.8437625e-05
1.6598506e-05
3.8784095e-05
3.9268133e-05
4.0834623e-05
4.4498975e-05
5.0691748e-05
5.8411925e-05
6.6096748e-05
7.2416426e-05
7.6381053e-05
7.7222835e-05
7.4301478e-05
6.7064215e-05
5.5114024e-05
3.8504968e-05
1.6604055e-05
3.9479389e-05
3.9993338e-05
4.1760763e-05
4.5789121e-05
5.2275205e-05
6.0078523e-05
6.7669334e-05
7.379078e-05
7.7506728e-05
7.8084967e-05
7.4908928e-05
6.7443413e-05
5.5307821e-05
3.8570771e-05
1.6609647e-05
4.0241287e-05
4.079344e-05
4.2778373e-05
4.716049e-05
5.3902656e-05
6.175593e-05
6.9233955e-05
7.5149088e-05
7.8614466e-05
7.8931002e-05
7.5503674e-05
6.7814e-05
5.5496989e-05
3.8635072e-05
1.6615278e-05
4.1075818e-05
4.1675231e-05
4.3890039e-05
4.8608918e-05
5.5568804e-05
6.3440943e-05
7.0789197e-05
7.6490742e-05
7.9704188e-05
7.9761138e-05
7.608596e-05
6.817617e-05
5.5681639e-05
3.8697903e-05
1.6620945e-05
4.1989406e-05
4.2645238e-05
4.5097086e-05
5.0129654e-05
5.7268572e-05
6.5130608e-05
7.2333704e-05
7.7815267e-05
8.077608e-05
8.0575573e-05
7.6656018e-05
6.8530104e-05
5.5861876e-05
3.8759296e-05
1.6626645e-05
4.2988662e-05
4.3709414e-05
4.6399559e-05
5.1717527e-05
5.8997136e-05
6.6822203e-05
7.3866247e-05
7.9122344e-05
8.183027e-05
8.13745e-05
7.721406e-05
6.8875972e-05
5.6037796e-05
3.8819278e-05
1.6632374e-05
4.4080111e-05
4.4872843e-05
4.7796257e-05
5.3367104e-05
6.0749969e-05
6.851328e-05
7.5385676e-05
8.0411492e-05
8.2866798e-05
8.2158112e-05
7.7760287e-05
6.9213932e-05
5.6209489e-05
3.8877874e-05
1.6638128e-05
4.5269851e-05
4.6139462e-05
4.9284823e-05
5.507282e-05
6.2522803e-05
7.020151e-05
7.6890883e-05
8.1682613e-05
8.3885721e-05
8.2926585e-05
7.8294888e-05
6.9544131e-05
5.6377036e-05
3.8935106e-05
1.6643906e-05
4.6563187e-05
4.7511843e-05
5.0861864e-05
5.6829081e-05
6.4311633e-05
7.1884738e-05
7.8380919e-05
8.2935577e-05
8.4887102e-05
8.3680085e-05
7.8818039e-05
6.9866705e-05
5.6540513e-05
3.8990994e-05
1.6649702e-05
4.7964261e-05
4.8991032e-05
5.25231e-05
5.8630375e-05
6.6112766e-05
7.3560987e-05
7.985476e-05
8.4170158e-05
8.5871002e-05
8.4418764e-05
7.9329905e-05
7.0181782e-05
5.669999e-05
3.9045555e-05
1.6655516e-05
4.9475719e-05
5.0576467e-05
5.4263516e-05
6.047129e-05
6.7922649e-05
7.5228297e-05
8.1311916e-05
8.5386172e-05
8.6837472e-05
8.5142765e-05
7.9830636e-05
7.0489478e-05
5.6855531e-05
3.9098807e-05
1.6661342e-05
5.1098441e-05
5.226596e-05
5.6077523e-05
6.2346616e-05
6.9738018e-05
7.6884718e-05
8.2751767e-05
8.6583449e-05
8.7786556e-05
8.5852214e-05
8.032037e-05
7.07899e-05
5.7007195e-05
3.9150763e-05
1.6667178e-05
5.2831369e-05
5.4055752e-05
5.7959072e-05
6.4251256e-05
7.1555648e-05
7.8528861e-05
8.4173707e-05
8.7761815e-05
8.8718284e-05
8.6547227e-05
8.0799235e-05
7.1083147e-05
5.7155034e-05
3.9201435e-05
1.6673021e-05
5.4671446e-05
5.5940633e-05
5.9901813e-05
6.6180328e-05
7.3372317e-05
8.015944e-05
8.5577167e-05
8.89211e-05
8.9632677e-05
8.7227902e-05
8.1267341e-05
7.1369307e-05
5.7299095e-05
3.9250834e-05
1.6678868e-05
5.6613651e-05
5.7914081e-05
6.1899094e-05
6.812892e-05
7.5185459e-05
8.1775207e-05
8.69616e-05
9.0061123e-05
9.0529739e-05
8.7894322e-05
8.1724789e-05
7.1648458e-05
5.7439422e-05
3.9298969e-05
1.6684716e-05
5.8651163e-05
5.9968444e-05
6.3944061e-05
7.0092249e-05
7.6992715e-05
8.3374975e-05
8.8326471e-05
9.1181696e-05
9.1409459e-05
8.8546553e-05
8.2171662e-05
7.1920668e-05
5.757605e-05
3.9345846e-05
1.6690562e-05
6.0775535e-05
6.2095029e-05
6.6029581e-05
7.2066163e-05
7.8791842e-05
8.495761e-05
8.9671254e-05
9.2282621e-05
9.2271807e-05
8.9184642e-05
8.2608029e-05
7.2185994e-05
5.770901e-05
3.939147e-05
1.6696402e-05
6.2976902e-05
6.4284456e-05
6.8148839e-05
7.4046668e-05
8.0580705e-05
8.6522018e-05
9.0995424e-05
9.3363681e-05
9.311673e-05
8.9808617e-05
8.3033945e-05
7.2444484e-05
5.7838326e-05
3.9435845e-05
1.6702235e-05
6.5244436e-05
6.652695e-05
7.0295068e-05
7.6029906e-05
8.2357258e-05
8.8067141e-05
9.2298455e-05
9.4424642e-05
9.3944155e-05
9.0418486e-05
8.3449445e-05
7.2696172e-05
5.7964016e-05
3.947897e-05
1.6708056e-05
6.7566725e-05
6.881252e-05
7.2461587e-05
7.8012148e-05
8.4119532e-05
8.9591946e-05
9.3579815e-05
9.5465252e-05
9.4753987e-05
9.1014232e-05
8.3854548e-05
7.294108e-05
5.8086089e-05
3.9520843e-05
1.6713863e-05
6.9932128e-05
7.1131161e-05
7.4641835e-05
7.9989779e-05
8.5865624e-05
9.1095421e-05
9.4838964e-05
9.6485238e-05
9.5546103e-05
9.159582e-05
8.4249257e-05
7.3179219e-05
5.820455e-05
3.9561458e-05
1.6719652e-05
7.2329078e-05
7.3473024e-05
7.6829409e-05
8.1959289e-05
8.7593685e-05
9.2576568e-05
9.6075356e-05
9.7484302e-05
9.6320359e-05
9.216319e-05
8.4633555e-05
7.3410585e-05
5.8319395e-05
3.9600809e-05
1.672542e-05
7.4746345e-05
7.582858e-05
7.9018102e-05
8.3917268e-05
8.9301916e-05
9.4034407e-05
9.7288432e-05
9.8462132e-05
9.7076585e-05
9.2716259e-05
8.5007404e-05
7.3635164e-05
5.8430612e-05
3.9638884e-05
1.6731164e-05
7.7173241e-05
7.818874e-05
8.1201936e-05
8.5860409e-05
9.0988563e-05
9.5467966e-05
9.8477628e-05
9.9418391e-05
9.7814588e-05
9.3254923e-05
8.5370754e-05
7.3852926e-05
5.8538181e-05
3.9675669e-05
1.6736879e-05
7.9599769e-05
8.054496e-05
8.3375204e-05
8.7785512e-05
9.2651913e-05
9.6876289e-05
9.9642373e-05
0.00010035273
9.8534154e-05
9.3779056e-05
8.5723531e-05
7.4063829e-05
5.8642076e-05
3.9711147e-05
1.6742563e-05
8.2016729e-05
8.288931e-05
8.5532498e-05
8.9689491e-05
9.4290299e-05
9.8258436e-05
0.0001007821
0.00010126478
9.9235051e-05
9.4288514e-05
8.6065648e-05
7.426782e-05
5.8742263e-05
3.9745297e-05
1.6748211e-05
8.4415768e-05
8.5214522e-05
8.7668746e-05
9.1569385e-05
9.5902104e-05
9.9613484e-05
0.00010189622
0.00010215417
9.9917029e-05
9.4783135e-05
8.6397001e-05
7.4464833e-05
5.8838701e-05
3.9778098e-05
1.6753818e-05
8.6789408e-05
8.7514016e-05
8.9779233e-05
9.3422375e-05
9.7485762e-05
0.00010094053
0.0001029842
0.00010302052
0.00010057983
9.5262741e-05
8.6717474e-05
7.4654793e-05
5.8931341e-05
3.9809523e-05
1.6759381e-05
8.9131033e-05
8.9781906e-05
9.1859619e-05
9.5245792e-05
9.903977e-05
0.00010223872
0.00010404546
0.00010386346
0.00010122318
9.5727146e-05
8.7026939e-05
7.4837613e-05
5.902013e-05
3.9839544e-05
1.6764895e-05
9.1434867e-05
9.2012984e-05
9.3905955e-05
9.7037139e-05
0.0001005627
0.0001035072
0.00010507948
0.0001046826
0.00010184682
9.6176155e-05
8.7325259e-05
7.5013203e-05
5.9105011e-05
3.9868131e-05
1.6770354e-05
9.3695925e-05
9.4202703e-05
9.5914685e-05
9.8794094e-05
0.00010205319
0.0001047452
0.00010608576
0.0001054776
0.00010245048
9.660957e-05
8.7612291e-05
7.5181463e-05
5.9185921e-05
3.9895253e-05
1.6775754e-05
9.5909963e-05
9.6347142e-05
9.7882648e-05
0.00010051453
0.00010350998
0.00010595195
0.00010706382
0.00010624811
0.0001030339
9.7027194e-05
8.788789e-05
7.5342292e-05
5.9262795e-05
3.9920877e-05
1.6781089e-05
9.8073418e-05
9.8442968e-05
9.980707e-05
0.00010219652
0.0001049319
0.00010712678
0.00010801321
0.00010699382
0.00010359683
9.7428837e-05
8.8151911e-05
7.5495587e-05
5.9335568e-05
3.9944971e-05
1.6786355e-05
0.00010018335
0.0001004874
0.00010168555
0.00010383833
0.00010631788
0.00010826906
0.00010893354
0.00010771444
0.00010413905
9.7814315e-05
8.8404213e-05
7.5641245e-05
5.9404173e-05
3.9967499e-05
1.6791544e-05
0.00010223739
0.00010247814
0.00010351606
0.00010543844
0.00010766697
0.00010937823
0.00010982446
0.00010840972
0.00010466036
9.8183464e-05
8.8644664e-05
7.5779169e-05
5.9468547e-05
3.9988432e-05
1.6796652e-05
0.00010423367
0.00010441338
0.00010529691
0.00010699555
0.00010897833
0.0001104538
0.00011068568
0.00010907945
0.00010516058
9.8536135e-05
8.887314e-05
7.5909265e-05
5.9528626e-05
4.0007736e-05
1.6801673e-05
0.00010617076
0.00010629169
0.00010702671
0.00010850855
0.00011025124
0.00011149534
0.00011151694
0.00010972345
0.00010563958
9.8872202e-05
8.9089534e-05
7.6031447e-05
5.9584355e-05
4.0025384e-05
1.68066e-05
0.00010804765
0.00010811204
0.0001087044
0.00010997653
0.00011148508
0.00011250254
0.00011231807
0.00011034161
0.00010609725
9.9191565e-05
8.9293756e-05
7.6145643e-05
5.9635682e-05
4.0041349e-05
1.6811429e-05
0.00010986366
0.00010987371
0.00011032919
0.00011139876
0.00011267939
0.00011347512
0.00011308894
0.00011093385
0.00010653351
9.9494153e-05
8.9485733e-05
7.625179e-05
5.9682562e-05
4.0055609e-05
1.6816152e-05
0.00011161844
0.0001115763
0.00011190054
0.00011277473
0.00011383379
0.0001144129
0.00011382948
0.00011150014
0.00010694835
9.9779927e-05
8.9665418e-05
7.6349842e-05
5.972496e-05
4.0068143e-05
1.6820766e-05
0.0001133119
0.00011321964
0.00011341812
0.00011410407
0.00011494804
0.0001153158
0.00011453969
0.00011204052
0.00010734178
0.00010004888
8.9832785e-05
7.6439766e-05
5.9762849e-05
4.0078938e-05
1.6825263e-05
0.00011494418
0.00011480381
0.00011488184
0.00011538658
0.000116022
0.00011618379
0.00011521962
0.00011255505
0.00010771386
0.00010030104
8.9987837e-05
7.652155e-05
5.9796215e-05
4.0087984e-05
1.6829639e-05
0.00011651562
0.00011632909
0.00011629178
0.00011662221
0.00011705565
0.00011701692
0.00011586941
0.00011304388
0.0001080647
0.00010053647
9.0130602e-05
7.6595199e-05
5.9825053e-05
4.0095276e-05
1.6833889e-05
0.00011802675
0.00011779591
0.0001176482
0.00011781107
0.00011804905
0.00011781533
0.00011648921
0.00011350717
0.00010839443
0.00010075527
9.0261137e-05
7.666074e-05
5.9849371e-05
4.0100816e-05
1.6838008e-05
0.00011947824
0.00011920488
0.00011895148
0.00011895335
0.00011900239
0.00011857922
0.00011707927
0.00011394515
0.00010870325
0.00010095758
9.0379525e-05
7.6718217e-05
5.9869191e-05
4.010461e-05
1.6841991e-05
0.00012087087
0.0001205567
0.00012020214
0.00012004941
0.00011991591
0.00011930885
0.00011763986
0.0001143581
0.00010899139
0.00010114357
9.0485882e-05
7.6767696e-05
5.9884546e-05
4.0106671e-05
1.6845834e-05
0.00012220554
0.00012185221
0.00012140083
0.00012109968
0.00012078997
0.00012000457
0.00011817132
0.00011474632
0.00010925911
0.00010131344
9.0580347e-05
7.6809267e-05
5.9895484e-05
4.010702e-05
1.6849534e-05
0.00012348325
0.00012309233
0.00012254827
0.00012210468
0.00012162498
0.00012066675
0.00011867404
0.00011511018
0.00010950672
0.00010146743
9.0663089e-05
7.6843035e-05
5.9902065e-05
4.0105681e-05
1.6853087e-05
0.00012470504
0.00012427806
0.00012364529
0.00012306503
0.00012242143
0.00012129585
0.00011914845
0.00011545008
0.00010973456
0.00010160581
9.0734303e-05
7.6869129e-05
5.9904362e-05
4.0102685e-05
1.6856491e-05
0.00012587204
0.00012541045
0.00012469276
0.00012398141
0.00012317987
0.00012189235
0.000119595
0.00011576643
0.000109943
0.00010172887
9.0794211e-05
7.6887697e-05
5.9902461e-05
4.0098069e-05
1.6859742e-05
0.00012698542
0.00012649061
0.00012569164
0.00012485456
0.0001239009
0.0001224568
0.00012001421
0.00011605971
0.00011013245
0.00010183696
9.0843054e-05
7.6898905e-05
5.9896461e-05
4.0091877e-05
1.6862841e-05
0.00012804639
0.00012751971
0.00012664291
0.00012568529
0.00012458518
0.00012298978
0.00012040661
0.00011633041
0.00011030333
0.0001019304
9.0881101e-05
7.6902935e-05
5.9886472e-05
4.0084155e-05
1.6865784e-05
0.00012905618
0.00012849892
0.00012754763
0.00012647444
0.00012523342
0.0001234919
0.00012077276
0.00011657905
0.0001104561
0.00010200959
9.0908637e-05
7.6899989e-05
5.9872614e-05
4.0074958e-05
1.6868571e-05
0.00013001606
0.00012942946
0.00012840686
0.0001272229
0.00012584633
0.00012396381
0.00012111327
0.00011680617
0.00011059124
0.00010207492
9.0925969e-05
7.6890281e-05
5.9855019e-05
4.0064342e-05
1.6871202e-05
0.0001309273
0.00013031256
0.0001292217
0.00012793159
0.00012642471
0.00012440619
0.00012142875
0.00011701234
0.00011070925
0.00010212679
9.093342e-05
7.687404e-05
5.9833825e-05
4.0052369e-05
1.6873676e-05
0.0001317912
0.00013114947
0.00012999328
0.00012860145
0.00012696934
0.00012481974
0.00012171984
0.00011719812
0.00011081063
0.00010216565
9.0931326e-05
7.6851508e-05
5.9809183e-05
4.0039104e-05
1.6875995e-05
0.00013260906
0.00013194145
0.00013072272
0.00012923347
0.00012748105
0.00012520518
0.0001219872
0.00011736413
0.00011089592