/*--------------------------------*- C++ -*----------------------------------*\
| =========                 |                                                 |
| \\      /  F ield         | OpenFOAM: The Open Source CFD Toolbox           |
|  \\    /   O peration     | Version:  2506                                  |
|   \\  /    A nd           | Website:  www.openfoam.com                      |
|    \\/     M anipulation  |                                                 |
\*---------------------------------------------------------------------------*/
FoamFile
{
    version     2.0;
    format      ascii;
    arch        "LSB;label=32;scalar=64";
    class       volScalarField;
    location    "10000/water";
    object      T;
}
// * * * * * * * * * * * * * * * * * * * * * * * * * * * * * * * * * * * * * //

dimensions      [0 0 0 1 0 0 0];

internalField   nonuniform List<scalar> 
6000
(
333.15
333.15
333.15
333.15
333.15
333.15
333.15
333.15
333.15
333.15
333.15
333.14998
333.14989
333.14924
333.14255
333.15
333.15
333.15
333.15
333.15
333.15
333.15
333.15
333.15
333.15
333.14999
333.14994
333.14968
333.14816
333.13665
333.15
333.15
333.15
333.15
333.15
333.15
333.15
333.15
333.15
333.14999
333.14997
333.14987
333.14939
333.14688
333.13169
333.15
333.15
333.15
333.15
333.15
333.15
333.15
333.15
333.15
333.14999
333.14994
333.14976
333.14902
333.14547
333.12736
333.15
333.15
333.15
333.15
333.15
333.15
333.15
333.15
333.14999
333.14997
333.1499
333.14963
333.1486
333.14395
333.12347
333.15
333.15
333.15
333.15
333.15
333.15
333.15
333.15
333.14999
333.14996
333.14985
333.14947
333.14812
333.14236
333.11993
333.15
333.15
333.15
333.15
333.15
333.15
333.15
333.14999
333.14998
333.14994
333.14978
333.14929
333.1476
333.14072
333.11667
333.15
333.15
333.15
333.15
333.15
333.15
333.15
333.14999
333.14997
333.14991
333.1497
333.14909
333.14703
333.13904
333.11365
333.15
333.15
333.15
333.15
333.15
333.15
333.15
333.14999
333.14996
333.14987
333.14961
333.14886
333.14642
333.13734
333.11083
333.15
333.15
333.15
333.15
333.15
333.15
333.14999
333.14998
333.14994
333.14983
333.14951
333.14862
333.14577
333.13563
333.1082
333.15
333.15
333.15
333.15
333.15
333.15
333.14999
333.14998
333.14993
333.14978
333.1494
333.14835
333.14509
333.13393
333.10574
333.15
333.15
333.15
333.15
333.15
333.15
333.14999
333.14997
333.1499
333.14973
333.14928
333.14807
333.14436
333.13223
333.10344
333.15
333.15
333.15
333.15
333.15
333.14999
333.14998
333.14996
333.14988
333.14967
333.14915
333.14777
333.14359
333.13054
333.10128
333.15
333.15
333.15
333.15
333.15
333.14999
333.14998
333.14994
333.14985
333.14961
333.14901
333.14744
333.14279
333.12888
333.09927
333.15
333.15
333.15
333.15
333.15
333.14999
333.14997
333.14993
333.14982
333.14954
333.14886
333.1471
333.14193
333.12724
333.0974
333.15
333.15
333.15
333.15
333.15
333.14999
333.14997
333.14991
333.14978
333.14946
333.14869
333.14672
333.14104
333.12564
333.09567
333.15
333.15
333.15
333.15
333.14999
333.14998
333.14996
333.1499
333.14974
333.14938
333.14852
333.14633
333.1401
333.12408
333.09406
333.15
333.15
333.15
333.15
333.14999
333.14998
333.14995
333.14988
333.1497
333.14929
333.14833
333.1459
333.13913
333.12257
333.09259
333.15
333.15
333.15
333.15
333.14999
333.14998
333.14994
333.14985
333.14965
333.14919
333.14813
333.14545
333.13811
333.1211
333.09124
333.15
333.15
333.15
333.14999
333.14999
333.14997
333.14993
333.14983
333.1496
333.14909
333.14792
333.14496
333.13705
333.11969
333.09001
333.15
333.15
333.15
333.14999
333.14999
333.14997
333.14992
333.1498
333.14955
333.14898
333.14769
333.14443
333.13597
333.11834
333.08889
333.15
333.15
333.15
333.14999
333.14998
333.14996
333.1499
333.14977
333.14949
333.14887
333.14744
333.14386
333.13486
333.11706
333.08788
333.15
333.15
333.15
333.14999
333.14998
333.14995
333.14989
333.14974
333.14943
333.14874
333.14718
333.14326
333.13373
333.11583
333.08696
333.15
333.15
333.14999
333.14999
333.14998
333.14994
333.14987
333.14971
333.14936
333.14861
333.14689
333.14261
333.1326
333.11468
333.08613
333.15
333.15
333.14999
333.14999
333.14997
333.14993
333.14985
333.14967
333.14929
333.14846
333.14658
333.14192
333.13147
333.11358
333.08538
333.15
333.15
333.14999
333.14998
333.14997
333.14992
333.14983
333.14963
333.14921
333.14831
333.14624
333.14119
333.13034
333.11255
333.0847
333.15
333.15
333.14999
333.14998
333.14996
333.14991
333.14981
333.14959
333.14913
333.14814
333.14587
333.14043
333.12924
333.11157
333.08409
333.15
333.14999
333.14999
333.14998
333.14995
333.1499
333.14978
333.14954
333.14904
333.14796
333.14548
333.13963
333.12815
333.11065
333.08353
333.15
333.14999
333.14999
333.14998
333.14995
333.14989
333.14976
333.14949
333.14894
333.14777
333.14505
333.13881
333.1271
333.10979
333.08303
333.14999
333.14999
333.14999
333.14997
333.14994
333.14987
333.14973
333.14944
333.14884
333.14755
333.14459
333.13796
333.12608
333.10897
333.08257
333.14999
333.14999
333.14998
333.14997
333.14993
333.14986
333.1497
333.14938
333.14873
333.14732
333.14409
333.1371
333.12509
333.1082
333.08214
333.14999
333.14999
333.14998
333.14996
333.14992
333.14984
333.14967
333.14932
333.14861
333.14707
333.14357
333.13622
333.12415
333.10747
333.08176
333.14999
333.14999
333.14998
333.14996
333.14991
333.14982
333.14964
333.14926
333.14848
333.1468
333.14301
333.13535
333.12324
333.10679
333.0814
333.14999
333.14999
333.14998
333.14995
333.1499
333.1498
333.1496
333.14919
333.14834
333.14651
333.14242
333.13448
333.12237
333.10614
333.08107
333.14999
333.14998
333.14997
333.14995
333.14989
333.14978
333.14956
333.14911
333.14819
333.14619
333.1418
333.13361
333.12153
333.10552
333.08077
333.14999
333.14998
333.14997
333.14994
333.14988
333.14976
333.14952
333.14903
333.14803
333.14584
333.14115
333.13276
333.12074
333.10494
333.08049
333.14999
333.14998
333.14997
333.14993
333.14987
333.14973
333.14947
333.14894
333.14785
333.14547
333.14049
333.13192
333.11997
333.10439
333.08023
333.14998
333.14998
333.14996
333.14993
333.14985
333.14971
333.14942
333.14885
333.14766
333.14507
333.13981
333.1311
333.11924
333.10386
333.07998
333.14998
333.14998
333.14996
333.14992
333.14984
333.14968
333.14937
333.14874
333.14744
333.14465
333.13912
333.1303
333.11854
333.10336
333.07975
333.14998
333.14997
333.14995
333.14991
333.14982
333.14965
333.14931
333.14863
333.14722
333.1442
333.13842
333.12953
333.11787
333.10289
333.07954
333.14998
333.14997
333.14995
333.1499
333.1498
333.14962
333.14925
333.14851
333.14697
333.14372
333.13772
333.12877
333.11723
333.10244
333.07933
333.14997
333.14996
333.14994
333.14989
333.14978
333.14958
333.14918
333.14838
333.1467
333.14323
333.13702
333.12804
333.11662
333.102
333.07914
333.14997
333.14996
333.14993
333.14988
333.14976
333.14954
333.14911
333.14824
333.14641
333.14271
333.13632
333.12733
333.11603
333.10159
333.07897
333.14997
333.14996
333.14993
333.14986
333.14974
333.1495
333.14903
333.14808
333.1461
333.14217
333.13562
333.12665
333.11546
333.10119
333.0788
333.14996
333.14995
333.14992
333.14985
333.14972
333.14946
333.14895
333.14791
333.14577
333.14162
333.13494
333.12598
333.11491
333.10081
333.07864
333.14996
333.14995
333.14991
333.14984
333.14969
333.14941
333.14885
333.14773
333.14542
333.14106
333.13426
333.12534
333.11439
333.10045
333.07849
333.14995
333.14994
333.1499
333.14982
333.14966
333.14936
333.14875
333.14753
333.14504
333.14048
333.1336
333.12472
333.11389
333.1001
333.07834
333.14995
333.14993
333.14989
333.1498
333.14963
333.1493
333.14865
333.14732
333.14465
333.1399
333.13294
333.12412
333.1134
333.09977
333.07821
333.14994
333.14993
333.14988
333.14979
333.1496
333.14924
333.14853
333.14709
333.14424
333.13931
333.1323
333.12353
333.11293
333.09944
333.07808
333.14994
333.14992
333.14987
333.14977
333.14956
333.14917
333.1484
333.14684
333.1438
333.13873
333.13168
333.12297
333.11248
333.09913
333.07796
333.14993
333.14991
333.14986
333.14974
333.14953
333.1491
333.14826
333.14657
333.14336
333.13814
333.13107
333.12242
333.11204
333.09883
333.07784
333.14993
333.1499
333.14984
333.14972
333.14948
333.14902
333.14811
333.14629
333.14289
333.13755
333.13047
333.12189
333.11162
333.09855
333.07773
333.14992
333.14989
333.14983
333.1497
333.14944
333.14894
333.14795
333.14599
333.14242
333.13697
333.12989
333.12137
333.11121
333.09827
333.07763
333.14991
333.14988
333.14981
333.14967
333.14939
333.14885
333.14778
333.14567
333.14193
333.1364
333.12932
333.12088
333.11082
333.098
333.07753
333.1499
333.14987
333.1498
333.14964
333.14934
333.14875
333.14759
333.14533
333.14144
333.13583
333.12876
333.12039
333.11044
333.09774
333.07743
333.14989
333.14986
333.14978
333.14961
333.14928
333.14864
333.14738
333.14498
333.14094
333.13526
333.12822
333.11992
333.11007
333.09749
333.07734
333.14988
333.14985
333.14976
333.14957
333.14922
333.14853
333.14716
333.1446
333.14044
333.13471
333.12769
333.11946
333.10971
333.09725
333.07726
333.14987
333.14983
333.14974
333.14954
333.14915
333.1484
333.14693
333.14422
333.13993
333.13416
333.12717
333.11902
333.10936
333.09701
333.07717
333.14986
333.14982
333.14971
333.1495
333.14908
333.14826
333.14668
333.14382
333.13942
333.13362
333.12667
333.11859
333.10903
333.09679
333.0771
333.14985
333.1498
333.14969
333.14945
333.149
333.14811
333.14641
333.14341
333.13891
333.13309
333.12618
333.11817
333.1087
333.09657
333.07702
333.14983
333.14978
333.14966
333.14941
333.14891
333.14795
333.14613
333.14299
333.1384
333.13257
333.1257
333.11776
333.10838
333.09635
333.07695
333.14982
333.14976
333.14963
333.14935
333.14882
333.14778
333.14583
333.14256
333.1379
333.13206
333.12523
333.11737
333.10807
333.09614
333.07688
333.1498
333.14974
333.1496
333.1493
333.14872
333.14759
333.14552
333.14212
333.13739
333.13156
333.12477
333.11698
333.10777
333.09594
333.07681
333.14978
333.14972
333.14956
333.14924
333.14861
333.14739
333.14519
333.14168
333.1369
333.13107
333.12433
333.1166
333.10747
333.09574
333.07675
333.14976
333.1497
333.14952
333.14917
333.14849
333.14718
333.14485
333.14123
333.1364
333.13058
333.12389
333.11624
333.10719
333.09555
333.07669
333.14974
333.14967
333.14948
333.1491
333.14836
333.14695
333.1445
333.14078
333.13591
333.13011
333.12346
333.11588
333.10691
333.09537
333.07663
333.14972
333.14964
333.14943
333.14902
333.14822
333.14671
333.14413
333.14032
333.13543
333.12964
333.12305
333.11553
333.10664
333.09519
333.07657
333.14969
333.14961
333.14939
333.14894
333.14807
333.14645
333.14376
333.13987
333.13495
333.12919
333.12264
333.11519
333.10637
333.09501
333.07652
333.14967
333.14957
333.14933
333.14884
333.1479
333.14618
333.14337
333.13941
333.13448
333.12874
333.12224
333.11485
333.10612
333.09484
333.07647
333.14964
333.14954
333.14927
333.14874
333.14773
333.1459
333.14298
333.13896
333.13401
333.1283
333.12185
333.11453
333.10586
333.09467
333.07642
333.1496
333.14949
333.14921
333.14863
333.14754
333.1456
333.14258
333.1385
333.13355
333.12787
333.12147
333.11421
333.10562
333.09451
333.07637
333.14957
333.14945
333.14914
333.14851
333.14734
333.14529
333.14217
333.13805
333.1331
333.12745
333.1211
333.1139
333.10537
333.09435
333.07632
333.14953
333.1494
333.14906
333.14839
333.14712
333.14497
333.14176
333.1376
333.13265
333.12703
333.12074
333.11359
333.10514
333.09419
333.07627
333.14949
333.14935
333.14898
333.14825
333.14689
333.14463
333.14135
333.13715
333.13221
333.12662
333.12038
333.11329
333.10491
333.09404
333.07623
333.14944
333.14929
333.14889
333.1481
333.14665
333.14429
333.14093
333.13671
333.13178
333.12622
333.12003
333.113
333.10468
333.09389
333.07618
333.14939
333.14922
333.14879
333.14794
333.1464
333.14394
333.14051
333.13627
333.13135
333.12583
333.11968
333.11271
333.10446
333.09374
333.07614
333.14934
333.14915
333.14868
333.14776
333.14613
333.14357
333.14009
333.13583
333.13093
333.12545
333.11935
333.11243
333.10424
333.0936
333.0761
333.14927
333.14908
333.14857
333.14757
333.14585
333.14321
333.13967
333.1354
333.13051
333.12507
333.11901
333.11216
333.10403
333.09346
333.07606
333.14921
333.14899
333.14844
333.14738
333.14555
333.14283
333.13925
333.13497
333.1301
333.12469
333.11869
333.11189
333.10382
333.09332
333.07602
333.14913
333.1489
333.1483
333.14716
333.14525
333.14245
333.13883
333.13454
333.1297
333.12433
333.11837
333.11163
333.10362
333.09318
333.07598
333.14905
333.1488
333.14815
333.14694
333.14493
333.14206
333.13841
333.13412
333.1293
333.12397
333.11806
333.11137
333.10342
333.09305
333.07594
333.14897
333.14869
333.14799
333.1467
333.1446
333.14167
333.13799
333.13371
333.12891
333.12362
333.11775
333.11111
333.10322
333.09292
333.0759
333.14887
333.14857
333.14782
333.14644
333.14427
333.14127
333.13757
333.1333
333.12852
333.12327
333.11745
333.11086
333.10303
333.09279
333.07586
333.14876
333.14844
333.14763
333.14618
333.14392
333.14088
333.13716
333.13289
333.12814
333.12293
333.11715
333.11062
333.10284
333.09266
333.07582
333.14865
333.1483
333.14743
333.1459
333.14357
333.14048
333.13675
333.13249
333.12777
333.12259
333.11686
333.11037
333.10265
333.09254
333.07578
333.14852
333.14814
333.14722
333.14561
333.14321
333.14008
333.13633
333.13209
333.1274
333.12226
333.11658
333.11014
333.10247
333.09242
333.07575
333.14838
333.14797
333.14699
333.1453
333.14284
333.13967
333.13593
333.1317
333.12704
333.12193
333.11629
333.1099
333.10229
333.09229
333.07571
333.14822
333.14779
333.14675
333.14499
333.14247
333.13927
333.13552
333.13131
333.12668
333.12161
333.11602
333.10967
333.10211
333.09217
333.07567
333.14805
333.14759
333.14649
333.14466
333.14209
333.13887
333.13512
333.13092
333.12632
333.12129
333.11574
333.10945
333.10193
333.09206
333.07563
333.14787
333.14738
333.14622
333.14432
333.14171
333.13847
333.13472
333.13054
333.12597
333.12098
333.11547
333.10922
333.10176
333.09194
333.07559
333.14767
333.14715
333.14593
333.14398
333.14132
333.13806
333.13432
333.13017
333.12563
333.12068
333.11521
333.109
333.10159
333.09182
333.07556
333.14746
333.14691
333.14563
333.14362
333.14093
333.13766
333.13393
333.12979
333.12529
333.12037
333.11495
333.10879
333.10142
333.09171
333.07552
333.14722
333.14664
333.14532
333.14326
333.14053
333.13726
333.13353
333.12943
333.12495
333.12008
333.11469
333.10857
333.10125
333.09159
333.07548
333.14697
333.14636
333.14499
333.14289
333.14014
333.13686
333.13315
333.12906
333.12462
333.11978
333.11444
333.10836
333.10108
333.09148
333.07544
333.1467
333.14607
333.14465
333.14251
333.13974
333.13646
333.13276
333.1287
333.12429
333.11949
333.11419
333.10815
333.10092
333.09137
333.0754
333.1464
333.14575
333.1443
333.14212
333.13933
333.13606
333.13238
333.12835
333.12397
333.1192
333.11394
333.10795
333.10076
333.09126
333.07536
333.14609
333.14542
333.14393
333.14173
333.13893
333.13566
333.132
333.128
333.12365
333.11892
333.11369
333.10774
333.1006
333.09115
333.07532
333.14576
333.14507
333.14356
333.14133
333.13853
333.13526
333.13162
333.12765
333.12334
333.11864
333.11345
333.10754
333.10044
333.09104
333.07528
333.14541
333.14471
333.14317
333.14093
333.13812
333.13487
333.13125
333.1273
333.12303
333.11837
333.11321
333.10734
333.10029
333.09093
333.07524
333.14505
333.14432
333.14277
333.14052
333.13771
333.13448
333.13088
333.12696
333.12272
333.11809
333.11298
333.10715
333.10013
333.09083
333.0752
333.14466
333.14393
333.14236
333.1401
333.13731
333.13409
333.13051
333.12662
333.12241
333.11782
333.11275
333.10695
333.09998
333.09072
333.07516
333.14426
333.14352
333.14194
333.13969
333.1369
333.1337
333.13015
333.12629
333.12211
333.11756
333.11252
333.10676
333.09982
333.09061
333.07511
333.14383
333.14309
333.14152
333.13926
333.13649
333.13331
333.12979
333.12596
333.12181
333.11729
333.11229
333.10657
333.09967
333.0905
333.07507
333.1434
333.14266
333.14108
333.13884
333.13608
333.13292
333.12943
333.12563
333.12152
333.11703
333.11206
333.10638
333.09952
333.0904
333.07503
333.14295
333.14221
333.14064
333.13841
333.13567
333.13254
333.12907
333.1253
333.12122
333.11677
333.11184
333.10619
333.09937
333.09029
333.07498
333.14249
333.14175
333.14019
333.13798
333.13526
333.13215
333.12872
333.12498
333.12093
333.11652
333.11162
333.106
333.09922
333.09019
333.07493
333.14202
333.14129
333.13974
333.13755
333.13485
333.13177
333.12836
333.12466
333.12064
333.11626
333.1114
333.10582
333.09908
333.09008
333.07489
333.14153
333.14081
333.13928
333.13711
333.13444
333.13139
333.12801
333.12434
333.12036
333.11601
333.11118
333.10564
333.09893
333.08998
333.07484
333.14104
333.14033
333.13882
333.13667
333.13403
333.13101
333.12766
333.12403
333.12008
333.11576
333.11096
333.10545
333.09878
333.08987
333.07479
333.14055
333.13984
333.13835
333.13623
333.13362
333.13063
333.12732
333.12371
333.11979
333.11551
333.11075
333.10527
333.09864
333.08977
333.07474
333.14004
333.13935
333.13788
333.13579
333.13321
333.13025
333.12697
333.1234
333.11952
333.11527
333.11053
333.10509
333.09849
333.08966
333.07469
333.13953
333.13885
333.13741
333.13535
333.1328
333.12988
333.12663
333.12309
333.11924
333.11502
333.11032
333.10491
333.09835
333.08955
333.07464
333.13902
333.13835
333.13693
333.1349
333.13239
333.1295
333.12629
333.12278
333.11896
333.11478
333.11011
333.10474
333.09821
333.08945
333.07458
333.1385
333.13785
333.13645
333.13446
333.13198
333.12913
333.12595
333.12248
333.11869
333.11454
333.1099
333.10456
333.09806
333.08934
333.07453
333.13799
333.13734
333.13598
333.13401
333.13157
333.12875
333.12561
333.12217
333.11842
333.1143
333.10969
333.10438
333.09792
333.08923
333.07447
333.13747
333.13684
333.1355
333.13357
333.13117
333.12838
333.12527
333.12187
333.11815
333.11406
333.10948
333.10421
333.09777
333.08913
333.07441
333.13695
333.13633
333.13502
333.13312
333.13076
333.12801
333.12494
333.12157
333.11788
333.11382
333.10928
333.10403
333.09763
333.08902
333.07435
333.13643
333.13583
333.13454
333.13268
333.13035
333.12764
333.1246
333.12126
333.11761
333.11358
333.10907
333.10386
333.09749
333.08891
333.07429
333.13591
333.13533
333.13406
333.13224
333.12995
333.12727
333.12427
333.12097
333.11734
333.11335
333.10887
333.10368
333.09734
333.0888
333.07423
333.1354
333.13482
333.13359
333.1318
333.12954
333.1269
333.12394
333.12067
333.11708
333.11311
333.10866
333.10351
333.0972
333.08869
333.07417
333.13489
333.13432
333.13311
333.13136
333.12914
333.12654
333.12361
333.12037
333.11681
333.11288
333.10846
333.10333
333.09706
333.08858
333.0741
333.13438
333.13383
333.13264
333.13092
333.12874
333.12617
333.12328
333.12008
333.11655
333.11265
333.10826
333.10316
333.09691
333.08847
333.07404
333.13387
333.13333
333.13217
333.13048
333.12834
333.12581
333.12295
333.11978
333.11629
333.11241
333.10805
333.10298
333.09677
333.08836
333.07397
333.13337
333.13284
333.13171
333.13005
333.12794
333.12545
333.12262
333.11949
333.11602
333.11218
333.10785
333.10281
333.09662
333.08825
333.0739
333.13287
333.13235
333.13124
333.12961
333.12754
333.12509
333.1223
333.11919
333.11576
333.11195
333.10765
333.10264
333.09648
333.08813
333.07383
333.13237
333.13187
333.13078
333.12918
333.12715
333.12473
333.12197
333.1189
333.1155
333.11172
333.10744
333.10246
333.09633
333.08802
333.07375
333.13188
333.13139
333.13032
333.12876
333.12675
333.12437
333.12165
333.11861
333.11524
333.11149
333.10724
333.10229
333.09619
333.0879
333.07368
333.13139
333.13091
333.12987
333.12833
333.12636
333.12401
333.12133
333.11832
333.11498
333.11126
333.10704
333.10211
333.09604
333.08778
333.0736
333.13091
333.13044
333.12942
333.12791
333.12597
333.12366
333.12101
333.11803
333.11472
333.11103
333.10684
333.10194
333.09589
333.08766
333.07352
333.13043
333.12997
333.12897
333.12749
333.12559
333.12331
333.12069
333.11775
333.11447
333.1108
333.10664
333.10176
333.09574
333.08754
333.07344
333.12996
333.12951
333.12853
333.12708
333.1252
333.12295
333.12037
333.11746
333.11421
333.11057
333.10643
333.10159
333.09559
333.08742
333.07335
333.12949
333.12905
333.12809
333.12666
333.12482
333.12261
333.12005
333.11717
333.11395
333.11034
333.10623
333.10141
333.09544
333.0873
333.07327
333.12903
333.12859
333.12765
333.12625
333.12444
333.12226
333.11974
333.11689
333.1137
333.11011
333.10603
333.10123
333.09529
333.08717
333.07318
333.12857
333.12814
333.12722
333.12585
333.12406
333.12191
333.11942
333.1166
333.11344
333.10989
333.10583
333.10105
333.09514
333.08705
333.07309
333.12811
333.1277
333.12679
333.12544
333.12369
333.12157
333.11911
333.11632
333.11319
333.10966
333.10562
333.10088
333.09498
333.08692
333.07299
333.12767
333.12726
333.12637
333.12505
333.12332
333.12123
333.1188
333.11604
333.11293
333.10943
333.10542
333.1007
333.09483
333.08679
333.0729
333.12722
333.12682
333.12595
333.12465
333.12295
333.12089
333.11849
333.11576
333.11268
333.1092
333.10522
333.10052
333.09467
333.08666
333.0728
333.12679
333.12639
333.12554
333.12426
333.12259
333.12055
333.11818
333.11548
333.11242
333.10897
333.10501
333.10034
333.09452
333.08653
333.0727
333.12635
333.12597
333.12513
333.12387
333.12222
333.12022
333.11787
333.1152
333.11217
333.10875
333.10481
333.10016
333.09436
333.0864
333.0726
333.12593
333.12555
333.12472
333.12349
333.12186
333.11988
333.11757
333.11492
333.11192
333.10852
333.10461
333.09998
333.0942
333.08626
333.0725
333.1255
333.12513
333.12432
333.1231
333.12151
333.11955
333.11726
333.11464
333.11167
333.10829
333.1044
333.09979
333.09404
333.08612
333.07239
333.12508
333.12472
333.12392
333.12273
333.12115
333.11922
333.11696
333.11436
333.11142
333.10806
333.1042
333.09961
333.09388
333.08599
333.07228
333.12467
333.12431
333.12353
333.12235
333.1208
333.1189
333.11666
333.11409
333.11116
333.10784
333.10399
333.09943
333.09371
333.08585
333.07217
333.12426
333.12391
333.12314
333.12198
333.12045
333.11857
333.11636
333.11381
333.11091
333.10761
333.10379
333.09924
333.09355
333.0857
333.07205
333.12386
333.12351
333.12276
333.12161
333.12011
333.11825
333.11606
333.11354
333.11066
333.10738
333.10358
333.09906
333.09339
333.08556
333.07194
333.12346
333.12312
333.12238
333.12125
333.11976
333.11793
333.11577
333.11327
333.11042
333.10715
333.10337
333.09887
333.09322
333.08541
333.07182
333.12307
333.12273
333.122
333.12089
333.11942
333.11761
333.11547
333.113
333.11017
333.10693
333.10317
333.09868
333.09305
333.08527
333.0717
333.12268
333.12235
333.12163
333.12053
333.11909
333.1173
333.11518
333.11273
333.10992
333.1067
333.10296
333.0985
333.09288
333.08512
333.07158
333.1223
333.12197
333.12126
333.12018
333.11875
333.11699
333.11489
333.11246
333.10967
333.10647
333.10275
333.09831
333.09271
333.08497
333.07145
333.12192
333.1216
333.12089
333.11983
333.11842
333.11667
333.1146
333.11219
333.10942
333.10624
333.10255
333.09812
333.09254
333.08482
333.07132
333.12154
333.12122
333.12053
333.11948
333.11809
333.11637
333.11431
333.11192
333.10918
333.10602
333.10234
333.09793
333.09237
333.08466
333.07119
333.12117
333.12086
333.12018
333.11914
333.11777
333.11606
333.11402
333.11166
333.10893
333.10579
333.10213
333.09774
333.0922
333.08451
333.07106
333.1208
333.12049
333.11982
333.1188
333.11744
333.11575
333.11374
333.11139
333.10868
333.10556
333.10192
333.09755
333.09202
333.08435
333.07093
333.12044
333.12014
333.11947
333.11846
333.11712
333.11545
333.11346
333.11113
333.10844
333.10534
333.10171
333.09735
333.09184
333.08419
333.07079
333.12008
333.11978
333.11913
333.11813
333.1168
333.11515
333.11317
333.11086
333.1082
333.10511
333.1015
333.09716
333.09167
333.08403
333.07065
333.11972
333.11943
333.11878
333.1178
333.11649
333.11485
333.11289
333.1106
333.10795
333.10488
333.10129
333.09697
333.09149
333.08387
333.07051
333.11937
333.11908
333.11844
333.11747
333.11618
333.11456
333.11262
333.11034
333.10771
333.10466
333.10108
333.09677
333.09131
333.0837
333.07037
333.11903
333.11874
333.11811
333.11715
333.11587
333.11426
333.11234
333.11008
333.10746
333.10443
333.10087
333.09658
333.09113
333.08354
333.07022
333.11868
333.1184
333.11778
333.11683
333.11556
333.11397
333.11206
333.10982
333.10722
333.1042
333.10066
333.09638
333.09095
333.08337
333.07007
333.11834
333.11806
333.11745
333.11651
333.11525
333.11368
333.11179
333.10956
333.10698
333.10398
333.10045
333.09618
333.09076
333.0832
333.06993
333.11801
333.11773
333.11712
333.11619
333.11495
333.11339
333.11151
333.10931
333.10674
333.10375
333.10024
333.09598
333.09058
333.08303
333.06977
333.11767
333.1174
333.1168
333.11588
333.11465
333.11311
333.11124
333.10905
333.1065
333.10353
333.10002
333.09579
333.09039
333.08286
333.06962
333.11734
333.11707
333.11648
333.11557
333.11435
333.11282
333.11097
333.1088
333.10626
333.1033
333.09981
333.09559
333.09021
333.08269
333.06947
333.11702
333.11675
333.11616
333.11526
333.11406
333.11254
333.1107
333.10854
333.10602
333.10307
333.0996
333.09539
333.09002
333.08252
333.06931
333.1167
333.11643
333.11585
333.11496
333.11376
333.11226
333.11044
333.10829
333.10578
333.10285
333.09939
333.09519
333.08983
333.08234
333.06915
333.11638
333.11611
333.11554
333.11466
333.11347
333.11198
333.11017
333.10804
333.10554
333.10262
333.09917
333.09498
333.08964
333.08216
333.06899
333.11606
333.1158
333.11523
333.11436
333.11318
333.1117
333.10991
333.10778
333.1053
333.1024
333.09896
333.09478
333.08945
333.08199
333.06883
333.11575
333.11549
333.11492
333.11406
333.11289
333.11142
333.10964
333.10753
333.10506
333.10217
333.09874
333.09458
333.08926
333.08181
333.06867
333.11543
333.11518
333.11462
333.11376
333.11261
333.11115
333.10938
333.10728
333.10482
333.10194
333.09853
333.09438
333.08907
333.08163
333.0685
333.11513
333.11488
333.11432
333.11347
333.11232
333.11088
333.10912
333.10703
333.10459
333.10172
333.09832
333.09417
333.08888
333.08145
333.06834
333.11482
333.11457
333.11402
333.11318
333.11204
333.11061
333.10886
333.10679
333.10435
333.10149
333.0981
333.09397
333.08868
333.08126
333.06817
333.11452
333.11427
333.11373
333.11289
333.11176
333.11034
333.1086
333.10654
333.10411
333.10127
333.09789
333.09376
333.08849
333.08108
333.068
333.11422
333.11398
333.11343
333.11261
333.11149
333.11007
333.10834
333.10629
333.10388
333.10104
333.09767
333.09356
333.08829
333.08089
333.06783
333.11392
333.11368
333.11314
333.11232
333.11121
333.1098
333.10809
333.10604
333.10364
333.10082
333.09746
333.09335
333.0881
333.08071
333.06765
333.11363
333.11339
333.11286
333.11204
333.11094
333.10954
333.10783
333.1058
333.10341
333.10059
333.09724
333.09315
333.0879
333.08052
333.06748
333.11334
333.1131
333.11257
333.11176
333.11066
333.10927
333.10758
333.10555
333.10317
333.10037
333.09702
333.09294
333.0877
333.08033
333.06731
333.11305
333.11281
333.11229
333.11148
333.11039
333.10901
333.10732
333.10531
333.10294
333.10014
333.09681
333.09273
333.0875
333.08014
333.06713
333.11276
333.11252
333.112
333.1112
333.11012
333.10875
333.10707
333.10507
333.1027
333.09992
333.09659
333.09252
333.0873
333.07995
333.06695
333.11247
333.11224
333.11172
333.11093
333.10985
333.10849
333.10682
333.10483
333.10247
333.09969
333.09637
333.09232
333.0871
333.07976
333.06677
333.11219
333.11196
333.11145
333.11066
333.10959
333.10823
333.10657
333.10458
333.10224
333.09947
333.09616
333.09211
333.0869
333.07957
333.06659
333.11191
333.11168
333.11117
333.11039
333.10932
333.10797
333.10632
333.10434
333.102
333.09924
333.09594
333.0919
333.0867
333.07938
333.06641
333.11163
333.1114
333.1109
333.11012
333.10906
333.10772
333.10607
333.1041
333.10177
333.09902
333.09572
333.09169
333.0865
333.07918
333.06623
333.11136
333.11113
333.11062
333.10985
333.1088
333.10746
333.10582
333.10386
333.10154
333.09879
333.09551
333.09148
333.0863
333.07899
333.06604
333.11108
333.11085
333.11035
333.10958
333.10854
333.10721
333.10558
333.10362
333.10131
333.09857
333.09529
333.09127
333.08609
333.0788
333.06586
333.11081
333.11058
333.11009
333.10932
333.10828
333.10695
333.10533
333.10338
333.10107
333.09834
333.09507
333.09106
333.08589
333.0786
333.06567
333.11054
333.11031
333.10982
333.10906
333.10802
333.1067
333.10509
333.10314
333.10084
333.09812
333.09485
333.09084
333.08569
333.0784
333.06549
333.11027
333.11004
333.10955
333.1088
333.10777
333.10645
333.10484
333.10291
333.10061
333.09789
333.09463
333.09063
333.08548
333.07821
333.0653
333.11
333.10978
333.10929
333.10854
333.10751
333.1062
333.1046
333.10267
333.10038
333.09767
333.09442
333.09042
333.08527
333.07801
333.06511
333.10973
333.10951
333.10903
333.10828
333.10726
333.10595
333.10435
333.10243
333.10015
333.09744
333.0942
333.09021
333.08507
333.07781
333.06492
333.10947
333.10925
333.10877
333.10802
333.107
333.10571
333.10411
333.1022
333.09992
333.09722
333.09398
333.09
333.08486
333.07761
333.06473
333.10921
333.10899
333.10851
333.10776
333.10675
333.10546
333.10387
333.10196
333.09969
333.09699
333.09376
333.08978
333.08466
333.07741
333.06454
333.10894
333.10873
333.10825
333.10751
333.1065
333.10521
333.10363
333.10172
333.09946
333.09677
333.09354
333.08957
333.08445
333.07721
333.06435
333.10868
333.10847
333.10799
333.10725
333.10625
333.10497
333.10339
333.10149
333.09923
333.09654
333.09332
333.08936
333.08424
333.07701
333.06416
333.10843
333.10821
333.10774
333.107
333.106
333.10472
333.10315
333.10126
333.099
333.09632
333.0931
333.08914
333.08403
333.0768
333.06396
333.10817
333.10796
333.10748
333.10675
333.10575
333.10448
333.10291
333.10102
333.09877
333.0961
333.09288
333.08893
333.08382
333.0766
333.06377
333.10791
333.1077
333.10723
333.1065
333.10551
333.10424
333.10267
333.10079
333.09854
333.09587
333.09266
333.08871
333.08361
333.0764
333.06357
333.10766
333.10745
333.10698
333.10625
333.10526
333.104
333.10243
333.10055
333.09831
333.09565
333.09244
333.0885
333.08341
333.0762
333.06338
333.10741
333.10719
333.10673
333.106
333.10502
333.10375
333.1022
333.10032
333.09809
333.09542
333.09223
333.08829
333.0832
333.07599
333.06318
333.10715
333.10694
333.10648
333.10576
333.10477
333.10351
333.10196
333.10009
333.09786
333.0952
333.09201
333.08807