/*--------------------------------*- C++ -*----------------------------------*\
| =========                 |                                                 |
| \\      /  F ield         | OpenFOAM: The Open Source CFD Toolbox           |
|  \\    /   O peration     | Version:  2506                                  |
|   \\  /    A nd           | Website:  www.openfoam.com                      |
|    \\/     M anipulation  |                                                 |
\*---------------------------------------------------------------------------*/
FoamFile
{
    version     2.0;
    format      ascii;
    arch        "LSB;label=32;scalar=64";
    class       volVectorField;
    location    "10000/water";
    object      U;
}
// * * * * * * * * * * * * * * * * * * * * * * * * * * * * * * * * * * * * * //

dimensions      [0 1 -1 0 0 0 0];

internalField   nonuniform List<vector> 
6000
(
(0.25028648 -3.4193492e-05 5.7110369e-19)
(0.25028875 -7.4648812e-05 -6.5762844e-18)
(0.25029344 -0.00011804414 -2.5703984e-19)
(0.25030059 -0.00016540046 3.0582371e-19)
(0.25031046 -0.00021487336 3.2811667e-19)
(0.25032332 -0.00026685039 5.6536339e-19)
(0.25033948 -0.00032192175 -4.6999456e-20)
(0.25035939 -0.00038078672 -1.4444944e-19)
(0.25038356 -0.00044434477 5.4337456e-20)
(0.25041254 -0.00051362452 7.1120574e-21)
(0.25044587 -0.00058677559 -9.4861175e-20)
(0.25047643 -0.00065822056 -2.5940242e-20)
(0.25046276 -0.00078466513 -2.9869423e-20)
(0.25013031 -0.0015987837 -4.6701212e-20)
(0.24584996 0.0019968142 -1.1561141e-20)
(0.25104035 -3.7261304e-05 -7.6114383e-20)
(0.25104514 -8.9895979e-05 -4.8998933e-18)
(0.2510558 -0.00014352114 -1.0661191e-18)
(0.25107219 -0.00020025424 3.2987583e-19)
(0.2510947 -0.0002571822 1.4578527e-18)
(0.25112368 -0.00031440571 7.4740481e-19)
(0.25115965 -0.00037188242 1.5730649e-19)
(0.25120324 -0.00042947839 -8.7150976e-20)
(0.2512551 -0.00048709454 1.6340101e-19)
(0.25131538 -0.00054561245 2.2768631e-19)
(0.25138039 -0.00060405492 -2.5659334e-19)
(0.25142587 -0.00063755821 -1.0676397e-20)
(0.25133175 -0.00059164843 -1.9834177e-20)
(0.25037931 -0.0014370973 -4.7247222e-20)
(0.24194277 0.00099520264 4.3544045e-20)
(0.25195051 -3.6589029e-05 -1.5968181e-18)
(0.25195563 -9.0250613e-05 3.2935805e-18)
(0.25196731 -0.00014313025 6.3347431e-19)
(0.25198528 -0.00019912655 -7.9937968e-19)
(0.25200977 -0.00025508716 9.4841586e-19)
(0.25204101 -0.0003112558 -6.6267284e-19)
(0.25207932 -0.00036762123 -6.8256009e-19)
(0.25212505 -0.00042413945 -3.1525534e-19)
(0.25217823 -0.00048056787 -3.8073482e-19)
(0.25223708 -0.0005377572 2.078508e-19)
(0.25229114 -0.00060007155 -3.9365703e-19)
(0.25229033 -0.00065419842 -3.4582374e-19)
(0.25200573 -0.00054460881 -2.7682082e-19)
(0.25014357 -0.0012195308 -1.5891009e-19)
(0.23758495 0.00043820543 -9.387104e-20)
(0.25283353 -3.7446604e-05 2.660386e-18)
(0.25283867 -9.3611088e-05 7.9488688e-19)
(0.25285018 -0.00014906892 8.8401682e-19)
(0.25286783 -0.00020791578 -7.3773918e-19)
(0.25289182 -0.00026672308 7.7330893e-19)
(0.25292238 -0.00032582165 -2.6016946e-19)
(0.25295982 -0.00038519269 -3.8784112e-19)
(0.25300432 -0.00044485276 -2.8524218e-19)
(0.25305525 -0.00050441426 -2.8052437e-19)
(0.25310809 -0.00056332944 4.316228e-19)
(0.25314261 -0.00062607506 -1.8877375e-19)
(0.25307635 -0.00069910336 -2.7608519e-19)
(0.25255493 -0.0005845712 -2.9837757e-19)
(0.24963188 -0.001063787 -2.0716728e-19)
(0.23320285 0.0001058672 -1.0984584e-19)
(0.25372643 -3.8342943e-05 1.2662638e-17)
(0.2537317 -9.6368691e-05 2.2607683e-18)
(0.25374347 -0.00015372841 1.4432324e-18)
(0.25376156 -0.00021453144 9.0356757e-19)
(0.25378616 -0.00027516439 4.3788429e-19)
(0.25381749 -0.00033599427 7.4271236e-19)
(0.25385581 -0.00039694563 6.9404782e-19)
(0.25390101 -0.00045805575 3.7795808e-19)
(0.25395133 -0.00051907431 1.1859554e-19)
(0.25399821 -0.00057855465 2.0799771e-19)
(0.25400834 -0.00063773998 3.396719e-19)
(0.25386022 -0.0007177221 1.9563152e-19)
(0.25305737 -0.00062191547 -5.3574126e-21)
(0.24895451 -0.00093835859 8.124758e-21)
(0.22897365 -8.3792337e-05 5.5248356e-20)
(0.25464474 -3.8661619e-05 6.6930944e-19)
(0.25465014 -9.7320119e-05 -5.110757e-19)
(0.2546622 -0.00015516462 1.0064325e-18)
(0.25468073 -0.00021648308 6.6394605e-19)
(0.2547059 -0.00027758564 -6.7625138e-19)
(0.25473792 -0.000338881 5.8153867e-19)
(0.25477689 -0.00040025681 2.914121e-19)
(0.25482222 -0.000461728 2.9067599e-19)
(0.25487049 -0.00052322808 1.3941191e-19)
(0.2549078 -0.000583188 2.0671809e-19)
(0.25488519 -0.00063896641 3.7821031e-19)
(0.25463685 -0.00071821651 1.9300934e-19)
(0.25350729 -0.0006469875 4.4097922e-20)
(0.248129 -0.00083894719 2.2044689e-20)
(0.2249409 -0.00018589273 -6.4488895e-20)
(0.25557031 -3.8595293e-05 -5.7298067e-18)
(0.25557581 -9.7309346e-05 -2.4967419e-18)
(0.25558805 -0.00015511982 -1.3679153e-18)
(0.25560682 -0.00021642526 8.4816083e-20)
(0.2556323 -0.00027749359 -8.7205291e-19)
(0.25566463 -0.00033876345 4.328091e-19)
(0.25570371 -0.00040009734 3.7295056e-19)
(0.25574825 -0.00046144626 1.453307e-19)
(0.25579256 -0.00052279714 4.3741006e-19)
(0.25581623 -0.0005828814 5.4040877e-19)
(0.25575267 -0.00063600478 2.1719398e-19)
(0.25538743 -0.00071016267 2.0278884e-19)
(0.25388915 -0.00066107344 5.8642341e-20)
(0.24716598 -0.00076077854 -3.2619557e-20)
(0.22112141 -0.00023459296 -1.1671364e-19)
(0.25649134 -3.8297106e-05 6.1394391e-18)
(0.25649692 -9.6712128e-05 2.4881107e-18)
(0.25650928 -0.00015419069 1.0748373e-18)
(0.25652824 -0.00021515485 4.4730024e-19)
(0.25655393 -0.00027585718 -6.5741447e-19)
(0.25658641 -0.0003367553 6.9110556e-20)
(0.25662528 -0.00039769653 5.4647262e-19)
(0.2566683 -0.00045856441 2.4868535e-19)
(0.25670691 -0.00051927104 3.7010537e-19)
(0.25671305 -0.00057893859 1.9565609e-19)
(0.25660095 -0.00063003278 3.7394952e-19)
(0.25610359 -0.00069722485 1.3986934e-19)
(0.25419746 -0.0006651972 8.6422208e-21)
(0.24608527 -0.00069788903 2.1543142e-20)
(0.21752738 -0.00025081848 -2.9461894e-20)
(0.25740382 -3.7852859e-05 -6.3939203e-19)
(0.25740947 -9.5689493e-05 -9.7176097e-19)
(0.25742193 -0.00015257331 1.0024393e-18)
(0.25744104 -0.00021291358 7.0329621e-19)
(0.25746687 -0.00027297291 6.8707036e-19)
(0.25749936 -0.0003332193 8.3891822e-20)
(0.2575377 -0.00039348924 2.2814089e-19)
(0.2575784 -0.00045361301 4.0634955e-19)
(0.25760945 -0.00051335259 4.1258087e-19)
(0.25759421 -0.00057212213 5.1658869e-19)
(0.25742635 -0.00062159363 4.1532348e-19)
(0.25678237 -0.00068144217 7.3344546e-20)
(0.25443121 -0.00066103685 1.5552499e-20)
(0.24490935 -0.00064561644 -1.7152828e-20)
(0.21416513 -0.00024776584 -1.0243619e-20)
(0.25830515 -3.7308638e-05 -2.4668504e-18)
(0.25831084 -9.4372768e-05 -1.7586395e-18)
(0.25832339 -0.00015047649 -7.8373317e-19)
(0.2583426 -0.00020999612 1.0281947e-18)
(0.25836849 -0.00026922145 2.1228555e-19)
(0.25840083 -0.00032862339 3.0231026e-19)
(0.25843826 -0.00038802595 2.6979126e-19)
(0.25847573 -0.00044722018 2.9105958e-19)
(0.25849727 -0.00050579279 2.9886156e-19)
(0.25845683 -0.00056328987 4.3439592e-19)
(0.25822634 -0.00061131676 3.2118687e-19)
(0.25742154 -0.00066417743 7.4495609e-20)
(0.2545896 -0.00065044234 1.4408613e-20)
(0.24365871 -0.00060064453 -6.0162299e-20)
(0.21103455 -0.00023378679 9.8884297e-21)
(0.259193 -3.669388e-05 7.5768917e-18)
(0.25919873 -9.2857459e-05 4.9847219e-18)
(0.25921134 -0.00014806165 -1.717738e-18)
(0.25923061 -0.00020663289 3.1161702e-19)
(0.25925648 -0.0002648995 8.4993086e-19)
(0.25928848 -0.00032332972 5.104984e-19)
(0.25932457 -0.00038173097 5.2864223e-19)
(0.25935785 -0.00043986308 3.1266289e-19)
(0.25936788 -0.00049714489 2.5484963e-19)
(0.25929853 -0.00055310431 -1.5477375e-19)
(0.2589988 -0.00059970361 2.6634334e-19)
(0.25801896 -0.00064623361 2.0562186e-19)
(0.25467145 -0.00063499349 1.3862918e-20)
(0.24235144 -0.00056062195 7.1484108e-21)
(0.20813123 -0.0002141088 2.4054787e-20)
(0.26006576 -3.6034054e-05 6.6239502e-18)
(0.26007152 -9.1214284e-05 5.4928091e-18)
(0.26008417 -0.00014544281 -1.1664783e-19)
(0.26010346 -0.00020298347 -1.7501122e-19)
(0.26012923 -0.00026021093 2.4498371e-19)
(0.2601607 -0.00031758689 4.3366859e-19)
(0.26019497 -0.00037489796 3.2056466e-19)
(0.26022303 -0.0004318747 5.2714634e-19)
(0.26021952 -0.00048779066 3.3348581e-19)
(0.26011767 -0.00054204301 3.9763368e-20)
(0.25974224 -0.00058714002 2.2310301e-19)
(0.25857279 -0.00062806077 1.9523825e-19)
(0.25467557 -0.00061594005 1.1643899e-19)
(0.24100379 -0.00052390611 1.3816625e-20)
(0.20544863 -0.00019196316 -4.0294358e-20)
(0.2609225 -3.5349633e-05 2.7294068e-18)
(0.26092828 -8.9497286e-05 3.5874421e-18)
(0.26094096 -0.00014270541 1.0126556e-18)
(0.26096023 -0.00019916671 4.0709689e-19)
(0.2609858 -0.00025530722 2.9731169e-19)
(0.2610165 -0.00031157921 6.1798815e-19)
(0.26104844 -0.00036774517 3.6621505e-19)
(0.2610702 -0.00042350433 3.4681178e-19)
(0.26105114 -0.00047801113 1.3152458e-19)
(0.26091327 -0.00053046086 1.3488633e-19)
(0.2604557 -0.00057393662 1.0396908e-19)
(0.2590814 -0.00060990566 2.2606059e-19)
(0.2546009 -0.00059424331 1.3277563e-19)
(0.23963056 -0.00048937354 4.6901384e-20)
(0.20297926 -0.00016931833 -5.4989944e-20)
(0.26176274 -3.4655538e-05 1.740439e-18)
(0.26176854 -8.7746855e-05 2.0851579e-18)
(0.26178122 -0.00013991377 -8.685945e-19)
(0.26180042 -0.00019527246 6.2738044e-19)
(0.26182568 -0.00025030306 9.0314035e-19)
(0.26185536 -0.00030544608 4.5506674e-19)
(0.26188442 -0.00036043768 3.8576693e-19)
(0.26189878 -0.00041494196 5.347906e-20)
(0.26186213 -0.00046801762 1.9095339e-19)
(0.2616848 -0.00051862213 -1.0983484e-19)
(0.26113855 -0.00056034346 4.4099327e-20)
(0.25954316 -0.00059189152 3.1040833e-19)
(0.25444651 -0.0005706321 1.6376864e-19)
(0.23824529 -0.00045627776 6.0459619e-20)
(0.20071509 -0.00014735259 5.4462255e-21)
(0.26258633 -3.396306e-05 2.7962524e-18)
(0.26259213 -8.5993781e-05 8.343512e-20)
(0.26260479 -0.00013711719 2.241233e-18)
(0.26262388 -0.00019136968 1.2210417e-18)
(0.2626487 -0.00024528655 -7.4342937e-19)
(0.26267708 -0.00029929459 6.1361042e-20)
(0.26270267 -0.00035310243 2.7717756e-19)
(0.26270848 -0.00040633486 7.8804314e-20)
(0.26265224 -0.00045797299 2.3038364e-19)
(0.26243199 -0.00050672605 8.151079e-20)
(0.26179026 -0.00054656345 9.728897e-20)
(0.25995633 -0.0005740675 2.2219472e-19)
(0.25421177 -0.00054566294 1.9479831e-19)
(0.23686046 -0.00042415213 2.4301201e-20)
(0.19864765 -0.0001267576 1.0001906e-19)
(0.26339335 -3.32814e-05 4.5687851e-18)
(0.26339915 -8.426274e-05 3.3846264e-18)
(0.26341177 -0.0001343551 2.4057047e-18)
(0.26343068 -0.0001875135 1.6833109e-18)
(0.26345493 -0.00024032822 1.3476433e-18)
(0.26348171 -0.00029321054 1.4848336e-19)
(0.2635032 -0.00034584107 3.8626957e-20)
(0.2634993 -0.00039780175 2.5786397e-19)
(0.26342146 -0.00044800829 -9.7978461e-20)
(0.26315482 -0.00049492779 2.5244238e-19)
(0.26241041 -0.00053276478 2.0472035e-19)
(0.26031893 -0.00055643964 1.4203239e-19)
(0.2538966 -0.000519773 8.1243076e-20)
(0.23548766 -0.00039274464 1.7187298e-21)
(0.19676807 -0.00010792878 2.5964142e-20)
(0.26418413 -3.2618312e-05 1.4485447e-18)
(0.26418991 -8.2574226e-05 3.4949076e-18)
(0.26420246 -0.00013166021 1.7801395e-18)
(0.26422112 -0.0001837496 1.2856084e-18)
(0.26424465 -0.00023548648 1.4016972e-18)
(0.2642695 -0.00028726512 4.4652212e-19)
(0.26428624 -0.00033873796 2.0399474e-19)
(0.26427145 -0.00038944152 1.1492344e-19)
(0.26416998 -0.0004382328 -1.4384666e-19)
(0.26385341 -0.00048335173 9.4996036e-20)
(0.26299854 -0.00051908846 1.4106853e-19)
(0.26062878 -0.00053898815 7.964139e-20)
(0.25350187 -0.00049331965 3.6178678e-20)
(0.2341376 -0.00036197184 3.6400741e-21)
(0.19506692 -9.1079355e-05 -1.3141794e-20)
(0.26495914 -3.1980325e-05 7.6846339e-19)
(0.2649649 -8.0945389e-05 3.7341443e-18)
(0.26497734 -0.00012905989 2.5198563e-18)
(0.26499568 -0.00018011622 1.1104004e-18)
(0.26501831 -0.00023081031 8.1001018e-19)
(0.26504088 -0.00028151806 8.2863117e-19)
(0.2650522 -0.00033186392 5.2506113e-19)
(0.2650253 -0.00038133727 1.8362394e-19)
(0.26489816 -0.00042873842 2.3884637e-19)
(0.26452796 -0.00047209828 5.0491471e-20)
(0.26355413 -0.00050565096 8.8666116e-20)
(0.2608835 -0.00052167636 6.3355648e-20)
(0.25302971 -0.00046660631 8.8689903e-20)
(0.23282016 -0.00033188327 -1.8196117e-20)
(0.19353413 -7.6303786e-05 -2.0431896e-20)
(0.26571903 -3.1372764e-05 1.8176106e-18)
(0.26572475 -7.9390277e-05 2.9401325e-18)
(0.26573705 -0.00012657658 -1.185459e-19)
(0.26575498 -0.00017664472 1.0329145e-18)
(0.26577653 -0.00022633987 7.0322978e-19)
(0.26579644 -0.0002760185 8.169064e-19)
(0.26580163 -0.0003252772 2.400985e-19)
(0.26576141 -0.00037355728 1.5013884e-19)
(0.26560652 -0.00041960061 3.2672354e-19)
(0.26517878 -0.00046124611 1.4455573e-19)
(0.26407657 -0.00049254343 2.3077187e-19)
(0.26108058 -0.00050445572 1.1632494e-19)
(0.25248384 -0.00043989699 1.350501e-19)
(0.23154421 -0.00030262987 2.1432095e-20)
(0.19215888 -6.3609731e-05 -7.2406479e-20)
(0.26646455 -3.0799672e-05 6.7677271e-18)
(0.26647021 -7.791971e-05 2.3761265e-18)
(0.26648233 -0.00012422759 3.0916691e-18)
(0.26649975 -0.0001733593 1.6594387e-18)
(0.26652002 -0.00022210618 -7.3986375e-19)
(0.26653688 -0.0002708044 1.3314802e-18)
(0.26653522 -0.00031902283 9.7193118e-19)
(0.26648042 -0.00036615421 9.6270023e-19)
(0.26629564 -0.00041087723 6.1766402e-19)
(0.26580617 -0.00045085191 -2.9573931e-19)
(0.26456508 -0.00047982866 4.3235465e-19)
(0.26121753 -0.00048726982 4.3796519e-19)
(0.25186982 -0.00041342264 2.6948575e-19)
(0.23031742 -0.00027443217 2.4683356e-19)
(0.1909297 -5.2932834e-05 1.5271684e-19)
(0.26719653 -3.0263687e-05 4.627991e-18)
(0.26720212 -7.6541022e-05 1.2224592e-18)
(0.26721401 -0.00012202465 3.4096003e-18)
(0.26723083 -0.00017027641 1.3319256e-18)
(0.2672496 -0.00021813033 2.5631098e-19)
(0.26726299 -0.00026590165 1.2203118e-18)
(0.26725373 -0.0003131315 1.0720243e-18)
(0.26718309 -0.00035916374 9.3911084e-19)
(0.26696618 -0.00040260692 4.0858582e-19)
(0.26641044 -0.00044094906 -3.1988475e-19)
(0.26501868 -0.00046753759 2.3891024e-19)
(0.26129202 -0.00047005901 3.7376094e-19)
(0.25119506 -0.00038738325 2.1670577e-19)
(0.2291461 -0.00024754677 2.8257404e-19)
(0.18983455 -4.4145099e-05 2.3841216e-19)
(0.26791589 -2.9765991e-05 6.827067e-19)
(0.26792138 -7.5257932e-05 1.1674921e-18)
(0.26793299 -0.00011997376 1.7110324e-18)
(0.26794908 -0.00016740448 9.9364218e-19)
(0.26796613 -0.00021442312 1.6808455e-18)
(0.26797562 -0.00026132351 2.2228702e-19)
(0.267958 -0.00030761887 4.5851198e-19)
(0.26787018 -0.00035260382 3.3536272e-19)
(0.2676188 -0.00039480805 6.9363522e-20)
(0.2669918 -0.00043154706 -1.226174e-19)
(0.26543617 -0.00045566686 -2.4187672e-20)
(0.2613021 -0.00045276643 6.1310978e-20)
(0.2504687 -0.00036194908 8.1849386e-20)
(0.22803501 -0.00022223217 1.534844e-19)
(0.18886112 -3.7064086e-05 1.0018967e-19)
(0.26862352 -2.9306383e-05 7.8022042e-18)
(0.2686289 -7.407066e-05 2.1090236e-18)
(0.26864017 -0.00011807532 2.9958941e-18)
(0.26865542 -0.00016474412 2.8924686e-18)
(0.26867049 -0.00021098533 2.1001873e-18)
(0.26867563 -0.000257071 1.4063628e-18)
(0.26864885 -0.00030248606 1.2304854e-18)
(0.26854251 -0.00034647515 1.2805692e-18)
(0.26825414 -0.00038747924 8.4583987e-19)
(0.26755035 -0.00042263245 -1.4355015e-19)
(0.2658161 -0.00044417905 2.5168793e-19)
(0.26124652 -0.00043534493 3.5742077e-19)
(0.24970133 -0.00033726333 3.2809239e-19)
(0.22698727 -0.00019871676 3.7677971e-19)
(0.18799711 -3.1466398e-05 2.0523154e-19)
(0.26932033 -2.888346e-05 4.0997216e-18)
(0.26932558 -7.2976355e-05 -1.1948299e-18)
(0.26933645 -0.00011632481 7.423772e-19)
(0.26935072 -0.00016228909 1.8712642e-18)
(0.26936357 -0.0002078089 1.8574815e-18)
(0.26936389 -0.00025313433 1.5235715e-18)
(0.26932713 -0.0002977213 1.0464664e-18)
(0.26920083 -0.00034076321 9.217768e-19)
(0.2688728 -0.00038060158 5.55718e-19)
(0.26808605 -0.00041417146 2.7261072e-19)
(0.26615679 -0.00043300583 1.3512448e-19)
(0.26112496 -0.00041776402 3.3953798e-19)
(0.24890441 -0.00031344658 3.1155999e-19)
(0.22600436 -0.0001771726 3.6888326e-19)
(0.18723056 -2.7105585e-05 1.8501564e-19)
(0.27000719 -2.849491e-05 1.6825151e-18)
(0.27001228 -7.1969743e-05 2.5076965e-18)
(0.27002267 -0.00011471384 2.5863908e-18)
(0.27003583 -0.00016002771 1.5030897e-18)
(0.27004618 -0.00020487885 1.0332753e-18)
(0.27004119 -0.00024949516 1.4285195e-18)
(0.2699936 -0.00029330262 1.3814254e-18)
(0.26984584 -0.00033544136 8.8560477e-19)
(0.26947524 -0.00037414208 5.5615734e-19)
(0.2685986 -0.00040611399 4.2966584e-19)
(0.26645635 -0.00042205446 3.7427255e-19)
(0.2609383 -0.00040001524 3.178609e-19)
(0.24808975 -0.00029060213 4.3809646e-19)
(0.22508629 -0.00015769827 2.4540049e-19)
(0.18655015 -2.3732127e-05 2.0147876e-19)
(0.27068489 -2.8137825e-05 5.3033507e-18)
(0.2706898 -7.1043906e-05 3.7688531e-18)
(0.27069965 -0.00011323138 4.172806e-18)
(0.27071153 -0.00015794462 3.570133e-18)
(0.2707191 -0.00020217544 1.4060829e-18)
(0.27070829 -0.00024612933 2.1350566e-18)
(0.27064898 -0.00028920108 2.32045e-18)
(0.27047818 -0.00033047455 1.4069522e-18)
(0.27006181 -0.00036805783 9.3926361e-19)
(0.26908753 -0.00039839812 2.3632332e-19)
(0.26671278 -0.00041121648 6.3911456e-19)
(0.26068881 -0.00038211515 5.9737036e-19)
(0.24726882 -0.00026882041 6.2830276e-19)
(0.22423175 -0.00014031231 4.5513052e-19)
(0.18594537 -2.1112146e-05 4.2735224e-19)
(0.27135418 -2.7809012e-05 -3.7705523e-19)
(0.27135887 -7.019104e-05 3.2939726e-18)
(0.2713681 -0.00011186497 3.0702641e-18)
(0.27137855 -0.00015602247 2.4149392e-18)
(0.27138303 -0.00019967637 2.1545888e-18)
(0.27136587 -0.00024300948 1.3411009e-18)
(0.27129391 -0.00028538386 1.1596926e-18)
(0.27109836 -0.000325823 6.3529242e-19)
(0.27063272 -0.00036230005 4.4612969e-19)
(0.26955206 -0.00039095432 8.1081199e-20)
(0.26692403 -0.00040037784 2.2114966e-19)
(0.26038022 -0.00036410564 3.0249362e-19)
(0.24645221 -0.00024818088 2.6669569e-19)
(0.22343841 -0.00012495718 3.9254247e-19)
(0.18540672 -1.9041829e-05 2.6188136e-19)
(0.27201571 -2.7505236e-05 2.4381559e-18)
(0.27202015 -6.9403099e-05 3.696433e-18)
(0.27202866 -0.00011060176 3.6733033e-18)
(0.27203751 -0.00015424331 2.4163085e-18)
(0.2720386 -0.00019735858 2.1525968e-18)
(0.27201452 -0.00024010733 1.6684212e-18)
(0.27192892 -0.00028181693 9.5129919e-19)
(0.2717068 -0.00032144525 9.9582253e-19)
(0.27118802 -0.00035681747 6.6851794e-19)
(0.2699912 -0.00038370884 2.3620177e-19)
(0.26708822 -0.000389429 4.0580487e-19)
(0.26001771 -0.00034605163 4.6349743e-19)
(0.24564917 -0.00022875086 4.7435583e-19)
(0.22270325 -0.00011151161 4.9625488e-19)
(0.18492573 -1.7355842e-05 3.0397928e-19)
(0.27267005 -2.7223403e-05 2.0526859e-18)
(0.27267421 -6.8672269e-05 6.7746221e-19)
(0.27268192 -0.00010942927 1.5712394e-18)
(0.27268898 -0.00015258973 2.4271329e-18)
(0.27268634 -0.00019519966 2.5381375e-18)
(0.27265476 -0.00023739527 1.3937198e-18)
(0.27255447 -0.00027846699 1.0986063e-18)
(0.2723038 -0.00031730047 8.7927663e-19)
(0.27172757 -0.00035155884 7.0311419e-19)
(0.27040369 -0.00037658611 8.0455131e-19)
(0.26720375 -0.00037827411 3.3475109e-19)
(0.25960771 -0.00032803713 4.0602307e-19)
(0.24486735 -0.00021058184 3.8473299e-19)
(0.22202277 -9.9808138e-05 3.6777653e-19)
(0.18449494 -1.5929483e-05 3.3635253e-19)
(0.27331772 -2.6960666e-05 2.9743121e-18)
(0.27332155 -6.7991274e-05 4.3919231e-18)
(0.27332837 -0.00010833587 2.6490885e-18)
(0.27333345 -0.00015104547 2.0829052e-18)
(0.27332673 -0.00019317869 1.6388122e-18)
(0.27328702 -0.00023484751 1.1437333e-18)
(0.27317093 -0.0002753027 1.2746965e-18)
(0.27288957 -0.00031334989 7.3020619e-19)
(0.27225107 -0.00034647442 7.0609682e-19)
(0.27078808 -0.00036951039 7.9805967e-19)
(0.26726952 -0.00036683813 3.0297404e-19)
(0.25915765 -0.0003101602 3.0659235e-19)
(0.24411266 -0.00019370464 4.4395881e-19)
(0.22139331 -8.9652403e-05 2.3757771e-19)
(0.1841079 -1.467569e-05 2.2757141e-19)
(0.27395916 -2.6714475e-05 7.8450016e-18)
(0.27396262 -6.7353543e-05 5.056318e-18)
(0.27396843 -0.00010731104 4.0425526e-18)
(0.27397134 -0.00014959583 3.4976476e-18)
(0.27396016 -0.00019127672 1.6505935e-18)
(0.27391168 -0.00023244055 2.2700167e-18)
(0.2737786 -0.00027229533 2.0204913e-18)
(0.27346419 -0.00030955758 1.4323845e-18)
(0.27275806 -0.00034151677 1.0631739e-18)
(0.27114274 -0.00036240704 4.0291411e-19)
(0.26728512 -0.00035507155 6.9801971e-19)
(0.25867552 -0.00029252749 6.8789258e-19)
(0.24338933 -0.00017812521 8.0845884e-19)
(0.22081116 -8.0841195e-05 5.2157689e-19)
(0.18375901 -1.3538669e-05 3.4314173e-19)
(0.27459475 -2.648259e-05 -9.1275718e-19)
(0.2745978 -6.6753261e-05 3.9064152e-18)
(0.27460249 -0.0001063455 2.8779662e-18)
(0.274603 -0.0001482278 2.6875201e-18)
(0.27458699 -0.00018947691 2.405766e-18)
(0.27452902 -0.00023015346 1.6341966e-18)
(0.27437767 -0.00026941896 9.8555254e-19)
(0.27402763 -0.00030589064 8.5589635e-19)
(0.27324789 -0.00033664079 6.16069e-19)
(0.27146593 -0.00035520381 4.1751977e-19)
(0.26725094 -0.0003429525 4.2277137e-19)
(0.25816956 -0.0002752486 4.5937724e-19)
(0.24270004 -0.00016382255 4.2268523e-19)
(0.22027275 -7.3177116e-05 3.0292807e-19)
(0.18344349 -1.2486093e-05 2.4403652e-19)
(0.27522481 -2.6263072e-05 3.1773657e-18)
(0.27522741 -6.6185369e-05 5.1464571e-18)
(0.27523087 -0.00010543114 3.4963545e-18)
(0.27522875 -0.00014693 2.0936409e-18)
(0.27520748 -0.00018776456 2.3254478e-18)
(0.2751393 -0.00022796774 1.569942e-18)
(0.27496829 -0.00026665041 8.014876e-19)
(0.27457978 -0.00030231922 8.8125963e-19)
(0.27371976 -0.00033180361 6.6929019e-19)
(0.27175586 -0.00034783258 5.0626599e-19)
(0.26716832 -0.00033048645 3.8731006e-19)
(0.25764777 -0.00025843061 6.1504488e-19)
(0.24204621 -0.00015074941 5.5318097e-19)
(0.21977469 -6.6478894e-05 4.8184728e-19)
(0.18315725 -1.1501428e-05 3.3109288e-19)
(0.27584964 -2.6054262e-05 4.6523611e-18)
(0.27585173 -6.5645513e-05 1.9456938e-18)
(0.27585383 -0.00010456099 1.86461e-18)
(0.27584885 -0.00014569263 1.6739904e-18)
(0.27582189 -0.00018612688 2.2688274e-18)
(0.2757427 -0.00022586725 1.5142478e-18)
(0.27555053 -0.00026396905 1.0650125e-18)
(0.27512041 -0.00029881616 8.4426654e-19)
(0.27417268 -0.00032696406 6.7773807e-19)
(0.27201082 -0.00034023145 7.2418295e-19)
(0.26703956 -0.00031770399 3.6632508e-19)
(0.25711762 -0.00024217268 4.5993934e-19)
(0.24142819 -0.00013883592 3.4419841e-19)
(0.21931381 -6.0587316e-05 3.9008242e-19)
(0.18289682 -1.0577479e-05 3.2115883e-19)
(0.27646948 -2.585475e-05 3.9767281e-18)
(0.27647102 -6.5129983e-05 4.1840142e-18)
(0.27647162 -0.00010372909 3.4607998e-18)
(0.27646352 -0.00014450731 2.3393972e-18)
(0.2764304 -0.00018455289 1.4547631e-18)
(0.27633935 -0.00022383792 1.4259792e-18)
(0.27612438 -0.00026135649 1.3509603e-18)
(0.27564919 -0.00029535665 9.9076042e-19)
(0.27460555 -0.00032208226 6.3766242e-19)
(0.27222923 -0.00033234721 6.9575793e-19)
(0.26686787 -0.0003046572 3.942953e-19)
(0.25658579 -0.00022656127 2.9059049e-19)
(0.2408456 -0.00012799527 1.7863555e-19)
(0.21888719 -5.5367379e-05 2.1700424e-19)
(0.18265925 -9.711589e-06 3.231686e-19)
(0.27708455 -2.5663345e-05 8.0328933e-18)
(0.27708548 -6.4635632e-05 5.157732e-18)
(0.27708444 -0.0001029304 4.3229394e-18)
(0.27707295 -0.00014336686 3.8970218e-18)
(0.27703318 -0.00018303314 2.0059707e-18)
(0.27692935 -0.00022186744 2.2116513e-18)
(0.2766898 -0.00025879623 2.1340875e-18)
(0.27616569 -0.00029191777 1.7808845e-18)
(0.27501711 -0.00031711916 1.2274452e-18)
(0.27240981 -0.00032413774 3.4597781e-19)
(0.26665728 -0.00029141518 7.2563608e-19)
(0.256058 -0.00021166604 8.7702219e-19)
(0.24029748 -0.00011813048 7.6870625e-19)
(0.21849214 -5.0707654e-05 5.9382867e-19)
(0.18244204 -8.9025413e-06 4.4814917e-19)
(0.27769504 -2.5479045e-05 -2.8973904e-19)
(0.27769529 -6.4159808e-05 5.0424559e-18)
(0.27769247 -0.00010216065 2.0764765e-18)
(0.27767729 -0.00014226521 2.3497314e-18)
(0.27763035 -0.0001815595 2.6177992e-18)
(0.27751275 -0.00021994503 1.4696131e-18)
(0.27724666 -0.00025627339 1.277623e-18)
(0.27666938 -0.00028847797 1.0595594e-18)
(0.275406 -0.00031203634 7.7032233e-19)
(0.27255164 -0.00031557421 4.5290928e-19)
(0.26641246 -0.00027805926 3.4343627e-19)
(0.25553894 -0.00019753711 5.2718801e-19)
(0.23978254 -0.00010914113 6.0594157e-19)
(0.21812621 -4.6517868e-05 3.6042013e-19)
(0.18224308 -8.1488595e-06 2.4274656e-19)
(0.27830111 -2.5301006e-05 2.1947513e-19)
(0.27830062 -6.370027e-05 4.2140753e-18)
(0.27829586 -0.0001014162 2.6459911e-18)
(0.2782767 -0.00014119716 2.4878802e-18)
(0.278222 -0.00018012493 2.7268033e-18)
(0.27808956 -0.00021806116 1.8630191e-18)
(0.2777948 -0.00025377436 1.0588877e-18)
(0.27715962 -0.0002850166 8.8869771e-19)
(0.27577079 -0.00030679609 6.5246702e-19)
(0.27265429 -0.00030664249 6.490849e-19)
(0.26613848 -0.00026467813 5.5290124e-19)
(0.2550323 -0.00018420368 5.2282837e-19)
(0.23929925 -0.00010092916 6.7156232e-19)
(0.21778713 -4.2725646e-05 5.8378758e-19)
(0.18206056 -7.448143e-06 3.2063424e-19)
(0.27890291 -2.5128517e-05 2.3529275e-18)
(0.27890162 -6.3255128e-05 2.0062376e-19)
(0.27889474 -0.00010069401 1.6278738e-18)
(0.27887126 -0.00014015826 2.2682716e-18)
(0.27880821 -0.00017872332 2.7637672e-18)
(0.27865976 -0.00021620724 1.5793779e-18)
(0.27833397 -0.00025128651 9.4526185e-19)
(0.27763569 -0.00028151344 1.0061445e-18)
(0.27611001 -0.00030136188 7.4916203e-19)
(0.2727179 -0.00029734386 9.1873677e-19)
(0.26584062 -0.00025136317 6.004917e-19)
(0.25454084 -0.00017167438 6.1608648e-19)
(0.23884602 -9.3403149e-05 5.1745691e-19)
(0.21747286 -3.9273081e-05 6.3308553e-19)
(0.18189296 -6.7970278e-06 3.9533039e-19)
(0.27950056 -2.4960972e-05 6.3211213e-19)
(0.2794984 -6.2822775e-05 3.2531989e-18)
(0.27948922 -9.9991432e-05 2.0701946e-18)
(0.27946108 -0.00013914466 1.0899555e-18)
(0.279389 -0.00017734922 2.1198676e-18)
(0.27922329 -0.00021437542 6.6371582e-19)
(0.27886389 -0.00024879792 3.4858336e-19)
(0.27809674 -0.00027794828 3.7785546e-19)
(0.27642222 -0.0002956992 3.0983137e-19)
(0.27274323 -0.00028769473 6.7927984e-19)
(0.2655241 -0.00023820405 1.3220288e-19)
(0.25406651 -0.0001599391 7.9674972e-20)
(0.23842119 -8.6481029e-05 8.4855327e-20)
(0.21718151 -3.6113596e-05 6.410523e-20)
(0.18173897 -6.1914615e-06 2.1531566e-19)
(0.28009418 -2.4797857e-05 1.1411607e-19)
(0.28009107 -6.2401835e-05 4.2193085e-18)
(0.28007941 -9.9306214e-05 3.5997805e-18)
(0.28004623 -0.00013815299 1.7630931e-18)
(0.27996442 -0.00017599776 2.060755e-18)
(0.27978006 -0.00021255837 1.044746e-18)
(0.2793842 -0.00024629715 4.6555129e-19)
(0.27854186 -0.0002743005 1.9975487e-19)
(0.27670605 -0.00028977675 3.694014e-19)
(0.27273166 -0.00027772558 6.1532879e-19)
(0.26519392 -0.00022528488 1.5560718e-19)
(0.25361059 -0.00014897203 -5.6179523e-20)
(0.23802316 -8.0091197e-05 1.8101372e-20)
(0.21691137 -3.3209315e-05 7.2993791e-20)
(0.18159747 -5.6270809e-06 1.7853543e-19)
(0.28068388 -2.4638722e-05 9.7444784e-19)
(0.28067974 -6.1991116e-05 3.9663816e-18)
(0.28066539 -9.8636371e-05 3.712022e-18)
(0.28062676 -0.00013718022 1.8900108e-18)
(0.28053445 -0.00017466447 1.9915004e-18)
(0.28032993 -0.00021074911 1.0534968e-18)
(0.27989449 -0.00024377294 5.2591617e-19)
(0.27897002 -0.0002705489 3.9068404e-19)
(0.27696025 -0.00028356784 5.0228881e-19)
(0.27268518 -0.00026747913 6.4024912e-19)
(0.26485469 -0.00021268089 1.7308732e-19)
(0.25317379 -0.00013873544 -9.6590332e-20)
(0.23765034 -7.4172473e-05 -1.8041116e-19)
(0.2166609 -3.0528999e-05 1.3273688e-19)
(0.18146749 -5.0995439e-06 1.5635825e-19)
(0.28126974 -2.4483173e-05 4.318976e-18)
(0.28126448 -6.1589568e-05 5.9953085e-18)
(0.28124722 -9.7980136e-05 4.040167e-18)
(0.28120271 -0.00013622364 1.2487326e-18)
(0.28109907 -0.00017334514 5.2984753e-19)
(0.28087275 -0.00020894082 3.7965847e-19)
(0.28039427 -0.00024121405 5.1413027e-20)
(0.27938014 -0.0002666715 -8.2827841e-22)
(0.27718382 -0.00027705189 1.2927939e-20)
(0.27260633 -0.00025700809 1.0734747e-19)
(0.26451052 -0.00020045582 -1.8787297e-19)
(0.25275643 -0.00012918373 -3.9145777e-19)
(0.23730122 -6.867323e-05 -4.0448298e-19)
(0.21642866 -2.8046528e-05 -3.4109876e-19)
(0.18134818 -4.6047926e-06 -9.4509523e-20)
(0.28185185 -2.4330857e-05 3.6603204e-18)
(0.28184539 -6.1196252e-05 4.8318808e-18)
(0.28182498 -9.7335909e-05 3.6709491e-18)
(0.28177412 -0.00013528068 1.6719194e-18)
(0.28165823 -0.00017203573 6.9553477e-19)
(0.2814083 -0.00020712677 4.4537155e-19)
(0.28088299 -0.00023860899 3.6018099e-19)
(0.27977106 -0.00026264569 1.9012779e-20)
(0.27737601 -0.00027021573 -1.4095092e-19)
(0.27249806 -0.00024637254 6.7235466e-22)
(0.26416497 -0.00018866037 -1.6030259e-19)
(0.2523585 -0.00012026718 -2.5441663e-19)
(0.23697438 -6.3550086e-05 -2.9493633e-19)
(0.21621337 -2.5739787e-05 -2.4473064e-19)
(0.18123881 -4.1391874e-06 -1.2977802e-19)
(0.28243029 -2.4181449e-05 4.8536497e-18)
(0.28242252 -6.081031e-05 4.5667716e-18)
(0.28239871 -9.6702201e-05 3.6157536e-18)
(0.28234099 -0.00013434892 2.8399919e-18)
(0.28221186 -0.00017073228 1.8324423e-18)
(0.28193636 -0.00020530013 1.2703326e-18)
(0.28136003 -0.00023594579 1.1494332e-18)
(0.2801416 -0.00025844846 7.0185607e-19)
(0.27753642 -0.0002630546 2.4128358e-19)
(0.27236366 -0.00023563723 2.4352292e-20)
(0.26382105 -0.00017733132 2.7412632e-19)
(0.25197976 -0.00011193516 2.4785945e-19)
(0.23666845 -5.8766461e-05 4.4450227e-20)
(0.21601387 -2.3589899e-05 4.8721198e-20)
(0.1811387 -3.6995893e-06 9.3191467e-20)
(0.28300512 -2.4034648e-05 2.7556449e-18)
(0.28299594 -6.0430941e-05 2.2548067e-18)
(0.28296845 -9.6077601e-05 3.6144968e-18)
(0.28290332 -0.00013342602 2.9223505e-18)
(0.28275987 -0.00016943079 1.565672e-18)
(0.28245663 -0.00020345398 1.2584268e-18)
(0.28182471 -0.00023321187 9.0223658e-19)
(0.28049056 -0.00025405691 5.7764764e-19)
(0.27766504 -0.00025557284 4.0281768e-19)
(0.27220658 -0.00022486879 3.2097557e-19)
(0.26348123 -0.00016649189 3.0249755e-19)
(0.25161982 -0.00010413862 1.2261755e-19)
(0.23638216 -5.4291223e-05 1.1967057e-19)
(0.21582908 -2.1580651e-05 1.7600149e-20)
(0.18104728 -3.2833423e-06 7.9940766e-20)
(0.2835764 -2.3890167e-05 6.4054673e-19)
(0.28356569 -6.005738e-05 2.5617658e-18)
(0.28353424 -9.5460742e-05 3.1211869e-18)
(0.2834611 -0.00013250962 2.7075384e-18)
(0.28330215 -0.00016812719 1.7718316e-18)
(0.28296879 -0.00020158115 1.3411197e-18)