/*--------------------------------*- C++ -*----------------------------------*\
| =========                 |                                                 |
| \\      /  F ield         | OpenFOAM: The Open Source CFD Toolbox           |
|  \\    /   O peration     | Version:  2506                                  |
|   \\  /    A nd           | Website:  www.openfoam.com                      |
|    \\/     M anipulation  |                                                 |
\*---------------------------------------------------------------------------*/
FoamFile
{
    version     2.0;
    format      ascii;
    arch        "LSB;label=32;scalar=64";
    class       volScalarField;
    location    "21000/rock";
    object      T;
}
// * * * * * * * * * * * * * * * * * * * * * * * * * * * * * * * * * * * * * //

dimensions      [0 0 0 1 0 0 0];

internalField   nonuniform List<scalar> 
16000
(
317.74909
306.98283
301.16396
297.53901
295.07704
293.30516
291.97557
290.94578
290.12807
289.46554
288.91971
288.46369
288.07811
287.74871
287.46479
287.21812
287.00235
286.81244
286.64438
286.49495
286.3615
286.24188
286.13428
286.0372
285.94938
285.86974
285.79738
285.73151
285.67144
285.61658
285.5664
285.52044
285.47827
285.4395
285.40374
285.37061
285.33971
285.31054
285.28243
285.25432
320.43416
309.70912
303.49781
299.51232
296.76511
294.77107
293.26665
292.09711
291.16595
290.40997
289.78619
289.26439
288.82275
288.44516
288.11946
287.83635
287.58856
287.37039
287.17725
287.00546
286.85201
286.71441
286.59062
286.47892
286.37785
286.28619
286.20289
286.12705
286.05789
285.99472
285.93695
285.88403
285.83549
285.79086
285.74972
285.71165
285.67617
285.64278
285.61082
285.5794
321.96915
311.71766
305.42334
301.24123
298.2975
296.13235
294.48429
293.19509
292.16392
291.32384
290.62878
290.04609
289.55205
289.12904
288.76373
288.44585
288.16741
287.92205
287.70471
287.51128
287.33842
287.18335
287.04379
286.91781
286.80379
286.70037
286.60635
286.52074
286.44266
286.37134
286.30611
286.24637
286.19157
286.14122
286.09484
286.05196
286.01211
285.97477
285.93933
285.90511
322.95297
313.22876
307.00757
302.74374
299.67684
297.38697
295.62531
294.23646
293.11907
292.20462
291.44532
290.80696
290.26445
289.79905
289.39647
289.04568
288.73805
288.4667
288.22613
288.01186
287.82025
287.64826
287.49339
287.35353
287.2269
287.11199
287.00751
286.91235
286.82554
286.74624
286.67371
286.60728
286.54638
286.49044
286.43895
286.39144
286.3474
286.30632
286.26768
286.23093
323.64454
314.4003
308.32036
304.04776
300.91328
298.53775
296.68953
295.21993
294.02973
293.05063
292.23427
291.54561
290.95873
290.45409
290.01673
289.63501
289.29976
289.0037
288.74094
288.5067
288.29704
288.10873
287.93906
287.78574
287.64687
287.52079
287.40612
287.30164
287.20631
287.11922
287.03956
286.96661
286.89974
286.83835
286.78192
286.72992
286.68186
286.63725
286.59561
286.5565
324.1654
315.33659
309.42126
305.18309
302.02073
299.59067
297.6791
296.14582
294.8954
293.86101
292.99462
292.26104
291.63394
291.09331
290.62372
290.21311
289.85191
289.53248
289.24863
288.99532
288.76839
288.5644
288.38046
288.21415
288.06342
287.92652
287.80194
287.68841
287.58479
287.4901
287.40348
287.32418
287.2515
287.18482
287.12359
287.06726
287.01534
286.96736
286.92287
286.8815
324.57785
316.10555
310.35708
306.17728
303.01421
300.55351
298.59778
297.01571
295.71649
294.63555
293.72589
292.95262
292.28941
291.71604
291.21682
290.7794
290.39395
290.05254
289.74876
289.47733
289.23393
289.01492
288.81729
288.63847
288.4763
288.32892
288.19476
288.07244
287.96076
287.85869
287.76532
287.67983
287.60151
287.52969
287.4638
287.40329
287.34765
287.29644
287.24923
287.20568
324.91658
316.75194
311.16343
307.05409
303.90827
301.43472
299.45028
297.83206
296.49414
295.37466
294.42805
293.6201
292.92474
292.32183
291.79557
291.33344
290.92544
290.56347
290.24092
289.95237
289.69331
289.45999
289.24925
289.05843
288.88525
288.72779
288.58436
288.45353
288.33406
288.22483
288.1249
288.03341
287.9496
287.87281
287.80241
287.73785
287.67863
287.6243
287.57446
287.52879
325.20244
317.30598
311.86707
307.83327
304.71619
302.24275
300.24173
298.59789
297.23005
296.07918
295.10141
294.26347
293.53979
292.91043
292.35964
291.87488
291.44605
291.06494
290.72481
290.42013
290.14625
289.89933
289.6761
289.47379
289.29007
289.12289
288.97054
288.83151
288.7045
288.58835
288.48206
288.38476
288.29564
288.21402
288.13925
288.07079
288.00811
287.95077
287.89838
287.85063
325.4488
317.78862
312.48821
308.53096
305.44965
302.98558
300.97739
299.31653
297.92623
296.75029
295.74661
294.88303
294.1346
293.48173
292.90886
292.40349
291.95552
291.55667
291.20016
290.88034
290.59251
290.33271
290.09761
289.88435
289.69053
289.51406
289.35313
289.2062
289.07191
288.94908
288.83665
288.73372
288.63947
288.55318
288.47419
288.40194
288.33591
288.27566
288.2208
288.17101
325.66465
318.2148
313.04216
309.16021
306.11873
303.67049
301.66232
299.9914
298.58493
297.38941
296.36452
295.47924
294.70939
294.03579
293.44317
292.91915
292.45367
292.03849
291.66676
291.33281
291.03187
290.75992
290.51357
290.28991
290.08647
289.9011
289.73195
289.57744
289.43615
289.30687
289.18853
289.08016
288.98095
288.89014
288.80707
288.73116
288.6619
288.59882
288.54155
288.48976
325.85634
318.59546
313.5407
309.7316
306.732
304.30404
302.30131
300.62588
299.20848
297.9981
296.95613
296.05275
295.26451
294.5728
293.96262
293.42181
292.94043
292.51025
292.12446
291.77736
291.46416
291.18079
290.92383
290.69031
290.47771
290.28386
290.10686
289.94507
289.79707
289.66159
289.53754
289.42394
289.31994
289.22477
289.13776
289.05831
288.9859
288.92008
288.86046
288.80672
326.02849
318.93878
313.99299
310.25372
307.29674
304.89202
302.89876
301.22323
299.79923
298.57801
297.52259
296.60428
295.80045
295.09301
294.46735
293.91153
293.41575
292.97189
292.57316
292.21388
291.88924
291.59518
291.32822
291.08538
290.86411
290.66219
290.4777
290.30896
290.15452
290.0131
289.88357
289.76493
289.65631
289.55694
289.46612
289.38325
289.3078
289.23931
289.17739
289.12172
326.18456
319.25103
314.40626
310.73355
307.8191
305.43949
303.45867
301.78649
300.35944
299.1308
298.06508
297.13468
296.31777
295.59681
294.95758
294.38842
293.87969
293.42339
293.0128
292.64228
292.30703
292.00298
291.72664
291.47502
291.24555
291.03597
290.84435
290.66899
290.5084
290.36128
290.22649
290.10301
289.98994
289.88651
289.79202
289.70584
289.62744
289.55637
289.49221
289.43464
326.32719
319.53709
314.78624
311.17684
308.30428
305.95088
303.98466
302.31852
300.89131
299.65811
298.58481
297.64482
296.81709
296.08462
295.43359
294.85264
294.33233
293.86478
293.44337
293.06251
292.71744
292.40409
292.11899
291.85912
291.62191
291.40509
291.2067
291.02503
290.85857
290.70601
290.56618
290.43805
290.32072
290.21338
290.11534
290.02596
289.94471
289.87112
289.80477
289.74534
326.45846
319.80081
315.13759
311.58831
308.75669
306.43006
304.47996
302.82194
301.39691
300.16156
299.083
298.13562
297.29907
296.55691
295.89572
295.30442
294.7738
294.29613
293.86489
293.47457
293.12043
292.79846
292.50518
292.2376
291.99311
291.76945
291.56465
291.37699
291.20495
291.04718
290.90253
290.76995
290.64852
290.53743
290.43597
290.34351
290.25949
290.18345
290.11497
290.05371
326.58001
320.0453
315.46408
311.97192
309.18008
306.88037
304.94743
303.29913
301.87817
300.64266
299.56084
298.60798
297.7644
297.01419
296.34432
295.74402
295.20428
294.71755
294.27742
293.87846
293.51601
293.18606
292.88518
292.61038
292.35907
292.12897
291.91812
291.72478
291.54742
291.38471
291.23546
291.09861
290.97325
290.85856
290.75381
290.65836
290.57167
290.49325
290.42268
290.35961
326.69316
320.27308
315.76884
312.33096
309.57764
307.30475
305.38965
303.75226
302.33688
301.10287
300.0195
299.06282
298.21379
297.45699
296.7798
296.17171
295.62397
295.12917
294.68104
294.27424
293.90417
293.56688
293.25895
292.97743
292.71973
292.48358
292.26703
292.06832
291.88593
291.71851
291.56486
291.42395
291.29482
291.17667
291.06875
290.97043
290.88114
290.80041
290.7278
290.66296
326.79901
320.48622
316.05446
312.66821
309.95211
307.70572
305.80888
304.1833
302.77469
301.54356
300.46007
299.50101
298.64792
297.88586
297.20256
296.58782
296.03309
295.53115
295.07586
294.66196
294.28494
293.94091
293.62648
293.33871
293.07505
292.83324
292.61131
292.40754
292.22038
292.04849
291.89067
291.74587
291.61314
291.49166
291.3807
291.27961
291.18782
291.10483
291.03023
290.96366
326.89843
320.68645
316.32312
312.98603
310.30586
308.08554
306.20714
304.59402
303.19314
301.96601
300.88362
299.92342
299.06749
298.30135
297.61304
296.99267
296.4319
295.92367
295.462
295.04171
294.65839
294.30818
293.98776
293.69421
293.425
293.17789
292.95093
292.74238
292.55072
292.37459
292.2128
292.0643
291.92813
291.80347
291.68958
291.58582
291.4916
291.40644
291.32989
291.26161
326.99216
320.8752
316.57664
313.28644
310.64091
308.44614
306.58624
304.98602
303.59361
302.3714
301.29113
300.33086
299.47318
298.70398
298.01167
297.38659
296.82064
296.30694
295.83961
295.4136
295.02457
294.66873
294.34281
294.04392
293.76956
293.51751
293.28583
293.0728
292.87689
292.69675
292.5312
292.37917
292.23972
292.11202
291.99532
291.88898
291.79241
291.70513
291.62669
291.55672
327.08083
321.05371
316.8166
313.57118
310.95904
308.78924
306.94775
305.36075
303.97737
302.76084
301.68356
300.72414
299.86562
299.09429
298.39886
297.76994
297.1996
296.68115
296.20884
295.77774
295.38356
295.02262
294.69166
294.38786
294.10873
293.85209
293.616
293.39875
293.19884
293.01492
292.8458
292.69042
292.54784
292.41723
292.29783
292.18901
292.09019
292.00085
291.92056
291.84894
327.16496
321.22301
317.04434
313.84172
311.26179
309.11635
307.29312
305.71952
304.3456
303.13535
302.06177
301.10399
300.24546
299.47281
298.77506
298.14304
297.56905
297.04653
296.56987
296.13425
295.73547
295.3699
295.03435
294.72604
294.44251
294.1816
293.9414
293.72022
293.51655
293.32906
293.15656
292.998
292.85244
292.71904
292.59707
292.48586
292.38485
292.29351
292.21141
292.13817
327.24498
321.38398
317.261
314.09938
311.55051
309.4288
307.62361
306.06349
304.69935
303.49587
302.42659
301.47112
300.61328
299.84004
299.14068
298.50626
297.92927
297.4033
296.92287
296.48327
296.08038
295.71065
295.37093
295.05849
294.77091
294.50606
294.26204
294.03717
293.82998
293.63913
293.46344
293.30186
293.15347
293.01741
292.89296
292.77946
292.67633
292.58306
292.4992
292.42437
327.32127
321.53739
317.46759
314.34528
311.82639
309.72778
307.94036
306.39373
305.0396
303.84327
302.7788
301.82619
300.96967
300.19647
299.49613
298.85993
298.28053
297.75168
297.26803
296.82495
296.41842
296.04495
295.70147
295.38526
295.09397
294.82546
294.5779
294.3496
294.1391
293.94509
293.76639
293.60196
293.45087
293.31229
293.18547
293.06977
292.9646
292.86944
292.78387
292.70747
327.39417
321.68391
317.66498
314.58042
312.09047
310.01434
308.24438
306.7112
305.36723
304.17835
303.11909
302.16985
301.31516
300.54255
299.84179
299.20437
298.62311
298.09191
297.60552
297.15943
296.7497
296.3729
296.02602
295.7064
295.4117
295.13984
294.88899
294.6575
294.44392
294.24694
294.0654
293.89827
293.74462
293.60362
293.47454
293.35672
293.24958
293.15261
293.06536
292.98743
327.46396
321.82412
317.85394
314.80566
312.34367
310.28941
308.5366
307.01677
305.68305
304.50186
303.44814
302.50267
301.65027
300.87874
300.17807
299.53993
298.95729
298.4242
297.93554
297.48687
297.07434
296.69459
296.34466
296.02195
295.72414
295.44921
295.19532
294.96087
294.74441
294.54465
294.36045
294.19077
294.03469
293.89139
293.76014
293.64029
293.53125
293.43251
293.34362
293.26419
327.53087
321.95853
318.03514
315.02179
312.58683
310.55383
308.81783
307.31123
305.98781
304.81446
303.76656
302.8252
301.97549
301.20547
300.50532
299.8669
299.28334
298.7488
298.25827
297.80742
297.39247
297.01012
296.65748
296.33198
296.03135
295.75359
295.49691
295.25972
295.04057
294.83822
294.6515
294.47942
294.32104
294.17555
294.04223
293.92043
293.80956
293.70911
293.61863
293.53772
327.59514
322.08758
318.20917
315.22948
312.82068
310.80836
309.08882
307.59529
306.28217
305.1168
304.07493
303.13796
302.29128
301.52313
300.82391
300.18561
299.60152
299.06592
298.57391
298.12124
297.70422
297.3196
296.96455
296.63655
296.33337
296.05304
295.79379
295.55405
295.33242
295.12763
294.93857
294.76421
294.60365
294.45609
294.32079
294.19712
294.08448
293.98237
293.89034
293.80798
327.65696
322.21169
318.37657
315.42935
313.04587
311.05368
309.35025
307.86962
306.56675
305.40944
304.37377
303.44144
302.59807
301.83212
301.13416
300.49634
299.91208
299.37578
298.88264
298.42849
298.00971
297.62313
297.26596
296.93573
296.63025
296.34758
296.08598
295.8439
295.61996
295.4129
295.22163
295.04514
294.88252
294.73298
294.5958
294.47032
294.35599
294.25227
294.15872
294.07494
327.71649
322.33119
318.5378
315.62195
313.26299
311.29038
309.60271
308.1348
306.84213
305.69292
304.66358
303.73609
302.89628
302.1328
301.4364
300.79938
300.21528
299.6786
299.18464
298.72932
298.30908
297.92082
297.5618
297.22959
296.92205
296.63726
296.37351
296.12928
295.90319
295.69403
295.5007
295.32219
295.15763
295.00621
294.86723
294.74003
294.62405
294.51878
294.42376
294.33859
327.77391
322.44641
318.69329
315.80776
313.47258
311.51902
309.84677
308.39137
307.10882
305.96773
304.94483
304.02232
303.18628
302.42552
301.73095
301.095
300.51134
299.97458
299.4801
299.02388
298.60247
298.21279
297.85217
297.51822
297.20883
296.92212
296.65642
296.41021
296.18215
295.97103
295.77576
295.59537
295.42897
295.27577
295.13507
295.00622
294.88866
294.78188
294.68542
294.59888
327.82933
322.55763
318.84341
315.98723
313.67512
311.7401
310.08293
308.63983
307.36731
306.23434
305.21793
304.30054
303.46843
302.7106
302.01809
301.38347
300.80052
300.26393
299.76918
299.31234
298.88999
298.49914
298.13715
297.80168
297.49066
297.20223
296.93475
296.68673
296.45685
296.24392
296.04685
295.86468
295.69654
295.54166
295.39932
295.26889
295.14981
295.04156
294.9437
294.85582
327.8829
322.66512
318.98852
316.16076
313.87104
311.95408
310.31165
308.88064
307.61803
306.49315
305.48328
304.57111
303.74308
302.98836
302.29811
301.66504
301.08302
300.54685
300.05207
299.59484
299.17179
298.77999
298.41685
298.08006
297.76759
297.47763
297.20855
296.95888
296.72733
296.5127
296.31395
296.13012
295.96035
295.80387
295.65996
295.52802
295.40747
295.29781
295.19858
295.10939
327.93473
322.7691
319.12891
316.3287
314.06073
312.16136
310.53334
309.11421
307.8614
306.74456
305.74126
304.83438
304.01055
303.25908
302.57128
301.93995
301.35907
300.82353
300.32894
299.87153
299.448
299.05545
298.69135
298.35344
298.03971
297.74839
297.47786
297.22669
296.9936
296.77742
296.5771
296.39172
296.2204
296.0624
295.91701
295.78361
295.66165
295.55062
295.45006
295.35958
327.98491
322.86978
319.26488
316.49139
314.24456
312.36232
310.7484
309.34093
308.09778
306.98893
305.9922
305.09067
304.27113
303.52305
302.83784
302.20842
301.62887
301.09414
300.59995
300.14255
299.71873
299.32563
298.96076
298.6219
298.30708
298.01455
297.74272
297.4902
297.2557
297.03808
296.83632
296.64947
296.47671
296.31726
296.17046
296.03567
295.91234
295.79998
295.69813
295.60638
328.03355
322.96735
319.39667
316.64912
314.42284
312.55732
310.95717
309.56114
308.32752
307.2266
306.23642
305.34028
304.52511
303.78052
303.09804
302.47068
301.89262
301.35888
300.86525
300.40805
299.98411
299.59063
299.22516
298.88552
298.56977
298.27618
298.0032
297.74945
297.51366
297.29472
297.09161
296.9034
296.72927
296.56847
296.42031
296.28419
296.15956
296.0459
295.94279
295.8498
328.08072
323.062
319.52452
316.80217
314.59589
312.74666
311.15998
309.77518
308.55095
307.45788
306.47424
305.5835
304.77276
304.03174
303.3521
302.72694
302.1505
301.61791
301.125
300.66817
300.24427
299.85058
299.48467
299.14439
298.82785
298.53335
298.25935
298.00449
297.76753
297.54738
297.34301
297.15354
296.97812
296.81603
296.66659
296.52919
296.40329
296.28838
296.18404
296.08984
328.12652
323.15387
319.64863
316.95078
314.76398
312.93063
311.35713
309.98334
308.76836
307.68305
306.70591
305.82059
305.01432
304.27696
303.60025
302.97739
302.40271
301.87141
301.37936
300.92303
300.49933
300.10557
299.73935
299.39859
299.0814
298.7861
298.51121
298.25536
298.01735
297.79608
297.59056
297.39989
297.22327
297.05996
296.90929
296.77067
296.64355
296.52744
296.42189
296.3265
328.17101
323.24311
319.76922
317.09519
314.92736
313.10951
311.54889
310.1859
308.98002
307.90239
306.93171
306.0518
305.25004
304.51638
303.84268
303.22223
302.64942
302.11952
301.62846
301.17277
300.7494
300.3557
299.98933
299.6482
299.33048
299.03452
298.75884
298.50211
298.26314
298.04085
297.83426
297.64249
297.46474
297.30027
297.14844
297.00865
296.88035
296.76306
296.65634
296.55979
328.21426
323.32986
319.88644
317.23561
315.08625
313.28354
311.73551
310.38312
309.1862
308.11614
307.15187
306.27736
305.48012
304.75022
304.0796
303.46164
302.8908
302.3624
301.87246
301.41752
300.99461
300.60109
300.23467
299.8933
299.57517
299.27866
299.0023
298.7448
298.50497
298.28175
298.07417
297.88137
297.70255
297.53699
297.38405
297.24314
297.11371
296.99528
296.88742
296.78973
328.25633
323.41425
320.00048
317.37223
315.24089
313.45295
311.91725
310.57524
309.38712
308.32455
307.36663
306.4975
305.70479
304.97868
304.31119
303.69579
303.127
302.60021
302.11147
301.6574
301.23505
300.84183
300.47548
300.13398
299.81555
299.51858
299.24165
298.98347
298.74286
298.51879
298.31031
298.11655
297.93673
297.77014
297.61615
297.47416
297.34364
297.22411
297.11513
297.01632
328.29728
323.49637
320.11148
317.50523
315.39145
313.61794
312.0943
310.76248
309.58302
308.52783
307.5762
306.71242
305.92424
305.20194
304.53763
303.92484
303.35818
302.83307
302.34564
301.89253
301.47084
301.07803
300.71185
300.37032
300.05168
299.75436
299.47695
299.21816
298.97687
298.75204
298.54272
298.34807
298.16731
297.99975
297.84475
297.70173
297.57015
297.44955
297.33949
297.23958
328.33716
323.57635
320.21958
317.63478
315.53814
313.77872
312.26688
310.94505
309.7741
308.72618
307.78078
306.92231
306.13865
305.42017
304.75908
304.14896
303.58448
303.06114
302.57509
302.12303
301.7021
301.30977
300.94385
300.60239
300.28364
299.98605
299.70824
299.44895
299.20705
298.98152
298.77143
298.57595
298.39432
298.22584
298.06988
297.92587
297.79328
297.67164
297.56052
297.45953
328.37601
323.65427
320.32491
317.76102
315.68111
313.93547
312.43517
311.12314
309.96055
308.91981
307.98056
307.12736
306.34821
305.63356
304.9757
304.3683
303.80606
303.28454
302.79994
302.34901
301.92891
301.53716
301.17159
300.83027
300.5115
300.21373
299.9356
299.67587
299.43343
299.20728
298.99649
298.80025
298.61779
298.44844
298.29157
298.14661
298.01304
297.89039
297.77824
297.67619
328.41389
323.73023
320.4276
317.88411
315.82053
314.08835
312.59935
311.29692
310.14256
309.10888
308.1757
307.32774
306.55307
305.84226
305.18765
304.58299
304.02303
303.50339
303.02032
302.57058
302.15138
301.76029
301.39514
301.05405
300.73532
300.43745
300.15907
299.89898
299.65607
299.42936
299.21793
299.02098
298.83775
298.66758
298.50984
298.36397
298.22945
298.10583
297.99267
297.88958
328.45083
323.80431
320.52774
318.00417
315.95654
314.23752
312.75959
311.46658
310.32029
309.29356
308.36639
307.52361
306.7534
306.04641
305.39507
304.79317
304.23554
303.71783
303.23632
302.78784
302.36961
301.97924
301.61459
301.2738
300.95519
300.65728
300.37873
300.11834
299.87502
299.64781
299.4358
299.23819
299.05424
298.88329
298.72472
298.57798
298.44255
298.31798
298.20383
298.09973
328.48687
323.87659
320.62546
318.12132
316.08928
314.38313
312.91604
311.63226
310.49391
309.47403
308.55278
307.71512
306.94934
306.24617
305.5981
304.99899
304.44371
303.92796
303.44807
303.00089
302.5837
302.19411
301.83002
301.48959
301.17116
300.87328
300.59462
300.33399
300.09033
299.86267
299.65013
299.45192
299.26729
299.09561
298.93625
298.78867
298.65236
298.52686
298.41176
298.30666
328.52205
323.94714
320.72085
318.23569
316.21888
314.52532
313.06884
311.79412
310.66356
309.65042
308.73502
307.90242
307.14104
306.44167
305.79687
305.20055
304.64765
304.1339
303.65567
303.20985
302.79374
302.40498
302.04151
301.7015
301.38332
301.08552
300.8068
300.54599
300.30204
300.07399
299.86097
299.6622
299.47694
299.30456
299.14445
298.99607
298.85891
298.73252
298.61647
298.5104
328.55641
324.01602
320.81398
318.34738
316.34546
314.66422
313.21813
311.95229
310.82938
309.82287
308.91324
308.08566
307.32863
306.63303
305.99149
305.39798
304.84748
304.33575
303.85921
303.41479
302.99981
302.61194
302.24913
301.90959
301.59171
301.29405
301.01534
300.7544
300.51021
300.28182
300.06836
299.86907
299.68323
299.51019
299.34936
299.20021
299.06222
298.93496
298.81801
298.71097
328.58997
324.08331
320.90497
318.45649
316.46913
314.79994
313.36403
312.1069
310.99151
309.99153
309.08757
308.26495
307.51223
306.82039
306.18211
305.5914
305.0433
304.53362
304.05881
303.61582
303.202
302.81506
302.45297
302.11396
301.79642
301.49895
301.22028
300.95927
300.71489
300.48619
300.27235
300.07258
299.88619
299.71253
299.55102
299.40112
299.26234
299.13423
299.01638
298.90841
328.62276
324.14905
320.99387
318.56311
316.58999
314.9326
313.50666
312.25808
311.15007
310.15651
309.25815
308.44042
307.69198
307.00386
306.36881
305.78091
305.23523
304.72761
304.25455
303.81302
303.4004
303.01443
302.6531
302.31465
301.99751
301.70027
301.4217
301.16065
300.91612
300.68717
300.47298
300.27277
300.08586
299.91162
299.74946
299.59884
299.45929
299.33036
299.21164
299.10274
328.65482
324.21332
321.08077
318.66734
316.70815
315.06231
313.64615
312.40594
311.30518
310.31794
309.42509
308.61219
307.86797
307.18355
306.55173
305.96663
305.42336
304.91782
304.44653
304.00648
303.5951
303.21013
302.84959
302.51174
302.19503
301.89808
301.61964
301.3586
301.11395
300.88479
300.67028
300.46968
300.28229
300.10749
299.9447
299.79341
299.65311
299.52338
299.4038
299.294
328.68616
324.27614
321.16573
318.76925
316.8237
315.18917
313.78258
312.55059
311.45696
310.47592
309.58851
308.78036
308.04033
307.35957
306.73095
306.14864
305.60779
305.10434
304.63482
304.19629
303.78616
303.40223
303.04252
302.70531
302.38907
302.09242
301.81416
301.55316
301.30844
301.0791
300.86432
300.66335
300.47551
300.30018
300.1368
299.98484
299.84383
299.71332
299.59291
299.48222
328.71681
324.33759
321.24882
318.86893
316.93672
315.31327
313.91606
312.69214
311.6055
310.63056
309.7485
308.94506
308.20915
307.53202
306.90658
306.32705
305.78862
305.28725
304.81953
304.38252
303.97368
303.5908
303.23194
302.89541
302.57967
302.28337
302.00531
301.74439
301.49964
301.27015
301.05512
300.85382
300.66556
300.48974
300.32579
300.1732
300.03148
299.90022
299.77899
299.66743
328.7468
324.3977
321.33011
318.96645
317.0473
315.4347
314.04669
312.83068
311.7509
310.78197
309.90518
309.10637
308.37454
307.701
307.07871
306.50194
305.96592
305.46665
305.00073
304.56526
304.15772
303.77592
303.41794
303.0821
302.76689
302.47098
302.19316
301.93235
301.68759
301.45799
301.24274
301.04113
300.85248
300.67619
300.5117
300.3585
300.21611
300.0841
299.96208
299.84967
328.77615
324.45652
321.40966
319.06187
317.15552
315.55355
314.17456
312.9663
311.89327
310.93024
310.05863
309.26439
308.53659
307.8666
307.24744
306.67341
306.1398
305.64262
305.17851
304.74458
304.33835
303.95765
303.60058
303.26547
302.95081
302.6553
302.37775
302.11708
301.87234
301.64265
301.42723
301.22533
301.03632
300.85959
300.69458
300.54078
300.39774
300.26501
300.14221
300.02897
328.80487
324.51408
321.48751
319.15527
317.26145
315.66989
314.29974
313.0991
312.03269
311.07546
310.20896
309.41921
308.69539
308.02891
307.41285
306.84155
306.31032
305.81523
305.35293
304.92056
304.51566
304.13608
303.77993
303.44555
303.13148
302.8364
302.55914
302.29864
302.05395
301.8242
301.60861
301.40647
301.21712
301.03996
300.87446
300.72009
300.57641
300.44299
300.31942
300.20536
328.83299
324.57043
321.56372
319.24671
317.36516
315.7838
314.42232
313.22915
312.16925
311.21772
310.35624
309.57093
308.85103
308.18802
307.57503
307.00643
306.47758
305.98457
305.52407
305.09327
304.6897
304.31125
303.95604
303.62243
303.30896
303.01433
302.73739
302.47708
302.23246
302.00267
301.78695
301.58458
301.39491
301.21736
301.05137
300.89646
300.75217
300.61806
300.49375
300.37888
328.86052
324.62561
321.63834
319.33625
317.46671
315.89536
314.54238
313.35654
312.30302
311.35709
310.50056
309.71962
309.00359
308.34401
307.73405
307.16814
306.64165
306.1507
305.69202
305.26278
304.86055
304.48324
304.12898
303.79615
303.4833
303.18915
302.91254
302.65244
302.40792
302.17812
301.96228
301.7597
301.56974
301.39181
301.22537
301.06993
300.92504
300.79027
300.66523
300.54957
328.88748
324.67964
321.71142
319.42394
317.56618
316.00463
314.65999
313.48134
312.43409
311.49367
310.642
309.86536
309.15315
308.49695
307.89
307.32674
306.80259
306.31371
305.85683
305.42915
305.02827
304.6521
304.29881
303.96677
303.65456
303.3609
303.08465
302.82478
302.58037
302.35058
302.13465
301.93189
301.74165
301.56336
301.39649
301.24054
301.09506
300.95964
300.83389
300.71746
328.9139
324.73257
321.783
319.50983
317.66362
316.11168
314.77521
313.60362
312.56253
311.62753
310.78063
310.00824
309.29979
308.64693
308.04294
307.48232
306.9605
306.47366
306.01857
305.59246
305.19293
304.81791
304.46559
304.13436
303.82279
303.52964
303.25376
302.99415
302.74987
302.52011
302.30411
302.10117
301.91068
301.73205
301.56476
301.40832
301.26228
301.12623
300.99978
300.88258
328.93977
324.78442
321.85313
319.59398
317.75908
316.21657
314.88812
313.72345
312.68842
311.75873
310.91654
310.14831
309.44357
308.79402
308.19296
307.63494
307.11542
306.63062
306.17732
305.75276
305.35458
304.98072
304.62938
304.29896
303.98806
303.69543
303.41994
303.16059
302.91647
302.68675
302.47069
302.2676
302.07687
301.89792
301.73023
301.57331
301.42672
301.29006
301.16293
301.04498
328.96513
324.83522
321.92184
319.67643
317.85263
316.31935
314.99877
313.84091
312.81181
311.88735
311.04978
310.28567
309.58458
308.93828
308.34012
307.78467
307.26744
306.78465
306.33312
305.91012
305.51329
305.1406
304.79023
304.46064
304.15041
303.85831
303.58322
303.32415
303.0802
302.85054
302.63444
302.43122
302.24027
302.06101
301.89294
301.73556
301.58844
301.45117
301.32337
301.20469
328.98998
324.88501
321.98918
319.75724
317.9443
316.42009
315.10723
313.95604
312.93277
312.01345
311.18043
310.42036
309.72287
309.07978
308.48448
307.93158
307.41661
306.93582
306.48606
306.06461
305.66912
305.29758
304.94821
304.61944
304.3099
304.01834
303.74366
303.48489
303.24111
303.01153
302.7954
302.59207
302.40091
302.22136
302.05292
301.89509
301.74745
301.6096
301.48114
301.36175
329.01434
324.9338
322.05517
319.83644
318.03417
316.51884
315.21355
314.06891
313.05137
312.1371
311.30855
310.55246
309.85852
309.21859
308.62611
308.07573
307.56299
307.0842
306.63618
306.21627
305.82213
305.45174
305.10336
304.77543
304.46657
304.17556
303.90131
303.64284
303.39925
303.16976
302.95363
302.75019
302.55883
302.37901
302.21021
302.05196
301.90381
301.76538
301.63629
301.51619
329.03821
324.98163
322.11987
319.91408
318.12226
316.61565
315.31778
314.17957
313.16766
312.25835
311.4342
310.68203
309.99158
309.35477
308.76508
308.21718
307.70666
307.22983
306.78355
306.36516
305.97236
305.60313
305.25574
304.92864
304.62048
304.33003
304.05621
303.79805
303.55467
303.32528
303.10915
302.90561
302.71408
302.534
302.36486
302.20619
302.05755
301.91856
301.78884
301.66805
329.06162
325.02852
322.18329
319.9902
318.20863
316.71057
315.41999
314.28809
313.28171
312.37727
311.55745
310.80912
310.12212
309.48838
308.90144
308.35599
307.84766
307.37277
306.92822
306.51135
306.11987
305.7518
305.4054
305.07914
304.77167
304.48178
304.20841
303.95057
303.70741
303.47813
303.26201
303.0584
302.8667
302.68637
302.5169
302.35782
302.20871
302.06917
301.93884
301.81736
329.08457
325.0745
322.24548
320.06483
318.29331
316.80364
315.52022
314.39452
313.39355
312.49391
311.67834
310.9338
310.25018
309.61948
309.03524
308.49222
307.98605
307.51309
307.07025
306.65488
306.26473
305.8978
305.55239
305.22697
304.9202
304.63088
304.35795
304.10045
303.85751
303.62835
303.41225
303.20857
303.01672
302.83615
302.66636
302.5069
302.35732
302.21725
302.08631
301.96417
329.10708
325.11958
322.30646
320.13802
318.37636
316.89492
315.61852
314.4989
313.50326
312.60832
311.79693
311.05613
310.37584
309.74812
309.16656
308.62593
308.1219
307.65084
307.20968
306.79581
306.40697
306.04119
305.69676
305.37218
305.06611
304.77737
304.50489
304.24772
304.00501
303.77598
303.55992
303.35619
303.16419
302.9834
302.8133
302.65345
302.50343
302.36283
302.23131
302.10851
329.12916
325.1638
322.36626
320.20979
318.45781
316.98445
315.71493
314.60128
313.61088
312.72056
311.91328
311.17614
310.49914
309.87436
309.29543
308.75716
308.25524
307.78606
307.34658
306.9342
306.54665
306.18201
305.83856
305.51482
305.20945
304.92128
304.64926
304.39244
304.14997
303.92107
303.70505
303.50127
303.30914
303.12813
302.95775
302.79753
302.64706
302.50596
302.37385
302.25041
329.15081
325.20716
322.42491
320.28019
318.5377
317.07226
315.8095
314.70172
313.71646
312.83068
312.02744
311.29391
310.62013
309.99825
309.42192
308.88597
308.38614
307.91882
307.481
307.07007
306.68382
306.32031
305.97784
305.65493
305.35026
305.06267
304.79111
304.53464
304.29241
304.06366
303.84769
303.64387
303.45162
303.2704
303.09973
302.93916
302.78826
302.64666
302.51399
302.38992
329.17205
325.2497
322.48244
320.34924
318.61606
317.1584
315.90228
314.80025
313.82003
312.93872
312.13946
311.40947
310.73887
310.11984
309.54606
309.01242
308.51464
308.04916
307.61297
307.2035
306.81853
306.45614
306.11464
305.79256
305.4886
305.20158
304.93048
304.67436
304.43238
304.20378
303.98787
303.78402
303.59166
303.41025
303.2393
303.07838
302.92707
302.78498
302.65175
302.52706
329.19288
325.29142
322.53888
320.41698
318.69294
317.2429
315.9933
314.89692
313.92166
313.04474
312.24938
311.52288
310.85541
310.23918
309.66793
309.13654
308.64079
308.17713
307.74256