/*--------------------------------*- C++ -*----------------------------------*\
| =========                 |                                                 |
| \\      /  F ield         | OpenFOAM: The Open Source CFD Toolbox           |
|  \\    /   O peration     | Version:  2506                                  |
|   \\  /    A nd           | Website:  www.openfoam.com                      |
|    \\/     M anipulation  |                                                 |
\*---------------------------------------------------------------------------*/
FoamFile
{
    version     2.0;
    format      ascii;
    arch        "LSB;label=32;scalar=64";
    class       volScalarField;
    location    "13000/rock";
    object      T;
}
// * * * * * * * * * * * * * * * * * * * * * * * * * * * * * * * * * * * * * //

dimensions      [0 0 0 1 0 0 0];

internalField   nonuniform List<scalar> 
16000
(
317.74307
306.97079
301.14768
297.51948
295.05486
293.28076
291.94928
290.91783
290.09866
289.43484
288.88785
288.43077
288.04425
287.71399
287.42929
287.18192
286.9655
286.77501
286.60643
286.45652
286.32265
286.20264
286.0947
285.99733
285.90925
285.82939
285.75685
285.69082
285.63063
285.57569
285.52545
285.47947
285.4373
285.39856
285.36286
285.32982
285.29902
285.26999
285.24204
285.21411
320.42722
309.69524
303.47904
299.48978
296.73952
294.74292
293.2363
292.06486
291.13202
290.37454
289.74942
289.22641
288.78368
288.40509
288.0785
287.79457
287.54605
287.3272
287.13346
286.96112
286.80717
286.66914
286.54496
286.43291
286.33154
286.23963
286.15612
286.0801
286.01081
285.94754
285.8897
285.83676
285.78821
285.74362
285.70255
285.66457
285.62923
285.59599
285.56422
285.53301
321.96129
311.70193
305.40206
301.21568
298.26849
296.10044
294.44991
293.15854
292.12546
291.28369
290.5871
290.00304
289.50776
289.08363
288.7173
288.39851
288.11922
287.8731
287.65508
287.46103
287.28761
287.13204
286.99204
286.86567
286.75132
286.6476
286.55334
286.46754
286.3893
286.31787
286.25256
286.19279
286.138
286.08769
286.04138
285.99861
285.95891
285.92174
285.88651
285.85253
322.9442
313.21118
306.98379
302.71518
299.64442
297.35132
295.58688
294.19561
293.07609
292.15974
291.39875
290.75886
290.21496
289.7483
289.34459
288.99277
288.6842
288.412
288.17066
287.9557
287.76346
287.59091
287.43555
287.29525
287.16825
287.05302
286.94827
286.85288
286.7659
286.68648
286.61386
286.5474
286.4865
286.4306
286.37921
286.33182
286.28793
286.24706
286.20865
286.17217
323.63484
314.38087
308.29408
304.0162
300.87745
298.49834
296.64706
295.17478
293.98223
293.00104
292.1828
291.49245
290.90404
290.39801
289.95939
289.57653
289.24025
288.94325
288.67964
288.44462
288.23428
288.04536
287.87514
287.72134
287.58205
287.45562
287.34065
287.23592
287.1404
287.05317
286.97342
286.90043
286.83356
286.77223
286.71589
286.66403
286.61615
286.57175
286.53037
286.49156
324.15479
315.31531
309.39247
305.14853
301.98149
299.54751
297.63259
296.09638
294.84338
293.80669
292.93825
292.20282
291.57404
291.03189
290.56093
290.14907
289.78673
289.46627
289.1815
288.92735
288.69966
288.49499
288.31046
288.14362
287.99243
287.85514
287.73024
287.61644
287.51261
287.41777
287.33105
287.2517
287.17903
287.11241
287.05127
286.99509
286.94337
286.89563
286.85143
286.81038
324.56631
316.08242
310.3258
306.13972
302.97156
300.5066
298.54723
296.96197
295.65996
294.57652
293.66463
292.88935
292.22431
291.64929
291.14858
290.7098
290.32311
289.98058
289.67579
289.40345
289.15923
288.93949
288.7412
288.56181
288.39915
288.25135
288.11683
287.99422
287.88232
287.78008
287.6866
287.60106
287.52274
287.45099
287.38521
287.32486
287.26944
287.21848
287.17158
287.12838
324.90412
316.72697
311.12964
307.01353
303.86222
301.38407
299.39569
297.77404
296.4331
295.31092
294.36189
293.55177
292.85445
292.24976
291.72188
291.25828
290.84895
290.48577
290.16213
289.87259
289.61265
289.37854
289.1671
288.97566
288.80194
288.64402
288.50021
288.36907
288.24935
288.13994
288.0399
287.94835
287.86455
287.78782
287.71754
287.65316
287.59417
287.54012
287.49062
287.44532
325.18906
317.27916
311.83079
307.78971
304.66674
302.18836
300.18311
298.53558
297.16449
296.01073
295.03037
294.1901
293.46431
292.83303
292.2805
291.79417
291.36391
290.9815
290.6402
290.33445
290.05963
289.81186
289.58787
289.38491
289.2006
289.03294
288.88018
288.74081
288.61353
288.49719
288.39078
288.29341
288.20431
288.12275
288.04812
287.97984
287.91741
287.86037
287.80834
287.761
325.43449
317.75995
312.44943
308.4844
305.3968
302.92744
300.91473
299.24994
297.85616
296.67713
295.67068
294.80461
294.05392
293.39901
292.82428
292.31723
291.86772
291.46749
291.10973
290.78878
290.49993
290.23922
290.00331
289.78935
289.59492
289.41792
289.25655
289.10926
288.97469
288.85165
288.73909
288.6361
288.54186
288.45563
288.37679
288.30474
288.23898
288.17905
288.12456
288.07522
325.64941
318.18429
313.00088
309.11066
306.06247
303.60862
301.59564
299.92053
298.51036
297.31155
296.2837
295.39578
294.62352
293.94775
293.35315
292.82734
292.36023
291.94357
291.57051
291.23536
290.93334
290.66043
290.41322
290.18881
289.98471
289.79877
289.62916
289.47426
289.33268
289.20318
289.08469
288.97626
288.87706
288.78633
288.70341
288.62771
288.55872
288.49599
288.43912
288.38781
325.84018
318.5631
313.49693
309.67906
306.67234
304.23843
302.2306
300.55073
299.12941
297.91554
296.87044
295.96424
295.17346
294.47944
293.86716
293.32446
292.84135
292.40961
292.0224
291.67403
291.35968
291.07529
290.81741
290.58309
290.3698
290.17536
289.99786
289.83567
289.68735
289.55164
289.42744
289.31377
289.20978
289.11469
289.02784
288.94862
288.87651
288.81105
288.75186
288.69861
326.01141
318.90458
313.94673
310.19818
307.23369
304.82267
302.82402
301.14379
299.71565
298.49075
297.43202
296.51074
295.70422
294.99434
294.36647
293.80864
293.31104
292.86552
292.4653
292.10467
291.77882
291.48368
291.21575
290.97207
290.75007
290.54752
290.3625
290.19333
290.03856
289.89689
289.7672
289.64849
289.53988
289.44059
289.34994
289.26731
289.19218
289.12407
289.06261
289.00746
326.16655
319.21499
314.35751
310.67503
307.75266
305.36641
303.37991
301.70278
300.27137
299.03884
297.96964
297.03611
296.21636
295.49283
294.85127
294.27999
293.76934
293.3113
292.89914
292.52719
292.19066
291.88547
291.60812
291.35562
291.12537
290.91513
290.72295
290.54714
290.3862
290.23882
290.10386
289.9803
289.86725
289.76391
289.66959
289.58367
289.5056
289.43493
289.37125
289.31424
326.30825
319.4992
314.735
311.11532
308.23445
305.87408
303.90189
302.23055
300.79875
299.56147
298.4845
297.54122
296.71051
295.97534
295.32186
294.73869
294.21636
293.74697
293.32391
292.94155
292.59514
292.28059
291.99443
291.73363
291.4956
291.27809
291.07912
290.89697
290.73014
290.57731
290.4373
290.30909
290.19177
290.08453
289.98667
289.89756
289.81666
289.74349
289.67765
289.6188
326.4386
319.76108
315.08386
311.52382
308.68347
306.34953
304.39317
302.7297
301.29986
300.06022
298.97783
298.027
297.18732
296.44233
295.77857
295.18494
294.6522
294.17261
293.73964
293.34775
292.99221
292.66898
292.37459
292.10602
291.86068
291.63629
291.43088
291.24272
291.07029
290.91224
290.76741
290.63474
290.51332
290.40233
290.30107
290.20888
290.12523
290.04964
289.98168
289.92103
326.55922
320.00373
315.40787
311.90444
309.10347
306.79612
304.85663
303.20262
301.77663
300.53665
299.45082
298.49434
297.64749
296.89432
296.22176
295.61902
295.07707
294.58833
294.14638
293.74578
293.38186
293.0506
292.74855
292.47273
292.22052
291.98966
291.77817
291.58431
291.40655
291.24354
291.09409
290.95716
290.83181
290.71722
290.61267
290.51752
290.43121
290.35325
290.28324
290.2208
326.67146
320.22967
315.71014
312.2605
309.49765
307.21678
305.29484
303.6515
302.23086
300.99218
299.90462
298.94416
298.09172
297.33184
296.65183
296.0412
295.49114
294.99424
294.54422
294.13571
293.7641
293.42544
293.1163
292.8337
292.57507
292.33813
292.1209
291.92165
291.73883
291.5711
291.41726
291.27625
291.14714
291.02909
290.92139
290.82337
290.73448
290.65424
290.58221
290.51803
326.77638
320.44098
315.99328
312.59477
309.86875
307.61404
305.71007
304.07828
302.6642
301.4282
300.34034
299.37734
298.5207
297.75542
297.0692
296.4518
295.89466
295.39053
294.93326
294.51758
294.13896
293.7935
293.4778
293.18892
292.92428
292.68165
292.45902
292.25468
292.06708
291.89486
291.73684
291.59194
291.45923
291.33786
291.22712
291.12634
291.03497
290.95249
290.8785
290.81261
326.87488
320.63937
316.25946
312.90962
310.21912
307.99015
306.10434
304.48475
303.07818
301.84598
300.75904
299.79475
298.93513
298.16563
297.47428
296.85114
296.28786
295.77737
295.31363
294.8915
294.5065
294.15481
293.83306
293.53836
293.26814
293.02017
292.79248
292.58334
292.39121
292.21475
292.05275
291.90414
291.76799
291.64345
291.52979
291.42635
291.33257
291.24793
291.17202
291.10445
326.96769
320.8263
316.51051
313.20706
310.5508
308.34704
306.47944
304.87251
303.47418
302.24671
301.16172
300.1972
299.33567
298.56299
297.86752
297.23957
296.67102
296.15495
295.68548
295.25755
294.86678
294.5094
294.18211
293.88202
293.60661
293.35366
293.12123
292.90758
292.71119
292.53071
292.36493
292.21279
292.07336
291.94578
291.82932
291.72332
291.62721
291.54048
291.46269
291.39346
327.05545
321.00297
316.748
313.48883
310.86556
308.68644
306.83697
305.24301
303.85349
302.63149
301.54931
300.58548
299.72298
298.94804
298.24933
297.61743
297.04439
296.52349
296.04896
295.61586
295.21989
294.85734
294.52496
294.21991
293.93969
293.68212
293.44525
293.22737
293.02696
292.84268
292.67332
292.51784
292.37527
292.24478
292.12564
292.01717
291.91881
291.83004
291.75042
291.67958
327.13865
321.17044
316.97326
313.75641
311.16495
309.00985
307.17835
305.59753
304.21726
303.00135
301.9227
300.96034
300.09769
299.3213
298.62015
297.98505
297.40826
296.8832
296.40424
295.96655
295.56591
295.19868
294.86165
294.55205
294.26739
294.00552
293.76451
293.54267
293.33849
293.15062
292.97788
292.81921
292.67366
292.5404
292.41868
292.30784
292.20731
292.11657
292.03517
291.96273
327.21776
321.32959
317.18746
314.01111
311.45031
309.31861
307.50486
305.93727
304.56656
303.35722
302.2827
301.32249
300.46039
299.68328
298.9804
298.34279
297.7629
297.2343
296.7515
296.30976
295.90495
295.53349
295.19225
294.87847
294.58973
294.32387
294.07902
293.85347
293.64574
293.4545
293.27856
293.11687
292.96849
292.83258
292.70839
292.59528
292.49264
292.39998
292.31685
292.24284
327.29314
321.48118
317.39159
314.25406
311.72284
309.6139
307.81763
306.26329
304.90237
303.69998
302.63009
301.6726
300.81166
300.03446
299.33048
298.69099
298.10859
297.57703
297.09092
296.64563
296.23712
295.86187
295.51681
295.19922
294.90672
294.63719
294.38875
294.15976
293.94871
293.75429
293.57534
293.41079
293.25971
293.12127
292.99472
292.87942
292.77476
292.68024
292.59541
292.51987
327.36512
321.62588
317.58652
314.48624
311.98356
309.89677
308.11769
306.57654
305.22556
304.03043
302.96557
302.01129
301.15204
300.3753
299.6708
299.02997
298.44562
297.91161
297.42269
296.97431
296.56253
296.1839
295.83539
295.51434
295.2184
294.94548
294.69373
294.46152
294.24737
294.04997
293.86817
293.70092
293.54728
293.40643
293.27763
293.16022
293.05361
292.95729
292.87081
292.79376
327.43399
321.76427
317.77302
314.70854
312.23342
310.16817
308.40594
306.8779
305.53695
304.34931
303.28982
302.33915
301.48205
300.70626
300.00172
299.36007
298.77425
298.23827
297.74699
297.29596
296.88132
296.49968
296.14807
295.82388
295.5248
295.24876
294.99396
294.75876
294.54171
294.34152
294.15704
293.98723
293.83117
293.68803
293.55707
293.43764
293.32915
293.23108
293.14299
293.06447
327.5
321.89686
317.95177
314.92172
312.47324
310.42892
308.68321
307.16815
305.83728
304.65729
303.60345
302.65673
301.80218
301.02777
300.32364
299.6816
299.09475
298.55724
298.06402
297.61074
297.1936
296.80931
296.45493
296.12791
295.82597
295.54708
295.28945
295.05148
294.83174
294.62894
294.44194
294.26972
294.11136
293.96604
293.83301
293.71164
293.60134
293.50158
293.41192
293.33195
327.56336
322.0241
318.12335
315.12648
312.70375
310.67978
308.95025
307.44802
306.12721
304.95501
303.90702
302.96455
302.11288
301.34021
300.63689
299.99486
299.4074
298.86874
298.37395
297.91878
297.49951
297.11289
296.75606
296.42649
296.12196
295.84046
295.58024
295.33971
295.11745
294.91221
294.72285
294.54836
294.38782
294.24042
294.10543
293.9822
293.87015
293.76875
293.67756
293.59617
327.62427
322.14639
318.2883
315.32341
312.92561
310.92143
309.20773
307.71815
306.40739
305.24305
304.20108
303.26309
302.41459
301.644
300.94181
300.30016
299.71243
299.17298
298.67699
298.22027
297.79918
297.41054
297.05153
296.71969
296.41282
296.12895
295.86635
295.62345
295.39887
295.19135
294.99978
294.82314
294.66054
294.51117
294.37431
294.24929
294.13555
294.03257
293.93989
293.85711
327.6829
322.26409
318.44709
315.51308
313.13941
311.15448
309.45626
307.97914
306.67836
305.52193
304.48612
303.5528
302.70772
301.93948
301.23874
300.59778
300.01011
299.47019
298.9733
298.51534
298.09273
297.70235
297.34145
297.00759
296.69861
296.41259
296.14781
295.90273
295.676
295.46636
295.27271
295.09406
294.92952
294.77827
294.63961
294.51289
294.39753
294.29301
294.19888
294.11473
327.7394
322.37751
318.60014
315.69597
313.34568
311.37947
309.69638
308.23153
306.94066
305.79215
304.7626
303.83411
302.99266
302.227
301.52798
300.88799
300.30067
299.76058
299.26308
298.80416
298.38031
297.98845
297.6259
297.29025
296.97939
296.69142
296.42466
296.17759
295.94885
295.73724
295.54166
295.36112
295.19473
295.04171
294.90135
294.77298
294.65606
294.55005
294.4545
294.36901
327.79393
322.48693
318.74783
315.87252
313.5449
311.5969
309.92861
308.47582
307.19475
306.05417
305.03095
304.10742
303.26976
302.5069
301.80982
301.17106
300.58434
300.04434
299.54651
299.08688
298.66203
298.26895
297.90498
297.56776
297.25523
296.96551
296.69694
296.44804
296.21746
296.00402
295.80663
295.62431
295.45619
295.30149
295.15949
295.02956
294.91113
294.80368
294.70675
294.61995
327.84659
322.59262
318.89051
316.04312
313.73751
311.80724
310.15341
308.71246
307.44109
306.30841
305.29155
304.37308
303.53936
302.77948
302.08455
301.44723
300.86135
300.32168
299.82374
299.36365
298.93804
298.54395
298.17877
297.8402
297.52619
297.2349
296.9647
296.71412
296.48186
296.26672
296.06763
295.88365
295.7139
295.5576
295.41405
295.28261
295.16273
295.05388
294.95562
294.86753
327.89751
322.6948
319.02848
316.20816
313.9239
312.01089
310.37119
308.94187
307.68008
306.55525
305.54478
304.63145
303.80179
303.04504
302.35244
301.71675
301.13192
300.59279
300.09496
299.63463
299.20846
298.81357
298.44739
298.10765
297.79233
297.49965
297.22797
296.97588
296.74206
296.52535
296.32469
296.13915
295.96785
295.81004
295.66501
295.53214
295.41085
295.30066
295.20109
295.11174
327.9468
322.79369
319.16202
316.36794
314.10443
312.20823
310.58234
309.16444
307.91209
306.79506
305.79099
304.88285
304.05734
303.30385
302.61373
301.97985
301.39624
300.85785
300.36033
299.89994
299.47343
299.07792
298.71092
298.37019
298.05374
297.75982
297.48682
297.23334
296.9981
296.77994
296.57782
296.39082
296.21807
296.05883
295.91239
295.77814
295.65551
295.544
295.44316
295.35257
327.99454
322.88947
319.29139
316.52277
314.27943
312.39961
310.78721
309.38051
308.13748
307.02818
306.03049
305.12758
304.30631
303.55617
302.86866
302.23674
301.65453
301.11704
300.62001
300.15974
299.73305
299.33711
298.96946
298.6279
298.31048
298.01547
297.7413
297.48656
297.25002
297.03052
296.82705
296.63868
296.46457
296.30397
296.15619
296.02061
295.89669
295.78391
295.68183
295.59003
328.04082
322.98233
319.41683
316.67292
314.44919
312.58533
310.98613
309.59041
308.35655
307.25491
306.26359
305.36593
304.54894
303.80226
303.11747
302.48764
301.90697
301.37054
300.87415
300.41417
299.98746
299.59125
299.22311
298.88087
298.56263
298.26666
297.99144
297.73558
297.49785
297.27713
297.0724
296.88275
296.70735
296.54547
296.39641
296.25958
296.1344
296.0204
295.9171
295.82412
328.08573
323.07242
319.53854
316.81865
314.614
312.7657
311.17939
309.79444
308.56961
307.47554
306.49056
305.59816
304.78551
304.04235
303.36038
302.73275
302.15374
301.6185
301.1229
300.66336
300.23678
299.84045
299.47195
299.12918
298.81025
298.51346
298.23732
297.98045
297.74164
297.51979
297.31389
297.12305
296.94645
296.78335
296.63308
296.49503
296.36866
296.25346
296.14899
296.05485
328.12932
323.15989
319.65672
316.96018
314.7741
312.94098
311.36727
309.99288
308.77694
307.69036
306.71166
305.82452
305.01623
304.27665
303.59758
302.97225
302.39502
301.86109
301.36641
300.90744
300.48113
300.0848
299.71609
299.37292
299.05342
298.75593
298.47898
298.22121
297.98142
297.75854
297.55156
297.35962
297.18188
297.01763
296.86621
296.727
296.59946
296.48311
296.3775
296.28221
328.17168
323.24486
319.77155
317.09772
314.92973
313.11142
311.55003
310.18599
308.97879
307.89959
306.92713
306.04524
305.24133
304.50538
303.82928
303.20633
302.63097
302.09847
301.60482
301.14654
300.72062
300.32442
299.95562
299.61216
299.29221
298.99414
298.71648
298.45791
298.21725
297.99342
297.78545
297.59247
297.41367
297.24833
297.09581
296.95549
296.82684
296.70937
296.60264
296.50624
328.21286
323.32747
319.88319
317.23147
315.0811
313.27724
311.72789
310.374
309.1754
308.10349
307.13721
306.26055
305.46103
304.72874
304.05566
303.43517
302.86176
302.33078
301.83826
301.38078
300.95536
300.5594
300.19062
299.84699
299.5267
299.22814
298.94988
298.6906
298.44915
298.22446
298.01558
297.82163
297.64184
297.47548
297.3219
297.18052
297.05079
296.93224
296.82442
296.72692
328.25292
323.40783
319.9918
317.3616
315.22842
313.43866
311.90109
310.55715
309.36699
308.30227
307.34211
306.47064
305.67552
304.94692
304.27689
303.65892
303.08754
302.55817
302.06687
301.61028
301.18546
300.78985
300.42119
300.07748
299.75695
299.45801
299.17923
298.91934
298.67719
298.45172
298.24199
298.04715
297.86642
297.69909
297.54451
297.40211
297.27135
297.15175
297.04286
296.9443
328.29191
323.48605
320.09752
317.48829
315.37186
313.59587
312.06983
310.73563
309.55376
308.49614
307.54203
306.67572
305.88498
305.16008
304.49316
303.87775
303.30846
302.78076
302.29078
301.83516
301.41103
301.01586
300.64741
300.30372
299.98304
299.6838
299.4046
299.14418
298.9014
298.67522
298.46472
298.26905
298.08744
297.91919
297.76367
297.62029
297.48853
297.36791
297.25799
297.15837
328.32988
323.56221
320.20047
317.61168
315.51159
313.74905
312.23428
310.90964
309.73593
308.68528
307.73716
306.87597
306.0896
305.3684
304.7046
304.0918
303.52466
302.9987
302.51009
302.05554
301.63218
301.23753
300.86938
300.52579
300.20505
299.90559
299.62605
299.36517
299.12183
298.89502
298.68381
298.48737
298.30494
298.13582
297.9794
297.83508
297.70236
297.58075
297.46982
297.36917
328.36688
323.63641
320.30078
317.73191
315.64778
313.89838
312.39464
311.07935
309.91365
308.86988
307.92767
307.07156
306.28953
305.57205
304.91139
304.30122
303.73628
303.21211
302.72494
302.27151
301.849
301.45494
301.08717
300.74377
300.42303
300.12344
299.84363
299.58236
299.33854
299.11115
298.89929
298.70214
298.51894
298.34901
298.19172
298.04651
297.91285
297.79029
297.67837
297.57671
328.40294
323.70874
320.39856
317.84913
315.78056
314.04401
312.55105
311.24495
310.08711
309.05011
308.11373
307.26265
306.48494
305.77116
305.11365
304.50615
303.94344
303.42111
302.93544
302.48319
302.06159
301.6682
301.30087
300.95773
300.63707
300.33741
300.05739
299.79581
299.55156
299.32366
299.11122
298.9134
298.72948
298.55877
298.40067
298.2546
298.12005
297.99655
297.88367
297.78103
328.4381
323.77927
320.49392
317.96345
315.91009
314.18608
312.70369
311.40658
310.25647
309.22612
308.2955
307.44939
306.67598
305.96589
305.31154
304.70672
304.14626
303.62582
303.14169
302.69068
302.27005
301.87738
301.51057
301.16774
300.84724
300.54757
300.26741
300.00557
299.76096
299.5326
299.31962
299.12119
298.9366
298.76516
298.60628
298.45938
298.32396
298.19956
298.08575
297.98213
328.47241
323.84807
320.58695
318.07499
316.03648
314.32475
312.85269
311.5644
310.42187
309.39808
308.47313
307.63194
306.86278
306.15636
305.50517
304.90305
304.34488
303.82635
303.3438
302.89408
302.47447
302.08259
301.71634
301.37389
301.05359
300.75398
300.47374
300.21169
299.96678
299.73802
299.52454
299.32555
299.14033
298.9682
298.80857
298.66088
298.52463
298.39935
298.28463
298.18006
328.50589
323.91521
320.67773
318.18386
316.15986
314.46012
312.99818
311.71854
310.58345
309.5661
308.64675
307.81043
307.04549
306.34272
305.69468
305.09526
304.53939
304.02281
303.54188
303.09348
302.67494
302.28389
301.91826
301.57624
301.2562
300.9567
300.67643
300.41424
300.16906
299.93995
299.72603
299.52652
299.34071
299.16793
299.00759
298.85914
298.72208
298.59596
298.48034
298.37484
328.53858
323.98076
320.76637
318.29016
316.28033
314.59233
313.1403
311.86913
310.74135
309.73034
308.81651
307.98498
307.22423
306.52509
305.88019
305.28348
304.72992
304.2153
303.73601
303.28899
302.87155
302.48137
302.11641
301.77487
301.45514
301.15579
300.87555
300.61326
300.36787
300.13845
299.92413
299.72414
299.53778
299.36439
299.20337
299.05419
298.91635
298.7894
298.67291
298.5665
328.57051
324.04478
320.85293
318.39397
316.39801
314.72149
313.27916
312.01629
310.89569
309.89092
308.98252
308.15573
307.39911
306.70358
306.0618
305.46779
304.91656
304.40392
303.92631
303.48067
303.06438
302.67511
302.31086
301.96984
301.65047
301.35133
301.07115
300.8088
300.56325
300.33355
300.11888
299.91846
299.73158
299.5576
299.39594
299.24606
299.10747
298.97971
298.86237
298.75506
328.60169
324.10731
320.9375
318.4954
316.51299
314.84771
313.41488
312.16015
311.04659
310.04795
309.1449
308.32279
307.57026
306.8783
306.23964
305.64833
305.09942
304.58877
304.11285
303.66864
303.25351
302.86519
302.50169
302.16123
301.84226
301.54336
301.26329
301.00093
300.75524
300.52532
300.31033
300.1095
299.92214
299.74762
299.58534
299.43479
299.29547
299.16693
299.04875
298.94057
328.63217
324.16842
321.02013
318.59452
316.62537
314.97108
313.54756
312.30081
311.19417
310.20155
309.30376
308.48627
307.73778
307.04936
306.41379
305.82517
305.2786
304.76995
304.29574
303.85296
303.43903
303.05169
302.68897
302.34911
302.03056
301.73195
301.45203
301.18968
300.94391
300.7138
300.49852
300.29732
300.10951
299.93447
299.77161
299.62041
299.48038
299.35108
299.2321
299.12305
328.66196
324.22815
321.10091
318.69141
316.73523
315.09171
313.67729
312.43838
311.33852
310.35182
309.45922
308.64628
307.90179
307.21687
306.58437
305.99842
305.45417
304.94754
304.47504
304.03372
303.62102
303.23468
302.87276
302.53353
302.21545
301.91715
301.63741
301.37513
301.1293
300.89903
300.6835
300.48196
300.29373
300.1182
299.95478
299.80295
299.66224
299.5322
299.41243
299.30254
328.69109
324.28654
321.17988
318.78615
316.84266
315.20967
313.80419
312.57295
311.47975
310.49887
309.61137
308.80291
308.06237
307.38092
306.75146
306.16818
305.62625
305.12162
304.65085
304.21101
303.79954
303.41423
303.05315
302.71457
302.39698
302.09903
301.81951
301.55731
301.31146
301.08106
300.86531
300.66346
300.47484
300.29884
300.13489
299.98246
299.84109
299.71034
299.58979
299.47907
328.71958
324.34365
321.25711
318.87881
316.94773
315.32506
313.92833
312.70461
311.61795
310.64279
309.76031
308.95627
308.21962
307.54161
306.91517
306.33453
305.79491
305.29229
304.82325
304.38489
303.97467
303.59041
303.23018
302.89229
302.57522
302.27765
301.99836
301.73628
301.49044
301.25994
301.044
300.84187
300.65288
300.47644
300.31198
300.15898
300.01697
299.88551
299.7642
299.65268
328.74744
324.39951
321.33266
318.96945
317.05053
315.43795
314.0498
312.83346
311.75322
310.78367
309.90613
309.10645
308.37364
307.69902
307.07556
306.49755
305.96023
305.45962
304.99232
304.55544
304.14649
303.76329
303.40394
303.06675
302.75023
302.45305
302.17403
301.9121
301.66629
301.43572
301.2196
301.01722
300.8279
300.65104
300.48608
300.33253
300.1899
300.05776
299.93572
299.8234
328.77471
324.45416
321.40658
319.05813
317.15111
315.54843
314.16867
312.95958
311.88563
310.92161
310.04893
309.25353
308.52451
307.85324
307.23274
306.65734
306.1223
305.62368
305.15812
304.72274
304.31507
303.93294
303.57448
303.23801
302.92205
302.6253
302.34657
302.08481
301.83905
301.60844
301.39218
301.18956
300.99992
300.82267
300.65725
300.50316
300.35992
300.22712
300.10436
299.99126
328.80139
324.50764
321.47891
319.14492
317.24955
315.65656
314.28504
313.08304
312.01528
311.05667
310.18877
309.3976
308.67232
308.00435
307.38678
306.81396
306.2812
305.78457
305.32074
304.88686
304.48046
304.09943
303.74186
303.40613
303.09076
302.79445
302.51603
302.25446
302.00878
301.77814
301.56176
301.35893
301.169
300.99138
300.82551
300.6709
300.52709
300.39364
300.27017
300.1563
328.8275
324.55998
321.54971
319.22987
317.34591
315.76242
314.39896
313.20393
312.14223
311.18895
310.32575
309.53874
308.81714
308.15244
307.53776
306.9675
306.43699
305.94234
305.48023
305.04785
304.64275
304.2628
303.90616
303.57117
303.2564
302.96055
302.68247
302.42111
302.17553
301.94488
301.7284
301.52538
301.33518
301.1572
300.9909
300.8358
300.69142
300.55734
300.43318
300.31857
328.85307
324.61123
321.61901
319.31303
317.44024
315.86606
314.51051
313.32231
312.26657
311.31852
310.45994
309.67702
308.95905
308.29757
307.68575
307.11802
306.58975
306.09706
305.63668
305.2058
304.80198
304.42314
304.06742
303.7332
303.41904
303.12367
302.84593
302.58479
302.33933
302.10871
301.89215
301.68895
301.49849
301.32018
301.15347
300.99788
300.85296
300.71827
300.59343
300.47808
328.8781
324.6614
321.68687
319.39446
317.53262
315.96754
314.61976
313.43825
312.38836
311.44545
310.59141
309.81251
309.09813
308.43983
307.83083
307.2656
306.73955
306.24882
305.79015
305.36075
304.95823
304.58049
304.2257
303.89226
303.57873
303.28384
303.00647
302.74558
302.50025
302.26966
302.05303
301.84969
301.65899
301.48035
301.31326
301.1572
301.01174
300.87646
300.75096
300.63489
328.90262
324.71052
321.75332
319.4742
317.62308
316.06694
314.72676
313.55183
312.50767
311.56981
310.72023
309.9453
309.23444
308.57927
307.97307
307.41031
306.88645
306.39766
305.94069
305.51279
305.11155
304.73492
304.38107
304.0484
303.73551
303.44113
303.16413
302.9035
302.65832
302.42778
302.2111
302.00762
301.8167
301.63777
301.47029
301.31379
301.16781
301.03195
300.9058
300.78902
328.92663
324.75864
321.8184
319.5523
317.71169
316.16431
314.83158
313.66309
312.62456
311.69166
310.84647
310.07544
309.36805
308.71597
308.11252
307.55222
307.03053
306.54365
306.08838
305.66196
305.26201
304.88648
304.53357
304.2017
303.88945
303.59558
303.31896
303.05861
302.8136
302.58311
302.36641
302.1628
301.97168
301.79246
301.62462
301.46769
301.32121
301.18477
301.05799
300.94052
328.95015
324.80577
321.88215
319.6288
317.79849
316.25969
314.93427
313.77211
312.73911
311.81108
310.9702
310.203
309.49902
308.85
308.24926
307.69138
307.17184
306.68687
306.23327
305.80832
305.40966
305.03524
304.68327
304.35219
304.04059
303.74724
303.47102
303.21095
302.96612
302.73571
302.51899
302.31527
302.12396
301.94447
301.77628
301.61893
301.47196
301.33497
301.20757
301.08942
328.9732
324.85194
321.9446
319.70375
317.88353
316.35314
315.0349
313.87893
312.85136
311.92811
311.09147
310.32805
309.62743
308.9814
308.38335
307.82785
307.31044
306.82735
306.37542
305.95194
305.55455
305.18123
304.83021
304.49992
304.18898
303.89616
303.62035
303.36057
303.11593
302.88561
302.66888
302.46507
302.27358
302.09383
301.92531
301.76755
301.62011
301.48258
301.35458
301.23576
328.99577
324.89718
322.00579
319.77719
317.96686
316.44472
315.1335
313.98362
312.96137
312.04282
311.21035
310.45063
309.75333
309.11026
308.51484
307.96171
307.44639
306.96518
306.5149
306.09286
305.69674
305.32453
304.97445
304.64496
304.33468
304.0424
303.767
303.50753
303.26308
303.03286
302.81614
302.61225
302.42059
302.24059
302.07176
301.9136
301.7657
301.62764
301.49904
301.37957
329.0179
324.94151
322.06575
319.84915
318.04851
316.53446
315.23014
314.08623
313.06921
312.15527
311.32689
310.57082
309.87677
309.23662
308.64381
308.09299
307.57976
307.10039
306.65174
306.23115
305.8363
305.46518
305.11604
304.78735
304.47774
304.18599
303.91102
303.65185
303.40761
303.1775
302.96079
302.75683
302.56502
302.38479
302.21565
302.05711
301.90876
301.77018
301.64101
301.52089
329.03958
324.98495
322.12451
319.91968
318.12854
316.62241
315.32486
314.1868
313.17491
312.2655
311.44115
310.68867
309.99782
309.36053
308.77029
308.22177
307.71059
307.23304
306.78602
306.36685
305.97325
305.60323
305.25503
304.92714
304.61819
304.32698
304.05244
303.79359
303.54956
303.31957
303.10289
302.89887
302.70691
302.52646
302.35702
302.19812
302.04933
301.91025
301.78051
301.65976
329.06083
325.02753
322.1821
319.9888
318.20698
316.70863
315.4177
314.2854
313.27854
312.37358
311.55318
310.80422
310.11653
309.48206
308.89435
308.3481
307.83893
307.36319
306.91777
306.50002
306.10767
305.73872
305.39147
305.06437
304.75609
304.46543
304.19131
303.93279
303.68898
303.45912
303.24247
303.0384
302.84631
302.66565
302.49593
302.33667
302.18745
302.04788
301.91758
301.79621
329.08167
325.06926
322.23855
320.05655
318.28387
316.79314
315.50872
314.38205
313.38014
312.47955
311.66303
310.91754
310.23295
309.60126
309.01604
308.47202
307.96485
307.49089
307.04706
306.63071
306.23959
305.87172
305.5254
305.19909
304.89148
304.60137
304.32769
304.06949
303.82592
303.59618
303.37958
303.17547
302.98325
302.80239
302.63239
302.47279
302.32315
302.1831
302.05226
301.93028
329.10209
325.11017
322.29389
320.12297
318.35924
316.87599
315.59795
314.47682
313.47976
312.58346
311.77075
311.02867
310.34713
309.71818
309.13541
308.59359
308.08839
307.61619
307.17392
306.75896
306.36907
306.00227
305.65687
305.33136
305.02441
304.73484
304.4616
304.20374
303.9604
303.7308
303.51425
303.31011
303.11778
302.93673
302.76646
302.60652
302.45648
302.31596
302.18458
302.06201
329.12211
325.15028
322.34814
320.18809
318.43314
316.95722
315.68544
314.56974
313.57744
312.68535
311.8764
311.13766
310.45912
309.83286
309.25251
308.71286
308.2096
307.73914
307.29842