/*--------------------------------*- C++ -*----------------------------------*\
| =========                 |                                                 |
| \\      /  F ield         | OpenFOAM: The Open Source CFD Toolbox           |
|  \\    /   O peration     | Version:  2506                                  |
|   \\  /    A nd           | Website:  www.openfoam.com                      |
|    \\/     M anipulation  |                                                 |
\*---------------------------------------------------------------------------*/
FoamFile
{
    version     2.0;
    format      ascii;
    arch        "LSB;label=32;scalar=64";
    class       volScalarField;
    location    "25000/water";
    object      alphat;
}
// * * * * * * * * * * * * * * * * * * * * * * * * * * * * * * * * * * * * * //

dimensions      [1 -1 -1 0 0 0 0];

internalField   nonuniform List<scalar> 
6000
(
0.041292847
0.041292824
0.041292831
0.041292856
0.041292889
0.041292932
0.041292983
0.041293016
0.041292808
0.041290571
0.041271537
0.041111294
0.0397723
0.030564074
0.013464793
0.040788543
0.040788537
0.040788576
0.040788654
0.040788758
0.040788888
0.04078902
0.040788972
0.040787494
0.040776037
0.040696382
0.040161217
0.036863805
0.023766469
0.015141611
0.04033569
0.040335696
0.040335761
0.040335884
0.040336044
0.040336229
0.04033633
0.040335685
0.040330323
0.040296649
0.040097616
0.038983223
0.033614213
0.0194951
0.016360294
0.039926215
0.039926219
0.039926301
0.039926459
0.03992666
0.039926848
0.039926701
0.039924457
0.039910659
0.039835636
0.039448738
0.037597438
0.030384627
0.016783058
0.017196555
0.039553796
0.039553808
0.039553906
0.039554093
0.039554312
0.039554413
0.039553622
0.0395481
0.039519187
0.039379112
0.038737841
0.036066498
0.027427863
0.015063192
0.01773179
0.039213273
0.039213296
0.039213408
0.039213613
0.039213809
0.039213657
0.039211571
0.039200298
0.039147643
0.038916647
0.037965398
0.034462847
0.024852826
0.013984463
0.018040007
0.038900366
0.038900399
0.038900521
0.038900723
0.038900826
0.038900159
0.038895819
0.03887551
0.038788999
0.038441492
0.037140256
0.032849727
0.022675913
0.013336844
0.018183117
0.038611532
0.038611573
0.038611697
0.038611866
0.038611765
0.038610199
0.038602307
0.038568928
0.038437606
0.037950377
0.036275872
0.031274836
0.020870828
0.012994967
0.018210197
0.038343817
0.038343862
0.038343975
0.038344065
0.038343601
0.038340605
0.038327517
0.03827644
0.038089201
0.037442856
0.03538704
0.029770035
0.019396999
0.012882914
0.018158676
0.038094736
0.03809478
0.038094862
0.038094803
0.038093753
0.038088644
0.038068396
0.037994592
0.037740813
0.036920505
0.03448763
0.028354169
0.018213448
0.012953916
0.018056304
0.037862183
0.037862216
0.037862238
0.037861935
0.037860009
0.037851941
0.037822294
0.037720559
0.037390607
0.036386134
0.033589398
0.02703684
0.017284481
0.013178532
0.017923231
0.03764436
0.037644371
0.037644291
0.037643618
0.037640447
0.037628426
0.037586933
0.037452106
0.037037684
0.035843147
0.032701562
0.025821837
0.016581272
0.013537499
0.017773886
0.037439726
0.037439699
0.03743946
0.037438254
0.037433393
0.037416287
0.037360374
0.037187532
0.036681868
0.035295042
0.031830871
0.02470985
0.016081614
0.014017191
0.017618497
0.037246949
0.037246861
0.037246392
0.037244452
0.037237378
0.037213943
0.037140989
0.036925609
0.0363235
0.034745073
0.030981931
0.023700436
0.015768976
0.014606606
0.017464261
0.037064871
0.037064693
0.037063903
0.037060987
0.037051109
0.037020016
0.036927437
0.036665512
0.035963258
0.03419604
0.030157673
0.022793377
0.015631332
0.015295285
0.017316197
0.03689248
0.036892177
0.036890955
0.036886782
0.036873442
0.036833316
0.036718634
0.03640675
0.035602004
0.033650187
0.029359858
0.021989538
0.015659917
0.016071914
0.01717775
0.036728885
0.036728414
0.036726628
0.036720878
0.03670337
0.036652818
0.036513731
0.036149096
0.035240656
0.033109157
0.028589603
0.021291346
0.015847992
0.016923492
0.017051196
0.036573301
0.03657261
0.036570106
0.036562424
0.036540005
0.036477653
0.03631208
0.035892529
0.034880099
0.032574024
0.027847913
0.02070292
0.016189617
0.017835049
0.016937915
0.036425028
0.036424056
0.036420663
0.036410663
0.036382564
0.036307092
0.036113215
0.03563717
0.034521109
0.032045349
0.027136212
0.020229918
0.016678486
0.018789894
0.016838558
0.036283441
0.03628212
0.036277645
0.036264917
0.036230367
0.036140535
0.03591682
0.035383242
0.034164308
0.031523285
0.026456862
0.019879123
0.01730689
0.019770316
0.016753165
0.036147982
0.036146234
0.036140468
0.036124584
0.036082821
0.035977497
0.035722708
0.035131018
0.033810124
0.031007717
0.025813646
0.019657797
0.018064911
0.0207586
0.016681265
0.036018143
0.036015885
0.036008605
0.035989127
0.035939416
0.035817597
0.035530799
0.034880794
0.033458783
0.030498445
0.025212142
0.019572905
0.018939948
0.021738147
0.016621966
0.03589347
0.03589061
0.035881581
0.035858069
0.035799718
0.035660549
0.035341095
0.034632853
0.033110301
0.029995409
0.024659951
0.019630248
0.019916664
0.02269449
0.016574063
0.035773545
0.035769987
0.035758968
0.035730991
0.035663366
0.035506152
0.035153669
0.034387441
0.032764498
0.029498968
0.024166686
0.019833637
0.020977366
0.023616003
0.016536152
0.035657992
0.035653635
0.035640383
0.035607524
0.035530063
0.035354279
0.034968643
0.03414475
0.03242103
0.029010211
0.023743688
0.020184173
0.022102784
0.024494227
0.016506745
0.035546464
0.035541207
0.035525479
0.035487349
0.035399574
0.035204869
0.034786172
0.033904896
0.032079439
0.028531302
0.023403466
0.020679734
0.023273104
0.025323801
0.016484372
0.035438647
0.035432386
0.035413948
0.035370193
0.035271718
0.035057919
0.034606436
0.03366791
0.03173923
0.028065808
0.023158915
0.021314706
0.0244691
0.026102089
0.016467662
0.035334251
0.035326887
0.035305516
0.035255823
0.03514637
0.034913479
0.03442962
0.033433727
0.031399978
0.02761899
0.023022388
0.022080017
0.025673169
0.026828633
0.016455398
0.035233012
0.035224448
0.035199939
0.03514405
0.035023453
0.034771643
0.034255909
0.033202186
0.031061475
0.027197981
0.02300477
0.022963453
0.026870127
0.027504567
0.016446543
0.035134691
0.035124836
0.035097009
0.035034724
0.034902936
0.03463254
0.03408547
0.032973033
0.030723903
0.0268118
0.023114634
0.02395025
0.02804767
0.028132079
0.016440248
0.035039067
0.03502784
0.034996542
0.034927732
0.034784832
0.034496333
0.033918446
0.032745938
0.030388047
0.026471168
0.023357598
0.025023884
0.02919649
0.028713982
0.016435834
0.034945943
0.034933275
0.034898386
0.034822996
0.034669194
0.034363211
0.033754944
0.032520522
0.030055535
0.0261881
0.023735916
0.026166983
0.030310099
0.029253407
0.016432778
0.034855141
0.034840974
0.034802418
0.034720475
0.034556112
0.034233382
0.033595029
0.032296402
0.029729079
0.025975303
0.024248335
0.027362251
0.031384439
0.029753594
0.016430685
0.034766502
0.034750797
0.03470854
0.034620164
0.034445715
0.034107066
0.033438713
0.032073259
0.029412693
0.025845436
0.024890191
0.028593299
0.032417399
0.030217765
0.016429265
0.034679887
0.034662624
0.034616684
0.034522088
0.034338162
0.033984492
0.033285952
0.031850929
0.029111867
0.025810316
0.025653733
0.029845307
0.033408315
0.030649046
0.016428312
0.034595176
0.034576356
0.034526808
0.034426308
0.034233647
0.033865888
0.033136649
0.03162952
0.028833634
0.025880171
0.026528621
0.03110546
0.03435753
0.03105041
0.016427682
0.034512269
0.034491917
0.034438897
0.034332917
0.034132389
0.033751478
0.032990657
0.031409556
0.028586516
0.026063012
0.027502556
0.032363146
0.035266043
0.031424648
0.01642728
0.034431083
0.034409252
0.034352965
0.034242042
0.034034637
0.033641469
0.032847794
0.031192143
0.028380316
0.026364178
0.028561981
0.03360995
0.036135249
0.031774346
0.016427047
0.034351558
0.034328331
0.034269052
0.034153841
0.033940664
0.03353605
0.032707869
0.030979151
0.02822576
0.026786092
0.029692791
0.034839475
0.036966771
0.032101875
0.01642695
0.034273652
0.034249145
0.03418723
0.034068505
0.03385076
0.033435383
0.03257072
0.030773393
0.028133999
0.027328223
0.030880996
0.036047069
0.037762345
0.032409381
0.016426974
0.034197344
0.03417171
0.034107598
0.033986257
0.033765237
0.033339598
0.032436275
0.030578782
0.028116034
0.027987227
0.032113287
0.037229505
0.038523756
0.032698799
0.016427117
0.034122637
0.034096065
0.034030285
0.033907355
0.033684417
0.033248788
0.032304627
0.030400435
0.028182108
0.028757252
0.033377463
0.038384664
0.039252795
0.032971855
0.016427382
0.034049553
0.034022276
0.033955452
0.033832084
0.033608631
0.033163012
0.03217613
0.030244714
0.028341141
0.029630361
0.03466271
0.039511267
0.039951228
0.033230086
0.016427779
0.03397814
0.033950437
0.033883292
0.033760766
0.033538214
0.033082299
0.032051523
0.030119154
0.028600249
0.030597024
0.03595973
0.040608642
0.040620778
0.033474856
0.016428318
0.033908471
0.033880668
0.033814033
0.033693749
0.033473497
0.033006661
0.031932061
0.03003229
0.028964397
0.031646654
0.037260746
0.04167656
0.041263101
0.033707373
0.01642901
0.033840644
0.033813121
0.033747936
0.033631414
0.033414804
0.032936114
0.031819661
0.029993368
0.029436211
0.032768131
0.038559407
0.042715109
0.04187978
0.033928706
0.016429865
0.033774787
0.03374798
0.033685299
0.033574167
0.033362441
0.032870716
0.031717043
0.03001196
0.030015933
0.033950285
0.03985063
0.043724613
0.042472315
0.034139802
0.016430892
0.033711057
0.03368546
0.033626458
0.03352244
0.033316699
0.032810614
0.031627852
0.030097518
0.030701523
0.035182302
0.041130416
0.044705565
0.043042114
0.034341502
0.016432097
0.033649643
0.033625814
0.033571787
0.033476689
0.033277844
0.032756112
0.031556732
0.030258902
0.031488877
0.036454044
0.042395664
0.045658587
0.043590498
0.034534553
0.016433487
0.03359077
0.033569333
0.033521698
0.033437386
0.03324612
0.032707755
0.031509355
0.030503936
0.032372142
0.037756265
0.043643995
0.046584395
0.044118699
0.034719617
0.016435064
0.033534699
0.033516348
0.033476647
0.033405019
0.033221752
0.032666431
0.031492356
0.030839024
0.033344084
0.039080733
0.044873611
0.047483769
0.044627863
0.034897289
0.016436831
0.033481731
0.033467235
0.033437127
0.033380082
0.033204961
0.032633489
0.031513193
0.031268861
0.034396488
0.040420262
0.046083174
0.048357532
0.045119059
0.035068096
0.016438788
0.033432211
0.033422413
0.033403675
0.033363076
0.033195976
0.032610853
0.031579918
0.031796259
0.03552055
0.041768686
0.047271715
0.049206529
0.045593276
0.035232513
0.016440933
0.033386531
0.033382352
0.033376864
0.033354497
0.033195077
0.032601147
0.031700866
0.032422084
0.03670725
0.043120784
0.04843856
0.050031612
0.046051436
0.035390968
0.016443266
0.033345134
0.033347573
0.033357309
0.033354835
0.033202626
0.032607789
0.031884301
0.033145311
0.037947668
0.044472176
0.049583278
0.05083363
0.046494395
0.035543843
0.016445782
0.033308518
0.033318652
0.033345661
0.033364571
0.033219141
0.032635057
0.032138035
0.033963169
0.039233244
0.045819216
0.050705634
0.051613418
0.046922949
0.035691488
0.016448478
0.033277237
0.03329622
0.033342601
0.033384173
0.033245361
0.032688105
0.032469062
0.034871372
0.040555959
0.047158885
0.051805555
0.052371791
0.047337837
0.035834217
0.01645135
0.033251914
0.033280969
0.033348844
0.033414105
0.033282343
0.032772911
0.032883237
0.035864388
0.041908463
0.048488693
0.052883094
0.053109542
0.047739745
0.035972318
0.016454394
0.033233235
0.033273652
0.033365128
0.033454835
0.03333156
0.032896159
0.033385024
0.036935748
0.043284131
0.049806596
0.053938412
0.053827437
0.048129314
0.036106051
0.016457603
0.033221962
0.033275082
0.033392211
0.03350685
0.033395014
0.033065044
0.033977324
0.038078352
0.044677075
0.051110926
0.05497175
0.054526213
0.04850714
0.036235656
0.016460973
0.033218934
0.033286139
0.033430864
0.033570696
0.033475329
0.033287014
0.03466141
0.039284766
0.04608212
0.052400332
0.05598341
0.05520658
0.048873778
0.036361354
0.016464499
0.033225073
0.033307763
0.033481871
0.033647008
0.033575842
0.033569477
0.035436941
0.04054748
0.047494751
0.053673735
0.056973746
0.055869219
0.049229751
0.036483352
0.016468173
0.033241386
0.033340956
0.033546021
0.033736578
0.033700657
0.033919471
0.036302056
0.041859126
0.048911058
0.054930283
0.057943142
0.056514761
0.049575438
0.03660108
0.01647199
0.033268972
0.033386781
0.033624113
0.03384042
0.03385465
0.034343357
0.037253549
0.043212647
0.050327662
0.056169314
0.058892
0.0571438
0.049911237
0.036714876
0.016475942
0.033309024
0.033446356
0.033716954
0.033959861
0.03404342
0.034846534
0.038287069
0.044601416
0.051741659
0.057390332
0.059820739
0.057756906
0.050237551
0.036825043
0.016480019
0.03336283
0.033520853
0.033825377
0.03409663
0.034273183
0.035433217
0.03939737
0.046019308
0.053150552
0.058592973
0.060729786
0.05835463
0.050554793
0.036931849
0.016484214
0.033431776
0.033611492
0.03395026
0.034252957
0.034550595
0.036106275
0.040578557
0.047460735
0.054552209
0.059776989
0.061619571
0.05893745
0.05086292
0.037035579
0.016488518
0.033517345
0.033719535
0.034092552
0.03443167
0.034882522
0.036867158
0.041824326
0.048920651
0.055944807
0.060942227
0.062490515
0.059505809
0.051162149
0.037136395
0.016492923
0.033621116
0.033846284
0.034253328
0.034636258
0.035275776
0.037715893
0.043128186
0.050394532
0.057326797
0.062088609
0.063343037
0.060060164
0.051452981
0.037234384
0.016497425
0.03374476
0.033993083
0.034433841
0.034870918
0.035736827
0.038651152
0.044483651
0.051878347
0.058696867
0.063216121
0.064177557
0.060600976
0.051735852
0.037329654
0.016502019
0.033890037
0.034161313
0.0346356
0.035140548
0.036271524
0.03967038
0.045884387
0.053368521
0.060053912
0.064324805
0.06499448
0.061128578
0.052011166
0.037422332
0.0165067
0.034058791
0.034352411
0.034860452
0.03545069
0.036884841
0.040769965
0.04732433
0.05486189
0.061397007
0.065414741
0.065794155
0.061642956
0.05227931
0.037512565
0.016511467
0.034252942
0.03456788
0.035110678
0.035807415
0.037580677
0.041945441
0.048797765
0.056355664
0.062725379
0.066486037
0.066576945
0.062144679
0.052540491
0.037600456
0.016516317
0.034474487
0.034809323
0.035389082
0.036217142
0.038361707
0.04319169
0.050299371
0.057847385
0.064038384
0.067538828
0.067343234
0.062634259
0.052794927
0.037686092
0.016521247
0.034725496
0.035078486
0.035699071
0.036686423
0.039229315
0.044503158
0.051824242
0.059334893
0.065335493
0.068573279
0.068093419
0.063112155
0.053042848
0.037769552
0.016526253
0.035008119
0.035377313
0.036044707
0.037221682
0.040183579
0.045874037
0.053367892
0.060816295
0.06661628
0.069589534
0.068827398
0.063578829
0.053284505
0.03785093
0.016531332
0.035324598
0.035708023
0.036430722
0.037828951
0.041223335
0.04729844
0.054926242
0.062289932
0.067880389
0.070587744
0.06954565
0.06403459
0.053520104
0.037930314
0.01653648
0.035677296
0.036073191
0.036862491
0.038513605
0.042346283
0.048770536
0.056495595
0.063754348
0.069127529
0.071568099
0.070248646
0.064479735
0.053749833
0.03800778
0.016541693
0.036068732
0.036475838
0.037345933
0.039280142
0.043549138
0.050284659
0.058072616
0.065208268
0.070357475
0.072530824
0.070936822
0.064914563
0.05397387
0.038083389
0.01654697
0.036501639
0.036919521
0.037887368
0.040131992
0.044827804
0.051835385
0.059654303
0.066650589
0.07157004
0.073475765
0.071610558
0.065339369
0.054192403
0.038157206
0.016552306
0.036979032
0.0374084
0.038493313
0.041071401
0.046177558
0.053417587
0.061237958
0.068080332
0.072765052
0.074403224
0.072270204
0.065754417
0.054405611
0.03822929
0.016557697
0.037504291
0.037947281
0.03917024
0.042099372
0.047593234
0.055026463
0.062821151
0.069496629
0.073942398
0.075313526
0.072916078
0.066159955
0.05461365
0.038299697
0.01656314
0.038081241
0.038541614
0.039924315
0.043215669
0.049069393
0.056657546
0.064401705
0.070898729
0.075101937
0.076206952
0.073548476
0.066556224
0.054816669
0.038368475
0.016568633
0.03871423
0.039197429
0.04076113
0.044418885
0.050600474
0.058306711
0.065977672
0.072285963
0.076243458
0.077083747
0.074167675
0.066943465
0.055014809
0.03843567
0.016574171
0.039408176
0.039921215
0.041685462
0.045706548
0.052180917
0.059970155
0.067547284
0.07365771
0.077366985
0.077944218
0.074773937
0.067321904
0.055208201
0.038501324
0.016579751
0.040168574
0.04071973
0.042701067
0.047075265
0.053805264
0.061644381
0.069108941
0.075013437
0.078472605
0.07878862
0.075367516
0.067691745
0.055396971
0.038565477
0.01658537
0.041001443
0.041599758
0.043810537
0.048520891
0.055468234
0.063326203
0.070661241
0.076352545
0.079560249
0.079617156
0.075948661
0.068053186
0.055581232
0.038628163
0.016591025
0.041913201
0.042567821
0.045015207
0.050038699
0.057164776
0.065012682
0.072202839
0.07767457
0.080630109
0.08043003
0.07651761
0.068406414
0.055761093
0.038689414
0.016596712
0.042910457
0.043629876
0.046315137
0.051623541
0.058890086
0.066701111
0.073732519
0.078979201
0.081682317
0.081227443
0.077074579
0.068751602
0.055936653
0.038749261
0.016602429
0.043999741
0.044791013
0.047709147
0.053270009
0.060639655
0.068389059
0.075249141
0.080265969
0.082716924
0.082009592
0.077619775
0.069088913
0.056108003
0.038807729
0.016608171
0.045187158
0.046055183
0.0491949
0.054972561
0.062409235
0.070074207
0.076751607
0.081534779
0.08373399
0.08277666
0.078153392
0.069418496
0.05627523
0.038864844
0.016613937
0.046478027
0.047424973
0.050769026
0.056725626
0.064194838
0.071754412
0.078238977
0.082785504
0.084733584
0.083528814
0.078675609
0.069740493
0.056438411
0.038920625
0.016619722
0.047876509
0.048901451
0.052427268
0.058523711
0.065992783
0.073427706
0.079710229
0.084017924
0.085715768
0.084266211
0.079186591
0.070055029
0.056597617
0.038975092
0.016625524
0.049385266
0.050484071
0.054164629
0.060361417
0.067799523
0.075092132
0.081164876
0.085231855
0.086680595
0.084988992
0.079686489
0.070362224
0.056752912
0.039028262
0.01663134
0.051005197
0.052170661
0.055975536
0.062233544
0.069611801
0.076745741
0.082602295
0.086427125
0.087628104
0.085697283
0.080175441
0.070662182
0.056904353
0.039080148
0.016637166
0.052735257
0.053957476
0.057853947
0.064135
0.071426391
0.07838714
0.084021876
0.087603556
0.088558323
0.086391193
0.080653568
0.070954999
0.057051993
0.039130761
0.016643
0.054572393
0.055839311
0.059793517
0.066060903
0.073240065
0.080015038
0.085423045
0.08876097
0.089471266
0.087070815
0.081120978
0.071240758
0.057195875
0.039180112
0.016648838
0.056511586
0.057809644
0.061787595
0.068006331
0.075050251
0.081628177
0.086805243
0.089899178
0.090366928
0.087736224
0.081577762
0.071519533
0.057336038
0.039228207
0.016654678
0.058546005
0.059860819
0.063829312
0.069966495
0.076854577
0.083225358
0.088167926
0.09101798
0.091245287
0.088387477
0.082023997
0.071791386
0.057472515
0.03927505
0.016660516
0.060667184
0.061984126
0.065911529
0.071937231
0.078650791
0.084805434
0.089510553
0.092117165
0.092106301
0.089024611
0.082459744
0.072056366
0.057605329
0.039320645
0.016666349
0.062865233
0.064170168
0.068027416
0.073914531
0.080436741
0.086367299
0.090832587
0.093196504
0.092949906
0.089647643
0.082885046
0.072314514
0.057734502
0.03936499
0.016672174
0.065129297
0.066409152
0.070170191
0.075894524
0.082210368
0.08790988
0.092133488
0.094255752
0.09377602
0.090256571
0.083299933
0.072565858
0.057860044
0.039408084
0.016677988
0.067447941
0.06869107
0.07233316
0.077873467
0.083969691
0.089432132
0.093412713
0.095294644
0.094584534
0.09085137
0.083704415
0.072810413
0.057981964
0.039449921
0.016683787
0.069809501
0.071005898
0.07450975
0.079847736
0.085712796
0.090933032
0.094669712
0.096312898
0.09537532
0.091431997
0.084098488
0.073048184
0.058100259
0.039490494
0.016689569
0.072202396
0.07334378
0.076693553
0.081813812
0.087437826
0.092411575
0.09590393
0.097310211
0.096148225
0.091998384
0.084482129
0.073279166
0.058214924
0.039529794
0.016695329
0.074615393
0.075695182
0.078878356
0.083768282
0.089142979
0.093866776
0.097114806
0.098286264
0.096903076
0.092550448
0.0848553
0.073503339
0.058325944
0.039567808
0.016701064
0.07703781
0.07805102
0.081058186
0.085707842
0.090826499
0.095297664
0.098301774
0.099240721
0.097639679
0.093088083
0.085217948
0.073720675
0.0584333
0.039604523
0.01670677
0.079459671
0.080402764
0.083227343
0.087629296
0.092486679
0.096703285
0.099464266
0.10017323
0.098357823
0.093611164
0.085570001
0.073931132
0.058536966
0.039639919
0.016712444
0.081871803
0.082742506
0.085380437
0.089529569
0.094121861
0.098082706
0.10060172
0.10108344
0.09905728
0.094119551
0.085911375
0.074134658
0.058636908
0.03967398
0.016718081
0.084265893
0.085063009
0.087512416
0.091405717
0.095730439
0.099435017
0.10171357
0.10197098
0.099737808
0.094613089
0.086241973
0.074331194
0.058733089
0.039706682
0.016723677
0.086634509
0.087357728
0.089618591
0.093254938
0.097310863
0.10075933
0.10279926
0.10283549
0.10039916
0.095091609
0.086561685
0.074520668
0.058825465
0.039738002
0.016729228
0.088971088
0.08962082
0.091694654
0.095074591
0.098861652
0.1020548
0.10385827
0.10367659
0.10104107
0.095554935
0.086870391
0.074703003
0.058913987
0.039767914
0.016734729
0.091269906
0.091847123
0.093736689
0.096862201
0.10038139
0.1033206
0.10489007
0.10449393
0.1016633
0.096002883
0.087167963
0.074878112
0.058998601
0.039796391
0.016740175
0.093526033
0.094032136
0.095741177
0.098615475
0.10186875
0.10455596
0.10589417
0.10528718
0.10226558
0.096435265
0.087454268
0.075045904
0.059079251
0.039823404
0.016745562
0.095735278
0.096171985
0.097704993
0.10033231
0.10332249
0.10576016
0.10687012
0.10605599
0.10284767
0.096851897
0.08772917
0.075206287
0.059155877
0.039848923
0.016750883
0.097894123
0.098263378
0.099625396
0.10201081
0.10474146
0.10693253
0.10781749
0.10680007
0.10340933
0.097252597
0.087992533
0.075359163
0.059228418
0.039872917
0.016756135
0.099999673
0.10030357
0.10150002
0.10364927
0.1061246
0.10807246
0.1087359
0.10751915
0.10395036
0.097637194
0.088244224
0.075504436
0.059296812
0.039895356
0.016761311
0.10204958
0.1022903
0.10332686
0.10524619
0.107471
0.10917939
0.109625
0.10821299
0.10447056
0.09800553
0.088484117
0.075642014
0.059361
0.039916209
0.016766407
0.104042
0.10422177
0.10510424
0.10680027
0.10877981
0.11025285
0.11048452
0.10888137
0.10496977
0.098357461
0.088712095
0.075771806
0.05942092
0.039935447
0.016771415
0.10597553
0.10609658
0.1068308
0.10831043
0.11005032
0.11129244
0.11131421
0.10952415
0.10544784
0.098692867
0.088928052
0.075893731
0.05947652
0.039953043
0.016776331
0.10784914
0.1079137
0.10850549
0.10977576
0.11128194
0.11229782
0.11211389
0.11014119
0.10590467
0.099011649
0.0891319
0.076007716
0.059527747
0.03996897
0.016781149
0.10966216
0.10967242
0.1101275
0.11119555
0.11247419
0.11326872
0.11288344
0.11073242
0.10634021
0.099313736
0.089323567
0.076113698
0.059574557
0.039983206
0.016785863
0.11141423
0.1113723
0.11169629
0.11256927
0.1136267
0.11420499
0.11362279
0.11129782
0.10675441
0.099599087
0.089503003
0.076211629
0.059616915
0.039995732
0.016790468
0.11310522
0.11301318
0.11321154
0.11389654
0.11473922
0.11510649
0.11433193
0.11183741
0.10714729
0.09986769
0.089670179
0.076301475
0.059654791
0.040006531
0.016794958
0.11473525
0.11459511
0.11467313
0.11517715
0.1158116
0.11597322
0.11501091
0.11235125
0.1075189
0.10011957
0.089825092
0.076383219
0.059688168
0.040015593
0.016799327
0.11630464
0.11611833
0.11608112
0.11641105
0.11684379
0.11680521
0.11565984
0.11283947
0.10786934
0.10035478
0.089967765
0.076456862
0.059717038
0.040022912
0.016803571
0.11781386
0.11758326
0.11743573
0.1175983
0.11783587
0.11760259
0.11627888
0.11330224
0.10819875
0.10057341
0.090098248
0.076522424
0.059741407
0.040028488
0.016807684
0.11926356
0.11899046
0.11873733
0.1187391
0.11878798
0.11836553
0.11686825
0.11373976
0.1085073
0.1007756
0.090216619
0.076579946
0.059761291
0.040032325
0.016811663
0.12065449
0.12034061
0.11998642
0.11983377
0.11970036
0.11909429
0.11742822
0.1141523
0.10879521
0.1009615
0.090322983
0.076629488
0.059776721
0.040034434
0.016815503
0.12198752
0.12163451
0.1211836
0.12088271
0.12057335
0.11978919
0.11795911
0.11454016
0.10906274
0.10113131
0.090417476
0.076671133
0.059787739
0.040034833
0.016819199
0.1232636
0.12287306
0.12232959
0.12188644
0.12140733
0.12045059
0.11846129
0.11490369
0.10931018
0.10128525
0.090500257
0.076704982
0.059794404
0.040033546
0.016822749
0.12448377
0.12405723
0.12342516
0.12284555
0.12220277
0.12107894
0.11893519
0.11524328
0.10953787
0.1014236
0.090571517
0.07673116
0.059796784
0.040030602
0.016826151
0.12564912
0.12518804
0.1244712
0.12376069
0.12296023
0.12167472
0.11938124
0.11555933
0.10974617
0.10154664
0.09063147
0.076749809
0.059794964
0.040026036
0.0168294
0.12676082
0.12626661
0.12546863
0.12463261
0.12368027
0.12223844
0.11979995
0.11585231
0.10993547
0.10165469
0.090680356
0.076761093
0.05978904
0.04001989
0.016832496
0.12782006
0.12729407
0.12641844
0.12546209
0.12436356
0.12277068
0.12019185
0.11612271
0.11010621
0.1017481
0.090718437
0.076765191
0.059779119
0.040012211
0.016835436
0.12882808
0.12827161
0.12732166
0.12624997
0.12501078
0.12327205
0.12055749
0.11637103
0.11025882
0.10182724
0.090745998
0.076762304
0.059765322
0.040003051
0.016838221
0.12978613
0.12920043
0.12817935
0.12699713
0.12562267
0.12374319
0.12089747
0.11659782
0.11039379
0.10189251
0.090763344
0.076752644
0.059747779
0.039992468
0.016840849
0.13069552
0.13008178
0.12899262
0.12770449
0.12619999
0.12418478
0.12121241
0.11680364
0.11051161
0.10194431
0.090770795
0.076736442
0.059726629
0.039980522
0.01684332
0.13155753
0.1309169
0.1297626
0.12837301
0.12674354
0.12459753
0.12150293
0.11698907
0.11061279
0.10198309
0.090768692
0.076713937
0.059702021
0.039967279
0.016845636
0.13237348
0.13170708
0.13049043
0.12900366
0.12725416
0.12498214
0.12176971
0.11715471
0.11069787
0.10200928
0.090757385
0.076685384
0.059674113
0.039952808
0.016847797
0.1331447
0.13245358
0.13117728
0.12959743
0.12773269
0.12533938
0.12201341
0.11730116
0.11076738
0.10202334
0.090737238
0.076651047
0.059643066
0.03993718
0.016849805
0.13387251
0.1331577
0.13182431
0.13015535
0.12817999
0.12567
0.12223472
0.11742906
0.11082188
0.10202575
0.090708627
0.076611197
0.059609049
0.039920468
0.016851661
0.13455822
0.13382071
0.1324327
0.13067844
0.12859696
0.12597478
0.12243433
0.11753903
0.11086192
0.10201699
0.090671934
0.076566112
0.059572236
0.039902749
0.016853368
0.13520316
0.1344439
0.13300364
0.13116774
0.12898449
0.12625451
0.12261297
0.11763171
0.11088809
0.10199753
0.090627547
0.076516076
0.059532803
0.039884098
0.016854929
0.13580864
0.13502854
0.1335383
0.13162428
0.12934347
0.12650996
0.12277133
0.11770776
0.11090094
0.10196786
0.090575858
0.076461377
0.059490929
0.039864593
0.016856347
0.13637597
0.13557591
0.13403787
0.13204911
0.12967482
0.12674196
0.12291013
0.11776781
0.11090106
0.10192849
0.090517265
0.076402306
0.059446794
0.039844313
0.016857624
0.13690643
0.13608725
0.13450351
0.13244328
0.12997945
0.12695129
0.1230301
0.11781251
0.11088901
0.10187989
0.090452164
0.076339152
0.059400578
0.039823333
0.016858766
0.13740129
0.13656382
0.13493638
0.13280781
0.13025826
0.12713876
0.12313195
0.1178425
0.11086538
0.10182257
0.090380952
0.076272207
0.059352462
0.039801732
0.016859775
0.13786184
0.13700684
0.13533764
0.13314375
0.13051216
0.12730516
0.1232164
0.11785844
0.11083073
0.101757
0.090304022
0.076201761
0.059302624
0.039779584
0.016860656
0.13828929
0.13741754
0.13570843
0.13345212
0.13074206
0.12745131
0.12328415
0.11786096
0.11078562
0.10168368
0.090221766
0.076128099
0.059251241
0.039756965
0.016861412
0.13868489
0.13779711
0.13604987
0.13373393
0.13094885
0.12757797
0.12333592
0.1178507
0.11073063
0.10160308
0.090134572
0.076051506
0.059198486
0.039733946
0.01686205
0.13904984
0.13814673
0.13636307
0.13399018
0.13113342
0.12768595
0.1233724
0.11782827
0.11066629
0.10151567
0.090042821
0.075972258
0.059144531
0.039710599
0.016862572
0.13938532
0.13846755
0.13664912
0.13422188
0.13129665
0.12777602
0.12339428
0.1177943
0.11059317
0.10142193
0.089946886
0.07589063
0.059089541
0.039686992
0.016862984
0.1396925
0.13876072
0.1369091
0.13442998
0.1314394
0.12784894
0.12340226
0.11774939
0.11051178
0.10132231
0.089847136
0.075806888
0.059033677
0.03966319
0.01686329
0.13997251
0.13902735
0.13714405
0.13461546
0.13156252
0.12790548
0.12339699
0.11769415
0.11042266
0.10121726
0.08974393
0.075721292
0.058977096
0.039639257
0.016863496
0.14022647
0.13926852
0.13735502
0.13477925
0.13166687
0.12794636
0.12337914
0.11762915
0.11032633
0.10110721
0.089637616
0.075634094
0.05891995
0.039615254
0.016863606
0.14045547
0.13948532
0.137543
0.13492228
0.13175325
0.12797233
0.12334937
0.11755499
0.11022328
0.10099259
0.089528535
0.075545538
0.058862383
0.039591238
0.016863625
0.14066058
0.13967878
0.137709
0.13504546
0.13182249
0.1279841
0.12330829
0.11747221
0.11011401
0.10087382
0.089417017
0.075455859
0.058804534
0.039567263
0.016863558
0.14084283
0.13984993
0.13785398
0.13514967
0.13187538
0.12798238
0.12325655
0.11738136
0.109999
0.10075129
0.08930338
0.075365286
0.058746537
0.039543382
0.016863409
0.14100325
0.13999975
0.13797889
0.13523578
0.13191268
0.12796784
0.12319473
0.11728299
0.10987871
0.1006254
0.089187932
0.075274033
0.058688517
0.039519641
0.016863183
0.14114283
0.14012922
0.13808464
0.13530463
0.13193517
0.12794117
0.12312345
0.11717762
0.10975359
0.10049653
0.089070969
0.075182311
0.058630595
0.039496087
0.016862885
0.14126251
0.14023929
0.13817213
0.13535706
0.13194358
0.12790302
0.12304327
0.11706574
0.10962408
0.10036504
0.088952775
0.075090317
0.058572883
0.03947276
0.016862519
0.14136326
0.14033087
0.13824224
0.13539387
0.13193864
0.12785403
0.12295475
0.11694786
0.1094906
0.10023128
0.088833623
0.07499824
0.058515488
0.039449701
0.016862089
0.14144597
0.14040486
0.13829582
0.13541584
0.13192104
0.12779483
0.12285846
0.11682445
0.10935357
0.10009559
0.088713772
0.074906258
0.05845851
0.039426945
0.016861601
0.14151153
0.14046212
0.1383337
0.13542373
0.13189149
0.12772601
0.12275491
0.11669598
0.10921338
0.09995829
0.088593473
0.074814541
0.058402042
0.039404525
0.016861058
0.14156081
0.14050351
0.13835668
0.1354183
0.13185063
0.12764818
0.12264463
0.11656289
0.1090704
0.099819695
0.08847296
0.074723249
0.058346171
0.03938247
0.016860465
0.14159464
0.14052983