/*--------------------------------*- C++ -*----------------------------------*\
| =========                 |                                                 |
| \\      /  F ield         | OpenFOAM: The Open Source CFD Toolbox           |
|  \\    /   O peration     | Version:  2506                                  |
|   \\  /    A nd           | Website:  www.openfoam.com                      |
|    \\/     M anipulation  |                                                 |
\*---------------------------------------------------------------------------*/
FoamFile
{
    version     2.0;
    format      ascii;
    arch        "LSB;label=32;scalar=64";
    class       volScalarField;
    location    "25000/water";
    object      epsilon;
}
// * * * * * * * * * * * * * * * * * * * * * * * * * * * * * * * * * * * * * //

dimensions      [0 2 -3 0 0 0 0];

internalField   nonuniform List<scalar> 
6000
(
0.00010005327
0.00010005311
0.00010005314
0.00010005327
0.00010005342
0.00010005363
0.0001000539
0.00010005427
0.00010005511
0.00010005982
0.00010010144
0.00010049509
0.00010424183
0.00014354191
0.00073980483
8.5785229e-05
8.5785556e-05
8.5786111e-05
8.5786982e-05
8.5788138e-05
8.5789633e-05
8.5791527e-05
8.5794043e-05
8.5798789e-05
8.581901e-05
8.5962524e-05
8.7071869e-05
9.5619929e-05
0.00016974081
0.0010520452
7.4267219e-05
7.4268013e-05
7.426896e-05
7.4270365e-05
7.4272213e-05
7.4274585e-05
7.4277581e-05
7.4281747e-05
7.4291154e-05
7.4336305e-05
7.4633748e-05
7.6634978e-05
9.0041817e-05
0.00019500629
0.0013270628
6.4852864e-05
6.485355e-05
6.4854661e-05
6.4856389e-05
6.4858676e-05
6.4861616e-05
6.4865387e-05
6.4871112e-05
6.4886838e-05
6.4967364e-05
6.5458677e-05
6.84101e-05
8.6285088e-05
0.00021715658
0.0015411415
5.7072087e-05
5.7072704e-05
5.7073918e-05
5.7075861e-05
5.7078448e-05
5.7081784e-05
5.7086167e-05
5.7093598e-05
5.7117581e-05
5.7242267e-05
5.7947685e-05
6.180797e-05
8.3505097e-05
0.0002348614
0.0016895689
5.0576692e-05
5.0577312e-05
5.0578592e-05
5.0580667e-05
5.0583434e-05
5.0587016e-05
5.0591882e-05
5.0601216e-05
5.0635234e-05
5.0810032e-05
5.1732149e-05
5.6406881e-05
8.1259069e-05
0.00024828861
0.0017792142
4.5104569e-05
4.5105188e-05
4.5106499e-05
4.5108638e-05
4.5111496e-05
4.5115213e-05
4.5120483e-05
4.5131961e-05
4.5177479e-05
4.5405527e-05
4.6535255e-05
5.1917397e-05
7.9376731e-05
0.00025838324
0.0018218943
4.0455895e-05
4.0456503e-05
4.045782e-05
4.0459977e-05
4.0462859e-05
4.0466628e-05
4.0472257e-05
4.0486117e-05
4.0544208e-05
4.0826355e-05
4.2148994e-05
4.8144563e-05
7.7837439e-05
0.00026629433
0.0018300463
3.6476506e-05
3.6477102e-05
3.6478406e-05
3.6480546e-05
3.6483399e-05
3.6487156e-05
3.6493116e-05
3.6509564e-05
3.6580944e-05
3.6916576e-05
3.8416896e-05
4.4958845e-05
7.6693461e-05
0.00027309124
0.0018145574
3.304611e-05
3.3046691e-05
3.304797e-05
3.3050065e-05
3.3052847e-05
3.3056537e-05
3.3062809e-05
3.3082024e-05
3.3167159e-05
3.3555102e-05
3.5220975e-05
4.2274823e-05
7.6025068e-05
0.00027965054
0.0017840405
3.0069857e-05
3.007042e-05
3.0071664e-05
3.0073692e-05
3.0076366e-05
3.0079941e-05
3.0086514e-05
3.0108667e-05
3.0207924e-05
3.0647227e-05
3.2471858e-05
4.0036357e-05
7.5917105e-05
0.00028663427
0.001744886
2.7472233e-05
2.7472777e-05
2.7473976e-05
2.7475917e-05
2.747845e-05
2.7481869e-05
2.7488744e-05
2.7514021e-05
2.7627825e-05
2.8118369e-05
3.010146e-05
3.820687e-05
7.6449192e-05
0.00029450875
0.0017016307
2.5192577e-05
2.5193098e-05
2.5194246e-05
2.5196082e-05
2.5198442e-05
2.520167e-05
2.520887e-05
2.5237507e-05
2.5366478e-05
2.5909414e-05
2.805763e-05
3.6763308e-05
7.7693097e-05
0.0003035735
0.00165739
2.3181748e-05
2.3182245e-05
2.3183333e-05
2.3185048e-05
2.3187207e-05
2.3190219e-05
2.3197794e-05
2.323011e-05
2.3375184e-05
2.3973213e-05
2.6300284e-05
3.5692527e-05
7.9712907e-05
0.00031398658
0.0016142425
2.1399629e-05
2.14001e-05
2.140112e-05
2.1402697e-05
2.140463e-05
2.1407412e-05
2.1415452e-05
2.1451882e-05
2.1614405e-05
2.2271964e-05
2.4798652e-05
3.4989203e-05
8.2565442e-05
0.00032578296
0.0015735325
1.9813231e-05
1.9813672e-05
1.9814616e-05
1.981604e-05
1.9817725e-05
1.9820279e-05
1.9828922e-05
1.9870043e-05
2.0051847e-05
2.0775227e-05
2.3529325e-05
3.4654636e-05
8.6299521e-05
0.00033888748
0.0015360911
1.8395236e-05
1.8395645e-05
1.8396506e-05
1.8397761e-05
1.8399183e-05
1.8401531e-05
1.8410972e-05
1.8457531e-05
1.8660989e-05
1.9458432e-05
2.2474895e-05
3.4695971e-05
9.095345e-05
0.00035312607
0.0015023901
1.7122886e-05
1.7123259e-05
1.7124028e-05
1.7125102e-05
1.712625e-05
1.7128438e-05
1.7138942e-05
1.7191872e-05
1.7419954e-05
1.8301752e-05
2.1622992e-05
3.5125546e-05
9.6550686e-05
0.00036823944
0.0014726449
1.5977101e-05
1.5977436e-05
1.5978105e-05
1.5978984e-05
1.5979859e-05
1.598196e-05
1.5993865e-05
1.6054312e-05
1.6310628e-05
1.7289248e-05
2.0965619e-05
3.5960111e-05
0.00010309413
0.00038390222
0.0014468811
1.4941799e-05
1.4942091e-05
1.4942652e-05
1.4943329e-05
1.494394e-05
1.4946058e-05
1.4959787e-05
1.5029124e-05
1.5317979e-05
1.6408225e-05
2.049868e-05
3.7219755e-05
0.00011055991
0.00039974861
0.00142498
1.4003348e-05
1.4003595e-05
1.4004041e-05
1.4004511e-05
1.400488e-05
1.4007153e-05
1.402322e-05
1.4103071e-05
1.442952e-05
1.5648751e-05
2.0221625e-05
3.8926414e-05
0.00011889194
0.00041540307
0.0014067117
1.3150142e-05
1.315034e-05
1.3150665e-05
1.3150927e-05
1.315109e-05
1.3153695e-05
1.3172714e-05
1.3264971e-05
1.3634892e-05
1.5003284e-05
2.0137155e-05
4.1101901e-05
0.00012799852
0.0004305123
0.0013917631
1.2372247e-05
1.2372393e-05
1.2372592e-05
1.237265e-05
1.2372659e-05
1.2375814e-05
1.2398506e-05
1.2505359e-05
1.2925534e-05
1.446641e-05
2.0250947e-05
4.3765469e-05
0.00013775238
0.00044477369
0.0013797649
1.1661123e-05
1.1661215e-05
1.1661286e-05
1.166115e-05
1.1661074e-05
1.1665043e-05
1.1692246e-05
1.1816209e-05
1.2294425e-05
1.4034634e-05
2.0571326e-05
4.6930996e-05
0.00014799478
0.00045795585
0.0013703185
1.1009401e-05
1.1009437e-05
1.1009378e-05
1.1009066e-05
1.1008994e-05
1.101409e-05
1.104677e-05
1.1190715e-05
1.1735881e-05
1.3706238e-05
2.1108871e-05
5.0604014e-05
0.00015854368
0.00046990848
0.0013630208
1.0410692e-05
1.041067e-05
1.0410485e-05
1.0410022e-05
1.0410062e-05
1.0416652e-05
1.0455917e-05
1.0623112e-05
1.1245399e-05
1.3481165e-05
2.1875889e-05
5.4778859e-05
0.00016920526
0.00048056142
0.001357486
9.8594384e-06
9.8593586e-06
9.8590515e-06
9.8584721e-06
9.8587577e-06
9.8672657e-06
9.9143754e-06
1.0108535e-05
1.0819533e-05
1.3360938e-05
2.2885735e-05
5.9436317e-05
0.00017978706
0.00048991474
0.001353362
9.3507874e-06
9.3506504e-06
9.3502304e-06
9.3495787e-06
9.3502669e-06
9.3611826e-06
9.4175684e-06
9.6428999e-06
1.045581e-05
1.3348574e-05
2.4151947e-05
6.4542152e-05
0.00019011095
0.00049802341
0.0013503406
8.8804873e-06
8.8802951e-06
8.8797751e-06
8.879106e-06
8.8803818e-06
8.8942644e-06
8.9615474e-06
9.2228179e-06
1.0152655e-05
1.3448503e-05
2.5687206e-05
7.0046824e-05
0.00020002406
0.00050498001
0.0013481619
8.4448007e-06
8.4445568e-06
8.4439543e-06
8.4433345e-06
8.4454129e-06
8.4628989e-06
8.5429123e-06
8.8455163e-06
9.9093487e-06
1.3666457e-05
2.7502144e-05
7.5886621e-05
0.00020940613
0.0005108985
0.0013466143
8.0404324e-06
8.0401416e-06
8.0394792e-06
8.0389884e-06
8.0421174e-06
8.0639293e-06
8.1587433e-06
8.508784e-06
9.7259953e-06
1.4009323e-05
2.9604058e-05
8.1986183e-05
0.00021817297
0.000515901
0.00134553
7.664468e-06
7.6641372e-06
7.663443e-06
7.6631755e-06
7.6676392e-06
7.6945949e-06
7.8065457e-06
8.2109262e-06
9.6034999e-06
1.4484936e-05
3.1995646e-05
8.8262229e-05
0.00022627582
0.0005201082
0.0013447796
7.3143234e-06
7.3139614e-06
7.3132697e-06
7.3133352e-06
7.319458e-06
7.3524816e-06
7.4842048e-06
7.950732e-06
9.5435555e-06
1.5101802e-05
3.4673865e-05
9.4628079e-05
0.00023369766
0.00052363336
0.0013442658
6.9877006e-06
6.9873184e-06
6.9866703e-06
6.9871959e-06
6.9953468e-06
7.0354818e-06
7.1899496e-06
7.7274515e-06
9.5486283e-06
1.5868742e-05
3.7629069e-05
0.00010099842
0.00024044745
0.00052657911
0.0013439174
6.6825513e-06
6.6821625e-06
6.6816065e-06
6.6827386e-06
6.6933357e-06
6.741759e-06
6.9223234e-06
7.5407805e-06
9.6219392e-06
1.6794438e-05
4.0844542e-05
0.00010729381
0.00024655353
0.00052903629
0.0013436835
6.3970453e-06
6.396666e-06
6.3962591e-06
6.3981651e-06
6.411682e-06
6.4697206e-06
6.6801611e-06
7.3908531e-06
9.7674314e-06
1.7886906e-05
4.429653e-05
0.00011344429
0.00025205716
0.0005310841
0.0013435288
6.1295436e-06
6.129193e-06
6.129001e-06
6.1318719e-06
6.1488438e-06
6.2179935e-06
6.4625723e-06
7.2782395e-06
9.9897187e-06
1.9152894e-05
4.7954809e-05
0.00011939198
0.00025700691
0.00053279086
0.0013434302
5.8785752e-06
5.8782757e-06
5.8783746e-06
5.8824275e-06
5.903459e-06
5.9854055e-06
6.2689287e-06
7.2039478e-06
1.0294006e-05
2.0597266e-05
5.1783774e-05
0.00012509231
0.00026145422
0.00053421506
0.001343373
5.6428172e-06
5.642595e-06
5.6430719e-06
5.6485531e-06
5.6743264e-06
5.7709695e-06
6.0988564e-06
7.1694287e-06
1.0685974e-05
2.2222385e-05
5.5743958e-05
0.00013051409
0.00026545026
0.00053540647
0.0013433493
5.4210776e-06
5.4209629e-06
5.4219174e-06
5.4291059e-06
5.4603909e-06
5.5738715e-06
5.9522322e-06
7.1765787e-06
1.1171622e-05
2.402758e-05
5.9793836e-05
0.00013563849
0.00026904378
0.00053640725
0.0013433553
5.2122808e-06
5.2123081e-06
5.2138535e-06
5.2230651e-06
5.26073e-06
5.3934608e-06
5.8291825e-06
7.2277422e-06
1.1757062e-05
2.6008735e-05
6.389172e-05
0.00014045745
0.00027228005
0.00053725289
0.0013433902
5.0154542e-06
5.0156629e-06
5.0179281e-06
5.0295196e-06
5.0745437e-06
5.2292435e-06
5.7300867e-06
7.3257058e-06
1.2448271e-05
2.8158068e-05
6.7997576e-05
0.00014497164
0.00027520025
0.00053797313
0.0013434553
4.8297171e-06
4.8301524e-06
4.8332834e-06
4.847658e-06
4.9011459e-06
5.0808782e-06
5.6555823e-06
7.4736832e-06
1.3250796e-05
3.0464119e-05
7.2074576e-05
0.00014918835
0.00027784139
0.00053859275
0.0013435527
4.654271e-06
4.6549842e-06
4.6591465e-06
4.6767597e-06
4.739957e-06
4.9481738e-06
5.6065719e-06
7.675286e-06
1.4169424e-05
3.2911987e-05
7.6090277e-05
0.00015311953
0.00028023648
0.00053913229
0.0013436849
4.4883913e-06
4.4894404e-06
4.4948214e-06
4.5161875e-06
4.5904991e-06
4.8310889e-06
5.5842315e-06
7.9344755e-06
1.5207848e-05
3.5483783e-05
8.0017361e-05
0.00015678017
0.00028241474
0.00053960872
0.0013438547
4.3314193e-06
4.3328703e-06
4.3396818e-06
4.3653818e-06
4.452392e-06
4.7297343e-06
5.5900196e-06
8.2554923e-06
1.6368331e-05
3.8159287e-05
8.3833933e-05
0.00016018692
0.00028440196
0.00054003599
0.0013440645
4.1827562e-06
4.1846838e-06
4.1931653e-06
4.2238553e-06
4.3253508e-06
4.6443763e-06
5.6256833e-06
8.6427599e-06
1.7651409e-05
4.0916739e-05
8.7523434e-05
0.00016335711
0.00028622083
0.00054042551
0.0013443165
4.0418571e-06
4.0443457e-06
4.0547683e-06
4.0911891e-06
4.2091847e-06
4.5754417e-06
5.6932629e-06
9.1007599e-06
1.9055658e-05
4.3733691e-05
9.1074255e-05
0.00016630804
0.00028789123
0.00054078658
0.0013446125
3.9082261e-06
3.9113713e-06
3.9240414e-06
3.96703e-06
4.103797e-06
4.5235248e-06
5.7950909e-06
9.6338802e-06
2.0577552e-05
4.658786e-05
9.4479149e-05
0.00016905655
0.0002894306
0.00054112679
0.0013449537
3.781412e-06
3.7853219e-06
3.8005859e-06
3.8510876e-06
4.0091864e-06
4.4893953e-06
5.9337826e-06
1.0246237e-05
2.2211424e-05
4.9457896e-05
9.7734538e-05
0.00017161867
0.00029085417
0.00054145227
0.001345341
3.6610043e-06
3.6658014e-06
3.6840513e-06
3.7431338e-06
3.9254494e-06
4.4740067e-06
6.1122181e-06
1.0941479e-05
2.394955e-05
5.2324021e-05
0.00010083981
0.0001740095
0.00029217524
0.00054176798
0.0013457749
3.5466302e-06
3.5524531e-06
3.5741321e-06
3.6430016e-06
3.8527838e-06
4.4785051e-06
6.3335102e-06
1.1722579e-05
2.5782347e-05
5.5168498e-05
0.00010379664
0.00017624311
0.00029340545
0.00054207791
0.0013462556
3.4379516e-06
3.4449572e-06
3.470567e-06
3.5505856e-06
3.7914931e-06
4.5042378e-06
6.6009579e-06
1.2591637e-05
2.7698674e-05
5.7975925e-05
0.00010660842
0.00017833256
0.00029455494
0.00054238526
0.0013467827
3.3346627e-06
3.3430286e-06
3.373137e-06
3.4658429e-06
3.7419925e-06
4.5527598e-06
6.9179826e-06
1.3549687e-05
2.968621e-05
6.0733356e-05
0.00010927977
0.00018028982
0.00029563258
0.00054269258
0.001347356
3.2364878e-06
3.2464154e-06
3.281665e-06
3.3887949e-06
3.7048152e-06
4.6258384e-06
7.2880454e-06
1.4596555e-05
3.173189e-05
6.3430276e-05
0.00011181611
0.00018212592
0.00029664614
0.00054300189
0.0013479746
3.1431799e-06
3.1548974e-06
3.1960156e-06
3.3195298e-06
3.6806199e-06
4.7254524e-06
7.7145467e-06
1.5730746e-05
3.3822339e-05
6.6058466e-05
0.0001142234
0.00018385092
0.0002976024
0.00054331476
0.0013486378
3.0545192e-06
3.0682854e-06
3.1160958e-06
3.2582055e-06
3.6701986e-06
4.8537869e-06
8.2007092e-06
1.6949408e-05
3.5944302e-05
6.8611786e-05
0.00011650785
0.00018547397
0.00029850734
0.00054363245
0.0013493444
2.9703119e-06
2.9864203e-06
3.0418551e-06
3.2050543e-06
3.6744852e-06
5.0132197e-06
8.7494481e-06
1.8248349e-05
3.8085014e-05
7.1085925e-05
0.00011867579
0.00018700343
0.00029936618
0.00054395588
0.0013500934
2.8903898e-06
2.9091733e-06
2.9732878e-06
3.1603869e-06
3.6945633e-06
5.2062983e-06
9.3632347e-06
1.9622123e-05
4.0232513e-05
7.347813e-05
0.00012073351
0.00018844688
0.00030018353
0.00054428577
0.0013508836
2.8146096e-06
2.836446e-06
2.9104344e-06
3.1245986e-06
3.7316741e-06
5.4357063e-06
1.004396e-05
2.1064181e-05
4.2375859e-05
7.5786947e-05
0.00012268718
0.00018981121
0.00030096345
0.00054462265
0.0013517136
2.7428528e-06
2.7681709e-06
2.8533843e-06
3.098175e-06
3.7872216e-06
5.7042165e-06
1.0792809e-05
2.256707e-05
4.4505284e-05
7.8011979e-05
0.00012454279
0.00019110266
0.00030170949
0.00054496682
0.0013525823
2.6750262e-06
2.7043127e-06
2.8022791e-06
3.0816992e-06
3.8627771e-06
6.0146317e-06
1.1610155e-05
2.4122664e-05
4.6612262e-05
8.0153673e-05
0.00012630606
0.0001923269
0.00030242477
0.00054531835
0.0013534881
2.6110622e-06
2.6448693e-06
2.7573159e-06
3.0758593e-06
3.9600781e-06
6.3697125e-06
1.2495478e-05
2.5722423e-05
4.8689513e-05
8.2213151e-05
0.00012798249
0.00019348921
0.00030311295
0.00054567957
0.0013544294
2.5509198e-06
2.5898742e-06
2.718752e-06
3.0814557e-06
4.0810247e-06
6.7720928e-06
1.3447327e-05
2.7357636e-05
5.0730962e-05
8.4192051e-05
0.00012957729
0.00019459431
0.00030377608
0.00054604532
0.0013554044
2.494586e-06
2.5393984e-06
2.6869098e-06
3.0994095e-06
4.2276674e-06
7.2241865e-06
1.4463315e-05
2.9019661e-05
5.2731649e-05
8.6092389e-05
0.00013109537
0.00019564635
0.00030441574
0.00054641397
0.001356411
2.4420772e-06
2.4935535e-06
2.6621824e-06
3.1307692e-06
4.4021888e-06
7.7280878e-06
1.5540154e-05
3.0700124e-05
5.468763e-05
8.7916448e-05
0.0001325413
0.00019664904
0.00030503329
0.00054678555
0.001357447
2.3934419e-06
2.4524951e-06
2.6450395e-06
3.1767179e-06
4.6068761e-06
8.2854732e-06
1.6673739e-05
3.2391089e-05
5.6595867e-05
8.9666719e-05
0.00013391946
0.00019760628
0.00030563174
0.00054715702
0.0013585105
2.3487625e-06
2.4164266e-06
2.6360347e-06
3.2385776e-06
4.8440837e-06
8.8975085e-06
1.7859257e-05
3.4085181e-05
5.8454118e-05
9.1345825e-05
0.00013523397
0.00019852138
0.00030621175
0.00054752793
0.0013595997
2.3081594e-06
2.3856042e-06
2.6358124e-06
3.3178123e-06
5.1161854e-06
9.5647689e-06
1.9091328e-05
3.5775673e-05
6.0260823e-05
9.2956453e-05
0.00013648859
0.0001993969
0.00030677292
0.00054790012
0.0013607134
2.2717941e-06
2.3603414e-06
2.6451158e-06
3.4160264e-06
5.4255166e-06
1.0287177e-05
2.0364156e-05
3.7456526e-05
6.2015002e-05
9.4501293e-05
0.00013768677
0.00020023507
0.00030731596
0.00054827481
0.0013618504
2.2398737e-06
2.3410154e-06
2.6647938e-06
3.5349599e-06
5.7743073e-06
1.1063964e-05
2.1671691e-05
3.9122403e-05
6.3716166e-05
9.5983031e-05
0.00013883181
0.00020103834
0.00030784123
0.00054865324
0.0013630097
2.2126561e-06
2.3280735e-06
2.6958092e-06
3.6764766e-06
6.1646083e-06
1.1893661e-05
2.3007783e-05
4.0768663e-05
6.5364249e-05
9.7404402e-05
0.00013992713
0.00020180983
0.00030834748
0.00054903727
0.001364191
2.1904555e-06
2.32204e-06
2.7392453e-06
3.8425463e-06
6.5982131e-06
1.2774117e-05
2.4366321e-05
4.2391325e-05
6.6959525e-05
9.8768023e-05
0.00014097539
0.00020254993
0.00030883713
0.00054942737
0.0013653935
2.1736491e-06
2.3235241e-06
2.796311e-06
4.0352185e-06
7.0765801e-06
1.3702541e-05
2.5741358e-05
4.3987022e-05
6.8502527e-05
0.00010007636
0.00014197891
0.00020325985
0.00030931204
0.00054982343
0.0013666165
2.1626844e-06
2.3332282e-06
2.8683445e-06
4.2565879e-06
7.6007599e-06
1.4675576e-05
2.7127209e-05
4.5552952e-05
6.9993986e-05
0.00010133172
0.0001429398
0.0002039411
0.00030977372
0.00055022521
0.0013678591
2.158087e-06
2.3519559e-06
2.956814e-06
4.5087508e-06
8.1713309e-06
1.5689388e-05
2.8518527e-05
4.7086837e-05
7.1434901e-05
0.00010253684
0.00014386158
0.00020459277
0.00031022403
0.00055063284
0.0013691205
2.1604699e-06
2.3806209e-06
3.0633136e-06
4.7937527e-06
8.7883502e-06
1.6739764e-05
2.9910355e-05
4.858686e-05
7.2826361e-05
0.00010369383
0.00014474503
0.00020521728
0.00031066405
0.00055104642
0.0013703999
2.1705425e-06
2.4202549e-06
3.1895555e-06
5.1135291e-06
9.4513222e-06
1.7822225e-05
3.1298155e-05
5.0051602e-05
7.4169483e-05
0.00010480454
0.00014559148
0.00020581673
0.00031109451
0.00055146587
0.0013716965
2.1891212e-06
2.472015e-06
3.3373545e-06
5.4698405e-06
1.0159187e-05
1.8932134e-05
3.2677819e-05
5.1479975e-05
7.54654e-05
0.00010587071
0.00014640252
0.00020639289
0.000311516
0.00055189094
0.0013730096
2.2171394e-06
2.5371893e-06
3.5086064e-06
5.8642048e-06
1.0910331e-05
2.0064794e-05
3.404568e-05
5.2871281e-05
7.6715687e-05
0.00010689531
0.00014717781
0.00020694763
0.00031192925
0.00055232141
0.0013743382
2.255658e-06
2.6172e-06
3.7052575e-06
6.2978309e-06
1.1702616e-05
2.1215543e-05
3.5398491e-05
5.4225044e-05
7.7921524e-05
0.00010787902
0.00014791972
0.00020748226
0.00031233487
0.00055275706
0.0013756815
2.3058756e-06
2.7136031e-06
3.9292657e-06
6.7715574e-06
1.2533434e-05
2.2379828e-05
3.6733396e-05
5.5540958e-05
7.9083961e-05
0.00010882301
0.00014863032
0.00020799792
0.00031273334
0.00055319762
0.0013770388
2.3691363e-06
2.8280834e-06
4.1825539e-06
7.2858002e-06
1.3399763e-05
2.3553272e-05
3.8047917e-05
5.681897e-05
8.0204411e-05
0.00010972814
0.00014931143
0.00020849561
0.00031312504
0.00055364282
0.0013784091
2.4469371e-06
2.9624434e-06
4.4669549e-06
7.8405122e-06
1.429825e-05
2.4731721e-05
3.9339955e-05
5.80593e-05
8.1284453e-05
0.00011059497
0.00014996474
0.00020897636
0.00031351031
0.00055409236
0.0013797918
2.5409302e-06
3.1185847e-06
4.7841511e-06
8.4351593e-06
1.5225283e-05
2.5911274e-05
4.0607686e-05
5.9262018e-05
8.232449e-05
0.00011142552
0.00015059167
0.00020944105
0.00031388942
0.00055454591
0.0013811859
2.6529215e-06
3.2984814e-06
5.1356105e-06
9.0687132e-06
1.6177075e-05
2.7088291e-05
4.1849522e-05
6.0427213e-05
8.3325309e-05
0.00011222155
0.00015119344
0.00020989046
0.00031426261
0.00055500316
0.0013825907
2.784862e-06
3.5041432e-06
5.5225236e-06
9.7396621e-06
1.7149745e-05
2.825946e-05
4.3064374e-05
6.155606e-05
8.42866e-05
0.00011298472
0.00015177127
0.00021032527
0.00031463008
0.00055546378
0.0013840054
2.9388305e-06
3.7375701e-06
5.9457423e-06
1.0446038e-05
1.813938e-05
2.9421732e-05
4.4251122e-05
6.2648234e-05
8.5209841e-05
0.00011371646
0.00015232627
0.00021074613
0.00031499198
0.00055592742
0.0013854292
3.1170061e-06
4.0006973e-06
6.4057282e-06
1.1185459e-05
1.9142097e-05
3.0572292e-05
4.5408717e-05
6.3703717e-05
8.6096474e-05
0.00011441803
0.00015285944
0.00021115359
0.00031534841
0.00055639375
0.0013868612
3.3216285e-06
4.2953321e-06
6.9025115e-06
1.1955183e-05
2.0154119e-05
3.1708774e-05
4.6537125e-05
6.4721751e-05
8.6947825e-05
0.00011509068
0.00015337166
0.00021154816
0.00031569947
0.00055686242
0.0013883008
3.5549446e-06
4.6230862e-06
7.4356633e-06
1.2752172e-05
2.1171784e-05
3.282888e-05
4.7635198e-05
6.5703009e-05
8.7765077e-05
0.00011573554
0.00015386378
0.00021193026
0.00031604522
0.00055733308
0.0013897472
3.8191426e-06
4.9853055e-06
8.0042849e-06
1.3573148e-05
2.2191569e-05
3.3930547e-05
4.870186e-05
6.6648323e-05
8.8549325e-05
0.00011635364
0.00015433654
0.0002123003
0.00031638567
0.00055780537
0.0013911995
4.1162733e-06
5.3830019e-06
8.607017e-06
1.4414689e-05
2.3210254e-05
3.5012491e-05
4.973568e-05
6.7558457e-05
8.930162e-05
0.00011694595
0.00015479062
0.00021265862
0.00031672084
0.00055827892
0.0013926571
4.4481625e-06
5.8167915e-06
9.2420568e-06
1.5273247e-05
2.4224615e-05
3.6072407e-05
5.0736628e-05
6.8434119e-05
9.0022941e-05
0.00011751336
0.00015522664
0.00021300551
0.0003170507
0.00055875338
0.0013941191
4.8163199e-06
6.2868449e-06
9.9072132e-06
1.6145324e-05
2.5232152e-05
3.7107804e-05
5.1704675e-05
6.9275996e-05
9.0714202e-05
0.00011805666
0.00015564516
0.00021334122
0.00031737521
0.00055922837
0.0013955847
5.2218476e-06
6.7928494e-06
1.0599934e-05
1.7027336e-05
2.6229792e-05
3.8117148e-05
5.2639819e-05
7.0084755e-05
9.1376246e-05
0.0001185766
0.00015604666
0.00021366598
0.0003176943
0.00055970352
0.0013970534
5.6653615e-06
7.3340013e-06
1.1317443e-05
1.7916162e-05
2.721402e-05
3.9099329e-05
5.3542098e-05
7.0861027e-05
9.2009857e-05
0.00011907385
0.0001564316
0.00021397996
0.00031800787
0.00056017844
0.0013985241
6.1469264e-06
7.9090059e-06
1.2056751e-05
1.8808049e-05
2.8182132e-05
4.0053351e-05
5.4411582e-05
7.160541e-05
9.2615753e-05
0.00011954902
0.00015680035
0.0002142833
0.00031831584
0.00056065274
0.0013999963
6.6660275e-06
8.5161461e-06
1.2814872e-05
1.9698971e-05
2.913184e-05
4.0978341e-05
5.5248367e-05
7.2318464e-05
9.3194593e-05
0.00012000265
0.00015715326
0.00021457611
0.00031861805
0.00056112602
0.001401469
7.2216341e-06
9.1533922e-06
1.3587934e-05
2.0585549e-05
3.0061056e-05
4.1873533e-05
5.6052565e-05
7.3000711e-05
9.3746976e-05
0.00012043523
0.00015749063
0.00021485845
0.00031891437
0.00056159787
0.0014029416
7.8120142e-06
9.8178784e-06
1.4372271e-05
2.1464601e-05
3.0967892e-05
4.2738263e-05
5.6824296e-05
7.365263e-05
9.4273442e-05
0.0001208472
0.0001578127
0.00021513038
0.00031920463
0.00056206788
0.0014044132
8.434713e-06
1.05064e-05
1.5164232e-05
2.2333162e-05
3.1850647e-05
4.3571952e-05
5.756369e-05
7.4274664e-05
9.4774477e-05
0.00012123892
0.00015811966
0.00021539189
0.00031948863
0.00056253562
0.0014058829
9.0867101e-06
1.1215457e-05
1.5960233e-05
2.318849e-05
3.2707805e-05
4.4374106e-05
5.8270876e-05
7.4867213e-05
9.5250511e-05
0.00012161073
0.00015841169
0.00021564297
0.00031976616
0.00056300064
0.0014073501
9.7645095e-06
1.1941341e-05
1.6756803e-05
2.4028077e-05
3.3538025e-05
4.5144311e-05
5.894599e-05
7.5430643e-05
9.5701925e-05
0.00012196291
0.0001586889
0.00021588355
0.000320037
0.00056346249
0.0014088136
1.0464245e-05
1.2680211e-05
1.755062e-05
2.4849652e-05
3.4340141e-05
4.5882225e-05
5.9589169e-05
7.5965283e-05
9.6129052e-05
0.00012229567
0.00015895136
0.00021611356
0.00032030088
0.0005639207
0.0014102728
1.1181791e-05
1.3428175e-05
1.8338542e-05
2.5651179e-05
3.5113155e-05
4.6587586e-05
6.0200558e-05
7.6471432e-05
9.6532178e-05
0.00012260921
0.00015919913
0.00021633289
0.00032055753
0.00056437478
0.0014117267
1.1912878e-05
1.4181369e-05
1.9117631e-05
2.643086e-05
3.5856234e-05
4.7260203e-05
6.078031e-05
7.6949361e-05
9.6911549e-05
0.00012290367
0.0001594322
0.00021654138
0.00032080665
0.00056482422
0.0014131742
1.2653198e-05
1.493602e-05
1.9885168e-05
2.7187127e-05
3.6568704e-05
4.7899963e-05
6.132859e-05
7.739932e-05
9.7267377e-05
0.00012317916
0.00015965055
0.00021673888
0.00032104794
0.0005652685
0.0014146145
1.3398505e-05
1.5688506e-05
2.0638671e-05
2.7918637e-05
3.7250048e-05
4.850683e-05
6.1845584e-05
7.7821542e-05
9.7599842e-05
0.00012343574
0.00015985413
0.00021692519
0.00032128104
0.00056570708
0.0014160463
1.4144694e-05
1.6435404e-05
2.1375896e-05
2.8624265e-05
3.7899899e-05
4.9080847e-05
6.23315e-05
7.8216251e-05
9.7909097e-05
0.00012367346
0.00016004285
0.0002171001
0.00032150561
0.0005661394
0.0014174688
1.4887878e-05
1.717353e-05
2.2094843e-05
2.930309e-05
3.8518035e-05
4.9622135e-05
6.2786575e-05
7.8583667e-05
9.8195278e-05
0.00012389234
0.00016021659
0.00021726337
0.00032172127
0.00056656488
0.0014188807
1.5624433e-05
1.7899966e-05
2.2793757e-05
2.9954391e-05
3.9104371e-05
5.0130898e-05
6.321108e-05
7.8924016e-05
9.8458508e-05
0.00012409238
0.00016037524
0.00021741474
0.00032192762
0.00056698291
0.0014202807
1.6351042e-05
1.8612077e-05
2.3471118e-05
3.0577629e-05
3.9658954e-05
5.0607418e-05
6.3605326e-05
7.9237532e-05
9.8698903e-05
0.00012427357
0.00016051865
0.00021755395
0.00032212427
0.0005673929
0.0014216678
1.7064719e-05
1.9307522e-05
2.412564e-05
3.1172436e-05
4.018195e-05
5.1052056e-05
6.3969667e-05
7.9524468e-05
9.8916582e-05
0.00012443588
0.00016064666
0.00021768071
0.00032231081
0.0005677942
0.0014230406
1.7762816e-05
1.9984259e-05
2.4756261e-05
3.1738604e-05
4.0673638e-05
5.1465252e-05
6.4304501e-05
7.9785098e-05
9.9111671e-05
0.00012457929
0.00016075912
0.00021779475
0.0003224868
0.00056818619
0.0014243978
1.8443033e-05
2.0640536e-05
2.5362128e-05
3.2276068e-05
4.1134403e-05
5.1847515e-05
6.4610277e-05
8.0019725e-05
9.9284307e-05
0.00012470379
0.00016085588
0.00021789578
0.00032265184
0.00056856821
0.0014257379
1.9103403e-05
2.1274884e-05
2.594259e-05
3.2784896e-05
4.1564718e-05
5.2199425e-05
6.4887493e-05
8.0228687e-05
9.9434651e-05
0.00012480937
0.00016093677
0.00021798351
0.00032280549
0.00056893964
0.0014270596
1.9742286e-05
2.1886106e-05
2.6497178e-05
3.3265277e-05
4.1965143e-05
5.2521625e-05
6.5136695e-05
8.0412355e-05
9.9562889e-05
0.00012489604
0.00016100168
0.00021805768
0.00032294736
0.00056929982
0.0014283614
2.0358344e-05
2.2473255e-05
2.7025597e-05
3.3717503e-05
4.233631e-05
5.2814819e-05
6.5358478e-05
8.0571142e-05
9.9669235e-05
0.00012496384
0.00016105046
0.00021811803
0.00032307705
0.00056964813
0.0014296418
2.0950527e-05
2.3035621e-05
2.7527708e-05
3.4141963e-05
4.2678913e-05
5.307976e-05
6.5553486e-05
8.0705501e-05
9.9753941e-05
0.00012501284
0.00016108305
0.00021816433
0.00032319418
0.00056998395
0.0014308993
2.1518043e-05
2.3572707e-05
2.8003513e-05
3.4539128e-05
4.29937e-05
5.3317246e-05
6.5722405e-05
8.0815926e-05
9.9817293e-05
0.00012504313
0.00016109936
0.00021819639
0.00032329841
0.00057030669
0.0014321325
2.2060338e-05
2.4084211e-05
2.8453143e-05
3.490954e-05
4.3281466e-05
5.3528119e-05
6.5865962e-05
8.0902955e-05
9.9859622e-05
0.00012505486
0.00016109938
0.00021821402
0.00032338942
0.00057061578
0.0014333397
2.2577073e-05
2.4570007e-05
2.887684e-05
3.5253804e-05
4.354304e-05
5.3713248e-05
6.5984922e-05
8.0967165e-05
9.9881297e-05
0.00012504819
0.00016108311
0.0002182171
0.00032346694
0.00057091072
0.0014345196
2.3068094e-05
2.5030122e-05
2.9274946e-05
3.5572576e-05
4.3779281e-05
5.3873532e-05
6.608008e-05
8.1009173e-05
9.9882732e-05
0.00012502336
0.00016105062
0.00021820555
0.00032353074
0.000571191
0.0014356707
2.3533415e-05
2.546472e-05
2.9647889e-05
3.5866557e-05
4.399107e-05
5.4009889e-05
6.6152264e-05
8.1029632e-05
9.9864384e-05
0.00012498062
0.00016100201
0.00021817933
0.00032358063
0.00057145621
0.0014367915
2.3973195e-05
2.5874082e-05
2.9996174e-05
3.6136482e-05
4.4179303e-05
5.4123251e-05
6.620232e-05
8.1029231e-05
9.982675e-05
0.0001249203
0.00016093742
0.00021813845
0.00032361649
0.00057170596
0.0014378806
2.4387715e-05
2.6258592e-05
3.0320364e-05
3.6383114e-05
4.4344885e-05
5.4214561e-05
6.6231118e-05
8.1008688e-05
9.9770371e-05
0.00012484276
0.00016085708
0.00021808298
0.00032363826
0.00057193994
0.0014389369
2.4777363e-05
2.6618717e-05
3.0621079e-05
3.6607236e-05
4.4488726e-05
5.4284762e-05
6.6239538e-05
8.0968749e-05
9.9695824e-05
0.0001247484
0.00016076123
0.00021801305
0.00032364592
0.0005721579
0.001439959
2.5142617e-05
2.6954999e-05
3.089898e-05
3.680965e-05
4.4611737e-05
5.4334802e-05
6.6228475e-05
8.0910186e-05
9.9603723e-05
0.00012463769
0.00016065019
0.00021792885
0.00032363952
0.00057235965
0.0014409459
2.5484026e-05
2.7268039e-05
3.1154761e-05
3.6991163e-05
4.4714821e-05
5.4365621e-05
6.6198824e-05
8.0833788e-05
9.9494716e-05
0.00012451111
0.00016052432
0.00021783062
0.0003236192
0.00057254509
0.0014418964
2.5802203e-05
2.7558484e-05
3.1389145e-05
3.7152591e-05
4.4798878e-05
5.4378153e-05
6.6151488e-05
8.0740361e-05
9.9369482e-05
0.00012436922
0.00016038404
0.00021771867
0.00032358512
0.00057271417
0.0014428097
2.6097805e-05
2.7827021e-05
3.1602871e-05
3.7294749e-05
4.4864794e-05
5.437332e-05
6.6087364e-05
8.0630726e-05
9.9228725e-05
0.0001242126
0.0001602298
0.00021759334
0.00032353753
0.00057286693
0.001443685
2.6371529e-05
2.8074365e-05
3.1796696e-05
3.7418448e-05
4.4913443e-05
5.4352031e-05
6.6007346e-05
8.0505709e-05
9.9073173e-05
0.00012404185
0.00016006213
0.00021745506
0.00032347674
0.00057300346
0.0014445216
2.6624099e-05
2.830125e-05
3.1971382e-05
3.7524496e-05
4.4945685e-05
5.4315179e-05
6.5912321e-05
8.0366145e-05
9.8903574e-05
0.00012385763
0.00015988157
0.00021730428
0.00032340312
0.00057312394
0.0014453189
2.685626e-05
2.8508428e-05
3.2127693e-05
3.761369e-05
4.496236e-05
5.4263641e-05
6.5803165e-05
8.0212867e-05
9.8720692e-05
0.00012366062
0.00015968871
0.00021714152
0.00032331709
0.00057322861
0.0014460766
2.7068769e-05
2.8696656e-05
3.2266395e-05
3.7686817e-05
4.4964293e-05
5.4198273e-05
6.568074e-05
8.0046712e-05
9.8525302e-05
0.00012345152
0.00015948419
0.00021696734
0.00032321911
0.00057331777
0.0014467943
2.726239e-05
2.8866695e-05
3.2388248e-05
3.774465e-05
4.4952287e-05
5.411991e-05
6.5545895e-05
7.9868507e-05
9.8318189e-05
0.00012323105
0.00015926866
0.00021678234
0.00032310971
0.00057339179
0.0014474718
2.7437889e-05
2.9019304e-05
3.2494005e-05
3.7787947e-05
4.4927125e-05
5.4029367e-05
6.539946e-05
7.9679075e-05
9.8100143e-05
0.00012299996
0.00015904282
0.00021658714
0.00032298946
0.00057345108
0.0014481093
2.7596029e-05
2.9155239e-05
3.2584408e-05
3.7817453e-05
4.4889571e-05
5.3927436e-05
6.5242251e-05
7.9479231e-05
9.7871953e-05
0.00012275899
0.00015880736
0.00021638242
0.00032285894
0.00057349611
0.0014487067
2.7737567e-05
2.9275245e-05
3.2660187e-05
3.783389e-05
4.4840363e-05
5.3814886e-05
6.5075059e-05
7.9269776e-05
9.763441e-05
0.00012250892
0.00015856302
0.00021616885
0.0003227188
0.00057352739
0.0014492643
2.7863251e-05
2.9380058e-05
3.272206e-05
3.7837968e-05