/*--------------------------------*- C++ -*----------------------------------*\
| =========                 |                                                 |
| \\      /  F ield         | OpenFOAM: The Open Source CFD Toolbox           |
|  \\    /   O peration     | Version:  2506                                  |
|   \\  /    A nd           | Website:  www.openfoam.com                      |
|    \\/     M anipulation  |                                                 |
\*---------------------------------------------------------------------------*/
FoamFile
{
    version     2.0;
    format      ascii;
    arch        "LSB;label=32;scalar=64";
    class       volScalarField;
    location    "25000/water";
    object      k;
}
// * * * * * * * * * * * * * * * * * * * * * * * * * * * * * * * * * * * * * //

dimensions      [0 2 -2 0 0 0 0];

internalField   nonuniform List<scalar> 
6000
(
0.0002144485
0.00021444827
0.00021444833
0.00021444852
0.00021444878
0.00021444911
0.00021444953
0.00021445001
0.00021445038
0.00021444961
0.00021444477
0.00021444847
0.00021482328
0.00022098609
0.00033298785
0.00019735372
0.00019735408
0.00019735481
0.00019735601
0.00019735759
0.00019735962
0.00019736212
0.0001973649
0.00019736678
0.00019736231
0.00019733424
0.0001972933
0.00019808165
0.00021190706
0.00042108833
0.00018260526
0.00018260625
0.00018260756
0.00018260957
0.0001826122
0.00018261554
0.00018261945
0.00018262311
0.00018262253
0.00018260174
0.00018251429
0.00018235696
0.00018354965
0.00020571076
0.0004915993
0.00016977104
0.00016977195
0.00016977358
0.00016977617
0.00016977959
0.00016978384
0.00016978847
0.00016979119
0.00016978242
0.00016972799
0.0001695392
0.00016920344
0.00017083025
0.00020141509
0.00054314021
0.00015851703
0.00015851791
0.00015851979
0.00015852287
0.0001585269
0.00015853173
0.00015853623
0.00015853548
0.0001585108
0.00015840225
0.00015807228
0.00015752308
0.00015966967
0.00019844232
0.00057747636
0.00014858047
0.00014858142
0.00014858351
0.00014858695
0.00014859139
0.00014859636
0.00014859955
0.0001485919
0.00014854197
0.00014835849
0.00014785779
0.00014709963
0.00014993181
0.00019659445
0.00059772639
0.00013975169
0.00013975271
0.00013975496
0.00013975864
0.00013976325
0.00013976781
0.00013976817
0.00013974945
0.00013966425
0.0001393877
0.00013870223
0.00013778194
0.00014154644
0.00019585229
0.00060724748
0.00013186192
0.00013186298
0.00013186534
0.00013186914
0.00013187366
0.00013187713
0.00013187282
0.00013183836
0.00013170812
0.00013132527
0.00013045854
0.00012946164
0.00013447268
0.00019626303
0.00060905754
0.00012477404
0.00012477514
0.00012477755
0.00012478136
0.00012478548
0.00012478703
0.00012477592
0.00012472085
0.00012453699
0.00012404097
0.00012301362
0.00012205827
0.00012868159
0.00019789321
0.0006056161
0.00011837572
0.00011837682
0.00011837924
0.0001183829
0.00011838626
0.00011838492
0.00011836468
0.00011828424
0.00011804014
0.00011743108
0.00011627928
0.00011550993
0.00012414935
0.00020080676
0.00059880682
0.0001125741
0.0001125752
0.00011257756
0.00011258091
0.00011258305
0.00011257774
0.00011254594
0.00011243584
0.00011212738
0.0001114124
0.00011018555
0.00010976786
0.00012085593
0.00020505367
0.00059001308
0.00010729189
0.00010729297
0.0001072952
0.00010729803
0.00010729845
0.00010728799
0.00010724223
0.00010709893
0.00010672477
0.00010591759
0.00010467621
0.00010479348
0.00011878602
0.00021066301
0.00058022149
0.0001024643
0.00010246533
0.00010246733
0.00010246942
0.00010246756
0.00010245071
0.00010238875
0.00010220964
0.0001017714
0.00010089174
9.9705638e-05
0.000100557
0.00011793046
0.00021763683
0.00057012062
9.8036637e-05
9.8037572e-05
9.8039255e-05
9.8040328e-05
9.8035582e-05
9.8011091e-05
9.7930966e-05
9.7714594e-05
9.7216801e-05
9.6289669e-05
9.5236719e-05
9.703687e-05
0.00011828673
0.00022594366
0.0005601824
9.3962451e-05
9.3963259e-05
9.3964497e-05
9.3964262e-05
9.3955981e-05
9.3922652e-05
9.3822751e-05
9.3568903e-05
9.3018884e-05
9.2074025e-05
9.1239503e-05
9.4219615e-05
0.00011985802
0.00023551194
0.0005507241
9.0202076e-05
9.020271e-05
9.0203366e-05
9.0201504e-05
9.0189027e-05
9.0145749e-05
9.0024925e-05
8.9734681e-05
8.9142411e-05
8.8213812e-05
8.7690325e-05
9.20998e-05
0.00012265037
0.00024622465
0.00054195294
8.6721448e-05
8.6721856e-05
8.6721776e-05
8.6717945e-05
8.6700619e-05
8.664642e-05
8.6504047e-05
8.61798e-05
8.5557736e-05
8.4683334e-05
8.4571272e-05
9.0679902e-05
0.00012666793
0.00025791693
0.00053399692
8.3491166e-05
8.3491287e-05
8.3490304e-05
8.3484151e-05
8.3461349e-05
8.3395437e-05
8.3231463e-05
8.2876915e-05
8.2239851e-05
8.1461425e-05
8.1869885e-05
8.9969913e-05
0.00013190642
0.00027037857
0.00052692519
8.0485733e-05
8.0485502e-05
8.0483437e-05
8.0474603e-05
8.0445747e-05
8.0367548e-05
8.018253e-05
7.9802669e-05
7.9167636e-05
7.8530889e-05
7.9578989e-05
8.9986537e-05
0.00013834557
0.00028336255
0.00052076146
7.7682937e-05
7.7682283e-05
7.767895e-05
7.7667083e-05
7.7631664e-05
7.7540855e-05
7.7335982e-05
7.6937064e-05
7.6323276e-05
7.5878109e-05
7.7696612e-05
9.0751816e-05
0.00014594134
0.00029659939
0.00051549302
7.5063349e-05
7.5062196e-05
7.5057404e-05
7.5042167e-05
7.4999765e-05
7.4896302e-05
7.4673418e-05
7.4262946e-05
7.369182e-05
7.3492783e-05
7.6225917e-05
9.2291049e-05
0.00015461944
0.000309816
0.00051107779
7.2609902e-05
7.2608172e-05
7.260173e-05
7.2582813e-05
7.2533118e-05
7.2417256e-05
7.2178869e-05
7.1765596e-05
7.1260831e-05
7.1367745e-05
7.5175079e-05
9.4629939e-05
0.00016427135
0.00032275576
0.00050745065
7.0307551e-05
7.0305165e-05
7.0296888e-05
7.0274015e-05
7.0216842e-05
7.0089161e-05
6.9838457e-05
6.94324e-05
6.9020131e-05
6.949887e-05
7.4557053e-05
9.7790946e-05
0.00017475428
0.00033519669
0.00050453
6.8142984e-05
6.8139863e-05
6.8129574e-05
6.8102519e-05
6.8037823e-05
6.7899244e-05
6.7640104e-05
6.7252585e-05
6.6961603e-05
6.7885016e-05
7.438916e-05
0.00010178904
0.0001858954
0.00034696444
0.00050222457
6.6104382e-05
6.6100451e-05
6.608799e-05
6.6056581e-05
6.5984475e-05
6.5836276e-05
6.5573296e-05
6.5217006e-05
6.5079053e-05
6.6528011e-05
7.4692423e-05
0.00010662718
0.00019750037
0.00035793855
0.00050043991
6.418122e-05
6.4176406e-05
6.4161633e-05
6.4125766e-05
6.4046535e-05
6.3890369e-05
6.3628889e-05
6.3317981e-05
6.3368113e-05
6.5432644e-05
7.5490606e-05
0.00011229203
0.00020936498
0.00036805173
0.00049908424
6.2364094e-05
6.2358333e-05
6.2341135e-05
6.230078e-05
6.2214894e-05
6.2052808e-05
6.1798947e-05
6.1549161e-05
6.182618e-05
6.4606648e-05
7.6808891e-05
0.00011875054
0.00022128816
0.00037728353
0.00049807291
6.064458e-05
6.0637817e-05
6.0618111e-05
6.0573325e-05
6.0481451e-05
6.031591e-05
6.0076617e-05
5.9905429e-05
6.045239e-05
6.4060644e-05
7.8672186e-05
0.00012594803
0.00023308444
0.00038565069
0.00049733132
5.9015114e-05
5.9007302e-05
5.8985044e-05
5.8935977e-05
5.8838997e-05
5.8672904e-05
5.8456016e-05
5.8382826e-05
5.9247607e-05
6.3808021e-05
8.1103079e-05
0.00013380822
0.00024459408
0.00039319633
0.00049679626
5.746888e-05
5.745999e-05
5.7435175e-05
5.7382083e-05
5.7281105e-05
5.7117831e-05
5.6932149e-05
5.6978499e-05
5.8214438e-05
6.3864708e-05
8.4119512e-05
0.00014223537
0.00025568959
0.00039997992
0.00049641599
5.599973e-05
5.5989745e-05
5.596242e-05
5.590567e-05
5.5802046e-05
5.5645466e-05
5.5500841e-05
5.5690669e-05
5.7357258e-05
6.4248811e-05
8.7732332e-05
0.00015111851
0.00026627829
0.00040606902
0.00049614946
5.4602101e-05
5.4591025e-05
5.4561286e-05
5.4501369e-05
5.4396714e-05
5.4251246e-05
5.4158685e-05
5.4518612e-05
5.6682235e-05
6.498008e-05
9.1942944e-05
0.00016033718
0.00027630116
0.00041153335
0.00049596497
5.3270953e-05
5.3258808e-05
5.3226813e-05
5.3164353e-05
5.3060564e-05
5.2931212e-05
5.2903001e-05
5.3462663e-05
5.6197344e-05
6.6079183e-05
9.674133e-05
0.00016976802
0.00028572901
0.00041644086
0.00049583865
5.2001708e-05
5.198854e-05
5.1954511e-05
5.1890276e-05
5.1789556e-05
5.1681971e-05
5.1731808e-05
5.2524225e-05
5.5912364e-05
6.7566767e-05
0.00010210472
0.00017929138
0.00029455685
0.00042085544
0.00049575298
5.0790203e-05
5.0776083e-05
5.0740313e-05
5.067523e-05
5.0580113e-05
5.050065e-05
5.0643813e-05
5.1705789e-05
5.5838829e-05
6.9462333e-05
0.00010799714
0.0001887971
0.0003027979
0.00042483587
0.00049569544
4.9632648e-05
4.9617675e-05
4.9580534e-05
4.9515698e-05
4.942908e-05
4.9384875e-05
4.9638394e-05
5.1010966e-05
5.5989919e-05
7.1782923e-05
0.00011437001
0.00019818902
0.00031047772
0.00042843533
0.0004956574
4.8525586e-05
4.8509888e-05
4.8471831e-05
4.8408525e-05
4.8333699e-05
4.8332748e-05
4.8715611e-05
5.0444524e-05
5.6380277e-05
7.454173e-05
0.00012116371
0.00020738765
0.00031762942
0.0004317015
0.00049563313
4.7465859e-05
4.74496e-05
4.7411173e-05
4.7350883e-05
4.7291577e-05
4.7342831e-05
4.7876207e-05
5.0012417e-05
5.7025722e-05
7.7746682e-05
0.00012831014
0.00021633122
0.00032428982
0.00043467668
0.00049561908
4.6450583e-05
4.6433963e-05
4.6395814e-05
4.6340247e-05
4.6300671e-05
4.641414e-05
4.7121628e-05
4.9721817e-05
5.7942849e-05
8.139917e-05
0.00013573579
0.0002249751
0.00033049683
0.00043739818
0.00049561324
4.5477121e-05
4.5460379e-05
4.5423267e-05
4.5374375e-05
4.5359268e-05
4.5546142e-05
4.6454049e-05
4.9581126e-05
5.914851e-05
8.5493023e-05
0.00014336522
0.00023329016
0.00033628765
0.00043989867
0.00049561471
4.4543061e-05
4.4526479e-05
4.4491284e-05
4.4451289e-05
4.446598e-05
4.4738756e-05
4.5876394e-05
4.9599966e-05
6.065916e-05
9.0013886e-05
0.00015112442
0.00024126037
0.0003416978
0.00044220662
0.00049562332
4.3646195e-05
4.3630105e-05
4.359784e-05
4.3569259e-05
4.3619731e-05
4.3992365e-05
4.5392377e-05
4.9789137e-05
6.2490101e-05
9.4939094e-05
0.00015894371
0.00024888021
0.00034676054
0.00044434669
0.00049563933
4.2784505e-05
4.2769292e-05
4.2741115e-05
4.2726796e-05
4.2819756e-05
4.3307822e-05
4.500653e-05
5.0160522e-05
6.4654627e-05
0.00010023808
0.00016676015
0.00025615209
0.00035150662
0.00044634014
0.00049566327
4.1956147e-05
4.1942252e-05
4.1919486e-05
4.1922641e-05
4.2065604e-05
4.2686473e-05
4.4724243e-05
5.0726936e-05
6.7163136e-05
0.00010587334
0.00017451902
0.00026308404
0.00035596428
0.00044820531
0.00049569579
4.1159436e-05
4.1147367e-05
4.1131511e-05
4.1155759e-05
4.1357136e-05
4.2130176e-05
4.4551789e-05
5.1501906e-05
7.0022255e-05
0.00011180181
0.00018217461
0.0002696879
0.00036015925
0.00044995792
0.00049573755
4.039284e-05
4.0383173e-05
4.0375928e-05
4.0425336e-05
4.0694537e-05
4.1641323e-05
4.4496351e-05
5.2499368e-05
7.3234062e-05
0.00011797661
0.00018969027
0.00027597786
0.0003641149
0.00045161147
0.00049578915
3.9654963e-05
3.9648355e-05
3.9651641e-05
3.9730781e-05
4.0078323e-05
4.1222872e-05
4.456603e-05
5.3733282e-05
7.6795465e-05
0.00012434897
0.00019703788
0.00028196939
0.00036785236
0.00045317754
0.00049585112
3.8944544e-05
3.8941738e-05
3.8957721e-05
3.9071722e-05
3.9509355e-05
4.0878378e-05
4.4769828e-05
5.5217168e-05
8.0697837e-05
0.00013087001
0.00020419699
0.00028767849
0.00037139066
0.00045466608
0.00049592389
3.8260447e-05
3.8262283e-05
3.8293404e-05
3.8448018e-05
3.8988856e-05
4.0612023e-05
4.5117612e-05
5.6963565e-05
8.4926925e-05
0.00013749256
0.00021115369
0.00029312118
0.00037474695
0.00045608564
0.00049600778
3.7601653e-05
3.7609082e-05
3.7658086e-05
3.7859757e-05
3.8518429e-05
4.0428651e-05
4.5620027e-05
5.898344e-05
8.9463087e-05
0.00014417246
0.0002178995
0.00029831319
0.0003779366
0.00045744356
0.000496103
3.6967262e-05
3.6981351e-05
3.7051327e-05
3.7307273e-05
3.8100083e-05
4.0333798e-05
4.6288377e-05
6.1285577e-05
9.4281838e-05
0.00015086964
0.00022443029
0.0003032697
0.00038097346
0.00045874619
0.00049620967
3.6356483e-05
3.6378439e-05
3.6472853e-05
3.6791149e-05
3.7736252e-05
4.0333717e-05
4.7134446e-05
6.3875981e-05
9.9354659e-05
0.0001575488
0.00023074526
0.00030800524
0.0003838699
0.00045999902
0.00049632781
3.5768637e-05
3.5799814e-05
3.5922562e-05
3.6312237e-05
3.7429827e-05
4.0435396e-05
4.8170255e-05
6.6757347e-05
0.00010465001
0.00016417961
0.00023684619
0.00031253355
0.00038663709
0.00046120681
0.00049645738
3.5203153e-05
3.5245078e-05
3.5400526e-05
3.587167e-05
3.7184184e-05
4.0646558e-05
4.9407771e-05
6.9928637e-05
0.00011013447
0.00017073672
0.00024273671
0.00031686759
0.00038928502
0.0004623737
0.00049659824
3.4659571e-05
3.4713957e-05
3.4907005e-05
3.5470884e-05
3.7003215e-05
4.0975651e-05
5.0858547e-05
7.3384812e-05
0.00011577385
0.00017719948
0.00024842184
0.0003210195
0.00039182272
0.00046350329
0.00049675023
3.4137541e-05
3.4206315e-05
3.4442453e-05
3.5111632e-05
3.6891358e-05
4.1431804e-05
5.2533317e-05
7.7116752e-05
0.00012153431
0.00018355154
0.00025390755
0.0003250006
0.00039425829
0.00046459876
0.00049691314
3.3636827e-05
3.3722154e-05
3.4007531e-05
3.4796015e-05
3.685363e-05
4.2024755e-05
5.4441557e-05
8.1111373e-05
0.00012738325
0.00018978028
0.00025920043
0.00032882146
0.00039659905
0.00046566287
0.0004970867
3.3157312e-05
3.3261621e-05
3.3603121e-05
3.4526502e-05
3.6895649e-05
4.276474e-05
5.6591027e-05
8.5351953e-05
0.0001332901
0.00019587635
0.00026430748
0.00033249187
0.00039885164
0.00046669808
0.00049727064
3.2699001e-05
3.2825019e-05
3.3230344e-05
3.4305957e-05
3.7023659e-05
4.3662348e-05
5.8987333e-05
8.9818625e-05
0.00013922682
0.00020183312
0.00026923589
0.0003360209
0.00040102203
0.00046770655
0.00049746464
3.2262029e-05
3.2412818e-05
3.2890574e-05
3.413767e-05
3.7244541e-05
4.4728312e-05
6.1633529e-05
9.4489015e-05
0.00014516823
0.00020764623
0.00027399292
0.00033941697
0.00040311566
0.0004686902
0.0004976684
3.1846672e-05
3.2025663e-05
3.2585463e-05
3.4025389e-05
3.7565809e-05
4.5973269e-05
6.4529802e-05
9.9338965e-05
0.00015109218
0.00021331315
0.00027858577
0.00034268789
0.00040513746
0.00046965075
0.00049788158
3.1453353e-05
3.1664392e-05
3.2316961e-05
3.3973345e-05
3.7995594e-05
4.7407469e-05
6.7673256e-05
0.00010434329
0.00015697947
0.00021883288
0.00028302151
0.00034584084
0.0004070919
0.00047058966
0.00049810386
3.1082657e-05
3.1330051e-05
3.2087341e-05
3.3986286e-05
3.8542602e-05
4.9040446e-05
7.1057841e-05
0.00010947652
0.0001628138
0.00022420564
0.00028730703
0.00034888258
0.00040898321
0.00047150441
0.00049833477
3.0735343e-05
3.1023913e-05
3.1899228e-05
3.4069503e-05
3.921604e-05
5.0880666e-05
7.4674405e-05
0.00011471354
0.00016858149
0.00022943257
0.000291449
0.00035181924
0.00041081465
0.00047239505
0.0004985739
3.0412362e-05
3.0747498e-05
3.1755626e-05
3.4228857e-05
4.0025518e-05
5.293516e-05
7.8510898e-05
0.00012003018
0.00017427128
0.00023451559
0.00029545376
0.00035465639
0.0004125891
0.00047326293
0.0004988207
3.0114878e-05
3.0502599e-05
3.1659947e-05
3.4470788e-05
4.0980902e-05
5.5209177e-05
8.2552692e-05
0.00012540362
0.00017987401
0.00023945714
0.00029932739
0.00035739917
0.00041430936
0.00047410987
0.00049907467
2.9844282e-05
3.0291301e-05
3.1616049e-05
3.480233e-05
4.2092139e-05
5.7705866e-05
8.678302e-05
0.00013081272
0.0001853824
0.00024426015
0.00030307572
0.00036005264
0.0004159775
0.00047493647
0.0004993353
2.9602223e-05
3.0116019e-05
3.1628258e-05
3.5231097e-05
4.3369031e-05
6.0426021e-05
9.1183473e-05
0.00013623819
0.00019079079
0.00024892784
0.00030670433
0.00036262128
0.00041759499
0.00047574362
0.00049960217
2.9390632e-05
2.9979519e-05
3.1701412e-05
3.5765257e-05
4.4820984e-05
6.3367913e-05
9.5734534e-05
0.00014166272
0.00019609491
0.00025346366
0.00031021842
0.0003651089
0.00041916378
0.00047653274
0.00049987495
2.9211753e-05
2.9884958e-05
3.1840879e-05
3.6413486e-05
4.6456716e-05
6.6527206e-05
0.00010041611
0.00014707091
0.00020129167
0.00025787115
0.00031362283
0.00036751904
0.00042068625
0.00047730512
0.00050015337
2.9068174e-05
2.9835916e-05
3.2052589e-05
3.7184888e-05
4.8283952e-05
6.9896997e-05
0.00010520802
0.00015244926
0.00020637897
0.00026215397
0.00031692222
0.00036985505
0.00042216444
0.00047806215
0.00050043719
2.8962866e-05
2.9836434e-05
3.2343055e-05
3.8088881e-05
5.0309114e-05
7.346795e-05
0.00011009043
0.00015778604
0.00021135557
0.00026631588
0.00032012131
0.00037211986
0.00042359916
0.00047880564
0.00050072628
2.889922e-05
2.9891051e-05
3.2719378e-05
3.913506e-05
5.2537019e-05
7.7228533e-05
0.00011504425
0.00016307119
0.00021622096
0.00027036058
0.00032322396
0.00037431565
0.000424993
0.00047953649
0.00050102048
2.8881091e-05
3.0004842e-05
3.3189243e-05
4.0333005e-05
5.4970621e-05
8.1165341e-05
0.00012005133
0.00016829612
0.00022097515
0.00027429157
0.00032623373
0.00037644517
0.00042634824
0.00048025527
0.00050131962
2.8912841e-05
3.0183458e-05
3.3760905e-05
4.1692069e-05
5.761079e-05
8.5263461e-05
0.00012509473
0.0001734536
0.00022561861
0.00027811226
0.00032915398
0.00037851129
0.00042766693
0.00048096239
0.00050162346
2.8999388e-05
3.0433155e-05
3.4443138e-05
4.3221126e-05
6.0456175e-05
8.9506884e-05
0.0001301588
0.0001785376
0.00023015233
0.00028182654
0.0003319885
0.00038051463
0.00042895145
0.00048165858
0.00050193181
2.914625e-05
3.0760826e-05
3.5245168e-05
4.4928293e-05
6.350314e-05
9.3878908e-05
0.00013522927
0.0001835432
0.00023457754
0.00028543753
0.00033473936
0.00038245843
0.00043020349
0.00048234444
0.00050224446
2.9359596e-05
3.1174019e-05
3.617657e-05
4.6820648e-05
6.6745793e-05
9.836253e-05
0.0001402932
0.00018846637
0.00023889558
0.00028894804
0.0003374092
0.00038434561
0.00043142439
0.00048302046
0.00050256122
2.9646287e-05
3.1680947e-05
3.7247128e-05
4.8903936e-05
7.0176099e-05
0.00010294079
0.00014533901
0.00019330383
0.00024310787
0.00029236082
0.00034000093
0.00038617878
0.00043261535
0.00048368697
0.00050288188
3.0013915e-05
3.2290475e-05
3.8466663e-05
5.118231e-05
7.3784077e-05
0.00010759708
0.00015035638
0.0001980532
0.00024721663
0.00029567959
0.00034251505
0.00038796063
0.0004337777
0.00048434429
0.00050320624
3.0470836e-05
3.3012087e-05
3.9844814e-05
5.3658091e-05
7.7558058e-05
0.00011231536
0.0001553362
0.0002027126
0.00025122341
0.0002989058
0.00034495516
0.00038969328
0.00043491265
0.00048499273
0.00050353409
3.1026185e-05
3.3855829e-05
4.1390796e-05
5.6331595e-05
8.1484988e-05
0.00011708038
0.00016027045
0.00020728053
0.00025512965
0.00030204164
0.00034732441
0.00039137858
0.00043602125
0.00048563255
0.00050386523
3.1689875e-05
3.4832209e-05
4.3113122e-05
5.9201023e-05
8.5550759e-05
0.00012187776
0.0001651521
0.00021175607
0.00025893733
0.0003050888
0.00034962568
0.00039301829
0.00043710441
0.00048626394
0.00050419946
3.2472571e-05
3.595206e-05
4.5019312e-05
6.2262422e-05
8.9740543e-05
0.0001266941
0.00016997513
0.00021613885
0.00026264855
0.00030804847
0.00035186161
0.00039461414
0.00043816297
0.0004868871
0.00050453657
3.3385624e-05
3.7226363e-05
4.7115599e-05
6.5509731e-05
9.4039109e-05
0.00013151701
0.00017473425
0.00022042827
0.00026626392
0.000310924
0.00035403448
0.0003961677
0.00043919774
0.00048750217
0.00050487636
3.444097e-05
3.8666016e-05
4.9406646e-05
6.8934905e-05
9.8431102e-05
0.00013633505
0.00017942474
0.0002246238
0.00026978479
0.00031371829
0.00035614638
0.00039768038
0.00044020942
0.00048810926
0.00050521864
3.5650972e-05
4.028156e-05
5.1895302e-05
7.2528099e-05
0.00010290132
0.00014113789
0.00018404315
0.00022872684
0.00027321044
0.00031643401
0.00035819936
0.00039915348
0.00044119865
0.00048870846
0.00050556321
3.7028204e-05
4.208287e-05
5.45824e-05
7.6277908e-05
0.00010743491
0.00014591607
0.00018858591
0.00023273613
0.00027654351
0.0003190735
0.00036019532
0.00040058823
0.000442166
0.00048929986
0.00050590988
3.8585165e-05
4.4078803e-05
5.7466625e-05
8.0171639e-05
0.00011201748
0.00015066088
0.00019304969
0.0002366512
0.00027978645
0.00032163892
0.00036213597
0.00040198571
0.00044311201
0.00048988348
0.00050625845
4.0333931e-05
4.6276849e-05
6.0544452e-05
8.4195614e-05
0.00011663536
0.00015536493
0.00019743335
0.00024046995
0.00028294141
0.00032413234
0.00036402291
0.00040334694
0.00044403714
0.00049045937
0.00050660872
4.2285736e-05
4.8682762e-05
6.3810164e-05
8.8335449e-05
0.00012127551
0.00016002104
0.00020173335
0.00024419347
0.00028601033
0.0003265557
0.0003658576
0.00040467284
0.00044494181
0.00049102752
0.00050696052
4.445051e-05
5.130024e-05
6.725594e-05
9.2576317e-05
0.0001259256
0.00016462269
0.00020594645
0.00024782306
0.00028899503
0.00032891078
0.00036764139
0.00040596424
0.00044582637
0.00049158793
0.00050731365
4.6836378e-05
5.4130633e-05
7.0872036e-05
9.6903292e-05
0.00013057443
0.00016916536
0.00021006854
0.00025135979
0.00029189724
0.00033119921
0.00036937552
0.00040722189
0.00044669116
0.00049214056
0.00050766793
4.9449168e-05
5.7172725e-05
7.4646967e-05
0.00010130138
0.00013521091
0.00017364199
0.00021409909
0.00025480461
0.00029471857
0.00033342251
0.00037106111
0.00040844648
0.00044753643
0.00049268535
0.00050802316
5.229195e-05
6.0422614e-05
7.8567846e-05
0.00010575614
0.0001398262
0.00017804498
0.00021803737
0.00025815847
0.00029746051
0.00033558206
0.00037269919
0.0004096386
0.00044836242
0.00049322225
0.00050837917
5.5364654e-05
6.3873655e-05
8.2620542e-05
0.00011025311
0.00014440982
0.00018236965
0.00022188265
0.00026142229
0.00030012441
0.00033767911
0.00037429067
0.00041079879
0.00044916931
0.00049375116
0.00050873576
5.8663811e-05
6.7516587e-05
8.6790298e-05
0.0001147796
0.00014895006
0.00018661237
0.00022563433
0.00026459687
0.00030271151
0.0003397148
0.00037583636
0.00041192749
0.00044995725
0.00049427198
0.00050909274
6.2182434e-05
7.1339664e-05
9.1061701e-05
0.0001193209
0.00015343801
0.00019076972
0.00022929185
0.00026768297
0.00030522293
0.00034169013
0.00037733698
0.00041302512
0.00045072633
0.00049478459
0.00050944994
6.5910126e-05
7.5329111e-05
9.541951e-05
0.00012386163
0.00015786607
0.00019483859
0.00023285469
0.00027068124
0.00030765965
0.00034360601
0.00037879316
0.00041409197
0.00045147661
0.00049528884
0.00050980716
6.983363e-05
7.9469639e-05
9.9845242e-05
0.00012838907
0.00016222718
0.00019881613
0.00023632237
0.00027359225
0.00031002254
0.00034546319
0.00038020543
0.00041512832
0.0004522081
0.00049578457
0.00051016421
7.3936134e-05
8.3742395e-05
0.0001043217
0.00013289122
0.00016651487
0.00020269968
0.00023969437
0.00027641646
0.00031231232
0.00034726234
0.00038157422
0.00041613435
0.0004529208
0.0004962716
0.0005105209
7.819758e-05
8.8127386e-05
0.00010883197
0.00013735684
0.00017072314
0.00020648681
0.00024297021
0.00027915425
0.00031452963
0.00034900401
0.00038289988
0.00041711019
0.00045361462
0.00049674972
0.00051087702
8.259574e-05
9.2603755e-05
0.0001133596
0.00014177542
0.0001748465
0.00021017525
0.00024614937
0.00028180587
0.00031667493
0.00035068861
0.00038418266
0.0004180559
0.00045428948
0.00049721872
0.00051123238
8.7106877e-05
9.7150207e-05
0.00011788868
0.0001461372
0.0001788799
0.00021376289
0.00024923132
0.00028437152
0.00031874861
0.00035231647
0.00038542273
0.00041897147
0.0004549452
0.00049767835
0.00051158676
9.1706413e-05
0.00010174541
0.000122404
0.00015043311
0.00018281872
0.0002172478
0.00025221553
0.00028685125
0.00032075093
0.00035388781
0.00038662018
0.00041985684
0.00045558162
0.00049812835
0.00051193995
9.6369555e-05
0.00010636839
0.00012689114
0.00015465481
0.0001866588
0.0002206282
0.00025510146
0.00028924508
0.00032268204
0.00035540274
0.00038777499
0.00042071188
0.00045619849
0.00049856841
0.00051229173
0.00010107186
0.00011099881
0.0001313365
0.00015879466
0.00019039634
0.00022390247
0.00025788857
0.00029155294
0.000324542
0.00035686128
0.00038888708
0.00042153638
0.00045679554
0.00049899823
0.00051264186
0.00010578973
0.00011561732
0.00013572743
0.0001628457
0.00019402797
0.00022706917
0.00026057635
0.00029377469
0.00032633077
0.00035826336
0.0003899563
0.00042233012
0.00045737246
0.00049941748
0.00051299011
0.00011050077
0.00012020571
0.00014005223
0.00016680164
0.00019755073
0.00023012703
0.00026316432
0.00029591017
0.00032804824
0.00035960883
0.00039098242
0.00042309277
0.00045792889
0.00049982578
0.00051333622
0.00011518413
0.00012474712
0.00014430021
0.00017065688
0.00020096203
0.00023307498
0.00026565206
0.00029795918
0.00032969427
0.00036089746
0.00039196513
0.00042382399
0.00045846445
0.00050022276
0.00051367994
0.00011982069
0.00012922615
0.00014846172
0.00017440647
0.0002042597
0.00023591216
0.00026803923
0.00029992151
0.00033126862
0.00036212899
0.0003929041
0.00042452336
0.0004589787
0.00050060802
0.00051402098
0.00012439317
0.00013362894
0.00015252812
0.00017804609
0.00020744193
0.0002386379
0.00027032556
0.00030179699
0.00033277107
0.00036330309
0.00039379891
0.00042519043
0.0004594712
0.00050098111
0.00051435907
0.00012888622
0.00013794316
0.00015649182
0.00018157207
0.00021050732
0.00024125177
0.00027251091
0.00030358546
0.00033420137
0.0003644194
0.00039464914
0.00042582474
0.00045994144
0.00050134161
0.00051469391
0.00013328638
0.00014215803
0.00016034623
0.00018498132
0.00021345482
0.00024375357
0.00027459526
0.00030528684
0.00033555928
0.00036547756
0.00039545431
0.00042642576
0.00046038894
0.00050168906
0.00051502519
0.00013758208
0.00014626428
0.00016408575
0.00018827137
0.00021628376
0.00024614333
0.00027657874
0.00030690111
0.0003368446
0.0003664772
0.00039621397
0.00042699299
0.00046081317
0.00050202297
0.00051535259
0.00014176351
0.00015025408
0.00016770571
0.0001914403
0.00021899382
0.00024842132
0.00027846164
0.00030842833
0.00033805716
0.00036741797
0.00039692764
0.00042752587
0.00046121359
0.00050234288
0.00051567578
0.00014582253
0.00015412098
0.00017120234
0.00019448674
0.00022158503
0.00025058804
0.00028024439
0.00030986871
0.00033919688
0.00036829956
0.00039759485
0.0004280239
0.00046158968
0.00050264831
0.00051599443
0.00014975257
0.00015785976
0.00017457272
0.0001974098
0.00022405774
0.00025264422
0.00028192762
0.00031122254
0.00034026375
0.00036912171
0.00039821519
0.00042848655
0.00046194092
0.00050293879
0.00051630818
0.00015354849
0.00016146641
0.00017781473
0.00020020911
0.00022641261
0.00025459084
0.00028351213
0.00031249028
0.00034125785
0.00036988422
0.00039878827
0.00042891335
0.0004622668
0.00050321384
0.00051661669
0.0001572064
0.00016493796
0.00018092694
0.00020288472
0.00022865057
0.00025642907
0.00028499889
0.00031367252
0.00034217938
0.00037058698
0.00039931376
0.00042930386
0.00046256685
0.00050347302
0.0005169196
0.00016072361
0.00016827244
0.00018390862
0.0002054371
0.00023077286
0.00025816031
0.00028638904
0.00031476999
0.00034302867
0.00037122997
0.00039979141
0.00042965768
0.00046284062
0.00050371592
0.00051721654
0.00016409844
0.00017146871
0.00018675962
0.00020786709
0.00023278092
0.00025978613
0.00028768393
0.00031578359
0.00034380617
0.00037181329
0.00040022105
0.0004299745
0.00046308774
0.00050394212
0.00051750717
0.00016733011
0.00017452643
0.00018948035
0.00021017588
0.00023467646
0.0002613083
0.00028888503
0.00031671436
0.00034451248
0.00037233713
0.00040060261
0.00043025406
0.00046330785
0.00050415129
0.00051779113
0.00017041866
0.00017744591
0.0001920717
0.00021236497
0.00023646138
0.00026272875
0.000289994
0.00031756352
0.00034514832
0.00037280183
0.00040093612
0.0004304962
0.00046350071
0.00050434311
0.00051806808
0.00017336478
0.00018022808
0.00019453498
0.00021443614
0.00023813775
0.00026404957
0.00029101263
0.00031833241
0.00034571457
0.00037320786
0.00040122173
0.00043070086
0.0004636661
0.00050451731
0.00051833767
0.00017616979
0.00018287437
0.00019687188
0.0002163914
0.00023970783
0.00026527298
0.00029194286
0.00031902252
0.00034621226
0.00037355582
0.0004014597
0.00043086806
0.00046380392
0.00050467369
0.00051859959
0.00017883549
0.00018538664
0.00019908443
0.000218233
0.000241174
0.00026640132
0.00029278675
0.0003196355
0.00034664256
0.00037384643
0.00040165042
0.00043099795
0.00046391414
0.00050481211
0.00051885353
0.00018136413
0.00018776714
0.00020117493
0.00021996335
0.00024253879
0.00026743704
0.00029354648
0.00032017309
0.00034700675
0.00037408057
0.00040179442
0.00043109078
0.00046399683
0.00050493249
0.00051909921
0.00018375829
0.00019001843
0.00020314591
0.00022158503
0.00024380481
0.00026838267
0.00029422432
0.00032063719
0.00034730628
0.00037425925
0.00040189233
0.00043114692
0.00046405214
0.00050503481
0.00051933635
0.00018602088
0.00019214334
0.00020500012
0.00022310076
0.00024497478
0.00026924085
0.00029482265
0.00032102978
0.0003475427
0.00037438361
0.00040194495
0.00043116686
0.00046408033
0.00050511914
0.00051956471
0.00018815501
0.00019414489
0.00020674045
0.00022451338
0.00024605148
0.00027001424
0.0002953439
0.00032135296
0.00034771769
0.00037445491
0.00040195315
0.00043115118
0.00046408176
0.00050518559
0.00051978409
0.000190164
0.00019602631
0.00020836995
0.00022582578
0.00024703776
0.00027070557
0.00029579059
0.00032160889
0.00034783303
0.00037447453
0.00040191798
0.00043110062
0.00046405687
0.00050523438
0.00051999428
0.00019205134
0.00019779092
0.00020989177
0.00022704096
0.0002479365
0.00027131763
0.00029616528
0.00032179983
0.00034789059
0.00037444398
0.00040184056
0.00043101598
0.00046400622
0.00050526577
0.00052019515
0.00019382061
0.00019944219
0.00021130912
0.00022816196
0.00024875062
0.00027185321
0.00029647057
0.0003219281
0.00034789235
0.00037436484
0.00040172214
0.0004308982
0.00046393043
0.00050528009
0.00052038655
0.00019547546
0.00020098363
0.00021262531
0.00022919186
0.00024948307
0.00027231512
0.00029670909
0.00032199607
0.00034784035
0.00037423881
0.00040156407
0.0004307483
0.00046383023
0.00050527774
0.00052056839
0.00019701962
0.00020241881
0.00021384364
0.00023013376
0.0002501368
0.00027270619
0.00029688351
0.00032200614
0.0003477367
0.00037406766
0.00040136779
0.00043056741
0.00046370642
0.00050525919
0.00052074061
0.00019845684
0.00020375134
0.00021496746
0.00023099077
0.00025071474
0.00027302923
0.00029699649
0.00032196078
0.00034758356
0.00037385325
0.00040113483
0.00043035672
0.00046355989
0.00050522496
0.00052090318
0.00019979088
0.00020498482
0.00021600013
0.00023176599
0.00025121984
0.00027328708
0.0002970507
0.00032186244
0.00034738314
0.00037359748
0.00040086677
0.00043011751
0.00046339158
0.00050517562
0.0005210561
0.00020102548
0.00020612284
0.000216945
0.00023246253
0.00025165503
0.00027348251
0.0002970488
0.00032171361
0.00034713769
0.00037330233
0.00040056529
0.00042985114
0.0004632025
0.00050511177
0.0005211994
0.00020216438
0.00020716901
0.0002178054
0.00023308347
0.0002520232
0.00027361831
0.00029699346
0.00032151678
0.00034684948
0.00037296978