/*--------------------------------*- C++ -*----------------------------------*\
| =========                 |                                                 |
| \\      /  F ield         | OpenFOAM: The Open Source CFD Toolbox           |
|  \\    /   O peration     | Version:  2506                                  |
|   \\  /    A nd           | Website:  www.openfoam.com                      |
|    \\/     M anipulation  |                                                 |
\*---------------------------------------------------------------------------*/
FoamFile
{
    version     2.0;
    format      ascii;
    arch        "LSB;label=32;scalar=64";
    class       volScalarField;
    location    "25000/water";
    object      nut;
}
// * * * * * * * * * * * * * * * * * * * * * * * * * * * * * * * * * * * * * //

dimensions      [0 2 -1 0 0 0 0];

internalField   nonuniform List<scalar> 
6000
(
4.1367308e-05
4.1367285e-05
4.1367292e-05
4.1367317e-05
4.136735e-05
4.1367394e-05
4.1367445e-05
4.1367477e-05
4.1367269e-05
4.1365028e-05
4.1345959e-05
4.1185428e-05
3.984402e-05
3.0619188e-05
1.3489073e-05
4.0862094e-05
4.0862089e-05
4.0862128e-05
4.0862206e-05
4.086231e-05
4.0862441e-05
4.0862573e-05
4.0862525e-05
4.0861044e-05
4.0849566e-05
4.0769767e-05
4.0233638e-05
3.6930279e-05
2.3809326e-05
1.5168915e-05
4.0408426e-05
4.0408431e-05
4.0408496e-05
4.0408619e-05
4.040878e-05
4.0408965e-05
4.0409066e-05
4.0408421e-05
4.0403049e-05
4.0369314e-05
4.0169922e-05
3.9053519e-05
3.3674827e-05
1.9530254e-05
1.6389796e-05
3.9998212e-05
3.9998216e-05
3.9998298e-05
3.9998456e-05
3.9998657e-05
3.9998846e-05
3.9998699e-05
3.999645e-05
3.9982628e-05
3.9907469e-05
3.9519874e-05
3.7665236e-05
3.0439418e-05
1.6813321e-05
1.7227565e-05
3.9625122e-05
3.9625133e-05
3.9625231e-05
3.9625419e-05
3.9625638e-05
3.9625739e-05
3.9624947e-05
3.9619415e-05
3.959045e-05
3.9450123e-05
3.8807695e-05
3.6131535e-05
2.7477322e-05
1.5090355e-05
1.7763765e-05
3.9283984e-05
3.9284007e-05
3.9284119e-05
3.9284324e-05
3.9284521e-05
3.9284369e-05
3.9282279e-05
3.9270986e-05
3.9218236e-05
3.8986823e-05
3.8033859e-05
3.4524992e-05
2.4897642e-05
1.400968e-05
1.8072537e-05
3.8970512e-05
3.8970546e-05
3.8970668e-05
3.8970871e-05
3.8970973e-05
3.8970306e-05
3.8965958e-05
3.8945612e-05
3.8858945e-05
3.8510812e-05
3.7207229e-05
3.2908964e-05
2.2716803e-05
1.3360893e-05
1.8215906e-05
3.8681158e-05
3.8681199e-05
3.8681323e-05
3.8681493e-05
3.8681392e-05
3.8679823e-05
3.8671916e-05
3.8638477e-05
3.8506919e-05
3.801881e-05
3.6341286e-05
3.1331233e-05
2.0908463e-05
1.30184e-05
1.8243034e-05
3.841296e-05
3.8413006e-05
3.8413119e-05
3.8413209e-05
3.8412743e-05
3.8409742e-05
3.8396631e-05
3.8345462e-05
3.8157885e-05
3.7510375e-05
3.5450851e-05
2.9823717e-05
1.9431977e-05
1.2906145e-05
1.8191421e-05
3.816343e-05
3.8163474e-05
3.8163556e-05
3.8163497e-05
3.8162446e-05
3.8157327e-05
3.8137042e-05
3.8063106e-05
3.7808869e-05
3.6987081e-05
3.454982e-05
2.8405299e-05
1.8246291e-05
1.2977275e-05
1.8088864e-05
3.7930458e-05
3.7930491e-05
3.7930513e-05
3.793021e-05
3.7928279e-05
3.7920197e-05
3.7890497e-05
3.7788579e-05
3.7458031e-05
3.6451747e-05
3.3649968e-05
2.7085594e-05
1.7315649e-05
1.3202296e-05
1.7955551e-05
3.7712242e-05
3.7712253e-05
3.7712173e-05
3.7711499e-05
3.7708322e-05
3.7696279e-05
3.7654711e-05
3.7519641e-05
3.7104472e-05
3.5907781e-05
3.2760531e-05
2.58684e-05
1.6611172e-05
1.3561911e-05
1.7805936e-05
3.7507239e-05
3.7507212e-05
3.7506973e-05
3.7505765e-05
3.7500895e-05
3.7483757e-05
3.7427744e-05
3.725459e-05
3.6748014e-05
3.5358688e-05
3.188827e-05
2.4754408e-05
1.6110613e-05
1.4042468e-05
1.7650267e-05
3.7314115e-05
3.7314026e-05
3.7313557e-05
3.7311613e-05
3.7304527e-05
3.7281048e-05
3.7207963e-05
3.6992195e-05
3.6389e-05
3.4807726e-05
3.1037799e-05
2.3743174e-05
1.5797412e-05
1.4632945e-05
1.7495753e-05
3.7131708e-05
3.713153e-05
3.7130739e-05
3.7127817e-05
3.7117921e-05
3.7086772e-05
3.6994026e-05
3.6731629e-05
3.6028109e-05
3.4257704e-05
3.0212055e-05
2.2834479e-05
1.5659519e-05
1.5322866e-05
1.7347422e-05
3.6959006e-05
3.6958703e-05
3.6957478e-05
3.6953298e-05
3.6939934e-05
3.6899735e-05
3.6784847e-05
3.64724e-05
3.5666203e-05
3.3710866e-05
2.9412801e-05
2.2029191e-05
1.5688155e-05
1.6100896e-05
1.7208725e-05
3.6795116e-05
3.6794645e-05
3.6792855e-05
3.6787094e-05
3.6769555e-05
3.6718912e-05
3.6579574e-05
3.6214282e-05
3.5304204e-05
3.3168861e-05
2.8641157e-05
2.132974e-05
1.5876569e-05
1.6954009e-05
1.7081944e-05
3.6639251e-05
3.6638559e-05
3.6636051e-05
3.6628355e-05
3.6605895e-05
3.6543431e-05
3.637756e-05
3.5957252e-05
3.4942996e-05
3.2632763e-05
2.789813e-05
2.0740252e-05
1.6218811e-05
1.786721e-05
1.6968459e-05
3.6490711e-05
3.6489738e-05
3.6486338e-05
3.6476321e-05
3.6448171e-05
3.6372563e-05
3.6178336e-05
3.5701433e-05
3.4583359e-05
3.2103134e-05
2.7185145e-05
2.0266398e-05
1.6708561e-05
1.8823777e-05
1.6868922e-05
3.6348869e-05
3.6347546e-05
3.6343063e-05
3.6330312e-05
3.62957e-05
3.6205706e-05
3.5981587e-05
3.5447046e-05
3.4225914e-05
3.1580129e-05
2.6504571e-05
1.991497e-05
1.7338099e-05
1.9805967e-05
1.6783375e-05
3.6213165e-05
3.6211415e-05
3.6205638e-05
3.6189726e-05
3.6147887e-05
3.6042373e-05
3.5787125e-05
3.5194368e-05
3.3871092e-05
3.1063631e-05
2.5860194e-05
1.9693245e-05
1.8097487e-05
2.0796033e-05
1.6711346e-05
3.6083093e-05
3.6080831e-05
3.6073537e-05
3.6054024e-05
3.6004223e-05
3.5882185e-05
3.5594869e-05
3.4943693e-05
3.3519118e-05
3.0553441e-05
2.5257605e-05
1.96082e-05
1.8974102e-05
2.1777346e-05
1.6651939e-05
3.5958194e-05
3.5955329e-05
3.5946284e-05
3.592273e-05
3.5864274e-05
3.5724854e-05
3.5404824e-05
3.4695304e-05
3.3170007e-05
3.0049498e-05
2.4704419e-05
1.9665646e-05
1.9952578e-05
2.2735413e-05
1.660395e-05
3.5838054e-05
3.5834489e-05
3.582345e-05
3.5795422e-05
3.5727676e-05
3.5570179e-05
3.521706e-05
3.444945e-05
3.2823581e-05
2.9552162e-05
2.4210265e-05
1.9869402e-05
2.1015193e-05
2.3658588e-05
1.6565971e-05
3.5722292e-05
3.5717927e-05
3.5704651e-05
3.5671733e-05
3.5594133e-05
3.5418031e-05
3.50317e-05
3.4206321e-05
3.2479494e-05
2.9062524e-05
2.3786503e-05
2.022057e-05
2.214264e-05
2.4538397e-05
1.6536511e-05
3.5610563e-05
3.5605296e-05
3.558954e-05
3.5551342e-05
3.5463408e-05
3.5268352e-05
3.48489e-05
3.3966035e-05
3.2137286e-05
2.8582751e-05
2.3445668e-05
2.0717024e-05
2.3315071e-05
2.5369466e-05
1.6514097e-05
3.5502551e-05
3.549628e-05
3.5477808e-05
3.5433974e-05
3.5335321e-05
3.5121137e-05
3.466884e-05
3.3728621e-05
3.1796463e-05
2.8116417e-05
2.3200676e-05
2.1353141e-05
2.4513224e-05
2.6149157e-05
1.6497357e-05
3.5397967e-05
3.539059e-05
3.536918e-05
3.5319398e-05
3.5209747e-05
3.4976437e-05
3.4491706e-05
3.3494016e-05
3.14566e-05
2.7668794e-05
2.3063903e-05
2.2119832e-05
2.5719464e-05
2.6877011e-05
1.6485071e-05
3.5296546e-05
3.5287966e-05
3.5263414e-05
3.5207424e-05
3.5086609e-05
3.4834344e-05
3.4317681e-05
3.3262058e-05
3.1117487e-05
2.7247026e-05
2.3046253e-05
2.3004862e-05
2.6918581e-05
2.7554165e-05
1.6476201e-05
3.5198047e-05
3.5188175e-05
3.5160297e-05
3.5097901e-05
3.4965875e-05
3.4694991e-05
3.4146934e-05
3.3032492e-05
3.0779305e-05
2.6860149e-05
2.3156315e-05
2.3993438e-05
2.8098247e-05
2.8182808e-05
1.6469894e-05
3.5102251e-05
3.5091004e-05
3.5059649e-05
3.4990715e-05
3.4847558e-05
3.4558539e-05
3.3979609e-05
3.2804987e-05
3.0442844e-05
2.6518902e-05
2.3399717e-05
2.5069008e-05
2.9249139e-05
2.8765761e-05
1.6465472e-05
3.5008959e-05
3.4996268e-05
3.4961317e-05
3.488579e-05
3.4731711e-05
3.4425177e-05
3.3815813e-05
3.2579164e-05
3.0109733e-05
2.6235324e-05
2.3778718e-05
2.6214169e-05
3.0364756e-05
2.9306158e-05
1.646241e-05
3.4917993e-05
3.4903801e-05
3.4865175e-05
3.4783085e-05
3.4618425e-05
3.4295113e-05
3.3655609e-05
3.235464e-05
2.9782688e-05
2.6022143e-05
2.4292061e-05
2.7411592e-05
3.1441033e-05
2.9807247e-05
1.6460314e-05
3.4829195e-05
3.4813462e-05
3.4771128e-05
3.4682592e-05
3.4507829e-05
3.416857e-05
3.3499011e-05
3.2131095e-05
2.9465732e-05
2.5892041e-05
2.4935075e-05
2.864486e-05
3.2475856e-05
3.0272255e-05
1.6458891e-05
3.4742423e-05
3.4725129e-05
3.4679107e-05
3.4584339e-05
3.4400083e-05
3.4045774e-05
3.3345975e-05
3.1908364e-05
2.9164363e-05
2.5856858e-05
2.5699993e-05
2.9899126e-05
3.3468558e-05
3.0704314e-05
1.6457936e-05
3.465756e-05
3.4638706e-05
3.4589068e-05
3.4488387e-05
3.4295378e-05
3.3926957e-05
3.3196403e-05
3.1686556e-05
2.8885628e-05
2.5926839e-05
2.6576459e-05
3.116155e-05
3.4419485e-05
3.1106401e-05
1.6457305e-05
3.4574503e-05
3.4554114e-05
3.4500999e-05
3.4394828e-05
3.4193938e-05
3.381234e-05
3.3050148e-05
3.1466195e-05
2.8638064e-05
2.611001e-05
2.755215e-05
3.2421505e-05
3.5329636e-05
3.1481314e-05
1.6456902e-05
3.4493171e-05
3.4471301e-05
3.4414911e-05
3.4303789e-05
3.409601e-05
3.3702133e-05
3.2907027e-05
3.124839e-05
2.8431493e-05
2.6411719e-05
2.8613485e-05
3.3670557e-05
3.620041e-05
3.1831643e-05
1.6456669e-05
3.4413502e-05
3.4390234e-05
3.4330848e-05
3.4215429e-05
3.4001867e-05
3.3596524e-05
3.2766849e-05
3.1035014e-05
2.8276658e-05
2.6834394e-05
2.9746334e-05
3.4902299e-05
3.7033431e-05
3.2159762e-05
1.6456572e-05
3.4335456e-05
3.4310905e-05
3.4248878e-05
3.4129939e-05
3.3911801e-05
3.3495676e-05
3.2629453e-05
3.0828885e-05
2.8184731e-05
2.7377503e-05
3.0936682e-05
3.6112071e-05
3.7830439e-05
3.2467823e-05
1.6456596e-05
3.4259011e-05
3.423333e-05
3.4169102e-05
3.4047543e-05
3.3826124e-05
3.3399718e-05
3.2494766e-05
3.0633923e-05
2.8166734e-05
2.8037695e-05
3.2171195e-05
3.7296638e-05
3.8593224e-05
3.2757763e-05
1.6456739e-05
3.4184168e-05
3.4157548e-05
3.409165e-05
3.3968498e-05
3.3745158e-05
3.3308744e-05
3.236288e-05
3.0455255e-05
2.8232928e-05
2.8809109e-05
3.3437651e-05
3.8453881e-05
3.9323577e-05
3.3031311e-05
1.6457005e-05
3.4110952e-05
3.4083626e-05
3.4016682e-05
3.3893092e-05
3.3669236e-05
3.3222813e-05
3.2234152e-05
3.0299253e-05
2.8392247e-05
2.9683792e-05
3.4725215e-05
3.9582516e-05
4.002327e-05
3.3290008e-05
1.6457402e-05
3.4039411e-05
3.4011658e-05
3.3944392e-05
3.3821645e-05
3.3598692e-05
3.3141955e-05
3.210932e-05
3.0173466e-05
2.8651822e-05
3.0652198e-05
3.6024574e-05
4.068187e-05
4.0694027e-05
3.353522e-05
1.6457942e-05
3.3969616e-05
3.3941763e-05
3.3875008e-05
3.3754507e-05
3.3533858e-05
3.306618e-05
3.1989642e-05
3.0086446e-05
2.9016627e-05
3.170372e-05
3.7327936e-05
4.1751713e-05
4.1337508e-05
3.3768156e-05
1.6458635e-05
3.3901667e-05
3.3874095e-05
3.3808792e-05
3.3692059e-05
3.3475059e-05
3.2995506e-05
3.1877039e-05
3.0047454e-05
2.9489292e-05
3.282722e-05
3.8628939e-05
4.2792135e-05
4.19553e-05
3.3989887e-05
1.6459492e-05
3.3835691e-05
3.3808835e-05
3.3746042e-05
3.3634709e-05
3.3422602e-05
3.292999e-05
3.1774237e-05
3.0066079e-05
3.007006e-05
3.4011505e-05
3.9922491e-05
4.3803459e-05
4.2548903e-05
3.4201364e-05
1.6460521e-05
3.3771846e-05
3.3746203e-05
3.3687095e-05
3.358289e-05
3.3376777e-05
3.286978e-05
3.1684884e-05
3.0151791e-05
3.0756885e-05
3.5245744e-05
4.1204585e-05
4.478618e-05
4.3119729e-05
3.4403428e-05
1.6461728e-05
3.3710322e-05
3.3686449e-05
3.3632325e-05
3.3537056e-05
3.3337852e-05
3.2815179e-05
3.1613637e-05
3.0313466e-05
3.1545659e-05
3.6519779e-05
4.2472113e-05
4.5740921e-05
4.3669102e-05
3.4596827e-05
1.6463121e-05
3.3651343e-05
3.3629867e-05
3.3582146e-05
3.3497682e-05
3.3306071e-05
3.2766735e-05
3.1566174e-05
3.0558942e-05
3.2430517e-05
3.7824349e-05
4.3722695e-05
4.6668398e-05
4.4198256e-05
3.4782225e-05
1.6464701e-05
3.359517e-05
3.3576787e-05
3.3537013e-05
3.3465256e-05
3.3281659e-05
3.2725337e-05
3.1549144e-05
3.0894634e-05
3.3404212e-05
3.9151205e-05
4.4954529e-05
4.7569394e-05
4.4708339e-05
3.4960217e-05
1.6466471e-05
3.3542106e-05
3.3527584e-05
3.3497423e-05
3.3440275e-05
3.3264837e-05
3.2692335e-05
3.1570019e-05
3.1325247e-05
3.4458513e-05
4.0493149e-05
4.6166273e-05
4.8444733e-05
4.5200419e-05
3.5131332e-05
1.6468431e-05
3.3492497e-05
3.3482682e-05
3.346391e-05
3.3423238e-05
3.3255837e-05
3.2669659e-05
3.1636865e-05
3.1853596e-05
3.5584602e-05
4.1844005e-05
4.7356957e-05
4.929526e-05
4.5675492e-05
3.5296046e-05
1.647058e-05
3.3446735e-05
3.3442548e-05
3.3437051e-05
3.3414643e-05
3.3254935e-05
3.2659935e-05
3.1758031e-05
3.2480549e-05
3.6773442e-05
4.3198541e-05
4.8525906e-05
5.0121831e-05
4.6134478e-05
3.5454786e-05
1.6472917e-05
3.3405264e-05
3.3407707e-05
3.3417461e-05
3.3414982e-05
3.3262499e-05
3.2666589e-05
3.1941796e-05
3.320508e-05
3.8016097e-05
4.455237e-05
4.9672689e-05
5.0925295e-05
4.6578236e-05
3.5607937e-05
1.6475437e-05
3.3368581e-05
3.3378733e-05
3.3405791e-05
3.3424735e-05
3.3279043e-05
3.2693906e-05
3.2195987e-05
3.4024413e-05
3.9303991e-05
4.5901839e-05
5.0797069e-05
5.1706489e-05
4.7007563e-05
3.5755848e-05
1.6478139e-05
3.3337244e-05
3.3356261e-05
3.3402726e-05
3.3444373e-05
3.330531e-05
3.274705e-05
3.2527612e-05
3.4934254e-05
4.0629091e-05
4.7243924e-05
5.1898973e-05
5.246623e-05
4.7423198e-05
3.5898835e-05
1.6481016e-05
3.3311875e-05
3.3340983e-05
3.3408981e-05
3.3474359e-05
3.3342359e-05
3.2832009e-05
3.2942534e-05
3.5929061e-05
4.1984034e-05
4.857613e-05
5.2978456e-05
5.3205312e-05
4.7825832e-05
3.6037185e-05
1.6484065e-05
3.3293163e-05
3.3333652e-05
3.3425294e-05
3.3515162e-05
3.3391665e-05
3.2955479e-05
3.3445225e-05
3.7002352e-05
4.3362183e-05
4.989641e-05
5.4035677e-05
5.3924501e-05
4.8216103e-05
3.6171159e-05
1.648728e-05
3.328187e-05
3.3335085e-05
3.3452425e-05
3.3567272e-05
3.3455233e-05
3.3124668e-05
3.4038593e-05
3.8147017e-05
4.4757639e-05
5.1203091e-05
5.5070877e-05
5.4624537e-05
4.859461e-05
3.6300998e-05
1.6490657e-05
3.3278836e-05
3.3346162e-05
3.3491148e-05
3.3631232e-05
3.3535693e-05
3.3347039e-05
3.4723913e-05
3.9355606e-05
4.6165217e-05
5.2494823e-05
5.6084362e-05
5.5306131e-05
4.8961909e-05
3.6426922e-05
1.6494188e-05
3.3284986e-05
3.3367825e-05
3.3542247e-05
3.3707682e-05
3.3636388e-05
3.3630011e-05
3.5500842e-05
4.0620597e-05
4.7580396e-05
5.3770522e-05
5.7076484e-05
5.5969965e-05
4.9318524e-05
3.654914e-05
1.649787e-05
3.3301329e-05
3.3401078e-05
3.3606513e-05
3.3797413e-05
3.3761428e-05
3.3980636e-05
3.6367518e-05
4.1934608e-05
4.8999256e-05
5.5029335e-05
5.8047627e-05
5.6616671e-05
4.9664834e-05
3.6667081e-05
1.6501693e-05
3.3328965e-05
3.3446985e-05
3.3684745e-05
3.3901443e-05
3.3915698e-05
3.4405286e-05
3.7320726e-05
4.329057e-05
5.0418415e-05
5.6270601e-05
5.8998197e-05
5.7246845e-05
5.0001239e-05
3.6781082e-05
1.6505652e-05
3.3369089e-05
3.3506668e-05
3.3777754e-05
3.4021099e-05
3.4104808e-05
3.4909371e-05
3.835611e-05
4.4681843e-05
5.1834962e-05
5.7493821e-05
5.992861e-05
5.7861055e-05
5.0328142e-05
3.6891447e-05
1.6509737e-05
3.3422992e-05
3.35813e-05
3.3886373e-05
3.4158114e-05
3.4334986e-05
3.5497112e-05
3.9468413e-05
4.6102292e-05
5.3246396e-05
5.869863e-05
6.0839297e-05
5.8459858e-05
5.0645955e-05
3.6998446e-05
1.6513939e-05
3.3492062e-05
3.3672102e-05
3.401148e-05
3.4314724e-05
3.4612898e-05
3.6171383e-05
4.065173e-05
4.7546319e-05
5.465058e-05
5.9884782e-05
6.1730686e-05
5.9043729e-05
5.0954639e-05
3.7102364e-05
1.651825e-05
3.3577785e-05
3.3780339e-05
3.4154029e-05
3.4493759e-05
3.4945424e-05
3.6933639e-05
4.1899745e-05
4.9008867e-05
5.6045689e-05
6.1052121e-05
6.2603201e-05
5.9613113e-05
5.1254407e-05
3.7203361e-05
1.6522664e-05
3.3681743e-05
3.3907318e-05
3.4315095e-05
3.4698716e-05
3.5339387e-05
3.7783904e-05
4.3205957e-05
5.0485405e-05
5.7430171e-05
6.220057e-05
6.345726e-05
6.0168467e-05
5.1545763e-05
3.7301527e-05
1.6527174e-05
3.380561e-05
3.4054381e-05
3.4495934e-05
3.4933799e-05
3.580127e-05
3.872085e-05
4.4563866e-05
5.1971897e-05
5.8802712e-05
6.3330115e-05
6.4293285e-05
6.0710255e-05
5.1829144e-05
3.7396968e-05
1.6531776e-05
3.3951149e-05
3.4222915e-05
3.4698056e-05
3.5203915e-05
3.633693e-05
3.9741915e-05
4.5967128e-05
5.3464758e-05
6.0162204e-05
6.4440799e-05
6.5111681e-05
6.1238808e-05
5.2104955e-05
3.7489814e-05
1.6536466e-05
3.4120207e-05
3.4414357e-05
3.4923314e-05
3.5514617e-05
3.6951354e-05
4.0843484e-05
4.7409668e-05
5.4960819e-05
6.1507721e-05
6.55327e-05
6.5912798e-05
6.1754114e-05
5.2373583e-05
3.7580209e-05
1.6541242e-05
3.4314708e-05
3.4630214e-05
3.5173991e-05
3.5871984e-05
3.7648444e-05
4.2021079e-05
4.888576e-05
5.6457287e-05
6.2838488e-05
6.6605928e-05
6.6697e-05
6.2256741e-05
5.2635234e-05
3.7668259e-05
1.65461e-05
3.4536653e-05
3.4872093e-05
3.5452898e-05
3.628245e-05
3.8430883e-05
4.3269576e-05
5.0390073e-05
5.7951698e-05
6.415386e-05
6.7660617e-05
6.746467e-05
6.2747204e-05
5.2890129e-05
3.775405e-05
1.6551039e-05
3.4788115e-05
3.5141741e-05
3.5763445e-05
3.6752577e-05
3.9300055e-05
4.4583408e-05
5.1917694e-05
5.9441888e-05
6.5453309e-05
6.8696934e-05
6.8216208e-05
6.3225962e-05
5.3138497e-05
3.783766e-05
1.6556054e-05
3.5071247e-05
3.5441107e-05
3.6109704e-05
3.7288802e-05
4.025604e-05
4.5956759e-05
5.3464128e-05
6.0925962e-05
6.6736406e-05
6.9715021e-05
6.895151e-05
6.3693478e-05
5.338059e-05
3.7919185e-05
1.6561142e-05
3.5388297e-05
3.5772414e-05
3.6496416e-05
3.7897165e-05
4.129767e-05
4.7383731e-05
5.5025287e-05
6.2402256e-05
6.8002794e-05
7.0715031e-05
6.9671057e-05
6.415006e-05
5.3616614e-05
3.7998712e-05
1.6566299e-05
3.5741631e-05
3.613824e-05
3.6928963e-05
3.8583055e-05
4.2422644e-05
4.8858482e-05
5.6597471e-05
6.3869313e-05
6.9252183e-05
7.1697154e-05
7.0375321e-05
6.4596008e-05
5.3846757e-05
3.8076317e-05
1.6571522e-05
3.6133773e-05
3.6541613e-05
3.7413277e-05
3.9350974e-05
4.3627668e-05
5.0375334e-05
5.8177335e-05
6.5325855e-05
7.0484346e-05
7.2661614e-05
7.1064738e-05
6.503162e-05
5.4071198e-05
3.8152063e-05
1.6576808e-05
3.656746e-05
3.6986096e-05
3.7955688e-05
4.0204359e-05
4.490864e-05
5.1928857e-05
5.9761874e-05
6.6770777e-05
7.1699098e-05
7.360826e-05
7.1739689e-05
6.5457192e-05
5.4290125e-05
3.8226013e-05
1.6582154e-05
3.7045714e-05
3.7475856e-05
3.8562726e-05
4.1145463e-05
4.6260827e-05
5.3513912e-05
6.1348385e-05
6.8203097e-05
7.2896265e-05
7.4537392e-05
7.2400525e-05
6.5872989e-05
5.4503717e-05
3.8298227e-05
1.6587555e-05
3.757192e-05
3.8015709e-05
3.9240874e-05
4.2175287e-05
4.7679056e-05
5.5125689e-05
6.2934433e-05
6.9621949e-05
7.4075735e-05
7.5449335e-05
7.3047564e-05
6.6279258e-05
5.4712132e-05
3.8368761e-05
1.6593008e-05
3.8149911e-05
3.8611114e-05
3.9996308e-05
4.3293598e-05
4.9157877e-05
5.6759714e-05
6.4517838e-05
7.1026577e-05
7.5237364e-05
7.6344372e-05
7.3681102e-05
6.6676241e-05
5.4915517e-05
3.8437663e-05
1.659851e-05
3.8784042e-05
3.9268111e-05
4.0834632e-05
4.4498984e-05
5.0691719e-05
5.8411852e-05
6.6096646e-05
7.2416313e-05
7.6380944e-05
7.7222748e-05
7.4301418e-05
6.7064181e-05
5.5114014e-05
3.8504979e-05
1.6604058e-05
3.9479239e-05
3.9993202e-05
4.1760631e-05
4.5788968e-05
5.2275012e-05
6.0078296e-05
6.7669089e-05
7.3790533e-05
7.7506497e-05
7.8084771e-05
7.4908773e-05
6.7443302e-05
5.5307755e-05
3.8570752e-05
1.6609649e-05
4.0241008e-05
4.0793158e-05
4.2778068e-05
4.7160153e-05
5.3902288e-05
6.1755541e-05
6.9233562e-05
7.5148705e-05
7.8614111e-05
7.8930695e-05
7.5503422e-05
6.781381e-05
5.5496865e-05
3.863502e-05
1.6615278e-05
4.1075379e-05
4.1674772e-05
4.3889538e-05
4.8608386e-05
5.5568257e-05
6.3440395e-05
7.078866e-05
7.6490227e-05
7.9703716e-05
7.9760725e-05
7.6085615e-05
6.8175903e-05
5.5681459e-05
3.8697819e-05
1.6620943e-05
4.1988781e-05
4.2644581e-05
4.5096381e-05
5.0128931e-05
5.7267858e-05
6.5129916e-05
7.2333039e-05
7.7814636e-05
8.0775505e-05
8.0575065e-05
7.665559e-05
6.8529767e-05
5.5861644e-05
3.8759181e-05
1.662664e-05
4.2987836e-05
4.3708551e-05
4.6398655e-05
5.1716631e-05
5.8996279e-05
6.682139e-05
7.3865477e-05
7.912162e-05
8.182961e-05
8.1373916e-05
7.7213563e-05
6.8875578e-05
5.603752e-05
3.8819135e-05
1.6632367e-05
4.4079083e-05
4.4871782e-05
4.7795178e-05
5.3366068e-05
6.0749004e-05
6.8512381e-05
7.5384834e-05
8.0410708e-05
8.2866083e-05
8.2157475e-05
7.7759743e-05
6.9213497e-05
5.620918e-05
3.8877709e-05
1.663812e-05
4.5268641e-05
4.6138231e-05
4.928361e-05
5.507169e-05
6.2521775e-05
7.0200568e-05
7.6890009e-05
8.1681806e-05
8.3884983e-05
8.2925926e-05
7.8294322e-05
6.9543675e-05
5.6376708e-05
3.8934927e-05
1.6643896e-05
4.6561839e-05
4.7510492e-05
5.0860575e-05
5.6827917e-05
6.4310597e-05
7.1883803e-05
7.8380061e-05
8.2934787e-05
8.4886379e-05
8.3679437e-05
7.881748e-05
6.9866252e-05
5.6540183e-05
3.8990809e-05
1.6649692e-05
4.7962842e-05
4.8989633e-05
5.2521808e-05
5.8629244e-05
6.6111784e-05
7.3560114e-05
7.9853966e-05
8.4169429e-05
8.5870335e-05
8.4418164e-05
7.9329384e-05
7.0181356e-05
5.6699676e-05
3.9045374e-05
1.6655504e-05
4.947432e-05
5.0575106e-05
5.4262302e-05
6.0470263e-05
6.7921782e-05
7.5227542e-05
8.1311236e-05
8.5385549e-05
8.6836901e-05
8.5142248e-05
7.9830184e-05
7.0489104e-05
5.6855251e-05
3.9098639e-05
1.666133e-05
5.1097172e-05
5.2264738e-05
5.6076473e-05
6.2345767e-05
6.9737328e-05
7.6884132e-05
8.2751247e-05
8.6582974e-05
8.7786119e-05
8.5851816e-05
8.0320017e-05
7.0789603e-05
5.7006966e-05
3.9150619e-05
1.6667167e-05
5.2830351e-05
5.4054774e-05
5.7958272e-05
6.4250651e-05
7.155519e-05
7.8528491e-05
8.4173388e-05
8.7761527e-05
8.8718016e-05
8.6546977e-05
8.0799006e-05
7.1082948e-05
5.7154872e-05
3.9201324e-05
1.6673011e-05
5.46708e-05
5.5940003e-05
5.9901339e-05
6.6180027e-05
7.3372135e-05
8.0159325e-05
8.5577084e-05
8.8921028e-05
8.9632605e-05
8.7227825e-05
8.1267259e-05
7.1369223e-05
5.7299013e-05
3.9250764e-05
1.667886e-05
5.6613491e-05
5.7913889e-05
6.1899013e-05
6.8128964e-05
7.5185585e-05
8.1775372e-05
8.6961775e-05
9.0061288e-05
9.0529882e-05
8.7894434e-05
8.1724867e-05
7.16485e-05
5.7439429e-05
3.9298945e-05
1.668471e-05
5.8651577e-05
5.9968763e-05
6.3944412e-05
7.0092662e-05
7.6993165e-05
8.3375433e-05
8.8326915e-05
9.1182108e-05
9.1409825e-05
8.8546862e-05
8.2171906e-05
7.1920843e-05
5.7576152e-05
3.9345873e-05
1.6690559e-05
6.0776582e-05
6.2095899e-05
6.6030384e-05
7.2066952e-05
7.8792617e-05
8.4958359e-05
8.9671963e-05
9.2283275e-05
9.2272391e-05
8.9185144e-05
8.2608439e-05
7.2186301e-05
5.7709206e-05
3.939155e-05
1.6696402e-05
6.2978594e-05
6.4285883e-05
6.8150086e-05
7.4047817e-05
8.0581788e-05
8.652304e-05
9.099638e-05
9.336456e-05
9.3117518e-05
8.98093e-05
8.3034508e-05
7.2444915e-05
5.7838611e-05
3.9435975e-05
1.6702238e-05
6.5246741e-05
6.6528904e-05
7.0296725e-05
7.603138e-05
8.2358614e-05
8.8068403e-05
9.2299627e-05
9.4425718e-05
9.3945121e-05
9.0419326e-05
8.3450143e-05
7.2696712e-05
5.796438e-05
3.9479146e-05
1.6708062e-05
6.7569566e-05
6.8814937e-05
7.2463594e-05
7.8013892e-05
8.4121109e-05
8.95934e-05
9.3581159e-05
9.5466484e-05
9.4755093e-05
9.1015198e-05
8.3855355e-05
7.2941708e-05
5.8086519e-05
3.9521059e-05
1.6713872e-05
6.9935384e-05
7.1133939e-05
7.464411e-05
7.9991721e-05
8.5867357e-05
9.1097006e-05
9.4840425e-05
9.6486573e-05
9.5547305e-05
9.1596871e-05
8.4250138e-05
7.3179908e-05
5.8205028e-05
3.9561705e-05
1.6719664e-05
7.2332594e-05
7.3476037e-05
7.683185e-05
8.1961342e-05
8.7595498e-05
9.2578216e-05
9.6076868e-05
9.7485685e-05
9.6321603e-05
9.216428e-05
8.4634471e-05
7.3411307e-05
5.8319899e-05
3.9601076e-05
1.6725435e-05
7.4749943e-05
7.5831679e-05
7.9020593e-05
8.3919337e-05
8.9303726e-05
9.4036041e-05
9.7289928e-05
9.8463498e-05
9.7077816e-05
9.2717339e-05
8.5008315e-05
7.3635884e-05
5.843112e-05
3.9639159e-05
1.673118e-05
7.7176728e-05
7.8191766e-05
8.1204354e-05
8.5862394e-05
9.0990282e-05
9.5469509e-05
9.8479036e-05
9.9419676e-05
9.7815747e-05
9.3255943e-05
8.5371616e-05
7.3853611e-05
5.853867e-05
3.9675939e-05
1.6736897e-05
7.9602957e-05
8.054775e-05
8.3377422e-05
8.7787313e-05
9.2653455e-05
9.6877665e-05
9.9643625e-05
0.00010035387
9.8535186e-05
9.3779968e-05
8.5724304e-05
7.4064448e-05
5.8642522e-05
3.97114e-05
1.6742581e-05
8.2019438e-05
8.2891711e-05
8.5534399e-05
8.9691013e-05
9.4291586e-05
9.8259574e-05
0.00010078313
0.00010126572
9.9235904e-05
9.4289272e-05
8.6066295e-05
7.4268341e-05
5.8742645e-05
3.9745522e-05
1.6748228e-05
8.4417845e-05
8.5216398e-05
8.7670222e-05
9.1570544e-05
9.5903064e-05
9.9614322e-05
0.00010189698
0.00010215486
9.991766e-05
9.4783699e-05
8.6397489e-05
7.4465232e-05
5.8838999e-05
3.9778283e-05
1.6753834e-05
8.6790732e-05
8.7515256e-05
8.9780195e-05
9.34231e-05
9.7486339e-05
0.00010094103
0.00010298463
0.00010302093
0.0001005802
9.5263083e-05
8.6717777e-05
7.4655047e-05
5.8931542e-05
3.9809659e-05
1.6759395e-05
8.9131524e-05
8.9782429e-05
9.1860002e-05
9.5246034e-05
9.9039924e-05
0.00010223883
0.00010404555
0.00010386354
0.00010122328
9.5727244e-05
8.7027039e-05
7.483771e-05
5.9020223e-05
3.9839626e-05
1.6764906e-05
9.1434488e-05
9.2012746e-05
9.3905719e-05
9.7036867e-05
0.0001005624
0.00010350691
0.00010507921
0.00010468236
0.00010184662
9.6176e-05
8.7325148e-05
7.5013135e-05
5.910499e-05
3.9868154e-05
1.6770362e-05
9.3694684e-05
9.42017e-05
9.5913822e-05
9.8793303e-05
0.00010205245
0.0001047445
0.00010608513
0.00010547703
0.00010244999
9.6609162e-05
8.7611969e-05
7.5181231e-05
5.9185785e-05
3.9895215e-05
1.6775758e-05
9.5907912e-05
9.6345407e-05
9.7881179e-05
0.00010051324
0.00010350881
0.00010595088
0.00010706283
0.00010624723
0.00010303313
9.7026545e-05
8.7887367e-05
7.5341902e-05
5.9262549e-05
3.992078e-05
1.6781089e-05
9.8070651e-05
9.8440571e-05
9.9805045e-05
0.00010219476
0.00010493033
0.00010712536
0.00010801191
0.00010699266
0.00010359581
9.7427967e-05
8.8151205e-05
7.5495054e-05
5.9335221e-05
3.9944818e-05
1.6786351e-05
0.00010018
0.00010048444
0.00010168305
0.00010383617
0.00010631597
0.00010826734
0.00010893197
0.00010771304
0.00010413781
9.7813258e-05
8.840335e-05
7.5640589e-05
5.9403739e-05
3.9967297e-05
1.6791536e-05
0.0001022336
0.00010247475
0.00010351318
0.00010543597
0.00010766479
0.00010937627
0.00010982268
0.00010840812
0.00010465895
9.8182258e-05
8.8643676e-05
7.5778415e-05
5.9468042e-05
3.9988188e-05
1.6796641e-05
0.00010422961
0.00010440971
0.00010529377
0.00010699286
0.00010897596
0.00011045167
0.00011068375
0.00010907771
0.00010515905
9.8534824e-05
8.8872064e-05
7.5908441e-05
5.9528071e-05
4.0007461e-05
1.6801658e-05
0.00010616663
0.0001062879
0.00010702344
0.00010850574
0.00011024877
0.00011149313
0.00011151494
0.00010972165
0.00010563799
9.8870834e-05
8.9088411e-05
7.6030586e-05
5.958377e-05
4.0025088e-05
1.6806583e-05
0.00010804362
0.0001081083
0.00010870115
0.00010997372
0.00011148261
0.00011250032
0.00011231606
0.0001103398
0.00010609565
9.9190191e-05
8.9292627e-05
7.6144776e-05
5.963509e-05
4.0041044e-05
1.681141e-05
0.00010985991
0.00010987018
0.00011032609
0.00011139607
0.00011267701
0.00011347298
0.000113087
0.0001109321
0.00010653196
9.9492823e-05
8.948464e-05
7.6250949e-05
5.9681985e-05
4.0055306e-05
1.6816132e-05
0.00011161513
0.00011157313
0.00011189771
0.00011277226
0.0001138316
0.00011441093
0.00011382768
0.00011149852
0.00010694691
9.9778688e-05
8.9664399e-05
7.6349057e-05
5.9724419e-05
4.0067854e-05
1.6820745e-05
0.00011330917
0.00011321697
0.00011341569
0.00011410192
0.00011494612
0.00011531406
0.0001145381
0.00011203908
0.0001073405
0.00010004778
8.9831876e-05
7.6439065e-05
5.9762363e-05
4.0078673e-05
1.6825243e-05
0.00011494214
0.00011480175
0.00011487992
0.00011538484
0.00011602043
0.00011618235
0.0001152183
0.00011255385
0.00010771278
0.00010030011
8.9987069e-05
7.6520956e-05
5.97958e-05
4.0087751e-05
1.682962e-05
0.00011651436
0.00011632772
0.00011629044
0.00011662096
0.00011705449
0.00011701584
0.0001158684
0.00011304295
0.00010806386
0.00010053574
9.0129999e-05
7.6594732e-05
5.9824723e-05
4.0095083e-05
1.6833872e-05
0.00011802631
0.00011779529
0.0001176475
0.00011781036
0.00011804836
0.00011781465
0.00011648856
0.00011350655
0.00010839386
0.00010075477
9.0260718e-05
7.6660413e-05
5.9849135e-05
4.0100669e-05
1.6837993e-05
0.00011947863
0.00011920503
0.00011895145
0.00011895322
0.00011900219
0.00011857897
0.00011707899
0.00011394486
0.00010870297
0.00010095732
9.0379302e-05
7.6718038e-05
5.9869055e-05
4.0104513e-05
1.6841979e-05
0.00012087206
0.00012055761
0.00012020279
0.00012004986
0.00011991621
0.00011930904
0.00011763997
0.00011435815
0.0001089914
0.00010114356
9.0485858e-05
7.676767e-05
5.9884513e-05
4.0106626e-05
1.6845825e-05
0.00012220749
0.00012185385
0.00012140213
0.0001211007
0.00012079077
0.0001200052
0.00011817182
0.00011474671
0.00010925941
0.00010131367
9.058052e-05
7.680939e-05
5.9895551e-05
4.0107026e-05
1.6849528e-05
0.00012348587
0.00012309463
0.00012255018
0.00012210623
0.00012162625
0.0001206678
0.00011867491
0.00011511089
0.0001095073
0.00010146789
9.0663451e-05
7.68433e-05
5.9902228e-05
4.0105736e-05
1.6853085e-05
0.00012470824
0.00012428093
0.00012364773
0.00012306707
0.00012242314
0.00012129728
0.00011914966
0.00011545109
0.0001097354
0.00010160649
9.073484e-05
7.6869525e-05
5.9904612e-05
4.0102787e-05
1.6856492e-05
0.0001258757
0.00012541379
0.00012469566
0.00012398387
0.00012318195
0.00012189412
0.00011959651
0.00011576771
0.00010994407
0.00010172975
9.0794901e-05
7.6888208e-05
5.9902789e-05
4.0098213e-05
1.6859747e-05
0.0001269894
0.0001264943
0.00012569488
0.00012485736
0.0001239033
0.00012245886
0.00012001598
0.00011606122
0.00011013372
0.000101838
9.0843875e-05
7.6899512e-05
5.9896854e-05
4.0092056e-05
1.6862849e-05
0.00012805055
0.00012752362
0.0001266464
0.00012568833
0.00012458782
0.00012299206
0.00012040858
0.00011633211
0.00011030476
0.00010193157
9.0882025e-05
7.6903618e-05
5.9886916e-05
4.0084363e-05
1.6865795e-05
0.00012906039
0.00012850291
0.00012755125
0.00012647763
0.00012523621
0.00012349434
0.00012077488
0.00011658088
0.00011045765
0.00010201086
9.0909636e-05
7.6900725e-05
5.9873094e-05
4.0075187e-05
1.6868584e-05
0.00013002017
0.00012943341
0.00012841049
0.00012722614
0.0001258492
0.00012396633
0.00012111548
0.00011680808
0.00011059286
0.00010207624
9.0927012e-05
7.6891048e-05
5.9855519e-05
4.0064584e-05
1.6871217e-05
0.00013093119
0.00013031635
0.00012922523
0.00012793478
0.00012642756
0.00012440872
0.00012143098
0.00011701427
0.00011071089
0.00010212814
9.0934478e-05
7.6874816e-05
5.9834331e-05
4.0052617e-05
1.6873693e-05
0.00013179476
0.00013115298
0.0001299966
0.0001286045
0.00012697209
0.00012482221
0.00012172203
0.00011720003
0.00011081226
0.00010216699
9.093237e-05
7.6852271e-05
5.9809679e-05
4.003935e-05
1.6876013e-05
0.00013261219
0.00013194458
0.00013072574
0.00012923628
0.00012748363
0.00012520752
0.00012198929
0.00011736596
0.00011089749
0.00010219323