/*--------------------------------*- C++ -*----------------------------------*\
| =========                 |                                                 |
| \\      /  F ield         | OpenFOAM: The Open Source CFD Toolbox           |
|  \\    /   O peration     | Version:  2506                                  |
|   \\  /    A nd           | Website:  www.openfoam.com                      |
|    \\/     M anipulation  |                                                 |
\*---------------------------------------------------------------------------*/
FoamFile
{
    version     2.0;
    format      ascii;
    arch        "LSB;label=32;scalar=64";
    class       volVectorField;
    location    "25000/water";
    object      U;
}
// * * * * * * * * * * * * * * * * * * * * * * * * * * * * * * * * * * * * * //

dimensions      [0 1 -1 0 0 0 0];

internalField   nonuniform List<vector> 
6000
(
(0.25028648 -3.4193493e-05 1.8057089e-18)
(0.25028875 -7.4648812e-05 -3.5708281e-18)
(0.25029344 -0.00011804414 -1.1660481e-18)
(0.25030059 -0.00016540046 1.3439736e-20)
(0.25031046 -0.00021487336 7.3749248e-20)
(0.25032332 -0.00026685039 5.6747969e-20)
(0.25033948 -0.00032192175 1.9764117e-19)
(0.25035939 -0.00038078672 -1.6693927e-20)
(0.25038356 -0.00044434477 -1.7575551e-20)
(0.25041254 -0.00051362452 -1.5217224e-19)
(0.25044587 -0.0005867756 1.5694538e-19)
(0.25047643 -0.00065822056 1.157253e-19)
(0.25046276 -0.00078466513 1.5379996e-19)
(0.25013031 -0.0015987837 1.1271224e-19)
(0.24584996 0.0019968142 -1.617671e-19)
(0.25104035 -3.7261304e-05 8.3706226e-19)
(0.25104514 -8.989598e-05 -3.0134162e-18)
(0.2510558 -0.00014352114 -1.0581424e-18)
(0.25107219 -0.00020025424 -2.151505e-23)
(0.2510947 -0.0002571822 1.2646789e-18)
(0.25112368 -0.00031440571 6.8923828e-19)
(0.25115965 -0.00037188242 4.6750162e-19)
(0.25120324 -0.00042947839 -2.7605252e-19)
(0.2512551 -0.00048709454 1.2655731e-19)
(0.25131538 -0.00054561245 -9.4606545e-20)
(0.25138039 -0.00060405492 2.0748577e-19)
(0.25142587 -0.00063755821 7.5097148e-20)
(0.25133175 -0.00059164843 1.7009161e-19)
(0.25037931 -0.0014370973 8.1371311e-20)
(0.24194277 0.00099520264 -1.8710475e-19)
(0.25195051 -3.6589029e-05 -2.097941e-18)
(0.25195563 -9.0250613e-05 2.3656667e-18)
(0.25196731 -0.00014313025 1.6021902e-18)
(0.25198528 -0.00019912656 -1.6218482e-18)
(0.25200977 -0.00025508716 9.7408972e-19)
(0.25204101 -0.0003112558 -2.1807572e-19)
(0.25207932 -0.00036762123 -6.6263526e-19)
(0.25212505 -0.00042413945 -1.0232252e-18)
(0.25217823 -0.00048056787 -5.2020682e-19)
(0.25223708 -0.0005377572 -8.5388112e-20)
(0.25229114 -0.00060007155 -2.5200658e-19)
(0.25229033 -0.00065419843 -4.9957469e-19)
(0.25200573 -0.00054460881 -2.9358082e-19)
(0.25014357 -0.0012195308 -1.7792395e-19)
(0.23758495 0.00043820543 -3.5852992e-19)
(0.25283353 -3.7446604e-05 7.5888168e-19)
(0.25283867 -9.3611088e-05 1.0291955e-18)
(0.25285018 -0.00014906892 4.4737997e-19)
(0.25286783 -0.00020791578 -1.1509856e-18)
(0.25289182 -0.00026672308 2.9906633e-19)
(0.25292238 -0.00032582165 -5.053706e-19)
(0.25295982 -0.00038519269 -8.4081465e-19)
(0.25300432 -0.00044485276 -4.8696316e-19)
(0.25305525 -0.00050441426 -6.1712721e-19)
(0.25310809 -0.00056332944 3.5130306e-19)
(0.25314261 -0.00062607506 -1.6923843e-19)
(0.25307635 -0.00069910336 -3.6086623e-19)
(0.25255493 -0.0005845712 -3.9061322e-19)
(0.24963188 -0.001063787 -1.3338947e-19)
(0.23320285 0.0001058672 -2.7750169e-19)
(0.25372643 -3.8342944e-05 1.0600678e-17)
(0.2537317 -9.6368692e-05 2.6375787e-18)
(0.25374347 -0.00015372841 5.3793516e-19)
(0.25376156 -0.00021453144 5.2512178e-19)
(0.25378616 -0.00027516439 -1.5403688e-19)
(0.25381749 -0.00033599427 1.3855045e-19)
(0.25385581 -0.00039694563 2.94885e-20)
(0.25390101 -0.00045805575 1.472386e-19)
(0.25395133 -0.00051907431 4.214757e-19)
(0.25399821 -0.00057855465 4.5480652e-19)
(0.25400834 -0.00063773998 4.1281206e-19)
(0.25386022 -0.0007177221 2.0785062e-19)
(0.25305737 -0.00062191547 -7.0938769e-20)
(0.24895451 -0.00093835859 7.234468e-21)
(0.22897365 -8.3792338e-05 -6.4718239e-20)
(0.25464474 -3.866162e-05 1.055459e-18)
(0.25465014 -9.7320119e-05 1.9256627e-19)
(0.2546622 -0.00015516462 9.8513414e-19)
(0.25468073 -0.00021648309 3.126307e-19)
(0.2547059 -0.00027758564 -5.2228498e-19)
(0.25473792 -0.000338881 -2.921766e-19)
(0.25477689 -0.00040025681 -7.1120331e-20)
(0.25482222 -0.000461728 -1.5607017e-19)
(0.25487049 -0.00052322808 5.7044307e-19)
(0.2549078 -0.000583188 4.3648265e-19)
(0.25488519 -0.00063896641 2.4190864e-19)
(0.25463685 -0.00071821651 1.2766676e-19)
(0.25350729 -0.0006469875 -6.634903e-21)
(0.248129 -0.00083894719 -3.2000578e-20)
(0.2249409 -0.00018589273 -3.7661549e-20)
(0.25557031 -3.8595293e-05 -4.370489e-18)
(0.25557581 -9.7309346e-05 -2.9826658e-18)
(0.25558805 -0.00015511983 -4.151053e-19)
(0.25560682 -0.00021642526 7.7098249e-20)
(0.2556323 -0.00027749359 -9.9275146e-19)
(0.25566463 -0.00033876345 9.7821849e-21)
(0.25570371 -0.00040009734 2.0957922e-19)
(0.25574825 -0.00046144626 1.3262375e-19)
(0.25579256 -0.00052279714 1.7144388e-19)
(0.25581623 -0.0005828814 3.8372723e-19)
(0.25575267 -0.00063600478 1.6785817e-19)
(0.25538743 -0.00071016267 9.7704581e-20)
(0.25388915 -0.00066107344 3.7265542e-20)
(0.24716598 -0.00076077854 6.815096e-21)
(0.22112141 -0.00023459296 -3.8023204e-21)
(0.25649134 -3.8297106e-05 5.5875775e-18)
(0.25649692 -9.6712128e-05 4.8581432e-19)
(0.25650928 -0.00015419069 1.0961195e-18)
(0.25652824 -0.00021515485 4.4344352e-19)
(0.25655393 -0.00027585718 -6.3027391e-19)
(0.25658641 -0.0003367553 3.3611964e-19)
(0.25662528 -0.00039769653 3.3714585e-19)
(0.2566683 -0.00045856441 3.1219087e-19)
(0.25670691 -0.00051927104 -6.8884785e-20)
(0.25671305 -0.00057893859 -1.0512982e-19)
(0.25660095 -0.00063003278 2.2137493e-19)
(0.25610359 -0.00069722485 2.5083496e-19)
(0.25419746 -0.0006651972 9.4358863e-20)
(0.24608527 -0.00069788903 5.0012104e-20)
(0.21752738 -0.00025081848 5.3736631e-20)
(0.25740382 -3.7852859e-05 -4.1474806e-19)
(0.25740947 -9.5689494e-05 -2.4543846e-18)
(0.25742193 -0.00015257331 2.0746862e-19)
(0.25744104 -0.00021291358 6.4355722e-19)
(0.25746687 -0.00027297291 8.1966419e-19)
(0.25749936 -0.0003332193 3.4206707e-19)
(0.2575377 -0.00039348924 7.6477253e-20)
(0.2575784 -0.00045361302 2.5582176e-19)
(0.25760945 -0.00051335259 2.0429154e-19)
(0.25759421 -0.00057212214 3.4292786e-19)
(0.25742635 -0.00062159363 2.6210519e-19)
(0.25678237 -0.00068144217 2.4581159e-19)
(0.25443121 -0.00066103685 1.0850322e-19)
(0.24490935 -0.00064561644 3.7473058e-20)
(0.21416513 -0.00024776584 1.299077e-19)
(0.25830515 -3.7308638e-05 -1.8003744e-18)
(0.25831084 -9.4372769e-05 -1.3608739e-18)
(0.25832339 -0.00015047649 -1.057405e-18)
(0.2583426 -0.00020999612 2.0018138e-19)
(0.25836849 -0.00026922145 -2.4842161e-19)
(0.25840083 -0.00032862339 2.7762327e-19)
(0.25843826 -0.00038802595 2.5306743e-19)
(0.25847573 -0.00044722018 1.5510374e-19)
(0.25849727 -0.00050579279 3.7818201e-19)
(0.25845683 -0.00056328987 3.0304584e-19)
(0.25822634 -0.00061131676 4.3842242e-19)
(0.25742154 -0.00066417743 2.0237843e-19)
(0.2545896 -0.00065044234 1.4776272e-19)
(0.24365871 -0.00060064453 9.0612949e-20)
(0.21103455 -0.00023378679 6.4472014e-20)
(0.259193 -3.669388e-05 5.4615982e-18)
(0.25919873 -9.2857459e-05 5.1981776e-18)
(0.25921134 -0.00014806165 -1.2637234e-18)
(0.25923061 -0.00020663289 1.9163345e-20)
(0.25925648 -0.0002648995 3.2341697e-19)
(0.25928848 -0.00032332972 3.439954e-19)
(0.25932457 -0.00038173097 3.8450146e-19)
(0.25935785 -0.00043986308 8.6170652e-20)
(0.25936788 -0.00049714489 2.41226e-19)
(0.25929853 -0.00055310431 -3.4562445e-19)
(0.2589988 -0.00059970361 2.9176288e-19)
(0.25801896 -0.00064623361 2.7478127e-19)
(0.25467145 -0.00063499349 2.2072986e-19)
(0.24235144 -0.00056062195 5.6742573e-20)
(0.20813123 -0.0002141088 -4.4389876e-20)
(0.26006576 -3.6034055e-05 6.3548243e-18)
(0.26007152 -9.1214285e-05 4.3339863e-18)
(0.26008417 -0.00014544281 -5.1193721e-19)
(0.26010346 -0.00020298347 1.8062651e-19)
(0.26012923 -0.00026021093 -1.4730129e-19)
(0.2601607 -0.0003175869 1.625575e-19)
(0.26019497 -0.00037489796 1.2851501e-19)
(0.26022303 -0.0004318747 -6.2481182e-21)
(0.26021952 -0.00048779067 -1.2023706e-19)
(0.26011767 -0.00054204301 -4.7297731e-19)
(0.25974224 -0.00058714002 1.3712274e-19)
(0.25857279 -0.00062806077 3.0925081e-19)
(0.25467557 -0.00061594005 1.6358058e-19)
(0.24100379 -0.00052390611 2.184107e-20)
(0.20544863 -0.00019196317 -4.118215e-20)
(0.2609225 -3.5349633e-05 4.6330514e-18)
(0.26092828 -8.9497286e-05 4.356797e-18)
(0.26094096 -0.00014270541 7.6951496e-20)
(0.26096023 -0.00019916671 4.1862062e-19)
(0.2609858 -0.00025530722 3.6338396e-19)
(0.2610165 -0.00031157922 4.2344811e-19)
(0.26104844 -0.00036774517 1.7013117e-19)
(0.2610702 -0.00042350433 1.9201381e-19)
(0.26105114 -0.00047801113 -1.7641807e-19)
(0.26091327 -0.00053046086 -1.6404313e-19)
(0.2604557 -0.00057393662 -3.698949e-20)
(0.2590814 -0.00060990566 2.0922413e-19)
(0.2546009 -0.00059424331 1.467511e-19)
(0.23963056 -0.00048937354 7.5520795e-20)
(0.20297926 -0.00016931833 1.0355367e-19)
(0.26176274 -3.4655538e-05 3.0544834e-18)
(0.26176854 -8.7746856e-05 3.9113183e-18)
(0.26178122 -0.00013991377 -4.0512527e-19)
(0.26180042 -0.00019527247 1.9114775e-20)
(0.26182568 -0.00025030306 5.2507895e-19)
(0.26185536 -0.00030544608 7.097172e-19)
(0.26188442 -0.00036043768 1.9399096e-19)
(0.26189878 -0.00041494196 1.5030832e-19)
(0.26186213 -0.00046801763 6.3388558e-20)
(0.2616848 -0.00051862213 7.9170604e-20)
(0.26113855 -0.00056034346 -2.9702742e-20)
(0.25954316 -0.00059189153 1.4515098e-19)
(0.25444651 -0.0005706321 1.9053099e-19)
(0.23824529 -0.00045627776 6.3952678e-20)
(0.20071509 -0.00014735259 5.2730576e-20)
(0.26258633 -3.3963061e-05 2.9791861e-18)
(0.26259213 -8.5993781e-05 1.7664664e-18)
(0.26260479 -0.00013711719 3.3843039e-18)
(0.26262388 -0.00019136968 5.2326239e-19)
(0.2626487 -0.00024528655 -9.5476335e-19)
(0.26267708 -0.00029929459 3.4037139e-19)
(0.26270267 -0.00035310243 2.3968218e-19)
(0.26270848 -0.00040633486 1.7017697e-19)
(0.26265224 -0.00045797299 1.0195076e-19)
(0.26243199 -0.00050672606 7.7140643e-20)
(0.26179026 -0.00054656345 2.3185527e-19)
(0.25995633 -0.0005740675 2.0292144e-19)
(0.25421177 -0.00054566294 1.5520167e-19)
(0.23686046 -0.00042415214 1.7341703e-19)
(0.19864765 -0.0001267576 4.5299039e-20)
(0.26339335 -3.32814e-05 4.2025832e-18)
(0.26339915 -8.4262741e-05 5.312787e-18)
(0.26341177 -0.0001343551 2.6568413e-18)
(0.26343068 -0.0001875135 1.0360058e-18)
(0.26345493 -0.00024032822 1.438984e-18)
(0.26348171 -0.00029321054 2.1602602e-19)
(0.2635032 -0.00034584107 1.0419967e-19)
(0.2634993 -0.00039780175 2.5334171e-19)
(0.26342146 -0.00044800829 2.8753831e-19)
(0.26315482 -0.00049492779 1.8165293e-19)
(0.26241041 -0.00053276479 3.4727196e-19)
(0.26031893 -0.00055643964 1.9645476e-19)
(0.2538966 -0.000519773 1.9477993e-19)
(0.23548766 -0.00039274464 1.44355e-19)
(0.19676807 -0.00010792878 1.4579019e-19)
(0.26418413 -3.2618313e-05 4.2757095e-19)
(0.26418991 -8.2574226e-05 2.9819191e-18)
(0.26420246 -0.00013166021 3.9690742e-20)
(0.26422112 -0.0001837496 9.3549079e-19)
(0.26424465 -0.00023548649 7.1655305e-19)
(0.2642695 -0.00028726512 3.2259674e-19)
(0.26428624 -0.00033873796 1.6654905e-19)
(0.26427145 -0.00038944152 4.0790291e-19)
(0.26416998 -0.0004382328 5.127365e-19)
(0.26385341 -0.00048335173 4.649963e-19)
(0.26299854 -0.00051908846 2.7794545e-19)
(0.26062878 -0.00053898816 8.227217e-20)
(0.25350187 -0.00049331965 1.9686558e-19)
(0.2341376 -0.00036197184 1.2765769e-19)
(0.19506692 -9.1079357e-05 5.5307858e-20)
(0.26495914 -3.1980325e-05 1.5980743e-18)
(0.2649649 -8.0945389e-05 2.1129219e-18)
(0.26497734 -0.00012905989 7.2302705e-19)
(0.26499568 -0.00018011622 7.7401059e-19)
(0.26501831 -0.00023081031 7.9954863e-19)
(0.26504088 -0.00028151807 7.3300854e-19)
(0.2650522 -0.00033186392 7.5479138e-19)
(0.2650253 -0.00038133727 6.890143e-19)
(0.26489816 -0.00042873842 3.9083517e-19)
(0.26452796 -0.00047209828 3.3183452e-19)
(0.26355413 -0.00050565096 1.2917401e-19)
(0.2608835 -0.00052167636 5.1487604e-20)
(0.25302971 -0.00046660631 1.5240002e-19)
(0.23282016 -0.00033188327 9.5707995e-20)
(0.19353413 -7.6303787e-05 8.1641806e-20)
(0.26571903 -3.1372765e-05 3.1021831e-18)
(0.26572475 -7.9390278e-05 2.5819758e-18)
(0.26573705 -0.00012657658 1.2396265e-19)
(0.26575498 -0.00017664472 1.0367333e-18)
(0.26577653 -0.00022633987 1.1421921e-18)
(0.26579644 -0.0002760185 5.890765e-19)
(0.26580163 -0.0003252772 5.3306049e-19)
(0.26576141 -0.00037355728 2.9477341e-19)
(0.26560652 -0.00041960061 -3.4596303e-20)
(0.26517878 -0.00046124612 -3.0159422e-20)
(0.26407657 -0.00049254343 7.6584412e-21)
(0.26108058 -0.00050445572 1.8007329e-19)
(0.25248384 -0.000439897 7.2969066e-20)
(0.23154421 -0.00030262987 -1.8315727e-20)
(0.19215888 -6.3609733e-05 1.2529041e-19)
(0.26646455 -3.0799673e-05 4.4418613e-18)
(0.26647021 -7.7919711e-05 2.4128384e-19)
(0.26648233 -0.00012422759 3.4893113e-18)
(0.26649975 -0.0001733593 1.9989695e-18)
(0.26652002 -0.00022210618 -5.892084e-19)
(0.26653688 -0.0002708044 9.8145412e-19)
(0.26653522 -0.00031902283 9.1586495e-19)
(0.26648042 -0.00036615421 8.9671844e-19)
(0.26629564 -0.00041087723 5.2102923e-19)
(0.26580617 -0.00045085191 -1.2436331e-19)
(0.26456508 -0.00047982866 3.9575761e-19)
(0.26121753 -0.00048726982 4.0952104e-19)
(0.25186982 -0.00041342264 2.8994434e-19)
(0.23031742 -0.00027443217 2.335333e-19)
(0.1909297 -5.2932835e-05 2.5532342e-19)
(0.26719653 -3.0263687e-05 4.3480357e-18)
(0.26720212 -7.6541023e-05 -9.2738196e-19)
(0.26721401 -0.00012202465 2.4230474e-18)
(0.26723083 -0.00017027641 1.5758372e-18)
(0.2672496 -0.00021813034 8.5686665e-19)
(0.26726299 -0.00026590165 1.3315918e-18)
(0.26725373 -0.0003131315 9.9212331e-19)
(0.26718309 -0.00035916374 1.0385262e-18)
(0.26696618 -0.00040260692 7.5753029e-19)
(0.26641044 -0.00044094906 2.4165134e-19)
(0.26501868 -0.00046753759 4.4103869e-19)
(0.26129202 -0.00047005901 2.7909662e-19)
(0.25119506 -0.00038738325 2.8021526e-19)
(0.2291461 -0.00024754677 2.254091e-19)
(0.18983455 -4.41451e-05 1.983959e-19)
(0.26791589 -2.9765992e-05 -2.3634474e-19)
(0.26792138 -7.5257933e-05 3.9465092e-19)
(0.26793299 -0.00011997376 3.8115642e-19)
(0.26794908 -0.00016740448 1.1002462e-18)
(0.26796613 -0.00021442313 1.5170779e-18)
(0.26797562 -0.00026132351 6.4871689e-19)
(0.267958 -0.00030761887 2.5316548e-19)
(0.26787018 -0.00035260382 1.7811727e-19)
(0.2676188 -0.00039480805 3.0001621e-19)
(0.2669918 -0.00043154706 8.6322569e-20)
(0.26543617 -0.00045566687 1.5355015e-20)
(0.2613021 -0.00045276643 1.036846e-19)
(0.2504687 -0.00036194908 2.803115e-20)
(0.22803501 -0.00022223217 -3.0276768e-20)
(0.18886112 -3.7064086e-05 -5.342884e-20)
(0.26862352 -2.9306383e-05 4.8949792e-18)
(0.2686289 -7.4070661e-05 1.7312122e-18)
(0.26864017 -0.00011807532 3.3109675e-18)
(0.26865542 -0.00016474412 2.7669544e-18)
(0.26867049 -0.00021098533 1.7476762e-18)
(0.26867563 -0.000257071 1.403921e-18)
(0.26864885 -0.00030248606 1.0439068e-18)
(0.26854251 -0.00034647515 7.3747055e-19)
(0.26825414 -0.00038747924 8.0629231e-19)
(0.26755035 -0.00042263245 -1.9088768e-19)
(0.2658161 -0.00044417905 3.4760026e-19)
(0.26124652 -0.00043534493 4.5701988e-19)
(0.24970133 -0.00033726333 2.9633198e-19)
(0.22698727 -0.00019871676 3.5490436e-19)
(0.18799711 -3.1466398e-05 2.1876439e-19)
(0.26932033 -2.8883461e-05 2.8645434e-18)
(0.26932558 -7.2976356e-05 1.2437576e-19)
(0.26933645 -0.00011632481 1.5004254e-18)
(0.26935072 -0.00016228909 2.1296397e-18)
(0.26936357 -0.0002078089 1.9451549e-18)
(0.26936389 -0.00025313433 1.3527842e-18)
(0.26932713 -0.0002977213 1.0412864e-18)
(0.26920083 -0.00034076321 8.278003e-19)
(0.2688728 -0.00038060158 6.3002829e-19)
(0.26808605 -0.00041417146 3.2077226e-19)
(0.26615679 -0.00043300583 4.507831e-19)
(0.26112496 -0.00041776402 3.9044205e-19)
(0.24890441 -0.00031344658 2.7372406e-19)
(0.22600436 -0.0001771726 3.0258639e-19)
(0.18723056 -2.7105585e-05 2.9767772e-19)
(0.27000719 -2.849491e-05 2.2521222e-18)
(0.27001228 -7.1969743e-05 3.6102876e-18)
(0.27002267 -0.00011471384 2.8982175e-18)
(0.27003582 -0.00016002771 2.3002135e-18)
(0.27004618 -0.00020487885 9.9170655e-19)
(0.27004119 -0.00024949516 1.4480226e-18)
(0.2699936 -0.00029330262 1.2664881e-18)
(0.26984584 -0.00033544136 9.768677e-19)
(0.26947524 -0.00037414208 5.8283319e-19)
(0.2685986 -0.00040611399 2.025584e-19)
(0.26645635 -0.00042205446 4.3350072e-19)
(0.2609383 -0.00040001523 2.8618056e-19)
(0.24808975 -0.00029060213 3.2167228e-19)
(0.22508629 -0.00015769827 2.0890441e-19)
(0.18655015 -2.3732127e-05 1.465084e-19)
(0.27068489 -2.8137825e-05 9.2567714e-18)
(0.2706898 -7.1043906e-05 3.6943029e-18)
(0.27069965 -0.00011323138 5.492166e-18)
(0.27071153 -0.00015794462 3.888663e-18)
(0.2707191 -0.00020217545 1.7754035e-18)
(0.27070829 -0.00024612933 2.2836522e-18)
(0.27064898 -0.00028920108 2.3049258e-18)
(0.27047818 -0.00033047455 1.5840533e-18)
(0.27006181 -0.00036805783 1.1172452e-18)
(0.26908753 -0.00039839812 -6.7699826e-20)
(0.26671278 -0.00041121648 6.1645407e-19)
(0.26068881 -0.00038211515 5.581868e-19)
(0.24726882 -0.00026882041 6.0032961e-19)
(0.22423175 -0.00014031231 5.4207421e-19)
(0.18594537 -2.1112145e-05 2.5000828e-19)
(0.27135418 -2.7809011e-05 2.4814096e-18)
(0.27135887 -7.0191041e-05 3.1905163e-18)
(0.2713681 -0.00011186497 3.5069961e-18)
(0.27137855 -0.00015602247 1.9357281e-18)
(0.27138303 -0.00019967637 2.1916348e-18)
(0.27136587 -0.00024300948 1.0490084e-18)
(0.27129391 -0.00028538386 1.3407176e-18)
(0.27109836 -0.000325823 7.4372102e-19)
(0.27063272 -0.00036230005 4.1860119e-19)
(0.26955206 -0.00039095432 1.6445159e-19)
(0.26692403 -0.00040037783 1.6257182e-19)
(0.26038022 -0.00036410564 3.8951057e-19)
(0.24645221 -0.00024818087 3.7077318e-19)
(0.22343841 -0.00012495718 3.2440564e-19)
(0.18540672 -1.9041829e-05 1.588984e-19)
(0.27201571 -2.7505236e-05 9.2087618e-19)
(0.27202015 -6.9403099e-05 3.353245e-18)
(0.27202866 -0.00011060176 2.913053e-18)
(0.27203751 -0.00015424331 1.9281152e-18)
(0.2720386 -0.00019735858 1.7484288e-18)
(0.27201452 -0.00024010733 9.8739811e-19)
(0.27192892 -0.00028181693 8.8823039e-19)
(0.2717068 -0.00032144525 9.1088631e-19)
(0.27118802 -0.00035681747 2.7065206e-19)
(0.2699912 -0.00038370884 3.4575962e-19)
(0.26708822 -0.000389429 2.0399172e-19)
(0.26001771 -0.00034605163 3.852746e-19)
(0.24564917 -0.00022875085 4.0859523e-19)
(0.22270325 -0.00011151161 4.1975965e-19)
(0.18492573 -1.7355841e-05 2.0908321e-19)
(0.27267005 -2.7223403e-05 2.4474367e-18)
(0.27267421 -6.8672269e-05 1.1608261e-18)
(0.27268192 -0.00010942927 1.3807148e-18)
(0.27268898 -0.00015258973 2.3817649e-18)
(0.27268634 -0.00019519966 2.2127346e-18)
(0.27265476 -0.00023739527 1.5358955e-18)
(0.27255447 -0.00027846699 1.1637109e-18)
(0.2723038 -0.00031730047 1.129572e-18)
(0.27172757 -0.00035155883 3.3817913e-19)
(0.27040369 -0.00037658611 6.3669181e-19)
(0.26720375 -0.00037827411 1.9823856e-19)
(0.25960771 -0.00032803713 4.05697e-19)
(0.24486735 -0.00021058183 3.0328893e-19)
(0.22202277 -9.9808134e-05 3.996696e-19)
(0.18449494 -1.5929482e-05 2.3261537e-19)
(0.27331772 -2.6960667e-05 2.2460843e-18)
(0.27332155 -6.7991274e-05 3.8181567e-18)
(0.27332837 -0.00010833587 3.5277522e-18)
(0.27333345 -0.00015104547 2.6003408e-18)
(0.27332673 -0.00019317869 1.4526165e-18)
(0.27328702 -0.00023484751 1.7071422e-18)
(0.27317093 -0.0002753027 1.5091644e-18)
(0.27288957 -0.00031334989 9.9858196e-19)
(0.27225107 -0.00034647442 5.340379e-19)
(0.27078808 -0.00036951039 5.4048296e-19)
(0.26726952 -0.00036683813 3.2140467e-19)
(0.25915765 -0.00031016019 3.1795702e-19)
(0.24411266 -0.00019370463 3.5455071e-19)
(0.22139331 -8.9652396e-05 3.8880018e-19)
(0.1841079 -1.4675686e-05 3.055118e-19)
(0.27395916 -2.6714475e-05 4.624507e-18)
(0.27396262 -6.7353542e-05 4.3469386e-18)
(0.27396843 -0.00010731104 4.27958e-18)
(0.27397134 -0.00014959583 3.8277976e-18)
(0.27396016 -0.00019127671 1.9384886e-18)
(0.27391168 -0.00023244055 2.4774927e-18)
(0.2737786 -0.00027229533 1.9027983e-18)
(0.27346419 -0.00030955757 1.5914291e-18)
(0.27275806 -0.00034151676 1.0980985e-18)
(0.27114274 -0.00036240704 3.3120886e-19)
(0.26728512 -0.00035507154 7.6639025e-19)
(0.25867552 -0.00029252747 6.9209449e-19)
(0.24338933 -0.0001781252 6.6859353e-19)
(0.22081116 -8.0841186e-05 6.5496374e-19)
(0.18375901 -1.3538664e-05 5.1046544e-19)
(0.27459475 -2.6482589e-05 8.9516886e-19)
(0.2745978 -6.675326e-05 4.9860561e-18)
(0.27460249 -0.0001063455 2.1389745e-18)
(0.274603 -0.0001482278 2.1390738e-18)
(0.27458699 -0.00018947691 2.7759981e-18)
(0.27452902 -0.00023015345 1.8027168e-18)
(0.27437767 -0.00026941895 1.2166966e-18)
(0.27402763 -0.00030589064 9.8241642e-19)
(0.27324789 -0.00033664079 7.6724016e-19)
(0.27146593 -0.0003552038 4.9819594e-19)
(0.26725094 -0.00034295249 2.9053015e-19)
(0.25816956 -0.00027524859 3.9569208e-19)
(0.24270004 -0.00016382253 3.8872407e-19)
(0.22027275 -7.3177103e-05 2.4944602e-19)
(0.18344349 -1.2486085e-05 2.5536752e-19)
(0.27522481 -2.6263072e-05 3.1159246e-18)
(0.27522741 -6.6185368e-05 4.5988665e-18)
(0.27523087 -0.00010543114 2.7217115e-18)
(0.27522875 -0.00014693 1.7472017e-18)
(0.27520748 -0.00018776456 2.5317618e-18)
(0.2751393 -0.00022796774 1.4960443e-18)
(0.27496829 -0.00026665041 1.453329e-18)
(0.27457978 -0.00030231921 7.0954217e-19)
(0.27371976 -0.0003318036 7.4817303e-19)
(0.27175586 -0.00034783257 5.4957948e-19)
(0.26716832 -0.00033048644 2.8066741e-19)
(0.25764777 -0.00025843059 3.4530415e-19)
(0.24204621 -0.00015074939 5.4282703e-19)
(0.21977469 -6.6478878e-05 2.7635246e-19)
(0.18315725 -1.1501417e-05 2.338033e-19)
(0.27584964 -2.6054261e-05 3.8096661e-18)
(0.27585173 -6.5645512e-05 1.3533257e-18)
(0.27585383 -0.00010456099 1.2621373e-18)
(0.27584885 -0.00014569263 2.1912516e-18)
(0.27582189 -0.00018612688 2.2835505e-18)
(0.2757427 -0.00022586725 1.424671e-18)
(0.27555053 -0.00026396905 1.1681024e-18)
(0.27512041 -0.00029881616 8.6595876e-19)
(0.27417268 -0.00032696406 7.6845493e-19)
(0.27201082 -0.00034023144 8.4432932e-19)
(0.26703956 -0.00031770398 4.653653e-19)
(0.25711762 -0.00024217267 4.1252056e-19)
(0.24142819 -0.0001388359 4.6165716e-19)
(0.21931381 -6.0587297e-05 3.9603789e-19)
(0.18289682 -1.0577466e-05 2.6211107e-19)
(0.27646948 -2.5854749e-05 5.0565061e-18)
(0.27647102 -6.5129981e-05 4.2333355e-18)
(0.27647162 -0.00010372909 3.8603156e-18)
(0.27646352 -0.00014450731 2.6757521e-18)
(0.2764304 -0.00018455289 1.1282126e-18)
(0.27633935 -0.00022383791 1.6570034e-18)
(0.27612438 -0.00026135649 1.1768213e-18)
(0.27564919 -0.00029535665 1.0449949e-18)
(0.27460555 -0.00032208226 9.2413993e-19)
(0.27222923 -0.0003323472 7.9302984e-19)
(0.26686787 -0.00030465719 6.1212308e-19)
(0.25658579 -0.00022656125 3.5546646e-19)
(0.2408456 -0.00012799525 4.0584472e-19)
(0.21888719 -5.5367361e-05 3.4266685e-19)
(0.18265925 -9.7115766e-06 2.4824767e-19)
(0.27708455 -2.5663344e-05 6.2331701e-18)
(0.27708548 -6.4635631e-05 4.6690549e-18)
(0.27708444 -0.0001029304 5.6731908e-18)
(0.27707295 -0.00014336686 4.0115313e-18)
(0.27703318 -0.00018303314 1.7194028e-18)
(0.27692935 -0.00022186743 2.4582053e-18)
(0.2766898 -0.00025879623 2.1001001e-18)
(0.27616569 -0.00029191777 1.4265309e-18)
(0.27501711 -0.00031711916 1.281573e-18)
(0.27240981 -0.00032413774 4.5611225e-19)
(0.26665728 -0.00029141517 8.6065476e-19)
(0.256058 -0.00021166603 9.6260893e-19)
(0.24029748 -0.00011813046 9.2776315e-19)
(0.21849214 -5.0707639e-05 7.6971967e-19)
(0.18244204 -8.9025309e-06 4.632219e-19)
(0.27769504 -2.5479044e-05 9.3060378e-19)
(0.27769529 -6.4159807e-05 4.2054542e-18)
(0.27769247 -0.00010216064 3.4227816e-18)
(0.27767729 -0.00014226521 2.4003653e-18)
(0.27763035 -0.0001815595 3.1228606e-18)
(0.27751275 -0.00021994503 1.7449546e-18)
(0.27724666 -0.00025627339 1.3218888e-18)
(0.27666938 -0.00028847797 8.8328021e-19)
(0.275406 -0.00031203634 8.2037459e-19)
(0.27255164 -0.0003155742 3.3781246e-19)
(0.26641246 -0.00027805925 3.4140055e-19)
(0.25553894 -0.0001975371 6.0899264e-19)
(0.23978254 -0.00010914112 6.1551211e-19)
(0.21812621 -4.6517859e-05 5.8376655e-19)
(0.18224308 -8.1488528e-06 3.3016562e-19)
(0.27830111 -2.5301005e-05 2.4846151e-18)
(0.27830062 -6.3700269e-05 4.6609058e-18)
(0.27829586 -0.0001014162 3.3107067e-18)
(0.2782767 -0.00014119716 2.6377559e-18)
(0.278222 -0.00018012493 3.0832392e-18)
(0.27808956 -0.00021806116 1.5408382e-18)
(0.2777948 -0.00025377436 1.2595342e-18)
(0.27715962 -0.0002850166 1.0685916e-18)
(0.27577079 -0.00030679609 5.8372264e-19)
(0.27265429 -0.00030664249 3.6025046e-19)
(0.26613848 -0.00026467813 4.6683922e-19)
(0.2550323 -0.00018420368 5.2827077e-19)
(0.23929925 -0.00010092916 4.2229733e-19)
(0.21778713 -4.2725644e-05 3.1955708e-19)
(0.18206056 -7.4481419e-06 3.0452869e-19)
(0.27890291 -2.5128516e-05 9.6558886e-20)
(0.27890162 -6.3255127e-05 2.0355268e-18)
(0.27889474 -0.00010069401 1.1343618e-18)
(0.27887126 -0.00014015826 2.8840132e-18)
(0.27880821 -0.00017872332 2.2831112e-18)
(0.27865976 -0.00021620724 1.3249764e-18)
(0.27833397 -0.00025128651 1.0820494e-18)
(0.27763569 -0.00028151345 9.9077773e-19)
(0.27611001 -0.00030136189 5.4104045e-19)
(0.2727179 -0.00029734386 8.2165305e-19)
(0.26584062 -0.00025136317 4.7362967e-19)
(0.25454084 -0.0001716744 5.893435e-19)
(0.23884602 -9.3403163e-05 3.3580415e-19)
(0.21747286 -3.9273088e-05 2.8753641e-19)
(0.18189296 -6.797033e-06 3.0879543e-19)
(0.27950056 -2.4960972e-05 -1.9578534e-18)
(0.2794984 -6.2822774e-05 3.4332539e-18)
(0.27948922 -9.9991432e-05 1.8507911e-18)
(0.27946108 -0.00013914466 1.1497845e-18)
(0.279389 -0.00017734922 1.8036435e-18)
(0.27922329 -0.00021437542 5.275837e-19)
(0.27886389 -0.00024879793 3.8559124e-19)
(0.27809674 -0.00027794828 1.6908221e-19)
(0.27642222 -0.00029569921 2.9927373e-19)
(0.27274323 -0.00028769474 7.2378391e-19)
(0.2655241 -0.00023820407 1.1451948e-19)
(0.25406651 -0.00015993913 -2.7284724e-20)
(0.23842119 -8.6481056e-05 -2.8350926e-20)
(0.21718151 -3.6113614e-05 7.7385109e-20)
(0.18173897 -6.1914743e-06 1.6228787e-19)
(0.28009418 -2.4797857e-05 1.8085231e-18)
(0.28009107 -6.2401834e-05 3.1849072e-18)
(0.28007941 -9.9306214e-05 3.6977672e-18)
(0.28004623 -0.00013815299 1.2868192e-18)
(0.27996442 -0.00017599777 1.5854201e-18)
(0.27978006 -0.00021255838 6.3909412e-19)
(0.2793842 -0.00024629715 5.51862e-19)
(0.27854186 -0.00027430051 1.4012196e-19)
(0.27670605 -0.00028977676 3.7142881e-19)
(0.27273166 -0.0002777256 6.8675675e-19)
(0.26519392 -0.00022528492 3.2473375e-19)
(0.25361059 -0.00014897207 5.0005065e-20)
(0.23802316 -8.0091237e-05 8.0552563e-20)
(0.21691137 -3.3209342e-05 1.7385393e-20)
(0.18159747 -5.6270987e-06 1.2683199e-19)
(0.28068388 -2.4638721e-05 4.5211411e-18)
(0.28067974 -6.1991114e-05 3.9868062e-18)
(0.28066539 -9.863637e-05 2.8902896e-18)
(0.28062676 -0.00013718022 1.8993398e-18)
(0.28053445 -0.00017466448 1.2813966e-18)
(0.28032993 -0.00021074911 1.077551e-18)
(0.27989449 -0.00024377295 5.1359211e-19)
(0.27897002 -0.0002705489 2.7417858e-19)
(0.27696025 -0.00028356786 4.4522036e-19)
(0.27268518 -0.00026747916 6.8582851e-19)
(0.26485469 -0.00021268093 2.8809846e-19)
(0.25317379 -0.00013873549 2.2423158e-19)
(0.23765034 -7.4172523e-05 4.5806365e-20)
(0.2166609 -3.0529034e-05 -1.153482e-20)
(0.18146749 -5.0995669e-06 7.9967626e-20)
(0.28126974 -2.4483172e-05 2.6949652e-18)
(0.28126449 -6.1589567e-05 6.3544597e-18)
(0.28124722 -9.7980136e-05 3.610423e-18)
(0.28120271 -0.00013622364 1.0865768e-18)
(0.28109907 -0.00017334514 5.0357387e-19)
(0.28087275 -0.00020894083 4.830044e-19)
(0.28039427 -0.00024121406 -3.489127e-19)
(0.27938014 -0.00026667151 -3.3253118e-19)
(0.27718382 -0.00027705191 -2.0069563e-19)
(0.27260633 -0.00025700812 -1.9642636e-20)
(0.26451052 -0.00020045587 -3.8466222e-19)
(0.25275643 -0.00012918379 -4.1064015e-19)
(0.23730122 -6.8673284e-05 -6.4410979e-19)
(0.21642866 -2.8046565e-05 -4.2494509e-19)
(0.18134818 -4.604814e-06 -1.0762606e-19)
(0.28185185 -2.4330856e-05 1.5975416e-18)
(0.28184539 -6.1196251e-05 4.5831477e-18)
(0.28182498 -9.7335907e-05 3.3161991e-18)
(0.28177412 -0.00013528067 7.8566143e-19)
(0.28165823 -0.00017203573 9.4633724e-19)
(0.2814083 -0.00020712677 2.8328097e-19)
(0.28088299 -0.00023860899 -3.0358181e-19)
(0.27977106 -0.0002626457 -3.0249587e-19)
(0.27737601 -0.00027021575 -1.7679413e-19)
(0.27249806 -0.00024637258 -2.3499058e-19)
(0.26416497 -0.00018866041 -5.3278138e-19)
(0.2523585 -0.00012026723 -5.9056303e-19)
(0.23697438 -6.3550136e-05 -5.7940202e-19)
(0.21621337 -2.5739822e-05 -3.1655679e-19)
(0.18123881 -4.1392065e-06 -9.6757802e-20)
(0.28243029 -2.4181448e-05 5.4329297e-18)
(0.28242252 -6.0810308e-05 4.0167955e-18)
(0.28239871 -9.6702198e-05 3.0199857e-18)
(0.28234099 -0.00013434892 1.8468131e-18)
(0.28221186 -0.00017073227 1.9781059e-18)
(0.28193636 -0.00020530013 9.9801625e-19)
(0.28136003 -0.00023594579 7.8853282e-19)
(0.2801416 -0.00025844846 5.658238e-19)
(0.27753642 -0.00026305462 4.95007e-19)
(0.27236366 -0.00023563726 -1.3138522e-19)
(0.26382105 -0.00017733137 1.6941765e-19)
(0.25197976 -0.00011193521 -1.3753294e-19)
(0.23666845 -5.8766503e-05 5.3710323e-21)
(0.21601387 -2.3589928e-05 1.901907e-20)
(0.1811387 -3.6996012e-06 1.5245026e-20)
(0.28300512 -2.4034648e-05 2.746869e-18)
(0.28299594 -6.0430938e-05 2.8856827e-18)
(0.28296845 -9.6077596e-05 3.2348397e-18)
(0.28290332 -0.00013342601 2.5656427e-18)
(0.28275987 -0.00016943078 1.9207139e-18)
(0.28245663 -0.00020345398 1.1972995e-18)
(0.28182471 -0.00023321186 8.0797464e-19)
(0.28049057 -0.00025405691 7.8141806e-19)
(0.27766504 -0.00025557285 3.6281648e-19)
(0.27220658 -0.00022486881 2.8459286e-19)
(0.26348123 -0.00016649192 3.5322266e-19)
(0.25161982 -0.00010413864 2.3137479e-19)
(0.23638216 -5.4291246e-05 1.9778511e-19)
(0.21582908 -2.1580669e-05 2.0232469e-20)
(0.18104728 -3.2833469e-06 -2.5020394e-20)
(0.2835764 -2.3890167e-05 6.1409046e-20)
(0.28356569 -6.0057379e-05 3.6759595e-18)
(0.28353424 -9.5460738e-05 3.6567502e-18)
(0.2834611 -0.00013250962 2.7520773e-18)
(0.28330215 -0.00016812719 1.9302648e-18)
(0.28296879 -0.00020158114 1.2716649e-18)