/*--------------------------------*- C++ -*----------------------------------*\
| =========                 |                                                 |
| \\      /  F ield         | OpenFOAM: The Open Source CFD Toolbox           |
|  \\    /   O peration     | Version:  2506                                  |
|   \\  /    A nd           | Website:  www.openfoam.com                      |
|    \\/     M anipulation  |                                                 |
\*---------------------------------------------------------------------------*/
FoamFile
{
    version     2.0;
    format      ascii;
    arch        "LSB;label=32;scalar=64";
    class       volScalarField;
    location    "14000/rock";
    object      T;
}
// * * * * * * * * * * * * * * * * * * * * * * * * * * * * * * * * * * * * * //

dimensions      [0 0 0 1 0 0 0];

internalField   nonuniform List<scalar> 
16000
(
317.74473
306.97411
301.15217
297.52487
295.06098
293.28749
291.95653
290.92554
290.10678
289.4433
288.89664
288.43985
288.05359
287.72357
287.43908
287.19191
286.97567
286.78534
286.6169
286.46712
286.33337
286.21347
286.10562
286.00833
285.92032
285.84053
285.76803
285.70205
285.64189
285.58697
285.53675
285.49077
285.4486
285.40985
285.37414
285.34107
285.31025
285.28117
285.25318
285.2252
320.42913
309.69907
303.48422
299.496
296.74658
294.75068
293.24467
292.07376
291.14138
290.38432
289.75956
289.23689
288.79446
288.41615
288.0898
287.80609
287.55777
287.33911
287.14554
286.97335
286.81954
286.68163
286.55756
286.4456
286.34432
286.25247
286.16902
286.09305
286.02379
285.96055
285.90273
285.8498
285.80125
285.75665
285.71556
285.67756
285.64218
285.6089
285.57707
285.5458
321.96346
311.70627
305.40793
301.22273
298.27649
296.10924
294.45939
293.16862
292.13607
291.29476
290.5986
290.01492
289.51998
289.09616
288.73011
288.41157
288.13251
287.88661
287.66877
287.47489
287.30162
287.14619
287.00631
286.88005
286.76579
286.66215
286.56797
286.48221
286.40402
286.33262
286.26734
286.20757
286.15278
286.10245
286.05613
286.01333
285.97358
285.93637
285.90108
285.86703
322.94662
313.21603
306.99035
302.72306
299.65337
297.36115
295.59748
294.20688
293.08794
292.17212
291.4116
290.77213
290.22862
289.7623
289.3589
289.00737
288.69906
288.42709
288.18596
287.97119
287.77912
287.60673
287.4515
287.31133
287.18443
287.06929
286.96461
286.86929
286.78235
286.70296
286.63037
286.56392
286.50301
286.44711
286.39569
286.34826
286.30434
286.2634
286.22493
286.18838
323.63751
314.38623
308.30133
304.0249
300.88734
298.50921
296.65877
295.18723
293.99534
293.01472
292.197
291.50711
290.91912
290.41348
289.97521
289.59266
289.25667
288.95992
288.69655
288.46175
288.25159
288.06284
287.89277
287.73911
287.59993
287.4736
287.35871
287.25405
287.15858
287.07139
286.99166
286.91868
286.85181
286.79047
286.7341
286.6822
286.63427
286.58982
286.54837
286.50947
324.15772
315.32118
309.40041
305.15806
301.99231
299.55941
297.64542
296.11001
294.85773
293.82167
292.9538
292.21888
291.59056
291.04883
290.57825
290.16673
289.80471
289.48454
289.20001
288.9461
288.71862
288.51414
288.32977
288.16308
288.01202
287.87483
287.75002
287.63629
287.53252
287.43772
287.35103
287.27169
287.19902
287.13238
287.07122
287.015
286.96322
286.91541
286.87113
286.83
324.56949
316.0888
310.33443
306.15008
302.98332
300.51954
298.56117
296.9768
295.67555
294.59281
293.68153
292.9068
292.24226
291.6677
291.1674
290.729
290.34265
290.00043
289.69592
289.42383
289.17983
288.9603
288.76219
288.58296
288.42043
288.27275
288.13833
288.01579
287.90395
287.80177
287.70831
287.62279
287.54447
287.4727
287.40689
287.34649
287.29101
287.23998
287.193
287.1497
324.90755
316.73386
311.13896
307.02472
303.87492
301.39804
299.41074
297.79004
296.44993
295.3285
294.38014
293.57061
292.87384
292.26964
291.7422
291.27901
290.87005
290.5072
290.18386
289.8946
289.6349
289.401
289.18976
288.99849
288.82492
288.66712
288.52342
288.39237
288.27271
288.16336
288.06334
287.97181
287.88801
287.81126
287.74095
287.67652
287.61747
287.56334
287.51374
287.46834
325.19275
317.28656
311.8408
307.80173
304.68038
302.20336
300.19928
298.55277
297.18257
296.02961
295.04996
294.21034
293.48513
292.85438
292.30233
291.81643
291.38656
291.00451
290.66354
290.35808
290.08352
289.83599
289.61221
289.40942
289.22528
289.05775
288.9051
288.76583
288.63862
288.52233
288.41596
288.31861
288.2295
288.14792
288.07326
288.00492
287.94242
287.8853
287.83317
287.78572
325.43843
317.76786
312.46012
308.49724
305.41138
302.94348
300.93202
299.26831
297.87549
296.69731
295.69163
294.82624
294.07617
293.42182
292.84761
292.34102
291.89194
291.49209
291.13467
290.81403
290.52547
290.26501
290.02932
289.81556
289.62129
289.44443
289.28319
289.136
289.00151
288.87852
288.766
288.66302
288.56878
288.48254
288.40365
288.33155
288.26571
288.20569
288.15111
288.10164
325.65362
318.1927
313.01227
309.12432
306.07799
303.62568
301.61403
299.94008
298.53092
297.33302
296.30599
295.4188
294.6472
293.97203
293.37798
292.85266
292.38601
291.96975
291.59706
291.26224
290.96051
290.68787
290.4409
290.21669
290.01277
289.827
289.65751
289.50272
289.36122
289.23178
289.11333
289.00492
288.90571
288.81496
288.732
288.65625
288.58718
288.52435
288.46737
288.41593
325.84464
318.57203
313.509
309.69355
306.6888
304.25653
302.2501
300.57146
299.15122
297.93831
296.89408
295.98865
295.19857
294.50519
293.89349
293.35131
292.86867
292.43736
292.05055
291.70253
291.38849
291.10439
290.84676
290.61266
290.39956
290.20528
290.02792
289.86584
289.71761
289.58196
289.45781
289.34416
289.24016
289.14505
289.05815
288.97887
288.90668
288.84112
288.78181
288.72842
326.01612
318.91402
313.95949
310.2135
307.25108
304.8418
302.84463
301.1657
299.7387
298.51481
297.457
296.53654
295.73076
295.02156
294.39429
293.83702
293.33992
292.89486
292.49504
292.13479
291.80927
291.51443
291.24677
291.00332
290.78152
290.57914
290.39427
290.22522
290.07054
289.92894
289.7993
289.68061
289.57199
289.47268
289.38198
289.29928
289.22406
289.15586
289.09427
289.03897
326.17152
319.22493
314.37095
310.69117
307.77098
305.38656
303.40163
301.72587
300.29566
299.0642
297.99596
297.06329
296.24433
295.52151
294.88059
294.3099
293.79978
293.34221
292.93048
292.55893
292.22275
291.91788
291.64081
291.38855
291.15851
290.94846
290.75643
290.58074
290.4199
290.27259
290.13768
290.01414
289.90109
289.79773
289.70335
289.61736
289.5392
289.46842
289.40461
289.34744
326.31348
319.50965
314.74913
311.13229
308.25371
305.89526
303.92472
302.25481
300.82428
299.58812
298.51216
297.5698
296.7399
296.00548
295.35268
294.77011
294.24834
293.77946
293.35686
292.97491
292.62887
292.31465
292.02878
291.76824
291.53044
291.31311
291.1143
290.93229
290.76556
290.6128
290.47284
290.34465
290.22733
290.12007
290.02216
289.93297
289.85197
289.77869
289.71271
289.6537
326.44407
319.77204
315.09868
311.5416
308.70366
306.37174
304.4171
302.75513
301.32662
300.08817
299.00683
298.05695
297.21814
296.47393
295.81088
295.21789
294.68574
294.20668
293.77418
293.38272
293.02757
292.70469
292.4106
292.14231
291.8972
291.67301
291.46777
291.27975
291.10742
290.94946
290.80467
290.67203
290.5506
290.43959
290.33827
290.24601
290.16226
290.08654
290.01844
289.95761
326.56495
320.01519
315.42337
311.92305
309.1246
306.81936
304.88167
303.22924
301.80463
300.56588
299.48116
298.52568
297.67973
296.92738
296.25556
295.65349
295.11215
294.62396
294.18252
293.78237
293.41885
293.08796
292.78623
292.51069
292.25872
292.02808
291.81676
291.62305
291.4454
291.28247
291.13308
290.99617
290.87081
290.7562
290.65159
290.55636
290.46994
290.39186
290.32169
290.25908
326.67744
320.24164
315.72633
312.27993
309.51971
307.24104
305.32099
303.67928
302.2601
301.02271
299.9363
298.97688
298.12538
297.36635
296.68712
296.07719
295.52777
295.03145
294.58195
294.17391
293.80272
293.46444
293.15563
292.87334
292.61496
292.37824
292.1612
291.96209
291.7794
291.61175
291.45796
291.31698
291.18786
291.06979
290.96202
290.86392
290.77493
290.69454
290.62235
290.558
326.78262
320.45345
316.01015
312.61502
309.89174
307.63932
305.73732
304.10724
302.69467
301.46001
300.37336
299.41144
298.55578
297.79139
297.10597
296.48931
295.93283
295.42931
294.97258
294.55739
294.17922
293.83415
293.5188
293.23022
292.96586
292.72345
292.50102
292.29683
292.10935
291.93722
291.77926
291.63438
291.50167
291.38027
291.26947
291.16861
291.07711
290.9945
290.92034
290.85426
326.88137
320.65235
316.27701
312.93069
310.24304
308.01645
306.13269
304.51488
303.10988
301.87908
300.79339
299.83023
298.97163
298.20305
297.51254
296.89017
296.32758
295.81771
295.35454
294.93292
294.54838
294.1971
293.87572
293.58133
293.31139
293.06366
292.83617
292.62719
292.43519
292.25882
292.09688
291.9483
291.81215
291.68757
291.57385
291.47032
291.37642
291.29164
291.21555
291.14778
326.97444
320.83978
316.52875
313.22895
310.57565
308.37436
306.50888
304.90381
303.50711
302.28109
301.1974
300.23405
299.37359
298.60186
297.90726
297.28011
296.71227
296.19686
295.72798
295.30058
294.91029
294.55333
294.22642
293.92666
293.65154
293.39884
293.16661
292.95313
292.75688
292.57649
292.41077
292.25867
292.11923
291.99162
291.87509
291.769
291.67276
291.58587
291.50791
291.43848
327.06245
321.01696
316.76691
313.51153
310.89134
308.71478
306.86751
305.27547
303.88764
302.66716
301.58632
300.62371
299.76231
298.98836
298.29056
297.65948
297.08718
296.56696
296.09304
295.66049
295.26502
294.90291
294.57092
294.26621
293.9863
293.72898
293.49233
293.27462
293.07435
292.89017
292.72088
292.56542
292.42285
292.29233
292.17311
292.06455
291.96606
291.87713
291.79733
291.72627
327.1459
321.18493
316.99286
313.77993
311.19165
309.03921
307.20999
305.63117
304.25264
303.03829
301.96104
300.99995
300.13843
299.36307
298.66286
298.02861
297.45259
296.92823
296.44991
296.01278
295.61266
295.24588
294.90927
294.60002
294.31567
294.05407
293.81328
293.59162
293.38758
293.19982
293.02714
292.8685
292.72295
292.58965
292.46786
292.35692
292.25626
292.16535
292.08376
292.0111
327.22526
321.34458
317.20773
314.03545
311.47794
309.34899
307.5376
305.97207
304.60317
303.39545
302.32237
301.36347
300.50254
299.7265
299.02459
298.38786
297.80876
297.28089
296.79875
296.35759
295.95331
295.58233
295.24151
294.9281
294.63968
294.3741
294.12947
293.90412
293.69654
293.5054
293.32953
293.16787
293.01949
292.88354
292.75928
292.64606
292.54329
292.45046
292.36712
292.29289
327.30089
321.49667
317.41254
314.2792
311.75138
309.64529
307.85146
306.29925
304.9402
303.73949
302.67108
301.71494
300.85522
300.07912
299.37615
298.73756
298.15599
297.62518
297.13975
296.69506
296.2871
295.91234
295.56771
295.25051
294.95834
294.68909
294.4409
294.21209
294.0012
293.80689
293.62801
293.46349
293.31241
293.17393
293.04731
292.93189
292.82709
292.7324
292.64736
292.57159
327.37313
321.64188
317.60815
314.5122
312.01303
309.92918
308.15261
306.61366
305.26461
304.07121
303.00789
302.055
301.19701
300.42141
299.71794
299.07805
298.49455
297.96131
297.47309
297.02534
296.61413
296.236
295.88794
295.56728
295.27168
294.99906
294.74756
294.51554
294.30155
294.10427
293.92254
293.75532
293.60168
293.46079
293.33191
293.21439
293.10763
293.01113
292.92444
292.84715
327.44225
321.78077
317.79533
314.73531
312.26382
310.20159
308.44196
306.91618
305.57722
304.39136
303.33346
302.38422
301.52842
300.75381
300.05034
299.40965
298.82471
298.28953
297.79897
297.34859
296.93453
296.55341
296.20226
295.87848
295.57975
295.30402
295.04946
294.81447
294.59758
294.39752
294.21311
294.04334
293.88727
293.74409
293.61305
293.4935
293.38486
293.28661
293.19829
293.11952
327.50851
321.91386
317.97475
314.9493
312.50455
310.46335
308.72032
307.20759
305.87877
304.70062
303.64841
302.70316
301.84995
301.07675
300.37372
299.73267
299.14674
298.61004
298.11756
297.66495
297.24842
296.86466
296.51076
296.18416
295.88258
295.604
295.34664
295.10888
294.8893
294.68662
294.49971
294.32752
294.16915
294.02379
293.89068
293.76919
293.65873
293.55878
293.46889
293.38867
327.57212
322.0416
318.147
315.15487
312.73598
310.71522
308.98845
307.48861
306.16992
304.99961
303.9533
303.01234
302.16205
301.39063
300.68843
300.04744
299.4609
298.92309
298.42907
297.97459
297.55593
297.16986
296.81352
296.48439
296.18023
295.89905
295.6391
295.39879
295.1767
294.97159
294.78231
294.60785
294.44731
294.29987
294.16479
294.04144
293.92922
293.82763
293.73621
293.65455
327.63328
322.16439
318.31263
315.35261
312.95876
310.95788
309.24701
307.7599
306.45131
305.28891
304.24868
303.31224
302.46516
301.69585
300.99482
300.35423
299.76746
299.22888
298.73367
298.27765
297.8572
297.46913
297.11063
296.77923
296.47274
296.1892
295.92688
295.68421
295.4598
295.25241
295.06092
294.88433
294.72172
294.57231
294.43535
294.31021
294.1963
294.09312
294.0002
293.91714
327.69216
322.28258
318.47209
315.54309
313.17347
311.19193
309.49662
308.02204
306.72349
305.56905
304.53503
303.60331
302.75969
301.99276
301.29321
300.65334
300.06665
299.52763
299.03155
298.57431
298.15236
297.76256
297.40218
297.06877
296.76019
296.4745
296.21001
295.96517
295.73861
295.5291
295.33554
295.15693
294.99238
294.84109
294.70234
294.57549
294.45996
294.35523
294.26085
294.17642
327.74891
322.39649
318.62581
315.72678
313.38065
311.41792
309.73783
308.27558
306.987
305.84054
304.81282
303.88598
303.04602
302.28171
301.58391
300.94504
300.35873
299.81956
299.32289
298.86471
298.44153
298.05028
297.68825
297.35307
297.04262
296.755
296.48853
296.24169
296.01315
295.80167
295.60617
295.42567
295.25928
295.10622
294.96575
294.83726
294.72016
294.61394
294.51814
294.43236
327.80368
322.50641
318.77417
315.90413
313.58079
311.63636
309.97114
308.52102
307.2423
306.10382
305.08247
304.16063
303.3245
302.56303
301.86721
301.22959
300.64391
300.10486
299.60787
299.14901
298.72485
298.33238
297.96895
297.63222
297.3201
297.03074
296.76247
296.51381
296.28343
296.07013
295.87282
295.69055
295.52242
295.36767
295.22558
295.09551
294.9769
294.86923
294.77205
294.68495
327.8566
322.61259
318.91752
316.07554
313.77431
311.8477
310.19701
308.7588
307.48985
306.35931
305.34438
304.42765
303.5955
302.83704
302.1434
301.50725
300.92243
300.38373
299.88666
299.42736
299.00245
298.60899
298.24437
297.90629
297.59271
297.30178
297.03189
296.78157
296.54949
296.3345
296.13551
295.95156
295.78181
295.62546
295.48181
295.35023
295.23016
295.12109
295.02256
294.93417
327.90777
322.71527
319.05615
316.24137
313.9616
312.05235
310.41587
308.98936
307.73004
306.60741
305.59892
304.68736
303.85931
303.10401
302.41273
301.77825
301.19451
300.65637
300.15943
299.6999
299.27446
298.88022
298.51461
298.17537
297.8605
297.56818
297.29683
297.04498
296.81136
296.5948
296.39424
296.20874
296.03744
295.87957
295.73444
295.60143
295.47996
295.36953
295.26968
295.18003
327.9573
322.81465
319.19036
316.40195
314.14304
312.25069
310.62809
309.21306
307.96325
306.84848
305.84643
304.94011
304.11625
303.36424
302.67547
302.04283
301.46034
300.92295
300.42635
299.96679
299.54101
299.14617
298.77976
298.43954
298.12354
297.83
297.55733
297.30411
297.06907
296.85106
296.64904
296.46208
296.28933
296.13003
295.98349
295.84909
295.72627
295.61452
295.5134
295.4225
328.00529
322.91093
319.3204
316.55758
314.31894
312.44306
310.83403
309.43027
308.18983
307.08284
306.08723
305.18618
304.36659
303.61798
302.93185
302.30119
301.72012
301.18367
300.68757
300.22815
299.80222
299.40696
299.03991
298.69888
298.38192
298.08729
297.81345
297.55899
297.32265
297.10331
296.89994
296.71161
296.53749
296.37684
296.22895
296.09323
295.96911
295.85609
295.75372
295.6616
328.05181
323.00428
319.44649
316.70853
314.4896
312.62978
311.03402
309.64131
308.4101
307.31082
306.32162
305.42587
304.6106
303.86548
303.18211
302.55357
301.97406
301.43868
300.94325
300.48414
300.05821
299.66269
299.29516
298.95347
298.63569
298.34013
298.06524
297.80966
297.57214
297.35158
297.14695
296.95734
296.78195
296.62
296.47084
296.33385
296.20847
296.09422
295.99064
295.89732
328.09696
323.09486
319.56887
316.85505
314.65531
312.81114
311.22835
309.84647
308.62436
307.53271
306.54988
305.65943
304.84854
304.10697
303.42645
302.80014
302.22232
301.68817
301.19354
300.73489
300.30911
299.91348
299.54561
299.2034
298.88494
298.58857
298.31276
298.05618
297.81759
297.59589
297.3901
297.19931
297.0227
296.85955
296.70917
296.57096
296.44438
296.32893
296.22416
296.12968
328.14081
323.18281
319.68771
316.99737
314.81631
312.9874
311.4173
310.04605
308.83288
307.74876
306.77227
305.88712
305.08063
304.34268
303.66509
303.04111
302.46509
301.93228
301.43859
300.98053
300.55503
300.15942
299.79135
299.44874
299.12973
298.83267
298.55606
298.29858
298.05902
297.8363
297.62943
297.43753
297.25979
297.09548
296.94395
296.80458
296.67683
296.56022
296.4543
296.35867
328.18341
323.26827
319.80319
317.1357
314.97284
313.15883
311.60112
310.24029
309.03592
307.95924
306.98903
306.10918
305.3071
304.57282
303.89823
303.27665
302.70253
302.17117
301.67853
301.22118
300.79608
300.40062
300.03248
299.68959
299.37015
299.0725
298.7952
298.53693
298.29649
298.07283
297.86497
297.67204
297.49323
297.32784
297.1752
297.03471
296.90585
296.78812
296.68107
296.58432
328.22483
323.35137
319.91549
317.27024
315.12511
313.32563
311.78004
310.42943
309.23371
308.16437
307.2004
306.32581
305.52817
304.79758
304.12604
303.50695
302.93481
302.40499
301.91351
301.45696
301.03239
300.63719
300.26907
299.92603
299.60625
299.30813
299.03023
298.77126
298.53004
298.30552
298.09675
297.90286
297.72305
297.55663
297.40294
297.26139
297.13144
297.01262
296.90448
296.80662
328.26514
323.43222
320.02476
317.40116
315.27332
313.48803
311.9543
310.6137
309.42648
308.36439
307.40658
306.53723
305.74401
305.01715
304.3487
303.73215
303.16207
302.63387
302.14364
301.68801
301.26405
300.86921
300.50123
300.15813
299.83812
299.53962
299.26122
299.00164
298.75972
298.53442
298.32481
298.13002
297.94928
297.78189
297.6272
297.48462
297.35364
297.23376
297.12455
297.02561
328.30437
323.51091
320.13113
317.52863
315.41765
313.64622
312.12409
310.7933
309.61444
308.55949
307.60778
306.74363
305.95484
305.2317
304.56638
303.95243
303.38447
302.85797
302.36907
301.91443
301.49118
301.09679
300.72904
300.38597
300.06582
299.76703
299.48822
299.2281
298.98556
298.75957
298.54918
298.35356
298.17195
298.00363
297.84799
297.70444
297.57245
297.45155
297.3413
297.2413
328.34258
323.58756
320.23474
317.6528
315.55827
313.80038
312.2896
310.96842
309.79778
308.74986
307.80418
306.94519
306.16081
305.44142
304.77925
304.16793
303.60215
303.07741
302.5899
302.13635
301.71388
301.32003
300.95259
300.60963
300.28943
299.99044
299.71128
299.45072
299.20763
298.981
298.7699
298.57352
298.39108
298.2219
298.06535
297.92086
297.7879
297.66601
297.55474
297.45371
328.37982
323.66224
320.3357
317.77382
315.69534
313.95068
312.451
311.13926
309.97668
308.93568
307.99596
307.14209
306.36209
305.64644
304.98745
304.3788
303.81523
303.29231
302.80627
302.35385
301.93225
301.53901
301.17196
300.8292
300.50902
300.2099
299.93048
299.66954
299.42596
299.19876
298.98702
298.78992
298.60672
298.43672
298.27931
298.13391
298.00002
297.87716
297.7649
297.66285
328.41612
323.73505
320.43413
317.89181
315.82901
314.09728
312.60847
311.30597
310.15131
309.11714
308.18329
307.33449
306.55885
305.84694
305.19113
304.58517
304.02386
303.5028
303.01827
302.56706
302.14639
301.75383
301.38724
301.04474
300.72465
300.42547
300.14586
299.8846
299.64061
299.4129
299.20058
299.00282
298.81889
298.64812
298.48988
298.34363
298.20883
298.08504
297.97181
297.86877
328.45153
323.80606
320.53013
318.00691
315.95942
314.24033
312.76215
311.46871
310.32183
309.29437
308.36633
307.52255
306.75123
306.04305
305.39043
304.78718
304.22815
303.709
303.22603
302.77608
302.35639
301.96457
301.59851
301.25634
300.93641
300.63723
300.35749
300.09598
299.85163
299.62347
299.4106
299.21224
299.02763
298.85613
298.69711
298.55003
298.41436
298.28966
298.17549
298.07147
328.48608
323.87534
320.6238
318.11923
316.08669
314.37996
312.91219
311.62763
310.4884
309.46754
308.54522
307.7064
306.93938
306.2349
305.58547
304.98494
304.42822
303.91101
303.42965
302.981
302.56235
302.17133
301.80585
301.46407
301.14435
300.84524
300.56542
300.30372
300.05906
299.8305
299.61715
299.41822
299.23299
299.06079
298.90103
298.75315
298.61665
298.49106
298.37597
298.27099
328.5198
323.94296
320.71524
318.22887
316.21094
314.5163
313.05872
311.78288
310.65114
309.63678
308.7201
307.88618
307.12342
306.42263
305.77638
305.17859
304.62419
304.10894
303.62922
303.18192
302.76436
302.37418
302.00933
301.66799
301.34855
301.04955
300.76971
300.50787
300.26296
300.03405
299.82026
299.62081
299.43499
299.26214
299.10166
298.95302
298.81571
298.68926
298.57328
298.46736
328.55272
324.00899
320.80451
318.33594
316.33229
314.64947
313.20188
311.93457
310.8102
309.80223
308.89111
308.06203
307.30349
306.60636
305.96328
305.36822
304.81617
304.30291
303.82485
303.37894
302.96249
302.57321
302.20904
301.86819
301.54907
301.25024
300.97043
300.70849
300.46338
300.23415
300.01997
299.82004
299.63367
299.4602
299.29905
299.14967
299.01158
298.8843
298.76744
298.6606
328.58489
324.07347
320.89172
318.44052
316.45084
314.77959
313.34177
312.08283
310.9657
309.96401
309.05837
308.23408
307.47971
306.78621
306.14629
305.55397
305.00426
304.493
304.01664
303.57214
303.15685
302.76849
302.40505
302.06473
301.74597
301.44736
301.16762
300.90563
300.66035
300.43087
300.21633
300.01596
299.82908
299.65503
299.49323
299.34315
299.20429
299.07621
298.95849
298.85074
328.61631
324.13648
320.97692
318.54271
316.5667
314.90676
313.47852
312.22779
311.11775
310.12224
309.222
308.40242
307.65218
306.9623
306.32552
305.73592
305.18856
304.67932
304.20467
303.7616
303.34751
302.96011
302.59743
302.25769
301.93933
301.64097
301.36135
301.09935
300.85395
300.62424
300.40938
300.20861
300.02124
299.84664
299.68423
299.53347
299.39388
299.26501
299.14645
299.03783
328.64703
324.19806
321.06019
318.6426
316.67994
315.03109
313.61222
312.36954
311.26648
310.27704
309.38211
308.56719
307.82103
307.13472
306.50106
305.91417
305.36918
304.86196
304.38904
303.94743
303.53455
303.14814
302.78625
302.44712
302.1292
301.83113
301.55167
301.28969
301.04421
300.81431
300.59917
300.39803
300.21022
300.03509
299.87209
299.72068
299.58038
299.45075
299.33137
299.22188
328.67705
324.25826
321.1416
318.74025
316.79067
315.15267
313.74299
312.5082
311.41197
310.42851
309.53881
308.72848
307.98635
307.30358
306.67302
306.08884
305.54619
305.041
304.56982
304.12969
303.71804
303.33266
302.97158
302.63309
302.31566
302.01791
301.73863
301.47672
301.23119
301.00114
300.78574
300.58427
300.39603
300.22042
300.05685
299.90482
299.76383
299.63345
299.51328
299.40293
328.70642
324.31712
321.22121
318.83575
316.89896
315.27158
313.8709
312.64385
311.55435
310.57675
309.6922
308.8864
308.14825
307.46898
306.84149
306.26
305.7197
305.21654
304.74711
304.30847
303.89808
303.51373
303.1535
302.81568
302.49875
302.20136
301.9223
301.66049
301.41493
301.18476
300.96914
300.76736
300.57873
300.40265
300.23855
300.08591
299.94426
299.81316
299.69221
299.58103
328.73514
324.3747
321.29908
318.92917
317.00489
315.38791
313.99606
312.7766
311.69369
310.72186
309.84237
309.04103
308.30682
307.63101
307.00657
306.42775
305.88978
305.38866
304.92098
304.48383
304.07472
303.69143
303.33207
302.99494
302.67854
302.38153
302.10272
301.84103
301.59549
301.36522
301.14941
300.94735
300.75836
300.58184
300.41722
300.264
300.12171
299.9899
299.86819
299.75619
328.76324
324.43102
321.37525
319.02056
317.10854
315.50175
314.11854
312.90653
311.83009
310.86393
309.98943
309.19248
308.46214
307.78976
307.16834
306.59217
306.05653
305.55743
305.09151
304.65587
304.24804
303.86583
303.50736
303.17094
302.85509
302.55849
302.27996
302.01842
301.77291
301.54257
301.3266
301.12428
300.93495
300.75801
300.59291
300.43913
300.29621
300.16372
300.04126
299.92846
328.79074
324.48614
321.4498
319.11
317.20998
315.61317
314.23844
313.03372
311.96364
311.00305
310.13345
309.34083
308.61432
307.94531
307.32688
306.75335
306.22002
305.72294
305.25877
304.82465
304.41811
304.03699
303.67942
303.34373
303.02846
302.7323
302.45406
302.19269
301.94725
301.71686
301.50075
301.2982
301.10855
300.93122
300.76564
300.61133
300.4678
300.33464
300.21145
300.09787
328.81765
324.54008
321.52276
319.19754
317.30927
315.72223
314.35581
313.15826
312.09441
311.13929
310.27451
309.48616
308.76342
308.09776
307.48228
306.91136
306.38032
305.88526
305.42284
304.99024
304.58499
304.20498
303.84832
303.51339
303.19871
302.90299
302.62507
302.36391
302.11855
301.88814
301.67191
301.46915
301.27921
301.1015
300.93547
300.78063
300.63652
300.50271
300.37881
300.26445
328.844
324.59289
321.59418
319.28323
317.40648
315.82902
314.47074
313.28021
312.22249
311.27275
310.41271
309.62855
308.90954
308.24717
307.63462
307.06628
306.53752
306.04446
305.58379
305.1527
304.74876
304.36985
304.01413
303.67996
303.36589
303.07064
302.79306
302.53211
302.28685
302.05644
301.84011
301.63716
301.44695
301.26888
301.10243
300.94709
300.80241
300.66796
300.54337
300.42825
328.8698
324.64459
321.6641
319.36714
317.50166
315.93359
314.58329
313.39966
312.34795
311.40348
310.54811
309.76809
309.05274
308.39363
307.78397
307.21819
306.69169
306.20061
305.74168
305.31211
304.90948
304.53168
304.1769
303.8435
303.53006
303.23529
302.95806
302.69735
302.45221
302.22182
302.00542
301.80229
301.61182
301.43342
301.26656
301.11073
300.9655
300.83044
300.70516
300.5893
328.89506
324.69522
321.73258
319.44931
317.59488
316.03601
314.69354
313.51666
312.47085
311.53158
310.6808
309.90484
309.1931
308.5372
307.93039
307.36714
306.84289
306.35378
305.89659
305.46853
305.0672
304.69053
304.33668
304.00407
303.69126
303.397
303.12014
302.85967
302.61468
302.38433
302.16786
301.96458
301.77387
301.59515
301.42789
301.2716
301.12583
300.99017
300.86422
300.74763
328.9198
324.7448
321.79965
319.52979
317.68619
316.13633
314.80154
313.63129
312.59128
311.6571
310.81083
310.03887
309.33069
308.67796
308.07397
307.51323
306.99119
306.50404
306.04857
305.62201
305.22199
304.84644
304.49355
304.16173
303.84957
303.55581
303.27934
303.01914
302.7743
302.54399
302.32748
302.12407
301.93314
301.75412
301.58648
301.42973
301.28344
301.14719
301.02059
300.90329
328.94404
324.79338
321.86534
319.60863
317.77563
316.23462
314.90735
313.74361
312.70928
311.78011
310.93827
310.17025
309.46558
308.81597
308.21476
307.65649
307.13665
306.65145
306.19769
305.77263
305.37391
304.99948
304.64755
304.31652
304.00502
303.71178
303.4357
303.17578
302.93111
302.70087
302.48433
302.2808
302.08966
301.91035
301.74235
301.58517
301.43837
301.30154
301.1743
301.0563
328.96779
324.84096
321.9297
319.68587
317.86327
316.33092
315.01103
313.85368
312.82493
311.90068
311.0632
310.29905
309.59783
308.9513
308.35284
307.79701
307.27935
306.79607
306.34401
305.92044
305.52302
305.14971
304.79873
304.46851
304.15767
303.86496
303.58929
303.32965
303.08516
302.85501
302.63844
302.43481
302.24348
302.0639
301.89555
301.73794
301.59065
301.45326
301.3254
301.20671
328.99106
324.88758
321.99277
319.76156
317.94914
316.42529
315.11264
313.96155
312.93829
312.01887
311.18566
310.42533
309.72751
309.08401
308.48826
307.93485
307.41933
306.93796
306.48759
306.0655
305.66937
305.29718
304.94716
304.61774
304.30757
304.0154
303.74014
303.4808
303.2365
303.00644
302.78987
302.58614
302.39464
302.2148
302.04611
301.8881
301.74033
301.60239
301.47392
301.35456
329.01387
324.93327
322.05457
319.83572
318.0333
316.51777
315.21223
314.06729
313.0494
312.13472
311.30573
310.54914
309.85467
309.21416
308.62108
308.07005
307.55666
307.07718
306.62848
306.20786
305.81302
305.44194
305.09287
304.76427
304.45476
304.16314
303.8883
303.62927
303.38518
303.15521
302.93866
302.73484
302.54317
302.36309
302.19408
302.03567
301.88743
301.74897
301.61989
301.49987
329.03622
324.97805
322.11513
319.90841
318.11578
316.60842
315.30984
314.17094
313.15833
312.24831
311.42346
310.67056
309.97937
309.34181
308.75136
308.20269
307.69139
307.21378
306.76673
306.34758
305.95401
305.58405
305.23594
304.90814
304.59931
304.30823
304.03382
303.77511
303.53122
303.30137
303.08483
302.88095
302.68913
302.50881
302.33949
302.1807
302.03201
301.89302
301.76336
301.64268
329.05813
325.02194
322.1745
319.97966
318.19663
316.69728
315.40554
314.27255
313.26512
312.35969
311.5389
310.78962
310.10168
309.46702
308.87916
308.33281
307.82359
307.34782
306.90241
306.4847
306.09241
305.72355
305.37639
305.04941
304.74125
304.45072
304.17674
303.91835
303.67469
303.44496
303.22845
303.02451
302.83254
302.652
302.48238
302.32322
302.17408
302.03459
301.90435
301.78304
329.0796
325.06496
322.23269
320.04951
318.27588
316.7844
315.49935
314.37217
313.36984
312.4689
311.6521
310.90639
310.22164
309.58983
309.00453
308.46047
307.9533
307.47936
307.03557
306.61929
306.22826
305.8605
305.51429
305.18811
304.88063
304.59065
304.31711
304.05906
303.81562
303.58602
303.36955
303.16555
302.97345
302.7927
302.62279
302.46327
302.31371
302.17371
302.04292
301.92098
329.10066
325.10714
322.28974
320.11798
318.35359
316.86981
315.59134
314.46986
313.47252
312.576
311.76313
311.02092
310.3393
309.7103
309.12752
308.58572
308.08057
307.60844
307.16625
306.75139
306.36161
305.99494
305.64967
305.3243
305.0175
304.72808
304.45498
304.19726
303.95405
303.72459
303.50816
303.30413
303.1119
302.93094
302.76076
302.60089
302.45091
302.31043
302.17908
302.05653
329.1213
325.14849
322.34568
320.18512
318.42978
316.95355
315.68154
314.56565
313.57322
312.68103
311.87202
311.13325
310.45472
309.82849
309.24819
308.70862
308.20546
307.73511
307.29451
306.88106
306.49251
306.12692
305.78259
305.45803
305.1519
304.86303
304.59038
304.33299
304.09003
303.8607
303.64433
303.44027
303.24793
303.06678
302.89632
302.73611
302.58572
302.44477
302.31288
302.18973
329.14154
325.18904
322.40052
320.25095
318.50448
317.03567
315.76999
314.65959
313.67197
312.78405
311.97882
311.24345
310.56795
309.94444
309.36659
308.82921
308.32801
307.85942
307.42039
307.00833
306.62101
306.2565
305.9131