/*--------------------------------*- C++ -*----------------------------------*\
| =========                 |                                                 |
| \\      /  F ield         | OpenFOAM: The Open Source CFD Toolbox           |
|  \\    /   O peration     | Version:  2506                                  |
|   \\  /    A nd           | Website:  www.openfoam.com                      |
|    \\/     M anipulation  |                                                 |
\*---------------------------------------------------------------------------*/
FoamFile
{
    version     2.0;
    format      ascii;
    arch        "LSB;label=32;scalar=64";
    class       volScalarField;
    location    "11000/water";
    object      alphat;
}
// * * * * * * * * * * * * * * * * * * * * * * * * * * * * * * * * * * * * * //

dimensions      [1 -1 -1 0 0 0 0];

internalField   nonuniform List<scalar> 
2600
(
0.040489031
0.04048893
0.040488932
0.040488969
0.04048893
0.040488424
0.040485257
0.04046703
0.040362559
0.039762099
0.036475623
0.024118064
0.014862723
0.039376404
0.039376463
0.039376584
0.03937667
0.03937627
0.039373342
0.039357935
0.03928206
0.038918252
0.037247647
0.030707814
0.017504579
0.016810247
0.03845331
0.038453299
0.038453385
0.038453188
0.038451259
0.038441479
0.038397507
0.038208927
0.037432867
0.034484227
0.025768479
0.01464355
0.017680736
0.037674097
0.037673994
0.037673876
0.037672833
0.03766736
0.037643826
0.037549741
0.037190974
0.035896577
0.031717985
0.022022178
0.013507107
0.017935556
0.037006829
0.037006634
0.03700605
0.037003229
0.036991211
0.03694503
0.036777672
0.036201229
0.034343725
0.029136321
0.019390213
0.01332192
0.01787019
0.036428097
0.036427705
0.036426239
0.036420305
0.036397905
0.036319194
0.03605724
0.035231095
0.03281421
0.026833154
0.017684561
0.01376901
0.017658004
0.035920433
0.035919673
0.03591673
0.035905979
0.035868817
0.035747845
0.035374204
0.034281783
0.031338745
0.024847734
0.016751764
0.014701365
0.017395975
0.035470606
0.03546924
0.035464057
0.035446499
0.035390052
0.035218253
0.034721129
0.033357857
0.029935921
0.02320089
0.016491475
0.016024754
0.017137191
0.035068412
0.03506614
0.035057811
0.035031314
0.034951338
0.034722033
0.034094772
0.032463227
0.028616047
0.021918168
0.016839593
0.01764423
0.016909598
0.034705855
0.034702323
0.034689851
0.034652315
0.034545228
0.034254009
0.03349406
0.031599319
0.027389013
0.021039007
0.017742707
0.01944683
0.016725717
0.034376582
0.0343714
0.034353768
0.03430331
0.034166516
0.033811296
0.032918608
0.030765036
0.026274288
0.020612421
0.019134169
0.021310298
0.0165878
0.034075484
0.034068256
0.034044512
0.033979658
0.033811775
0.033392551
0.032367695
0.029958513
0.025310237
0.020682514
0.02092045
0.023125093
0.01649134
0.03379842
0.033788771
0.033758129
0.033677993
0.033478994
0.032997353
0.031839672
0.029180919
0.024557973
0.021270679
0.022983308
0.024813263
0.016428198
0.033542011
0.033529635
0.033491576
0.033396025
0.033167279
0.032625685
0.031331905
0.02844226
0.024095308
0.02236241
0.02519592
0.026333969
0.016389375
0.033303501
0.033288203
0.033242589
0.033132389
0.0328766
0.032277488
0.030841496
0.027768047
0.024001078
0.023903802
0.027443847
0.027676786
0.016366908
0.033080659
0.033062404
0.03300959
0.032886524
0.032607559
0.031952311
0.030367144
0.027204004
0.02433601
0.025808536
0.029640409
0.028850257
0.01635471
0.032871707
0.032850677
0.032791627
0.032658586
0.032361164
0.031649138
0.029912405
0.026815113
0.025128026
0.027972561
0.031731261
0.029871995
0.016348606
0.032675278
0.032651931
0.032588332
0.032449362
0.032138606
0.031366538
0.029490156
0.026676983
0.02636662
0.030291378
0.033689748
0.030762439
0.016345973
0.032490392
0.032465523
0.0323999
0.032260198
0.031941021
0.031103392
0.02912715
0.026861559
0.028006318
0.032674378
0.035508202
0.031541613
0.016345289
0.03231644
0.032291251
0.032227075
0.032092906
0.0317693
0.030860474
0.028866522
0.027422392
0.02997661
0.035052625
0.037189756
0.032227633
0.016345749
0.032153193
0.032129365
0.032071151
0.03194966
0.031623986
0.030643052
0.028765901
0.028384666
0.032194873
0.037379728
0.038742713
0.032836119
0.016346971
0.032000817
0.031980587
0.031933965
0.031832869
0.031505423
0.030464306
0.028890209
0.029742268
0.034578895
0.039628039
0.040177388
0.03338011
0.016348812
0.031859898
0.031846136
0.031817892
0.031745018
0.031414332
0.030348688
0.029300795
0.031461309
0.037056243
0.041783221
0.041504536
0.033870256
0.016351246
0.031731488
0.031727775
0.031725824
0.031688525
0.031353059
0.030333689
0.030044463
0.033487924
0.03956915
0.043839374
0.042734578
0.034315152
0.016354289
0.031617156
0.031627852
0.031661123
0.031665646
0.031327616
0.030468391
0.031145811
0.035757862
0.042075207
0.045795593
0.043877212
0.034721702
0.016357969
0.031519059
0.031549348
0.031627545
0.031678558
0.031350386
0.030808116
0.032604584
0.038205563
0.044545297
0.047653852
0.044941233
0.035095453
0.016362308
0.03144002
0.031495925
0.031629136
0.031729781
0.031442847
0.031406233
0.034397782
0.040771061
0.046960464
0.049417769
0.045934484
0.035440885
0.01636731
0.031383622
0.031471952
0.031670108
0.031823119
0.03163718
0.032305488
0.03648515
0.043403916
0.049308923
0.051091864
0.046863895
0.035761637
0.016372969
0.03135431
0.031482518
0.031754745
0.031965285
0.031975485
0.033531428
0.038816233
0.046064361
0.051583768
0.052681065
0.047735561
0.036060692
0.016379266
0.031357497
0.031533412
0.031887427
0.032168112
0.032505946
0.035089409
0.041337345
0.04872249
0.053781403
0.054190403
0.048554836
0.036340517
0.016386174
0.03139966
0.031631057
0.032072922
0.032450915
0.033276475
0.036965351
0.043997168
0.051356522
0.055900493
0.055624809
0.04932644
0.036603249
0.016393659
0.031488427
0.031782428
0.03231711
0.0328421
0.034327511
0.039129415
0.046750331
0.0539509
0.057941207
0.056988872
0.050054079
0.036848496
0.016401672
0.031632621
0.031994974
0.032628309
0.033378944
0.035685989
0.0415413
0.049558966
0.056494684
0.059904719
0.058286905
0.050741227
0.037078061
0.016410157
0.031842264
0.032276621
0.033019163
0.03410484
0.037361929
0.044155836
0.052392715
0.058980326
0.061792816
0.059522757
0.051390027
0.037293993
0.016419061
0.03212853
0.032636022
0.033508772
0.035064182
0.039348112
0.046927807
0.05522786
0.061402783
0.063607642
0.060699937
0.052002677
0.037497696
0.016428334
0.03250367
0.033083205
0.034124298
0.036296101
0.041622405
0.04981536
0.058046136
0.063758862
0.065351546
0.061821638
0.05258258
0.037690193
0.016437945
0.032981002
0.033630797
0.03490106
0.037828735
0.044151818
0.052781871
0.060833586
0.06604668
0.067026701
0.0628895
0.053132468
0.03787253
0.016447872
0.033575095
0.034295806
0.035880368
0.039675452
0.046897158
0.055796507
0.063579601
0.068265332
0.068635568
0.063907355
0.053654302
0.038045473
0.016458088
0.034302369
0.035101607
0.037105072
0.041833724
0.049817349
0.058833935
0.066276154
0.070414393
0.070179108
0.064878397
0.054149994
0.038209783
0.016468569
0.035182281
0.036079358
0.038613767
0.044286509
0.052872738
0.061873599
0.068917176
0.072494025
0.071660188
0.065805209
0.054621164
0.038366085
0.016479288
0.036239046
0.037267817
0.040435162
0.047005441
0.05602718
0.064898918
0.071498027
0.07450382
0.073081482
0.066690099
0.055069326
0.038514917
0.016490218
0.037503424
0.038710797
0.042584054
0.04995487
0.059248943
0.067896467
0.074015184
0.076444642
0.074445476
0.067535118
0.055495819
0.038656742
0.016501334
0.039013509
0.040452278
0.045059728
0.05309584
0.062510852
0.070855338
0.076465326
0.078317612
0.075754305
0.068342167
0.055901826
0.038791953
0.01651261
0.040813314
0.042530171
0.04784682
0.056389307
0.065789814
0.07376651
0.078846467
0.080124252
0.077009867
0.069112938
0.056288384
0.038920881
0.016524019
0.042948325
0.044970332
0.050918063
0.059798385
0.069066325
0.07662197
0.081156917
0.081865794
0.078213924
0.069848941
0.056656394
0.039043804
0.016535536
0.04545838
0.047782296
0.054237949
0.06328939
0.072323491
0.079415206
0.083396341
0.083543326
0.079368018
0.07055149
0.057006628
0.039160949
0.016547136
0.04836949
0.050957561
0.057766459
0.066832238
0.075546554
0.082140741
0.085564131
0.085157806
0.080473483
0.071221707
0.057339734
0.039272496
0.016558794
0.051686912
0.054470405
0.061462106
0.070399918
0.078721986
0.084794907
0.087659691
0.086709987
0.081531428
0.071860532
0.057656247
0.039378584
0.016570485
0.055391473
0.058280538
0.065283667
0.073967538
0.081839605
0.087374103
0.089682321
0.088200392
0.082542726
0.072468714
0.057956586
0.039479308
0.016582185
0.059440031
0.062336496
0.069190794
0.077514001
0.084890568
0.089874875
0.091631142
0.089629278
0.083508001
0.073046819
0.058241061
0.039574723
0.016593867
0.063769468
0.066579719
0.073146294
0.081021471
0.087866732
0.092293803
0.093505045
0.090996618
0.084427623
0.073595224
0.058509872
0.039664845
0.016605507
0.068304156
0.070949126
0.077116118
0.08447371
0.090760481
0.09462743
0.095302671
0.09230209
0.085301705
0.074114119
0.058763113
0.03974965
0.016617076
0.072963949
0.075384333
0.081068524
0.087855775
0.093564619
0.096872245
0.097022408
0.093545083
0.086130108
0.074603515
0.059000772
0.039829074
0.016628545
0.077671202
0.079828347
0.084974031
0.091153815
0.096272321
0.099024702
0.098662428
0.094724726
0.086912462
0.07506325
0.05922274
0.039903018
0.016639885
0.082355829
0.084229564
0.088805522
0.094354991
0.098877149
0.10108129
0.10022076
0.095839931
0.087648189
0.075493009
0.059428817
0.03997135
0.016651062
0.086958187
0.088543064
0.092538473
0.097447485
0.10137311
0.10303862
0.10169536
0.096889469
0.088336558
0.075892349
0.059618726
0.040033908
0.016662041
0.091430065
0.09273125
0.096151231
0.1004206
0.10375477
0.10489358
0.10308425
0.097872054
0.088976739
0.076260741
0.059792136
0.040090513
0.016672786
0.095734346
0.096763918
0.099625266
0.1032649
0.10601733
0.10664338
0.10438563
0.098786447
0.08956788
0.076597614
0.059948685
0.040140973
0.016683256
0.099843888
0.10061789
0.10294532
0.10597236
0.10815676
0.10828579
0.10559801
0.099631561
0.090109187
0.076902409
0.060088012
0.040185101
0.016693412
0.10374006
0.10427638
0.10609945
0.10853646
0.11016992
0.10981912
0.10672029
0.10040657
0.090600009
0.077174637
0.060209789
0.040222725
0.016703211
0.10741122
0.10772815
0.10907889
0.11095231
0.11205461
0.11124239
0.10775189
0.10111098
0.09103991
0.077413937
0.06031376
0.040253707
0.016712613
0.11085132
0.11096668
0.11187789
0.1132166
0.1138096
0.11255535
0.10869278
0.10174473
0.091428746
0.077620129
0.060399769
0.040277955
0.016721578
0.11405869
0.11398936
0.1144934
0.11532765
0.11543468
0.11375849
0.10954354
0.10230822
0.091766708
0.077793259
0.060467794
0.040295434
0.01673007
0.11703505
0.11679669
0.11692475
0.11728524
0.1169306
0.11485305
0.11030537
0.10280237
0.092054366
0.077933628
0.060517967
0.040306183
0.016738054
0.11978466
0.11939167
0.11917331
0.11909054
0.11829904
0.11584096
0.11098007
0.10322856
0.092292678
0.078041818
0.060550592
0.040310315
0.016745503
0.12231368
0.12177924
0.12124218
0.12074594
0.11954252
0.11672485
0.11157
0.10358868
0.092482994
0.078118694
0.060566147
0.040308022
0.016752392
0.12462968
0.12396579
0.12313581
0.12225491
0.12066434
0.11750791
0.11207803
0.10388508
0.092627034
0.0781654
0.060565289
0.040299575
0.016758707
0.12674122
0.12595882
0.12485982
0.12362181
0.12166844
0.11819387
0.11250748
0.10412047
0.092726859
0.078183337
0.060548838
0.040285321
0.016764435
0.12865755
0.1277666
0.12642064
0.12485174
0.12255934
0.11878689
0.11286206
0.10429795
0.092784826
0.078174137
0.060517765
0.040265669
0.016769575
0.13038836
0.12939795
0.12782539
0.1259504
0.123342
0.11929148
0.11314579
0.10442087
0.092803538
0.078139627
0.060473165
0.040241085
0.01677413
0.13194356
0.13086201
0.12908161
0.12692394
0.12402173
0.11971243
0.11336289
0.1044928
0.092785793
0.078081791
0.060416234
0.040212077
0.016778109
0.1333332
0.13216812
0.13019718
0.12777881
0.1246041
0.1200547
0.11351779
0.10451746
0.092734526
0.078002722
0.06034824
0.04017918
0.016781528
0.13456727
0.13332564
0.1311801
0.12852168
0.12509484
0.12032341
0.11361497
0.10449868
0.09265276
0.077904587
0.060270496
0.040142947
0.016784407
0.13565565
0.13434391
0.13203847
0.12915934
0.12549979
0.1205237
0.11365897
0.10444029
0.09254355
0.077789582
0.060184331
0.040103933
0.016786771
0.13660805
0.13523209
0.13278033
0.12969859
0.12582479
0.12066073
0.11365431
0.10434613
0.092409948
0.077659899
0.060091068
0.040062685
0.016788648
0.13743389
0.13599917
0.13341364
0.13014619
0.12607567
0.12073958
0.11360546
0.10421999
0.092254958
0.077517696
0.059992002
0.040019733
0.016790069
0.13814235
0.13665389
0.13394616
0.13050882
0.12625815
0.12076527
0.11351677
0.10406554
0.092081507
0.077365067
0.059888382
0.039975579
0.016791066
0.13874227
0.1372047
0.13438549
0.13079301
0.12637784
0.1207427
0.1133925
0.10388635
0.091892421
0.077204022
0.059781397
0.039930698
0.016791672
0.13924213
0.13765974
0.13473895
0.13100509
0.12644022
0.12067658
0.11323672
0.10368586
0.091690396
0.077036471
0.059672163
0.039885525
0.016791922
0.13965008
0.13802682
0.1350136
0.13115121
0.12645055
0.12057148
0.11305336
0.10346732
0.091477987
0.076864207
0.059561718
0.03984046
0.01679185
0.13997386
0.13831339
0.13521622
0.13123725
0.1264139
0.12043177
0.11284613
0.10323383
0.091257592
0.076688894
0.059451011
0.039795857
0.016791489
0.14022084
0.13852654
0.13535326
0.13126886
0.12633512
0.1202616
0.11261858
0.10298827
0.091031439
0.076512063
0.059340899
0.039752031
0.016790872
0.14039802
0.138673
0.13543086
0.13125142
0.12621883
0.1200649
0.11237401
0.10273336
0.090801584
0.076335106
0.059232147
0.039709255
0.016790031
0.14051197
0.13875912
0.13545484
0.13119001
0.12606939
0.11984538
0.11211552
0.10247157
0.090569903
0.076159271
0.059125425
0.039667758
0.016788995
0.1405689
0.13879089
0.13543068
0.13108944
0.12589091
0.11960652
0.11184599
0.10220522
0.090338094
0.075985667
0.059021312
0.03962773
0.016787792
0.14057463
0.13877392
0.13536354
0.13095426
0.12568726
0.11935156
0.11156809
0.10193639
0.090107676
0.075815251
0.058920252
0.039589111
0.016786448
0.14053462
0.13871349
0.13525825
0.13078869
0.12546207
0.11908352
0.11128425
0.10166697
0.089879994
0.075648842
0.058822595
0.03955185
0.016784984
0.14045397
0.13861452
0.13511936
0.13059674
0.1252187
0.11880519
0.11099673
0.10139867
0.08965621
0.075487067
0.058728358
0.039516232
0.016783418
0.14033745
0.13848163
0.1349511
0.13038211
0.12496032
0.11851915
0.11070755
0.101133
0.089437344
0.075330504
0.058637879
0.039482384
0.016781771
0.1401895
0.1383191
0.13475743
0.13014827
0.12468982
0.11822778
0.11041857
0.10087128
0.089224184
0.075179275
0.05855159
0.039450397
0.016780061
0.14001425
0.13813094
0.13454201
0.12989845
0.12440993
0.11793325
0.11013144
0.10061466
0.089017367
0.07503408
0.058469639
0.039420323
0.016778309
0.13981556
0.13792086
0.13430828
0.12963563
0.12412312
0.11763754
0.10984763
0.10036414
0.088817443
0.074895385
0.058392159
0.039392196
0.016776532
0.13959697
0.1376923
0.13405938
0.12936256
0.12383167
0.1173424
0.10956838
0.10012036
0.088625223
0.074763447
0.058319236
0.039366032
0.016774744
0.13936178
0.13744843
0.13379825
0.12908178
0.12353765
0.11704941
0.10929475
0.099884303
0.088441185
0.074638451
0.058250913
0.039341825
0.01677296
0.139113
0.13719217
0.13352755
0.12879558
0.1232429
0.11675993
0.10902774
0.099656754
0.08826568
0.07452052
0.058187193
0.039319549
0.016771191
0.1388534
0.1369262
0.13324971
0.12850604
0.12294904
0.11647511
0.10876844
0.09943827
0.088098965
0.07440971
0.058128038
0.039299164
0.016769449
0.1385855
0.13665293
0.13296692
0.12821498
0.12265747
0.11619628
0.10851763
0.099229284
0.087941205
0.074306019
0.058073381
0.039280615
0.016767741
0.13831157
0.13637452
0.13268111
0.12792403
0.1223697
0.11592448
0.10827597
0.099030121
0.087792486
0.074209392
0.058023122
0.039263837
0.016766076
0.13803361
0.1360929
0.13239407
0.12763484
0.12208701
0.1156606
0.10804398
0.098841006
0.087652824
0.074119729
0.057977138
0.039248759
0.016764459
0.13775347
0.13580988
0.13210748
0.12734885
0.1218105
0.11540538
0.10782207
0.098662082
0.087522171
0.074036891
0.05793529
0.039235301
0.016762896
0.13747285
0.13552712
0.13182289
0.12706733
0.12154112
0.11515943
0.10761056
0.098493411
0.087400429
0.07396071
0.057897423
0.039223383
0.01676139
0.1371933
0.13524612
0.13154166
0.12679142
0.12127971
0.11492328
0.10740966
0.098334994
0.087287458
0.073890991
0.057863373
0.039212923
0.016759944
0.13691623
0.13496825
0.131265
0.12652212
0.12102698
0.11469733
0.10721953
0.098186776
0.08718308
0.073827525
0.057832971
0.039203838
0.016758562
0.13664291
0.13469473
0.13099402
0.1262603
0.12078352
0.11448191
0.10704024
0.098048649
0.087087089
0.073770086
0.057806044
0.039196049
0.016757245
0.1363745
0.13442665
0.13072966
0.1260067
0.12054984
0.11427725
0.1068718
0.097920463
0.08699925
0.073718437
0.057782416
0.039189474
0.016755994
0.13611201
0.13416499
0.13047278
0.12576198
0.12032634
0.11408351
0.10671417
0.097802026
0.086919306
0.07367233
0.05776191
0.039184034
0.016754811
0.13585634
0.13391058
0.13022411
0.12552668
0.12011333
0.11390078
0.10656723
0.097693111
0.086846977
0.073631508
0.057744348
0.039179653
0.016753695
0.13560827
0.13366417
0.12998425
0.12530124
0.11991104
0.11372907
0.10643084
0.097593452
0.086781965
0.073595708
0.05772955
0.039176252
0.016752648
0.13536847
0.13342637
0.12975373
0.125086
0.11971961
0.11356833
0.10630479
0.097502754
0.086723953
0.073564656
0.057717336
0.039173756
0.016751668
0.13513749
0.13319769
0.12953295
0.12488121
0.11953911
0.11341846
0.10618883
0.097420691
0.08667261
0.073538078
0.057707526
0.03917209
0.016750755
0.13491579
0.13297856
0.12932224
0.12468705
0.11936954
0.11327928
0.10608267
0.097346915
0.086627593
0.073515694
0.057699941
0.039171182
0.016749907
0.13470371
0.13276928
0.1291218
0.1245036
0.11921082
0.11315057
0.10598599
0.097281058
0.086588551
0.073497224
0.057694404
0.039170958
0.016749124
0.13450151
0.13257008
0.12893179
0.12433087
0.11906282
0.11303208
0.10589843
0.097222736
0.086555129
0.07348239
0.057690745
0.039171352
0.016748403
0.13430939
0.1323811
0.12875228
0.12416882
0.11892536
0.1129235
0.10581963
0.097171558
0.086526972
0.07347092
0.057688795
0.039172298
0.016747741
0.13412744
0.13220244
0.12858328
0.12401735
0.11879822
0.1128245
0.1057492
0.097127128
0.08650373
0.073462547
0.057688395
0.039173734
0.016747138
0.13395571
0.13203411
0.12842473
0.12387631
0.11868115
0.11273476
0.10568674
0.097089054
0.08648506
0.073457018
0.057689394
0.039175602
0.01674659
0.1337942
0.13187607
0.12827654
0.12374551
0.11857385
0.11265389
0.10563185
0.097056947
0.086470631
0.073454089
0.05769165
0.039177849
0.016746096
0.13364286
0.13172824
0.12813858
0.12362474
0.11847603
0.11258153
0.10558414
0.097030429
0.086460123
0.073453529
0.057695029
0.039180427
0.016745652
0.13350158
0.13159051
0.12801067
0.12351375
0.11838735
0.11251731
0.1055432
0.097009131
0.086453232
0.073455122
0.05769941
0.039183292
0.016745257
0.13337024
0.13146273
0.12789261
0.12341227
0.1183075
0.11246084
0.10550866
0.096992696
0.086449665
0.073458663
0.057704679
0.039186403
0.016744907
0.13324869
0.13134471
0.12778418
0.12332002
0.11823611
0.11241174
0.10548013
0.096980777
0.086449145
0.073463959
0.057710728
0.039189723
0.016744602
0.13313671
0.13123624
0.12768512
0.12323667
0.11817284
0.11236962
0.10545723
0.096973033
0.0864514
0.073470825
0.057717457
0.039193218
0.016744339
0.13303408
0.13113707
0.12759515
0.12316191
0.1181173
0.11233409
0.10543957
0.096969133
0.08645617
0.073479084
0.057724771
0.039196853
0.016744116
0.13294053
0.13104692
0.12751394
0.12309537
0.1180691
0.11230476
0.10542679
0.096968748
0.086463198
0.073488564
0.057732576
0.039200597
0.01674393
0.13285576
0.13096547
0.12744116
0.12303668
0.11802785
0.11228121
0.10541849
0.09697155
0.086472233
0.073499095
0.057740783
0.039204418
0.01674378
0.13277943
0.13089238
0.12737645
0.12298543
0.11799313
0.11226303
0.1054143
0.096977218
0.086483027
0.073510513
0.057749301
0.039208284
0.016743662
0.13271119
0.13082727
0.12731939
0.12294123
0.11796451
0.11224981
0.10541384
0.096985434
0.08649534
0.073522657
0.057758045
0.039212166
0.016743574
0.13265065
0.13076976
0.1272696
0.12290364
0.11794156
0.11224114
0.10541675
0.096995893
0.086508939
0.073535376
0.057766934
0.039216034
0.016743515
0.13259742
0.13071945
0.12722666
0.12287223
0.11792387
0.11223662
0.10542267
0.097008301
0.086523606
0.073548526
0.057775893
0.039219864
0.01674348
0.13255109
0.13067593
0.12719014
0.1228466
0.11791102
0.11223586
0.10543125
0.097022387
0.086539143
0.07356198
0.057784857
0.039223632
0.016743467
0.13251128
0.13063879
0.12715965
0.12282632
0.11790262
0.11223851
0.1054422
0.097037903
0.086555371
0.073575628
0.057793769
0.039227323
0.016743474
0.1324776
0.13060767
0.12713479
0.12281103
0.1178983
0.11224423
0.10545523
0.097054628
0.086572135
0.073589374
0.057802586
0.039230924
0.0167435
0.13244969
0.13058218
0.12711521
0.12280035
0.11789773
0.11225272
0.10547009
0.097072371
0.086589303
0.073603145
0.057811277
0.039234428
0.016743541
0.13242722
0.130562
0.12710055
0.12279395
0.11790057
0.1122637
0.10548654
0.097090961
0.086606766
0.07361688
0.057819816
0.039237832
0.016743597
0.13240986
0.13054678
0.12709049
0.12279152
0.11790656
0.11227692
0.10550439
0.09711025
0.086624427
0.073630529
0.057828188
0.039241133
0.016743667
0.13239728
0.13053621
0.12708471
0.12279274
0.11791539
0.11229213
0.10552345
0.097130098
0.086642199
0.073644048
0.057836378
0.039244331
0.016743749
0.13238917
0.13052997
0.12708289
0.12279731
0.11792681
0.11230911
0.10554352
0.097150373
0.086659998
0.073657394
0.05784437
0.039247425
0.016743842
0.13238519
0.13052773
0.12708471
0.12280493
0.11794053
0.11232761
0.10556442
0.097170935
0.086677733
0.073670517
0.05785214
0.039250386
0.016743947
0.13238501
0.13052915
0.12708983
0.12281529
0.11795626
0.11234739
0.10558596
0.097191641
0.086695308
0.073683359
0.057859658
0.0392532
0.016744059
0.13238826
0.13053386
0.12709792
0.12282805
0.11797371
0.1123682
0.10560792
0.097212341
0.086712618
0.073695852
0.057866869
0.03925587
0.01674418
0.13239456
0.13054151
0.1271086
0.12284288
0.11799259
0.11238979
0.10563012
0.097232877
0.086729554
0.073707927
0.057873746
0.039258388
0.016744305
0.13240353
0.1305517
0.12712152
0.12285944
0.1180126
0.11241191
0.10565234
0.0972531
0.086746007
0.073719498
0.057880274
0.03926075
0.016744434
0.13241479
0.13056408
0.12713633
0.12287741
0.11803344
0.11243431
0.10567441
0.09727287
0.086761882
0.073730522
0.057886428
0.039262949
0.016744565
0.13242799
0.1305783
0.12715269
0.1228965
0.11805487
0.11245679
0.10569615
0.097292066
0.086777084
0.073740976
0.057892193
0.039264981
0.016744695
0.13244282
0.13059404
0.12717032
0.12291644
0.11807666
0.11247917
0.10571744
0.097310598
0.086791584
0.073750837
0.057897564
0.039266847
0.016744825
0.13245901
0.13061105
0.12718897
0.12293701
0.11809864
0.11250132
0.10573818
0.097328408
0.086805372
0.073760103
0.057902546
0.039268554
0.016744952
0.13247635
0.13062911
0.12720844
0.12295805
0.11812068
0.11252315
0.10575831
0.097345494
0.08681845
0.073768789
0.057907155
0.03927011
0.016745077
0.13249469
0.13064808
0.1272286
0.12297944
0.11814268
0.11254459
0.10577783
0.097361868
0.086830844
0.073776925
0.057911417
0.039271529
0.016745198
0.13251391
0.13066784
0.12724933
0.1230011
0.11816458
0.11256562
0.10579674
0.097377556
0.08684259
0.073784551
0.057915363
0.039272827
0.016745317
0.13253394
0.13068831
0.12727056
0.12302294
0.11818635
0.11258625
0.10581507
0.097392593
0.086853733
0.073791711
0.057919028
0.03927402
0.016745433
0.13255469
0.13070941
0.12729222
0.12304493
0.11820796
0.11260647
0.10583282
0.09740701
0.086864314
0.073798445
0.05792244
0.039275122
0.016745547
0.13257608
0.13073104
0.12731422
0.123067
0.11822938
0.11262626
0.10585001
0.097420828
0.086874362
0.073804783
0.057925624
0.039276144
0.01674566
0.13259798
0.13075311
0.12733647
0.12308907
0.11825054
0.11264559
0.10586662
0.09743405
0.086883891
0.073810742
0.057928593
0.039277091
0.016745773
0.13262025
0.13077546
0.12735885
0.12311104
0.11827136
0.11266439
0.10588261
0.097446656
0.086892893
0.073816323
0.05793135
0.039277966
0.016745884
0.1326427
0.13079793
0.12738118
0.12313276
0.11829173
0.11268259
0.10589791
0.097458605
0.086901343
0.073821512
0.057933887
0.039278763
0.016745994
0.1326651
0.1308203
0.12740329
0.12315407
0.11831151
0.11270007
0.10591246
0.097469842
0.086909205
0.073826283
0.05793619
0.039279477
0.016746102
0.13268722
0.13084235
0.12742497
0.1231748
0.11833055
0.11271672
0.10592617
0.097480305
0.086916435
0.073830608
0.057938241
0.039280097
0.016746206
0.13270882
0.13086385
0.12744601
0.12319476
0.11834872
0.11273243
0.10593895
0.09748994
0.086922993
0.073834461
0.057940023
0.039280618
0.016746305
0.13272969
0.1308846
0.12746623
0.12321382
0.1183659
0.11274713
0.10595075
0.097498705
0.086928853
0.073837822
0.057941525
0.039281032
0.016746398
0.13274966
0.13090444
0.1274855
0.12323186
0.11838201
0.11276075
0.10596154
0.097506585
0.08693401
0.073840692
0.057942746
0.039281341
0.016746484
0.13276862
0.13092327
0.12750372
0.12324881
0.11839701
0.11277328
0.10597133
0.097513596
0.086938482
0.073843087
0.057943698
0.039281548
0.016746562
0.13278652
0.13094103
0.12752087
0.12326466
0.11841091
0.11278474
0.10598014
0.097519783
0.086942314
0.073845042
0.057944404
0.039281665
0.016746632
0.13280338
0.13095775
0.12753696
0.12327945
0.11842376
0.11279522
0.10598806
0.09752522
0.086945572
0.07384661
0.057944897
0.039281705
0.016746695
0.13281929
0.1309735
0.12755208
0.12329326
0.11843565
0.11280479
0.10599518
0.09753
0.086948337
0.073847854
0.057945219
0.039281688
0.016746751
0.13283437
0.1309884
0.12756632
0.1233062
0.1184467
0.11281358
0.10600161
0.097534225
0.086950695
0.073848841
0.057945411
0.039281631
0.016746801
0.13284874
0.13100258
0.12757982
0.12331839
0.11845702
0.1128217
0.10600747
0.097537991
0.086952731
0.073849634
0.057945514
0.039281552
0.016746847
0.13286253
0.13101614
0.12759269
0.12332994
0.11846671
0.11282924
0.10601284
0.097541383
0.086954512
0.073850285
0.057945561
0.039281464
0.01674689
0.13287584
0.1310292
0.12760501
0.12334093
0.11847586
0.11283629
0.10601779
0.097544458
0.086956087
0.073850829
0.057945573
0.039281375
0.016746931
0.13288873
0.1310418
0.12761684
0.1233514
0.1184845
0.11284288
0.10602236
0.09754725
0.086957481
0.073851284
0.057945559
0.039281289
0.016746972
0.1329012
0.13105395
0.12762819
0.12336138
0.11849266
0.11284902
0.10602655
0.097549762
0.086958696
0.073851648
0.057945518
0.039281202
0.016747011
0.1329132
0.13106562
0.12763903
0.12337082
0.11850029
0.11285469
0.10603035
0.097551975
0.086959713
0.073851907
0.057945436
0.039281109
0.016747049
0.13292465
0.13107672
0.12764927
0.12337966
0.11850734
0.11285983
0.10603372
0.097553856
0.086960504
0.073852034
0.057945297
0.039280999
0.016747085
0.13293544
0.13108715
0.12765883
0.12338783
0.11851376
0.11286441
0.10603661
0.097555367
0.086961035
0.073852003
0.057945082
0.039280864
0.016747119
0.13294543
0.1310968
0.12766763
0.12339525
0.11851948
0.11286837
0.10603897
0.097556472
0.086961277
0.073851791
0.057944773
0.039280696
0.016747149
0.13295454
0.13110558
0.12767556
0.12340185
0.11852445
0.11287168
0.1060408
0.097557155
0.086961215
0.073851385
0.057944362
0.03928049
0.016747175
0.13296268
0.13111342
0.12768259
0.12340761
0.11852866
0.11287432
0.10604208
0.097557414
0.08696085
0.073850786
0.057943847
0.039280245
0.016747196
0.13296983
0.13112028
0.1276887
0.12341251
0.1185321
0.11287631
0.10604284
0.097557274
0.086960203
0.073850007
0.057943238
0.039279965
0.016747212
0.13297599
0.13112618
0.1276939
0.12341659
0.11853483
0.1128777
0.10604312
0.09755678
0.086959312
0.073849078
0.057942552
0.039279659
0.016747223
0.13298122
0.13113119
0.12769826
0.12341991
0.11853691
0.11287857
0.10604299
0.097555992
0.086958227
0.073848036
0.057941812
0.039279335
0.016747229
0.13298562
0.13113539
0.12770187
0.12342257
0.11853843
0.112879
0.10604254
0.097554981
0.086957005
0.073846923
0.057941045
0.039279006
0.016747231
0.13298932
0.13113889
0.12770484
0.12342468
0.1185395
0.11287908
0.10604185
0.097553818
0.086955704
0.073845781
0.057940276
0.039278683
0.016747231
0.13299244
0.13114183
0.12770729
0.12342634
0.11854022
0.1128789
0.10604099
0.097552568
0.086954376
0.073844649
0.057939529
0.039278375
0.016747228
0.1329951
0.13114432
0.12770932
0.12342764
0.11854066
0.11287854
0.10604002
0.097551285
0.086953061
0.073843554
0.05793882
0.039278089
0.016747225
0.13299742
0.13114647
0.12771104
0.12342868
0.11854091
0.11287806
0.10603901
0.097550003
0.086951787
0.073842514
0.057938158
0.039277827
0.016747222
0.13299946
0.13114835
0.12771251
0.12342952
0.11854101
0.11287749
0.10603797
0.097548743
0.086950563
0.073841535
0.057937546
0.03927759
0.016747219
0.13300129
0.13115
0.12771377
0.12343017
0.11854098
0.11287685
0.10603691
0.097547507
0.086949389
0.073840612
0.05793698
0.039277376
0.016747216
0.13300291
0.13115145
0.12771483
0.12343066
0.11854083
0.11287613
0.10603582
0.097546283
0.086948251
0.073839734
0.05793645
0.039277178
0.016747214
0.13300432
0.13115269
0.12771569
0.12343097
0.11854054
0.11287533
0.10603469
0.097545052
0.086947132
0.073838884
0.057935946
0.039276993
0.016747212
0.13300549
0.13115369
0.12771632
0.12343108
0.11854009
0.11287442
0.10603349
0.097543792
0.08694601
0.073838045
0.057935453
0.039276813
0.01674721
0.13300639
0.13115443
0.12771671
0.12343097
0.11853946
0.11287337
0.10603221
0.097542484
0.086944866
0.073837201
0.057934963
0.039276634
0.016747206
0.13300699
0.13115487
0.12771681
0.12343061
0.11853863
0.11287217
0.10603082
0.097541111
0.086943689
0.073836342
0.057934466
0.039276452
0.016747202
0.13300725
0.131155
0.12771662
0.12343
0.11853759
0.11287081
0.10602933
0.09753967
0.086942471
0.073835461
0.057933958
0.039276261
0.016747197
0.13300718
0.13115479
0.12771613
0.12342913
0.11853634
0.1128693
0.10602773
0.097538163
0.086941215
0.073834559
0.057933436
0.039276064
0.016747189
0.13300678
0.13115428
0.12771536
0.12342802
0.11853491
0.11286766
0.10602604
0.097536606
0.086939933
0.073833642
0.057932907
0.039275862
0.01674718
0.13300609
0.13115349
0.12771434
0.1234267
0.11853332
0.11286592
0.1060243
0.097535022
0.086938642
0.073832724
0.057932379
0.03927566