/*--------------------------------*- C++ -*----------------------------------*\
| =========                 |                                                 |
| \\      /  F ield         | OpenFOAM: The Open Source CFD Toolbox           |
|  \\    /   O peration     | Version:  2506                                  |
|   \\  /    A nd           | Website:  www.openfoam.com                      |
|    \\/     M anipulation  |                                                 |
\*---------------------------------------------------------------------------*/
FoamFile
{
    version     2.0;
    format      ascii;
    arch        "LSB;label=32;scalar=64";
    class       volScalarField;
    location    "11000/water";
    object      epsilon;
}
// * * * * * * * * * * * * * * * * * * * * * * * * * * * * * * * * * * * * * //

dimensions      [0 2 -3 0 0 0 0];

internalField   nonuniform List<scalar> 
2600
(
8.8079773e-05
8.8079245e-05
8.8079271e-05
8.807949e-05
8.8079744e-05
8.8080245e-05
8.8082926e-05
8.8104349e-05
8.8272771e-05
8.9512908e-05
9.8428186e-05
0.00017145296
0.0010138716
6.7789348e-05
6.7791881e-05
6.7793339e-05
6.7794963e-05
6.7796901e-05
6.7799886e-05
6.7810178e-05
6.7875511e-05
6.8312468e-05
7.1039872e-05
8.7857083e-05
0.00021159534
0.0014669324
5.3500886e-05
5.3503148e-05
5.3504846e-05
5.3506859e-05
5.3509287e-05
5.3513643e-05
5.3532992e-05
5.3656306e-05
5.4399641e-05
5.8506995e-05
8.1500797e-05
0.00023956052
0.0017068244
4.3127504e-05
4.3128883e-05
4.3130503e-05
4.3132598e-05
4.3135149e-05
4.3140834e-05
4.3171684e-05
4.3362646e-05
4.4413342e-05
4.9710824e-05
7.7552644e-05
0.00025818579
0.0017816909
3.539909e-05
3.5400132e-05
3.5401605e-05
3.5403513e-05
3.5405834e-05
3.5412916e-05
3.5457613e-05
3.5722605e-05
3.7073304e-05
4.3450503e-05
7.5629286e-05
0.00027290618
0.0017622817
2.9510599e-05
2.9511446e-05
2.95127e-05
2.9514227e-05
2.9516143e-05
2.9525119e-05
2.9586798e-05
2.9933924e-05
3.159515e-05
3.9095388e-05
7.5939385e-05
0.00028837858
0.0017002497
2.4935213e-05
2.4935877e-05
2.4936847e-05
2.4937875e-05
2.4939416e-05
2.4951342e-05
2.503458e-05
2.5477125e-05
2.7489448e-05
3.6318413e-05
7.8818158e-05
0.0003073199
0.0016256765
2.1318423e-05
2.1318913e-05
2.1319549e-05
2.132003e-05
2.1321464e-05
2.1338095e-05
2.144948e-05
2.2008273e-05
2.4447975e-05
3.4968795e-05
8.4593389e-05
0.00033066897
0.0015541994
1.8415642e-05
1.8415958e-05
1.8416233e-05
1.8416208e-05
1.8418091e-05
1.8442025e-05
1.8590687e-05
1.9295945e-05
2.2279378e-05
3.5010665e-05
9.3512814e-05
0.00035786641
0.0014930959
1.6054297e-05
1.6054439e-05
1.6054351e-05
1.6053968e-05
1.6057197e-05
1.6092028e-05
1.6290179e-05
1.7183376e-05
2.0872546e-05
3.6486908e-05
0.00010564207
0.00038720676
0.0014449141
1.411016e-05
1.4110129e-05
1.4109712e-05
1.4109249e-05
1.4115119e-05
1.4165612e-05
1.4429188e-05
1.5565379e-05
2.0175367e-05
3.9486471e-05
0.00012074249
0.00041640751
0.0014094648
1.249217e-05
1.2491978e-05
1.249131e-05
1.24912e-05
1.2501471e-05
1.2573786e-05
1.2923263e-05
1.4374121e-05
2.0181311e-05
4.4103574e-05
0.00013819401
0.0004433175
0.0013850187
1.1132483e-05
1.1132152e-05
1.1131368e-05
1.1132227e-05
1.1149209e-05
1.1251189e-05
1.1712642e-05
1.3570321e-05
2.0918928e-05
5.0386672e-05
0.00015703479
0.00046647967
0.0013691707
9.9797899e-06
9.9793621e-06
9.9786681e-06
9.9813266e-06
1.0007987e-05
1.0149541e-05
1.0756002e-05
1.3137755e-05
2.2440689e-05
5.8285038e-05
0.00017613324
0.00048532286
0.0013594869
8.994766e-06
8.994305e-06
8.9939894e-06
8.9995396e-06
9.0396464e-06
9.2332357e-06
1.0026406e-05
1.3079617e-05
2.4808572e-05
6.7609618e-05
0.00019442665
0.00050000486
0.0013539038
8.1468971e-06
8.1464947e-06
8.1469469e-06
8.1567947e-06
8.2150975e-06
8.4763588e-06
9.5087285e-06
1.3415553e-05
2.807526e-05
7.8026841e-05
0.0002111215
0.00051110137
0.0013508788
7.4122408e-06
7.412023e-06
7.4137548e-06
7.4296903e-06
7.5121568e-06
7.8606834e-06
9.1980664e-06
1.4178291e-05
3.2262331e-05
8.9094588e-05
0.00022578146
0.00051932558
0.0013493668
6.7718206e-06
6.7719549e-06
6.7756276e-06
6.7999151e-06
6.9140283e-06
7.3743439e-06
9.0987625e-06
1.5408888e-05
3.7339829e-05
0.00010033156
0.00023829849
0.00052535583
0.0013487149
6.2104575e-06
6.2111621e-06
6.2176208e-06
6.2531142e-06
6.4082476e-06
7.0110033e-06
9.2236697e-06
1.7149875e-05
4.3213605e-05
0.00011129559
0.0002487951
0.00052976262
0.0013485457
5.7159095e-06
5.7174657e-06
5.7277834e-06
5.7780724e-06
5.9859581e-06
6.7693776e-06
9.5932706e-06
1.9436233e-05
4.9726067e-05
0.00012164394
0.00025751549
0.00053299526
0.0013486594
5.2782322e-06
5.2809984e-06
5.2965329e-06
5.3661281e-06
5.6414368e-06
6.6530083e-06
1.0234238e-05
2.228513e-05
5.6672016e-05
0.00013115952
0.00026474159
0.0005353945
0.0013489619
4.889296e-06
4.893728e-06
4.9161934e-06
5.0107595e-06
5.3718124e-06
6.6701645e-06
1.1177042e-05
2.5686553e-05
6.3825678e-05
0.00013974422
0.00027074337
0.00053721257
0.0013494179
4.5424222e-06
4.549097e-06
4.5806559e-06
4.707302e-06
5.1769356e-06
6.8337316e-06
1.2452335e-05
2.9597477e-05
7.097079e-05
0.00014739148
0.0002757568
0.0005386328
0.0013500205
4.2321037e-06
4.2417515e-06
4.2851315e-06
4.4527719e-06
5.0593678e-06
7.1609028e-06
1.4086152e-05
3.394183e-05
7.7925113e-05
0.00015415333
0.00027997823
0.00053978641
0.0013507744
3.9537926e-06
3.9673375e-06
4.0259782e-06
4.2457763e-06
5.0244499e-06
7.6724686e-06
1.6094424e-05
3.8616919e-05
8.4553952e-05
0.00016011197
0.00028356674
0.00054076615
0.0013516866
3.7037376e-06
3.7223496e-06
3.8005873e-06
4.0864974e-06
5.0804009e-06
8.3914976e-06
1.8477844e-05
4.3504911e-05
9.0772061e-05
0.00016536002
0.00028664926
0.00054163684
0.0013527623
3.4788613e-06
3.504022e-06
3.6073203e-06
3.9767408e-06
5.2383695e-06
9.3412707e-06
2.1218352e-05
4.8486364e-05
9.6537094e-05
0.00016998886
0.00028932618
0.00054244334
0.0013540034
3.2766694e-06
3.3102566e-06
3.4454921e-06
3.9200366e-06
5.512335e-06
1.0542478e-05
2.4278371e-05
5.3452376e-05
0.00010183911
0.00017408281
0.00029167656
0.00054321637
0.0013554084
3.0951868e-06
3.1395803e-06
3.315394e-06
3.9217755e-06
5.9187332e-06
1.2009945e-05
2.7603266e-05
5.8312862e-05
0.0001066899
0.00017771679
0.00029376257
0.00054397675
0.0013569728
2.9329181e-06
2.991133e-06
3.2183574e-06
3.9893517e-06
6.4756801e-06
1.3749403e-05
3.112658e-05
6.3000085e-05
0.00011111418
0.0001809559
0.00029563313
0.00054473837
0.0013586903
2.7888292e-06
2.8646819e-06
3.1568533e-06
4.132263e-06
7.2016968e-06
1.5755029e-05
3.4776808e-05
6.7468124e-05
0.00011514328
0.00018385585
0.00029732665
0.00054550992
0.0013605531
2.6623516e-06
2.7606642e-06
3.1346229e-06
4.362102e-06
8.1139276e-06
1.8008404e-05
3.8484156e-05
7.1689805e-05
0.00011881108
0.00018646428
0.00029887505
0.00054629402
0.0013625491
2.5534088e-06
2.680258e-06
3.1568304e-06
4.6923497e-06
9.2259802e-06
2.0479255e-05
4.21859e-05
7.5652556e-05
0.00012215122
0.00018882083
0.00030030031
0.00054708344
0.001364665
2.4624667e-06
2.6254827e-06
3.2302147e-06
5.1378784e-06
1.0545685e-05
2.3127918e-05
4.5829653e-05
7.935444e-05
0.00012519597
0.00019095973
0.00030162122
0.00054787012
0.0013668874
2.3906118e-06
2.5993266e-06
3.3632046e-06
5.7140892e-06
1.2073206e-05
2.5908985e-05
4.9374528e-05
8.2800768e-05
0.00012797522
0.0001929092
0.00030285018
0.00054865287
0.0013692048
2.3396576e-06
2.6059009e-06
3.5659451e-06
6.4356567e-06
1.3799941e-05
2.877532e-05
5.2790669e-05
8.6001444e-05
0.00013051585
0.0001946916
0.00030399376
0.00054944273
0.0013716092
2.3122834e-06
2.6506068e-06
3.8501618e-06
7.3149533e-06
1.5708513e-05
3.1681693e-05
5.6057927e-05
8.8969442e-05
0.00013284315
0.00019632773
0.00030505437
0.00055025018
0.0013740956
2.312204e-06
2.7402971e-06
4.2287856e-06
8.3603382e-06
1.7773921e-05
3.4587408e-05
5.9163895e-05
9.1718485e-05
0.000134977
0.0001978295
0.00030604752
0.00055107622
0.0013766577
2.3443664e-06
2.8833943e-06
4.715266e-06
9.5746047e-06
1.9965609e-05
3.7457895e-05
6.2102576e-05
9.4263947e-05
0.00013693775
0.00019920349
0.00030698675
0.00055192215
0.0013792894
2.4151613e-06
3.0899099e-06
5.3225444e-06
1.0953905e-05
2.2249994e-05
4.0265061e-05
6.4872079e-05
9.6618924e-05
0.00013873802
0.00020046565
0.00030788006
0.00055278756
0.0013819844
2.5326205e-06
3.3712892e-06
6.061731e-06
1.2487422e-05
2.4593018e-05
4.2987258e-05
6.7474462e-05
9.8797812e-05
0.00014038632
0.00020163083
0.00030873381
0.00055367121
0.0013847362
2.7065545e-06
3.739997e-06
6.940629e-06
1.4157864e-05
2.6962172e-05
4.560817e-05
6.9912765e-05
0.00010081055
0.00014189658
0.00020271014
0.00030955281
0.00055457138
0.0013875385
2.9485501e-06
4.2087761e-06
7.9623504e-06
1.5942735e-05
2.9328091e-05
4.8116704e-05
7.2192973e-05
0.0001026631
0.00014328329
0.00020371266
0.00031034058
0.00055548595
0.0013903847
3.2717205e-06
4.7895534e-06
9.1242822e-06
1.7815987e-05
3.1665001e-05
5.0504533e-05
7.431848e-05
0.00010436656
0.00014455809
0.0002046458
0.0003110997
0.0005564126
0.0013932687
3.6900855e-06
5.4920728e-06
1.0417683e-05
1.9750012e-05
3.3951699e-05
5.2768184e-05
7.6289669e-05
0.00010593299
0.00014573089
0.00020551555
0.00031183197
0.00055734877
0.0013961839
4.2174845e-06
6.3224278e-06
1.1827952e-05
2.171714e-05
3.6170246e-05
5.4901159e-05
7.8113757e-05
0.00010737249
0.00014680993
0.00020632674
0.00031253851
0.00055829181
0.0013991243
4.8660258e-06
7.2817744e-06
1.3335593e-05
2.3691123e-05
3.8306688e-05
5.6898168e-05
7.9798305e-05
0.0001086939
0.00014780214
0.00020708321
0.00031321994
0.0005592389
0.0014020836
5.6442491e-06
8.3655564e-06
1.4917866e-05
2.564878e-05
4.0344257e-05
5.8760207e-05
8.1350099e-05
0.00010990478
0.00014871321
0.00020778792
0.00031387635
0.00056018713
0.0014050556
6.555359e-06
9.5634597e-06
1.6550686e-05
2.7565321e-05
4.2272541e-05
6.0488808e-05
8.2775228e-05
0.00011101156
0.00014954783
0.00020844308
0.00031450744
0.00056113341
0.0014080338
7.5961532e-06
1.0860441e-05
1.8207369e-05
2.9419102e-05
4.408453e-05
6.2085814e-05
8.4079034e-05
0.0001120196
0.00015030968
0.00020905022
0.00031511249
0.00056207453
0.0014110119
8.756315e-06
1.2235551e-05
1.9861232e-05
3.1193216e-05
4.5774965e-05
6.355318e-05
8.5266112e-05
0.00011293328
0.00015100165
0.00020961023
0.00031569038
0.00056300711
0.0014139831
1.0017521e-05
1.3664334e-05
2.1488449e-05
3.2873859e-05
4.7340054e-05
6.4892867e-05
8.6340347e-05
0.00011375612
0.0001516258
0.00021012347
0.00031623966
0.00056392755
0.0014169405
1.1355901e-05
1.5121211e-05
2.3068171e-05
3.4450178e-05
4.8777289e-05
6.6106812e-05
8.7304984e-05
0.00011449085
0.00015218355
0.00021058975
0.00031675852
0.00056483204
0.0014198766
1.2744264e-05
1.6581081e-05
2.4582902e-05
3.5914123e-05
5.0085355e-05
6.719697e-05
8.8162738e-05
0.00011513953
0.00015267569
0.00021100843
0.00031724482
0.00056571653
0.0014227834
1.4154481e-05
1.8020637e-05
2.6018604e-05
3.7260265e-05
5.1264092e-05
6.8165413e-05
8.8915932e-05
0.0001157037
0.00015310253
0.00021137848
0.00031769616
0.00056657676
0.0014256524
1.555958e-05
1.9419301e-05
2.7364606e-05
3.8485598e-05
5.231449e-05
6.9014449e-05
8.9566665e-05
0.0001161845
0.00015346401
0.00021169859
0.00031810989
0.00056740823
0.0014284744
1.6935338e-05
2.0759786e-05
2.8613378e-05
3.9589303e-05
5.3238669e-05
6.9746757e-05
9.0116988e-05
0.00011658289
0.00015375983
0.00021196724
0.00031848323
0.00056820634
0.0014312396
1.8261268e-05
2.2028325e-05
2.9760206e-05
4.0572478e-05
5.4039842e-05
7.0365496e-05
9.0569077e-05
0.00011689975
0.00015398961
0.00021218284
0.00031881337
0.0005689664
0.0014339377
1.9521047e-05
2.3214635e-05
3.0802835e-05
4.1437841e-05
5.4722227e-05
7.0874392e-05
9.0925391e-05
0.00011713613
0.00015415307
0.0002123439
0.00031909759
0.00056968379
0.0014365579
2.0702514e-05
2.4311687e-05
3.1741085e-05
4.2189435e-05
5.5290937e-05
7.1277772e-05
9.1188791e-05
0.00011729337
0.00015425016
0.00021244916
0.00031933341
0.00057035412
0.0014390892
2.1797369e-05
2.5315353e-05
3.2576489e-05
4.2832332e-05
5.5751828e-05
7.1580558e-05
9.1362626e-05
0.00011737319
0.0001542812
0.00021249774
0.00031951874
0.00057097333
0.0014415208
2.2800692e-05
2.6223983e-05
3.3311941e-05
4.3372362e-05
5.6111337e-05
7.1788219e-05
9.1450777e-05
0.00011737787
0.00015424704
0.00021248927
0.00031965202
0.0005715379
0.0014438419
2.3710402e-05
2.7037977e-05
3.3951388e-05
4.3815873e-05
5.6376315e-05
7.1906691e-05
9.1457656e-05
0.00011731022
0.00015414911
0.00021242401
0.00031973234
0.00057204501
0.0014460427
2.4526701e-05
2.775936e-05
3.4499554e-05
4.4169528e-05
5.6553869e-05
7.1942282e-05
9.1388169e-05
0.00011717368
0.00015398951
0.00021230291
0.00031975955
0.00057249258
0.001448114
2.5251561e-05
2.8391403e-05
3.4961706e-05
4.4440129e-05
5.6651212e-05
7.1901558e-05
9.1247654e-05
0.00011697222
0.00015377099
0.00021212768
0.00031973428
0.00057287946
0.0014500481
2.5888277e-05
2.8938285e-05
3.5343455e-05
4.4634485e-05
5.6675544e-05
7.1791233e-05
9.1041801e-05
0.00011671034
0.00015349694
0.00021190075
0.00031965799
0.00057320541
0.0014518386
2.6441082e-05
2.9404816e-05
3.5650591e-05
4.4759302e-05
5.6633948e-05
7.1618067e-05
9.0776553e-05
0.00011639299
0.00015317136
0.00021162526
0.00031953294
0.00057347114
0.0014534809
2.6914834e-05
2.9796196e-05
3.5888957e-05
4.4821107e-05
5.6533304e-05
7.1388765e-05
9.0458012e-05
0.00011602548
0.00015279873
0.00021130497
0.00031936211
0.00057367822
0.0014549719
2.7314771e-05
3.0117836e-05
3.6064345e-05
4.4826184e-05
5.6380237e-05
7.1109905e-05
9.0092342e-05
0.00011561335
0.00015238399
0.00021094419
0.00031914912
0.00057382906
0.0014563106
2.7646312e-05
3.0375211e-05
3.6182416e-05
4.4780538e-05
5.618106e-05
7.0787858e-05
8.9685679e-05
0.00011516233
0.00015193234
0.00021054764
0.00031889812
0.00057392676
0.0014574976
2.7914913e-05
3.0573747e-05
3.6248645e-05
4.4689865e-05
5.5941756e-05
7.0428744e-05
8.924405e-05
0.00011467816
0.0001514492
0.00021012035
0.00031861364
0.00057397499
0.0014585351
2.8125957e-05
3.0718741e-05
3.6268276e-05
4.4559538e-05
5.5667949e-05
7.0038383e-05
8.8773302e-05
0.00011416657
0.00015094006
0.00020966752
0.00031830047
0.00057397786
0.0014594269
2.8284676e-05
3.0815303e-05
3.6246295e-05
4.4394597e-05
5.5364901e-05
6.9622268e-05
8.8279046e-05
0.00011363314
0.00015041039
0.00020919439
0.00031796353
0.00057393977
0.0014601783
2.8396094e-05
3.0868314e-05
3.6187415e-05
4.4199748e-05
5.5037506e-05
6.9185543e-05
8.7766606e-05
0.00011308328
0.00014986552
0.00020870618
0.00031760774
0.0005738653
0.0014607954
2.8464992e-05
3.08824e-05
3.6096062e-05
4.3979369e-05
5.4690294e-05
6.8732987e-05
8.7240986e-05
0.0001125221
0.00014931062
0.00020820791
0.00031723792
0.00057375905
0.0014612854
2.8495888e-05
3.0861916e-05
3.5976373e-05
4.3737514e-05
5.4327438e-05
6.8269016e-05
8.6706843e-05
0.00011195443
0.00014875054
0.0002077044
0.00031685869
0.00057362558
0.0014616564
2.8493021e-05
3.0810942e-05
3.5832201e-05
4.3477922e-05
5.3952762e-05
6.7797676e-05
8.616847e-05
0.00011138475
0.00014818983
0.00020720012
0.00031647439
0.0005734693
0.0014619166
2.846035e-05
3.0733279e-05
3.5667115e-05
4.3204029e-05
5.3569755e-05
6.732265e-05
8.5629785e-05
0.00011081715
0.00014763269
0.00020669923
0.00031608903
0.00057329439
0.0014620749
2.8401554e-05
3.0632453e-05
3.5484409e-05
4.2918981e-05
5.3181583e-05
6.6847269e-05
8.5094333e-05
0.00011025536
0.0001470829
0.00020620546
0.00031570625
0.00057310477
0.0014621401
2.832004e-05
3.0511723e-05
3.5287114e-05
4.2625646e-05
5.2791104e-05
6.637452e-05
8.4565285e-05
0.0001097027
0.00014654384
0.00020572215
0.00031532929
0.00057290405
0.0014621213
2.8218951e-05
3.0374091e-05
3.5078006e-05
4.2326625e-05
5.2400884e-05
6.5907062e-05
8.4045451e-05
0.00010916211
0.00014601849
0.00020525219
0.00031496097
0.00057269548
0.0014620271
2.8101173e-05
3.022231e-05
3.4859619e-05
4.202427e-05
5.2013212e-05
6.544724e-05
8.3537291e-05
0.00010863613
0.00014550941
0.00020479808
0.0003146037
0.00057248199
0.0014618661
2.7969352e-05
3.0058897e-05
3.4634257e-05
4.1720697e-05
5.1630116e-05
6.4997105e-05
8.3042929e-05
0.00010812695
0.00014501878
0.00020436187
0.0003142595
0.00057226614
0.0014616466
2.7825905e-05
2.9886146e-05
3.4404005e-05
4.1417797e-05
5.1253382e-05
6.4558428e-05
8.2564174e-05
0.0001076364
0.00014454836
0.00020394525
0.00031392999
0.00057205014
0.0014613761
2.767303e-05
2.9706139e-05
3.4170745e-05
4.1117255e-05
5.0884565e-05
6.4132721e-05
8.2102537e-05
0.00010716597
0.00014409959
0.00020354951
0.00031361643
0.00057183586
0.0014610622
2.7512723e-05
2.9520762e-05
3.3936167e-05
4.0820558e-05
5.0525009e-05
6.3721255e-05
8.1659253e-05
0.00010671686
0.00014367356
0.00020317564
0.00031331986
0.00057162464
0.0014607112
2.7346789e-05
2.9331714e-05
3.3701778e-05
4.0529013e-05
5.0175863e-05
6.3325076e-05
8.1235302e-05
0.00010628996
0.00014327105
0.00020282426
0.00031304077
0.00057141655
0.0014603288
2.7176854e-05
2.9140519e-05
3.3468921e-05
4.0243759e-05
4.9838093e-05
6.2945028e-05
8.0831432e-05
0.00010588593
0.00014289262
0.0002024959
0.00031277957
0.00057120938
0.0014599201
2.7004378e-05
2.8948541e-05
3.3238779e-05
3.9965775e-05
4.9512496e-05
6.2581764e-05
8.0448175e-05
0.00010550517
0.00014253849
0.00020219043
0.00031253535
0.00057100472
0.0014594899
2.6830666e-05
2.8756993e-05
3.3012393e-05
3.9695898e-05
4.919972e-05
6.2235773e-05
8.008589e-05
0.00010514793
0.00014220885
0.00020190799
0.00031230608
0.00057080565
0.0014590439
2.665688e-05
2.8566949e-05
3.2790669e-05
3.9434834e-05
4.8900272e-05
6.1907393e-05
7.9744762e-05
0.00010481423
0.00014190342
0.00020164695
0.00031209268
0.00057061377
0.0014585868
2.6484051e-05
2.8379354e-05
3.2574388e-05
3.9183163e-05
4.8614535e-05
6.1596818e-05
7.9424808e-05
0.00010450387
0.00014162168
0.00020140634
0.00031189565
0.00057043024
0.0014581233
2.6313084e-05
2.8195033e-05
3.236422e-05
3.8941361e-05
4.8342782e-05
6.1304142e-05
7.9125965e-05
0.00010421665
0.00014136218
0.00020118617
0.00031171511
0.00057025585
0.0014576574
2.6144775e-05
2.8014704e-05
3.216073e-05
3.87098e-05
4.8085185e-05
6.1029338e-05
7.8847983e-05
0.00010395152
0.00014112444
0.0002009861
0.00031155088
0.00057009108
0.0014571926
2.5979817e-05
2.7838984e-05
3.196439e-05
3.8488764e-05
4.7841823e-05
6.0772276e-05
7.8590335e-05
0.00010370764
0.00014090797
0.00020080564
0.00031140261
0.00056993618
0.0014567319
2.5818805e-05
2.7668401e-05
3.1775586e-05
3.8278458e-05
4.7612708e-05
6.0532708e-05
7.8352159e-05
0.0001034845
0.00014071217
0.00020064415
0.00031126979
0.00056979123
0.0014562781
2.5662254e-05
2.7503401e-05
3.1594635e-05
3.8079037e-05
4.7397761e-05
6.0309963e-05
7.813297e-05
0.00010328148
0.0001405363
0.00020050088
0.0003111518
0.00056965616
0.0014558335
2.5510602e-05
2.7344364e-05
3.1421803e-05
3.7890539e-05
4.7196579e-05
6.010365e-05
7.7932217e-05
0.0001030979
0.00014037959
0.00020037501
0.00031104796
0.0005695308
0.0014553997
2.5364231e-05
2.7191608e-05
3.1257217e-05
3.7712815e-05
4.7008904e-05
5.9913334e-05
7.7749301e-05
0.000102933
0.00014024116
0.00020026566
0.00031095753
0.00056941493
0.0014549786
2.5223419e-05
2.7045325e-05
3.1100919e-05
3.7545753e-05
4.6834443e-05
5.9738542e-05
7.7583576e-05
0.00010278598
0.00014012013
0.00020017191
0.00031087973
0.00056930827
0.0014545714
2.5088369e-05
2.6905649e-05
3.0952919e-05
3.7389206e-05
4.6672872e-05
5.9578765e-05
7.7434359e-05
0.00010265603
0.00014001555
0.00020009281
0.00031081379
0.00056921051
0.0014541791
2.4959231e-05
2.6772669e-05
3.081319e-05
3.7242992e-05
4.6523835e-05
5.9433468e-05
7.7300938e-05
0.00010254227
0.00013992648
0.00020002744
0.00031075893
0.00056912131
0.0014538027
2.4836109e-05
2.6646436e-05
3.0681673e-05
3.7106904e-05
4.638695e-05
5.9302085e-05
7.7182582e-05
0.00010244384
0.00013985197
0.00019997483
0.00031071437
0.00056904033
0.0014534428
2.4719068e-05
2.6526963e-05
3.0558273e-05
3.6980703e-05
4.6261811e-05
5.9184036e-05
7.7078539e-05
0.00010235985
0.00013979105
0.00019993406
0.00031067934
0.00056896722
0.0014531
2.4608138e-05
2.6414229e-05
3.044287e-05
3.6864129e-05
4.6147991e-05
5.9078719e-05
7.698805e-05
0.00010228941
0.00013974277
0.00019990421
0.00031065309
0.00056890161
0.0014527747
2.4503316e-05
2.6308185e-05
3.0335317e-05
3.6756895e-05
4.6045044e-05
5.8985523e-05
7.6910349e-05
0.00010223165
0.00013970621
0.00019988439
0.00031063489
0.00056884311
0.0014524671
2.4404571e-05
2.6208754e-05
3.023544e-05
3.66587e-05
4.5952514e-05
5.8903827e-05
7.684467e-05
0.00010218569
0.00013968044
0.00019987371
0.00031062404
0.00056879134
0.0014521772
2.4311845e-05
2.6115835e-05
3.0143049e-05
3.6569224e-05
4.5869928e-05
5.8833008e-05
7.6790251e-05
0.00010215066
0.00013966456
0.00019987133
0.00031061984
0.00056874592
0.0014519051
2.4225058e-05
2.6029305e-05
3.0057933e-05
3.6488132e-05
4.579681e-05
5.8772441e-05
7.6746338e-05
0.00010212574
0.00013965771
0.00019987645
0.00031062165
0.00056870644
0.0014516506
2.4144108e-05
2.5949021e-05
2.9979863e-05
3.6415081e-05
4.5732677e-05
5.8721503e-05
7.6712188e-05
0.00010211008
0.00013965905
0.00019988828
0.00031062883
0.00056867253
0.0014514134
2.4068875e-05
2.5874823e-05
2.99086e-05
3.6349714e-05
4.5677043e-05
5.8679576e-05
7.6687074e-05
0.00010210291
0.00013966777
0.0001999061
0.0003106408
0.00056864378
0.0014511932
2.3999222e-05
2.5806538e-05
2.9843891e-05
3.6291674e-05
4.5629424e-05
5.8646053e-05
7.6670286e-05
0.00010210345
0.00013968312
0.00019992919
0.00031065698
0.00056861984
0.0014509896
2.3934998e-05
2.5743979e-05
2.9785474e-05
3.6240594e-05
4.5589336e-05
5.8620337e-05
7.6661134e-05
0.00010211095
0.00013970435
0.0001999569
0.00031067686
0.00056860034
0.001450802
2.3876039e-05
2.5686947e-05
2.9733081e-05
3.6196108e-05
4.5556303e-05
5.8601843e-05
7.6658953e-05
0.00010212473
0.00013973077
0.00019998862
0.00031069995
0.00056858494
0.00145063
2.3822171e-05
2.5635235e-05
2.9686437e-05
3.615785e-05
4.5529852e-05
5.8590002e-05
7.66631e-05
0.00010214409
0.00013976174
0.00020002377
0.00031072579
0.00056857333
0.0014504729
2.377321e-05
2.5588629e-05
2.9645263e-05
3.6125452e-05
4.5509522e-05
5.8584262e-05
7.6672959e-05
0.00010216841
0.00013979663
0.00020006181
0.00031075397
0.00056856521
0.0014503304
2.3728966e-05
2.5546908e-05
2.9609278e-05
3.6098554e-05
4.549486e-05
5.8584088e-05
7.6687938e-05
0.00010219706
0.00013983487
0.00020010225
0.0003107841
0.00056856031
0.0014502016
2.3689242e-05
2.5509848e-05
2.9578201e-05
3.6076795e-05
4.5485425e-05
5.8588966e-05
7.6707475e-05
0.00010222949
0.00013987593
0.00020014462
0.00031081584
0.00056855836
0.0014500862
2.3653835e-05
2.5477219e-05
2.9551748e-05
3.6059824e-05
4.5480786e-05
5.85984e-05
7.6731034e-05
0.00010226515
0.0001399193
0.00020018851
0.00031084885
0.00056855912
0.0014499835
2.3622542e-05
2.5448793e-05
2.9529642e-05
3.6047294e-05
4.5480527e-05
5.8611914e-05
7.6758106e-05
0.00010230354
0.00013996452
0.00020023351
0.00031088285
0.00056856235
0.001449893
2.3595153e-05
2.5424338e-05
2.9511603e-05
3.6038865e-05
4.5484247e-05
5.8629055e-05
7.6788209e-05
0.00010234417
0.00014001116
0.00020027928
0.00031091754
0.00056856783
0.001449814
2.3571459e-05
2.5403623e-05
2.9497357e-05
3.6034208e-05
4.5491557e-05
5.8649389e-05
7.682089e-05
0.00010238661
0.0001400588
0.00020032547
0.00031095267
0.00056857532
0.001449746
2.355125e-05
2.5386419e-05
2.9486634e-05
3.6033001e-05
4.5502086e-05
5.8672506e-05
7.6855722e-05
0.00010243044
0.00014010709
0.00020037179
0.000310988
0.0005685846
0.0014496883
2.3534318e-05
2.5372497e-05
2.947917e-05
3.6034933e-05
4.5515475e-05
5.8698016e-05
7.6892305e-05
0.00010247528
0.00014015569
0.00020041794
0.00031102331
0.00056859542
0.0014496403
2.3520455e-05
2.5361633e-05
2.9474708e-05
3.6039705e-05
4.5531386e-05
5.8725552e-05
7.6930268e-05
0.00010252078
0.00014020428
0.00020046369
0.00031105837
0.00056860756
0.0014496014
2.3509456e-05
2.5353607e-05
2.9472995e-05
3.6047028e-05
4.5549495e-05
5.8754769e-05
7.6969264e-05
0.00010256662
0.00014025259
0.0002005088
0.00031109301
0.0005686208
0.0014495708
2.3501119e-05
2.5348203e-05
2.9473789e-05
3.6056626e-05
4.5569498e-05
5.8785346e-05
7.7008976e-05
0.0001026125
0.00014030037
0.00020055307
0.00031112706
0.00056863493
0.0014495478
2.3495247e-05
2.5345211e-05
2.9476855e-05
3.6068236e-05
4.5591107e-05
5.8816985e-05
7.7049112e-05
0.00010265816
0.0001403474
0.00020059633
0.00031116038
0.00056864977
0.0014495319
2.3491647e-05
2.5344426e-05
2.9481969e-05
3.6081608e-05
4.5614052e-05
5.8849407e-05
7.7089406e-05
0.00010270337
0.00014039348
0.00020063843
0.00031119284
0.00056866517
0.0014495223
2.3490132e-05
2.5345652e-05
2.9488914e-05
3.6096506e-05
4.5638082e-05
5.8882359e-05
7.7129616e-05
0.0001027479
0.00014043844
0.00020067925
0.00031122436
0.00056868099
0.0014495186
2.3490522e-05
2.5348699e-05
2.9497485e-05
3.6112707e-05
4.5662962e-05
5.8915608e-05
7.7169526e-05
0.00010279158
0.00014048214
0.00020071868
0.00031125486
0.00056869714
0.0014495201
2.349264e-05
2.5353385e-05
2.9507485e-05
3.6130001e-05
4.5688475e-05
5.8948939e-05
7.7208941e-05
0.00010283425
0.00014052447
0.00020075666
0.0003112843
0.00056871354
0.0014495265
2.3496318e-05
2.5359533e-05
2.9518729e-05
3.6148192e-05
4.5714421e-05
5.8982159e-05
7.7247686e-05
0.00010287575
0.00014056531
0.00020079312
0.00031131263
0.00056873014
0.0014495373
2.3501394e-05
2.5366978e-05
2.9531041e-05
3.6167095e-05
4.5740612e-05
5.901509e-05
7.7285606e-05
0.00010291597
0.00014060458
0.000200828
0.00031133982
0.00056874687
0.0014495523
2.3507713e-05
2.5375559e-05
2.9544253e-05
3.6186539e-05
4.576688e-05
5.9047575e-05
7.7322565e-05
0.00010295481
0.00014064222
0.00020086127
0.00031136585
0.00056876367
0.0014495709
2.3515124e-05
2.5385123e-05
2.9558208e-05
3.6206363e-05
4.5793068e-05
5.9079469e-05
7.7358441e-05
0.00010299216
0.00014067815
0.00020089288
0.00031139068
0.00056878046
0.001449593
2.3523487e-05
2.5395528e-05
2.9572759e-05
3.622642e-05
4.5819032e-05
5.9110644e-05
7.7393129e-05
0.00010302796
0.00014071233
0.00020092281
0.00031141427
0.00056879713
0.0014496181
2.3532666e-05
2.5406635e-05
2.9587768e-05
3.6246572e-05
4.5844645e-05
5.9140987e-05
7.7426539e-05
0.00010306214
0.00014074473
0.00020095103
0.00031143659
0.00056881354
0.0014496457
2.3542532e-05
2.5418317e-05
2.9603106e-05
3.6266695e-05
4.586979e-05
5.9170399e-05
7.7458595e-05
0.00010309465
0.00014077531
0.00020097753
0.00031145758
0.00056882944
0.0014496753
2.3552968e-05
2.5430453e-05
2.9618654e-05
3.6286674e-05
4.5894365e-05
5.9198797e-05
7.7489238e-05
0.00010312546
0.00014080408
0.00020100231
0.00031147724
0.00056884448
0.0014497064
2.3563859e-05
2.5442931e-05
2.9634303e-05
3.6306409e-05
4.5918282e-05
5.922611e-05
7.7518422e-05
0.00010315454
0.00014083101
0.00020102536
0.00031149545
0.00056885863
0.0014497385
2.3575102e-05
2.545565e-05
2.9649954e-05
3.6325807e-05
4.5941464e-05
5.9252282e-05
7.7546115e-05
0.0001031819
0.00014085615
0.00020104673
0.00031151211
0.00056887199
0.0014497712
2.3586602e-05
2.5468514e-05
2.9665518e-05
3.6344791e-05
4.5963846e-05
5.9277272e-05
7.7572301e-05
0.00010320754
0.0001408795
0.00020106638
0.00031152728
0.00056888459
0.0014498041
2.359827e-05
2.5481438e-05
2.9680915e-05
3.636329e-05
4.5985379e-05
5.9301051e-05
7.7596977e-05
0.00010323148
0.00014090112
0.00020108429
0.0003115411
0.00056889649
0.001449837
2.3610026e-05
2.5494344e-05
2.9696075e-05
3.6381248e-05
4.6006021e-05
5.9323599e-05
7.762015e-05
0.00010325376
0.00014092099
0.00020110056
0.00031155364
0.00056890772
0.0014498697
2.3621798e-05
2.5507163e-05
2.9710936e-05
3.6398615e-05
4.6025742e-05
5.934491e-05
7.7641835e-05
0.0001032744
0.00014093914
0.00020111528
0.00031156502
0.00056891838
0.0014499022
2.363352e-05
2.5519833e-05
2.9725444e-05
3.6415351e-05
4.604452e-05
5.9364985e-05
7.7662058e-05
0.00010329339
0.00014095565
0.00020112856
0.00031157534
0.00056892855
0.0014499343
2.3645131e-05
2.5532298e-05
2.9739552e-05
3.6431423e-05
4.6062341e-05
5.9383833e-05
7.7680813e-05
0.00010331078
0.0001409706
0.00020114049
0.00031158468
0.00056893829
0.0014499661
2.3656579e-05
2.5544508e-05
2.975322e-05
3.6446804e-05
4.6079199e-05
5.9401446e-05
7.7698115e-05
0.00010332663
0.00014098406
0.00020115114
0.00031159312
0.00056894768
0.0014499977
2.3667814e-05
2.555642e-05
2.9766413e-05
3.6461477e-05
4.609508e-05
5.9417823e-05
7.7714002e-05
0.00010334101
0.00014099611
0.00020116059
0.00031160072
0.00056895674
0.0014500291
2.3678793e-05
2.5567995e-05
2.9779104e-05
3.6475417e-05
4.6109971e-05
5.9432981e-05
7.7728516e-05
0.00010335395
0.00014100681
0.0002011689
0.00031160753
0.00056896548
0.0014500602
2.3689478e-05
2.5579198e-05
2.9791261e-05
3.6488603e-05
4.6123872e-05
5.9446944e-05
7.7741697e-05
0.00010336553
0.00014101622
0.00020117612
0.00031161356
0.00056897386
0.001450091
2.3699832e-05
2.5589995e-05
2.9802857e-05
3.6501025e-05
4.6136792e-05
5.9459737e-05
7.775359e-05
0.0001033758
0.0001410244
0.00020118229
0.00031161883
0.00056898183
0.0014501213
2.3709821e-05
2.5600358e-05
2.9813874e-05
3.6512677e-05
4.6148742e-05
5.9471392e-05
7.7764243e-05
0.00010338481
0.00014103141
0.00020118747
0.00031162333
0.00056898931
0.001450151
2.3719418e-05
2.5610261e-05
2.9824297e-05
3.6523558e-05
4.6159738e-05
5.9481943e-05
7.7773704e-05
0.00010339263
0.00014103731
0.00020119169
0.00031162708
0.00056899621
0.0014501797
2.37286e-05
2.5619687e-05
2.9834116e-05
3.6533673e-05
4.6169804e-05
5.9491429e-05
7.7782027e-05
0.00010339931
0.00014104215
0.000201195
0.00031163008
0.00056900245
0.0014502073
2.3737349e-05
2.5628622e-05
2.9843328e-05
3.6543034e-05
4.6178965e-05
5.9499894e-05
7.778927e-05
0.00010340492
0.00014104601
0.00020119745
0.00031163235
0.00056900799
0.0014502333
2.3745654e-05
2.5637058e-05
2.9851935e-05
3.6551655e-05
4.6187254e-05
5.9507385e-05
7.7795492e-05
0.00010340954
0.00014104896
0.00020119912
0.00031163394
0.00056901281
0.0014502577
2.3753508e-05
2.5644993e-05
2.9859944e-05
3.6559556e-05
4.6194705e-05
5.9513952e-05
7.7800758e-05
0.00010341323
0.00014105106
0.00020120006
0.00031163491
0.00056901693
0.0014502803
2.3760908e-05
2.5652428e-05
2.9867364e-05
3.6566761e-05
4.6201357e-05
5.9519648e-05
7.7805133e-05
0.00010341606
0.0001410524
0.00020120036
0.00031163532
0.00056902043
0.001450301
2.3767855e-05
2.5659369e-05
2.9874212e-05
3.6573296e-05
4.6207251e-05
5.9524528e-05
7.7808682e-05
0.00010341812
0.00014105306
0.00020120009
0.00031163527
0.0005690234
0.00145032
2.3774356e-05
2.5665825e-05
2.9880503e-05
3.6579191e-05
4.6212429e-05
5.9528647e-05
7.781147e-05
0.00010341947
0.00014105311
0.00020119934
0.00031163484