/*--------------------------------*- C++ -*----------------------------------*\
| =========                 |                                                 |
| \\      /  F ield         | OpenFOAM: The Open Source CFD Toolbox           |
|  \\    /   O peration     | Version:  2506                                  |
|   \\  /    A nd           | Website:  www.openfoam.com                      |
|    \\/     M anipulation  |                                                 |
\*---------------------------------------------------------------------------*/
FoamFile
{
    version     2.0;
    format      ascii;
    arch        "LSB;label=32;scalar=64";
    class       volScalarField;
    location    "11000/water";
    object      nut;
}
// * * * * * * * * * * * * * * * * * * * * * * * * * * * * * * * * * * * * * //

dimensions      [0 2 -1 0 0 0 0];

internalField   nonuniform List<scalar> 
2600
(
4.0562043e-05
4.0561942e-05
4.0561944e-05
4.0561981e-05
4.0561942e-05
4.0561434e-05
4.0558261e-05
4.0540002e-05
4.0435343e-05
3.98338e-05
3.6541397e-05
2.4161555e-05
1.4889524e-05
3.944741e-05
3.9447468e-05
3.944759e-05
3.9447676e-05
3.9447275e-05
3.9444342e-05
3.9428907e-05
3.9352895e-05
3.8988431e-05
3.7314814e-05
3.0763187e-05
1.7536144e-05
1.684056e-05
3.852265e-05
3.852264e-05
3.8522725e-05
3.8522528e-05
3.8520597e-05
3.8510798e-05
3.8466747e-05
3.8277827e-05
3.7500368e-05
3.454641e-05
2.5814945e-05
1.4669956e-05
1.7712619e-05
3.7742032e-05
3.774193e-05
3.7741811e-05
3.7740766e-05
3.7735283e-05
3.7711707e-05
3.7617453e-05
3.7258039e-05
3.5961308e-05
3.177518e-05
2.2061889e-05
1.3531464e-05
1.7967898e-05
3.7073562e-05
3.7073366e-05
3.7072781e-05
3.7069955e-05
3.7057916e-05
3.7011651e-05
3.6843992e-05
3.6266509e-05
3.4405655e-05
2.9188861e-05
1.9425178e-05
1.3345943e-05
1.7902414e-05
3.6493786e-05
3.6493393e-05
3.6491924e-05
3.648598e-05
3.646354e-05
3.6384687e-05
3.612226e-05
3.5294625e-05
3.2873382e-05
2.6881541e-05
1.771645e-05
1.3793839e-05
1.7689846e-05
3.5985207e-05
3.5984445e-05
3.5981496e-05
3.5970726e-05
3.5933497e-05
3.5812307e-05
3.5437992e-05
3.4343601e-05
3.1395257e-05
2.4892541e-05
1.6781972e-05
1.4727875e-05
1.7427344e-05
3.5534568e-05
3.55332e-05
3.5528007e-05
3.5510417e-05
3.5453869e-05
3.5281761e-05
3.478374e-05
3.3418009e-05
2.9989903e-05
2.3242727e-05
1.6521213e-05
1.605365e-05
1.7168093e-05
3.5131649e-05
3.5129373e-05
3.5121029e-05
3.5094485e-05
3.5014364e-05
3.4784646e-05
3.4156253e-05
3.2521766e-05
2.8667649e-05
2.1957692e-05
1.6869959e-05
1.7676047e-05
1.694009e-05
3.4768438e-05
3.47649e-05
3.4752406e-05
3.4714802e-05
3.4607522e-05
3.4315777e-05
3.3554458e-05
3.16563e-05
2.7438403e-05
2.1076946e-05
1.7774701e-05
1.9481897e-05
1.6755877e-05
3.4438571e-05
3.443338e-05
3.4415717e-05
3.4365168e-05
3.4228127e-05
3.3872266e-05
3.2977968e-05
3.0820513e-05
2.6321667e-05
2.0649591e-05
1.9168673e-05
2.1348725e-05
1.6617712e-05
3.4136931e-05
3.4129689e-05
3.4105903e-05
3.4040932e-05
3.3872746e-05
3.3452766e-05
3.2426062e-05
3.0012536e-05
2.5355877e-05
2.0719809e-05
2.0958175e-05
2.3166793e-05
1.6521078e-05
3.3859367e-05
3.3849701e-05
3.3819003e-05
3.3738723e-05
3.3539365e-05
3.3056856e-05
3.1897087e-05
2.923354e-05
2.4602257e-05
2.1309035e-05
2.3024752e-05
2.4858007e-05
1.6457822e-05
3.3602495e-05
3.3590098e-05
3.355197e-05
3.3456247e-05
3.3227088e-05
3.2684517e-05
3.1388405e-05
2.8493549e-05
2.4138757e-05
2.2402735e-05
2.5241354e-05
2.6381455e-05
1.6418929e-05
3.3363555e-05
3.334823e-05
3.3302533e-05
3.3192135e-05
3.2935885e-05
3.2335692e-05
3.0897111e-05
2.7818119e-05
2.4044358e-05
2.3946906e-05
2.7493335e-05
2.7726694e-05
1.6396422e-05
3.3140311e-05
3.3122024e-05
3.3069114e-05
3.2945826e-05
3.2666358e-05
3.2009929e-05
3.0421904e-05
2.725306e-05
2.4379894e-05
2.5855075e-05
2.9693858e-05
2.8902281e-05
1.6384202e-05
3.2930983e-05
3.2909915e-05
3.2850758e-05
3.2717477e-05
3.2419519e-05
3.1706209e-05
2.9966345e-05
2.6863467e-05
2.5173338e-05
2.8023002e-05
3.1788481e-05
2.9925862e-05
1.6378087e-05
3.27342e-05
3.2710811e-05
3.2647097e-05
3.2507877e-05
3.219656e-05
3.1423099e-05
2.9543334e-05
2.6725089e-05
2.6414165e-05
3.0346001e-05
3.3750499e-05
3.0817911e-05
1.6375449e-05
3.254898e-05
3.2524066e-05
3.2458325e-05
3.2318371e-05
3.1998619e-05
3.1159479e-05
2.9179673e-05
2.6909997e-05
2.805682e-05
3.2733298e-05
3.5572232e-05
3.159849e-05
1.6374764e-05
3.2374714e-05
3.234948e-05
3.2285189e-05
3.2150777e-05
3.1826588e-05
3.0916123e-05
2.8918575e-05
2.7471841e-05
3.0030665e-05
3.5115834e-05
3.7256818e-05
3.2285747e-05
1.6375224e-05
3.2211173e-05
3.2187303e-05
3.2128983e-05
3.2007273e-05
3.1681012e-05
3.0698309e-05
2.8817773e-05
2.8435851e-05
3.2252929e-05
3.7447133e-05
3.8812576e-05
3.2895331e-05
1.6376448e-05
3.2058522e-05
3.2038256e-05
3.199155e-05
3.1890271e-05
3.1562235e-05
3.051924e-05
2.8942305e-05
2.9795901e-05
3.4641249e-05
3.9699498e-05
4.0249838e-05
3.3440303e-05
1.6378293e-05
3.1917349e-05
3.1903563e-05
3.1875268e-05
3.1802262e-05
3.147098e-05
3.0403414e-05
2.9353632e-05
3.1518041e-05
3.7123065e-05
4.1858566e-05
4.1579379e-05
3.3931332e-05
1.6380731e-05
3.1788707e-05
3.1784988e-05
3.1783034e-05
3.1745667e-05
3.1409596e-05
3.0388388e-05
3.0098641e-05
3.3548311e-05
3.9640503e-05
4.3918428e-05
4.2811639e-05
3.4377031e-05
1.638378e-05
3.167417e-05
3.1684884e-05
3.1718215e-05
3.1722747e-05
3.1384108e-05
3.0523333e-05
3.1201975e-05
3.5822342e-05
4.2151079e-05
4.5878174e-05
4.3956334e-05
3.4784314e-05
1.6387467e-05
3.1575896e-05
3.1606239e-05
3.1684577e-05
3.1735683e-05
3.1406919e-05
3.0863671e-05
3.2663378e-05
3.8274457e-05
4.4625623e-05
4.7739783e-05
4.5022273e-05
3.5158739e-05
1.6391813e-05
3.1496714e-05
3.155272e-05
3.1686171e-05
3.1786998e-05
3.1499546e-05
3.1462866e-05
3.445981e-05
4.0844581e-05
4.7045146e-05
4.9506882e-05
4.6017315e-05
3.5504794e-05
1.6396824e-05
3.1440215e-05
3.1528703e-05
3.1727217e-05
3.1880504e-05
3.1694229e-05
3.2363743e-05
3.6550942e-05
4.3482184e-05
4.9397839e-05
5.1183995e-05
4.6948402e-05
3.5826124e-05
1.6402494e-05
3.141085e-05
3.1539289e-05
3.1812006e-05
3.2022927e-05
3.2033145e-05
3.3591894e-05
3.8886228e-05
4.6147426e-05
5.1676787e-05
5.2776062e-05
4.782164e-05
3.6125718e-05
1.6408802e-05
3.1414042e-05
3.1590274e-05
3.1944928e-05
3.2226119e-05
3.2564562e-05
3.5152684e-05
4.1411886e-05
4.8810348e-05
5.3878384e-05
5.4288121e-05
4.8642393e-05
3.6406047e-05
1.6415722e-05
3.1456281e-05
3.1688095e-05
3.2130757e-05
3.2509432e-05
3.3336481e-05
3.7032009e-05
4.4076505e-05
5.1449131e-05
5.6001295e-05
5.5725114e-05
4.9415387e-05
3.6669254e-05
1.642322e-05
3.1545208e-05
3.183974e-05
3.2375386e-05
3.2901322e-05
3.4389412e-05
3.9199975e-05
4.6834633e-05
5.4048187e-05
5.8045689e-05
5.7091637e-05
5.0144339e-05
3.6914943e-05
1.6431248e-05
3.1689662e-05
3.2052668e-05
3.2687146e-05
3.3439135e-05
3.5750339e-05
4.1616209e-05
4.9648333e-05
5.6596558e-05
6.0012741e-05
5.839201e-05
5.0832726e-05
3.7144922e-05
1.6439749e-05
3.1899684e-05
3.2334823e-05
3.3078704e-05
3.416634e-05
3.7429302e-05
4.423546e-05
5.2487192e-05
5.9086682e-05
6.1904243e-05
5.9630092e-05
5.1482696e-05
3.7361243e-05
1.6448668e-05
3.2186465e-05
3.2694873e-05
3.3569197e-05
3.5127411e-05
3.9419066e-05
4.7012429e-05
5.532745e-05
6.1513508e-05
6.3722343e-05
6.0809394e-05
5.2096451e-05
3.7565313e-05
1.6457958e-05
3.2562282e-05
3.3142862e-05
3.4185833e-05
3.6361552e-05
4.1697461e-05
4.9905189e-05
5.8150808e-05
6.3873834e-05
6.5469391e-05
6.1933118e-05
5.26774e-05
3.7758158e-05
1.6467586e-05
3.3040475e-05
3.3691442e-05
3.4963995e-05
3.7896949e-05
4.4231434e-05
5.287705e-05
6.0943284e-05
6.6165778e-05
6.7147567e-05
6.3002905e-05
5.3228279e-05
3.7940823e-05
1.6477531e-05
3.3635639e-05
3.435765e-05
3.5945069e-05
3.9746997e-05
4.6981725e-05
5.5897121e-05
6.369425e-05
6.8388431e-05
6.8759335e-05
6.4022595e-05
5.3751053e-05
3.8114079e-05
1.6487766e-05
3.4364225e-05
3.5164904e-05
3.7171981e-05
4.1909161e-05
4.9907182e-05
5.8940028e-05
6.6395666e-05
7.0541368e-05
7.0305658e-05
6.4995389e-05
5.424764e-05
3.8278685e-05
1.6498266e-05
3.5245723e-05
3.6144418e-05
3.8683397e-05
4.4366368e-05
5.2968081e-05
6.1985172e-05
6.9041451e-05
7.262475e-05
7.1789409e-05
6.5923872e-05
5.4719659e-05
3.8435268e-05
1.6509004e-05
3.6304394e-05
3.733502e-05
4.0508076e-05
4.7090204e-05
5.612821e-05
6.5015946e-05
7.1626956e-05
7.4638168e-05
7.3213266e-05
6.6810358e-05
5.5168629e-05
3.8584369e-05
1.6519954e-05
3.7571051e-05
3.8780602e-05
4.2660843e-05
5.0044951e-05
5.9355783e-05
6.8018901e-05
7.4148651e-05
7.6582491e-05
7.4579719e-05
6.76569e-05
5.5595891e-05
3.872645e-05
1.653109e-05
3.908386e-05
4.0525223e-05
4.5140982e-05
5.3191585e-05
6.2623574e-05
7.0983107e-05
7.6603212e-05
7.8458838e-05
7.5890908e-05
6.8465404e-05
5.6002631e-05
3.8861904e-05
1.6542386e-05
4.088691e-05
4.2606863e-05
4.79331e-05
5.6490991e-05
6.5908449e-05
7.3899529e-05
7.8988646e-05
8.0268736e-05
7.7148735e-05
6.9237566e-05
5.6389886e-05
3.8991065e-05
1.6553816e-05
4.3025771e-05
4.5051424e-05
5.1009881e-05
5.9906217e-05
6.9190869e-05
7.6760139e-05
8.1303263e-05
8.2013418e-05
7.8354963e-05
6.9974896e-05
5.675856e-05
3.911421e-05
1.6565353e-05
4.5540353e-05
4.786846e-05
5.4335754e-05
6.3403517e-05
7.2453908e-05
7.9558412e-05
8.3546726e-05
8.3693975e-05
7.9511138e-05
7.0678711e-05
5.7109425e-05
3.9231565e-05
1.6576974e-05
4.8456712e-05
5.104945e-05
5.7870626e-05
6.6952753e-05
7.5682783e-05
8.2288861e-05
8.5718424e-05
8.5311366e-05
8.0618596e-05
7.1350137e-05
5.7443132e-05
3.9343314e-05
1.6588653e-05
5.1780116e-05
5.4568628e-05
6.1572938e-05
7.0526866e-05
7.8863941e-05
8.4947813e-05
8.7817763e-05
8.6866347e-05
8.1678449e-05
7.1990114e-05
5.7760216e-05
3.9449593e-05
1.6600366e-05
5.5491357e-05
5.8385632e-05
6.5401389e-05
7.410092e-05
8.1987182e-05
8.753166e-05
8.984404e-05
8.8359439e-05
8.2691571e-05
7.2599393e-05
5.8061096e-05
3.9550499e-05
1.6612087e-05
5.9547216e-05
6.2448904e-05
6.9315562e-05
7.7653778e-05
8.5043646e-05
9.0036941e-05
9.1796375e-05
8.9790902e-05
8.3658587e-05
7.3178541e-05
5.8346084e-05
3.9646086e-05
1.662379e-05
6.388446e-05
6.6699778e-05
7.3278195e-05
8.1167572e-05
8.8025177e-05
9.2460231e-05
9.3673658e-05
9.1160707e-05
8.4579867e-05
7.3727934e-05
5.8615379e-05
3.9736371e-05
1.6635451e-05
6.8427325e-05
7.1077065e-05
7.7255177e-05
8.4626037e-05
9.0924145e-05
9.4798067e-05
9.5474525e-05
9.2468533e-05
8.5455525e-05
7.4247765e-05
5.8869077e-05
3.9821328e-05
1.664704e-05
7.3095521e-05
7.552027e-05
8.121471e-05
8.80142e-05
9.3733339e-05
9.704693e-05
9.7197363e-05
9.3713768e-05
8.6285422e-05
7.4738044e-05
5.9107165e-05
3.9900895e-05
1.6658531e-05
7.7811262e-05
7.9972297e-05
8.512726e-05
9.1318188e-05
9.6445923e-05
9.9203268e-05
9.8840341e-05
9.4895537e-05
8.7069187e-05
7.5198608e-05
5.9329534e-05
3.9974973e-05
1.6669891e-05
8.2504337e-05
8.4381451e-05
8.896566e-05
9.4525136e-05
9.9055449e-05
0.00010126356
0.00010040148
9.6012754e-05
8.7806241e-05
7.5629141e-05
5.9535982e-05
4.0043428e-05
1.6681088e-05
8.7114994e-05
8.8702729e-05
9.2705342e-05
9.7623207e-05
0.00010155592
0.00010322443
0.00010187874
9.7064184e-05
8.8495851e-05
7.6029201e-05
5.9726233e-05
4.0106099e-05
1.6692087e-05
9.1594936e-05
9.2898467e-05
9.6324615e-05
0.00010060169
0.00010394187
0.00010508272
0.00010327013
9.8048541e-05
8.9137186e-05
7.6398258e-05
5.9899956e-05
4.0162806e-05
1.6702851e-05
9.5906979e-05
9.6938407e-05
9.9804915e-05
0.00010345112
0.0001062085
0.00010683569
0.00010457387
9.8964583e-05
8.9729393e-05
7.6735739e-05
6.0056787e-05
4.0213357e-05
1.671334e-05
0.00010002393
0.00010079933
0.00010313096
0.00010616345
0.00010835179
0.00010848105
0.00010578843
9.9811221e-05
9.0271676e-05
7.7041083e-05
6.0196365e-05
4.0257565e-05
1.6723514e-05
0.00010392713
0.00010446442
0.00010629077
0.00010873218
0.00011036859
0.00011001715
0.00010691273
0.00010058762
9.0763383e-05
7.7313802e-05
6.0318362e-05
4.0295257e-05
1.6733331e-05
0.0001076049
0.00010792241
0.00010927559
0.00011115238
0.00011225667
0.00011144299
0.00010794619
0.0001012933
9.1204078e-05
7.7553534e-05
6.042252e-05
4.0326295e-05
1.674275e-05
0.00011105121
0.00011116678
0.00011207963
0.00011342076
0.00011401483
0.00011275832
0.00010888877
0.0001019282
9.1593614e-05
7.7760097e-05
6.0508685e-05
4.0350586e-05
1.6751732e-05
0.00011426437
0.00011419491
0.00011469986
0.00011553561
0.00011564284
0.00011396363
0.00010974107
0.00010249271
9.1932186e-05
7.7933539e-05
6.0576832e-05
4.0368097e-05
1.6760238e-05
0.0001172461
0.0001170073
0.00011713559
0.00011749673
0.00011714146
0.00011506015
0.00011050428
0.00010298774
9.2220362e-05
7.8074161e-05
6.0627096e-05
4.0378865e-05
1.6768237e-05
0.00012000066
0.00011960697
0.00011938821
0.00011930529
0.00011851236
0.00011604985
0.0001111802
0.0001034147
9.2459104e-05
7.8182546e-05
6.0659779e-05
4.0383004e-05
1.6775699e-05
0.00012253424
0.00012199884
0.00012146081
0.00012096367
0.00011975808
0.00011693533
0.00011177119
0.00010377548
9.2649763e-05
7.8259562e-05
6.0675363e-05
4.0380707e-05
1.6782601e-05
0.00012485442
0.00012418933
0.00012335786
0.00012247536
0.00012088192
0.00011771981
0.00011228013
0.00010407241
9.2794064e-05
7.8306352e-05
6.0674503e-05
4.0372245e-05
1.6788927e-05
0.00012696977
0.00012618596
0.00012508497
0.00012384473
0.00012188784
0.000118407
0.00011271036
0.00010430823
9.2894068e-05
7.8324321e-05
6.0658023e-05
4.0357965e-05
1.6794666e-05
0.00012888955
0.000127997
0.00012664861
0.00012507688
0.00012278035
0.00011900109
0.00011306558
0.00010448602
9.295214e-05
7.8315104e-05
6.0626894e-05
4.0338278e-05
1.6799815e-05
0.00013062348
0.00012963128
0.00012805589
0.00012617752
0.00012356442
0.00011950659
0.00011334982
0.00010460916
9.2970885e-05
7.8280532e-05
6.0582213e-05
4.031365e-05
1.6804378e-05
0.00013218149
0.00013109799
0.00012931438
0.00012715282
0.00012424537
0.0001199283
0.00011356732
0.00010468122
9.2953108e-05
7.8222592e-05
6.0525179e-05
4.0284589e-05
1.6808364e-05
0.00013357363
0.00013240645
0.00013043195
0.00012800923
0.00012482879
0.00012027119
0.00011372249
0.00010470593
9.290175e-05
7.814338e-05
6.0457063e-05
4.0251633e-05
1.6811789e-05
0.00013480993
0.00013356606
0.00013141665
0.00012875344
0.00012532042
0.00012054039
0.00011381984
0.00010468712
9.2819835e-05
7.8045068e-05
6.0379178e-05
4.0215335e-05
1.6814674e-05
0.00013590028
0.00013458616
0.00013227657
0.00012939225
0.0001257261
0.00012074104
0.00011386392
0.00010462862
9.2710429e-05
7.7929856e-05
6.0292858e-05
4.0176251e-05
1.6817042e-05
0.00013685438
0.00013547594
0.00013301977
0.00012993247
0.00012605169
0.00012087831
0.00011385926
0.0001045343
9.2576585e-05
7.7799939e-05
6.0199427e-05
4.0134928e-05
1.6818923e-05
0.00013768172
0.00013624441
0.00013365422
0.00013038088
0.00012630301
0.0001209573
0.00011381031
0.00010440792
9.2421316e-05
7.765748e-05
6.0100183e-05
4.0091898e-05
1.6820346e-05
0.00013839146
0.00013690031
0.0001341877
0.00013074416
0.00012648582
0.00012098304
0.00011372147
0.00010425319
9.2247553e-05
7.7504575e-05
5.9996376e-05
4.0047665e-05
1.6821344e-05
0.00013899246
0.00013745211
0.00013462782
0.00013102886
0.00012660574
0.00012096042
0.00011359697
0.00010407368
9.2058125e-05
7.734324e-05
5.9889197e-05
4.0002703e-05
1.6821952e-05
0.00013949322
0.00013790797
0.00013498191
0.00013124133
0.00012666822
0.00012089419
0.00011344091
0.00010387283
9.1855736e-05
7.7175387e-05
5.9779767e-05
3.9957449e-05
1.6822202e-05
0.0001399019
0.00013827571
0.00013525706
0.00013138771
0.00012667857
0.0001207889
0.00011325722
0.0001036539
9.1642944e-05
7.7002812e-05
5.9669123e-05
3.9912302e-05
1.682213e-05
0.00014022626
0.0001385628
0.00013546004
0.0001314739
0.00012664186
0.00012064894
0.00011304962
0.00010341998
9.1422152e-05
7.6827183e-05
5.9558216e-05
3.9867619e-05
1.6821768e-05
0.0001404737
0.00013877634
0.00013559733
0.00013150557
0.00012656294
0.00012047846
0.00011282166
0.00010317399
9.1195591e-05
7.6650033e-05
5.9447905e-05
3.9823714e-05
1.682115e-05
0.00014065119
0.00013892306
0.00013567507
0.00013148809
0.00012644643
0.00012028141
0.00011257665
0.00010291861
9.0965322e-05
7.6472757e-05
5.9338957e-05
3.9780861e-05
1.6820307e-05
0.00014076535
0.00013900934
0.0001356991
0.00013142657
0.00012629672
0.00012006149
0.00011231769
0.00010265636
9.0733223e-05
7.6296605e-05
5.9232042e-05
3.9739289e-05
1.6819269e-05
0.00014082238
0.00013904116
0.00013567489
0.00013132583
0.00012611792
0.0001198222
0.00011204768
0.00010238952
9.0500996e-05
7.6122688e-05
5.9127742e-05
3.9699188e-05
1.6818065e-05
0.00014082812
0.00013902416
0.00013560763
0.0001311904
0.00012591391
0.00011956678
0.00011176927
0.00010212021
9.0270162e-05
7.5951965e-05
5.9026499e-05
3.96605e-05
1.6816718e-05
0.00014078804
0.00013896362
0.00013550216
0.00013102454
0.0001256883
0.00011929826
0.00011148492
0.0001018503
9.004207e-05
7.5785255e-05
5.8928666e-05
3.9623171e-05
1.6815251e-05
0.00014070725
0.00013886448
0.00013536302
0.00013083224
0.0001254445
0.00011901942
0.00011119688
0.00010158152
8.9817882e-05
7.5623189e-05
5.883426e-05
3.958749e-05
1.6813683e-05
0.00014059051
0.00013873135
0.00013519445
0.00013061722
0.00012518565
0.00011873287
0.00011090718
0.00010131537
8.9598621e-05
7.5466343e-05
5.8743617e-05
3.9553581e-05
1.6812032e-05
0.0001404423
0.00013856853
0.00013500043
0.00013038296
0.00012491467
0.00011844098
0.00011061768
0.00010105318
8.9385078e-05
7.5314842e-05
5.8657173e-05
3.9521536e-05
1.681032e-05
0.00014026673
0.00013838003
0.00013478462
0.00013013269
0.00012463427
0.00011814592
0.00011033003
0.00010079609
8.9177887e-05
7.5169384e-05
5.8575074e-05
3.9491407e-05
1.6808565e-05
0.00014006768
0.00013816956
0.00013455047
0.00012986939
0.00012434695
0.00011784966
0.00011004571
0.00010054512
8.8977603e-05
7.5030439e-05
5.8497454e-05
3.946323e-05
1.6806784e-05
0.0001398487
0.00013794059
0.00013430112
0.00012959583
0.00012405497
0.000117554
0.00010976596
0.0001003009
8.8785036e-05
7.4898263e-05
5.84244e-05
3.9437019e-05
1.6804993e-05
0.00013961308
0.00013769628
0.00013403952
0.00012931454
0.00012376042
0.00011726048
0.00010949184
0.00010006442
8.8600666e-05
7.4773043e-05
5.8355954e-05
3.9412768e-05
1.6803205e-05
0.00013936385
0.00013743956
0.00013376833
0.00012902783
0.00012346513
0.00011697047
0.00010922435
9.983646e-05
8.8424845e-05
7.4654899e-05
5.8292118e-05
3.9390452e-05
1.6801434e-05
0.00013910379
0.00013717311
0.00013348999
0.00012873777
0.00012317075
0.00011668514
0.00010896457
9.9617582e-05
8.8257829e-05
7.4543889e-05
5.8232857e-05
3.937003e-05
1.6799688e-05
0.00013883541
0.00013689934
0.0001332067
0.00012844619
0.00012287865
0.00011640581
0.00010871331
9.9408219e-05
8.8099785e-05
7.4440011e-05
5.8178101e-05
3.9351447e-05
1.6797978e-05
0.00013856098
0.00013662044
0.00013292037
0.00012815471
0.00012259036
0.00011613352
0.00010847121
9.9208696e-05
8.7950798e-05
7.434321e-05
5.8127752e-05
3.933464e-05
1.679631e-05
0.00013828252
0.00013633831
0.0001326328
0.000127865
0.00012230716
0.00011586917
0.00010823881
9.9019241e-05
8.7810883e-05
7.4253385e-05
5.8081685e-05
3.9319534e-05
1.679469e-05
0.00013800188
0.00013605478
0.00013234571
0.00012757849
0.00012203015
0.00011561348
0.0001080165
9.8839994e-05
8.7679995e-05
7.4170398e-05
5.8039762e-05
3.9306052e-05
1.6793124e-05
0.00013772075
0.00013577151
0.0001320606
0.00012729646
0.00012176029
0.00011536709
0.0001078046
9.8671019e-05
8.7558033e-05
7.4094079e-05
5.8001826e-05
3.9294112e-05
1.6791615e-05
0.00013744069
0.00013549001
0.00013177886
0.00012702006
0.00012149841
0.00011513052
0.00010760335
9.8512317e-05
8.7444858e-05
7.4024235e-05
5.7967715e-05
3.9283633e-05
1.6790167e-05
0.00013716312
0.00013521163
0.00013150171
0.00012675027
0.00012124522
0.00011490416
0.00010741287
9.8363831e-05
8.7340293e-05
7.3960654e-05
5.7937258e-05
3.9274533e-05
1.6788782e-05
0.00013688931
0.00013493762
0.00013123023
0.00012648798
0.00012100132
0.00011468835
0.00010723326
9.8225454e-05
8.7244128e-05
7.3903112e-05
5.7910282e-05
3.9266729e-05
1.6787462e-05
0.00013662042
0.00013466906
0.0001309654
0.00012623392
0.00012076722
0.00011448332
0.00010706452
9.8097037e-05
8.7156131e-05
7.385137e-05
5.7886612e-05
3.9260142e-05
1.6786209e-05
0.00013635745
0.00013440692
0.00013070806
0.00012598876
0.00012054332
0.00011428923
0.0001069066
9.7978388e-05
8.7076042e-05
7.3805179e-05
5.7866069e-05
3.9254693e-05
1.6785024e-05
0.00013610132
0.00013415206
0.00013045893
0.00012575304
0.00012032992
0.00011410617
0.0001067594
9.7869276e-05
8.7003583e-05
7.3764284e-05
5.7848475e-05
3.9250303e-05
1.6783906e-05
0.00013585281
0.0001339052
0.00013021865
0.00012552719
0.00012012727
0.00011393415
0.00010662276
9.7769437e-05
8.6938454e-05
7.3728419e-05
5.7833651e-05
3.9246896e-05
1.6782857e-05
0.00013561258
0.00013366697
0.00012998771
0.00012531156
0.0001199355
0.00011377312
0.00010649648
9.7678575e-05
8.6880337e-05
7.3697312e-05
5.7821415e-05
3.9244396e-05
1.6781875e-05
0.00013538118
0.00013343788
0.00012976653
0.0001251064
0.00011975467
0.00011362298
0.00010638031
9.7596364e-05
8.6828902e-05
7.3670686e-05
5.7811587e-05
3.9242727e-05
1.6780961e-05
0.00013515907
0.00013321835
0.00012955543
0.00012491189
0.00011958479
0.00011348355
0.00010627396
9.7522456e-05
8.6783803e-05
7.3648261e-05
5.7803988e-05
3.9241817e-05
1.6780111e-05
0.00013494661
0.00013300869
0.00012935464
0.00012472811
0.00011942579
0.00011335461
0.00010617711
9.7456479e-05
8.6744691e-05
7.3629758e-05
5.7798442e-05
3.9241593e-05
1.6779327e-05
0.00013474405
0.00013280913
0.00012916429
0.00012455507
0.00011927752
0.0001132359
0.0001060894
9.7398052e-05
8.6711209e-05
7.3614897e-05
5.7794775e-05
3.9241988e-05
1.6778604e-05
0.00013455158
0.00013261982
0.00012898446
0.00012439273
0.00011913981
0.00011312712
0.00010601045
9.7346782e-05
8.6683001e-05
7.3603406e-05
5.7792822e-05
3.9242935e-05
1.6777942e-05
0.0001343693
0.00013244084
0.00012881515
0.00012424099
0.00011901245
0.00011302795
0.00010593989
9.7302272e-05
8.6659717e-05
7.3595018e-05
5.7792421e-05
3.9244374e-05
1.6777337e-05
0.00013419727
0.0001322722
0.00012865631
0.00012409969
0.00011889516
0.00011293804
0.00010587732
9.7264129e-05
8.6641014e-05
7.3589479e-05
5.7793422e-05
3.9246245e-05
1.6776789e-05
0.00013403547
0.00013211387
0.00012850786
0.00012396866
0.00011878767
0.00011285703
0.00010582233
9.7231965e-05
8.6626558e-05
7.3586545e-05
5.7795682e-05
3.9248497e-05
1.6776293e-05
0.00013388385
0.00013196578
0.00012836964
0.00012384767
0.00011868967
0.00011278454
0.00010577453
9.7205399e-05
8.6616032e-05
7.3585984e-05
5.7799068e-05
3.9251079e-05
1.6775849e-05
0.00013374232
0.0001318278
0.0001282415
0.00012373648
0.00011860084
0.0001127202
0.00010573352
9.7184063e-05
8.6609128e-05
7.358758e-05
5.7803457e-05
3.9253949e-05
1.6775452e-05
0.00013361074
0.00013169979
0.00012812324
0.00012363481
0.00011852084
0.00011266363
0.00010569892
9.7167598e-05
8.6605555e-05
7.3591127e-05
5.7808734e-05
3.9257066e-05
1.6775103e-05
0.00013348897
0.00013158156
0.00012801461
0.00012354239
0.00011844932
0.00011261444
0.00010567034
9.7155657e-05
8.6605034e-05
7.3596432e-05
5.7814794e-05
3.9260392e-05
1.6774797e-05
0.00013337679
0.00013147289
0.00012791537
0.0001234589
0.00011838593
0.00011257225
0.00010564739
9.71479e-05
8.6607293e-05
7.3603311e-05
5.7821536e-05
3.9263893e-05
1.6774533e-05
0.00013327397
0.00013137354
0.00012782523
0.000123384
0.00011833029
0.00011253666
0.00010562971
9.7143993e-05
8.6612072e-05
7.3611585e-05
5.7828863e-05
3.9267535e-05
1.677431e-05
0.00013318025
0.00013128323
0.00012774388
0.00012331734
0.00011828201
0.00011250727
0.0001056169
9.7143606e-05
8.6619113e-05
7.3621082e-05
5.7836682e-05
3.9271285e-05
1.6774124e-05
0.00013309533
0.00013120163
0.00012767097
0.00012325854
0.00011824068
0.00011248368
0.00010560858
9.7146413e-05
8.6628164e-05
7.3631632e-05
5.7844903e-05
3.9275113e-05
1.6773973e-05
0.00013301887
0.00013112841
0.00012760614
0.00012320721
0.0001182059
0.00011246547
0.00010560439
9.7152092e-05
8.6638978e-05
7.364307e-05
5.7853437e-05
3.9278987e-05
1.6773855e-05
0.0001329505
0.00013106319
0.00012754898
0.00012316292
0.00011817723
0.00011245222
0.00010560393
9.7160323e-05
8.6651312e-05
7.3655237e-05
5.7862197e-05
3.9282875e-05
1.6773767e-05
0.00013288985
0.00013100557
0.0001274991
0.00012312526
0.00011815424
0.00011244354
0.00010560684
9.71708e-05
8.6664935e-05
7.3667978e-05
5.7871102e-05
3.928675e-05
1.6773707e-05
0.00013283652
0.00013095517
0.00012745608
0.0001230938
0.00011813652
0.00011243901
0.00010561277
9.7183231e-05
8.667963e-05
7.3681152e-05
5.7880077e-05
3.9290587e-05
1.6773672e-05
0.00013279011
0.00013091157
0.00012741949
0.00012306812
0.00011812364
0.00011243825
0.00010562137
9.7197342e-05
8.6695194e-05
7.3694631e-05
5.7889057e-05
3.9294362e-05
1.677366e-05
0.00013275023
0.00013087437
0.00012738895
0.00012304781
0.00011811523
0.0001124409
0.00010563234
9.7212886e-05
8.6711451e-05
7.3708303e-05
5.7897985e-05
3.9298059e-05
1.6773667e-05
0.00013271649
0.00013084318
0.00012736405
0.00012303249
0.0001181109
0.00011244664
0.00010564539
9.7229642e-05
8.6728245e-05
7.3722074e-05
5.7906819e-05
3.9301667e-05
1.6773692e-05
0.00013268853
0.00013081766
0.00012734443
0.00012302179
0.00011811032
0.00011245514
0.00010566028
9.7247416e-05
8.6745445e-05
7.373587e-05
5.7915525e-05
3.9305178e-05
1.6773734e-05
0.00013266602
0.00013079743
0.00012732975
0.00012301538
0.00011811318
0.00011246614
0.00010567676
9.726604e-05
8.6762939e-05
7.3749629e-05
5.7924079e-05
3.9308587e-05
1.677379e-05
0.00013264862
0.00013078219
0.00012731967
0.00012301294
0.00011811917
0.00011247938
0.00010569464
9.7285364e-05
8.6780632e-05
7.3763303e-05
5.7932466e-05
3.9311894e-05
1.677386e-05
0.00013263602
0.0001307716
0.00012731387
0.00012301416
0.00011812802
0.00011249463
0.00010571373
9.7305248e-05
8.6798436e-05
7.3776847e-05
5.7940671e-05
3.9315099e-05
1.6773942e-05
0.0001326279
0.00013076535
0.00012731205
0.00012301874
0.00011813946
0.00011251163
0.00010573384
9.7325559e-05
8.6816267e-05
7.3790217e-05
5.7948677e-05
3.9318198e-05
1.6774036e-05
0.00013262392
0.0001307631
0.00012731387
0.00012302638
0.0001181532
0.00011253016
0.00010575478
9.7346158e-05
8.6834035e-05
7.3803363e-05
5.7956462e-05
3.9321165e-05
1.677414e-05
0.00013262373
0.00013076452
0.00012731901
0.00012303675
0.00011816896
0.00011254998
0.00010577635
9.7366902e-05
8.6851641e-05
7.3816228e-05
5.7963993e-05
3.9323983e-05
1.6774253e-05
0.00013262699
0.00013076925
0.00012732711
0.00012304954
0.00011818645
0.00011257083
0.00010579836
9.7387638e-05
8.6868983e-05
7.3828743e-05
5.7971217e-05
3.9326658e-05
1.6774373e-05
0.0001326333
0.00013077691
0.00012733781
0.00012306439
0.00011820536
0.00011259246
0.0001058206
9.7408212e-05
8.6885949e-05
7.3840841e-05
5.7978107e-05
3.9329181e-05
1.6774499e-05
0.00013264228
0.00013078712
0.00012735075
0.00012308099
0.0001182254
0.00011261461
0.00010584286
9.7428471e-05
8.6902431e-05
7.3852433e-05
5.7984646e-05
3.9331547e-05
1.6774628e-05
0.00013265356
0.00013079952
0.00012736559
0.00012309899
0.00011824628
0.00011263705
0.00010586497
9.7448277e-05
8.6918335e-05
7.3863476e-05
5.7990811e-05
3.9333749e-05
1.6774759e-05
0.00013266679
0.00013081376
0.00012738198
0.00012311811
0.00011826775
0.00011265957
0.00010588675
9.7467508e-05
8.6933564e-05
7.3873949e-05
5.7996587e-05
3.9335785e-05
1.677489e-05
0.00013268165
0.00013082953
0.00012739964
0.00012313809
0.00011828958
0.000112682
0.00010590807
9.7486073e-05
8.6948091e-05
7.3883828e-05
5.8001968e-05
3.9337655e-05
1.677502e-05
0.00013269786
0.00013084657
0.00012741832
0.0001231587
0.0001183116
0.00011270419
0.00010592885
9.7503915e-05
8.6961903e-05
7.3893111e-05
5.8006958e-05
3.9339364e-05
1.6775147e-05
0.00013271524
0.00013086467
0.00012743783
0.00012317978
0.00011833368
0.00011272606
0.00010594902
9.7521032e-05
8.6975005e-05
7.3901812e-05
5.8011576e-05
3.9340923e-05
1.6775272e-05
0.00013273361
0.00013088367
0.00012745802
0.00012320121
0.00011835572
0.00011274753
0.00010596857
9.7537436e-05
8.6987421e-05
7.3909963e-05
5.8015845e-05
3.9342345e-05
1.6775394e-05
0.00013275287
0.00013090347
0.00012747879
0.0001232229
0.00011837766
0.00011276861
0.00010598752
9.7553152e-05
8.6999188e-05
7.3917603e-05
5.8019799e-05
3.9343645e-05
1.6775512e-05
0.00013277293
0.00013092397
0.00012750006
0.00012324478
0.00011839947
0.00011278927
0.00010600588
9.7568215e-05
8.7010351e-05
7.3924776e-05
5.802347e-05
3.9344841e-05
1.6775629e-05
0.00013279372
0.00013094511
0.00012752176
0.00012326681
0.00011842112
0.00011280953
0.00010602367
9.7582658e-05
8.7020951e-05
7.3931522e-05
5.8026889e-05
3.9345945e-05
1.6775744e-05
0.00013281514
0.00013096678
0.0001275438
0.00012328892
0.00011844258
0.00011282935
0.00010604088
9.7596502e-05
8.7031018e-05
7.3937871e-05
5.8030079e-05
3.9346968e-05
1.6775857e-05
0.00013283709
0.00013098889
0.00012756609
0.00012331103
0.00011846378
0.00011284872
0.00010605752
9.7609748e-05
8.7040564e-05
7.3943841e-05
5.8033053e-05
3.9347918e-05
1.677597e-05
0.0001328594
0.00013101128
0.00012758851
0.00012333304
0.00011848464
0.00011286756
0.00010607354
9.7622376e-05
8.7049582e-05
7.3949432e-05
5.8035814e-05
3.9348794e-05
1.6776081e-05
0.00013288188
0.00013103379
0.00012761088
0.0001233548
0.00011850504
0.00011288578
0.00010608887
9.7634347e-05
8.7058048e-05
7.395463e-05
5.8038356e-05
3.9349592e-05
1.6776191e-05
0.00013290433
0.0001310562
0.00012763303
0.00012337615
0.00011852485
0.00011290329
0.00010610345
9.7645604e-05
8.7065924e-05
7.395941e-05
5.8040663e-05
3.9350307e-05
1.6776299e-05
0.00013292649
0.00013107829
0.00012765475
0.00012339691
0.00011854393
0.00011291997
0.00010611718
9.7656086e-05
8.7073166e-05
7.3963743e-05
5.8042718e-05
3.9350929e-05
1.6776403e-05
0.00013294813
0.00013109983
0.00012767582
0.00012341691
0.00011856213
0.00011293572
0.00010612999
9.7665738e-05
8.7079736e-05
7.3967602e-05
5.8044503e-05
3.935145e-05
1.6776503e-05
0.00013296904
0.00013112062
0.00012769609
0.00012343601
0.00011857935
0.00011295044
0.00010614181
9.7674519e-05
8.7085607e-05
7.397097e-05
5.8046008e-05
3.9351866e-05
1.6776596e-05
0.00013298904
0.0001311405
0.00012771539
0.00012345407
0.00011859548
0.00011296408
0.00010615262
9.7682413e-05
8.7090773e-05
7.3973845e-05
5.8047231e-05
3.9352175e-05
1.6776682e-05
0.00013300803
0.00013115935
0.00012773365
0.00012347105
0.00011861051
0.00011297663
0.00010616242
9.7689437e-05
8.7095254e-05
7.3976244e-05
5.8048185e-05
3.9352382e-05
1.677676e-05