/*--------------------------------*- C++ -*----------------------------------*\
| =========                 |                                                 |
| \\      /  F ield         | OpenFOAM: The Open Source CFD Toolbox           |
|  \\    /   O peration     | Version:  2506                                  |
|   \\  /    A nd           | Website:  www.openfoam.com                      |
|    \\/     M anipulation  |                                                 |
\*---------------------------------------------------------------------------*/
FoamFile
{
    version     2.0;
    format      ascii;
    arch        "LSB;label=32;scalar=64";
    class       volVectorField;
    location    "11000/water";
    object      U;
}
// * * * * * * * * * * * * * * * * * * * * * * * * * * * * * * * * * * * * * //

dimensions      [0 1 -1 0 0 0 0];

internalField   nonuniform List<vector> 
2600
(
(0.2509291 -6.6886033e-05 -8.0456629e-19)
(0.25093316 -0.00014739222 -3.6669989e-18)
(0.25094167 -0.00023143146 -9.5034086e-19)
(0.2509543 -0.00031980044 -9.6188009e-19)
(0.25097092 -0.0004082391 -3.0880156e-19)
(0.25099124 -0.00049673665 -2.5188916e-19)
(0.25101467 -0.0005856609 -1.2762765e-19)
(0.25103908 -0.00067482201 -2.0252497e-19)
(0.25105541 -0.00075972197 1.9586116e-21)
(0.25102652 -0.00083857781 5.19646e-20)
(0.25079811 -0.00098580402 9.8492889e-20)
(0.24954942 -0.001485464 -1.5384014e-19)
(0.2411817 0.0014904344 -5.1127755e-19)
(0.25290631 -5.2391824e-05 -1.4490574e-19)
(0.25291356 -0.00012867936 -3.9424466e-18)
(0.25292967 -0.00020232594 -1.8820053e-18)
(0.25295369 -0.00027812692 -1.2190421e-18)
(0.25298503 -0.00035187867 -6.0398831e-19)
(0.25302278 -0.00042368282 -4.480189e-19)
(0.25306456 -0.0004936843 -1.3905679e-19)
(0.25310219 -0.00056251339 -1.1127878e-19)
(0.25310631 -0.00062550536 3.0919636e-20)
(0.25297401 -0.00066089399 2.3795717e-19)
(0.25231856 -0.00068576655 2.2236584e-20)
(0.24919071 -0.0011507908 -3.0532971e-19)
(0.23317376 0.00055016191 -5.7957459e-19)
(0.25485703 -5.0201261e-05 2.0145003e-19)
(0.25486389 -0.00012463928 -1.5462004e-18)
(0.2548791 -0.00019574884 -2.0883925e-18)
(0.2549016 -0.00026956178 -3.5067498e-19)
(0.25493052 -0.00034177627 -5.7030338e-19)
(0.25496396 -0.00041257844 -1.6489501e-19)
(0.25499618 -0.00048173979 5.2153274e-21)
(0.25500857 -0.00054996705 4.440871e-19)
(0.25494172 -0.00061637669 3.7399553e-19)
(0.2546073 -0.0006602417 2.4993235e-19)
(0.25332071 -0.00063871076 -7.1457257e-20)
(0.2478214 -0.00092597142 -3.0689705e-19)
(0.22526486 0.00012340436 -5.0302944e-19)
(0.25664521 -4.9743849e-05 1.5691562e-18)
(0.25665224 -0.00012488064 1.7748891e-19)
(0.2566674 -0.00019721364 -3.6450958e-20)
(0.2566896 -0.0002720698 3.1560862e-20)
(0.25671747 -0.00034495172 -7.5436995e-20)
(0.25674738 -0.00041609227 2.1038406e-20)
(0.25676826 -0.0004848948 -2.5923264e-20)
(0.25674667 -0.00055096518 7.8244008e-20)
(0.25658539 -0.00061444887 -4.2192375e-20)
(0.2559957 -0.0006636637 -3.8271571e-20)
(0.2539403 -0.00063277351 -5.6388498e-20)
(0.24583249 -0.00077044467 -2.607369e-19)
(0.21800982 -5.9385922e-05 -3.9552892e-19)
(0.25841323 -4.8556775e-05 3.531737e-19)
(0.2584204 -0.00012219546 1.2725306e-18)
(0.25843571 -0.00019301892 2.4967663e-19)
(0.25845781 -0.00026625064 -7.6196744e-19)
(0.25848442 -0.00033744492 -8.2736477e-20)
(0.25850914 -0.00040689654 9.9353724e-20)
(0.25851346 -0.00047389151 -9.109598e-20)
(0.25844542 -0.00053705871 -2.4558341e-19)
(0.25816424 -0.00059536594 -1.1626323e-19)
(0.25726648 -0.00064373127 -1.6587688e-19)
(0.25431322 -0.00061442321 -8.654117e-20)
(0.24352458 -0.00065114415 -1.3659851e-19)
(0.21163262 -0.00012321892 -3.2210337e-19)
(0.26015467 -4.709344e-05 7.4763173e-19)
(0.26016187 -0.0001185153 1.6767603e-18)
(0.26017704 -0.0001870764 3.6554573e-19)
(0.2601984 -0.00025799462 3.0681457e-19)
(0.26022227 -0.00032687702 2.524306e-20)
(0.26023853 -0.00039398781 1.8393531e-19)
(0.26021927 -0.00045855461 -9.4011852e-20)
(0.26009115 -0.00051865148 -1.9583619e-19)
(0.25966515 -0.00057157394 -1.9110102e-19)
(0.2584067 -0.00061480871 -1.091877e-19)
(0.25443266 -0.00058544056 -1.4461293e-20)
(0.24102793 -0.0005571206 8.7399078e-20)
(0.20612335 -0.00013293671 -3.130265e-19)
(0.26183846 -4.5390267e-05 2.1593811e-18)
(0.26184561 -0.00011435405 9.2796863e-19)
(0.26186042 -0.00018050108 9.9915836e-19)
(0.26188043 -0.00024892327 1.1552023e-18)
(0.26190007 -0.00031528561 4.1807357e-19)
(0.26190445 -0.00037977026 1.2982999e-19)
(0.26185458 -0.00044151446 -1.4270806e-19)
(0.2616533 -0.00049832849 -1.7594981e-19)
(0.26105826 -0.00054618084 -4.6855662e-19)
(0.25938354 -0.00058222647 2.1370673e-21)
(0.25426994 -0.00054801504 1.4427884e-20)
(0.23842933 -0.00047868139 4.6786398e-20)
(0.20141646 -0.00011963306 -3.7472887e-19)
(0.26345768 -4.3664882e-05 -8.4822974e-19)
(0.26346469 -0.00011008558 -1.3219182e-18)
(0.26347885 -0.00017377013 -1.8879189e-19)
(0.26349678 -0.00023963045 4.0638891e-20)
(0.26351051 -0.00030340685 -2.5180618e-20)
(0.26349932 -0.00036518044 3.1741834e-20)
(0.26341166 -0.00042394823 -1.4410903e-20)
(0.2631242 -0.00047735794 -4.0154918e-20)
(0.26233468 -0.00052050214 1.0699034e-19)
(0.26018092 -0.00054846095 9.6198171e-20)
(0.25381559 -0.00050481858 4.21627e-20)
(0.23581666 -0.00040978299 2.2479527e-19)
(0.19745226 -9.8494617e-05 -2.0091948e-19)
(0.26501552 -4.2046877e-05 1.191635e-18)
(0.26502225 -0.00010599907 1.0406705e-18)
(0.26503542 -0.0001673021 7.0931084e-19)
(0.26505044 -0.00023067618 7.1271538e-19)
(0.26505633 -0.00029193976 -3.4224498e-20)
(0.26502564 -0.00035106733 1.5166191e-21)
(0.26489279 -0.0004068816 1.9095216e-19)
(0.26450568 -0.00045685738 8.2755673e-21)
(0.26349313 -0.00049549056 -8.4859984e-20)
(0.26078727 -0.00051473411 2.5117908e-20)
(0.25307513 -0.00045847926 1.9974223e-20)
(0.23327192 -0.00034737981 2.7813936e-19)
(0.19416843 -7.693288e-05 3.8772741e-21)
(0.2665165 -4.057706e-05 -3.7885438e-20)
(0.26652283 -0.00010224007 7.076625e-19)
(0.26653459 -0.00016134013 4.3811256e-19)
(0.26654572 -0.0002224043 6.943506e-19)
(0.26654166 -0.00028132047 2.1815944e-19)
(0.26648729 -0.00033795568 9.9943107e-20)
(0.26630156 -0.0003909415 -6.8628262e-20)
(0.26580019 -0.00043752442 -1.0868598e-19)
(0.26453091 -0.00047164498 -9.1231286e-20)
(0.26118849 -0.00048140525 -8.7746835e-20)
(0.25206937 -0.00041120617 -5.9486409e-20)
(0.23086314 -0.00029047959 -2.7324354e-19)
(0.19149027 -5.8333257e-05 -2.5324928e-19)
(0.26796591 -3.9276698e-05 -1.7302787e-18)
(0.26797166 -9.8886216e-05 -1.1757101e-18)
(0.26798155 -0.00015601486 -2.4011612e-19)
(0.26798768 -0.00021499986 6.195878e-19)
(0.26797137 -0.00027178437 5.2998926e-19)
(0.26788889 -0.00032612646 2.5914304e-19)
(0.26764202 -0.00037645613 -1.2308034e-19)
(0.26700984 -0.00041972353 -2.3894935e-19)
(0.26544297 -0.00044912486 -2.222266e-19)
(0.26137042 -0.00044842587 -8.1845376e-20)
(0.25083979 -0.00036475941 -1.3820464e-19)
(0.22864123 -0.00023936528 -6.0944302e-19)
(0.18933265 -4.3854024e-05 -2.2552817e-19)
(0.26936985 -3.8151202e-05 5.1452943e-19)
(0.26937484 -9.5961773e-05 -3.8384651e-19)
(0.26938229 -0.00015136516 4.5577486e-20)
(0.2693822 -0.00020851724 6.1464293e-19)
(0.26935114 -0.00026339986 6.4699789e-19)
(0.26923575 -0.00031565718 1.4101397e-19)
(0.26891866 -0.00036350366 4.7804996e-20)
(0.26813622 -0.00040351927 -1.3400981e-19)
(0.26622207 -0.00042777198 -3.0891217e-19)
(0.26132397 -0.00041560855 -3.0689004e-20)
(0.24944814 -0.00032041762 -1.7585761e-19)
(0.22663743 -0.00019477817 -4.4751935e-19)
(0.18760708 -3.3365972e-05 -2.7060283e-19)
(0.27073452 -3.7186892e-05 9.5451842e-19)
(0.27073851 -9.3441594e-05 2.0117473e-19)
(0.27074291 -0.00014735094 4.3690728e-19)
(0.27073523 -0.00020290124 5.6465243e-19)
(0.27068668 -0.00025609589 4.0537372e-19)
(0.27053315 -0.00030645578 1.6693999e-20)
(0.27013553 -0.00035195662 6.9198661e-20)
(0.26917943 -0.00038871662 -5.2163352e-20)
(0.26685881 -0.00040716161 -5.1544224e-20)
(0.26105041 -0.00038281108 -6.9272205e-20)
(0.24796793 -0.00027903903 -2.1187337e-19)
(0.2248628 -0.00015723519 -3.6529353e-19)
(0.18622942 -2.6089621e-05 -3.7646383e-19)
(0.27206549 -3.6358598e-05 4.9714866e-19)
(0.27206822 -9.1270025e-05 2.1969904e-19)
(0.27206885 -0.00014388431 1.7882801e-19)
(0.27205207 -0.00019803069 8.5181348e-19)
(0.27198302 -0.00024971698 -6.2985893e-20)
(0.27178551 -0.0002983267 2.8993095e-19)
(0.27129541 -0.00034156267 4.3728972e-19)
(0.27013718 -0.00037494839 1.0948936e-19)
(0.26734241 -0.00038673535 -2.0688531e-20)
(0.2605654 -0.00035005845 -1.0653756e-19)
(0.24647172 -0.00024119444 -2.5984627e-19)
(0.22331131 -0.00012666963 -3.4538904e-19)
(0.18512583 -2.107637e-05 -3.9604434e-19)
(0.27336737 -3.5638788e-05 -6.6958758e-20)
(0.27336856 -8.938186e-05 -2.9882162e-19)
(0.27336463 -0.00014086217 5.9634275e-19)
(0.27333706 -0.00019376295 4.5356775e-19)
(0.27324415 -0.00024407934 2.8798083e-19)
(0.27299604 -0.00029103799 4.0849757e-19)
(0.27239931 -0.00033202383 3.0058507e-19)
(0.27100443 -0.00036176734 1.8915359e-19)
(0.26766283 -0.00036596046 1.7859336e-19)
(0.25989992 -0.00031757793 -1.3470142e-19)
(0.24502002 -0.00020725745 -4.1232855e-19)
(0.22196569 -0.00010242448 -2.1437105e-19)
(0.18423545 -1.7507118e-05 -1.9131628e-19)
(0.27464382 -3.5002895e-05 -6.3246055e-19)
(0.27464313 -8.7716018e-05 -3.3116919e-19)
(0.27463375 -0.00013818758 6.8326559e-19)
(0.2745935 -0.00018996324 5.5846567e-19)
(0.27447297 -0.0002390078 7.1940372e-19)
(0.27416661 -0.00028436529 3.0987104e-19)
(0.27344636 -0.00032304577 -1.3086646e-21)
(0.27177364 -0.00034871442 7.8197378e-20)
(0.26781391 -0.00034445793 -1.3526815e-19)
(0.25909705 -0.00028576383 -2.5404288e-19)
(0.2436552 -0.00017740821 -3.8348972e-19)
(0.22080343 -8.347306e-05 -3.1947009e-19)
(0.18351045 -1.4804615e-05 2.9296355e-20)
(0.27589768 -3.4431105e-05 6.0439595e-19)
(0.27589473 -8.6221417e-05 2.6561471e-19)
(0.27587888 -0.00013577913 -1.5999106e-19)
(0.27582384 -0.00018651756 5.1547369e-20)
(0.27567139 -0.00023435206 3.2170199e-19)
(0.27529788 -0.00027811161 2.1268211e-19)
(0.27443375 -0.00031435606 -4.4196959e-20)
(0.27243556 -0.00033536391 -3.4866352e-20)
(0.26779662 -0.00032206948 -2.7108653e-19)
(0.25820551 -0.00025510598 -3.3767012e-19)
(0.24240122 -0.00015160162 -1.9942385e-19)
(0.21980119 -6.8691003e-05 -2.5129915e-19)
(0.18291435 -1.2618554e-05 -2.7238961e-19)
(0.27713109 -3.3908296e-05 -4.9919153e-19)
(0.27712546 -8.4858001e-05 1.0099385e-18)
(0.27710201 -0.00013357264 2.2011413e-19)
(0.27702977 -0.00018333501 -6.6870688e-21)
(0.27684047 -0.00022998947 3.6809213e-19)
(0.2763893 -0.00027211088 2.7043453e-19)
(0.27535691 -0.00030570399 -1.070105e-20)
(0.2729805 -0.00032135787 -3.6598117e-20)
(0.26762111 -0.00029886295 -1.9403366e-19)
(0.25727242 -0.00022610441 -2.3756539e-19)
(0.24126718 -0.00012956886 -1.0396773e-19)
(0.21893722 -5.7057435e-05 -2.8812723e-19)
(0.18241982 -1.0759083e-05 -2.4951466e-19)
(0.27834572 -3.3423243e-05 5.7689813e-20)
(0.27833694 -8.3595438e-05 8.0880106e-19)
(0.2783046 -0.00013151911 3.8235131e-19)
(0.27821241 -0.00018034488 5.8535922e-19)
(0.27798052 -0.00022582105 -1.2193439e-19)
(0.27743925 -0.00026622306 5.9240026e-20)
(0.27620962 -0.00029685485 4.5869404e-19)
(0.27340008 -0.00030643644 1.4371872e-19)
(0.26730692 -0.00027509383 2.6653549e-21)
(0.25633756 -0.0001991843 2.156165e-20)
(0.24025214 -0.0001108758 -5.1720519e-23)
(0.21819234 -4.7749367e-05 -2.3951061e-19)
(0.18200662 -9.1303527e-06 -3.6058699e-19)
(0.27954284 -3.2967676e-05 1.1919907e-18)
(0.27953036 -8.2411065e-05 6.2205017e-19)
(0.27948767 -0.00012958149 1.0790749e-18)
(0.27937237 -0.00017749197 -1.3827485e-19)
(0.27909121 -0.00022176547 1.8206612e-21)
(0.27844503 -0.00026032527 -3.4923116e-20)
(0.27698441 -0.00028758731 1.2860219e-19)
(0.27368915 -0.00029046172 1.4811617e-19)
(0.26688073 -0.00025114512 2.8261926e-19)
(0.25543062 -0.00017462896 4.2418252e-19)
(0.2393495 -9.5013855e-05 -1.6898105e-21)
(0.21755 -4.0152307e-05 5.6046179e-20)
(0.18165972 -7.6839558e-06 -1.7740042e-19)
(0.28072346 -3.2535409e-05 -3.9422459e-19)
(0.28070667 -8.1287792e-05 2.4106635e-19)
(0.28065194 -0.00012773124 8.9723036e-19)
(0.28050986 -0.0001747318 3.0289619e-19)
(0.28017156 -0.00021775303 2.3262053e-19)
(0.27940289 -0.00025430188 2.1246033e-20)
(0.27767312 -0.00027769789 8.7513743e-20)
(0.27384765 -0.00027342827 2.3735725e-19)
(0.26637281 -0.00022746053 6.1203555e-20)
(0.2545711 -0.0001525485 -2.6690162e-19)
(0.23855012 -8.148403e-05 -4.0285846e-19)
(0.21699614 -3.3827434e-05 -1.8739338e-20)
(0.18136794 -6.3925385e-06 1.4187597e-19)
(0.28188837 -3.2121655e-05 1.2793541e-18)
(0.28186655 -8.0212343e-05 1.3191615e-18)
(0.28179785 -0.00012594549 1.7375415e-19)
(0.28162471 -0.00017202641 5.4467578e-19)
(0.28121999 -0.00021372065 1.5546426e-19)
(0.28030804 -0.00024803604 5.1522932e-20)
(0.27826773 -0.00026701328 1.7552164e-19)
(0.27388156 -0.00025545692 2.5276555e-19)
(0.26581311 -0.00020447967 -3.1508338e-20)
(0.25377001 -0.00013289057 -4.8350317e-19)
(0.23784411 -6.9849921e-05 -3.8150236e-19)
(0.21651887 -2.8467153e-05 -2.0460003e-19)
(0.18112283 -5.2370922e-06 -5.3491314e-20)
(0.28303819 -3.1722485e-05 2.3665427e-18)
(0.28301052 -7.9173849e-05 1.3956212e-18)
(0.28292559 -0.00012420469 2.4775225e-23)
(0.28271638 -0.00016934096 -1.3088117e-19)
(0.2822343 -0.00020960734 5.1730588e-19)
(0.28115476 -0.00024140493 3.6136952e-19)
(0.27876144 -0.00025540747 -1.1951253e-19)
(0.27380291 -0.00023677356 2.2424035e-19)
(0.26522808 -0.00018258167 -2.112389e-20)
(0.25303215 -0.00011548282 1.0547416e-19)
(0.23722187 -5.975696e-05 -5.8374113e-20)
(0.21610816 -2.3855672e-05 -2.1696523e-19)
(0.18091788 -4.2018424e-06 4.3772026e-20)
(0.28417339 -3.1334452e-05 -4.4244351e-19)
(0.28413893 -7.8162818e-05 1.3842036e-19)
(0.28403512 -0.00012249081 1.2831203e-19)
(0.28378396 -0.00016664114 5.003914e-19)
(0.28321158 -0.0002053501 -6.0511874e-20)
(0.28193659 -0.00023428041 3.2854922e-19)
(0.27914984 -0.00024281874 4.0990221e-19)
(0.27362851 -0.00021767781 4.6149415e-19)
(0.26463906 -0.00016204558 1.1528446e-19)
(0.25235823 -0.00010008753 -3.6400752e-19)
(0.23667446 -5.0928432e-05 -4.0551004e-19)
(0.21575559 -1.9839551e-05 -2.2188216e-19)
(0.18074793 -3.2726355e-06 -2.3469744e-20)
(0.28529433 -3.0954305e-05 -1.3174578e-18)
(0.28525196 -7.7170335e-05 1.0132757e-19)
(0.28512619 -0.00012078599 1.1847742e-18)
(0.28482614 -0.00016389138 5.8759304e-19)
(0.28414822 -0.00020087986 4.2645886e-20)
(0.28264669 -0.00022653515 1.3502328e-19)
(0.27943202 -0.00022926075 4.055025e-19)
(0.27337791 -0.00019850621 2.7426891e-19)
(0.26406181 -0.00014303339 2.4853147e-19)
(0.25174654 -8.6449678e-05 3.8048877e-20)
(0.23619383 -4.315108e-05 -1.9109985e-19)
(0.21545404 -1.6307482e-05 -1.3095674e-19)
(0.18060883 -2.4367075e-06 -8.79776e-20)
(0.28640123 -3.0578784e-05 2.2300451e-18)
(0.28634965 -7.6187463e-05 9.9265011e-19)
(0.28619826 -0.00011907139 6.2659466e-19)
(0.28584114 -0.00016105348 6.1710757e-20)
(0.28503985 -0.00019611847 6.9060966e-19)
(0.2832784 -0.00021805401 1.6029408e-19)
(0.27961117 -0.00021482471 8.3165869e-20)
(0.27307114 -0.00017959427 2.5609897e-19)
(0.26350715 -0.00012559657 1.7515693e-19)
(0.25119402 -7.4328966e-05 3.6784777e-19)
(0.23577276 -3.6259371e-05 2.7142976e-19)
(0.21519748 -1.3176835e-05 -3.159016e-20)
(0.18049716 -1.6827575e-06 9.3616747e-20)
(0.28749419 -3.0204451e-05 3.4673385e-18)
(0.28743185 -7.5204719e-05 2.65494e-18)
(0.28725056 -0.00011732616 1.4832724e-20)
(0.28682673 -0.0001580853 -1.1642097e-19)
(0.28588145 -0.00019097762 4.1458663e-19)
(0.28382593 -0.00020874813 4.9563988e-20)
(0.27969464 -0.00019967158 3.97332e-20)
(0.27272685 -0.00016124193 1.2349419e-19)
(0.26298189 -0.00010969946 1.80395e-20)
(0.25069697 -6.3515017e-05 1.034394e-20)
(0.23540492 -3.0122541e-05 1.8327982e-19)
(0.21498079 -1.0384801e-05 8.8113805e-20)
(0.18041 -1.0010018e-06 -1.5030356e-20)
(0.28857317 -2.9827535e-05 7.291985e-19)
(0.28849825 -7.4211612e-05 1.6192736e-18)
(0.28828196 -0.00011552671 3.2486432e-19)
(0.28778008 -0.00015493915 -8.7579191e-20)
(0.28666738 -0.00018536089 1.9140232e-19)
(0.28428521 -0.00019856896 -8.8641803e-20)
(0.27969326 -0.00018401637 4.9864484e-21)
(0.27236107 -0.00014368791 1.3789165e-20)
(0.26248991 -9.5249865e-05 -1.0308303e-19)
(0.25025143 -5.3830553e-05 -1.2003068e-19)
(0.23508472 -2.4635271e-05 -1.903082e-20)
(0.21479959 -7.8824876e-06 1.7707566e-19)
(0.18034487 -3.8307787e-07 2.9422993e-20)
(0.28963798 -2.9443749e-05 -8.6213845e-19)
(0.28954832 -7.3196104e-05 5.2006076e-19)
(0.28929102 -0.00011364593 1.8253442e-19)
(0.2886978 -0.00015155982 7.4845455e-19)
(0.28739174 -0.00017916927 -1.5008869e-19)
(0.28465455 -0.00018751865 3.0634303e-19)
(0.27962017 -0.0001681064 6.1620161e-19)
(0.2719867 -0.00012709647 4.6589143e-19)
(0.26203302 -8.2127517e-05 -3.7128105e-20)
(0.24985346 -4.512813e-05 -6.2356883e-19)
(0.23480728 -1.9711265e-05 -4.7622172e-19)
(0.21465012 -5.6309911e-06 -6.9359321e-20)
(0.18029962 1.7812909e-07 7.0544184e-21)
(0.29068824 -2.9047996e-05 -6.8834188e-19)
(0.29058125 -7.214382e-05 -3.6361991e-20)
(0.29027586 -0.0001116522 7.8324437e-19)
(0.28957586 -0.00014788248 3.3461941e-19)
(0.28804865 -0.00017230925 -5.1958542e-20)
(0.28493523 -0.00017565385 3.7161279e-19)
(0.2794894 -0.00015219579 5.0501651e-19)
(0.2716136 -0.0001115566 1.3341019e-19)
(0.26161163 -7.020356e-05 3.2535577e-19)
(0.24949925 -3.7283207e-05 1.8731692e-19)
(0.23456828 -1.5277061e-05 -1.195613e-19)
(0.21452909 -3.5978746e-06 -8.346007e-20)
(0.18027234 6.8891717e-07 -6.1969933e-20)
(0.29172336 -2.8634279e-05 -7.8195807e-19)
(0.291596 -7.1037633e-05 5.2126147e-19)
(0.29123415 -0.00010950892 9.9350775e-19)
(0.29040962 -0.00014383257 -2.3344568e-19)
(0.28863287 -0.00016470429 4.7054898e-19)
(0.28513156 -0.00016308395 1.6615274e-19)
(0.27931466 -0.00013652205 -1.8763017e-20)
(0.27124896 -9.7093553e-05 3.2362085e-19)
(0.26122524 -5.9353646e-05 5.7306312e-19)
(0.24918522 -3.0190175e-05 8.027979e-19)
(0.23436395 -1.12703e-05 5.3018471e-19)
(0.2144337 -1.7305503e-06 3.6916431e-20)
(0.18026136 1.1761567e-06 1.1454503e-19)
(0.29274252 -2.8196034e-05 2.1198582e-18)
(0.29259116 -6.9858458e-05 2.5150336e-18)
(0.29216305 -0.00010717576 8.751488e-21)
(0.29119393 -0.00013933085 3.7174503e-19)
(0.28914031 -0.00015631031 5.7010935e-19)
(0.28525057 -0.00014996782 3.961523e-19)
(0.27910837 -0.00012129297 -8.5191006e-20)
(0.2708978 -8.369284e-05 2.512328e-19)
(0.26087272 -4.94716e-05 1.7745068e-19)
(0.24890802 -2.3766772e-05 2.5276119e-19)
(0.23419085 -7.6476567e-06 2.9632349e-19)
(0.21436056 -1.6257751e-08 1.4527349e-20)
(0.18026627 1.6403977e-06 -1.8458633e-20)
(0.2937446 -2.7725099e-05 1.656897e-18)
(0.29356496 -6.8583189e-05 1.0700578e-18)
(0.29305914 -0.00010460504 -3.1552745e-19)
(0.29192334 -0.00013429445 2.602816e-19)
(0.28956868 -0.00014712077 3.1055301e-19)
(0.2853013 -0.00013649478 2.0754764e-19)
(0.27888121 -0.00010666836 -3.3289179e-20)
(0.27056351 -7.1310467e-05 2.4336457e-19)
(0.26055265 -4.0462887e-05 7.7478092e-20)
(0.24866458 -1.7940251e-05 -4.7742967e-20)
(0.23404606 -4.3539042e-06 -2.8793593e-20)
(0.21430781 1.5374079e-06 4.9885296e-20)
(0.18028522 2.0563893e-06 -4.9007146e-20)
(0.29472815 -2.7211025e-05 -5.0869039e-19)
(0.29451518 -6.7183246e-05 -9.8879195e-19)
(0.29391842 -0.00010173906 5.7863134e-19)
(0.29259237 -0.00012864185 6.747529e-19)
(0.28991788 -0.00013716948 -3.1782655e-19)
(0.28529395 -0.00012286451 1.8101944e-19)
(0.27864192 -9.2752914e-05 9.4515545e-19)
(0.27024822 -5.9882431e-05 7.9305477e-19)
(0.26026336 -3.2238653e-05 3.0441491e-19)
(0.24845204 -1.2642369e-05 -4.0230062e-19)
(0.23392646 -1.3358762e-06 -3.5271888e-19)
(0.21427448 2.9561801e-06 5.7624543e-20)
(0.18031663 2.4263136e-06 -1.8686536e-20)
(0.29569132 -2.6641403e-05 -9.3602291e-20)
(0.2954391 -6.5625548e-05 -9.4779788e-19)
(0.29473631 -9.8512684e-05 1.9419156e-18)
(0.29319592 -0.00012230569 8.5021042e-19)
(0.29019018 -0.00012653596 2.0393909e-20)
(0.2852389 -0.00010927514 2.2343364e-19)
(0.27839743 -7.960725e-05 7.9398951e-19)
(0.26995312 -4.9342213e-05 2.3314232e-19)
(0.26000309 -2.4722166e-05 3.149053e-19)
(0.24826773 -7.8150824e-06 5.2522562e-19)
(0.23382956 1.4151559e-06 9.1466028e-20)
(0.21425921 4.2390848e-06 1.1662957e-19)
(0.18035932 2.7544368e-06 5.543557e-20)
(0.29663173 -2.6001181e-05 -7.5299039e-19)
(0.29633339 -6.3871156e-05 -2.0782899e-19)
(0.29550768 -9.4853893e-05 1.4362263e-18)
(0.29372976 -0.00011524119 1.790564e-19)
(0.29039011 -0.00011533897 6.5714848e-19)
(0.28514604 -9.590537e-05 3.4307087e-19)
(0.27815305 -6.7254124e-05 -2.4758626e-20)
(0.26967872 -3.9623318e-05 4.1772353e-19)
(0.25977003 -1.7841842e-05 3.9973402e-19)
(0.24810923 -3.3839559e-06 7.9133878e-19)
(0.23375398 3.9312136e-06 5.2884887e-19)
(0.21425996 5.3906154e-06 2.0745429e-19)
(0.18041214 3.0443426e-06 2.1125591e-19)
(0.29754645 -2.527239e-05 3.9635928e-19)
(0.29719411 -6.1874452e-05 1.7520724e-18)
(0.29622706 -9.0687761e-05 -3.1508471e-19)
(0.29419101 -0.00010743479 4.7186824e-19)
(0.290524 -0.00010372736 9.295615e-19)
(0.28502427 -8.2903359e-05 4.540834e-19)
(0.27791277 -5.5688928e-05 9.6534121e-20)
(0.269425 -3.0662224e-05 2.1224427e-19)
(0.25956226 -1.1539674e-05 2.1255521e-19)
(0.24797362 6.7590282e-07 -2.8926709e-20)
(0.23369893 6.2277248e-06 2.2832073e-19)
(0.21427538 6.4296404e-06 1.1039506e-19)
(0.18047413 3.3030895e-06 5.3462298e-20)
(0.29843186 -2.4434089e-05 2.7096379e-18)
(0.29801658 -5.9582979e-05 1.5506273e-18)
(0.29688883 -8.5943394e-05 -5.1238566e-19)
(0.29457851 -9.8910841e-05 5.4340237e-19)
(0.29059935 -9.1868425e-05 9.5847046e-19)
(0.28488126 -7.0382615e-05 3.4758488e-19)
(0.27767954 -4.4890673e-05 1.4002132e-19)
(0.26919163 -2.2395836e-05 1.1274319e-19)
(0.25937815 -5.7364097e-06 1.2569399e-19)
(0.24785972 4.3904898e-06 1.7273613e-19)
(0.2336621 8.3016004e-06 2.0170436e-19)
(0.21430404 7.3667002e-06 4.8386393e-20)
(0.18054443 3.5354658e-06 8.939973e-20)
(0.29928359 -2.3462153e-05 -8.9756395e-21)
(0.29879547 -5.6937591e-05 -4.9191316e-19)
(0.29748763 -8.0561619e-05 8.1465814e-19)
(0.29489309 -8.9732424e-05 9.097711e-19)
(0.29062422 -7.9932333e-05 1.2494833e-19)
(0.28472341 -5.8420096e-05 7.647876e-19)
(0.27745536 -3.4827525e-05 1.0496361e-18)
(0.26897782 -1.4770402e-05 6.1399261e-19)
(0.25921519 -3.9179392e-07 1.5755498e-19)
(0.24776702 7.7920483e-06 -1.8667552e-19)
(0.23364198 1.0181104e-05 -2.5847878e-19)
(0.21434474 8.2147636e-06 1.1375022e-19)
(0.18062225 3.7449978e-06 7.2225752e-20)
(0.30009637 -2.2329729e-05 -8.7121536e-19)
(0.29952479 -5.3875496e-05 1.8143503e-18)
(0.29801875 -7.4505251e-05 1.6848934e-18)
(0.29513749 -7.9999945e-05 5.222922e-19)
(0.29060659 -6.8080574e-05 1.5588015e-19)
(0.28455591 -4.7062475e-05 4.1137152e-19)
(0.27724164 -2.5459221e-05 7.1779067e-19)
(0.2687829 -7.7156665e-06 1.0783304e-19)
(0.25907248 4.5153938e-06 2.801528e-19)
(0.24769347 1.0881385e-05 -7.6094967e-20)
(0.23363709 1.1884863e-05 2.2997456e-20)
(0.21439637 8.9837417e-06 8.4336354e-20)
(0.1807069 3.9343468e-06 -1.1348407e-19)
(0.30086402 -2.1007837e-05 2.5500557e-18)
(0.30019808 -5.0335138e-05 3.4110485e-18)
(0.29847858 -6.7767499e-05 2.1944074e-18)
(0.29531607 -6.9843619e-05 -9.8868629e-19)
(0.29055391 -5.6454422e-05 3.35999e-19)
(0.28438287 -3.6332023e-05 -1.4762785e-19)
(0.27703906 -1.6748264e-05 -4.3219181e-19)
(0.2686053 -1.1875279e-06 -4.105369e-19)
(0.25894976 9.0213345e-06 2.3589714e-19)
(0.24763751 1.3689793e-05 4.7593197e-19)
(0.23364609 1.3431086e-05 5.5613368e-19)
(0.21445793 9.6806806e-06 -1.0359049e-19)
(0.18079772 4.10502e-06 -9.966367e-20)
(0.30157943 -1.9467191e-05 3.5159237e-18)
(0.30080863 -4.6264339e-05 3.5019591e-18)
(0.29886499 -6.0378827e-05 9.1911119e-19)
(0.29543444 -5.9413953e-05 -3.6204134e-19)
(0.29047287 -4.5169368e-05 -1.7918299e-19)
(0.28420752 -2.6229154e-05 4.7730621e-20)
(0.27684812 -8.6362723e-06 -1.8068706e-19)
(0.26844451 4.8386417e-06 -3.2966392e-19)
(0.25884557 1.3135763e-05 -2.41553e-19)
(0.2475977 1.6244093e-05 1.2651478e-19)
(0.23366777 1.4835353e-05 2.3729727e-19)
(0.21452852 1.0311983e-05 -9.9086357e-21)
(0.18089414 4.2585304e-06 -3.4499974e-20)
(0.30223466 -1.768157e-05 -9.2387753e-20)
(0.3013499 -4.1630429e-05 7.2588619e-19)
(0.29917751 -5.240954e-05 -1.626363e-19)
(0.29549883 -4.8869424e-05 8.166807e-19)
(0.29036918 -3.4313657e-05 3.7109778e-19)
(0.28403214 -1.6747519e-05 2.5792726e-19)
(0.27666826 -1.0891136e-06 4.9943257e-19)
(0.26830088 1.0390972e-05 -1.2960283e-19)
(0.25875851 1.6888479e-05 -2.0750432e-19)
(0.24757272 1.856818e-05 -3.4447084e-19)
(0.23370102 1.6110018e-05 1.3944951e-21)
(0.21460732 1.088276e-05 -3.3467411e-20)
(0.18099561 4.3960745e-06 -7.8383187e-20)
(0.30282117 -1.5633392e-05 -1.2258152e-20)
(0.30181594 -3.6431488e-05 -1.0578636e-18)
(0.29941741 -4.3968559e-05 3.0879788e-19)
(0.29551566 -3.8365472e-05 1.1443175e-18)
(0.2902477 -2.3945231e-05 7.3770443e-19)
(0.28385859 -7.8477334e-06 4.3828378e-19)
(0.27649982 5.9141158e-06 1.294068e-19)
(0.26817344 1.5479806e-05 -1.0854169e-19)
(0.25868728 2.0310834e-05 -2.7217434e-20)
(0.24756135 2.0682631e-05 -9.7676605e-20)
(0.23374485 1.7265698e-05 4.6582808e-20)
(0.21469357 1.1397584e-05 2.4752792e-21)
(0.18110164 4.518759e-06 -3.7692777e-20)
(0.30333026 -1.332079e-05 3.7042143e-18)
(0.30220189 -3.0705591e-05 2.8023047e-18)
(0.29958744 -3.5196378e-05 9.8508848e-19)
(0.29549103 -2.8043654e-05 1.1742366e-18)
(0.29011218 -1.4099851e-05 6.1540976e-19)
(0.28368733 4.8516186e-07 3.8093201e-19)
(0.276344 1.238889e-05 -2.5367825e-19)
(0.26806119 2.0135119e-05 1.8750126e-19)
(0.2586307 2.3431345e-05 4.8782717e-20)
(0.24756246 2.260456e-05 3.8019256e-19)
(0.23379832 1.8311468e-05 2.4580816e-19)
(0.21478659 1.1860463e-05 2.8736302e-19)
(0.18121176 4.6275476e-06 5.788078e-20)
(0.30375374 -1.0764904e-05 1.7164923e-18)
(0.30250438 -2.4536357e-05 3.489555e-18)
(0.29969147 -2.6255599e-05 2.9193684e-18)
(0.29543051 -1.8024205e-05 -2.4465621e-19)
(0.28996562 -4.785821e-06 2.1256824e-19)
(0.28352015 8.2431118e-06 3.1191839e-19)
(0.27620025 1.8335877e-05 1.4885865e-19)
(0.26796311 2.4389463e-05 6.3527523e-21)
(0.25858763 2.6274654e-05 -2.0351832e-21)
(0.24757502 2.434891e-05 1.6135079e-19)
(0.2338606 1.9255533e-05 1.8194126e-21)
(0.21488574 1.2275084e-05 1.6276486e-20)
(0.18132555 4.7233418e-06 6.6963567e-20)
(0.30408466 -8.0145741e-06 1.3009457e-18)
(0.30272186 -1.8051792e-05 3.2647689e-18)
(0.29973407 -1.7315888e-05 1.0444798e-18)
(0.29533886 -8.3895889e-06 -4.5607726e-19)
(0.28980995 3.978956e-06 -1.2040551e-19)
(0.28335875 1.5424494e-05 1.2618317e-19)
(0.27606809 2.378473e-05 7.3809742e-20)
(0.26787825 2.827228e-05 -6.717587e-20)
(0.25855702 2.8860165e-05 7.0156111e-20)
(0.24759809 2.5927616e-05 -2.7639094e-20)
(0.23393092 2.0104414e-05 -1.1759666e-19)
(0.21499043 1.2644233e-05 -5.8935675e-20)
(0.1814426 4.8067247e-06 4.1818777e-20)
(0.30431819 -5.1449419e-06 2.2092959e-18)
(0.30285461 -1.1412639e-05 -1.3345463e-19)
(0.29971994 -8.5331628e-06 -1.2967078e-18)
(0.29521955 7.8208108e-07 5.8044754e-19)
(0.28964857 1.2143078e-05 4.3276408e-19)
(0.28320331 2.2022616e-05 1.2889494e-19)
(0.27594691 2.8765119e-05 7.414114e-19)
(0.26780566 3.1808693e-05 3.8676306e-19)
(0.25853789 3.1205173e-05 1.6699836e-19)
(0.24763076 2.7351713e-05 -2.9063771e-19)
(0.23400854 2.0864201e-05 -1.6661398e-19)
(0.2151001 1.2970553e-05 -1.135049e-19)
(0.18156252 4.8782874e-06 -1.2056039e-20)
(0.30445222 -2.2472308e-06 3.3244851e-19)
(0.30290466 -4.7892355e-06 5.1879016e-19)
(0.2996534 -5.7443914e-08 6.8398715e-19)
(0.29507686 9.3868706e-06 8.3070688e-19)
(0.28948321 1.9670548e-05 9.7156645e-19)
(0.28305386 2.8057795e-05 4.4031082e-19)
(0.27583605 3.3302671e-05 5.0207736e-19)
(0.26774441 3.5018185e-05 2.1132088e-19)
(0.25852929 3.3323428e-05 1.7556466e-19)
(0.24767222 2.8629906e-05 1.0619262e-19)
(0.23409279 2.1539489e-05 1.0372139e-19)
(0.21521426 1.3255893e-05 2.3861453e-20)
(0.18168496 4.9383573e-06 3.5749952e-20)
(0.30448759 5.8143327e-07 -1.9679528e-18)
(0.30287533 1.6331973e-06 2.6435539e-18)
(0.29953939 7.9403849e-06 2.1385788e-18)
(0.29491435 1.7334241e-05 9.369161e-19)
(0.28931491 2.6550381e-05 6.8660076e-19)
(0.28291026 3.3548712e-05 6.4159722e-19)
(0.2757348 3.7416515e-05 -2.5519515e-19)
(0.26769361 3.7916264e-05 8.6434151e-20)
(0.25853035 3.5226102e-05 3.3971948e-19)
(0.24772169 2.9769068e-05 4.5330672e-19)
(0.23418305 2.2133727e-05 2.8914876e-19)
(0.2153324 1.3501524e-05 4.0336567e-19)
(0.18180955 4.9870834e-06 8.5046147e-20)
(0.30442824 3.2381416e-06 -9.9221939e-19)
(0.30277199 7.6569877e-06 1.6861173e-18)
(0.29938292 1.5304005e-05 2.2151264e-18)
(0.29473444 2.456537e-05 -1.5003831e-19)
(0.28914434 3.2781693e-05 8.3676117e-20)
(0.28277222 3.850812e-05 4.1636949e-19)
(0.27564244 4.1120443e-05 -1.3701437e-19)
(0.26765239 4.0514581e-05 2.2474042e-19)
(0.25854021 3.6921353e-05 2.1880149e-19)
(0.24777843 3.0773892e-05 5.1408216e-20)
(0.23427872 2.2648994e-05 -9.762881e-21)
(0.21545406 1.3708013e-05 -2.8426396e-20)
(0.18193595 5.0243925e-06 -5.6410913e-21)
(0.30428148 5.6355934e-06 1.3055324e-18)
(0.30260141 1.3122387e-05 2.0142254e-18)
(0.29918843 2.1930426e-05 9.8321296e-19)
(0.29453912 3.1047524e-05 4.4738835e-19)
(0.28897192 3.8362688e-05 2.8082681e-19)
(0.28263933 4.2943548e-05 2.4779449e-19)
(0.2755582 4.4423839e-05 2.0018389e-19)
(0.26761989 4.2820984e-05 4.5814398e-21)
(0.25855808 3.841425e-05 -1.452202e-19)
(0.24784174 3.1646847e-05 1.2948906e-20)
(0.23437921 2.3085959e-05 -6.414513e-20)
(0.21557877 1.387517e-05 -2.0880622e-19)
(0.18206381 5.0499527e-06 -1.5044521e-20)
(0.30405678 7.7205472e-06 2.9229972e-18)
(0.30237113 1.7926718e-05 3.2951589e-18)
(0.29896016 2.7756824e-05 1.1392179e-18)
(0.29433004 3.6759526e-05 6.4316028e-19)
(0.28879784 4.3291008e-05 2.170942e-19)
(0.2825111 4.6859619e-05 3.9107814e-20)
(0.2754813 4.7332611e-05 3.1517231e-19)
(0.26759529 4.4839953e-05 3.0116084e-19)
(0.25858316 3.9707106e-05 6.5277914e-20)
(0.24791094 3.2388406e-05 2.47647e-19)
(0.23448396 2.3444007e-05 5.7589902e-20)
(0.21570609 1.400212e-05 -4.3507169e-20)
(0.18219278 5.0632144e-06 2.0461844e-20)
(0.30376497 9.4676984e-06 1.13059e-18)
(0.30208913 2.2015493e-05 3.8454355e-18)
(0.29870222 3.2751943e-05 2.216294e-18)
(0.29410866 4.1691473e-05 1.0055897e-18)
(0.2886222 4.756634e-05 1.2426199e-19)
(0.28238699 5.025951e-05 -1.6750162e-19)