/*--------------------------------*- C++ -*----------------------------------*\
| =========                 |                                                 |
| \\      /  F ield         | OpenFOAM: The Open Source CFD Toolbox           |
|  \\    /   O peration     | Version:  2506                                  |
|   \\  /    A nd           | Website:  www.openfoam.com                      |
|    \\/     M anipulation  |                                                 |
\*---------------------------------------------------------------------------*/
FoamFile
{
    version     2.0;
    format      ascii;
    arch        "LSB;label=32;scalar=64";
    class       volScalarField;
    location    "2000/water";
    object      alphat;
}
// * * * * * * * * * * * * * * * * * * * * * * * * * * * * * * * * * * * * * //

dimensions      [1 -1 -1 0 0 0 0];

internalField   nonuniform List<scalar> 
1000
(
0.038690245
0.038689577
0.038688046
0.038679676
0.038634252
0.038395956
0.037190881
0.031863289
0.019099264
0.016301307
0.036437656
0.036436968
0.036430539
0.036397696
0.036243742
0.035561448
0.032798674
0.024476361
0.014644258
0.017654592
0.034756095
0.034752687
0.034735392
0.034658263
0.034338315
0.033096042
0.028914323
0.020078519
0.014287375
0.017671294
0.033455039
0.033447371
0.03341324
0.03327659
0.032760732
0.030940112
0.025769939
0.018272084
0.015952078
0.017301529
0.032418332
0.032405139
0.032350678
0.032150527
0.031437441
0.02907042
0.02355626
0.018636087
0.018861751
0.016925718
0.031571667
0.031552637
0.031479595
0.031226163
0.030328128
0.027485322
0.022555264
0.020803931
0.02227902
0.016666266
0.030866455
0.030843487
0.030761491
0.030477927
0.029402048
0.026292199
0.023061937
0.024244011
0.025541407
0.016525223
0.03027085
0.030249443
0.03017814
0.029894433
0.028644189
0.025787295
0.025138429
0.028280562
0.028305015
0.016463218
0.029764732
0.029755533
0.029725644
0.029468558
0.028106939
0.026357006
0.028508369
0.032334625
0.030519281
0.016442697
0.029337061
0.029357524
0.029409746
0.02919666
0.027980893
0.028237253
0.032681325
0.036080812
0.032267664
0.016440716
0.028984751
0.029060635
0.029241325
0.029099526
0.028583366
0.031374957
0.037164788
0.039413771
0.033659241
0.016446409
0.028712546
0.028878702
0.029233141
0.029270302
0.030215114
0.035478444
0.041608754
0.042341671
0.034787797
0.016455612
0.028533642
0.02883309
0.029403383
0.029912874
0.033002565
0.040161317
0.045828123
0.044910619
0.035723431
0.016467074
0.028470745
0.028950989
0.029795688
0.031303772
0.036852071
0.045075478
0.049751658
0.047172403
0.036515447
0.01648053
0.02855716
0.029264134
0.03051622
0.033675965
0.041512092
0.04997721
0.053365909
0.049174149
0.037197876
0.01649592
0.028837359
0.02981252
0.031757775
0.037114306
0.046676458
0.054726192
0.056681908
0.050955597
0.037793767
0.016513142
0.029366767
0.030660848
0.033764835
0.041531306
0.052071067
0.059252876
0.059719588
0.052547801
0.038312914
0.016531937
0.030212449
0.031928362
0.036741964
0.046714534
0.057495092
0.063527074
0.062500556
0.05397142
0.038771663
0.016552019
0.031460519
0.033808192
0.040769089
0.052403012
0.06282014
0.06753854
0.065043639
0.055249803
0.039180712
0.016573195
0.033237226
0.036537597
0.045775286
0.05835347
0.067969629
0.071286816
0.06736742
0.056402376
0.039547827
0.016595303
0.03573508
0.040316525
0.051571002
0.064374754
0.072897499
0.074772623
0.069492257
0.057443848
0.039878916
0.016618162
0.039206116
0.045225162
0.057909607
0.07033052
0.077571551
0.078005749
0.071434896
0.058386014
0.040178256
0.016641578
0.043888486
0.05119051
0.06454566
0.076123704
0.08197352
0.080997051
0.073208903
0.05923814
0.040448952
0.016665348
0.049892741
0.05800976
0.071267929
0.081682875
0.086094525
0.083754991
0.074824889
0.0600072
0.04069316
0.016689274
0.057120932
0.065404803
0.077906025
0.086957634
0.089927865
0.086285104
0.076290298
0.060697994
0.040912188
0.016713149
0.06526891
0.073077331
0.084333209
0.091910379
0.093465165
0.088589445
0.077609384
0.061313274
0.041106563
0.016736754
0.073907732
0.08075507
0.090454765
0.096507853
0.096696088
0.090666736
0.078783498
0.061853994
0.041276146
0.016759847
0.082593883
0.088208194
0.096194304
0.10072108
0.099609393
0.092513341
0.07981181
0.062319766
0.041420331
0.016782164
0.090954786
0.095254903
0.10149085
0.10452669
0.10219497
0.094124923
0.08069244
0.062709501
0.041538307
0.016803424
0.098726756
0.10176223
0.10629894
0.10790875
0.10444621
0.095498432
0.081423818
0.063022182
0.041629354
0.016823342
0.10575372
0.10764398
0.11058956
0.1108604
0.10636206
0.096633964
0.082006029
0.063257645
0.041693158
0.016841648
0.11196601
0.11285586
0.11435049
0.11338453
0.10794823
0.097536101
0.082441898
0.063417239
0.041730065
0.01685811
0.11735481
0.11738835
0.11758537
0.11549362
0.10921749
0.098214518
0.08273761
0.063504249
0.041741256
0.01687255
0.12195028
0.1212586
0.12031171
0.11720862
0.11018907
0.09868385
0.082902809
0.063524015
0.041728791
0.016884863
0.12580539
0.12450255
0.12255811
0.11855736
0.11088747
0.098962956
0.082950206
0.063483737
0.041695518
0.016895022
0.12898506
0.12716823
0.12436123
0.11957263
0.11134099
0.099073787
0.082894844
0.063392045
0.041644875
0.016903079
0.13155911
0.1293104
0.12576286
0.12029026
0.11158007
0.099040104
0.082753154
0.063258416
0.041580628
0.016909153
0.13359784
0.13098653
0.12680732
0.12074734
0.11163585
0.098886215
0.082542006
0.063092563
0.041506592
0.016913415
0.13516928
0.13225392
0.12753942
0.12098076
0.11153892
0.098635894
0.082277853
0.062903884
0.041426393
0.016916071
0.13633751
0.13316776
0.12800279
0.12102605
0.11131833
0.098311539
0.081976063
0.062701038
0.041343291
0.016917342
0.13716175
0.13377987
0.1282388
0.12091656
0.11100097
0.097933601
0.081650477
0.062491665
0.04126007
0.016917453
0.13769595
0.13413798
0.12828583
0.12068296
0.11061114
0.097520258
0.081313149
0.062282242
0.041179005
0.016916622
0.13798861
0.1342854
0.12817892
0.12035293
0.11017039
0.097087275
0.080974266
0.062078056
0.041101859
0.01691505
0.138083
0.13426099
0.12794955
0.11995113
0.10969748
0.096648005
0.080642159
0.061883234
0.041029917
0.016912922
0.13801732
0.13409919
0.12762568
0.11949912
0.10920844
0.096213428
0.080323309
0.061700562
0.040962956
0.016910385
0.13782505
0.13383029
0.12723182
0.11901551
0.10871661
0.095792239
0.08002234
0.061531122
0.040902121
0.016907567
0.1375353
0.13348062
0.12678916
0.11851606
0.1082328
0.095390898
0.079741803
0.061377002
0.040847883
0.016904594
0.13717312
0.13307284
0.12631577
0.11801377
0.10776538
0.095013547
0.079484809
0.061238991
0.0408004
0.01690157
0.1367599
0.13262621
0.12582679
0.11751906
0.10732025
0.094664448
0.079252786
0.061117289
0.040759578
0.016898578
0.13631364
0.13215684
0.12533445
0.11703983
0.10690309
0.094345988
0.079046256
0.061011649
0.040725141
0.016895681
0.13584919
0.13167783
0.12484879
0.11658342
0.10651758
0.094059377
0.078865047
0.060921468
0.040696691
0.016892929
0.13537882
0.13120034
0.12437856
0.11615509
0.10616602
0.093804897
0.07870844
0.060845884
0.040673751
0.016890354
0.13491293
0.13073367
0.12393052
0.11575857
0.1058496
0.093582078
0.078575293
0.06078385
0.040655798
0.01688798
0.13445996
0.13028522
0.12350973
0.11539623
0.10556851
0.093389848
0.078464146
0.060734202
0.04064229
0.01688582
0.13402662
0.1298607
0.12311979
0.11506933
0.10532218
0.093226668
0.078373321
0.060695708
0.040632682
0.016883882
0.13361801
0.1294643
0.12276305
0.11477816
0.10510942
0.093090661
0.078301004
0.060667121
0.040626447
0.016882163
0.13323785
0.12909892
0.12244075
0.11452227
0.10492857
0.092979721
0.078245324
0.060647214
0.040623089
0.016880659
0.13288866
0.12876634
0.12215327
0.11430055
0.1047776
0.092891607
0.078204406
0.060634811
0.040622144
0.016879362
0.13257191
0.12846741
0.1219002
0.11411141
0.10465424
0.092824016
0.078176417
0.060628796
0.040623188
0.01687826
0.13228817
0.12820214
0.12168056
0.1139529
0.10455608
0.092774637
0.07815959
0.060628129
0.040625836
0.016877341
0.13203727
0.12796991
0.12149284
0.11382278
0.1044806
0.092741202
0.078152246
0.060631847
0.040629737
0.01687659
0.13181845
0.12776953
0.12133517
0.11371864
0.10442528
0.092721521
0.078152815
0.060639074
0.040634581
0.016875992
0.13163043
0.12759941
0.12120543
0.11363797
0.10438765
0.092713519
0.078159853
0.060649022
0.040640095
0.016875531
0.13147155
0.12745764
0.12110128
0.11357822
0.10436529
0.09271526
0.07817205
0.060660996
0.040646047
0.016875192
0.13133989
0.12734208
0.12102031
0.11353691
0.10435595
0.092724969
0.078188234
0.060674392
0.040652239
0.01687496
0.13123332
0.12725045
0.12096008
0.1135116
0.10435751
0.092741032
0.07820737
0.060688689
0.040658507
0.01687482
0.1311496
0.12718041
0.12091815
0.11349998
0.104368
0.092761995
0.078228548
0.060703441
0.040664714
0.01687476
0.13108642
0.1271296
0.12089214
0.11349985
0.10438562
0.092786563
0.078250976
0.060718269
0.040670746
0.016874767
0.13104147
0.12709565
0.12087978
0.11350919
0.10440873
0.092813586
0.07827397
0.060732855
0.040676509
0.016874828
0.13101243
0.12707628
0.12087888
0.11352611
0.10443589
0.092842068
0.078296954
0.06074694
0.040681931
0.016874932
0.1309971
0.12706931
0.12088743
0.1135489
0.1044658
0.092871156
0.078319453
0.060760322
0.040686961
0.01687507
0.13099335
0.12707266
0.12090355
0.11357604
0.10449735
0.092900141
0.078341088
0.060772842
0.040691522
0.016875232
0.13099921
0.12708444
0.12092558
0.1136062
0.1045296
0.092928445
0.078361558
0.060784355
0.040695595
0.016875409
0.13101285
0.12710292
0.12095201
0.11363822
0.10456177
0.092955602
0.078380618
0.060794797
0.040699203
0.016875595
0.13103264
0.12712654
0.12098154
0.11367113
0.1045932
0.092981231
0.078398115
0.060804171
0.040702367
0.016875785
0.13105711
0.12715392
0.12101301
0.1137041
0.10462337
0.093005061
0.078414001
0.060812484
0.040705111
0.016875975
0.13108494
0.12718386
0.12104545
0.1137364
0.10465185
0.093026958
0.078428245
0.060819763
0.04070746
0.016876162
0.13111498
0.12721528
0.12107797
0.11376748
0.10467839
0.093046823
0.078440854
0.06082605
0.040709439
0.016876342
0.13114622
0.12724725
0.1211099
0.11379695
0.1047028
0.093064614
0.078451864
0.060831395
0.040711075
0.016876514
0.13117777
0.12727901
0.1211407
0.11382448
0.10472496
0.093080334
0.078461334
0.060835857
0.040712395
0.016876674
0.13120893
0.12730996
0.12116993
0.11384985
0.10474481
0.093094031
0.078469345
0.060839503
0.040713429
0.016876823
0.13123913
0.12733959
0.12119728
0.11387294
0.10476236
0.093105785
0.078475995
0.060842404
0.040714205
0.016876958
0.13126793
0.12736755
0.12122252
0.11389368
0.10477766
0.093115709
0.078481395
0.060844637
0.040714757
0.016877079
0.13129498
0.12739356
0.12124553
0.11391207
0.10479081
0.093123937
0.078485667
0.060846282
0.040715115
0.016877187
0.13132008
0.12741747
0.12126625
0.11392818
0.10480195
0.093130617
0.078488936
0.060847417
0.040715311
0.016877282
0.13134307
0.12743917
0.12128469
0.1139421
0.10481123
0.093135902
0.078491324
0.060848117
0.040715372
0.016877365
0.13136388
0.12745863
0.12130088
0.11395395
0.10481878
0.093139942
0.078492945
0.060848448
0.040715323
0.016877436
0.13138247
0.12747586
0.1213149
0.11396386
0.10482478
0.093142879
0.078493905
0.06084847
0.040715184
0.016877496
0.13139886
0.12749089
0.12132685
0.11397196
0.10482937
0.093144844
0.078494298
0.060848234
0.040714971
0.016877545
0.13141307
0.1275038
0.12133682
0.11397841
0.10483269
0.093145962
0.07849421
0.060847786
0.040714699
0.016877585
0.13142518
0.12751466
0.12134496
0.11398334
0.1048349
0.093146352
0.078493721
0.060847169
0.040714383
0.016877616
0.13143528
0.1275236
0.12135141
0.11398692
0.10483614
0.093146132
0.078492912
0.060846423
0.040714034
0.016877639
0.1314435
0.12753076
0.12135631
0.11398931
0.10483655
0.093145415
0.078491857
0.06084559
0.040713669
0.016877654
0.13144999
0.1275363
0.12135985
0.11399066
0.10483628
0.09314431
0.078490626
0.060844705
0.0407133
0.016877663
0.13145492
0.12754038
0.12136219
0.11399116
0.10483546
0.093142916
0.078489283
0.0608438
0.040712938
0.016877667
0.13145846
0.12754319
0.12136351
0.11399093
0.10483421
0.093141316
0.078487877
0.0608429
0.040712589
0.016877667
0.13146077
0.12754488
0.12136394
0.1139901
0.10483263
0.093139575
0.078486446
0.06084202
0.040712257
0.016877664
0.13146202
0.1275456
0.12136362
0.1139888
0.10483079
0.093137743
0.078485014
0.060841168
0.040711943
0.016877658
0.13146233
0.12754549
0.12136268
0.1139871
0.10482877
0.093135861
0.078483602
0.060840349
0.040711644
0.016877649
0.13146184
0.12754467
0.12136121
0.11398509
0.10482661
0.093133958
0.078482219
0.060839565
0.04071136
0.016877638
)
;

boundaryField
{
    water_inlet
    {
        type            calculated;
        value           uniform 0.041850807;
    }
    water_outlet
    {
        type            calculated;
        value           nonuniform List<scalar> 10(0.13146184 0.12754467 0.12136121 0.11398509 0.10482661 0.093133958 0.078482219 0.060839565 0.04071136 0.016877638);
    }
    water_wedge1
    {
        type            wedge;
    }
    water_wedge2
    {
        type            wedge;
    }
    water_to_rock
    {
        type            compressible::alphatWallFunction;
        value           nonuniform List<scalar> 
100
(
0.0020384971
0.0022594581
0.0022621707
0.0022020356
0.0021407412
0.0020983187
0.0020752205
0.0020650583
0.0020616936
0.0020613686
0.0020623024
0.0020638117
0.002065691
0.0020678965
0.0020704185
0.0020732407
0.002076321
0.0020796119
0.0020830813
0.0020867022
0.0020904451
0.0020942783
0.0020981692
0.0021020851
0.0021059919
0.0021098535
0.0021136304
0.0021172798
0.0021207561
0.0021240127
0.0021270054
0.0021296961
0.0021320557
0.0021340673
0.0021357268
0.002137043
0.0021380353
0.0021387317
0.0021391657
0.0021393734
0.0021393915
0.0021392555
0.0021389987
0.0021386511
0.0021382368
0.0021377767
0.0021372911
0.0021367971
0.0021363082
0.002135835
0.0021353852
0.0021349646
0.0021345768
0.002134224
0.0021339072
0.0021336263
0.0021333806
0.0021331686
0.0021329885
0.0021328382
0.0021327154
0.0021326176
0.0021325422
0.0021324867
0.0021324488
0.002132426
0.0021324162
0.0021324172
0.0021324272
0.0021324442
0.0021324666
0.0021324931
0.0021325221
0.0021325525
0.0021325837
0.0021326149
0.0021326455
0.0021326751
0.0021327031
0.0021327294
0.0021327537
0.0021327758
0.0021327957
0.0021328134
0.0021328289
0.0021328425
0.002132854
0.0021328637
0.0021328717
0.0021328781
0.0021328829
0.0021328865
0.0021328888
0.0021328903
0.0021328909
0.0021328908
0.0021328901
0.002132889
0.0021328875
0.0021328857
)
;
    }
}


// ************************************************************************* //
