/*--------------------------------*- C++ -*----------------------------------*\
| =========                 |                                                 |
| \\      /  F ield         | OpenFOAM: The Open Source CFD Toolbox           |
|  \\    /   O peration     | Version:  2506                                  |
|   \\  /    A nd           | Website:  www.openfoam.com                      |
|    \\/     M anipulation  |                                                 |
\*---------------------------------------------------------------------------*/
FoamFile
{
    version     2.0;
    format      ascii;
    arch        "LSB;label=32;scalar=64";
    class       volScalarField;
    location    "2000/water";
    object      epsilon;
}
// * * * * * * * * * * * * * * * * * * * * * * * * * * * * * * * * * * * * * //

dimensions      [0 2 -3 0 0 0 0];

internalField   nonuniform List<scalar> 
1000
(
7.2399316e-05
7.2397808e-05
7.2397502e-05
7.2398682e-05
7.2424146e-05
7.2686938e-05
7.4736184e-05
8.8973294e-05
0.00019794853
0.0013048048
4.7739543e-05
4.7745807e-05
4.7746167e-05
4.7748745e-05
4.7810065e-05
4.8371229e-05
5.2145896e-05
7.531932e-05
0.00023607338
0.0016574915
3.3261229e-05
3.326441e-05
3.3263962e-05
3.3272039e-05
3.3396639e-05
3.4348942e-05
3.9973143e-05
7.1502083e-05
0.00026549972
0.0016622
2.4212884e-05
2.4213778e-05
2.421353e-05
2.4236018e-05
2.4468828e-05
2.5979965e-05
3.4086706e-05
7.6375326e-05
0.00030233623
0.0015600258
1.8263229e-05
1.8263302e-05
1.8265922e-05
1.8318446e-05
1.8730725e-05
2.109074e-05
3.2935727e-05
9.0423854e-05
0.0003505374
0.00146056
1.4183053e-05
1.4183388e-05
1.4193788e-05
1.4301413e-05
1.500332e-05
1.8678178e-05
3.6168128e-05
0.00011337766
0.0004023055
0.0013944166
1.1285033e-05
1.1287109e-05
1.1313191e-05
1.1514087e-05
1.2672048e-05
1.8360629e-05
4.3854099e-05
0.00014255056
0.00044702265
0.0013593135
9.1651308e-06
9.1712237e-06
9.2251468e-06
9.5765152e-06
1.1437659e-05
2.0107158e-05
5.5828131e-05
0.00017322861
0.00047957517
0.0013440708
7.5754963e-06
7.5890767e-06
7.6892448e-06
8.276101e-06
1.1198202e-05
2.4041199e-05
7.1187063e-05
0.00020099072
0.00050080764
0.0013390507
6.3585386e-06
6.3848726e-06
6.558945e-06
7.5064187e-06
1.198451e-05
3.0236098e-05
8.8277512e-05
0.00022355945
0.00051393055
0.0013385665
5.4111025e-06
5.4581714e-06
5.7474927e-06
7.2369215e-06
1.3906637e-05
3.8515374e-05
0.00010524314
0.00024078299
0.00052197867
0.0013399581
4.6642397e-06
4.7441299e-06
5.2100504e-06
7.4969282e-06
1.7086931e-05
4.8355443e-05
0.00012068231
0.00025359525
0.00052708013
0.0013422096
4.0714678e-06
4.20244e-06
4.9349783e-06
8.362242e-06
2.1575385e-05
5.8975438e-05
0.00013393065
0.00026313421
0.00053055279
0.0013450167
3.6019037e-06
3.8114137e-06
4.940245e-06
9.9351063e-06
2.7272196e-05
6.9567154e-05
0.00014492654
0.00027035476
0.00053316346
0.0013483159
3.2363936e-06
3.5653627e-06
5.2715614e-06
1.2311471e-05
3.3901735e-05
7.9510858e-05
0.0001539248
0.0002759568
0.00053534159
0.0013520955
2.965665e-06
3.4742285e-06
5.9984284e-06
1.5537533e-05
4.1062778e-05
8.8461104e-05
0.00016127379
0.00028042561
0.00053731694
0.0013563343
2.7900142e-06
3.5645598e-06
7.2040881e-06
1.956998e-05
4.8330044e-05
9.6307013e-05
0.00016730374
0.00028408899
0.00053917725
0.0013609718
2.720266e-06
3.8804208e-06
8.966395e-06
2.4261396e-05
5.5349934e-05
0.00010308369
0.00017229214
0.00028715754
0.00054093628
0.0013659388
2.7797376e-06
4.4819624e-06
1.1330788e-05
2.9382996e-05
6.1887398e-05
0.00010889365
0.00017645186
0.00028975365
0.00054267214
0.0013711893
3.0065637e-06
5.4386919e-06
1.4283593e-05
3.4675014e-05
6.7820831e-05
0.00011385662
0.00017993856
0.00029198041
0.00054443452
0.0013766838
3.4547876e-06
6.8148559e-06
1.7738634e-05
3.9899749e-05
7.3111899e-05
0.0001180868
0.00018285404
0.0002939418
0.00054623698
0.0013823799
4.1911521e-06
8.6476177e-06
2.1546274e-05
4.4874777e-05
7.7769244e-05
0.00012165891
0.00018531805
0.00029569769
0.00054807431
0.0013882307
5.2835967e-06
1.0924888e-05
2.5521785e-05
4.9478094e-05
8.1803734e-05
0.00012466948
0.0001874129
0.00029728409
0.0005499328
0.0013941879
6.7799334e-06
1.3574444e-05
2.9480296e-05
5.3622597e-05
8.5253153e-05
0.00012719933
0.0001891952
0.000298721
0.00055179391
0.0014002016
8.6832447e-06
1.6474078e-05
3.325002e-05
5.7259548e-05
8.8167068e-05
0.00012930773
0.00019070229
0.00030001678
0.0005536352
0.0014062197
1.0937825e-05
1.9464232e-05
3.6694138e-05
6.0377196e-05
9.0586631e-05
0.00013103656
0.00019195679
0.00030117073
0.00055543063
0.0014121861
1.3423271e-05
2.238433e-05
3.9726981e-05
6.2977884e-05
9.2544796e-05
0.00013241425
0.00019297028
0.00030217535
0.000557151
0.001418039
1.5988115e-05
2.5103508e-05
4.2303169e-05
6.5074424e-05
9.4068689e-05
0.00013345989
0.00019374683
0.00030301865
0.00055876502
0.0014237108
1.8484535e-05
2.7531396e-05
4.4410713e-05
6.6689265e-05
9.5183172e-05
0.00013418762
0.00019428673
0.00030368687
0.00056024113
0.0014291285
2.0793656e-05
2.9617746e-05
4.6063551e-05
6.7854302e-05
9.5914469e-05
0.00013461094
0.00019459028
0.00030416764
0.00056155001
0.0014342173
2.283646e-05
3.1345706e-05
4.729404e-05
6.8609963e-05
9.6292836e-05
0.0001347463
0.00019466125
0.00030445301
0.0005626675
0.0014389053
2.4572728e-05
3.2723026e-05
4.8145987e-05
6.900324e-05
9.6353728e-05
0.00013461545
0.00019450948
0.00030454205
0.00056357735
0.0014431292
2.5993456e-05
3.3773725e-05
4.866882e-05
6.9085016e-05
9.6137445e-05
0.00013424628
0.00019415217
0.00030444227
0.00056427314
0.0014468406
2.7111458e-05
3.4531273e-05
4.8913194e-05
6.8907246e-05
9.5687674e-05
0.00013367225
0.00019361372
0.00030416979
0.00056475893
0.0014500098
2.7952856e-05
3.5033502e-05
4.8928003e-05
6.8520501e-05
9.5049467e-05
0.00013293076
0.00019292442
0.0003037481
0.00056504844
0.001452628
2.8550526e-05
3.5319072e-05
4.875856e-05
6.7972097e-05
9.4267164e-05
0.00013206107
0.00019211828
0.00030320595
0.00056516313
0.0014547069
2.8939557e-05
3.5425192e-05
4.8445633e-05
6.7304877e-05
9.3382598e-05
0.00013110206
0.00019123064
0.00030257473
0.00056512954
0.0014562758
2.9154352e-05
3.5386258e-05
4.8025075e-05
6.655656e-05
9.2433759e-05
0.00013009036
0.00019029586
0.00030188595
0.00056497645
0.0014573777
2.9226967e-05
3.5233158e-05
4.7527821e-05
6.5759531e-05
9.1453953e-05
0.00012905894
0.00018934547
0.00030116914
0.00056473253
0.0014580646
2.9186257e-05
3.4993015e-05
4.6980113e-05
6.4940947e-05
9.0471415e-05
0.00012803617
0.00018840691
0.00030045026
0.00056442445
0.0014583934
2.9057569e-05
3.4689203e-05
4.6403852e-05
6.412305e-05
8.9509282e-05
0.00012704541
0.00018750284
0.00029975093
0.00056407571
0.001458422
2.8862743e-05
3.4341546e-05
4.5817014e-05
6.33236e-05
8.8585824e-05
0.00012610503
0.00018665089
0.00029908803
0.00056370612
0.0014582068
2.8620302e-05
3.3966601e-05
4.5234086e-05
6.2556369e-05
8.7714853e-05
0.00012522861
0.0001858639
0.00029847389
0.00056333166
0.0014578002
2.834574e-05
3.357799e-05
4.4666494e-05
6.1831643e-05
8.6906214e-05
0.00012442547
0.00018515024
0.00029791657
0.00056296446
0.00145725
2.8051838e-05
3.3186737e-05
4.4123012e-05
6.1156707e-05
8.6166306e-05
0.00012370108
0.00018451438
0.00029742019
0.00056260891
0.0014565946
2.7748994e-05
3.28016e-05
4.3610143e-05
6.053632e-05
8.5498654e-05
0.00012305788
0.00018395773
0.00029698486
0.00056226313
0.0014558671
2.7445538e-05
3.2429388e-05
4.3132472e-05
5.9973156e-05
8.4904456e-05
0.00012249575
0.00018347851
0.00029660443
0.00056193998
0.0014550994
2.7148025e-05
3.2075245e-05
4.2692987e-05
5.9468198e-05
8.4383021e-05
0.00012201226
0.00018306998
0.00029628021
0.0005616461
0.0014543187
2.6861504e-05
3.1742917e-05
4.2293368e-05
5.9021084e-05
8.3932031e-05
0.00012160118
0.00018272933
0.00029601092
0.00056138434
0.0014535463
2.6589766e-05
3.1435007e-05
4.1934299e-05
5.8630226e-05
8.3546374e-05
0.00012125845
0.00018245249
0.00029579334
0.00056115524
0.001452799
2.6335576e-05
3.1153199e-05
4.1615262e-05
5.8292227e-05
8.3222173e-05
0.00012097925
0.00018223426
0.00029562316
0.00056095802
0.001452089
2.6100735e-05
3.089805e-05
4.1334755e-05
5.8004111e-05
8.2954998e-05
0.00012075813
0.00018206889
0.00029549548
0.00056079101
0.0014514252
2.5886136e-05
3.0669449e-05
4.1091098e-05
5.7762535e-05
8.2740051e-05
0.0001205893
0.00018195033
0.00029540522
0.00056065203
0.0014508134
2.5692134e-05
3.0466874e-05
4.0882299e-05
5.7563897e-05
8.2572327e-05
0.00012046685
0.00018187256
0.0002953473
0.00056053863
0.001450257
2.5518657e-05
3.0289458e-05
4.0706112e-05
5.7404429e-05
8.2446758e-05
0.00012038495
0.00018182972
0.00029531687
0.00056044825
0.0014497575
2.5365286e-05
3.0136059e-05
4.0560112e-05
5.7280289e-05
8.2358329e-05
0.00012033794
0.00018181629
0.00029530937
0.00056037832
0.0014493147
2.5231328e-05
3.0005315e-05
4.0441754e-05
5.7187641e-05
8.2302171e-05
0.00012032045
0.00018182711
0.00029532063
0.00056032639
0.0014489273
2.5115868e-05
2.9895701e-05
4.0348433e-05
5.7122719e-05
8.2273637e-05
0.00012032751
0.00018185748
0.00029534689
0.00056029013
0.0014485932
2.5017828e-05
2.9805582e-05
4.0277537e-05
5.7081886e-05
8.2268354e-05
0.0001203545
0.00018190318
0.00029538479
0.00056026737
0.0014483095
2.4936002e-05
2.9733252e-05
4.0226489e-05
5.7061678e-05
8.2282264e-05
0.00012039726
0.00018196043
0.00029543137
0.00056025605
0.0014480727
2.4869106e-05
2.9676976e-05
4.0192788e-05
5.7058836e-05
8.2311645e-05
0.00012045205
0.00018202594
0.00029548405
0.00056025429
0.0014478792
2.4815802e-05
2.9635021e-05
4.0174034e-05
5.7070333e-05
8.235313e-05
0.00012051557
0.00018209682
0.00029554062
0.00056026037
0.0014477251
2.4774735e-05
2.9605686e-05
4.0167961e-05
5.7093392e-05
8.2403708e-05
0.00012058495
0.00018217066
0.00029559921
0.00056027275
0.0014476062
2.4744557e-05
2.9587328e-05
4.0172449e-05
5.7125494e-05
8.2460727e-05
0.0001206577
0.0001822454
0.00029565825
0.00056029007
0.0014475189
2.4723947e-05
2.9578377e-05
4.0185543e-05
5.7164388e-05
8.2521874e-05
0.00012073174
0.00018231935
0.00029571648
0.00056031113
0.0014474591
2.4711632e-05
2.9577356e-05
4.0205461e-05
5.7208079e-05
8.2585171e-05
0.00012080533
0.00018239116
0.00029577288
0.00056033487
0.0014474232
2.4706398e-05
2.9582887e-05
4.0230593e-05
5.725483e-05
8.2648944e-05
0.00012087705
0.00018245975
0.00029582665
0.00056036036
0.0014474078
2.4707107e-05
2.9593706e-05
4.0259511e-05
5.7303146e-05
8.2711807e-05
0.00012094576
0.0001825243
0.00029587717
0.00056038677
0.0014474094
2.4712699e-05
2.9608662e-05
4.0290956e-05
5.7351764e-05
8.2772638e-05
0.00012101062
0.00018258423
0.00029592399
0.0005604134
0.001447425
2.4722202e-05
2.9626723e-05
4.0323841e-05
5.7399636e-05
8.2830555e-05
0.00012107097
0.00018263914
0.00029596682
0.00056043966
0.0014474518
2.4734736e-05
2.9646974e-05
4.035724e-05
5.7445915e-05
8.2884893e-05
0.00012112639
0.0001826888
0.00029600551
0.00056046507
0.0014474872
2.4749514e-05
2.9668616e-05
4.0390379e-05
5.7489938e-05
8.2935178e-05
0.00012117663
0.00018273314
0.00029603999
0.00056048909
0.0014475288
2.476584e-05
2.9690964e-05
4.0422627e-05
5.7531205e-05
8.2981103e-05
0.00012122159
0.00018277221
0.00029607027
0.00056051105
0.0014475745
2.478311e-05
2.9713437e-05
4.0453483e-05
5.7569361e-05
8.3022509e-05
0.0001212613
0.00018280614
0.00029609625
0.00056053083
0.0014476225
2.4800806e-05
2.9735554e-05
4.0482562e-05
5.760418e-05
8.3059359e-05
0.00012129589
0.00018283504
0.00029611807
0.00056054879
0.0014476717
2.4818494e-05
2.9756928e-05
4.0509587e-05
5.7635547e-05
8.3091716e-05
0.00012132548
0.00018285908
0.00029613619
0.00056056504
0.0014477209
2.4835814e-05
2.9777255e-05
4.0534373e-05
5.7663443e-05
8.3119674e-05
0.00012135027
0.00018287874
0.000296151
0.00056057964
0.0014477692
2.485248e-05
2.979631e-05
4.0556821e-05
5.7687882e-05
8.3143371e-05
0.00012137063
0.00018289442
0.00029616283
0.00056059262
0.0014478157
2.4868274e-05
2.9813935e-05
4.0576861e-05
5.7708935e-05
8.3163087e-05
0.00012138696
0.00018290656
0.000296172
0.00056060402
0.00144786
2.4883022e-05
2.9830007e-05
4.0594488e-05
5.7726768e-05
8.3179136e-05
0.00012139966
0.00018291555
0.0002961788
0.00056061388
0.0014479014
2.4896598e-05
2.9844458e-05
4.0609761e-05
5.7741587e-05
8.3191849e-05
0.00012140914
0.00018292179
0.00029618353
0.00056062228
0.0014479396
2.4908921e-05
2.9857273e-05
4.0622783e-05
5.7753629e-05
8.320157e-05
0.00012141578
0.00018292565
0.00029618647
0.0005606293
0.0014479744
2.4919958e-05
2.9868475e-05
4.0633684e-05
5.7763145e-05
8.3208642e-05
0.00012141996
0.00018292749
0.00029618789
0.00056063507
0.0014480058
2.4929705e-05
2.9878119e-05
4.0642622e-05
5.7770397e-05
8.3213402e-05
0.00012142205
0.00018292764
0.00029618805
0.00056063971
0.0014480337
2.4938192e-05
2.9886285e-05
4.0649765e-05
5.7775644e-05
8.3216173e-05
0.0001214224
0.00018292642
0.00029618718
0.00056064334
0.0014480583
2.4945468e-05
2.9893069e-05
4.065529e-05
5.7779143e-05
8.3217259e-05
0.0001214213
0.00018292409
0.0002961855
0.00056064608
0.0014480796
2.4951599e-05
2.9898579e-05
4.0659373e-05
5.7781138e-05
8.3216943e-05
0.00012141905
0.00018292092
0.00029618317
0.00056064802
0.0014480978
2.4956663e-05
2.990293e-05
4.0662192e-05
5.7781858e-05
8.3215486e-05
0.0001214159
0.0001829171
0.00029618036
0.00056064927
0.001448113
2.4960747e-05
2.990624e-05
4.0663914e-05
5.7781519e-05
8.3213123e-05
0.00012141208
0.00018291284
0.0002961772
0.00056064988
0.0014481255
2.4963943e-05
2.9908628e-05
4.0664702e-05
5.7780318e-05
8.3210064e-05
0.00012140778
0.0001829083
0.00029617381
0.00056064996
0.0014481354
2.4966342e-05
2.9910209e-05
4.0664708e-05
5.7778435e-05
8.3206499e-05
0.00012140317
0.00018290361
0.00029617029
0.00056064958
0.001448143
2.496804e-05
2.9911097e-05
4.0664072e-05
5.7776033e-05
8.3202592e-05
0.00012139841
0.0001828989
0.00029616676
0.00056064883
0.0014481485
2.4969126e-05
2.9911397e-05
4.0662924e-05
5.7773255e-05
8.3198487e-05
0.00012139363
0.00018289429
0.00029616328
0.00056064782
0.0014481522
2.496969e-05
2.9911211e-05
4.066138e-05
5.7770228e-05
8.3194306e-05
0.00012138893
0.00018288984
0.00029615993
0.00056064662
0.0014481544
2.4969813e-05
2.9910629e-05
4.0659545e-05
5.776706e-05
8.3190149e-05
0.00012138439
0.00018288562
0.00029615675
0.00056064531
0.0014481553
2.4969573e-05
2.9909735e-05
4.0657508e-05
5.7763842e-05
8.3186099e-05
0.00012138008
0.00018288168
0.00029615379
0.00056064393
0.0014481551
2.496904e-05
2.9908605e-05
4.0655348e-05
5.7760647e-05
8.3182217e-05
0.00012137604
0.00018287804
0.00029615104
0.00056064249
0.001448154
2.4968279e-05
2.9907302e-05
4.065313e-05
5.7757537e-05
8.3178551e-05
0.00012137231
0.00018287472
0.00029614853
0.00056064103
0.0014481522
2.4967345e-05
2.9905886e-05
4.0650912e-05
5.775456e-05
8.3175136e-05
0.00012136889
0.00018287172
0.00029614624
0.00056063953
0.0014481498
2.4966294e-05
2.9904411e-05
4.0648746e-05
5.7751763e-05
8.3172005e-05
0.00012136581
0.00018286903
0.00029614414
0.00056063798
0.0014481468
)
;

boundaryField
{
    water_inlet
    {
        type            turbulentMixingLengthDissipationRateInlet;
        mixingLength    0.005;
        phi             phi;
        k               k;
        value           uniform 0.00011791765;
    }
    water_outlet
    {
        type            inletOutlet;
        inletValue      uniform 0.0001;
        value           nonuniform List<scalar> 10(2.4966294e-05 2.9904411e-05 4.0648746e-05 5.7751763e-05 8.3172005e-05 0.00012136581 0.00018286903 0.00029614414 0.00056063798 0.0014481468);
    }
    water_wedge1
    {
        type            wedge;
    }
    water_wedge2
    {
        type            wedge;
    }
    water_to_rock
    {
        type            epsilonWallFunction;
        blending        stepwise;
        value           nonuniform List<scalar> 
100
(
0.0013048048
0.0016574915
0.0016622
0.0015600258
0.00146056
0.0013944166
0.0013593135
0.0013440708
0.0013390507
0.0013385665
0.0013399581
0.0013422096
0.0013450167
0.0013483159
0.0013520955
0.0013563343
0.0013609718
0.0013659388
0.0013711893
0.0013766838
0.0013823799
0.0013882307
0.0013941879
0.0014002016
0.0014062197
0.0014121861
0.001418039
0.0014237108
0.0014291285
0.0014342173
0.0014389053
0.0014431292
0.0014468406
0.0014500098
0.001452628
0.0014547069
0.0014562758
0.0014573777
0.0014580646
0.0014583934
0.001458422
0.0014582068
0.0014578002
0.00145725
0.0014565946
0.0014558671
0.0014550994
0.0014543187
0.0014535463
0.001452799
0.001452089
0.0014514252
0.0014508134
0.001450257
0.0014497575
0.0014493147
0.0014489273
0.0014485932
0.0014483095
0.0014480727
0.0014478792
0.0014477251
0.0014476062
0.0014475189
0.0014474591
0.0014474232
0.0014474078
0.0014474094
0.001447425
0.0014474518
0.0014474872
0.0014475288
0.0014475745
0.0014476225
0.0014476717
0.0014477209
0.0014477692
0.0014478157
0.00144786
0.0014479014
0.0014479396
0.0014479744
0.0014480058
0.0014480337
0.0014480583
0.0014480796
0.0014480978
0.001448113
0.0014481255
0.0014481354
0.001448143
0.0014481485
0.0014481522
0.0014481544
0.0014481553
0.0014481551
0.001448154
0.0014481522
0.0014481498
0.0014481468
)
;
    }
}


// ************************************************************************* //
