/*--------------------------------*- C++ -*----------------------------------*\
| =========                 |                                                 |
| \\      /  F ield         | OpenFOAM: The Open Source CFD Toolbox           |
|  \\    /   O peration     | Version:  2506                                  |
|   \\  /    A nd           | Website:  www.openfoam.com                      |
|    \\/     M anipulation  |                                                 |
\*---------------------------------------------------------------------------*/
FoamFile
{
    version     2.0;
    format      ascii;
    arch        "LSB;label=32;scalar=64";
    class       volScalarField;
    location    "2000/water";
    object      k;
}
// * * * * * * * * * * * * * * * * * * * * * * * * * * * * * * * * * * * * * //

dimensions      [0 2 -2 0 0 0 0];

internalField   nonuniform List<scalar> 
1000
(
0.00017657855
0.00017657518
0.00017657131
0.00017655365
0.00017648098
0.00017625478
0.00017589507
0.00017764177
0.00020514192
0.00048657967
0.00013915035
0.00013915817
0.00013914641
0.00013908743
0.00013888206
0.0001383736
0.00013797747
0.00014325065
0.00019616755
0.00057072179
0.00011343696
0.00011343683
0.00011340783
0.00011329561
0.00011298241
0.0001124902
0.00011342548
0.00012641399
0.00020548409
0.00057180213
9.4956345e-05
9.4947216e-05
9.4898274e-05
9.474799e-05
9.4461175e-05
9.4591081e-05
9.888244e-05
0.00012463515
0.00023169875
0.00054812309
8.1180941e-05
8.1164581e-05
8.1102165e-05
8.0967052e-05
8.0960064e-05
8.2611693e-05
9.2930176e-05
0.00013695845
0.00027128648
0.00052456973
7.0599818e-05
7.0579371e-05
7.0523472e-05
7.050481e-05
7.1168278e-05
7.5594054e-05
9.5292108e-05
0.00016203409
0.00031586099
0.00050861059
6.2267978e-05
6.2250532e-05
6.2239517e-05
6.2499626e-05
6.439945e-05
7.3303919e-05
0.00010610185
0.00019613571
0.00035649804
0.00050003849
5.5571434e-05
5.5570243e-05
5.5667644e-05
5.6450641e-05
6.0388855e-05
7.5971062e-05
0.00012498721
0.00023351984
0.00038871384
0.00049629328
5.0098704e-05
5.0135841e-05
5.0440275e-05
5.2102948e-05
5.9190347e-05
8.3983904e-05
0.00015029921
0.00026896259
0.0004124702
0.00049505677
4.5567681e-05
4.5677865e-05
4.63375e-05
4.9391582e-05
6.1095735e-05
9.7486406e-05
0.00017920282
0.00029964334
0.00042964122
0.00049493744
4.1782808e-05
4.2019037e-05
4.325215e-05
4.8416105e-05
6.6517775e-05
0.0001159788
0.00020865688
0.00032501759
0.00044223031
0.00049528038
3.8609684e-05
3.9051443e-05
4.1174532e-05
4.942256e-05
7.5807838e-05
0.00013818946
0.00023641995
0.00034572001
0.00045177454
0.00049583497
3.5960364e-05
3.6725382e-05
4.0189374e-05
5.2766757e-05
8.9027276e-05
0.00016237139
0.00026138219
0.00036268796
0.00045931523
0.00049652601
3.3785895e-05
3.5046504e-05
4.0478174e-05
5.8837547e-05
0.00010576963
0.00018682812
0.00028330074
0.00037677404
0.00046552013
0.0004973377
3.207437e-05
3.4079221e-05
4.2316035e-05
6.7933653e-05
0.00012516077
0.00021031449
0.00030238219
0.00038865024
0.00047080875
0.00049826675
3.0853806e-05
3.395459e-05
4.6048315e-05
8.0118289e-05
0.00014606396
0.00023213667
0.00031898781
0.000398818
0.00047543957
0.00049930762
3.0199603e-05
3.4879078e-05
5.2034548e-05
9.511586e-05
0.00016736968
0.00025203081
0.00033348875
0.00040763779
0.00047952178
0.00050044505
3.0246047e-05
3.7136219e-05
6.0556404e-05
0.00011231917
0.00018821052
0.00026998795
0.00034621401
0.00041534788
0.0004831703
0.00050166184
3.1200015e-05
4.1069086e-05
7.1707656e-05
0.00013091702
0.00020802739
0.00028611925
0.00035742548
0.00042213347
0.00048649109
0.0005029465
3.3351668e-05
4.7031322e-05
8.5310843e-05
0.00015007613
0.00022652126
0.00030057559
0.00036733054
0.00042814958
0.00048955794
0.0005042892
3.7070463e-05
5.5301874e-05
0.00010090968
0.00016908802
0.00024356804
0.00031350318
0.00037608884
0.00043353324
0.00049241603
0.00050567928
4.2767472e-05
6.5979386e-05
0.00011785048
0.00018743169
0.00025913444
0.00032501636
0.00038386987
0.00043837759
0.00049509122
0.00050710516
5.0805426e-05
7.8899307e-05
0.00013541258
0.00020475589
0.00027320794
0.00033526224
0.00039079739
0.00044274789
0.00049759775
0.00050855486
6.1362262e-05
9.3622779e-05
0.00015292657
0.00022080525
0.00028583339
0.00034436398
0.0003969612
0.00044668825
0.00049994142
0.0005100162
7.430339e-05
0.00010951544
0.00016980538
0.0002354224
0.00029707787
0.00035241153
0.0004024228
0.00045022531
0.00050212075
0.00051147652
8.9143284e-05
0.00012582877
0.00018559558
0.00024853566
0.00030699189
0.00035946548
0.00040721974
0.00045337085
0.00050412758
0.00051292226
0.00010508581
0.00014184921
0.0001999993
0.00026010298
0.00031560975
0.00036556222
0.00041137018
0.00045612445
0.00050594812
0.00051433856
0.00012123905
0.0001569971
0.00021282914
0.00027010668
0.00032295548
0.00037072128
0.00041487842
0.00045847699
0.00050756463
0.00051570914
0.00013680029
0.00017085502
0.0002239893
0.00027855536
0.00032905221
0.00037495444
0.00041774183
0.00046041519
0.00050895789
0.0005170166
0.00015116555
0.00018316364
0.00023346035
0.00028548743
0.00033393226
0.00037827555
0.00041995839
0.00046192683
0.00051011021
0.00051824315
0.00016395784
0.00019380004
0.00024128496
0.00029097238
0.00033764501
0.00038070913
0.000421534
0.00046300599
0.00051100868
0.0005193718
0.00017500068
0.00020274901
0.00024755348
0.00029510842
0.00034026086
0.00038229631
0.00042248797
0.00046365747
0.00051164797
0.0005203877
0.00018426907
0.00021007383
0.00025238993
0.00029801689
0.00034187107
0.00038309716
0.00042285607
0.00046389942
0.00051203236
0.00052127953
0.0001918394
0.00021589
0.00025593927
0.0002998349
0.00034258411
0.00038318953
0.00042269066
0.00046376393
0.00051217622
0.0005220405
0.00019784846
0.00022034381
0.00025835671
0.00030070766
0.00034252009
0.00038266526
0.00042205816
0.0004632954
0.0005121032
0.00052266876
0.0002024635
0.00022359595
0.00025979926
0.00030078155
0.00034180446
0.00038162494
0.00042103487
0.00046254735
0.00051184405
0.00052316733
0.00020586209
0.00022580981
0.00026041948
0.00030019846
0.00034056205
0.00038017211
0.00041970195
0.00046157836
0.00051143387
0.00052354342
0.00020821949
0.00022714365
0.00026036114
0.00029909157
0.00033891213
0.00037840808
0.00041814041
0.0004604479
0.00051090914
0.00052380745
0.00020970116
0.00022774562
0.00025975633
0.00029758255
0.00033696471
0.00037642764
0.00041642701
0.00045921274
0.00051030512
0.00052397202
0.00021045868
0.00022775095
0.00025872399
0.00029577993
0.00033481816
0.00037431613
0.00041463113
0.00045792423
0.00050965395
0.00052405078
0.00021062801
0.00022728067
0.00025736927
0.00029377845
0.00033255799
0.00037214768
0.00041281289
0.00045662667
0.00050898343
0.00052405765
0.00021032909
0.00022644136
0.00025578361
0.00029165923
0.0003302566
0.00036998454
0.00041102231
0.00045535656
0.00050831656
0.00052400609
0.00020966633
0.00022532553
0.00025404531
0.00028949034
0.00032797366
0.00036787723
0.00040929929
0.00045414255
0.00050767149
0.0005239087
0.00020872957
0.00022401249
0.00025222044
0.00028732772
0.00032575697
0.00036586515
0.00040767416
0.00045300583
0.00050706166
0.00052377687
0.00020759525
0.00022256933
0.00025036382
0.00028521631
0.00032364343
0.00036397752
0.00040616816
0.00045195974
0.00050648771
0.0005236198
0.00020632776
0.00022105212
0.00024852014
0.0002831912
0.00032166036
0.00036223452
0.00040479451
0.0004510083
0.00050595591
0.0005234454
0.00020498068
0.00021950704
0.00024672502
0.00028127881
0.00031982665
0.00036064835
0.00040355766
0.00045015452
0.00050547503
0.00052326137
0.00020359804
0.00021797148
0.00024500617
0.000279498
0.00031815382
0.00035922328
0.00040245803
0.0004494023
0.00050504904
0.00052307417
0.00020221554
0.00021647516
0.00024338436
0.00027786108
0.00031664648
0.00035795819
0.00040149613
0.00044875146
0.00050467866
0.00052288897
0.00020086158
0.00021504115
0.00024187439
0.00027637426
0.00031530357
0.00035685163
0.00040066878
0.00044819865
0.00050436248
0.00052270973
0.00019955834
0.00021368676
0.00024048525
0.00027503862
0.00031412328
0.00035589874
0.00039996986
0.00044773843
0.00050409767
0.00052253941
0.00019832236
0.0002124237
0.00023922161
0.00027385361
0.00031310069
0.00035509202
0.00039939119
0.00044736395
0.00050388055
0.00052238014
0.00019716524
0.00021125971
0.00023808551
0.00027281589
0.00031222844
0.00035442202
0.00039892329
0.00044706755
0.00050370691
0.00052223333
0.00019609501
0.00021019941
0.00023707633
0.00027191982
0.00031149739
0.00035387801
0.00039855584
0.00044684112
0.00050357229
0.00052209981
0.00019511668
0.00020924476
0.0002361912
0.00027115802
0.0003108971
0.0003534485
0.00039827819
0.00044667647
0.00050347216
0.00052197991
0.0001942327
0.00020839543
0.00023542543
0.00027052176
0.00031041633
0.00035312161
0.00039807969
0.0004465656
0.00050340213
0.00052187363
0.00019344336
0.00020764924
0.00023477289
0.00027000141
0.0003100434
0.0003528855
0.00039794997
0.00044650084
0.000503358
0.00052178064
0.00019274718
0.00020700246
0.0002342264
0.00026958675
0.00030976656
0.00035272859
0.00039787913
0.00044647503
0.00050333586
0.00052170043
0.00019214121
0.00020645017
0.000233778
0.00026926732
0.00030957422
0.00035263978
0.0003978579
0.00044648153
0.0005033321
0.00052163232
0.00019162134
0.00020598652
0.00023341922
0.0002690326
0.00030945515
0.00035260859
0.00039787768
0.00044651427
0.00050334342
0.00052157548
0.00019118258
0.00020560502
0.00023314138
0.00026887227
0.00030939866
0.00035262526
0.00039793059
0.00044656778
0.0005033668
0.00052152903
0.00019081927
0.00020529871
0.00023293569
0.00026877631
0.00030939468
0.0003526808
0.00039800952
0.00044663714
0.00050339953
0.00052149202
0.00019052529
0.00020506043
0.00023279352
0.00026873523
0.0003094339
0.00035276707
0.00039810813
0.00044671804
0.00050343925
0.0005214635
0.00019029427
0.00020488293
0.00023270648
0.00026874011
0.00030950779
0.00035287679
0.00039822085
0.00044680675
0.00050348389
0.00052144252
0.00019011973
0.00020475905
0.00023266659
0.00026878268
0.00030960868
0.00035300352
0.00039834287
0.00044690009
0.0005035317
0.00052142816
0.00018999525
0.00020468183
0.00023266632
0.0002688554
0.0003097297
0.00035314167
0.00039847005
0.00044699536
0.00050358119
0.00052141955
0.00018991452
0.00020464463
0.00023269868
0.00026895146
0.00030986483
0.0003532864
0.00039859893
0.00044709032
0.00050363108
0.00052141584
0.00018987149
0.00020464115
0.00023275726
0.00026906478
0.00031000882
0.0003534336
0.00039872658
0.0004471831
0.0005036803
0.00052141623
0.00018986041
0.00020466552
0.00023283624
0.00026918997
0.00031015714
0.00035357982
0.00039885063
0.00044727219
0.00050372796
0.00052141999
0.00018987588
0.00020471234
0.00023293037
0.00026932236
0.00031030598
0.00035372224
0.00039896915
0.00044735643
0.00050377333
0.00052142643
0.00018991289
0.00020477667
0.00023303506
0.00026945795
0.00031045218
0.00035385862
0.00039908072
0.00044743494
0.00050381589
0.00052143493
0.0001899669
0.0002048541
0.00023314626
0.0002695934
0.00031059323
0.00035398722
0.00039918427
0.0004475071
0.00050385493
0.00052144492
0.00019003379
0.00020494074
0.00023326056
0.00026972594
0.00031072715
0.00035410682
0.0003992791
0.00044757237
0.00050389001
0.00052145589
0.00019010994
0.00020503319
0.00023337508
0.00026985339
0.00031085249
0.00035421656
0.00039936472
0.00044763045
0.00050392125
0.00052146742
0.00019019216
0.00020512854
0.00023348743
0.00026997407
0.0003109682
0.0003543159
0.00039944086
0.00044768145
0.00050394891
0.00052147921
0.00019027773
0.00020522435
0.00023359573
0.00027008672
0.00031107361
0.00035440453
0.00039950759
0.00044772576
0.0005039732
0.00052149101
0.00019036433
0.0002053186
0.0002336985
0.00027019045
0.00031116829
0.00035448245
0.00039956535
0.00044776375
0.0005039943
0.00052150258
0.00019045001
0.00020540965
0.00023379461
0.00027028462
0.00031125211
0.00035455004
0.00039961461
0.00044779583
0.00050401239
0.00052151376
0.0001905332
0.00020549621
0.00023388319
0.00027036894
0.0003113253
0.00035460779
0.00039965591
0.00044782243
0.00050402764
0.00052152437
0.00019061262
0.00020557724
0.00023396373
0.00027044342
0.00031138828
0.0003546563
0.00039968985
0.000447844
0.00050404024
0.00052153431
0.00019068725
0.00020565203
0.00023403597
0.00027050828
0.00031144159
0.00035469622
0.00039971707
0.000447861
0.00050405041
0.00052154349
0.00019075639
0.00020572012
0.0002340999
0.00027056391
0.00031148587
0.00035472831
0.00039973823
0.0004478739
0.00050405838
0.00052155185
0.00019081957
0.00020578129
0.00023415569
0.00027061084
0.00031152186
0.00035475333
0.00039975399
0.00044788319
0.00050406439
0.00052155937
0.00019087656
0.00020583553
0.00023420367
0.00027064967
0.00031155033
0.00035477206
0.00039976504
0.00044788937
0.00050406869
0.00052156607
0.00019092729
0.00020588297
0.00023424426
0.00027068111
0.00031157207
0.00035478529
0.00039977202
0.00044789289
0.00050407153
0.00052157196
0.00019097186
0.00020592387
0.00023427798
0.00027070584
0.00031158789
0.00035479376
0.00039977556
0.00044789419
0.00050407314
0.00052157707
0.00019101045
0.00020595857
0.00023430539
0.00027072458
0.00031159853
0.00035479817
0.00039977622
0.00044789365
0.00050407372
0.00052158144
0.00019104335
0.00020598747
0.00023432705
0.00027073804
0.00031160471
0.00035479916
0.0003997745
0.0004478916
0.00050407341
0.00052158512
0.0001910709
0.00020601102
0.00023434355
0.00027074687
0.00031160711
0.00035479731
0.00039977084
0.00044788834
0.00050407237
0.00052158814
0.00019109346
0.00020602967
0.00023435546
0.00027075172
0.00031160632
0.00035479315
0.00039976565
0.00044788413
0.00050407073
0.00052159054
0.00019111145
0.00020604389
0.00023436333
0.00027075316
0.00031160293
0.00035478717
0.00039975929
0.0004478792
0.00050406859
0.00052159238
0.00019112529
0.00020605417
0.00023436772
0.00027075179
0.00031159745
0.0003547798
0.00039975208
0.00044787379
0.0005040661
0.00052159372
0.00019113543
0.00020606099
0.00023436915
0.00027074811
0.00031159037
0.00035477144
0.00039974435
0.00044786809
0.00050406339
0.00052159462
0.0001911423
0.00020606482
0.00023436812
0.00027074263
0.00031158214
0.00035476247
0.00039973635
0.0004478623
0.00050406056
0.00052159515
0.00019114636
0.00020606612
0.00023436509
0.00027073579
0.00031157315
0.00035475318
0.00039972832
0.00044785657
0.00050405773
0.00052159538
0.00019114801
0.00020606531
0.00023436049
0.00027072798
0.0003115637
0.00035474383
0.00039972044
0.00044785101
0.00050405495
0.00052159535
0.00019114766
0.00020606278
0.00023435468
0.00027071951
0.00031155408
0.00035473462
0.00039971282
0.0004478457
0.00050405225
0.00052159511
0.00019114565
0.00020605888
0.00023434799
0.00027071067
0.00031154449
0.00035472567
0.00039970554
0.00044784066
0.00050404965
0.00052159469
0.0001911423
0.00020605391
0.00023434068
0.00027070168
0.00031153508
0.0003547171
0.00039969867
0.00044783592
0.00050404712
0.00052159411
0.00019113792
0.00020604817
0.00023433302
0.00027069274
0.00031152602
0.00035470897
0.0003996922
0.00044783144
0.00050404467
0.00052159341
)
;

boundaryField
{
    water_inlet
    {
        type            turbulentIntensityKineticEnergyInlet;
        intensity       0.05;
        value           uniform 0.000234375;
    }
    water_outlet
    {
        type            inletOutlet;
        inletValue      uniform 0.0001;
        value           nonuniform List<scalar> 10(0.00019113792 0.00020604817 0.00023433302 0.00027069274 0.00031152602 0.00035470897 0.0003996922 0.00044783144 0.00050404467 0.00052159341);
    }
    water_wedge1
    {
        type            wedge;
    }
    water_wedge2
    {
        type            wedge;
    }
    water_to_rock
    {
        type            kqRWallFunction;
        value           nonuniform List<scalar> 
100
(
0.00048657967
0.00057072179
0.00057180213
0.00054812309
0.00052456973
0.00050861059
0.00050003849
0.00049629328
0.00049505677
0.00049493744
0.00049528038
0.00049583497
0.00049652601
0.0004973377
0.00049826675
0.00049930762
0.00050044505
0.00050166184
0.0005029465
0.0005042892
0.00050567928
0.00050710516
0.00050855486
0.0005100162
0.00051147652
0.00051292226
0.00051433856
0.00051570914
0.0005170166
0.00051824315
0.0005193718
0.0005203877
0.00052127953
0.0005220405
0.00052266876
0.00052316733
0.00052354342
0.00052380745
0.00052397202
0.00052405078
0.00052405765
0.00052400609
0.0005239087
0.00052377687
0.0005236198
0.0005234454
0.00052326137
0.00052307417
0.00052288897
0.00052270973
0.00052253941
0.00052238014
0.00052223333
0.00052209981
0.00052197991
0.00052187363
0.00052178064
0.00052170043
0.00052163232
0.00052157548
0.00052152903
0.00052149202
0.0005214635
0.00052144252
0.00052142816
0.00052141955
0.00052141584
0.00052141623
0.00052141999
0.00052142643
0.00052143493
0.00052144492
0.00052145589
0.00052146742
0.00052147921
0.00052149101
0.00052150258
0.00052151376
0.00052152437
0.00052153431
0.00052154349
0.00052155185
0.00052155937
0.00052156607
0.00052157196
0.00052157707
0.00052158144
0.00052158512
0.00052158814
0.00052159054
0.00052159238
0.00052159372
0.00052159462
0.00052159515
0.00052159538
0.00052159535
0.00052159511
0.00052159469
0.00052159411
0.00052159341
)
;
    }
}


// ************************************************************************* //
