/*--------------------------------*- C++ -*----------------------------------*\
| =========                 |                                                 |
| \\      /  F ield         | OpenFOAM: The Open Source CFD Toolbox           |
|  \\    /   O peration     | Version:  2506                                  |
|   \\  /    A nd           | Website:  www.openfoam.com                      |
|    \\/     M anipulation  |                                                 |
\*---------------------------------------------------------------------------*/
FoamFile
{
    version     2.0;
    format      ascii;
    arch        "LSB;label=32;scalar=64";
    class       surfaceScalarField;
    location    "2000/water";
    object      phi;
}
// * * * * * * * * * * * * * * * * * * * * * * * * * * * * * * * * * * * * * //

dimensions      [1 0 -1 0 0 0 0];

oriented        oriented;

internalField   nonuniform List<scalar> 
1890
(
-4.1736244e-05
0.0022168351
-0.00015753622
0.0059586937
-0.00032930668
0.0087985477
-0.00054203242
0.010900937
-0.00078239503
0.012402155
-0.0010351825
0.013412336
-0.0012746193
0.014013996
-0.0014359745
0.014245356
-0.001284859
0.0140006
0.012745539
-3.1455819e-05
0.002248291
-0.00011269722
0.0060399351
-0.00023219386
0.0089180443
-0.00037999424
0.011048737
-0.00054594258
0.012568103
-0.00071649909
0.013582893
-0.0008667453
0.014164243
-0.00093361993
0.014312231
-0.00073394553
0.013800926
0.012011593
-2.9138815e-05
0.0022774298
-0.00010672993
0.0061175262
-0.00022105537
0.0090323698
-0.00036160322
0.011189285
-0.00051700136
0.012723501
-0.00067116228
0.013737054
-0.00079396177
0.014287042
-0.0008113978
0.014329667
-0.00056729937
0.013556828
0.011444294
-2.7339926e-05
0.0023047697
-0.00010102592
0.0061912122
-0.00020924226
0.0091405861
-0.00034097877
0.011321022
-0.00048374633
0.012866269
-0.00061911416
0.013872422
-0.00071088013
0.014378808
-0.00067659611
0.014295383
-0.00042025857
0.01330049
0.011024036
-2.5625224e-05
0.0023303949
-9.4386117e-05
0.0062599731
-0.00019506684
0.0092412669
-0.00031669848
0.011442653
-0.00044589466
0.012995465
-0.00056132299
0.01398785
-0.00061882526
0.01443631
-0.00053650933
0.014213067
-0.00029565259
0.013059633
0.010728383
-2.4159505e-05
0.0023545544
-8.8799543e-05
0.0063246131
-0.00018306058
0.0093355279
-0.00029574188
0.011555335
-0.00041210918
0.013111832
-0.00050662373
0.014082365
-0.00052703764
0.014456724
-0.00040878658
0.014094816
-0.00020043461
0.012851281
0.010527948
-2.2965489e-05
0.0023775199
-8.4333501e-05
0.0063859811
-0.00017335351
0.0094245479
-0.00027826889
0.01166025
-0.00038232769
0.013215891
-0.00045438052
0.014154417
-0.00043820828
0.014440552
-0.00030322
0.013959827
-0.00013379087
0.012681852
0.010394157
-2.2023832e-05
0.0023995437
-8.0769753e-05
0.006444727
-0.00016540573
0.0095091838
-0.00026327212
0.011758116
-0.00035472747
0.013307346
-0.00040244481
0.014202135
-0.0003554601
0.014393567
-0.00022237003
0.013826737
-8.985576e-05
0.012549338
0.010304302
-2.1260557e-05
0.0024208043
-7.7812561e-05
0.006501279
-0.00015855229
0.0095899235
-0.00024948542
0.011849049
-0.0003271228
0.013384984
-0.00034954637
0.014224558
-0.00028212881
0.01432615
-0.00016300158
0.01370761
-6.1425566e-05
0.012447762
0.010242876
-2.0607145e-05
0.0024414114
-7.5216647e-05
0.0065558885
-0.00015223238
0.0096669393
-0.0002357779
0.011932595
-0.00029784683
0.013447053
-0.00029644834
0.01422316
-0.00022023928
0.014249941
-0.00011980561
0.013607176
-4.2689754e-05
0.012370646
0.010200186
-2.001828e-05
0.0024614297
-7.2804681e-05
0.0066086749
-0.00014600133
0.0097401359
-0.00022120594
0.0120078
-0.00026613583
0.013491983
-0.00024532063
0.014202345
-0.00016974942
0.014174369
-8.7953207e-05
0.01352538
-2.9807235e-05
0.0123125
0.010170379
-1.9463513e-05
0.0024808932
-7.044132e-05
0.0066596528
-0.00013947734
0.009809172
-0.0002050219
0.012073344
-0.0002322812
0.013519242
-0.0001983853
0.014168449
-0.00012919808
0.014105182
-6.3919351e-05
0.013460101
-2.048649e-05
0.012269067
0.010149893
-1.8918718e-05
0.002499812
-6.8007985e-05
0.0067087421
-0.00013229841
0.0098734624
-0.0001867552
0.012127801
-0.0001974809
0.013529968
-0.00015697895
0.014127947
-9.669908e-05
0.014044902
-4.5353696e-05
0.013408756
-1.3425747e-05
0.012237139
0.010136467
-1.8360384e-05
0.0025181723
-6.5381708e-05
0.0067557634
-0.00012410656
0.0099321872
-0.00016633363
0.012170028
-0.00016333133
0.013526965
-0.0001214046
0.01408602
-7.0527998e-05
0.013994026
-3.0717729e-05
0.013368946
-7.888084e-06
0.01221431
0.010128579
-1.7761427e-05
0.0025359338
-6.2419592e-05
0.0068004216
-0.00011457655
0.0099843442
-0.0001441617
0.012199613
-0.00013123867
0.013514042
-9.1271744e-05
0.014046053
-4.9294864e-05
0.013952049
-1.8985293e-05
0.013338636
-3.4320171e-06
0.012198756
0.010125147
-1.7087952e-05
0.0025530217
-5.8952538e-05
0.0068422861
-0.00010349024
0.010028882
-0.00012105254
0.012217176
-0.00010208336
0.013495073
-6.589972e-05
0.014009869
-3.1933238e-05
0.013918082
-9.4524121e-06
0.013316155
2.8556346e-07
0.012189018
0.010125432
-1.6296496e-05
0.0025693182
-5.4793317e-05
0.0068807829
-9.0832457e-05
0.010064921
-9.7999422e-05
0.012224343
-7.6211148e-05
0.013473285
-4.4573828e-05
0.013978232
-1.7629614e-05
0.013891138
-1.5599878e-06
0.013300086
3.3696993e-06
0.012184089
0.010128802
-1.5331793e-05
0.00258465
-4.9762095e-05
0.0069152132
-7.6853071e-05
0.010092012
-7.5899497e-05
0.012223389
-5.3590253e-05
0.013450976
-2.6636267e-05
0.013951278
-5.7274738e-06
0.013870229
4.9958505e-06
0.013289362
5.8480629e-06
0.012183236
0.01013465
-1.4126775e-05
0.0025987768
-4.3732884e-05
0.0069448193
-6.2044682e-05
0.010110324
-5.5380166e-05
0.012216724
-3.3986438e-05
0.013429582
-1.1512195e-05
0.013928804
4.2374774e-06
0.01385448
1.0368333e-05
0.013283231
7.8672146e-06
0.012185738
0.010142517
-1.2609185e-05
0.002611386
-3.6694883e-05
0.006968905
-4.7031559e-05
0.01012066
-3.677527e-05
0.012206468
-1.7080031e-05
0.013409887
1.3293417e-06
0.013910395
1.2528499e-05
0.01384328
1.4775614e-05
0.013280984
9.517015e-06
0.012190996
0.010152034
-1.0718642e-05
0.0026221046
-2.8800881e-05
0.0069869873
-3.2420117e-05
0.01012428
-2.0181038e-05
0.012194229
-2.4803317e-06
0.013392186
1.2172712e-05
0.013895741
1.9377707e-05
0.013836075
1.8390687e-05
0.013281971
1.0862287e-05
0.012198525
0.010162897
-8.4362503e-06
0.0026305409
-2.0369174e-05
0.0069989202
-1.8684381e-05
0.010122595
-5.5173996e-06
0.012181062
1.0031588e-05
0.013376637
2.119738e-05
0.013884576
2.5023744e-05
0.013832249
2.1344778e-05
0.01328565
1.1950961e-05
0.012207918
0.010174848
-5.8188469e-06
0.0026363597
-1.1825133e-05
0.0070049265
-6.1101797e-06
0.01011688
7.2772244e-06
0.012167675
2.0570924e-05
0.013363343
2.8684444e-05
0.013876462
2.9653755e-05
0.01383128
2.373721e-05
0.013291567
1.2818418e-05
0.012218837
0.010187666
-3.0141224e-06
0.0026393738
-3.5957964e-06
0.0070055082
5.1028871e-06
0.010108181
1.8190923e-05
0.012154587
2.9354286e-05
0.01335218
3.4839535e-05
0.013870977
3.3406198e-05
0.013832713
2.56401e-05
0.013299333
1.3489524e-05
0.012230988
0.010201156
-2.340777e-07
0.0026396079
3.907023e-06
0.0070013671
1.4740023e-05
0.010097348
2.7284766e-05
0.012142042
3.6559239e-05
0.013342905
3.9811702e-05
0.013867724
3.6376957e-05
0.013836148
2.7100699e-05
0.013308609
1.3979023e-05
0.012244109
0.010215135
2.277007e-06
0.0026373309
1.0308567e-05
0.0069933355
2.268134e-05
0.010084975
3.4655374e-05
0.012130068
4.2308263e-05
0.013335253
4.3696749e-05
0.013866336
3.8622029e-05
0.013841223
2.8142107e-05
0.013319089
1.4291305e-05
0.01225796
0.010229426
4.3216977e-06
0.0026330092
1.5394946e-05
0.0069822622
2.8920224e-05
0.01007145
4.0372947e-05
0.012118615
4.6677189e-05
0.013328948
4.6545755e-05
0.013866467
4.0163752e-05
0.013847605
2.8766937e-05
0.013330486
1.442202e-05
0.012272305
0.010243848
5.8171396e-06
0.002627192
1.9123416e-05
0.006968956
3.3492591e-05
0.010057081
4.4498808e-05
0.012107609
4.9714638e-05
0.013323732
4.8381806e-05
0.0138678
4.1003227e-05
0.013854983
2.8965289e-05
0.013342524
1.4361963e-05
0.012286908
0.01025821
6.7754832e-06
0.0026204166
2.1561806e-05
0.0069541696
3.6485966e-05
0.010042157
4.7106842e-05
0.012096988
5.1465167e-05
0.013319374
4.9220074e-05
0.013870045
4.113549e-05
0.013863068
2.8724573e-05
0.013354935
1.4101701e-05
0.012301531
0.010272312
7.2690306e-06
0.0026131475
2.2856778e-05
0.0069385819
3.8040657e-05
0.010026973
4.8300133e-05
0.012086729
5.198991e-05
0.013315684
4.908696e-05
0.013872948
4.0564671e-05
0.01387159
2.8039646e-05
0.01336746
1.3636463e-05
0.012315934
0.010285948
7.3944048e-06
0.0026057531
2.3198428e-05
0.0069227779
3.8340551e-05
0.010011831
4.8218043e-05
0.012076851
5.1380044e-05
0.013312522
4.8034424e-05
0.013876294
3.9316202e-05
0.013880308
2.692126e-05
0.013379855
1.2970018e-05
0.012329886
0.010298918
7.2476278e-06
0.0025985055
2.2788975e-05
0.0069072365
3.7596702e-05
0.0099970231
4.7033317e-05
0.012067414
4.9761389e-05
0.013309794
4.6147469e-05
0.013879908
3.7444323e-05
0.013889011
2.5401828e-05
0.013391897
1.211797e-05
0.01234317
0.010311036
6.9115694e-06
0.0025915939
2.1820005e-05
0.0068923281
3.6028237e-05
0.0099828149
4.4941032e-05
0.012058502
4.7289399e-05
0.013307446
4.3542634e-05
0.013883655
3.50321e-05
0.013897522
2.3535678e-05
0.013403394
1.1107408e-05
0.012355598
0.010322143
6.4523757e-06
0.0025851416
2.0459707e-05
0.0068783208
3.3846152e-05
0.0099694285
4.2144822e-05
0.012050203
4.4139082e-05
0.013305452
4.0360906e-05
0.013887433
3.2186507e-05
0.013905696
2.1395812e-05
0.013414184
9.9754803e-06
0.012367018
0.010332119
5.9203725e-06
0.0025792212
1.8847805e-05
0.0068653933
3.1241598e-05
0.0099570347
3.8843216e-05
0.012042601
4.0492019e-05
0.013303803
3.6756359e-05
0.013891168
2.9029073e-05
0.013913424
1.9066993e-05
0.013424147
8.7655386e-06
0.01237732
0.010340884
5.3526468e-06
0.0025738685
1.7095589e-05
0.0068536504
2.8379252e-05
0.009945751
3.5218738e-05
0.012035762
3.6523941e-05
0.013302498
3.288394e-05
0.013894808
2.5685035e-05
0.013920623
1.6637365e-05
0.013433194
7.5223684e-06
0.012386435
0.010348407
4.7759253e-06
0.0025690926
1.5288785e-05
0.0068431375
2.5395166e-05
0.0099356446
3.143105e-05
0.012029726
3.2395281e-05
0.013301533
2.8889221e-05
0.013898314
2.2273823e-05
0.013927238
1.4191103e-05
0.013441277
6.2884044e-06
0.012394337
0.010354695
4.2089951e-06
0.0025648836
1.3491321e-05
0.0068338552
2.2397328e-05
0.0099267386
2.7613338e-05
0.01202451
2.8244565e-05
0.013300902
2.490045e-05
0.013901659
1.8901269e-05
0.013933237
1.1802158e-05
0.013448376
5.1000636e-06
0.012401039
0.010359795
3.6647303e-06
0.0025612189
1.1749399e-05
0.0068257705
1.9468342e-05
0.0099190197
2.3872026e-05
0.012020106
2.4185653e-05
0.013300589
2.1024411e-05
0.01390482
1.5655342e-05
0.013938606
9.5309915e-06
0.0134545
3.9862686e-06
0.012406584
0.010363782
3.1516042e-06
0.0025580673
1.0095127e-05
0.006818827
1.6668824e-05
0.009912446
2.0288355e-05
0.012016487
2.0307401e-05
0.01330057
1.734491e-05
0.013907782
1.260432e-05
0.013943347
7.4232001e-06
0.013459681
2.9677866e-06
0.01241104
0.010366749
2.6748645e-06
0.0025553924
8.5496923e-06
0.0068129522
1.4041145e-05
0.0099069545
1.6921256e-05
0.012013607
1.667537e-05
0.013300815
1.3923609e-05
0.013910534
9.7972947e-06
0.013947473
5.5100518e-06
0.013463969
2.0578103e-06
0.012414492
0.010368807
2.2373914e-06
0.002553155
7.1259267e-06
0.0068080636
1.1612895e-05
0.0099024675
1.3810639e-05
0.012011409
1.3334442e-05
0.013301292
1.0802069e-05
0.013913066
7.2658683e-06
0.013951009
3.8099603e-06
0.013467425
1.2629008e-06
0.012417039
0.01037007
1.8403693e-06
0.0025513147
5.8304324e-06
0.0068040736
9.4001145e-06
0.0098988979
1.0980919e-05
0.012009828
1.0312203e-05
0.01330196
8.0048797e-06
0.013915374
5.027033e-06
0.013953987
2.3309601e-06
0.013470121
5.8468584e-07
0.012418785
0.010370655
1.483735e-06
0.0025498309
4.665115e-06
0.0068008922
7.409762e-06
0.0098961532
8.4438626e-06
0.012008794
7.6217058e-06
0.013302782
5.5421303e-06
0.013917453
3.0853316e-06
0.013956444
1.0733142e-06
0.013472133
3.1211319e-08
0.012419827
0.010370686
1.1664954e-06
0.0025486644
3.6282279e-06
0.0067984304
5.6414255e-06
0.00989414
6.2005468e-06
0.012008235
5.2634078e-06
0.01330372
3.4114348e-06
0.013919305
1.4360816e-06
0.013958419
3.8679676e-08
0.01347353
-4.1221099e-07
0.012420278
0.010370274
8.8701216e-07
0.0025477774
2.7154291e-06
0.006796602
4.0893121e-06
0.0098927661
4.2442029e-06
0.01200808
3.2288792e-06
0.013304735
1.6030844e-06
0.013920931
7.392927e-08
0.013959948
-7.964601e-07
0.0134744
-7.7063659e-07
0.012420252
0.010369503
6.4324836e-07
0.0025471342
1.9207434e-06
0.0067953245
2.7441944e-06
0.0098919426
2.5632639e-06
0.012008261
1.5051897e-06
0.013305793
1.0659621e-07
0.01392233
-1.0296733e-06
0.013961085
-1.4652412e-06
0.013474836
-1.0488905e-06
0.012419836
0.010368454
4.3294999e-07
0.0025467012
1.2371965e-06
0.0067945203
1.5947734e-06
0.0098915851
1.1437544e-06
0.012008712
7.8714256e-08
0.013306858
-1.1085033e-06
0.013923517
-1.9119859e-06
0.013961888
-1.9813238e-06
0.013474905
-1.2534357e-06
0.012419108
0.010367201
2.5376274e-07
0.0025464474
6.5744629e-07
0.0067941166
6.2950309e-07
0.009891613
-2.8737274e-08
0.01200937
-1.0804535e-06
0.01330791
-2.0802172e-06
0.013924517
-2.5935593e-06
0.013962401
-2.3601484e-06
0.013474672
-1.3926582e-06
0.01241814
0.010365808
1.034325e-07
0.002546344
1.7444884e-07
0.0067940456
-1.6513951e-07
0.0098919526
-9.808731e-07
0.012010186
-2.0075899e-06
0.013308936
-2.8323338e-06
0.013925341
-3.0955223e-06
0.013962665
-2.6181031e-06
0.013474194
-1.4753208e-06
0.012416998
0.010364333
-2.0525844e-08
0.0025463645
-2.2104937e-07
0.0067942461
-8.0911423e-07
0.0098925407
-1.7416655e-06
0.012011118
-2.7259649e-06
0.013309921
-3.3885039e-06
0.013926004
-3.4396862e-06
0.013962716
-2.7717951e-06
0.013473527
-1.5102207e-06
0.012415736
0.010362823
-1.2111929e-07
0.0025464857
-5.398475e-07
0.0067946648
-1.3211219e-06
0.0098933219
-2.3301491e-06
0.012012127
-3.2583471e-06
0.013310849
-3.7726074e-06
0.013926518
-3.6476784e-06
0.013962591
-2.8373435e-06
0.013472716
-1.5056408e-06
0.012414404
0.010361317
-2.0113937e-07
0.0025466868
-7.9068433e-07
0.0067952544
-1.7148359e-06
0.0098942461
-2.7655692e-06
0.012013178
-3.6275385e-06
0.013311711
-4.0081588e-06
0.013926899
-3.7404398e-06
0.013962323
-2.8301048e-06
0.013471806
-1.4694086e-06
0.012413044
0.010359848
-2.6283459e-07
0.0025469496
-9.8096049e-07
0.0067959725
-2.0037394e-06
0.0098952689
-3.0667414e-06
0.012014241
-3.8555705e-06
0.0133125
-4.1175195e-06
0.013927161
-3.7375198e-06
0.013961943
-2.7640965e-06
0.013470832
-1.408444e-06
0.012411688
0.010358439
-3.0834831e-07
0.002547258
-1.1178728e-06
0.006796782
-2.2009538e-06
0.0098963519
-3.2518233e-06
0.012015292
-3.9634883e-06
0.013313211
-4.1217272e-06
0.013927319
-3.656985e-06
0.013961478
-2.6520484e-06
0.013469828
-1.3290015e-06
0.012410365
0.01035711
-3.3969126e-07
0.0025475977
-1.2082649e-06
0.0067976506
-2.318933e-06
0.0098974626
-3.3379208e-06
0.012016311
-3.970835e-06
0.013313844
-4.0399852e-06
0.013927388
-3.5149742e-06
0.013960953
-2.5050184e-06
0.013468818
-1.236254e-06
0.012409096
0.010355874
-3.5878062e-07
0.0025479564
-1.2586369e-06
0.0067985504
-2.3694617e-06
0.0098985734
-3.3410639e-06
0.012017283
-3.8957089e-06
0.013314399
-3.8897826e-06
0.013927382
-3.3259225e-06
0.01396039
-2.3327361e-06
0.013467824
-1.134772e-06
0.012407898
0.010354739
-3.6739706e-07
0.0025483238
-1.2750491e-06
0.0067994581
-2.3634646e-06
0.0098996619
-3.2759759e-06
0.012018195
-3.7544824e-06
0.013314877
-3.6866674e-06
0.013927314
-3.1023899e-06
0.013959805
-2.1434396e-06
0.013466865
-1.0282362e-06
0.012406783
0.010353711
-3.6721391e-07
0.0025486911
-1.263153e-06
0.006800354
-2.3110654e-06
0.0099007098
-3.1561508e-06
0.01201904
-3.5619793e-06
0.013315283
-3.4445042e-06
0.013927197
-2.8554085e-06
0.013959216
-1.9442817e-06
0.013465954
-9.1987596e-07
0.012405759
0.010352791
-3.5976164e-07
0.0025490508
-1.2281257e-06
0.0068012224
-2.2214671e-06
0.0099017031
-2.9937278e-06
0.012019813
-3.3313285e-06
0.013315621
-3.1753632e-06
0.013927041
-2.5943902e-06
0.013958635
-1.7412226e-06
0.013465101
-8.1225612e-07
0.01240483
0.010351979
-3.4645316e-07
0.0025493973
-1.1747021e-06
0.0068020507
-2.1030168e-06
0.0099026314
-2.7995774e-06
0.012020509
-3.0741229e-06
0.013315895
-2.8897218e-06
0.013926857
-2.3273649e-06
0.013958073
-1.5392696e-06
0.013464313
-7.0755869e-07
0.012403998
0.010351271
-3.2855932e-07
0.0025497258
-1.1071324e-06
0.0068028292
-1.9631298e-06
0.0099034874
-2.5832236e-06
0.012021129
-2.8003306e-06
0.013316113
-2.5963908e-06
0.013926653
-2.0608998e-06
0.013957537
-1.3423646e-06
0.013463595
-6.0738768e-07
0.012403263
0.010350664
-3.0722509e-07
0.0025500331
-1.0292103e-06
0.0068035512
-1.808351e-06
0.0099042666
-2.3529409e-06
0.012021674
-2.5184494e-06
0.013316278
-2.3027064e-06
0.013926437
-1.8003057e-06
0.013957035
-1.1535861e-06
0.013462948
-5.1295264e-07
0.012402622
0.010350151
-2.8345971e-07
0.0025503165
-9.4426154e-07
0.006804212
-1.6443437e-06
0.0099049667
-2.1157659e-06
0.012022145
-2.2355373e-06
0.013316398
-2.0145838e-06
0.013926216
-1.5496915e-06
0.01395657
-9.7516209e-07
0.013462373
-4.2501767e-07
0.012402072
0.010349726
-2.5815407e-07
0.0025505747
-8.551894e-07
0.0068048091
-1.4759876e-06
0.0099055875
-1.8776539e-06
0.012022547
-1.9574425e-06
0.013316478
-1.7367932e-06
0.013925995
-1.3122537e-06
0.013956146
-8.0874916e-07
0.01346187
-3.4413494e-07
0.012401608
0.010349382
-2.3207344e-07
0.0025508068
-7.6447509e-07
0.0068053415
-1.3073948e-06
0.0099061304
-1.6435286e-06
0.012022883
-1.6888763e-06
0.013316523
-1.4730409e-06
0.013925779
-1.0903561e-06
0.013955763
-6.5547485e-07
0.013461435
-2.7059714e-07
0.012401223
0.010349111
-2.0587951e-07
0.0025510126
-6.7423425e-07
0.0068058098
-1.1420187e-06
0.0099065982
-1.417442e-06
0.012023158
-1.4336219e-06
0.013316539
-1.2262176e-06
0.013925572
-8.8577032e-07
0.013955422
-5.1614649e-07
0.013461065
-2.0463471e-07
0.012400911
0.010348906
-1.801163e-07
0.0025511928
-5.862045e-07
0.0068062159
-9.826474e-07
0.0099069946
-1.2025777e-06
0.012023378
-1.1945284e-06
0.013316531
-9.983613e-07
0.013925376
-6.9961543e-07
0.013955124
-3.9115717e-07
0.013460757
-1.4626053e-07
0.012400666
0.01034876
-1.5523336e-07
0.002551348
-5.0179476e-07
0.0068065625
-8.3148955e-07
0.0099073243
-1.001371e-06
0.012023548
-9.736664e-07
0.013316503
-7.9082368e-07
0.013925193
-5.3249095e-07
0.013954865
-2.80592e-07
0.013460505
-9.5391546e-08
0.012400481
0.010348665
-1.3158141e-07
0.0025514796
-4.2208766e-07
0.006806853
-6.9018131e-07
0.0099075924
-8.1551534e-07
0.012023674
-7.723129e-07
0.01331646
-6.0423529e-07
0.013925025
-3.8443241e-07
0.013954646
-1.8415707e-07
0.013460305
-5.1759159e-08
0.012400349
0.010348613
-1.0941807e-07
0.002551589
-3.4786102e-07
0.0068070914
-5.598307e-07
0.0099078044
-6.4602953e-07
0.01202376
-5.910307e-07
0.013316405
-4.3857064e-07
0.013924873
-2.5494198e-07
0.013954462
-1.0114115e-07
0.013460151
-1.4409348e-08
0.012400262
0.010348599
-8.8934027e-08
0.0025516779
-2.7965616e-07
0.0068072822
-4.4114393e-07
0.0099079659
-4.9343408e-07
0.012023812
-4.2990369e-07
0.013316342
-2.9340771e-07
0.013924736
-1.4319821e-07
0.013954312
-3.0337339e-08
0.013460038
1.7101987e-08
0.012400215
0.010348616
-7.0242968e-08
0.0025517482
-2.1778155e-07
0.0068074297
-3.3443596e-07
0.0099080826
-3.5778094e-07
0.012023835
-2.8852603e-07
0.013316272
-1.6786683e-07
0.013924615
-4.7837305e-08
0.013954192
2.9147942e-08
0.013459961
4.248154e-08
0.012400201
0.010348658
-5.3412461e-08
0.0025518016
-1.6237739e-07
0.0068075387
-2.3974497e-07
0.0099081599
-2.3877934e-07
0.012023834
-1.6614299e-07
0.0133162
-6.0643854e-08
0.01392451
3.2308156e-08
0.013954099
7.7419364e-08
0.013459916
6.2075704e-08
0.012400217
0.01034872
-3.8454914e-08
0.00255184
-1.1341705e-07
0.0068076136
-1.5683517e-07
0.0099082033
-1.3579332e-07
0.012023813
-6.1560563e-08
0.013316126
2.9568545e-08
0.013924419
9.7685996e-08
0.013954031
1.1521128e-07
0.013459898
7.6790597e-08
0.012400255
0.010348797
-2.5346732e-08
0.0025518654
-7.0754602e-08
0.006807659
-8.5259172e-08
0.0099082178
-4.7862477e-08
0.012023776
2.6410662e-08
0.013316051
1.0334709e-07
0.013924342
1.4913371e-07
0.013953985
1.4376235e-07
0.013459904
8.7284308e-08
0.012400312
0.010348884
-1.4025e-08
0.0025518794
-3.4115258e-08
0.0068076791
-2.4317157e-08
0.009908208
2.5943195e-08
0.012023726
9.8369676e-08
0.013315979
1.6156783e-07
0.013924279
1.881519e-07
0.013953958
1.6419411e-07
0.013459928
9.4129593e-08
0.012400382
0.010348978
-4.389707e-09
0.0025518838
-3.1090366e-09
0.0068076779
2.6570851e-08
0.0099081784
8.6146642e-08
0.012023666
1.5517577e-07
0.01331591
2.0582226e-07
0.013924228
2.1616046e-07
0.013953948
1.7752086e-07
0.013459966
9.7799538e-08
0.012400461
0.010349076
3.6550573e-09
0.0025518802
2.2531562e-08
0.006807659
6.7818953e-08
0.0099081331
1.33588e-07
0.0120236
1.9839846e-07
0.013315845
2.3772379e-07
0.013924189
2.3456509e-07
0.013953951
1.8473033e-07
0.013460016
9.8780125e-08
0.012400547
0.010349175
1.0183463e-08
0.00255187
4.3058224e-08
0.0068076261
1.0012478e-07
0.009908076
1.6957609e-07
0.012023531
2.2956938e-07
0.013315785
2.5880546e-07
0.013924159
2.4467176e-07
0.013953965
1.8672149e-07
0.013460074
9.7468461e-08
0.012400637
0.010349273
1.5322491e-08
0.0025518546
5.8964922e-08
0.0068075825
1.2446884e-07
0.0099080105
1.9547841e-07
0.01202346
2.502784e-07
0.01331573
2.70652e-07
0.013924139
2.4783619e-07
0.013953988
1.8445105e-07
0.013460138
9.4367226e-08
0.012400727
0.010349367
1.9210523e-08
0.0025518354
7.0756393e-08
0.0068075309
1.4179526e-07
0.0099079395
2.1260079e-07
0.012023389
2.6201194e-07
0.013315681
2.7471658e-07
0.013924126
2.4527308e-07
0.013954017
1.7875617e-07
0.013460204
8.9846331e-08
0.012400816
0.010349457
2.2000596e-08
0.0025518134
7.8954072e-08
0.006807474
1.530612e-07
0.0099078654
2.2224622e-07
0.01202332
2.6624749e-07
0.013315637
2.7243332e-07
0.01392412
2.3819015e-07
0.013954052
1.7048417e-07
0.013460272
8.4359501e-08
0.012400902
0.010349541
2.3829792e-08
0.0025517896
8.403869e-08
0.0068074138
1.5913797e-07
0.0099077903
2.2558884e-07
0.012023254
2.6427826e-07
0.013315598
2.65031e-07
0.013924119
2.2758808e-07
0.013954089
1.6030909e-07
0.013460339
7.8197647e-08
0.012400984
0.010349619
2.4835429e-08
0.0025517648
8.6473014e-08
0.0068073521
1.608501e-07
0.0099077159
2.2371611e-07
0.012023191
2.5729341e-07
0.013315565
2.5361726e-07
0.013924123
2.1435276e-07
0.013954128
1.4881723e-07
0.013460405
7.1651604e-08
0.012401061
0.010349691
2.514159e-08
0.0025517396
8.6674555e-08
0.0068072906
1.5893176e-07
0.0099076436
2.1758176e-07
0.012023132
2.4630416e-07
0.013315536
2.3910515e-07
0.01392413
1.9918611e-07
0.013954168
1.3643885e-07
0.013460467
6.4888816e-08
0.012401133
0.010349756
2.4864379e-08
0.0025517148
8.5027883e-08
0.0068072304
1.540478e-07
0.0099075746
2.0803258e-07
0.012023078
2.3219518e-07
0.013315512
2.2227379e-07
0.01392414
1.8265826e-07
0.013954208
1.2350558e-07
0.013460527
5.8036915e-08
0.012401198
0.010349814
2.4109875e-08
0.0025516906
8.1881392e-08
0.0068071726
1.4679254e-07
0.0099075097
1.9581698e-07
0.012023029
2.1573005e-07
0.013315492
2.0378188e-07
0.013924152
1.6524274e-07
0.013954247
1.1027378e-07
0.013460582
5.1166647e-08
0.012401257
0.010349865
2.2979932e-08
0.0025516677
7.7561702e-08
0.0068071181
1.3772489e-07
0.0099074495
1.8163357e-07
0.012022985
1.976255e-07
0.013315476
1.8424934e-07
0.013924166
1.4739035e-07
0.013954283
9.7007056e-08
0.013460632
4.4390151e-08
0.01240131
0.010349909
2.1563738e-08
0.0025516461
7.2364445e-08
0.0068070673
1.2734362e-07
0.0099073945
1.6610813e-07
0.012022946
1.7852287e-07
0.013315463
1.6423501e-07
0.01392418
1.29511e-07
0.013954318
8.3944016e-08
0.013460677
3.7788756e-08
0.012401356
0.010349947
1.9948294e-08
0.0025516262
6.656809e-08
0.0068070206
1.1612349e-07
0.009907345
1.4983756e-07
0.012022913
1.5904089e-07
0.013315454
1.4428914e-07
0.013924195
1.1203478e-07
0.01395435
7.1374692e-08
0.013460718
3.152061e-08
0.012401396
0.010349979
1.8205349e-08
0.0025516079
6.04131e-08
0.0068069784
1.0447403e-07
0.0099073009
1.3333421e-07
0.012022884
1.3971111e-07
0.013315448
1.2488697e-07
0.013924209
9.5331249e-08
0.01395438
5.954971e-08
0.013460754
2.5701421e-08
0.01240143
0.010350004
1.6397599e-08
0.0025515915
5.4106482e-08
0.0068069407
9.2745191e-08
0.0099072623
1.1703119e-07
0.012022859
1.2096609e-07
0.013315444
1.064044e-07
0.013924224
7.9690624e-08
0.013954407
4.8658306e-08
0.013460785
2.0427195e-08
0.012401458
0.010350025
1.457928e-08
0.002551577
4.7821838e-08
0.0068069075
8.122373e-08
0.0099072289
1.0127245e-07
0.012022839
1.0314815e-07
0.013315442
8.912798e-08
0.013924238
6.5314462e-08
0.01395443
3.8826807e-08
0.013460811
1.5766666e-08
0.012401481
0.010350041
1.2783952e-08
0.0025515642
4.1675537e-08
0.0068068786
7.0093234e-08
0.0099072005
8.626029e-08
0.012022823
8.6418598e-08
0.013315442
7.3146411e-08
0.013924251
5.2222277e-08
0.013954451
3.0018667e-08
0.013460834
1.1654687e-08
0.012401499
0.010350052
1.1048666e-08
0.0025515531
3.5772769e-08
0.0068068539
5.9515037e-08
0.0099071767
7.2162849e-08
0.012022811
7.0912457e-08
0.013315443
5.8532984e-08
0.013924264
4.041932e-08
0.013954469
2.2195396e-08
0.013460852
8.0715107e-09
0.012401513
0.01035006
9.3922062e-09
0.0025515437
3.0173437e-08
0.0068068331
4.9567754e-08
0.0099071573
5.9043573e-08
0.012022801
5.6639823e-08
0.013315445
4.5231524e-08
0.013924275
2.9790744e-08
0.013954485
1.5217446e-08
0.013460866
4.8933577e-09
0.012401524
0.010350065
7.8301937e-09
0.0025515359
2.4923993e-08
0.006806816
4.0316094e-08
0.0099071419
4.6956225e-08
0.012022794
4.3618888e-08
0.013315449
3.3213724e-08
0.013924285
2.0263783e-08
0.013954498
8.9878195e-09
0.013460878
2.0514245e-09
0.012401531
0.010350067
6.3920051e-09
0.0025515295
2.009496e-08
0.0068068023
3.1894234e-08
0.0099071301
3.6114139e-08
0.01202279
3.2145911e-08
0.013315453
2.2833333e-08
0.013924295
1.220985e-08
0.013954508
3.8356555e-09
0.013460886
-2.4200524e-10
0.012401535
0.010350067
2.8750162e-09
9.0137728e-09
1.4166855e-08
1.5797569e-08
1.3705484e-08
9.3290851e-09
4.518018e-09
9.2515756e-10
-6.1654474e-10
)
;

boundaryField
{
    water_inlet
    {
        type            calculated;
        value           nonuniform List<scalar> 10(-0.0021750989 -0.0058428937 -0.0086267772 -0.010688211 -0.012161792 -0.013159549 -0.01377456 -0.014084001 -0.014151716 -0.014030398);
    }
    water_outlet
    {
        type            calculated;
        value           nonuniform List<scalar> 10(0.0025515266 0.0068067961 0.0099071249 0.012022789 0.013315455 0.013924299 0.013954513 0.01346089 0.012401536 0.010350066);
    }
    water_wedge1
    {
        type            wedge;
        value           nonuniform List<scalar> 
1000
(
-1.1295959e-13
-1.4267706e-13
-1.1216373e-13
-1.0631358e-13
-9.935671e-14
-9.3389996e-14
-8.8690679e-14
-8.4952049e-14
-8.1973613e-14
-7.9489495e-14
-7.7280586e-14
-7.5237073e-14
-7.3267178e-14
-7.1279605e-14
-6.9183416e-14
-6.6858014e-14
-6.4135115e-14
-6.081504e-14
-5.6666546e-14
-5.1411421e-14
-4.4798001e-14
-3.6657735e-14
-2.7078578e-14
-1.6558226e-14
-5.8630812e-15
4.0656387e-15
1.2372157e-14
1.8668341e-14
2.2900147e-14
2.5294708e-14
2.6223155e-14
2.6008479e-14
2.5026831e-14
2.3518873e-14
2.1685246e-14
1.9696327e-14
1.7628042e-14
1.5592162e-14
1.3611335e-14
1.1732909e-14
9.9945473e-15
8.3908927e-15
6.9310852e-15
5.6119672e-15
4.4409132e-15
3.402189e-15
2.4969223e-15
1.711337e-15
1.0441632e-15
4.8591483e-16
1.015047e-17
-3.7099948e-16
-6.7188702e-16
-9.1024768e-16
-1.0875939e-15
-1.2101123e-15
-1.2820382e-15
-1.3243196e-15
-1.3323135e-15
-1.3114547e-15
-1.2678463e-15
-1.2019718e-15
-1.1284651e-15
-1.0508193e-15
-9.5729806e-16
-8.5707662e-16
-7.7023111e-16
-6.7545842e-16
-5.8436485e-16
-4.988165e-16
-4.1438013e-16
-3.4200648e-16
-2.7250349e-16
-2.0653808e-16
-1.5504288e-16
-1.1132459e-16
-6.1416132e-17
-2.1659752e-17
4.1239997e-18
2.2438104e-17
4.2155757e-17
6.2050807e-17
7.5416654e-17
8.4716947e-17
8.633076e-17
8.7522963e-17
8.2666094e-17
8.1551207e-17
8.1935297e-17
7.2461358e-17
6.7901492e-17
6.773317e-17
5.456186e-17
4.6296979e-17
4.7693216e-17
4.013879e-17
2.8359127e-17
2.5116541e-17
2.136059e-17
6.5751174e-18
-6.8081312e-13
-1.0335457e-12
-8.3928948e-13
-7.97527e-13
-7.4939866e-13
-7.0313772e-13
-6.6536456e-13
-6.3522968e-13
-6.1093691e-13
-5.9052863e-13
-5.7244937e-13
-5.5560521e-13
-5.3912373e-13
-5.221978e-13
-5.0397597e-13
-4.8343424e-13
-4.5934513e-13
-4.3018876e-13
-3.9436717e-13
-3.5055525e-13
-2.9814049e-13
-2.3765383e-13
-1.7103064e-13
-1.0155265e-13
-3.3368575e-14
2.8948212e-14
8.1485363e-14
1.2214472e-13
1.506328e-13
1.6797359e-13
1.7589409e-13
1.7635091e-13
1.7126792e-13
1.6227842e-13
1.5073409e-13
1.3769339e-13
1.2392663e-13
1.1003828e-13
9.6440125e-14
8.3439096e-14
7.122555e-14
5.9900368e-14
4.9549956e-14
4.019618e-14
3.1831125e-14
2.4420021e-14
1.7931753e-14
1.2315879e-14
7.5116708e-15
3.4687444e-15
1.1734444e-16
-2.6169521e-15
-4.802934e-15
-6.4995801e-15
-7.7693562e-15
-8.6600166e-15
-9.2134682e-15
-9.4916893e-15
-9.532037e-15
-9.3779639e-15
-9.0661707e-15
-8.6222353e-15
-8.0839796e-15
-7.4802496e-15
-6.8335923e-15
-6.1591693e-15
-5.4804226e-15
-4.8097309e-15
-4.1602926e-15
-3.5440073e-15
-2.9592518e-15
-2.4166897e-15
-1.9238893e-15
-1.4782996e-15
-1.0836778e-15
-7.3936965e-16
-4.3036876e-16
-1.6802452e-16
4.7251702e-17
2.2203961e-16
3.5913013e-16
4.6953e-16
5.4749105e-16
5.98978e-16
6.3150698e-16
6.4591314e-16
6.3907631e-16
6.1931319e-16
5.9133914e-16
5.5652302e-16
5.1885464e-16
4.7727615e-16
4.3312192e-16
3.8179574e-16
3.3300714e-16
2.9169885e-16
2.4853995e-16
2.084445e-16
1.7033519e-16
9.5441039e-17
3.133911e-12
4.8023012e-12
3.9072349e-12
3.7113874e-12
3.4900552e-12
3.2689355e-12
3.0860194e-12
2.9387793e-12
2.817614e-12
2.7124744e-12
2.6152669e-12
2.519714e-12
2.4205045e-12
2.3123533e-12
2.1894915e-12
2.0461114e-12
1.8774919e-12
1.6811027e-12
1.4574316e-12
1.2105555e-12
9.4809252e-13
6.8016332e-13
4.1759137e-13
1.7019208e-13
-5.3300032e-14
-2.4553356e-13
-4.0215958e-13
-5.2203554e-13
-6.0636001e-13
-6.580606e-13
-6.8129024e-13
-6.8087622e-13
-6.6177179e-13
-6.2868008e-13
-5.8578622e-13
-5.3663163e-13
-4.8411121e-13
-4.3048677e-13
-3.774816e-13
-3.263613e-13
-2.7801304e-13
-2.3301997e-13