/*--------------------------------*- C++ -*----------------------------------*\
| =========                 |                                                 |
| \\      /  F ield         | OpenFOAM: The Open Source CFD Toolbox           |
|  \\    /   O peration     | Version:  2506                                  |
|   \\  /    A nd           | Website:  www.openfoam.com                      |
|    \\/     M anipulation  |                                                 |
\*---------------------------------------------------------------------------*/
FoamFile
{
    version     2.0;
    format      ascii;
    arch        "LSB;label=32;scalar=64";
    class       volScalarField;
    location    "2000/water";
    object      T;
}
// * * * * * * * * * * * * * * * * * * * * * * * * * * * * * * * * * * * * * //

dimensions      [0 0 0 1 0 0 0];

internalField   nonuniform List<scalar> 
1000
(
333.15
333.15
333.15
333.14999
333.14998
333.14991
333.14966
333.14882
333.14553
333.13084
333.15
333.15
333.14999
333.14998
333.14992
333.14971
333.14908
333.14712
333.14015
333.11772
333.15
333.15
333.14999
333.14995
333.14981
333.14941
333.14828
333.14494
333.1344
333.10784
333.15
333.14999
333.14997
333.14989
333.14966
333.149
333.14724
333.14231
333.12869
333.10022
333.14999
333.14998
333.14995
333.14982
333.14945
333.14847
333.14594
333.13921
333.12337
333.09448
333.14999
333.14997
333.14991
333.14972
333.14918
333.1478
333.1443
333.13572
333.11865
333.09032
333.14998
333.14996
333.14986
333.14958
333.14883
333.14694
333.14228
333.13206
333.11465
333.08736
333.14997
333.14993
333.1498
333.1494
333.14838
333.14584
333.13991
333.1285
333.11134
333.08526
333.14996
333.1499
333.14971
333.14917
333.1478
333.14446
333.13728
333.12522
333.10863
333.08375
333.14994
333.14986
333.1496
333.14888
333.14706
333.1428
333.13457
333.12231
333.1064
333.08262
333.14991
333.1498
333.14945
333.14849
333.14611
333.14089
333.13193
333.11978
333.10454
333.08176
333.14987
333.14973
333.14926
333.14799
333.14494
333.13882
333.12945
333.11757
333.10298
333.08109
333.14982
333.14963
333.149
333.14735
333.14355
333.13669
333.12717
333.11566
333.10166
333.08056
333.14976
333.1495
333.14867
333.14654
333.14198
333.13459
333.1251
333.11397
333.10051
333.08013
333.14968
333.14934
333.14825
333.14555
333.14029
333.13258
333.12323
333.11249
333.09952
333.07978
333.14956
333.14911
333.14769
333.14437
333.13853
333.13068
333.12154
333.11117
333.09864
333.0795
333.14941
333.14882
333.14699
333.14304
333.13677
333.1289
333.12
333.10998
333.09787
333.07926
333.14921
333.14843
333.14613
333.1416
333.13504
333.12724
333.11859
333.10891
333.09717
333.07906
333.14894
333.14792
333.1451
333.14008
333.13337
333.1257
333.11731
333.10793
333.09654
333.07889
333.14857
333.14727
333.14393
333.13853
333.13177
333.12426
333.11612
333.10704
333.09597
333.07873
333.14808
333.14645
333.14263
333.13697
333.13025
333.12292
333.11503
333.10622
333.09544
333.0786
333.14743
333.14547
333.14125
333.13544
333.1288
333.12166
333.114
333.10545
333.09495
333.07846
333.14658
333.14432
333.1398
333.13394
333.12742
333.12048
333.11305
333.10473
333.09448
333.07833
333.14553
333.14303
333.13831
333.13248
333.12611
333.11936
333.11215
333.10405
333.09404
333.0782
333.14426
333.1416
333.13681
333.13106
333.12485
333.11831
333.11129
333.1034
333.09361
333.07807
333.14279
333.14007
333.13531
333.12968
333.12365
333.1173
333.11048
333.10278
333.09319
333.07792
333.14116
333.13846
333.1338
333.12834
333.12249
333.11633
333.10969
333.10218
333.09278
333.07776
333.13942
333.13681
333.13231
333.12703
333.12137
333.11539
333.10893
333.10159
333.09238
333.07759
333.1376
333.13513
333.13083
333.12575
333.12028
333.11448
333.10819
333.10101
333.09196
333.0774
333.13576
333.13344
333.12936
333.12449
333.11922
333.11359
333.10746
333.10043
333.09155
333.07719
333.13393
333.13177
333.12791
333.12326
333.11817
333.11271
333.10674
333.09986
333.09112
333.07695
333.13213
333.13012
333.12649
333.12205
333.11714
333.11185
333.10602
333.09928
333.09068
333.07669
333.13038
333.12851
333.12509
333.12085
333.11613
333.11099
333.1053
333.09869
333.09022
333.07639
333.12868
333.12695
333.12372
333.11968
333.11513
333.11014
333.10458
333.09809
333.08974
333.07607
333.12705
333.12543
333.12239
333.11853
333.11414
333.10929
333.10386
333.09748
333.08924
333.07571
333.12548
333.12396
333.12109
333.1174
333.11316
333.10844
333.10313
333.09686
333.08872
333.07532
333.12398
333.12255
333.11982
333.11629
333.11219
333.1076
333.10239
333.09622
333.08818
333.0749
333.12253
333.12118
333.11859
333.1152
333.11124
333.10676
333.10165
333.09557
333.08762
333.07444
333.12115
333.11987
333.1174
333.11413
333.11029
333.10591
333.1009
333.0949
333.08703
333.07396
333.11982
333.1186
333.11623
333.11309
333.10935
333.10507
333.10014
333.09422
333.08642
333.07344
333.11854
333.11738
333.1151
333.11206
333.10842
333.10423
333.09938
333.09352
333.0858
333.0729
333.1173
333.11619
333.114
333.11105
333.1075
333.10339
333.0986
333.09281
333.08515
333.07233
333.11611
333.11504
333.11293
333.11006
333.10659
333.10255
333.09783
333.09209
333.08449
333.07173
333.11497
333.11393
333.11188
333.10909
333.10568
333.10171
333.09704
333.09136
333.08381
333.07112
333.11385
333.11285
333.11086
333.10813
333.10479
333.10087
333.09626
333.09062
333.08311
333.07048
333.11277
333.1118
333.10985
333.10718
333.1039
333.10003
333.09546
333.08987
333.0824
333.06983
333.11172
333.11077
333.10887
333.10625
333.10301
333.09919
333.09466
333.08911
333.08169
333.06916
333.11069
333.10976
333.1079
333.10532
333.10213
333.09835
333.09386
333.08834
333.08096
333.06848
333.10969
333.10878
333.10695
333.10441
333.10126
333.09751
333.09306
333.08757
333.08022
333.06778
333.10871
333.10781
333.10601
333.10351
333.10039
333.09668
333.09225
333.08679
333.07947
333.06707
333.10774
333.10686
333.10509
333.10261
333.09953
333.09584
333.09144
333.08601
333.07871
333.06634
333.1068
333.10593
333.10418
333.10173
333.09867
333.095
333.09063
333.08522
333.07795
333.06561
333.10586
333.10501
333.10327
333.10084
333.09781
333.09417
333.08982
333.08443
333.07718
333.06487
333.10494
333.1041
333.10238
333.09997
333.09695
333.09333
333.089
333.08364
333.07641
333.06412
333.10404
333.1032
333.10149
333.0991
333.0961
333.0925
333.08819
333.08284
333.07563
333.06337
333.10314
333.1023
333.10061
333.09823
333.09525
333.09167
333.08737
333.08204
333.07485
333.0626
333.10225
333.10142
333.09974
333.09737
333.0944
333.09083
333.08655
333.08123
333.07406
333.06183
333.10136
333.10054
333.09887
333.09652
333.09356
333.09
333.08573
333.08043
333.07327
333.06106
333.10049
333.09967
333.09801
333.09566
333.09271
333.08917
333.08491
333.07962
333.07247
333.06027
333.09962
333.0988
333.09715
333.09481
333.09187
333.08834
333.08409
333.07881
333.07167
333.05949
333.09875
333.09794
333.09629
333.09396
333.09103
333.08751
333.08327
333.078
333.07087
333.05869
333.09789
333.09708
333.09543
333.09311
333.09019
333.08668
333.08245
333.07719
333.07007
333.0579
333.09703
333.09623
333.09458
333.09227
333.08935
333.08584
333.08162
333.07637
333.06926
333.05709
333.09618
333.09537
333.09373
333.09142
333.08852
333.08501
333.0808
333.07555
333.06845
333.05629
333.09533
333.09452
333.09289
333.09058
333.08768
333.08418
333.07998
333.07474
333.06764
333.05547
333.09448
333.09367
333.09204
333.08974
333.08684
333.08335
333.07915
333.07392
333.06682
333.05466
333.09363
333.09283
333.0912
333.0889
333.08601
333.08252
333.07832
333.07309
333.066
333.05383
333.09278
333.09198
333.09035
333.08806
333.08517
333.08169
333.0775
333.07227
333.06518
333.05301
333.09194
333.09114
333.08951
333.08722
333.08433
333.08086
333.07667
333.07144
333.06435
333.05217
333.09109
333.09029
333.08867
333.08638
333.0835
333.08002
333.07584
333.07062
333.06352
333.05133
333.09025
333.08945
333.08783
333.08554
333.08266
333.07919
333.07501
333.06979
333.06269
333.05049
333.08941
333.08861
333.08699
333.0847
333.08183
333.07836
333.07418
333.06895
333.06185
333.04964
333.08856
333.08777
333.08615
333.08386
333.08099
333.07752
333.07334
333.06812
333.06101
333.04878
333.08772
333.08693
333.08531
333.08303
333.08015
333.07669
333.07251
333.06728
333.06017
333.04792
333.08688
333.08609
333.08447
333.08219
333.07932
333.07585
333.07167
333.06644
333.05932
333.04705
333.08604
333.08525
333.08363
333.08135
333.07848
333.07501
333.07083
333.06559
333.05846
333.04617
333.0852
333.0844
333.08279
333.08051
333.07764
333.07417
333.06998
333.06474
333.0576
333.04529
333.08436
333.08356
333.08195
333.07967
333.0768
333.07333
333.06914
333.06389
333.05674
333.0444
333.08352
333.08272
333.08111
333.07883
333.07596
333.07248
333.06829
333.06304
333.05587
333.04349
333.08267
333.08188
333.08026
333.07798
333.07511
333.07164
333.06744
333.06218
333.05499
333.04258
333.08183
333.08104
333.07942
333.07714
333.07427
333.07079
333.06658
333.06131
333.05411
333.04166
333.08099
333.0802
333.07858
333.0763
333.07342
333.06994
333.06573
333.06044
333.05322
333.04073
333.08015
333.07935
333.07773
333.07545
333.07257
333.06908
333.06486
333.05957
333.05233
333.03979
333.0793
333.07851
333.07689
333.0746
333.07172
333.06823
333.064
333.05869
333.05142
333.03884
333.07846
333.07766
333.07604
333.07375
333.07086
333.06737
333.06313
333.0578
333.05051
333.03787
333.07761
333.07682
333.07519
333.0729
333.07001
333.0665
333.06225
333.05691
333.04959
333.03689
333.07676
333.07597
333.07434
333.07205
333.06915
333.06563
333.06137
333.05601
333.04866
333.03589
333.07592
333.07512
333.07349
333.07119
333.06828
333.06476
333.06048
333.0551
333.04771
333.03488
333.07507
333.07427
333.07264
333.07033
333.06742
333.06388
333.05959
333.05418
333.04676
333.03385
333.07421
333.07341
333.07178
333.06947
333.06655
333.063
333.05869
333.05326
333.0458
333.0328
333.07336
333.07256
333.07092
333.0686
333.06567
333.06211
333.05778
333.05233
333.04482
333.03173
333.0725
333.0717
333.07006
333.06773
333.06479
333.06122
333.05687
333.05138
333.04383
333.03064
333.07164
333.07084
333.06919
333.06686
333.06391
333.06032
333.05595
333.05043
333.04282
333.02952
333.07078
333.06997
333.06832
333.06598
333.06302
333.05941
333.05501
333.04946
333.04179
333.02838
333.06992
333.0691
333.06745
333.0651
333.06212
333.05849
333.05407
333.04847
333.04074
333.0272
333.06905
333.06823
333.06657
333.06421
333.06121
333.05757
333.05312
333.04748
333.03967
333.02598
333.06818
333.06736
333.06569
333.06331
333.0603
333.05663
333.05215
333.04646
333.03858
333.02471
333.0673
333.06648
333.0648
333.06241
333.05938
333.05569
333.05117
333.04542
333.03745
333.02338
333.06642
333.06559
333.0639
333.0615
333.05845
333.05473
333.05016
333.04436
333.03627
333.02196
333.06554
333.0647
333.063
333.06059
333.05752
333.05376
333.04914
333.04325
333.03502
333.02035
)
;

boundaryField
{
    water_inlet
    {
        type            fixedValue;
        value           uniform 333.15;
    }
    water_outlet
    {
        type            zeroGradient;
    }
    water_wedge1
    {
        type            wedge;
    }
    water_wedge2
    {
        type            wedge;
    }
    water_to_rock
    {
        type            compressible::turbulentTemperatureRadCoupledMixed;
        refValue        nonuniform List<scalar> 
100
(
315.03483
319.27352
321.11374
322.20467
322.9665
323.54901
324.01977
324.4143
324.75337
325.05009
325.31328
325.54914
325.76219
325.95581
326.13261
326.29464
326.44358
326.58078
326.70739
326.82436
326.93255
327.03269
327.12541
327.21131
327.29088
327.36461
327.43291
327.49618
327.55477
327.60901
327.6592
327.70561
327.74851
327.78813
327.8247
327.85843
327.88949
327.91809
327.94437
327.9685
327.99061
328.01085
328.02933
328.04617
328.06148
328.07534
328.08785
328.0991
328.10915
328.11807
328.12592
328.13277
328.13865
328.14361
328.1477
328.15094
328.15337
328.155
328.15586
328.15596
328.15531
328.15393
328.1518
328.14892
328.1453
328.14092
328.13575
328.12979
328.12301
328.11537
328.10685
328.0974
328.08697
328.07553
328.063
328.04933
328.03444
328.01827
328.00071
327.98169
327.96109
327.9388
327.91469
327.88861
327.86041
327.8299
327.79687
327.76108
327.72224
327.68001
327.63397
327.58358
327.52816
327.46677
327.39807
327.32001
327.22917
327.11887
326.97275
326.73378
)
;
        refGradient     uniform 0;
        valueFraction   nonuniform List<scalar> 
100
(
0.015817679
0.014384089
0.014368103
0.014731052
0.015120367
0.015402092
0.015559944
0.01563042
0.015653896
0.015656168
0.015649643
0.015639108
0.015626012
0.015610671
0.015593167
0.015573624
0.015552348
0.015529682
0.015505858
0.015481073
0.015455536
0.015429471
0.015403101
0.015376653
0.015350357
0.015324455
0.015299204
0.015274885
0.015251792
0.01523022
0.015210449
0.015192718
0.015177203
0.015164002
0.015153129
0.015144516
0.015138029
0.015133479
0.015130645
0.015129289
0.015129171
0.015130059
0.015131735
0.015134006
0.015136712
0.015139718
0.015142892
0.015146123
0.015149322
0.01515242
0.015155365
0.01515812
0.015160661
0.015162974
0.015165051
0.015166893
0.015168506
0.015169897
0.015171079
0.015172065
0.015172872
0.015173514
0.01517401
0.015174374
0.015174623
0.015174773
0.015174837
0.01517483
0.015174765
0.015174653
0.015174506
0.015174332
0.015174142
0.015173942
0.015173737
0.015173532
0.01517333
0.015173136
0.015172952
0.015172779
0.01517262
0.015172475
0.015172344
0.015172228
0.015172125
0.015172037
0.015171961
0.015171897
0.015171845
0.015171804
0.015171773
0.01517175
0.015171734
0.015171725
0.015171721
0.015171722
0.015171726
0.015171734
0.015171744
0.015171756
)
;
        source          uniform 0;
        value           nonuniform List<scalar> 
100
(
332.84461
332.91858
332.9355
332.93972
332.94134
332.94336
332.94627
332.94973
332.95334
332.95686
332.96019
332.9633
332.9662
332.96891
332.97145
332.97383
332.97606
332.97814
332.98009
332.98191
332.9836
332.98518
332.98664
332.98799
332.98923
332.99037
332.9914
332.99233
332.99317
332.9939
332.99454
332.99508
332.99553
332.99588
332.99614
332.99631
332.9964
332.99641
332.99634
332.9962
332.996
332.99574
332.99543
332.99507
332.99466
332.99421
332.99372
332.9932
332.99265
332.99207
332.99147
332.99083
332.99018
332.98951
332.98881
332.9881
332.98737
332.98663
332.98586
332.98508
332.98429
332.98348
332.98265
332.98181
332.98096
332.98008
332.9792
332.97829
332.97737
332.97643
332.97547
332.97449
332.97348
332.97246
332.97142
332.97035
332.96925
332.96813
332.96697
332.96579
332.96457
332.96331
332.96202
332.96069
332.95931
332.95788
332.9564
332.95486
332.95325
332.95158
332.94983
332.94799
332.94605
332.94399
332.94178
332.9394
332.93677
332.93379
332.93017
332.92496
)
;
        logInterval     -1;
        writePrecision  8;
        updateHeader    1;
        writeToFile     0;
        useUserTime     1;
        kappaMethod     fluidThermo;
    }
}


// ************************************************************************* //
