/*--------------------------------*- C++ -*----------------------------------*\
| =========                 |                                                 |
| \\      /  F ield         | OpenFOAM: The Open Source CFD Toolbox           |
|  \\    /   O peration     | Version:  2506                                  |
|   \\  /    A nd           | Website:  www.openfoam.com                      |
|    \\/     M anipulation  |                                                 |
\*---------------------------------------------------------------------------*/
FoamFile
{
    version     2.0;
    format      ascii;
    arch        "LSB;label=32;scalar=64";
    class       volVectorField;
    location    "2000/water";
    object      U;
}
// * * * * * * * * * * * * * * * * * * * * * * * * * * * * * * * * * * * * * //

dimensions      [0 1 -1 0 0 0 0];

internalField   nonuniform List<vector> 
1000
(
(0.25225587 -0.00012859767 1.8812719e-18)
(0.25226258 -0.00027067836 9.8803179e-19)
(0.25227485 -0.0004145054 2.1441522e-18)
(0.25228819 -0.00055572716 2.6797509e-19)
(0.25229018 -0.0006857579 3.4987219e-19)
(0.25223998 -0.00079863172 5.8793094e-20)
(0.25200713 -0.00089615194 -1.2643809e-19)
(0.25115686 -0.0010460356 -2.2160061e-19)
(0.24780473 -0.0012820719 -7.3773255e-20)
(0.23308261 0.0010121611 -3.3878298e-19)
(0.25653043 -7.7330444e-05 1.8918939e-18)
(0.25653977 -0.0001890383 1.5323871e-18)
(0.25655871 -0.00029096536 2.5072118e-18)
(0.25657276 -0.00039024487 5.3559366e-19)
(0.25654377 -0.00048175039 3.4750272e-19)
(0.25636039 -0.00055898444 2.1192365e-19)
(0.25570613 -0.00060536502 -7.3466603e-20)
(0.25355952 -0.00065441369 -3.5641148e-19)
(0.24574266 -0.00084724768 -2.1709642e-19)
(0.21968686 0.00025718798 -3.4455126e-19)
(0.26021787 -7.3909969e-05 -2.8672345e-19)
(0.26022468 -0.00018059831 -5.865595e-20)
(0.26023383 -0.00027741908 7.9139494e-19)
(0.26021807 -0.00037159738 4.9992819e-19)
(0.26010153 -0.00045735766 -1.1120008e-20)
(0.25968006 -0.00053044589 -2.0732674e-19)
(0.25840621 -0.00057093087 -8.4608484e-20)
(0.25452354 -0.00056554749 -3.5356217e-19)
(0.24186464 -0.00061987709 -3.7482069e-19)
(0.20839342 1.1252845e-05 -3.7884713e-19)
(0.26340527 -6.8945957e-05 -4.4349184e-19)
(0.26340956 -0.00017058503 -8.402715e-20)
(0.26340597 -0.0002627922 8.396816e-19)
(0.2633478 -0.00035138353 4.9384157e-19)
(0.26310913 -0.00042951114 -2.2476869e-20)
(0.26237282 -0.00049394949 -4.5209489e-19)
(0.26030372 -0.00052750914 -2.2012042e-19)
(0.25430845 -0.00049289854 -3.5197232e-19)
(0.23723184 -0.00045934259 -3.6545099e-19)
(0.19958846 -4.8876166e-05 -3.8825603e-19)
(0.26641628 -6.4388912e-05 -8.7709331e-19)
(0.26641556 -0.00015946865 9.8441668e-19)
(0.266392 -0.00024539847 7.03858e-19)
(0.26627267 -0.00032748751 3.3060195e-19)
(0.26586989 -0.00039791726 3.0237111e-20)
(0.26472852 -0.00045250584 2.5311108e-19)
(0.26164538 -0.00047360774 -2.9602602e-20)
(0.25321241 -0.00041483712 -2.538597e-19)
(0.23271018 -0.0003345924 -3.1062885e-19)
(0.19329526 -5.0634085e-05 -2.8713853e-19)
(0.26927574 -6.0867498e-05 4.1516914e-19)
(0.26926716 -0.00015024321 1.0350785e-18)
(0.26921481 -0.00023070437 3.9507808e-19)
(0.26901237 -0.00030702733 3.3148409e-19)
(0.26839647 -0.00037050008 -6.4763727e-20)
(0.26673517 -0.00041493264 4.5542879e-19)
(0.26236784 -0.0004187186 -4.6381924e-20)
(0.25136273 -0.00033835043 -1.7932045e-19)
(0.22869805 -0.00023662898 -1.3617292e-19)
(0.1890214 -3.9495866e-05 -1.8435773e-19)
(0.27197991 -5.8057519e-05 2.1373943e-18)
(0.27196007 -0.0001428713 2.4975208e-18)
(0.2718683 -0.00021894832 5.265154e-19)
(0.2715565 -0.00029030361 5.0462542e-19)
(0.27066608 -0.00034729025 8.4208702e-20)
(0.26833153 -0.00038068359 1.0406391e-20)
(0.26239848 -0.00036437365 -2.0347445e-19)
(0.24902637 -0.00026852586 -1.2573785e-19)
(0.225361 -0.00016272794 -2.440598e-20)
(0.18616829 -2.8774721e-05 -2.5463231e-19)
(0.27455816 -5.5861807e-05 -1.0633957e-18)
(0.27452281 -0.00013703203 2.1579453e-18)
(0.27437848 -0.0002095201 1.1087236e-18)
(0.27392443 -0.00027640507 7.4253101e-19)
(0.27267858 -0.00032682122 1.8806108e-19)
(0.26947688 -0.00034738496 1.8405807e-19)
(0.26178466 -0.00031092754 9.0599485e-20)
(0.24657377 -0.00020816936 -9.8996429e-20)
(0.22271518 -0.00011050157 -1.2928523e-19)
(0.18425839 -2.0836652e-05 -2.5613952e-19)
(0.27704027 -5.4085691e-05 -5.2456364e-20)
(0.27698407 -0.00013225429 6.4513951e-19)
(0.27677058 -0.00020162565 1.4256132e-18)
(0.27613171 -0.00026417286 9.4807559e-19)
(0.27442314 -0.00030720598 1.8589847e-19)
(0.27014173 -0.00031294803 3.4636987e-19)
(0.26068996 -0.00025925814 8.226818e-20)
(0.24429828 -0.00015836467 -1.2694664e-19)
(0.22067582 -7.5408732e-05 -1.7139011e-20)
(0.18296202 -1.5153625e-05 -5.8192896e-20)
(0.2794434 -5.2555719e-05 3.0599407e-18)
(0.27935955 -0.00012814127 1.863141e-18)
(0.27905543 -0.00019460742 2.3879039e-19)
(0.27817576 -0.0002525923 5.7461298e-19)
(0.27586798 -0.00028673462 3.6176902e-19)
(0.27032644 -0.00027659232 2.2590572e-20)
(0.25933498 -0.00021094056 -1.1101141e-19)
(0.24234211 -0.00011891237 -7.7752669e-20)
(0.21912382 -5.2172028e-05 -1.7105237e-19)
(0.18206603 -1.0946037e-05 -1.9815412e-19)
(0.28177654 -5.1166629e-05 1.1978283e-18)
(0.28165619 -0.00012441963 6.8267163e-19)
(0.2812333 -0.00018797287 -1.0473377e-19)
(0.28003902 -0.00024077448 7.2083974e-19)
(0.276974 -0.00026417659 2.6305318e-19)
(0.27008763 -0.0002388044 -1.5212295e-19)
(0.25792265 -0.00016762362 -1.3598037e-19)
(0.24073176 -8.8481738e-05 -1.2331415e-19)
(0.2179502 -3.6446066e-05 -3.4418415e-19)
(0.18143938 -7.6995409e-06 -2.1864002e-19)
(0.28404476 -4.9854714e-05 7.8612016e-19)
(0.28387625 -0.00012089409 7.1286341e-19)
(0.2832974 -0.00018132889 1.3802691e-19)
(0.28169345 -0.00022787692 5.5819136e-19)
(0.27771476 -0.00023897381 3.4239277e-19)
(0.26953511 -0.00020087558 -1.2776266e-19)
(0.25659136 -0.00013036517 -1.5717094e-19)
(0.23943778 -6.5171486e-05 -2.2202821e-19)
(0.217069 -2.5325813e-05 -1.6849405e-19)
(0.18100323 -5.1221524e-06 -1.5988965e-19)
(0.28625048 -4.8572025e-05 1.708265e-18)
(0.28601827 -0.00011740075 4.2463307e-19)
(0.28523427 -0.00017430158 1.5108326e-19)
(0.28310495 -0.00021314147 6.8599377e-19)
(0.27809441 -0.00021129013 4.9974439e-19)
(0.26879942 -0.00016439753 1.9435225e-19)
(0.25541091 -9.9328619e-05 -2.2160763e-20)
(0.23841398 -4.7155185e-05 -1.2028649e-19)
(0.21641537 -1.7078879e-05 -1.3503224e-19)
(0.18070892 -3.0435844e-06 -1.4172823e-19)
(0.28839354 -4.7270931e-05 1.2329322e-18)
(0.28807681 -0.00011377561 3.8503066e-19)
(0.28702341 -0.00016645941 1.2474131e-19)
(0.28424079 -0.00019602529 5.4523201e-19)
(0.27815551 -0.00018188439 2.3051303e-19)
(0.267996 -0.00013078852 2.4676268e-19)
(0.25440305 -7.3935763e-05 -1.6705838e-19)
(0.23761475 -3.3002723e-05 -1.2464505e-19)
(0.21594075 -1.0715413e-05 -2.4110098e-19)
(0.18052453 -1.3527199e-06 -2.3858987e-19)
(0.29047097 -4.5891425e-05 9.1504023e-19)
(0.29004194 -0.00010982897 3.3281434e-18)
(0.28863778 -0.00015729262 1.1498525e-19)
(0.28508023 -0.00017633776 -2.6084473e-19)
(0.27797083 -0.00015188622 -6.7615595e-20)
(0.26720624 -0.00010094562 1.3483925e-19)
(0.25356399 -5.3257622e-05 -8.6548111e-20)
(0.23700053 -2.1697633e-05 -9.6025796e-20)
(0.21560863 -5.6588492e-06 -1.549909e-19)
(0.18042765 3.4108418e-08 -8.4875917e-20)
(0.29247637 -4.4351585e-05 1.7978331e-18)
(0.29189829 -0.00010531339 9.0918808e-19)
(0.29004628 -0.00014628185 4.1998094e-19)
(0.28562469 -0.00015430623 9.2830955e-19)
(0.27762408 -0.0001225393 1.6708881e-19)
(0.26647732 -7.5147913e-05 9.0974236e-20)
(0.25287922 -3.6357926e-05 8.6753637e-20)
(0.23653862 -1.2544547e-05 -5.5428084e-20)
(0.21539113 -1.5275614e-06 -8.3944416e-20)
(0.18040209 1.2057514e-06 8.8590959e-20)
(0.294399 -4.2542756e-05 1.4725213e-18)
(0.29362439 -9.9894769e-05 8.5783423e-19)
(0.29121907 -0.0001330306 9.45996e-19)
(0.28590171 -0.0001305459 1.1072752e-18)
(0.27719086 -9.494502e-05 3.0577584e-19)
(0.26583134 -5.3199441e-05 -2.3971188e-19)
(0.25233097 -2.245397e-05 -1.1015007e-19)
(0.23620236 -5.0214862e-06 -8.9757178e-20)
(0.21526451 1.8968133e-06 -1.3697528e-19)
(0.18043774 2.1934708e-06 -1.6743628e-19)
(0.29622248 -4.0322424e-05 2.08252e-19)
(0.29519257 -9.3155747e-05 3.7499283e-19)
(0.29213502 -0.00011739372 6.4932017e-19)
(0.28595988 -0.00010594462 4.892917e-19)
(0.27672823 -6.9858699e-05 3.3421557e-19)
(0.26527518 -3.4650812e-05 -2.1853447e-19)
(0.25190111 -1.091218e-05 -6.8440879e-20)
(0.23596807 1.2305792e-06 -1.9899353e-20)
(0.21521691 4.7049548e-06 -1.1158662e-19)
(0.18052211 2.9883393e-06 -1.3434297e-19)
(0.29792335 -3.7501487e-05 3.9167566e-19)
(0.29657068 -8.466088e-05 5.3543139e-19)
(0.29278917 -9.955294e-05 9.4550015e-20)
(0.28585703 -8.1497205e-05 1.3458011e-19)
(0.2762736 -4.7620367e-05 5.0903131e-19)
(0.26480715 -1.8984607e-05 4.2000029e-19)
(0.25157195 -1.2543628e-06 -1.4855829e-19)
(0.23582161 6.4201318e-06 -1.4593257e-19)
(0.21523435 6.9884879e-06 -8.8864118e-20)
(0.18064608 3.6200665e-06 -2.3537763e-19)
(0.29946983 -3.3841758e-05 -8.735619e-19)
(0.29772604 -7.4080558e-05 1.5346734e-18)
(0.29319629 -8.002016e-05 -1.6574755e-19)
(0.28564805 -5.8126225e-05 -1.4768449e-18)
(0.27584863 -2.8225195e-05 -6.0381717e-20)
(0.26442121 -5.6898122e-06 -1.8439501e-19)
(0.25132937 6.8569111e-06 -2.574376e-19)
(0.23575038 1.0705383e-05 -2.1904358e-19)
(0.21530524 8.8451319e-06 -9.5095045e-20)
(0.18080242 4.1233637e-06 -4.9928942e-20)
(0.30082186 -2.9094895e-05 1.1877528e-18)
(0.29863175 -6.1332265e-05 1.8363161e-18)
(0.29338823 -5.9567083e-05 -2.8461014e-19)
(0.28537719 -3.6522245e-05 -7.3091064e-19)
(0.27546384 -1.14165e-05 -3.6877122e-19)
(0.26410765 5.617392e-06 -4.830197e-19)
(0.2511654 1.362433e-05 -2.8266354e-19)
(0.23574181 1.4220524e-05 -2.0291924e-19)
(0.21542012 1.0355412e-05 -9.2264673e-20)
(0.18098521 4.5263441e-06 1.5852216e-19)
(0.30193376 -2.3108644e-05 2.7161421e-18)
(0.29927338 -4.6684539e-05 1.3278442e-18)
(0.29340602 -3.9091364e-05 1.5244509e-19)
(0.28507546 -1.7047267e-05 8.3680695e-19)
(0.27512088 3.0842192e-06 9.1359152e-19)
(0.26386444 1.5140723e-05 7.3309453e-19)
(0.25106782 1.9210301e-05 3.7679287e-19)
(0.2357854 1.709519e-05 1.5053103e-19)
(0.21557121 1.1581309e-05 1.5202016e-19)
(0.1811895 4.8478952e-06 4.1773204e-20)
(0.30276111 -1.5976748e-05 -1.4462542e-18)
(0.29965287 -3.0772879e-05 -1.295689e-18)
(0.29329054 -1.9436019e-05 1.2998717e-19)
(0.2847612 1.6786923e-07 -7.0921551e-19)
(0.27482456 1.5440714e-05 5.9612765e-19)
(0.26368339 2.3071457e-05 4.7881605e-19)
(0.25102649 2.380231e-05 6.9394546e-19)
(0.23587241 1.9434335e-05 3.8484454e-19)
(0.21575201 1.2565139e-05 2.564925e-19)
(0.18141109 5.0991946e-06 2.2342783e-19)
(0.30327133 -8.1276686e-06 2.7201653e-19)
(0.29978733 -1.4485836e-05 1.530973e-18)
(0.29307476 -1.3052978e-06 2.1485614e-19)
(0.28444917 1.5039437e-05 -4.7148185e-19)
(0.27457432 2.5803846e-05 -8.2092056e-19)
(0.26355615 2.9613464e-05 -4.3261196e-19)
(0.25103263 2.7544495e-05 -2.9485834e-19)
(0.23599544 2.1311198e-05 1.5391071e-19)
(0.21595698 1.3335979e-05 1.6730563e-19)
(0.18164631 5.2875312e-06 2.0402329e-19)
(0.30345395 -2.4219024e-07 -2.7605816e-19)
(0.29970262 1.1331332e-06 1.1433025e-18)
(0.29278635 1.4662417e-05 -7.3484644e-19)
(0.28414892 2.7525713e-05 -7.3761998e-19)
(0.27436559 3.4336643e-05 -6.0002798e-19)
(0.26347496 3.4929847e-05 -5.5322444e-19)
(0.25107852 3.0536061e-05 -2.0887372e-19)
(0.23614812 2.2774135e-05 1.0595309e-19)
(0.21618131 1.3912514e-05 1.0660408e-19)
(0.18189182 5.4171679e-06 1.2724743e-19)
(0.3033251 6.8809832e-06 -3.8319886e-18)
(0.29943293 1.4984928e-05 -1.7767401e-18)
(0.29244687 2.7993984e-05 -2.1674418e-18)
(0.28386231 3.7676591e-05 -2.0479953e-18)
(0.27419302 4.1187076e-05 -8.1081491e-19)
(0.26343257 3.9127933e-05 -6.4264434e-19)
(0.2511573 3.2836157e-05 1.029209e-19)
(0.23632476 2.3849233e-05 4.1197178e-20)
(0.21642059 1.4302781e-05 3.2384386e-20)
(0.18214448 5.4889484e-06 1.7838988e-19)
(0.30293048 1.2606709e-05 2.2865477e-18)
(0.29901529 2.6252568e-05 -6.9817746e-19)
(0.29206922 3.8507622e-05 -8.5353181e-19)
(0.28358875 4.558942e-05 7.0695677e-19)
(0.27405095 4.645166e-05 6.4417972e-19)
(0.2634222 4.2266701e-05 6.0913908e-19)
(0.25126272 3.4472181e-05 1.1641882e-19)
(0.23652016 2.454375e-05 -8.0263624e-21)
(0.21667067 1.4505039e-05 6.4207394e-20)
(0.18240111 5.5003361e-06 2.6422018e-20)
(0.30233162 1.6685717e-05 1.4179992e-18)
(0.29848531 3.4600171e-05 4.1065319e-19)
(0.29166293 4.6230716e-05 2.5163704e-19)
(0.28332652 5.1359462e-05 5.4812481e-19)
(0.27393381 5.0194286e-05 8.0104874e-19)
(0.26343754 4.4377672e-05 6.3299837e-19)
(0.25138894 3.5452082e-05 2.0347419e-19)
(0.23672934 2.4852974e-05 -5.6293493e-20)
(0.2169274 1.4511436e-05 2.456497e-20)
(0.18265841 5.4467321e-06 -2.4883347e-21)
(0.30159324 1.9181483e-05 7.2195563e-19)
(0.29787658 4.0083344e-05 3.0556611e-18)
(0.29123635 5.1326071e-05 3.6406828e-19)
(0.28307384 5.5101774e-05 5.3673955e-21)
(0.27383648 5.2476714e-05 -7.8228692e-19)
(0.26347281 4.5485575e-05 -2.3116609e-19)
(0.25153052 3.5777867e-05 -3.9175237e-19)
(0.23694749 2.4768921e-05 -1.6259259e-19)
(0.21718659 1.431296e-05 -1.2366822e-19)
(0.18291288 5.3233278e-06 -9.4796412e-20)
(0.30077407 2.0343438e-05 1.2998247e-18)
(0.29721994 4.3028822e-05 4.8166873e-19)
(0.29079789 5.4062162e-05 -1.5559206e-19)
(0.28282963 5.6973711e-05 -1.0776293e-18)
(0.2737546 5.3381222e-05 -1.2039307e-18)
(0.26352281 4.5626217e-05 -6.8655588e-19)
(0.25168237 3.5458994e-05 -3.1930054e-19)
(0.23716991 2.4289394e-05 -1.4345015e-19)
(0.217444 1.3904694e-05 -5.0149107e-20)
(0.18316088 5.1271709e-06 -7.2290247e-20)
(0.29992224 2.0483543e-05 -3.5847968e-18)
(0.29654263 4.3898403e-05 -3.3871691e-18)
(0.29035627 5.47799e-05 -1.2700846e-18)
(0.28259385 5.7180981e-05 -2.7769215e-18)
(0.27368475 5.3023391e-05 -1.1929409e-18)
(0.26358307 4.4859443e-05 -1.2600388e-18)
(0.25183983 3.4523051e-05 -1.1232648e-20)
(0.23739211 2.3425443e-05 -2.7887292e-20)
(0.21769543 1.3290152e-05 9.847622e-20)
(0.18339876 4.8588386e-06 1.202375e-19)
(0.29907426 1.9896755e-05 1.9992682e-18)
(0.29586748 4.3179253e-05 1.1439176e-19)
(0.28992023 5.3854896e-05 1.7292804e-19)
(0.28236751 5.5969232e-05 8.2402212e-19)
(0.27362456 5.1554391e-05 1.3584115e-18)
(0.26364989 4.3274944e-05 6.020347e-19)
(0.25199879 3.3021653e-05 1.4647201e-19)
(0.23760991 2.220584e-05 1.0186349e-19)
(0.21793687 1.2483971e-05 7.5638572e-20)
(0.18362301 4.5234812e-06 2.6790581e-20)
(0.29825618 1.8826327e-05 4.3188401e-19)
(0.29521265 4.1316583e-05 1.6820377e-19)
(0.28949799 5.1661887e-05 2.5809312e-19)
(0.28215236 5.3606569e-05 7.4742148e-19)
(0.27357256 4.9153993e-05 8.3355358e-19)
(0.26372035 4.0990314e-05 7.4957475e-19)
(0.25215571 3.1030435e-05 1.4869626e-19)
(0.23781959 2.0677473e-05 1.7454738e-20)
(0.21816471 1.1512156e-05 2.1506148e-21)
(0.18383052 4.1308102e-06 3.1200282e-20)
(0.29748545 1.7458045e-05 1.426572e-19)
(0.29459168 3.8683841e-05 1.8566899e-18)
(0.2890967 4.8547892e-05 6.2560702e-20)
(0.28195053 5.036392e-05 2.462627e-19)
(0.27352798 4.6018339e-05 -1.0427863e-18)
(0.26379222 3.8143588e-05 -6.0315961e-19)
(0.25230768 2.864437e-05 -4.1357158e-19)
(0.23801801 1.8902344e-05 -9.5619638e-20)
(0.21837593 1.0410302e-05 -8.3965617e-20)
(0.18401877 3.6943246e-06 -8.3814471e-20)
(0.29677292 1.5927492e-05 1.9473105e-18)
(0.29401396 3.5577173e-05 2.1854063e-18)
(0.28872209 4.481604e-05 2.7802271e-19)
(0.28176412 4.6497881e-05 6.4083402e-19)
(0.27349054 4.2346078e-05 -4.3747137e-19)
(0.26386387 3.4882723e-05 -6.5728169e-19)
(0.2524524 2.5969967e-05 -3.0126212e-19)
(0.23820264 1.6952093e-05 -1.7354935e-19)
(0.21856817 9.2202591e-06 -5.8423118e-20)
(0.18418595 3.2299435e-06 -6.0956762e-20)
(0.29612449 1.4330761e-05 -1.242011e-18)
(0.2934854 3.2222246e-05 -1.6998691e-18)
(0.28837834 4.071884e-05 -8.4357591e-19)
(0.2815949 4.2238374e-05 -1.9626713e-18)
(0.27346017 3.8325834e-05 -8.2636491e-19)
(0.26393413 3.1354609e-05 -5.4712662e-19)
(0.25258814 2.3116318e-05 -1.5129506e-19)
(0.23837164 1.4901348e-05 -2.4990545e-19)
(0.21873986 7.98594e-06 -7.244454e-20)
(0.18433109 2.7543099e-06 9.5751621e-20)
(0.29554248 1.2734559e-05 2.1434619e-18)
(0.29300905 2.8785856e-05 1.2006664e-19)
(0.28806808 3.6458472e-05 2.006925e-19)
(0.28144414 3.7781887e-05 3.7022252e-19)
(0.27343686 3.4127059e-05 8.1947427e-19)
(0.26400215 2.7695959e-05 8.7707065e-19)
(0.25271369 2.0187187e-05 2.8924353e-19)
(0.23852382 1.2821712e-05 1.4004389e-19)
(0.21889018 6.7495388e-06 -2.2225794e-20)
(0.18445398 2.2833401e-06 -4.7915042e-20)
(0.29502662 1.1184129e-05 -3.2407754e-19)
(0.29258576 2.5387805e-05 7.8647353e-19)
(0.28779257 3.2190981e-05 7.666851e-19)
(0.28131252 3.3289118e-05 1.4790371e-18)
(0.27342051 2.9894367e-05 1.0486119e-18)
(0.26406733 2.4026676e-05 6.6088204e-19)
(0.25282826 1.7274798e-05 5.1789814e-19)
(0.23865857 1.0776841e-05 3.1185775e-19)
(0.21901905 5.5482996e-06 1.0410168e-19)
(0.18455516 1.8309358e-06 3.2681784e-20)
(0.29457493 9.7092924e-06 2.0228168e-18)
(0.29221472 2.2111599e-05 3.6895094e-18)
(0.28755189 2.8032601e-05 9.9817602e-19)
(0.28120013 2.8886188e-05 8.5430255e-19)
(0.2734109 2.5745461e-05 2.2056946e-19)
(0.26412921 2.0446373e-05 3.531269e-20)
(0.25293145 1.4456202e-05 -3.0818913e-19)
(0.23877584 8.8194909e-06 -3.4204047e-20)
(0.21912697 4.412596e-06 -3.7577669e-20)
(0.18463571 1.4082492e-06 1.1205189e-20)
(0.2941842 8.3287919e-06 4.8446843e-18)
(0.29189392 1.9013215e-05 3.0791583e-18)
(0.28734518 2.4066534e-05 1.9768677e-18)
(0.28110651 2.4667894e-05 2.9269111e-18)
(0.27340762 2.1771624e-05 2.2539296e-18)
(0.26418744 1.7033378e-05 1.4949598e-18)
(0.25302315 1.1791833e-05 3.0370756e-19)
(0.23887599 6.9902676e-06 6.0763837e-20)
(0.21921495 3.3650998e-06 -7.0464644e-20)
(0.18469721 1.0233492e-06 -1.2921235e-19)
(0.29385046 7.0534585e-06 2.6389426e-18)
(0.29162054 1.6128076e-05 3.5649364e-19)
(0.28717088 2.034944e-05 3.6273023e-18)
(0.28103081 2.0702033e-05 2.879778e-18)
(0.27341012 1.8039951e-05 2.1593645e-18)
(0.26424177 1.3845658e-05 2.1019795e-18)
(0.25310352 9.3258273e-06 1.4858796e-18)
(0.23895977 5.3178003e-06 7.5351738e-19)
(0.21928438 2.4209218e-06 5.0430225e-19)
(0.18474148 6.8128008e-07 1.5145899e-19)
(0.29356932 5.8884863e-06 1.7904288e-18)
(0.29139119 1.3476429e-05 3.0260863e-18)
(0.28702691 1.6917149e-05 3.7125816e-18)
(0.28097179 1.7033956e-05 3.0074412e-18)
(0.27341773 1.4596457e-05 2.6110398e-18)
(0.264292 1.0922876e-05 1.9075001e-18)
(0.25317293 7.0874759e-06 1.4729148e-18)
(0.2390282 3.8198702e-06 1.0178285e-18)
(0.21933693 1.5884357e-06 7.9374298e-19)
(0.18477055 3.8442474e-07 3.9743822e-19)
(0.29333614 4.8350918e-06 1.1352213e-18)
(0.29120221 1.1067484e-05 3.1533576e-18)
(0.28691083 1.3789551e-05 4.1416631e-18)
(0.280928 1.3691005e-05 4.9770562e-18)
(0.2734297 1.1469637e-05 3.6796525e-18)
(0.26433799 8.2891777e-06 1.7850447e-18)
(0.25323189 5.0934881e-06 1.4295495e-18)
(0.23908247 2.5052513e-06 1.0598256e-18)
(0.21937438 8.7066307e-07 8.6465721e-19)
(0.1847865 1.3312801e-07 5.8523723e-19)
(0.29314626 3.8916592e-06 2.1234888e-18)
(0.29104975 8.9023881e-06 2.1550199e-18)
(0.28682002 1.097434e-05 3.5011179e-18)
(0.28089784 1.0686142e-05 3.4953438e-18)
(0.27344523 8.6735075e-06 2.9928815e-18)
(0.26437967 5.9556024e-06 1.9655356e-18)
(0.25328103 3.3496893e-06 1.5809635e-18)
(0.23912392 1.3746747e-06 1.2098906e-18)
(0.21939863 2.7134647e-07 7.9039636e-19)
(0.1847914 -6.9861185e-08 5.8746373e-19)
(0.29299507 3.0544411e-06 1.1648741e-18)
(0.29092997 6.9761203e-06 1.0961257e-18)
(0.28675176 8.4694792e-06 9.4722409e-19)
(0.28087963 8.0203368e-06 1.2270233e-18)
(0.27346351 6.2095328e-06 2.5052086e-18)
(0.26441701 3.9215615e-06 1.93216e-18)
(0.25332108 1.8530159e-06 1.6124569e-18)
(0.23915391 4.279699e-07 1.1870743e-18)
(0.21941121 -2.1436905e-07 6.5544331e-19)
(0.18478763 -2.2861568e-07 4.5462396e-19)
(0.29287812 2.3182857e-06 1.9366647e-18)
(0.2908391 5.279402e-06 2.8330188e-18)
(0.28670334 6.2659339e-06 2.5623207e-18)
(0.28087169 5.6857052e-06 1.4805512e-18)
(0.27348376 4.0699695e-06 6.1994358e-19)
(0.26445004 2.1789761e-06 1.7250279e-18)
(0.25335274 5.9885555e-07 1.6213352e-18)
(0.23917354 -3.437792e-07 1.4011003e-18)
(0.21941457 -6.0466704e-07 1.2194856e-18)
(0.18477673 -3.5413392e-07 7.7227266e-19)
(0.29279118 1.6772252e-06 1.5753395e-18)
(0.29077352 3.8003219e-06 3.2390764e-18)
(0.28667214 4.3501603e-06 2.2766278e-18)
(0.28087239 3.6687104e-06 1.7888379e-18)
(0.27350526 2.2420978e-06 1.0306569e-18)
(0.26447879 7.186562e-07 1.9506397e-18)
(0.25337659 -4.2722283e-07 1.7078822e-18)
(0.23918482 -9.6363229e-07 1.5687649e-18)
(0.21941031 -9.1333507e-07 1.3883841e-18)
(0.18476018 -4.5115575e-07 1.0088771e-18)
(0.29273026 1.1248622e-06 2.1480249e-18)
(0.29072979 2.5253546e-06 2.1516004e-18)
(0.28665563 2.7057775e-06 3.4612741e-18)
(0.28088016 1.95293e-06 4.0123265e-18)
(0.27352727 7.1259163e-07 3.515454e-18)
(0.26450319 -4.7830074e-07 1.8629189e-18)
(0.25339399 -1.2532089e-06 1.6212469e-18)
(0.23918901 -1.4511139e-06 1.4446937e-18)
(0.21939987 -1.1471002e-06 1.3605904e-18)
(0.18473937 -5.2135359e-07 1.1555183e-18)
(0.29269166 6.5460599e-07 1.1522706e-18)
(0.2907047 1.4403577e-06 2.0463158e-18)
(0.28665142 1.3162019e-06 3.0368261e-18)
(0.2808935 5.2247338e-07 2.9843049e-18)
(0.27354905 -5.4108038e-07 3.2033938e-18)
(0.26452391 -1.4434228e-06 2.0793357e-18)
(0.25340576 -1.9035376e-06 1.7327638e-18)
(0.23918729 -1.8193151e-06 1.3975814e-18)
(0.2193846 -1.3130073e-06 1.2742265e-18)
(0.18471553 -5.6723861e-07 1.0635452e-18)
(0.29267193 2.6033575e-07 -8.5488946e-19)
(0.29069525 5.3229344e-07 1.2889992e-18)
(0.28665725 1.6411507e-07 -5.0819175e-20)
(0.28091096 -6.4820854e-07 7.0896512e-19)
(0.27357052 -1.5525294e-06 1.6977826e-18)
(0.26454118 -2.2043965e-06 2.1940325e-18)
(0.25341264 -2.3960981e-06 1.9321247e-18)
(0.23918073 -2.0810505e-06 1.6238472e-18)
(0.2193657 -1.4194294e-06 1.1898776e-18)
(0.18468975 -5.920485e-07 8.7710576e-19)
(0.29266788 -6.4450886e-08 2.2952236e-18)
(0.29069863 -2.1469333e-07 1.5829073e-18)
(0.28667111 -7.7562775e-07 2.511186e-18)
(0.28093167 -1.5918856e-06 1.5665181e-18)
(0.27359127 -2.3503134e-06 7.8982501e-19)
(0.26455525 -2.7823258e-06 1.7162945e-18)
(0.25341532 -2.7483645e-06 1.8044542e-18)
(0.23917034 -2.249971e-06 1.784899e-18)
(0.21934423 -1.4751315e-06 1.54861e-18)
(0.18466297 -5.991958e-07 1.1293541e-18)
(0.29267665 -3.2776475e-07 2.4900063e-18)
(0.29071241 -8.1980948e-07 2.2026852e-18)
(0.28669134 -1.5294628e-06 1.8868531e-18)
(0.28095459 -2.3339492e-06 1.6131012e-18)
(0.27361099 -2.9565456e-06 1.5299645e-18)
(0.26456636 -3.1978228e-06 1.8531137e-18)
(0.2534145 -2.978354e-06 1.7971618e-18)
(0.23915702 -2.3396542e-06 1.6348449e-18)
(0.21932113 -1.4884904e-06 1.4167003e-18)
(0.18463594 -5.9189428e-07 1.1648288e-18)
(0.29269573 -5.3703791e-07 1.2670787e-18)
(0.29073447 -1.299544e-06 2.4255675e-18)
(0.2867164 -2.1175645e-06 2.2601254e-18)
(0.28097887 -2.895932e-06 1.7683468e-18)
(0.27362943 -3.3932455e-06 1.625619e-18)
(0.26457479 -3.4717653e-06 2.0860662e-18)
(0.25341079 -3.1037698e-06 1.7713217e-18)
(0.23914158 -2.3630579e-06 1.4896705e-18)
(0.21929719 -1.4673352e-06 1.3796898e-18)
(0.18460932 -5.7312486e-07 1.0955092e-18)
(0.29272289 -6.9819481e-07 1.9075015e-18)
(0.29076287 -1.6676371e-06 1.7060404e-18)
(0.28674491 -2.5583241e-06 1.5775372e-18)
(0.28100375 -3.2989376e-06 9.517474e-19)
(0.27364643 -3.6821265e-06 4.9154132e-19)
(0.26458083 -3.6243049e-06 1.1173239e-18)
(0.25340478 -3.1413236e-06 1.5131021e-18)
(0.23912471 -2.3321545e-06 1.5171242e-18)
(0.21927306 -1.4187324e-06 1.4352512e-18)
(0.18458359 -5.4551079e-07 1.1916643e-18)
(0.29275615 -8.1688846e-07 2.1994128e-18)
(0.29079592 -1.9371736e-06 2.7616503e-18)
(0.28677568 -2.8695618e-06 3.2873684e-18)
(0.2810286 -3.5634889e-06 1.5235717e-18)
(0.27366187 -3.8440698e-06 2.0679064e-18)
(0.26458475 -3.6745198e-06 6.1469588e-19)
(0.253397 -3.1065696e-06 1.3645908e-18)
(0.23910703 -2.2578939e-06 1.5412442e-18)
(0.2192493 -1.3490483e-06 1.3635882e-18)
(0.18455913 -5.1139423e-07 1.2134675e-18)
(0.29279377 -8.9842716e-07 1.7265004e-18)
(0.29083215 -2.1205474e-06 3.6519275e-18)
(0.28680769 -3.0682677e-06 5.3263511e-18)
(0.28105292 -3.709073e-06 3.4324781e-18)
(0.27367569 -3.8986744e-06 2.3803472e-18)
(0.26458684 -3.6400419e-06 1.9952852e-18)
(0.25338792 -3.0136205e-06 1.5605849e-18)
(0.23908904 -2.1500015e-06 1.5138783e-18)
(0.21922632 -1.2638015e-06 1.5943452e-18)
(0.18453623 -4.7275309e-07 1.229999e-18)
(0.29283424 -9.4783929e-07 -4.7847998e-19)
(0.29087025 -2.2295051e-06 1.2212726e-18)
(0.28684006 -3.1705323e-06 -1.1687595e-19)
(0.28107628 -3.7540233e-06 2.4653713e-18)
(0.27368789 -3.8641718e-06 2.3096153e-18)
(0.26458738 -3.53703e-06 2.6157524e-18)
(0.25337795 -2.875184e-06 1.7703747e-18)
(0.23907117 -2.0170762e-06 1.523082e-18)
(0.21920447 -1.1677986e-06 1.3563783e-18)
(0.18451508 -4.3130929e-07 1.1629168e-18)
(0.29287625 -9.6980498e-07 6.877912e-19)
(0.29090915 -2.2750188e-06 1.1941554e-18)
(0.28687207 -3.1913585e-06 4.1355444e-19)
(0.28109837 -3.7153075e-06 1.3111437e-18)
(0.2736985 -3.7572283e-06 2.0709693e-18)
(0.26458662 -3.3800179e-06 2.1546269e-18)
(0.25336745 -2.7024714e-06 1.8848298e-18)
(0.23905378 -1.866532e-06 1.7472786e-18)
(0.219184 -1.065068e-06 1.4402186e-18)
(0.1844958 -3.8846872e-07 1.1949675e-18)
(0.2929187 -9.6870704e-07 1.4193244e-18)
(0.29094793 -2.2673332e-06 1.0119205e-18)
(0.28690314 -3.1446823e-06 4.9695018e-19)
(0.28111897 -3.6085505e-06 8.2263499e-19)
(0.27370757 -3.5930076e-06 4.859949e-19)
(0.2645848 -3.182033e-06 1.4703436e-18)
(0.25335674 -2.5053604e-06 1.7593524e-18)
(0.23903713 -1.7047852e-06 1.6650679e-18)
(0.21916507 -9.5903405e-07 1.5430658e-18)
(0.18447844 -3.4541646e-07 1.2722161e-18)
(0.29296066 -9.4856352e-07 1.643123e-18)
(0.29098582 -2.2158634e-06 1.7413327e-18)
(0.28693281 -3.0432567e-06 3.8236151e-18)
(0.28113791 -3.4479194e-06 2.5781044e-18)
(0.27371518 -3.3850737e-06 2.3359257e-18)
(0.26458216 -2.9545341e-06 9.0748836e-19)
(0.25334607 -2.292373e-06 1.5471185e-18)
(0.23902144 -1.5372451e-06 1.4022707e-18)
(0.21914781 -8.5249209e-07 1.215659e-18)
(0.18446302 -3.0307202e-07 1.1690424e-18)
(0.2930014 -9.1307961e-07 1.6846017e-18)
(0.29102224 -2.1292501e-06 3.1315694e-18)
(0.28696072 -2.8986958e-06 4.9789995e-18)
(0.28115509 -3.2461782e-06 3.3260001e-18)
(0.27372145 -3.1454832e-06 2.5275133e-18)
(0.26457888 -2.7075455e-06 2.0639057e-18)
(0.25333565 -2.0708332e-06 1.7472744e-18)
(0.23900685 -1.3684797e-06 1.7204186e-18)
(0.21913226 -7.4777091e-07 1.6102738e-18)
(0.1844495 -2.6219395e-07 1.2707438e-18)
(0.2930403 -8.6558917e-07 5.0387086e-20)
(0.2910567 -2.0152764e-06 1.9912635e-18)
(0.28698661 -2.7213902e-06 -7.2210378e-19)
(0.28117049 -3.0146113e-06 1.3907953e-18)
(0.27372647 -2.8847197e-06 1.9724487e-18)
(0.26457515 -2.4496095e-06 2.4716425e-18)
(0.25332566 -1.8468359e-06 1.8413762e-18)
(0.23899346 -1.2021821e-06 1.7857995e-18)
(0.21911842 -6.4669118e-07 1.574959e-18)
(0.18443781 -2.233463e-07 1.2843801e-18)
(0.29307692 -8.0909796e-07 4.241968e-19)
(0.29108886 -1.8809241e-06 1.1630224e-18)
(0.28701033 -2.5205675e-06 4.5960217e-19)
(0.2811841 -2.7631023e-06 9.6706971e-19)
(0.27373037 -2.6118074e-06 1.6488976e-18)
(0.26457113 -2.1879238e-06 1.841462e-18)
(0.25331622 -1.6253882e-06 1.718621e-18)
(0.23898134 -1.0413036e-06 1.5573877e-18)
(0.21910629 -5.5067015e-07 1.5532518e-18)
(0.18442785 -1.869633e-07 1.2954942e-18)
(0.29311093 -7.4625331e-07 2.7137504e-18)
(0.29111848 -1.7323402e-06 1.3637326e-18)
(0.28703177 -2.3042759e-06 1.5270776e-18)
(0.28119597 -2.5001415e-06 1.0307153e-18)
(0.27373328 -2.334339e-06 5.6265762e-19)
(0.26456696 -1.9283868e-06 1.5280156e-18)
(0.25330742 -1.4104552e-06 1.6980836e-18)
(0.2389705 -8.8807209e-07 1.6266645e-18)
(0.21909579 -4.6070472e-07 1.634442e-18)
(0.18441953 -1.5332425e-07 1.3232851e-18)
(0.29314209 -6.7939278e-07 1.5928668e-18)
(0.29114541 -1.5749195e-06 2.1493748e-18)
(0.28705091 -2.0794952e-06 3.5256784e-18)
(0.28120616 -2.2329777e-06 1.8389324e-18)
(0.2737353 -2.058668e-06 2.3098607e-18)
(0.26456274 -1.6758079e-06 1.1765356e-18)
(0.25329934 -1.2051614e-06 1.6308923e-18)
(0.23896094 -7.4416084e-07 1.5818217e-18)
(0.21908685 -3.7748967e-07 1.2820172e-18)
(0.18441271 -1.2261109e-07 1.191239e-18)
(0.29317027 -6.1053099e-07 -7.0574312e-19)
(0.29116958 -1.4133083e-06 1.4431207e-18)
(0.28706775 -1.8521735e-06 4.3959542e-18)
(0.28121476 -1.9676822e-06 3.1341893e-18)
(0.27373656 -1.7899932e-06 2.3803829e-18)
(0.26455857 -1.4340034e-06 2.2345218e-18)
(0.25329201 -1.011879e-06 1.8008476e-18)
(0.23895263 -6.1075109e-07 1.5960859e-18)
(0.21907938 -3.0144409e-07 1.505173e-18)
(0.18440726 -9.4900628e-08 1.2126859e-18)
(0.29319543 -5.4139975e-07 2.0565375e-18)
(0.29119097 -1.2514794e-06 1.5002078e-18)
(0.28708237 -1.6273331e-06 3.6731732e-19)
(0.28122188 -1.7092929e-06 1.9332091e-18)
(0.27373716 -1.5325279e-06 2.0685633e-18)
(0.26455454 -1.2059693e-06 2.5187792e-18)
(0.25328545 -8.3238842e-07 1.9455072e-18)
(0.2389455 -4.8866275e-07 1.7015921e-18)
(0.21907325 -2.3280612e-07 1.6052123e-18)
(0.18440306 -7.0206613e-08 1.2706948e-18)
(0.2932176 -4.7343917e-07 1.6039916e-18)
(0.29120965 -1.0927385e-06 1.3962593e-18)
(0.28709487 -1.4091e-06 1.685578e-19)
(0.28122764 -1.4618568e-06 7.1691309e-19)
(0.27373722 -1.2895502e-06 1.4902912e-18)
(0.26455069 -9.9392865e-07 1.7362605e-18)
(0.25327966 -6.6791031e-07 1.9832219e-18)
(0.2389395 -3.7837377e-07 1.8481372e-18)
(0.21906837 -1.7164358e-07 1.7415864e-18)
(0.18439997 -4.847976e-08 1.4217015e-18)
(0.29323684 -4.0782466e-07 1.4480272e-18)
(0.29122572 -9.3977362e-07 1.5583036e-18)
(0.28710535 -1.2007702e-06 9.2212703e-19)
(0.28123217 -1.2285143e-06 1.390338e-18)
(0.27373683 -1.0634918e-06 7.6256927e-19)
(0.26454708 -7.9941366e-07 1.1829858e-18)
(0.25327461 -5.1917256e-07 1.6431705e-18)
(0.23893455 -2.8006549e-07 1.7739161e-18)
(0.2190646 -1.1788765e-07 1.7171818e-18)
(0.18439785 -2.9627445e-08 1.4538169e-18)
(0.29325328 -3.4547984e-07 1.7746294e-18)
(0.29123931 -7.9468519e-07 2.8764751e-18)
(0.28711398 -1.0048533e-06 4.3460463e-18)
(0.28123559 -1.0115491e-06 2.6281528e-18)
(0.27373608 -8.5598426e-07 2.7200077e-18)
(0.26454375 -6.2329838e-07 1.1550887e-18)
(0.25327028 -3.8642891e-07 1.5233271e-18)
(0.23893056 -1.936313e-07 1.7836996e-18)
(0.21906183 -7.1341283e-08 1.4879061e-18)