/*--------------------------------*- C++ -*----------------------------------*\
| =========                 |                                                 |
| \\      /  F ield         | OpenFOAM: The Open Source CFD Toolbox           |
|  \\    /   O peration     | Version:  2506                                  |
|   \\  /    A nd           | Website:  www.openfoam.com                      |
|    \\/     M anipulation  |                                                 |
\*---------------------------------------------------------------------------*/
FoamFile
{
    version     2.0;
    format      ascii;
    arch        "LSB;label=32;scalar=64";
    class       volScalarField;
    location    "29000/water";
    object      alphat;
}
// * * * * * * * * * * * * * * * * * * * * * * * * * * * * * * * * * * * * * //

dimensions      [1 -1 -1 0 0 0 0];

internalField   nonuniform List<scalar> 
1000
(
0.038690245
0.038689577
0.038688046
0.038679676
0.038634252
0.038395956
0.037190881
0.031863289
0.019099263
0.016301307
0.036437656
0.036436968
0.036430539
0.036397696
0.036243742
0.035561449
0.032798675
0.024476366
0.014644262
0.017654592
0.034756095
0.034752687
0.034735392
0.034658264
0.034338315
0.033096039
0.028914303
0.020078469
0.014287338
0.017671293
0.033455039
0.033447371
0.03341324
0.033276591
0.032760733
0.030940111
0.025769924
0.018272039
0.015952028
0.017301529
0.032418332
0.032405139
0.032350678
0.032150527
0.031437443
0.029070453
0.023556388
0.018636238
0.018861828
0.016925718
0.031571667
0.031552637
0.031479594
0.031226156
0.030328107
0.027485299
0.02255529
0.020803969
0.022279032
0.016666262
0.030866455
0.030843487
0.030761487
0.030477905
0.029401953
0.026291951
0.023061605
0.024243754
0.02554128
0.016525214
0.03027085
0.030249443
0.030178136
0.029894398
0.028644025
0.025786908
0.025138013
0.028280328
0.028304927
0.01646321
0.029764732
0.029755535
0.029725648
0.029468542
0.028106817
0.026356769
0.028508206
0.032334629
0.030519324
0.016442692
0.029337064
0.029357533
0.029409773
0.029196711
0.027980921
0.028237256
0.032681381
0.036080941
0.032267767
0.016440716
0.028984758
0.029060656
0.029241394
0.029099679
0.028583539
0.031375068
0.03716487
0.039413874
0.033659321
0.016446412
0.028712559
0.02887874
0.029233268
0.029270557
0.030215353
0.035478534
0.041608782
0.042341718
0.034787838
0.016455616
0.02853366
0.028833147
0.029403563
0.029913174
0.033002755
0.040161308
0.045828078
0.044910614
0.035723437
0.016467076
0.028470763
0.02895105
0.029795868
0.03130398
0.036852066
0.045075296
0.049751494
0.047172312
0.036515402
0.016480527
0.028557163
0.029264165
0.030516301
0.033675944
0.041511834
0.04997686
0.053365631
0.049173979
0.037197793
0.016495912
0.028837326
0.029812481
0.03175771
0.0371141
0.046676102
0.054725839
0.056681652
0.050955449
0.0377937
0.016513133
0.029366692
0.030660762
0.033764749
0.041531182
0.05207091
0.059252763
0.05971955
0.05254782
0.038312945
0.016531934
0.030212372
0.03192835
0.036742104
0.046714749
0.057495303
0.0635273
0.062500797
0.053971639
0.038771805
0.016552026
0.031460516
0.033808392
0.040769556
0.05240353
0.062820588
0.067538939
0.065043997
0.05525009
0.039180883
0.016573208
0.033237332
0.036537977
0.045775867
0.058353964
0.067969976
0.071287075
0.067367629
0.056402532
0.039547911
0.016595313
0.035735171
0.040316818
0.05157132
0.064374889
0.072897479
0.074772537
0.069492165
0.057443771
0.039878862
0.016618163
0.039205915
0.045225064
0.057909452
0.070330221
0.077571175
0.078005379
0.071434579
0.058385776
0.040178116
0.016641571
0.04388777
0.05118995
0.064545143
0.076123183
0.081973034
0.080996638
0.073208579
0.059237911
0.040448824
0.016665339
0.049891553
0.058008946
0.071267352
0.081682428
0.086094187
0.083754751
0.074824729
0.060007099
0.040693107
0.016689268
0.057119563
0.06540403
0.077905623
0.086957416
0.089927767
0.086285084
0.076290318
0.060698021
0.040912205
0.016713148
0.065267664
0.073076751
0.084333016
0.091910349
0.093465219
0.088589535
0.077609477
0.061313345
0.0411066
0.016736754
0.073906733
0.080754652
0.090454667
0.096507866
0.096696144
0.090666801
0.078783554
0.061854034
0.041276167
0.016759846
0.082593074
0.08820782
0.096194168
0.10072102
0.099609357
0.092513316
0.07981179
0.062319756
0.041420332
0.016782162
0.090954046
0.095254479
0.10149061
0.10452652
0.10219484
0.094124824
0.080692372
0.062709466
0.0415383
0.016803422
0.098726003
0.10176173
0.10629861
0.10790851
0.10444603
0.095498302
0.081423738
0.063022145
0.041629347
0.016823341
0.10575293
0.10764341
0.11058917
0.11086011
0.10636186
0.096633825
0.082005947
0.063257605
0.041693143
0.016841649
0.11196519
0.11285525
0.11435007
0.11338422
0.10794801
0.097535948
0.082441801
0.063417181
0.041730031
0.01685811
0.11735402
0.11738775
0.11758496
0.11549331
0.10921726
0.098214348
0.082737491
0.063504167
0.041741201
0.016872548
0.12194959
0.12125807
0.12031135
0.11720835
0.11018886
0.098683689
0.082902687
0.063523926
0.041728731
0.016884859
0.12580492
0.12450218
0.12255787
0.11855719
0.11088734
0.098962854
0.082950125
0.063483676
0.041695477
0.016895017
0.12898491
0.12716813
0.12436119
0.11957263
0.111341
0.099073796
0.082894847
0.063392044
0.041644873
0.016903076
0.13155937
0.12931063
0.12576307
0.12029046
0.11158025
0.099040249
0.082753262
0.063258488
0.04158067
0.016909153
0.1335985
0.13098708
0.12680778
0.12074772
0.11163618
0.098886474
0.0825422
0.063092694
0.041506668
0.016913419
0.13517024
0.13225472
0.12754004
0.12098125
0.11153931
0.098636201
0.082278079
0.062904038
0.041426481
0.016916077
0.13633859
0.13316864
0.12800344
0.12102653
0.11131869
0.098311806
0.081976254
0.062701166
0.041343365
0.016917348
0.13716275
0.13378067
0.12823934
0.12091692
0.1110012
0.097933754
0.081650576
0.062491729
0.04126011
0.016917457
0.1376967
0.13413856
0.12828618
0.12068313
0.11061121
0.097520273
0.081313139
0.062282229
0.041179001
0.016916623
0.13798906
0.13428574
0.12817908
0.12035296
0.11017034
0.097087193
0.080974178
0.062077986
0.041101821
0.016915048
0.13808322
0.13426115
0.12794961
0.11995111
0.10969742
0.09664792
0.08064207
0.061883157
0.04102987
0.016912919
0.13801745
0.13409932
0.12762578
0.11949919
0.10920849
0.09621345
0.080323306
0.061700544
0.040962941
0.016910383
0.13782525
0.13383054
0.12723209
0.11901579
0.10871686
0.095792443
0.080022484
0.061531208
0.040902162
0.016907569
0.13753567
0.13348106
0.12678965
0.11851656
0.10823326
0.09539128
0.079742088
0.06137719
0.040847981
0.016904599
0.13717363
0.13307342
0.12631641
0.1180144
0.10776595
0.095014012
0.079485158
0.061239223
0.040800523
0.016901578
0.1367604
0.13262678
0.1258274
0.11751964
0.10732076
0.094664853
0.079253083
0.061117485
0.040759683
0.016898586
0.13631389
0.13215718
0.12533482
0.11704018
0.10690338
0.094346205
0.079046404
0.061011742
0.04072519
0.016895687
0.13584899
0.13167776
0.12484878
0.11658343
0.10651757
0.094059356
0.078865016
0.060921439
0.040696673
0.016892931
0.13537806
0.13119976
0.12437813
0.11615476
0.10616576
0.093804682
0.078708274
0.060845766
0.040673684
0.016890352
0.13491162
0.13073262
0.12392974
0.11575799
0.10584918
0.093581775
0.078575081
0.060783709
0.040655718
0.016887976
0.13445821
0.13028382
0.12350873
0.11539555
0.10556806
0.093389565
0.078463975
0.060734099
0.040642232
0.016885816
0.13402459
0.12985909
0.12311871
0.11506865
0.10532179
0.093226466
0.07837323
0.060695671
0.040632663
0.016883879
0.13361583
0.12946259
0.12276194
0.11477752
0.10510909
0.093090524
0.078300974
0.060667133
0.040626459
0.016882162
0.1332356
0.12909715
0.12243961
0.11452161
0.10492823
0.092979575
0.078245288
0.060647227
0.040623104
0.016880659
0.13288635
0.12876449
0.12215203
0.11429978
0.10477715
0.092891363
0.078204293
0.06063477
0.040622132
0.016879361
0.13256949
0.12846542
0.1218988
0.11411046
0.10465361
0.092823615
0.078176182
0.060628672
0.040623132
0.016878257
0.13228564
0.12820001
0.12167896
0.11395175
0.10455526
0.092774083
0.078159238
0.060627927
0.040625738
0.016877335
0.13203469
0.12796767
0.12149111
0.11382149
0.10447966
0.092740552
0.078151826
0.060631604
0.04062962
0.016876582
0.13181591
0.1277673
0.12133342
0.11371732
0.10442433
0.092720862
0.078152396
0.060638837
0.040634471
0.016875983
0.13162809
0.12759734
0.12120379
0.11363674
0.10438677
0.092712927
0.078159491
0.060648829
0.040640013
0.016875523
0.13146957
0.12745585
0.12109986
0.11357717
0.10436455
0.092714775
0.078171767
0.060660858
0.040645997
0.016875185
0.13133837
0.12734067
0.12101918
0.11353606
0.10435536
0.092724587
0.07818802
0.060674297
0.040652212
0.016874955
0.13123232
0.12724946
0.12095924
0.11351094
0.10435704
0.092740722
0.078207194
0.060688612
0.040658487
0.016874817
0.13114911
0.12717984
0.12091758
0.11349948
0.10436761
0.092761724
0.078228382
0.060703359
0.040664688
0.016874757
0.13108641
0.12712939
0.12089182
0.1134995
0.1043853
0.092786316
0.078250809
0.060718176
0.040670709
0.016874764
0.13104188
0.12709579
0.12087968
0.11350898
0.10440849
0.092813377
0.078273816
0.060732763
0.04067647
0.016874825
0.13101324
0.12707675
0.12087901
0.11352605
0.10443576
0.092841926
0.07829684
0.06074687
0.040681902
0.016874929
0.13099828
0.12707009
0.12088781
0.11354903
0.1044658
0.092871113
0.078319406
0.060760293
0.040686954
0.016875068
0.13099488
0.12707376
0.12090419
0.11357637
0.10449751
0.092900213
0.078341119
0.060772861
0.040691538
0.016875232
0.13100105
0.12708584
0.12092647
0.11360672
0.10452991
0.092928625
0.078361662
0.060784415
0.04069563
0.016875411
0.13101495
0.12710456
0.1209531
0.11363891
0.1045622
0.092955866
0.078380775
0.060794887
0.040699252
0.016875598
0.13103491
0.12712835
0.12098277
0.11367194
0.10459371
0.092981551
0.078398305
0.060804277
0.040702421
0.01687579
0.13105945
0.12715582
0.12101433
0.11370496
0.10462392
0.09300541
0.078414205
0.060812593
0.040705163
0.01687598
0.13108725
0.12718575
0.12104677
0.11373728
0.10465242
0.093027316
0.078428452
0.060819869
0.040707506
0.016876167
0.13111717
0.1272171
0.12107926
0.11376836
0.10467897
0.093047182
0.078441059
0.060826151
0.040709479
0.016876347
0.13114822
0.12724893
0.12111113
0.11379779
0.10470337
0.093064971
0.078452069
0.060831495
0.040711112
0.016876518
0.13117954
0.12728053
0.12114183
0.11382528
0.10472551
0.09308069
0.078461543
0.06083596
0.040712433
0.016876679
0.13121044
0.12731128
0.12117095
0.1138506
0.10474534
0.093094385
0.07846956
0.060839613
0.040713471
0.016876827
0.13124036
0.12734071
0.12119817
0.11387362
0.10476286
0.093106131
0.078476212
0.06084252
0.040714253
0.016876962
0.13126885
0.12736843
0.12122326
0.11389427
0.10477811
0.093116031
0.078481605
0.060844754
0.040714808
0.016877084
0.13129557
0.12739417
0.12124609
0.11391254
0.10479119
0.093124212
0.078485853
0.060846389
0.040715163
0.016877192
0.13132029
0.12741776
0.12126657
0.11392848
0.10480221
0.093130818
0.078489077
0.0608475
0.040715348
0.016877286
0.13134287
0.12743911
0.12128473
0.1139422
0.10481134
0.093136003
0.0784914
0.060848163
0.040715391
0.016877367
0.13136323
0.12745818
0.12130062
0.11395382
0.10481873
0.093139926
0.078492945
0.060848448
0.040715319
0.016877436
0.13138138
0.12747502
0.12131434
0.1139635
0.10482456
0.093142746
0.078493827
0.060848423
0.040715156
0.016877494
0.13139735
0.1274897
0.12132601
0.1139714
0.104829
0.093144611
0.078494156
0.060848149
0.040714926
0.016877542
0.13141124
0.12750231
0.12133577
0.11397769
0.10483222
0.09314566
0.078494026
0.06084768
0.040714646
0.01687758
0.13142311
0.12751298
0.12134376
0.11398252
0.10483436
0.093146016
0.078493521
0.060847058
0.040714332
0.01687761
0.13143309
0.12752181
0.12135012
0.11398605
0.10483557
0.093145786
0.078492713
0.060846321
0.040713993
0.016877632
0.13144127
0.12752893
0.121355
0.11398842
0.10483598
0.093145068
0.078491664
0.060845497
0.040713638
0.016877648
0.13144778
0.12753447
0.12135853
0.11398976
0.10483569
0.093143954
0.078490429
0.060844614
0.040713273
0.016877657
0.13145275
0.12753858
0.12136086
0.11399023
0.10483484
0.093142529
0.078489063
0.060843696
0.040712905
0.016877661
0.13145633
0.1275414
0.12136215
0.11398996
0.10483354
0.093140878
0.078487617
0.060842768
0.040712542
0.01687766
0.13145868
0.1275431
0.12136256
0.11398909
0.1048319
0.093139083
0.07848614
0.060841856
0.040712192
0.016877656
0.13145999
0.12754386
0.12136225
0.11398776
0.10483003
0.093137213
0.078484675
0.060840979
0.040711864
0.016877649
0.13146043
0.12754384
0.12136136
0.11398609
0.10482802
0.093135328
0.078483255
0.060840154
0.040711562
0.016877639
0.13146016
0.1275432
0.12136003
0.11398418
0.10482592
0.093133467
0.078481898
0.060839385
0.040711286
0.016877629
)
;

boundaryField
{
    water_inlet
    {
        type            calculated;
        value           uniform 0.041850807;
    }
    water_outlet
    {
        type            calculated;
        value           nonuniform List<scalar> 10(0.13146016 0.1275432 0.12136003 0.11398418 0.10482592 0.093133467 0.078481898 0.060839385 0.040711286 0.016877629);
    }
    water_wedge1
    {
        type            wedge;
    }
    water_wedge2
    {
        type            wedge;
    }
    water_to_rock
    {
        type            compressible::alphatWallFunction;
        value           nonuniform List<scalar> 
100
(
0.0020384971
0.0022594581
0.0022621707
0.0022020356
0.0021407409
0.0020983179
0.0020752197
0.0020650578
0.0020616933
0.0020613685
0.0020623024
0.0020638117
0.0020656908
0.0020678958
0.0020704175
0.0020732401
0.0020763212
0.0020796127
0.0020830822
0.0020867024
0.0020904445
0.0020942774
0.0020981686
0.002102085
0.002105992
0.0021098535
0.0021136302
0.0021172795
0.0021207558
0.0021240126
0.0021270055
0.0021296961
0.0021320556
0.0021340671
0.0021357267
0.0021370431
0.0021380357
0.0021387323
0.0021391663
0.0021393737
0.0021393915
0.0021392553
0.0021389984
0.0021386509
0.0021382369
0.0021377772
0.0021372918
0.0021367977
0.0021363085
0.0021358349
0.0021353848
0.002134964
0.0021345762
0.0021342236
0.0021339069
0.0021336261
0.0021333803
0.0021331681
0.0021329878
0.0021328374
0.0021327146
0.0021326168
0.0021325416
0.0021324864
0.0021324486
0.0021324259
0.0021324161
0.0021324172
0.0021324271
0.0021324442
0.0021324669
0.0021324934
0.0021325225
0.0021325531
0.0021325843
0.0021326155
0.0021326461
0.0021326756
0.0021327036
0.0021327298
0.002132754
0.0021327761
0.002132796
0.0021328136
0.002132829
0.0021328423
0.0021328537
0.0021328632
0.002132871
0.0021328773
0.0021328822
0.0021328857
0.0021328881
0.0021328896
0.0021328901
0.00213289
0.0021328893
0.0021328882
0.0021328867
0.0021328851
)
;
    }
}


// ************************************************************************* //
