/*--------------------------------*- C++ -*----------------------------------*\
| =========                 |                                                 |
| \\      /  F ield         | OpenFOAM: The Open Source CFD Toolbox           |
|  \\    /   O peration     | Version:  2506                                  |
|   \\  /    A nd           | Website:  www.openfoam.com                      |
|    \\/     M anipulation  |                                                 |
\*---------------------------------------------------------------------------*/
FoamFile
{
    version     2.0;
    format      ascii;
    arch        "LSB;label=32;scalar=64";
    class       volScalarField;
    location    "29000/water";
    object      k;
}
// * * * * * * * * * * * * * * * * * * * * * * * * * * * * * * * * * * * * * //

dimensions      [0 2 -2 0 0 0 0];

internalField   nonuniform List<scalar> 
1000
(
0.00017657855
0.00017657518
0.00017657131
0.00017655365
0.00017648098
0.00017625478
0.00017589507
0.00017764177
0.00020514192
0.00048657967
0.00013915035
0.00013915817
0.00013914641
0.00013908743
0.00013888206
0.0001383736
0.00013797747
0.00014325065
0.00019616756
0.00057072179
0.00011343696
0.00011343683
0.00011340783
0.00011329561
0.00011298241
0.0001124902
0.00011342548
0.00012641399
0.00020548411
0.00057180212
9.4956345e-05
9.4947216e-05
9.4898274e-05
9.4747991e-05
9.4461176e-05
9.4591078e-05
9.888241e-05
0.00012463499
0.00023169835
0.00054812309
8.1180941e-05
8.1164581e-05
8.1102165e-05
8.0967051e-05
8.0960056e-05
8.2611653e-05
9.2930015e-05
0.00013695796
0.00027128564
0.0005245696
7.0599818e-05
7.0579371e-05
7.052347e-05
7.0504802e-05
7.1168237e-05
7.5593898e-05
9.5291652e-05
0.00016203322
0.0003158602
0.00050861028
6.2267978e-05
6.2250531e-05
6.2239514e-05
6.2499607e-05
6.4399363e-05
7.330361e-05
0.00010610109
0.00019613469
0.00035649749
0.0005000382
5.5571434e-05
5.5570243e-05
5.5667642e-05
5.6450622e-05
6.0388758e-05
7.597071e-05
0.00012498645
0.00023351907
0.00038871357
0.00049629312
5.0098705e-05
5.0135843e-05
5.0440281e-05
5.2102958e-05
5.9190323e-05
8.3983699e-05
0.00015029873
0.00026896222
0.00041247021
0.00049505668
4.5567683e-05
4.5677872e-05
4.6337526e-05
4.9391658e-05
6.1095868e-05
9.7486452e-05
0.00017920263
0.00029964327
0.00042964149
0.00049493738
4.1782813e-05
4.2019053e-05
4.3252208e-05
4.8416281e-05
6.6518109e-05
0.00011597905
0.00020865684
0.00032501769
0.00044223073
0.00049528036
3.8609692e-05
3.9051469e-05
4.1174631e-05
4.942285e-05
7.5808327e-05
0.00013818975
0.00023641991
0.00034572011
0.00045177487
0.00049583498
3.5960374e-05
3.6725417e-05
4.0189507e-05
5.2767104e-05
8.9027712e-05
0.00016237143
0.00026138189
0.00036268776
0.00045931515
0.00049652592
3.3785904e-05
3.5046537e-05
4.0478292e-05
5.8837788e-05
0.00010576971
0.00018682765
0.00028329996
0.00037677331
0.00046551949
0.00049733744
3.2074369e-05
3.4079226e-05
4.2316058e-05
6.7933628e-05
0.0001251604
0.0002103136
0.0003023811
0.00038864923
0.00047080792
0.00049826641
3.0853783e-05
3.3954544e-05
4.6048212e-05
8.0118066e-05
0.00014606346
0.00023213587
0.00031898696
0.00039881733
0.00047543912
0.0004993074
3.0199556e-05
3.4878996e-05
5.2034434e-05
9.5115784e-05
0.00016736958
0.00025203065
0.00033348872
0.00040763802
0.0004795222
0.00050044511
3.0245998e-05
3.7136176e-05
6.0556495e-05
0.00011231954
0.00018821104
0.00026998854
0.0003462148
0.0004153489
0.00048317142
0.00050166214
3.1200001e-05
4.1069163e-05
7.1708036e-05
0.00013091775
0.00020802821
0.00028612011
0.00035742645
0.00042213456
0.00048649215
0.00050294681
3.3351703e-05
4.7031495e-05
8.5311303e-05
0.00015007675
0.00022652179
0.00030057601
0.00036733094
0.00042814997
0.00048955824
0.00050428927
3.707048e-05
5.5301966e-05
0.00010090986
0.00016908811
0.0002435679
0.00031350284
0.0003760884
0.00043353272
0.00049241545
0.00050567908
4.2767325e-05
6.5979186e-05
0.00011785018
0.00018743121
0.00025913373
0.0003250155
0.00038386894
0.00043837663
0.0004950903
0.00050710484
5.0804985e-05
7.8898763e-05
0.00013541194
0.00020475515
0.00027320713
0.0003352614
0.00039079659
0.00044274717
0.00049759713
0.00050855463
6.1361533e-05
9.3622043e-05
0.00015292589
0.00022080464
0.00028583286
0.00034436356
0.0003969609
0.00044668806
0.00049994132
0.00051001614
7.4302514e-05
0.00010951472
0.00016980488
0.00023542208
0.0002970777
0.00035241151
0.00040242289
0.00045022547
0.00050212092
0.00051147657
8.914242e-05
0.00012582818
0.00018559527
0.00024853554
0.00030699189
0.00035946557
0.00040721988
0.00045337099
0.00050412766
0.00051292228
0.00010508503
0.00014184872
0.00019999905
0.00026010286
0.0003156097
0.00036556218
0.00041137013
0.00045612436
0.00050594798
0.00051433849
0.00012123834
0.00015699664
0.00021282886
0.00027010646
0.00032295528
0.00037072107
0.00041487819
0.00045847675
0.00050756441
0.00051570902
0.00013679961
0.00017085454
0.00022398895
0.00027855505
0.00032905192
0.00037495417
0.00041774157
0.000460415
0.00050895779
0.00051701651
0.00015116489
0.00018316313
0.00023345995
0.00028548709
0.00033393196
0.00037827531
0.00041995823
0.00046192678
0.00051011029
0.00051824313
0.00016395721
0.00019379953
0.00024128455
0.00029097204
0.00033764473
0.00038070893
0.0004215339
0.00046300601
0.0005110088
0.00051937182
0.0001750001
0.00020274851
0.00024755307
0.00029510808
0.00034026058
0.0003822961
0.00042248783
0.0004636574
0.00051164795
0.00052038771
0.00018426854
0.00021007336
0.00025238953
0.00029801655
0.00034187076
0.00038309689
0.00042285583
0.0004638992
0.00051203213
0.0005212795
0.00019183898
0.00021588961
0.00025593892
0.00029983459
0.00034258381
0.00038318923
0.00042269036
0.00046376361
0.00051217588
0.00052204044
0.00019784821
0.00022034356
0.00025835649
0.00030070746
0.0003425199
0.00038266507
0.00042205794
0.00046329516
0.00051210295
0.00052266874
0.00020246348
0.00022359592
0.00025979924
0.00030078156
0.00034180448
0.00038162497
0.00042103489
0.00046254736
0.00051184406
0.0005231674
0.00020586237
0.00022581006
0.00026041973
0.00030019872
0.00034056234
0.00038017242
0.00041970225
0.00046157867
0.00051143419
0.00052354359
0.00020822005
0.00022714416
0.00026036162
0.00029909206
0.00033891264
0.0003784086
0.00041814093
0.00046044842
0.00051090966
0.00052380769
0.00020970191
0.0002277463
0.00025975695
0.00029758314
0.0003369653
0.00037642822
0.00041642758
0.00045921328
0.00051030564
0.00052397224
0.00021045947
0.00022775167
0.00025872462
0.00029578048
0.00033481866
0.00037431659
0.00041463155
0.0004579246
0.00050965428
0.00052405091
0.0002106287
0.00022728129
0.00025736976
0.00029377883
0.00033255828
0.0003721479
0.00041281304
0.00045662677
0.00050898348
0.00052405765
0.00021032958
0.00022644178
0.0002557839
0.0002916594
0.00033025666
0.00036998452
0.0004110222
0.0004553564
0.00050831639
0.000524006
0.0002096666
0.00022532576
0.00025404543
0.00028949035
0.00032797358
0.00036787707
0.00040929907
0.00045414229
0.00050767124
0.00052390857
0.00020872968
0.00022401259
0.0002522205
0.00028732772
0.00032575692
0.00036586506
0.00040767403
0.00045300568
0.00050706151
0.0005237768
0.00020759533
0.00022256943
0.00025036395
0.00028521645
0.00032364358
0.00036397767
0.00040616831
0.00045195988
0.00050648786
0.00052361985
0.0002063279
0.00022105233
0.00024852043
0.00028319158
0.0003216608
0.00036223501
0.00040479501
0.0004510088
0.00050595639
0.00052344559
0.00020498093
0.00021950739
0.00024672549
0.0002812794
0.00031982734
0.0003606491
0.00040355842
0.00045015525
0.00050547569
0.00052326163
0.00020359837
0.0002179719
0.00024500673
0.00027949868
0.00031815459
0.00035922408
0.00040245882
0.00044940303
0.00050504966
0.00052307441
0.00020221581
0.00021647552
0.00024338483
0.00027786164
0.0003166471
0.0003579588
0.0004014967
0.00044875194
0.00050467904
0.00052288908
0.00020086163
0.00021504129
0.00024187461
0.00027637453
0.00031530384
0.00035685187
0.00040066897
0.00044819876
0.00050436252
0.00052270968
0.00019955805
0.00021368655
0.0002404851
0.00027503849
0.00031412314
0.00035589857
0.00039996965
0.00044773819
0.00050409741
0.00052253924
0.00019832165
0.00021242308
0.00023922107
0.00027385311
0.0003131002
0.00035509155
0.00039939074
0.00044736352
0.00050388015
0.0005223799
0.00019716414
0.00021125872
0.00023808466
0.00027281513
0.00031222778
0.00035442143
0.00039892279
0.00044706712
0.00050370654
0.00052223311
0.00019609362
0.00021019816
0.00023707529
0.00027191896
0.0003114967
0.00035387748
0.00039855545
0.00044684084
0.00050357206
0.00052209964
0.00019511511
0.00020924336
0.00023619007
0.00027115715
0.00031089647
0.00035344808
0.00039827795
0.00044667636
0.0005034721
0.00052197981
0.00019423103
0.00020839396
0.00023542426
0.00027052089
0.00031041573
0.00035312125
0.00039807952
0.00044656557
0.00050340214
0.00052187355
0.00019344165
0.00020764772
0.00023477167
0.00027000048
0.00031004274
0.00035288506
0.00039794972
0.00044650073
0.00050335794
0.00052178054
0.00019274542
0.00020700086
0.00023422507
0.00026958568
0.00030976571
0.00035272794
0.00039787865
0.00044647469
0.0005033356
0.00052170026
0.00019213939
0.00020644847
0.0002337765
0.00026926604
0.00030957311
0.00035263884
0.00039785713
0.0004464809
0.00050333159
0.00052163206
0.00019161946
0.00020598472
0.00023341757
0.00026903111
0.0003094538
0.00035260739
0.00039787665
0.00044651341
0.00050334271
0.00052157516
0.00019118069
0.00020560315
0.00023313963
0.00026887064
0.00030939717
0.00035262392
0.00039792943
0.00044656681
0.00050336603
0.00052152869
0.00019081744
0.00020529689
0.00023293395
0.00026877468
0.00030939319
0.00035267948
0.0003980084
0.00044663623
0.00050339885
0.00052149172
0.00019052364
0.00020505876
0.00023279191
0.00026873373
0.00030943255
0.0003527659
0.00039810716
0.00044671731
0.00050343874
0.00052146328
0.00019029291
0.00020488152
0.00023270512
0.00026873883
0.00030950666
0.00035287582
0.00039822009
0.00044680622
0.00050348358
0.00052144239
0.00019011874
0.00020475798
0.00023266552
0.00026878166
0.00030960777
0.00035300276
0.00039834228
0.0004468997
0.00050353152
0.0005214281
0.00018999465
0.00020468112
0.00023266555
0.00026885463
0.00030972899
0.00035314105
0.00039846957
0.00044699504
0.00050358105
0.00052141952
0.00018991431
0.00020464427
0.00023269819
0.0002689509
0.00030986426
0.00035328587
0.00039859848
0.00044708998
0.00050363091
0.00052141582
0.00018987164
0.00020464111
0.00023275702
0.0002690644
0.00031000836
0.00035343313
0.00039872615
0.00044718274
0.00050368007
0.00052141622
0.00018986088
0.00020466577
0.00023283623
0.00026918977
0.00031015681
0.00035357944
0.00039885024
0.00044727185
0.00050372772
0.00052141999
0.00018987664
0.00020471286
0.0002329306
0.00026932236
0.00031030582
0.00035372201
0.00039896888
0.00044735618
0.00050377316
0.00052142646
0.00018991392
0.00020477746
0.00023303553
0.00026945819
0.00031045225
0.00035385858
0.00039908063
0.00044743485
0.00050381587
0.00052143501
0.00018996818
0.00020485515
0.000233147
0.00026959388
0.00031059354
0.00035398741
0.00039918439
0.0004475072
0.00050385506
0.00052144505
0.0001900353
0.00020494202
0.00023326154
0.00026972666
0.00031072769
0.00035410723
0.00039927941
0.00044757263
0.00050389026
0.00052145607
0.00019011163
0.00020503467
0.00023337625
0.00026985431
0.00031085321
0.00035421714
0.00039936518
0.00044763083
0.00050392159
0.00052146763
0.00019019397
0.00020513015
0.00023348875
0.00026997513
0.00031096905
0.00035431659
0.00039944141
0.00044768191
0.0005039493
0.00052147944
0.00019027958
0.00020522602
0.00023359712
0.00027008785
0.00031107453
0.00035440528
0.0003995082
0.00044772624
0.0005039736
0.00052149123
0.00019036614
0.00020532026
0.00023369989
0.00027019159
0.00031116923
0.00035448322
0.00039956596
0.00044776422
0.00050399467
0.0005215028
0.00019045172
0.00020541123
0.00023379595
0.00027028574
0.00031125304
0.00035455081
0.00039961521
0.00044779629
0.00050401272
0.00052151395
0.00019053475
0.00020549767
0.00023388445
0.00027037001
0.00031132621
0.00035460854
0.0003996565
0.00044782287
0.00050402794
0.00052152454
0.00019061397
0.00020557854
0.00023396488
0.00027044442
0.00031138915
0.00035465702
0.00039969044
0.00044784444
0.00050404053
0.00052153447
0.00019068838
0.00020565314
0.00023403699
0.00027050919
0.0003114424
0.00035469693
0.00039971765
0.00044786144
0.00050405071
0.00052154363
0.00019075728
0.00020572102
0.00023410077
0.00027056472
0.00031148662
0.00035472898
0.0003997388
0.00044787434
0.00050405869
0.00052155198
0.0001908202
0.00020578196
0.00023415638
0.00027061151
0.00031152251
0.00035475393
0.00039975452
0.00044788363
0.0005040647
0.00052155948
0.0001908769
0.00020583595
0.00023420414
0.00027065017
0.00031155083
0.00035477255
0.00039976549
0.00044788975
0.00050406897
0.00052156615
0.00019092732
0.00020588309
0.00023424448
0.00027068138
0.00031157238
0.00035478561
0.00039977234
0.00044789316
0.00050407172
0.00052157198
0.00019097154
0.00020592367
0.0002342779
0.00027070584
0.00031158795
0.00035479387
0.00039977569
0.00044789429
0.00050407319
0.00052157703
0.00019100978
0.00020595802
0.00023430498
0.00027072429
0.00031159832
0.00035479803
0.00039977612
0.00044789355
0.00050407359
0.00052158133
0.00019104233
0.00020598658
0.00023432633
0.00027073745
0.00031160424
0.00035479877
0.00039977418
0.00044789131
0.00050407312
0.00052158493
0.00019106956
0.00020600982
0.00023434254
0.00027074603
0.00031160639
0.00035479671
0.00039977033
0.00044788789
0.00050407194
0.00052158789
0.00019109187
0.00020602822
0.00023435422
0.00027075066
0.00031160543
0.0003547924
0.00039976501
0.00044788358
0.00050407023
0.00052159026
0.0001911097
0.00020604227
0.00023436194
0.00027075198
0.00031160193
0.00035478633
0.00039975859
0.00044787862
0.00050406809
0.00052159209
0.00019112346
0.00020605247
0.00023436624
0.00027075053
0.0003115964
0.00035477893
0.00039975137
0.00044787321
0.00050406565
0.00052159344
0.00019113359
0.00020605927
0.00023436764
0.00027074683
0.0003115893
0.00035477056
0.00039974364
0.00044786753
0.00050406297
0.00052159435
0.00019114051
0.00020606312
0.00023436661
0.00027074133
0.00031158104
0.00035476155
0.00039973561
0.00044786173
0.00050406016
0.00052159489
0.00019114464
0.00020606446
0.00023436359
0.00027073446
0.00031157199
0.0003547522
0.00039972751
0.00044785594
0.00050405728
0.0005215951
0.00019114639
0.00020606371
0.000234359
0.00027072661
0.00031156248
0.00035474276
0.00039971952
0.00044785028
0.00050405441
0.00052159505
0.00019114615
0.00020606126
0.00023435321
0.00027071812
0.00031155279
0.00035473345
0.00039971179
0.00044784486
0.00050405162
0.00052159478
0.00019114429
0.00020605746
0.00023434657
0.0002707093
0.00031154317
0.00035472445
0.00039970446
0.00044783976
0.00050404897
0.00052159436
0.00019114116
0.00020605267
0.00023433939
0.00027070039
0.00031153383
0.00035471591
0.00039969761
0.00044783504
0.00050404649
0.00052159382
0.00019113707
0.00020604718
0.00023433195
0.00027069163
0.00031152491
0.00035470792
0.00039969126
0.00044783068
0.00050404416
0.00052159319
)
;

boundaryField
{
    water_inlet
    {
        type            turbulentIntensityKineticEnergyInlet;
        intensity       0.05;
        value           uniform 0.000234375;
    }
    water_outlet
    {
        type            inletOutlet;
        inletValue      uniform 0.0001;
        value           nonuniform List<scalar> 10(0.00019113707 0.00020604718 0.00023433195 0.00027069163 0.00031152491 0.00035470792 0.00039969126 0.00044783068 0.00050404416 0.00052159319);
    }
    water_wedge1
    {
        type            wedge;
    }
    water_wedge2
    {
        type            wedge;
    }
    water_to_rock
    {
        type            kqRWallFunction;
        value           nonuniform List<scalar> 
100
(
0.00048657967
0.00057072179
0.00057180212
0.00054812309
0.0005245696
0.00050861028
0.0005000382
0.00049629312
0.00049505668
0.00049493738
0.00049528036
0.00049583498
0.00049652592
0.00049733744
0.00049826641
0.0004993074
0.00050044511
0.00050166214
0.00050294681
0.00050428927
0.00050567908
0.00050710484
0.00050855463
0.00051001614
0.00051147657
0.00051292228
0.00051433849
0.00051570902
0.00051701651
0.00051824313
0.00051937182
0.00052038771
0.0005212795
0.00052204044
0.00052266874
0.0005231674
0.00052354359
0.00052380769
0.00052397224
0.00052405091
0.00052405765
0.000524006
0.00052390857
0.0005237768
0.00052361985
0.00052344559
0.00052326163
0.00052307441
0.00052288908
0.00052270968
0.00052253924
0.0005223799
0.00052223311
0.00052209964
0.00052197981
0.00052187355
0.00052178054
0.00052170026
0.00052163206
0.00052157516
0.00052152869
0.00052149172
0.00052146328
0.00052144239
0.0005214281
0.00052141952
0.00052141582
0.00052141622
0.00052141999
0.00052142646
0.00052143501
0.00052144505
0.00052145607
0.00052146763
0.00052147944
0.00052149123
0.0005215028
0.00052151395
0.00052152454
0.00052153447
0.00052154363
0.00052155198
0.00052155948
0.00052156615
0.00052157198
0.00052157703
0.00052158133
0.00052158493
0.00052158789
0.00052159026
0.00052159209
0.00052159344
0.00052159435
0.00052159489
0.0005215951
0.00052159505
0.00052159478
0.00052159436
0.00052159382
0.00052159319
)
;
    }
}


// ************************************************************************* //
