/*--------------------------------*- C++ -*----------------------------------*\
| =========                 |                                                 |
| \\      /  F ield         | OpenFOAM: The Open Source CFD Toolbox           |
|  \\    /   O peration     | Version:  2506                                  |
|   \\  /    A nd           | Website:  www.openfoam.com                      |
|    \\/     M anipulation  |                                                 |
\*---------------------------------------------------------------------------*/
FoamFile
{
    version     2.0;
    format      ascii;
    arch        "LSB;label=32;scalar=64";
    class       surfaceScalarField;
    location    "29000/water";
    object      phi;
}
// * * * * * * * * * * * * * * * * * * * * * * * * * * * * * * * * * * * * * //

dimensions      [1 0 -1 0 0 0 0];

oriented        oriented;

internalField   nonuniform List<scalar> 
1890
(
-4.1736245e-05
0.0022168351
-0.00015753622
0.0059586937
-0.00032930669
0.0087985477
-0.00054203243
0.010900937
-0.00078239504
0.012402155
-0.0010351826
0.013412336
-0.0012746193
0.014013996
-0.0014359745
0.014245356
-0.001284859
0.0140006
0.012745539
-3.145582e-05
0.0022482909
-0.00011269722
0.0060399351
-0.00023219387
0.0089180443
-0.00037999424
0.011048737
-0.00054594259
0.012568103
-0.00071649908
0.013582893
-0.00086674526
0.014164243
-0.00093361981
0.01431223
-0.00073394538
0.013800926
0.012011594
-2.9138825e-05
0.0022774298
-0.00010672995
0.0061175262
-0.00022105542
0.0090323698
-0.00036160331
0.011189285
-0.00051700148
0.012723501
-0.00067116243
0.013737054
-0.000793962
0.014287042
-0.00081139816
0.014329667
-0.0005672997
0.013556827
0.011444294
-2.7339933e-05
0.0023047697
-0.00010102596
0.0061912122
-0.00020924235
0.0091405862
-0.00034097894
0.011321022
-0.0004837466
0.012866269
-0.00061911465
0.013872422
-0.00071088119
0.014378809
-0.00067659813
0.014295384
-0.00042026036
0.01330049
0.011024034
-2.5625229e-05
0.0023303949
-9.4386138e-05
0.0062599732
-0.00019506689
0.009241267
-0.00031669858
0.011442653
-0.00044589489
0.012995465
-0.00056132365
0.013987851
-0.00061882692
0.014436312
-0.00053651203
0.014213069
-0.00029565462
0.013059632
0.010728379
-2.4159484e-05
0.0023545544
-8.8799478e-05
0.0063246132
-0.00018306045
0.0093355279
-0.00029574171
0.011555335
-0.00041210908
0.013111833
-0.00050662403
0.014082366
-0.00052703869
0.014456727
-0.00040878767
0.014094818
-0.00020043503
0.01285128
0.010527944
-2.2965461e-05
0.0023775199
-8.4333399e-05
0.0063859811
-0.0001733533
0.0094245478
-0.00027826857
0.01166025
-0.0003823273
0.013215891
-0.00045438029
0.014154419
-0.00043820819
0.014440554
-0.0003032194
0.013959829
-0.00013379019
0.012681851
0.010394154
-2.2023811e-05
0.0023995437
-8.0769671e-05
0.006444727
-0.00016540554
0.0095091837
-0.00026327177
0.011758116
-0.00035472689
0.013307347
-0.00040244401
0.014202136
-0.00035545906
0.014393569
-0.00022236876
0.013826739
-8.9854912e-05
0.012549337
0.010304299
-2.1260547e-05
0.0024208043
-7.7812518e-05
0.006501279
-0.00015855216
0.0095899234
-0.00024948506
0.011849049
-0.00032712199
0.013384984
-0.00034954507
0.014224559
-0.00028212725
0.014326152
-0.00016300007
0.013707611
-6.1424625e-05
0.012447761
0.010242874
-2.0607155e-05
0.0024414114
-7.5216652e-05
0.0065558885
-0.00015223231
0.009666939
-0.00023577753
0.011932594
-0.00029784587
0.013447052
-0.00029644693
0.01422316
-0.00022023767
0.014249942
-0.000119804
0.013607178
-4.2688674e-05
0.012370646
0.010200185
-2.0018291e-05
0.0024614297
-7.2804713e-05
0.0066086749
-0.0001460013
0.0097401356
-0.00022120559
0.012007799
-0.00026613497
0.013491981
-0.00024531961
0.014202345
-0.00016974827
0.014174371
-8.7951918e-05
0.013525382
-2.9806265e-05
0.0123125
0.010170379
-1.946355e-05
0.0024808933
-7.0441425e-05
0.0066596528
-0.00013947746
0.0098091717
-0.00020502184
0.012073343
-0.00023228115
0.013519241
-0.00019838556
0.014168449
-0.00012919833
0.014105184
-6.3919447e-05
0.013460103
-2.0486547e-05
0.012269068
0.010149893
-1.8918753e-05
0.002499812
-6.8008117e-05
0.0067087421
-0.00013229866
0.0098734622
-0.00018675567
0.0121278
-0.00019748203
0.013529967
-0.00015698076
0.014127948
-9.6701007e-05
0.014044904
-4.5355475e-05
0.013408757
-1.3426983e-05
0.012237139
0.010136466
-1.8360406e-05
0.0025181724
-6.5381829e-05
0.0067557635
-0.00012410692
0.0099321873
-0.00016633459
0.012170028
-0.00016333325
0.013526966
-0.0001214071
0.014086022
-7.0530526e-05
0.013994028
-3.0720017e-05
0.013368947
-7.8896543e-06
0.012214309
0.010128576
-1.7761436e-05
0.0025359339
-6.2419674e-05
0.0068004218
-0.00011457691
0.0099843445
-0.00014416261
0.012199614
-0.00013124009
0.013514043
-9.1273145e-05
0.014046055
-4.9295924e-05
0.01395205
-1.8986014e-05
0.013338637
-3.4324365e-06
0.012198755
0.010125144
-1.7087934e-05
0.0025530218
-5.895253e-05
0.0068422864
-0.0001034903
0.010028882
-0.00012105254
0.012217176
-0.00010208297
0.013495073
-6.5898607e-05
0.01400987
-3.1931417e-05
0.013918083
-9.4503002e-06
0.013316155
2.8715639e-07
0.012189018
0.010125431
-1.6296478e-05
0.0025693183
-5.4793229e-05
0.0068807831
-9.0832069e-05
0.010064921
-9.7998338e-05
0.012224342
-7.6209157e-05
0.013473284
-4.4570853e-05
0.013978232
-1.7625877e-05
0.013891138
-1.5561295e-06
0.013300086
3.3723973e-06
0.012184089
0.010128803
-1.5331785e-05
0.00258465
-4.9761954e-05
0.0069152133
-7.6852439e-05
0.010092012
-7.5898171e-05
0.012223388
-5.358831e-05
0.013450974
-2.6633753e-05
0.013951277
-5.7246011e-06
0.013870229
4.9986359e-06
0.013289362
5.8499182e-06
0.012183238
0.010134653
-1.4126775e-05
0.0025987768
-4.3732783e-05
0.0069448193
-6.2044352e-05
0.010110323
-5.5379818e-05
0.012216723
-3.3986284e-05
0.013429581
-1.1512251e-05
0.013928803
4.237255e-06
0.013854479
1.0367987e-05
0.013283232
7.8669286e-06
0.012185739
0.01014252
-1.2609219e-05
0.002611386
-3.6695008e-05
0.006968905
-4.7032025e-05
0.01012066
-3.6776471e-05
0.012206468
-1.7082075e-05
0.013409886
1.3266037e-06
0.013910395
1.2525379e-05
0.013843281
1.4772554e-05
0.013280984
9.5148779e-06
0.012190996
0.010152035
-1.0718731e-05
0.0026221047
-2.8801304e-05
0.0069869876
-3.2421264e-05
0.01012428
-2.0183131e-05
0.012194229
-2.4832622e-06
0.013392186
1.2169263e-05
0.013895742
1.9374079e-05
0.013836076
1.8387348e-05
0.013281971
1.0860025e-05
0.012198524
0.010162895
-8.4363828e-06
0.0026305411
-2.0369734e-05
0.0069989209
-1.8685554e-05
0.010122596
-5.5191127e-06
0.012181063
1.0029602e-05
0.013376638
2.1195424e-05
0.013884576
2.5022004e-05
0.013832249
2.1343404e-05
0.01328565
1.1950114e-05
0.012207917
0.010174845
-5.818982e-06
0.0026363601
-1.1825551e-05
0.0070049275
-6.1107722e-06
0.010116881
7.2766924e-06
0.012167675
2.0570692e-05
0.013363344
2.8684654e-05
0.013876462
2.9654373e-05
0.013831279
2.3738027e-05
0.013291566
1.2818998e-05
0.012218836
0.010187664
-3.0141771e-06
0.0026393743
-3.5958567e-06
0.0070055091
5.1030525e-06
0.010108182
1.8191483e-05
0.012154587
2.9355333e-05
0.01335218
3.4841033e-05
0.013870976
3.340796e-05
0.013832712
2.5641782e-05
0.013299332
1.3490627e-05
0.012230987
0.010201155
-2.3404226e-07
0.0026396083
3.9072518e-06
0.0070013678
1.4740583e-05
0.010097349
2.728566e-05
0.012142042
3.6560403e-05
0.013342905
3.9812997e-05
0.013867724
3.6378191e-05
0.013836147
2.7101648e-05
0.013308609
1.3979531e-05
0.012244109
0.010215134
2.2770957e-06
0.0026373312
1.0308883e-05
0.0069933361
2.2681868e-05
0.010084976
3.4655985e-05
0.012130068
4.2308821e-05
0.013335252
4.369712e-05
0.013866336
3.8622121e-05
0.013841222
2.8141926e-05
0.013319089
1.4291072e-05
0.01225796
0.010229425
4.3217752e-06
0.0026330094
1.5395172e-05
0.0069822627
2.8920497e-05
0.01007145
4.0373111e-05
0.012118615
4.6677134e-05
0.013328948
4.6545424e-05
0.013866467
4.0163177e-05
0.013847604
2.8766266e-05
0.013330486
1.4421532e-05
0.012272305
0.010243847
5.8171944e-06
0.0026271922
1.9123544e-05
0.0069689563
3.3492696e-05
0.010057081
4.4498796e-05
0.012107609
4.9714472e-05
0.013323733
4.8381511e-05
0.0138678
4.1002895e-05
0.013854983
2.8965057e-05
0.013342524
1.4361906e-05
0.012286908
0.010258209
6.7755256e-06
0.0026204167
2.1561896e-05
0.00695417
3.648606e-05
0.010042157
4.7106916e-05
0.012096988
5.1465243e-05
0.013319374
4.9220209e-05
0.013870045
4.1135765e-05
0.013863068
2.8725033e-05
0.013354934
1.4102172e-05
0.012301531
0.010272311
7.2690702e-06
0.0026131476
2.2856872e-05
0.0069385822
3.8040796e-05
0.010026973
4.8300331e-05
0.012086729
5.1990192e-05
0.013315684
4.9087363e-05
0.013872948
4.0565227e-05
0.01387159
2.8040323e-05
0.013367459
1.3637025e-05
0.012315934
0.010285948
7.3944577e-06
0.0026057532
2.3198558e-05
0.0069227781
3.8340752e-05
0.010011831
4.821831e-05
0.012076851
5.1380375e-05
0.013312522
4.80348e-05
0.013876294
3.9316593e-05
0.013880308
2.6921615e-05
0.013379854
1.2970263e-05
0.012329885
0.010298918
7.2476865e-06
0.0025985055
2.2789125e-05
0.0069072366
3.759692e-05
0.0099970233
4.7033567e-05
0.012067415
4.9761616e-05
0.013309794
4.6147609e-05
0.013879908
3.7444305e-05
0.013889011
2.5401615e-05
0.013391897
1.2117691e-05
0.012343169
0.010311036
6.9116428e-06
0.0025915939
2.1820207e-05
0.0068923281
3.6028538e-05
0.0099828149
4.4941373e-05
0.012058502
4.7289695e-05
0.013307446
4.3542784e-05
0.013883655
3.5032001e-05
0.013897522
2.353529e-05
0.013403394
1.1106944e-05
0.012355598
0.010322143
6.4524666e-06
0.0025851414
2.0459986e-05
0.0068783206
3.3846613e-05
0.0099694283
4.2145409e-05
0.012050203
4.4139706e-05
0.013305452
4.0361447e-05
0.013887433
3.218684e-05
0.013905697
2.1395852e-05
0.013414185
9.9753304e-06
0.012367018
0.010332118
5.9204651e-06
0.0025792209
1.884814e-05
0.0068653929
3.1242209e-05
0.0099570343
3.8844073e-05
0.012042601
4.0493045e-05
0.013303803
3.6757446e-05
0.013891169
2.9030086e-05
0.013913424
1.9067775e-05
0.013424147
8.7659487e-06
0.01237732
0.010340884
5.3527259e-06
0.0025738682
1.7095925e-05
0.0068536497
2.8379918e-05
0.0099457503
3.5219732e-05
0.012035761
3.6525219e-05
0.013302497
3.2885415e-05
0.013894808
2.5686581e-05
0.013920623
1.6638791e-05
0.013433195
7.5233253e-06
0.012386436
0.010348407
4.7759568e-06
0.0025690923
1.5289003e-05
0.0068431367
2.5395655e-05
0.0099356436
3.1431825e-05
0.012029725
3.2396331e-05
0.013301533
2.8890506e-05
0.013898314
2.2275265e-05
0.013927238
1.4192535e-05
0.013441278
6.2894407e-06
0.012394339
0.010354697
4.2089625e-06
0.0025648833
1.3491328e-05
0.0068338543
2.239743e-05
0.0099267375
2.7613551e-05
0.012024509
2.824491e-05
0.013300901
2.490094e-05
0.013901658
1.8901912e-05
0.013933237
1.1802902e-05
0.013448377
5.1006856e-06
0.012401041
0.010359798
3.6646333e-06
0.0025612187
1.1749157e-05
0.0068257698
1.9467953e-05
0.0099190187
2.3871495e-05
0.012020105
2.4185022e-05
0.013300588
2.1023754e-05
0.013904819
1.5654765e-05
0.013938606
9.5306085e-06
0.013454501
3.9861496e-06
0.012406585
0.010363784
3.1514678e-06
0.0025580672
1.0094695e-05
0.0068188266
1.6668033e-05
0.0099124454
2.0287195e-05
0.012016486
2.0305932e-05
0.013300569
1.7343245e-05
0.013907782
1.2602645e-05
0.013943347
7.4217722e-06
0.013459682
2.9669525e-06
0.01241104
0.010366751
2.6747293e-06
0.0025553925
8.5492034e-06
0.0068129521
1.4040205e-05
0.0099069544
1.6919855e-05
0.012013607
1.6673576e-05
0.013300816
1.3921546e-05
0.013910534
9.7951724e-06
0.013947473
5.508182e-06
0.013463969
2.056658e-06
0.012414492
0.010368807
2.2372969e-06
0.0025531552
7.1255386e-06
0.0068080638
1.1612132e-05
0.0099024678
1.3809509e-05
0.012011409
1.333301e-05
0.013301292
1.0800436e-05
0.013913067
7.2641899e-06
0.013951009
3.8084715e-06
0.013467424
1.2619572e-06
0.012417038
0.010370069
1.8403393e-06
0.0025513148
5.8302623e-06
0.0068040739
9.3997857e-06
0.0098988983
1.0980476e-05
0.012009829
1.0311703e-05
0.013301961
8.004364e-06
0.013915374
5.0265368e-06
0.013953987
2.3305356e-06
0.013470121
5.8441638e-07
0.012418784
0.010370654
1.4837637e-06
0.0025498311
4.6651855e-06
0.0068008925
7.4099382e-06
0.0098961536
8.4442266e-06
0.012008794
7.6223014e-06
0.013302783
5.5429295e-06
0.013917454
3.0862306e-06
0.013956444
1.0741364e-06
0.013472133
3.1700472e-08
0.012419827
0.010370685
1.166556e-06
0.0025486645
3.6284632e-06
0.0067984306
5.6419681e-06
0.00989414
6.2014996e-06
0.012008235
5.2647984e-06
0.013303719
3.4131802e-06
0.013919305
1.4379793e-06
0.013958419
4.0396063e-08
0.01347353
-4.1112454e-07
0.012420278
0.010370274
8.870583e-07
0.0025477775
2.7156694e-06
0.006796602
4.0898954e-06
0.0098927658
4.2452253e-06
0.012008079
3.2303528e-06
0.013304734
1.6049149e-06
0.013920931
7.5911582e-08
0.013959948
-7.9465835e-07
0.013474401
-7.694611e-07
0.012420253
0.010369505
6.432461e-07
0.0025471342
1.9208316e-06
0.0067953244
2.7444797e-06
0.0098919422
2.5638022e-06
0.01200826
1.5059929e-06
0.013305792
1.0762064e-07
0.013922329
-1.0285419e-06
0.013961084
-1.464174e-06
0.013474836
-1.0481369e-06
0.012419837
0.010368457
4.3287629e-07
0.0025467013
1.2370215e-06
0.0067945203
1.5945122e-06
0.0098915847
1.1434221e-06
0.012008711
7.8325309e-08
0.013306857
-1.1089149e-06
0.013923516
-1.9123642e-06
0.013961888
-1.9815884e-06
0.013474906
-1.2535162e-06
0.012419109
0.010367203
2.5363154e-07
0.0025464477
6.5701464e-07
0.0067941169
6.2869043e-07
0.009891613
-2.9960047e-08
0.01200937
-1.0820441e-06
0.013307909
-2.0820532e-06
0.013924516
-2.5954041e-06
0.013962401
-2.3616831e-06
0.013474672
-1.3935059e-06
0.012418141
0.01036581
1.0327261e-07
0.0025463444
1.7385494e-07
0.0067940463
-1.6632146e-07
0.0098919532
-9.8268449e-07
0.012010186
-2.0099455e-06
0.013308937
-2.8350233e-06
0.013925341
-3.0982114e-06
0.013962664
-2.6203544e-06
0.013474194
-1.4766457e-06
0.012416997
0.010364333
-2.0666168e-08
0.0025463651
-2.2164082e-07
0.0067942473
-8.103253e-07
0.0098925419
-1.7435051e-06
0.012011119
-2.728302e-06
0.013309921
-3.3911052e-06
0.013926004
-3.4422334e-06
0.013962715
-2.7738995e-06
0.013473526
-1.5114588e-06
0.012415735
0.010362822
-1.2121216e-07
0.0025464863
-5.4029788e-07
0.0067946663
-1.3220538e-06
0.0098933236
-2.3315195e-06
0.012012129
-3.2600123e-06
0.01331085
-3.7743691e-06
0.013926518
-3.6493264e-06
0.01396259
-2.8386778e-06
0.013472715
-1.5064569e-06
0.012414403
0.010361315
-2.0116382e-07
0.0025466875
-7.9089715e-07
0.0067952561
-1.7152863e-06
0.009894248
-2.7661766e-06
0.01201318
-3.6281686e-06
0.013311712
-4.0086984e-06
0.013926899
-3.7408379e-06
0.013962323
-2.830374e-06
0.013471805
-1.4695783e-06
0.012413042
0.010359845
-2.6280467e-07
0.0025469503
-9.8095155e-07
0.0067959742
-2.0037393e-06
0.0098952708
-3.0666607e-06
0.012014243
-3.8553269e-06
0.0133125
-4.1170844e-06
0.013927161
-3.7369615e-06
0.013961942
-2.7635749e-06
0.013470831
-1.4081513e-06
0.012411686
0.010358437
-3.0828261e-07
0.0025472586
-1.1177147e-06
0.0067967837
-2.2006651e-06
0.0098963538
-3.2513524e-06
0.012015293
-3.9628094e-06
0.013313212
-4.1208776e-06
0.013927319
-3.6560757e-06
0.013961478
-2.6512513e-06
0.013469826
-1.3285084e-06
0.012410364
0.010357109
-3.3962452e-07
0.0025475982
-1.2080787e-06
0.0067976521
-2.3186168e-06
0.0098974643
-3.3374813e-06
0.012016312
-3.9703052e-06
0.013313845
-4.0394144e-06
0.013927388
-3.5144317e-06
0.013960953
-2.5045846e-06
0.013468817
-1.2360021e-06
0.012409095
0.010355873
-3.5872541e-07
0.0025479569
-1.2584982e-06
0.0067985519
-2.369282e-06
0.0098985751
-3.3409175e-06
0.012017284
-3.8956598e-06
0.0133144
-3.8898615e-06
0.013927382
-3.3261097e-06
0.013960389
-2.3329636e-06
0.013467823
-1.1349238e-06
0.012407897
0.010354738
-3.6736073e-07
0.0025483243
-1.2749885e-06
0.0067994595
-2.363481e-06
0.0098996636
-3.2761852e-06
0.012018197
-3.7549648e-06
0.013314878
-3.6874139e-06
0.013927315
-3.1033032e-06
0.013959805
-2.1443351e-06
0.013466864
-1.0288451e-06
0.012406782
0.010353709
-3.6717562e-07
0.0025486915
-1.2631154e-06
0.0068003555
-2.3111565e-06
0.0099007116
-3.1565015e-06
0.012019042
-3.5626591e-06
0.013315284
-3.4454901e-06
0.013927197
-2.8565765e-06
0.013959216
-1.9454172e-06
0.013465953
-9.2064481e-07
0.012405757
0.010352788
-3.5970756e-07
0.0025490512
-1.228039e-06
0.0068012238
-2.2214655e-06
0.009901705
-2.9939242e-06
0.012019814
-3.3317862e-06
0.013315622
-3.1760683e-06
0.013927042
-2.5952638e-06
0.013958635
-1.7421178e-06
0.0134651
-8.1292276e-07
0.012404828
0.010351975
-3.4636395e-07
0.0025493975
-1.1744855e-06
0.0068020519
-2.1027427e-06
0.0099026333
-2.7993295e-06
0.012020511
-3.0739667e-06
0.013315897
-2.8896861e-06
0.013926857
-2.3274617e-06
0.013958073
-1.5394811e-06
0.013464312
-7.0780221e-07
0.012403996
0.010351268
-3.2843445e-07
0.002549726
-1.1067595e-06
0.0068028302
-1.9625172e-06
0.009903489
-2.5824308e-06
0.012021131
-2.7994387e-06
0.013316114
-2.5954886e-06
0.013926653
-2.0600992e-06
0.013957537
-1.3417843e-06
0.013463594
-6.0713174e-07
0.012403261
0.010350661
-3.0707331e-07
0.002550033
-1.0287029e-06
0.0068035518
-1.8074432e-06
0.0099042678
-2.3516855e-06
0.012021675
-2.5169567e-06
0.013316279
-2.3011231e-06
0.013926438
-1.7988097e-06
0.013957035
-1.1523847e-06
0.013462947
-5.1227754e-07
0.012402621
0.010350148
-2.8330309e-07
0.0025503163
-9.4369349e-07
0.0068042122
-1.6432939e-06
0.0099049674
-2.114298e-06
0.012022146
-2.2337937e-06
0.013316399
-2.0127447e-06
0.013926217
-1.5479554e-06
0.01395657
-9.7375387e-07
0.013462373
-4.2419945e-07
0.012402071
0.010349724
-2.5801114e-07
0.0025505743
-8.5463912e-07
0.0068048089
-1.4749611e-06
0.0099055877
-1.8762363e-06
0.012022547
-1.9557968e-06
0.013316478
-1.7351035e-06
0.013925996
-1.3107029e-06
0.013956146
-8.0751341e-07
0.01346187
-3.4341521e-07
0.012401607
0.010349381
-2.319605e-07
0.0025508063
-7.6401003e-07
0.0068053409
-1.3065281e-06
0.0099061302
-1.64236e-06
0.012022883
-1.6875735e-06
0.013316523
-1.4717693e-06
0.01392578
-1.0892583e-06
0.013955763
-6.5465648e-07
0.013461435
-2.701588e-07
0.012401223
0.01034911
-2.0579604e-07
0.0025510121
-6.7387198e-07
0.006805809
-1.1413463e-06
0.0099065977
-1.4165582e-06
0.012023158
-1.4326789e-06
0.01331654
-1.2253532e-06
0.013925573
-8.850899e-07
0.013955423
-5.1570502e-07
0.013461066
-2.0444226e-07
0.012400912
0.010348906
-1.8005889e-07
0.0025511921
-5.8593326e-07
0.0068062149
-9.8213751e-07
0.0099069939
-1.201908e-06
0.012023378
-1.1938226e-06
0.013316531
-9.9772866e-07
0.013925377
-6.9914718e-07
0.013955125
-3.9089501e-07
0.013460758
-1.4619149e-07
0.012400667
0.01034876
-1.5519241e-07
0.0025513473
-5.0157946e-07
0.0068065612
-8.3106206e-07
0.0099073233
-1.0007778e-06
0.012023548
-9.7299908e-07
0.013316504
-7.9017642e-07
0.013925194
-5.3195962e-07
0.013954866
-2.8024703e-07
0.013460506
-9.526704e-08
0.012400482
0.010348665
-1.3154811e-07
0.0025514789
-4.2189489e-07
0.0068068516
-6.8976648e-07
0.0099075912
-8.1489009e-07
0.012023673
-7.7154054e-07
0.01331646
-6.0340418e-07
0.013925026
-3.8365467e-07
0.013954647
-1.8354879e-07
0.013460306
-5.1432157e-08
0.01240035
0.010348613
-1.093952e-07
0.0025515883
-3.4768826e-07
0.0068070899
-5.5942403e-07
0.0099078029
-6.453704e-07
0.012023759
-5.9016609e-07
0.013316405
-4.3758347e-07
0.013924873
-2.5395546e-07
0.013954463
-1.0030349e-07
0.013460152
-1.3913004e-08
0.012400263
0.010348599
-8.8921231e-08
0.0025516772
-2.7951161e-07
0.0068072805
-4.4076746e-07
0.0099079642
-4.9279437e-07
0.012023811
-4.2902989e-07
0.013316341
-2.9238191e-07
0.013924736
-1.421391e-07
0.013954313
-2.9394998e-08
0.013460039
1.7706137e-08
0.012400216
0.010348617
-7.0251289e-08
0.0025517474
-2.1770113e-07
0.0068074279
-3.3417015e-07
0.0099080807
-3.572887e-07
0.012023834
-2.8782585e-07
0.013316272
-1.6701984e-07
0.013924616
-4.6938536e-08
0.013954193
2.9975752e-08
0.013459963
4.3021099e-08
0.012400203
0.01034866
-5.3444427e-08
0.0025518009
-1.6238454e-07
0.0068075368
-2.3964583e-07
0.0099081579
-2.3852885e-07
0.012023833
-1.6574216e-07
0.013316199
-6.0126035e-08
0.01392451
3.2893694e-08
0.0139541
7.7999539e-08
0.013459917
6.2497555e-08
0.012400219
0.010348722
-3.8514382e-08
0.0025518394
-1.1352885e-07
0.0068076119
-1.5693902e-07
0.0099082013
-1.3584058e-07
0.012023812
-6.1531806e-08
0.013316125
2.9684013e-08
0.013924419
9.7882393e-08
0.013954031
1.1546725e-07
0.0134599
7.7009104e-08
0.012400257
0.010348799
-2.5427836e-08
0.0025518648
-7.0961039e-08
0.0068076574
-8.5552332e-08
0.0099082159
-4.8188557e-08
0.012023775
2.6108067e-08
0.01331605
1.0311255e-07
0.013924342
1.4899276e-07
0.013953985
1.4372697e-07
0.013459905
8.7318529e-08
0.012400314
0.010348887
-1.412215e-08
0.002551879
-3.4397257e-08
0.0068076777
-2.4763072e-08
0.0099082063
2.5405938e-08
0.012023724
9.7822177e-08
0.013315978
1.6107531e-07
0.013924278
1.8776259e-07
0.013953959
1.639377e-07
0.013459929
9.4006956e-08
0.012400383
0.010348981
-4.49282e-09
0.0025518835
-3.4334994e-09
0.0068076766
2.6041306e-08
0.0099081768
8.549816e-08
0.012023665
1.5450549e-07
0.013315909
2.0521073e-07
0.013924228
2.1565899e-07
0.013953948
1.7716115e-07
0.013459967
9.7608373e-08
0.012400463
0.010349078
3.5490119e-09
0.0025518799
2.2186121e-08
0.006807658
6.724855e-08
0.0099081318
1.3288688e-07
0.012023599
1.9767183e-07
0.013315844
2.3706107e-07
0.013924188
2.3402317e-07
0.013953951
1.8433779e-07
0.013460017
9.8559215e-08
0.012400549
0.010349177
1.0082228e-08
0.0025518698
4.2715118e-08
0.0068076253
9.9552343e-08
0.0099080749
1.6887295e-07
0.01202353
2.2884984e-07
0.013315784
2.5816544e-07
0.013924159
2.4417164e-07
0.013953965
1.8638826e-07
0.013460075
9.7308668e-08
0.012400638
0.010349274
1.5220697e-08
0.0025518546
5.8616542e-08
0.0068075819
1.2388001e-07
0.0099080097
1.9474767e-07
0.012023459
2.4952698e-07
0.01331573
2.6998697e-07
0.013924139
2.4733111e-07
0.013953988
1.8413986e-07
0.013460138
9.4235523e-08
0.012400728
0.010349369
1.9108871e-08
0.0025518355
7.0397936e-08
0.0068075307
1.4117747e-07
0.0099079389
2.1181525e-07
0.012023388
2.6118747e-07
0.01331568
2.739751e-07
0.013924126
2.4470994e-07
0.013954017
1.784253e-07
0.013460204
8.9739467e-08
0.012400816
0.010349458
2.1892117e-08
0.0025518136
7.8564505e-08
0.006807474
1.5236904e-07
0.0099078651
2.2133533e-07
0.012023319
2.652498e-07
0.013315636
2.7149168e-07
0.01392412
2.3743337e-07
0.013954051
1.7000133e-07
0.013460272
8.4164346e-08
0.012400902
0.010349542
2.3716536e-08
0.0025517899
8.3614804e-08
0.0068074141
1.5835733e-07
0.0099077903
2.2452165e-07
0.012023253
2.6306207e-07
0.013315598
2.6382778e-07
0.013924119
2.2655994e-07
0.013954089
1.5958783e-07
0.013460339
7.7858215e-08
0.012400984
0.01034962
2.4719891e-08
0.0025517652
8.6019208e-08
0.0068073528
1.5998408e-07
0.0099077164
2.2249329e-07
0.012023191
2.5585037e-07
0.013315564
2.5212954e-07
0.013924123
2.1301154e-07
0.013954128
1.4779578e-07
0.013460404
7.1104719e-08
0.012401061
0.010349691
2.5032202e-08
0.0025517401
8.6217058e-08
0.0068072916
1.5802783e-07
0.0099076446
2.1627107e-07
0.012023133
2.4471653e-07
0.013315536
2.3741791e-07
0.01392413
1.9760045e-07
0.013954168
1.351594e-07
0.013460466
6.4146079e-08
0.012401132
0.010349756
2.4772093e-08
0.0025517154
8.4606736e-08
0.0068072318
1.5318559e-07
0.009907576
2.0675455e-07
0.012023079
2.3061624e-07
0.013315512
2.2055851e-07
0.01392414
1.8099916e-07
0.013954207
1.2210878e-07
0.013460525
5.7176218e-08
0.012401197
0.010349813
2.4046291e-08
0.0025516913
8.1543365e-08
0.0068071743
1.4607038e-07
0.0099075115
1.9472194e-07
0.01202303
2.143554e-07
0.013315492
2.0226527e-07
0.013924152
1.6374203e-07
0.013954246
1.0897145e-07
0.01346058
5.033544e-08
0.012401255
0.010349863
2.2951127e-08
0.0025516684
7.7342818e-08
0.0068071199
1.372189e-07
0.0099074516
1.8084258e-07
0.012022987
1.9661652e-07
0.013315477
1.8312078e-07
0.013924165
1.462537e-07
0.013954283
9.5992552e-08
0.01346063
4.3719153e-08
0.012401308
0.010349907
2.1572663e-08
0.0025516468
7.2282544e-08
0.0068070692
1.2709697e-07
0.0099073968
1.656895e-07
0.012022948
1.7796859e-07
0.013315464
1.635991e-07
0.01392418
1.2885679e-07
0.013954317
8.334738e-08
0.013460676
3.739025e-08
0.012401354
0.010349944
1.9987422e-08
0.0025516268
6.6610845e-08
0.0068070225
1.1611775e-07
0.0099073473
1.497629e-07
0.012022914
1.5890374e-07
0.013315455
1.4410449e-07
0.013924195
1.1182535e-07
0.01395435
7.1171276e-08
0.013460717
3.1374574e-08
0.012401393
0.010349976
1.8266529e-08
0.0025516085
6.0550593e-08
0.0068069803
1.0464893e-07
0.0099073032
1.3350736e-07
0.012022886
1.3985854e-07
0.013315449
1.2499859e-07
0.01392421
9.5409094e-08
0.013954379
5.9601688e-08
0.013460752
2.5735624e-08
0.012401427
0.010350001
1.6471367e-08
0.0025515921
5.4300108e-08
0.0068069424
9.3019996e-08
0.0099072644
1.173234e-07
0.012022861
1.2122631e-07
0.013315445
1.0660451e-07
0.013924224
7.983057e-08
0.013954406
4.8757133e-08
0.013460783
2.0498381e-08
0.012401455
0.010350022
1.4658108e-08
0.0025515774
4.8038408e-08
0.0068069091
8.1527284e-08
0.009907231
1.015736e-07
0.012022841
1.0337155e-07
0.013315443
8.9235515e-08
0.013924238
6.5318178e-08
0.01395443
3.8778443e-08
0.01346081
1.572944e-08
0.012401479
0.010350037
1.2871856e-08
0.0025515645
4.1915268e-08
0.00680688
7.0419747e-08
0.0099072025
8.6559027e-08
0.012022825
8.6592943e-08
0.013315443
7.31448e-08
0.013924252
5.2062034e-08
0.013954451
2.9779884e-08
0.013460832
1.1476727e-08
0.012401497
0.010350049
1.1150627e-08
0.0025515534
3.6053147e-08
0.0068068551
5.9899878e-08
0.0099071786
7.251992e-08
0.012022813
7.112085e-08
0.013315445
5.852189e-08
0.013924264
4.019265e-08
0.013954469
2.1842908e-08
0.013460851
7.7798174e-09
0.012401511
0.010350057
9.5213665e-09
0.0025515439
3.0539972e-08
0.0068068341
5.0106523e-08
0.009907159
5.9611763e-08
0.012022803
5.7092079e-08
0.013315447
4.5463833e-08
0.013924276
2.9766195e-08
0.013954485
1.4994677e-08
0.013460865
4.6520765e-09
0.012401521
0.010350061
7.9958432e-09
0.0025515359
2.5418782e-08
0.0068068167
4.1102405e-08
0.0099071434
4.7889403e-08
0.012022796
4.4526983e-08
0.01331545
3.3945298e-08
0.013924287
2.0724269e-08
0.013954498
9.1668885e-09
0.013460877
2.0377564e-09
0.012401528
0.010350063
6.591654e-09
0.0025515293
2.072903e-08
0.0068068025
3.2961004e-08
0.0099071311
3.747625e-08
0.012022792
3.360513e-08
0.013315454
2.4190076e-08
0.013924296
1.3300937e-08
0.013954509
4.5607175e-09
0.013460886
7.9620196e-11
0.012401533
0.010350064
2.9912916e-09
9.3726257e-09
1.478669e-08
1.6593211e-08
1.4610426e-08
1.0180069e-08
5.2885475e-09
1.5349488e-09
-1.3741914e-10
)
;

boundaryField
{
    water_inlet
    {
        type            calculated;
        value           nonuniform List<scalar> 10(-0.0021750989 -0.0058428937 -0.0086267772 -0.010688211 -0.012161792 -0.013159549 -0.01377456 -0.014084001 -0.014151716 -0.014030398);
    }
    water_outlet
    {
        type            calculated;
        value           nonuniform List<scalar> 10(0.0025515263 0.0068067962 0.0099071258 0.01202279 0.013315456 0.0139243 0.013954514 0.01346089 0.012401535 0.010350063);
    }
    water_wedge1
    {
        type            wedge;
        value           nonuniform List<scalar> 
1000
(
-1.1296087e-13
-1.4267491e-13
-1.1216166e-13
-1.063133e-13
-9.9354861e-14
-9.3391753e-14
-8.8690344e-14
-8.4950916e-14
-8.1976306e-14
-7.949282e-14
-7.7283143e-14
-7.5237199e-14
-7.3263428e-14
-7.127795e-14
-6.9185735e-14
-6.6855704e-14
-6.4135322e-14
-6.0820278e-14
-5.6667479e-14
-5.1408071e-14
-4.4794825e-14
-3.6658818e-14
-2.7079187e-14
-1.6559192e-14
-5.8650747e-15
4.0623039e-15
1.2371783e-14
1.8671462e-14
2.2899589e-14
2.5298347e-14
2.6221974e-14
2.6007812e-14
2.5028419e-14
2.3512041e-14
2.16864e-14
1.9702479e-14
1.7624926e-14
1.558793e-14
1.3610202e-14
1.1733e-14
1.0000612e-14
8.3897611e-15
6.9314545e-15
5.6171426e-15
4.4407909e-15
3.4037709e-15
2.4977262e-15
1.7139724e-15
1.040791e-15
4.7304559e-16
1.2730735e-17
-3.6069669e-16
-6.741581e-16
-9.0992987e-16
-1.0859625e-15
-1.2110328e-15
-1.289259e-15
-1.3276948e-15
-1.3268489e-15
-1.3102632e-15
-1.2671865e-15
-1.2016641e-15
-1.1309199e-15
-1.0481562e-15
-9.5774801e-16
-8.6469923e-16
-7.6952547e-16
-6.7054848e-16
-5.8288268e-16
-4.9785276e-16
-4.1524596e-16
-3.454204e-16
-2.7064504e-16
-2.0561365e-16
-1.570685e-16
-1.0467769e-16
-6.1046129e-17
-2.9992069e-17
3.4783247e-18
2.6088148e-17
4.5969588e-17
6.4841596e-17
6.9820647e-17
7.9523463e-17
8.6806154e-17
8.5511146e-17
8.3215122e-17
8.6063763e-17
8.1510165e-17
7.4375007e-17
6.8198915e-17
6.0566293e-17
5.8257827e-17
5.1392284e-17
4.2154509e-17
3.8820141e-17
3.4457029e-17
2.5850837e-17
2.1578085e-17
8.7958733e-18
-6.8081095e-13
-1.0335434e-12
-8.3928963e-13
-7.97528e-13
-7.4939933e-13
-7.0313731e-13
-6.6536232e-13
-6.352276e-13
-6.1093599e-13
-5.9052855e-13
-5.7245062e-13
-5.5560581e-13
-5.3912543e-13
-5.2220061e-13
-5.0397634e-13
-4.8343294e-13
-4.5934407e-13
-4.3018931e-13
-3.943682e-13
-3.5055567e-13
-2.9814e-13
-2.3765395e-13
-1.7103163e-13
-1.0155108e-13
-3.3365597e-14
2.8949226e-14
8.1484533e-14
1.2214685e-13
1.5063534e-13
1.6797128e-13
1.7589319e-13
1.7635481e-13
1.7127162e-13
1.622757e-13
1.5073387e-13
1.3769715e-13
1.2392714e-13
1.100348e-13
9.6434129e-14
8.3433346e-14
7.1223765e-14
5.9903506e-14
4.9551808e-14
4.0197382e-14
3.1830582e-14
2.4421582e-14
1.7934417e-14
1.2316038e-14
7.5073896e-15
3.4612717e-15
1.1349352e-16
-2.6144816e-15
-4.7992806e-15
-6.4990556e-15
-7.7669766e-15
-8.6565703e-15
-9.214783e-15
-9.4911165e-15
-9.5302733e-15
-9.3776034e-15
-9.0657196e-15
-8.6186153e-15
-8.0794079e-15
-7.4773948e-15
-6.8291015e-15
-6.1605011e-15
-5.4822869e-15
-4.8108923e-15
-4.1604819e-15
-3.5404197e-15
-2.9627745e-15
-2.4203419e-15
-1.9210344e-15
-1.4797632e-15
-1.0870779e-15
-7.3473728e-16
-4.2699055e-16
-1.7250182e-16
4.3296774e-17
2.1918896e-16
3.5507428e-16
4.6595496e-16
5.4755874e-16
6.0108251e-16
6.2798514e-16
6.3879953e-16
6.3669459e-16
6.2179117e-16
5.944847e-16
5.5863218e-16
5.1891598e-16
4.7685135e-16
4.3210772e-16
3.8398083e-16
3.3743328e-16
2.9157865e-16
2.510104e-16
2.1096487e-16
1.7142113e-16
9.7955997e-17
3.1339116e-12
4.8023021e-12
3.9072347e-12
3.7113883e-12
3.4900563e-12
3.2689331e-12
3.0860151e-12
2.9387758e-12
2.8176142e-12
2.7124776e-12
2.6152713e-12
2.5197175e-12
2.4205062e-12
2.3123557e-12
2.1894941e-12
2.046114e-12
1.8774958e-12
1.6811058e-12
1.4574321e-12
1.2105572e-12
9.4809681e-13
6.8016776e-13
4.175944e-13
1.7019168e-13
-5.3304595e-14
-2.4553923e-13
-4.0215958e-13
-5.2203261e-13
-6.0636226e-13
-6.5806787e-13
-6.8129967e-13
-6.808849e-13
-6.6178026e-13
-6.2868879e-13
-5.857933e-13
-5.3663532e-13
-4.8411097e-13
-4.3048306e-13
-3.7747422e-13