/*--------------------------------*- C++ -*----------------------------------*\
| =========                 |                                                 |
| \\      /  F ield         | OpenFOAM: The Open Source CFD Toolbox           |
|  \\    /   O peration     | Version:  2506                                  |
|   \\  /    A nd           | Website:  www.openfoam.com                      |
|    \\/     M anipulation  |                                                 |
\*---------------------------------------------------------------------------*/
FoamFile
{
    version     2.0;
    format      ascii;
    arch        "LSB;label=32;scalar=64";
    class       volVectorField;
    location    "29000/water";
    object      U;
}
// * * * * * * * * * * * * * * * * * * * * * * * * * * * * * * * * * * * * * //

dimensions      [0 1 -1 0 0 0 0];

internalField   nonuniform List<vector> 
1000
(
(0.25225587 -0.00012859767 2.335382e-18)
(0.25226258 -0.00027067836 1.4846325e-19)
(0.25227485 -0.0004145054 1.920804e-18)
(0.25228819 -0.00055572717 5.5239411e-19)
(0.25229018 -0.0006857579 4.7839709e-19)
(0.25223998 -0.00079863173 5.5698301e-20)
(0.25200713 -0.00089615194 -1.8545621e-19)
(0.25115686 -0.0010460356 -4.0165639e-19)
(0.24780473 -0.0012820719 -8.7057414e-20)
(0.23308261 0.0010121611 -4.4862213e-19)
(0.25653043 -7.733045e-05 1.1284955e-18)
(0.25653977 -0.00018903831 6.4131758e-19)
(0.25655871 -0.00029096537 2.1619542e-18)
(0.25657276 -0.00039024487 6.8914914e-19)
(0.25654377 -0.0004817504 3.4384477e-19)
(0.25636039 -0.00055898443 8.9897997e-20)
(0.25570613 -0.00060536497 -2.4152454e-19)
(0.25355952 -0.00065441358 -6.1799366e-19)
(0.24574266 -0.00084724758 -2.252007e-19)
(0.21968686 0.00025718807 -4.8936924e-19)
(0.26021787 -7.3909998e-05 -1.0286421e-18)
(0.26022468 -0.00018059836 -5.0279104e-20)
(0.26023383 -0.00027741915 1.0589833e-18)
(0.26021807 -0.00037159746 5.7954768e-19)
(0.26010153 -0.00045735777 -4.002507e-19)
(0.25968006 -0.00053044601 -4.0805832e-19)
(0.25840621 -0.00057093098 -2.1003197e-19)
(0.25452354 -0.00056554749 -4.8887057e-19)
(0.24186464 -0.00061987683 -4.1020152e-19)
(0.20839342 1.1252779e-05 -3.8852543e-19)
(0.26340527 -6.8945993e-05 -5.6287607e-19)
(0.26340956 -0.00017058512 1.7645001e-19)
(0.26340597 -0.00026279235 1.1195706e-18)
(0.2633478 -0.00035138374 7.9187567e-19)
(0.26310913 -0.00042951144 -2.5846546e-19)
(0.26237282 -0.00049395 -5.2268032e-19)
(0.26030372 -0.00052751009 -2.3954407e-19)
(0.25430846 -0.00049289989 -3.3383073e-19)
(0.23723183 -0.00045934348 -3.4074421e-19)
(0.19958845 -4.8876764e-05 -2.9230718e-19)
(0.26641629 -6.4388924e-05 -1.547764e-18)
(0.26641556 -0.0001594687 1.1106259e-18)
(0.266392 -0.00024539854 9.2701946e-19)
(0.26627267 -0.00032748761 8.3085102e-19)
(0.26586989 -0.00039791745 3.1183612e-19)
(0.26472852 -0.00045250635 3.4033617e-19)
(0.2616454 -0.00047360913 1.7471645e-21)
(0.25321244 -0.00041483956 -3.5689252e-19)
(0.23271017 -0.00033459486 -4.1046702e-19)
(0.1932952 -5.0634994e-05 -3.6927516e-19)
(0.26927574 -6.0867412e-05 1.0553146e-18)
(0.26926716 -0.00015024307 9.6775541e-19)
(0.26921481 -0.00023070414 9.6760229e-19)
(0.26901238 -0.000307027 7.6141728e-19)
(0.26839648 -0.00037049965 5.1205884e-19)
(0.26673518 -0.00041493223 3.0130677e-19)
(0.26236788 -0.00041871865 -8.2456755e-21)
(0.25136277 -0.0003383511 -2.3667462e-19)
(0.22869803 -0.00023663025 -2.9084792e-19)
(0.18902132 -3.9495919e-05 -3.25293e-19)
(0.27197991 -5.8057414e-05 2.0678837e-18)
(0.27196007 -0.00014287107 1.9845592e-18)
(0.2718683 -0.00021894795 3.8917173e-19)
(0.27155651 -0.00029030304 4.3286709e-19)
(0.27066609 -0.00034728937 4.2870566e-19)
(0.26833155 -0.00038068229 -1.5331228e-19)
(0.26239852 -0.000364372 -2.330265e-19)
(0.2490264 -0.00026852399 -1.7728674e-19)
(0.22536097 -0.00016272668 -1.5503137e-19)
(0.18616821 -2.8773616e-05 -3.4877518e-19)
(0.27455816 -5.5861771e-05 -1.4294634e-18)
(0.27452281 -0.00013703192 1.6709351e-18)
(0.27437848 -0.0002095199 7.2010831e-19)
(0.27392442 -0.00027640471 2.714729e-19)
(0.27267859 -0.00032682052 2.2836034e-19)
(0.2694769 -0.00034738376 3.7510354e-19)
(0.26178471 -0.00031092588 -4.8148901e-20)
(0.2465738 -0.00020816747 -1.9500147e-19)
(0.22271516 -0.00011050001 -3.1932472e-19)
(0.18425833 -2.0835632e-05 -3.128456e-19)
(0.27704027 -5.4085728e-05 8.9077291e-19)
(0.27698407 -0.00013225434 2.932381e-19)
(0.27677057 -0.0002016257 1.0635134e-18)
(0.27613171 -0.00026417282 2.3763125e-19)
(0.27442314 -0.00030720569 1.0539837e-19)
(0.27014175 -0.00031294752 3.4979976e-19)
(0.26069 -0.00025925766 -1.9356285e-20)
(0.24429831 -0.00015836441 -7.7315842e-20)
(0.2206758 -7.5408652e-05 5.6583426e-20)
(0.18296198 -1.5153581e-05 3.7298996e-21)
(0.2794434 -5.2555785e-05 4.1965098e-18)
(0.27935955 -0.0001281414 1.5707175e-18)
(0.27905543 -0.00019460757 5.6871427e-20)
(0.27817575 -0.00025259236 4.8518904e-19)
(0.27586797 -0.00028673445 7.2352507e-20)
(0.27032645 -0.00027659215 -2.0170943e-20)
(0.25933501 -0.00021094069 -9.5348576e-20)
(0.24234213 -0.00011891281 -6.7384702e-20)
(0.21912382 -5.2172617e-05 -2.4034855e-20)
(0.18206601 -1.0946503e-05 -1.0137529e-19)
(0.28177654 -5.1166671e-05 2.0634501e-18)
(0.28165619 -0.00012441974 8.491797e-19)
(0.2812333 -0.00018797299 -4.7845024e-19)
(0.28003901 -0.00024077446 8.9880882e-19)
(0.27697398 -0.00026417631 1.2213067e-19)
(0.27008763 -0.00023880413 1.2598875e-19)
(0.25792268 -0.00016762352 -5.5854672e-20)
(0.24073179 -8.8481684e-05 -5.5320873e-20)
(0.21795021 -3.644606e-05 -2.4451283e-19)
(0.18143938 -7.6997389e-06 -1.5957694e-19)
(0.28404476 -4.9854766e-05 8.0359051e-19)
(0.28387625 -0.00012089422 6.9213985e-19)
(0.28329739 -0.00018132906 -1.3800411e-19)
(0.28169343 -0.00022787696 5.4495345e-19)
(0.27771473 -0.00023897368 5.1542861e-19)
(0.26953512 -0.00020087554 1.607838e-19)
(0.25659139 -0.00013036518 1.7193538e-20)
(0.23943781 -6.5171247e-05 -1.7581876e-20)
(0.21706901 -2.5325344e-05 -1.3026114e-19)
(0.18100324 -5.1220029e-06 -1.5581625e-19)
(0.28625049 -4.8572088e-05 3.5730057e-19)
(0.28601827 -0.00011740093 8.4927773e-19)
(0.28523426 -0.00017430188 5.3154259e-19)
(0.28310493 -0.00021314181 8.0358143e-19)
(0.27809439 -0.00021129058 6.4841247e-19)
(0.26879944 -0.00016439827 3.8364314e-20)
(0.25541094 -9.9329385e-05 -3.9652698e-20)
(0.238414 -4.7155533e-05 -1.9650873e-19)
(0.21641537 -1.70787e-05 -1.4452231e-19)
(0.18070892 -3.0433711e-06 -1.2870027e-19)
(0.28839355 -4.7270982e-05 6.2512381e-19)
(0.28807682 -0.0001137758 1.220662e-18)
(0.28702341 -0.00016645984 4.4072484e-19)
(0.28424077 -0.00019602594 8.2743726e-19)
(0.2781555 -0.00018188536 3.1023983e-19)
(0.26799603 -0.00013078983 3.4780229e-20)
(0.25440308 -7.3937007e-05 -4.3885458e-19)
(0.23761476 -3.3003502e-05 -3.383119e-19)
(0.21594073 -1.0715648e-05 -2.2775513e-19)
(0.18052449 -1.352509e-06 -2.5898869e-19)
(0.29047097 -4.5891466e-05 1.7179029e-18)
(0.29004194 -0.00010982914 3.2468718e-18)
(0.28863778 -0.00015729303 4.9273491e-19)
(0.28508023 -0.00017633839 5.4306039e-20)
(0.27797084 -0.00015188707 2.3975757e-19)
(0.26720628 -0.00010094655 1.7654513e-19)
(0.25356402 -5.3258307e-05 -1.0378935e-19)
(0.23700054 -2.1697942e-05 -1.0372964e-19)
(0.21560861 -5.6589295e-06 -1.444604e-19)
(0.18042759 3.4442938e-08 -1.3014561e-19)
(0.29247638 -4.4351582e-05 9.6738401e-19)
(0.2918983 -0.00010531346 2.2930031e-19)
(0.29004629 -0.00014628203 7.7803455e-19)
(0.2856247 -0.00015430637 8.4926843e-19)
(0.27762409 -0.00012253928 3.3819619e-19)
(0.26647734 -7.5147649e-05 2.9367672e-19)
(0.25287924 -3.6357325e-05 3.3590164e-19)
(0.23653862 -1.2543776e-05 1.0757409e-19)
(0.21539111 -1.5270145e-06 3.8848259e-20)
(0.18040204 1.2062188e-06 1.095234e-19)
(0.294399 -4.2542724e-05 1.5402283e-18)
(0.2936244 -9.989472e-05 3.0182151e-19)
(0.29121908 -0.00013303045 5.6391338e-19)
(0.28590171 -0.00013054545 3.1164456e-19)
(0.27719085 -9.4944189e-05 -2.3938162e-20)
(0.26583135 -5.3198283e-05 6.8778909e-20)
(0.25233097 -2.245255e-05 4.900861e-20)
(0.23620236 -5.0200935e-06 7.1488029e-20)
(0.2152645 1.8977329e-06 1.3183353e-20)
(0.18043773 2.1938032e-06 -1.197666e-19)
(0.29622248 -4.0322376e-05 2.0579486e-18)
(0.29519258 -9.3155627e-05 4.4530617e-19)
(0.29213501 -0.00011739342 2.6949509e-19)
(0.28595986 -0.00010594403 2.9282661e-19)
(0.27672821 -6.9857921e-05 3.5648612e-20)
(0.26527517 -3.4649945e-05 1.9295409e-20)
(0.25190111 -1.0911234e-05 7.8188539e-20)
(0.23596807 1.2314778e-06 -2.9851685e-20)
(0.21521693 4.7056097e-06 -1.7260824e-20)
(0.18052215 2.9883352e-06 -6.4478811e-20)
(0.29792335 -3.7501449e-05 7.0994896e-19)
(0.29657068 -8.4660814e-05 7.9168022e-19)
(0.29278915 -9.9552852e-05 4.7271106e-19)
(0.28585699 -8.1497183e-05 9.3539176e-19)
(0.27627357 -4.7620603e-05 3.1943964e-19)
(0.26480714 -1.8985072e-05 -4.2790986e-20)
(0.25157194 -1.2548562e-06 -9.8458549e-20)
(0.23582162 6.419795e-06 -1.503169e-19)
(0.21523438 6.9884344e-06 -8.4499659e-20)
(0.18064615 3.6198093e-06 -1.2764527e-19)
(0.29946983 -3.3841801e-05 -2.0806009e-18)
(0.29772603 -7.4080717e-05 1.5458448e-18)
(0.29319627 -8.0020576e-05 -1.2730537e-19)
(0.28564802 -5.8127096e-05 -1.2416292e-18)
(0.27584861 -2.8226615e-05 -2.8273945e-19)
(0.26442121 -5.6915576e-06 -5.497878e-19)
(0.25132937 6.8552171e-06 -2.2109868e-19)
(0.23575038 1.0704097e-05 -4.5404307e-20)
(0.21530525 8.8445145e-06 -6.0546452e-20)
(0.18080245 4.1231547e-06 1.6514305e-20)
(0.30082186 -2.9095079e-05 3.060962e-20)
(0.29863176 -6.1332709e-05 1.4430747e-18)
(0.29338822 -5.9567923e-05 -6.8145668e-19)
(0.28537718 -3.6523612e-05 -9.5183957e-19)
(0.27546384 -1.1418312e-05 -4.2154872e-19)
(0.26410766 5.6154512e-06 -3.5344276e-19)
(0.25116541 1.3622612e-05 -4.1957511e-19)
(0.23574181 1.421929e-05 -9.3007698e-20)
(0.21542011 1.03548e-05 -3.7227912e-20)
(0.18098519 4.526427e-06 1.5128563e-19)
(0.30193377 -2.3108907e-05 3.0602511e-18)
(0.2992734 -4.6685066e-05 1.1192861e-18)
(0.29340604 -3.9092153e-05 -4.2273564e-20)
(0.28507548 -1.7048296e-05 7.5000992e-19)
(0.27512089 3.0830991e-06 1.4932207e-18)
(0.26386445 1.5139748e-05 7.1252787e-19)
(0.25106783 1.9209639e-05 4.4689204e-20)
(0.2357854 1.7094866e-05 -1.2735321e-20)
(0.21557118 1.1581227e-05 -3.7333828e-20)
(0.18118945 4.8482852e-06 -3.0340742e-20)
(0.30276115 -1.5976953e-05 -1.2490533e-18)
(0.29965291 -3.0773197e-05 -1.0589033e-18)
(0.29329058 -1.9436311e-05 -3.9795474e-19)
(0.28476122 1.676829e-07 -7.8915938e-19)
(0.27482457 1.5440703e-05 8.3741278e-19)
(0.26368339 2.3071702e-05 5.5706264e-20)
(0.25102649 2.3802791e-05 4.4693701e-19)
(0.2358724 1.9434901e-05 6.282113e-20)
(0.21575198 1.2565574e-05 9.9203765e-20)
(0.18141104 5.0996423e-06 1.4666912e-19)
(0.30327138 -8.1276737e-06 6.4125483e-19)
(0.29978738 -1.4485766e-05 1.0522976e-18)
(0.29307479 -1.3050187e-06 -4.5020784e-19)
(0.28444918 1.5039938e-05 -4.7489155e-19)
(0.27457433 2.5804522e-05 -1.1348934e-18)
(0.26355615 2.9614282e-05 -5.7162609e-19)
(0.25103262 2.7545359e-05 -2.2371557e-19)
(0.23599543 2.1311951e-05 -1.7198526e-20)
(0.21595696 1.3336494e-05 5.3432639e-20)
(0.18164628 5.2877711e-06 1.2040633e-19)
(0.303454 -2.4202504e-07 4.9327762e-19)
(0.29970265 1.1334611e-06 3.3822754e-19)
(0.29278637 1.4662922e-05 -5.1979261e-19)
(0.28414892 2.7526309e-05 -5.3787583e-19)
(0.27436559 3.4337223e-05 -9.2442204e-19)
(0.26347495 3.4930348e-05 -8.775415e-20)
(0.25107851 3.0536425e-05 -2.2395522e-19)
(0.2361481 2.2774326e-05 -4.2531771e-20)
(0.2161813 1.3912601e-05 2.2232408e-21)
(0.18189181 5.4170565e-06 1.7052214e-20)
(0.30332514 6.8811798e-06 -2.593831e-18)
(0.29943296 1.4985249e-05 -1.8598259e-18)
(0.29244688 2.7994342e-05 -9.6606809e-19)
(0.2838623 3.7676854e-05 -1.9052262e-18)
(0.27419301 4.1187144e-05 -9.172854e-19)
(0.26343256 3.9127773e-05 -6.3849478e-19)
(0.25115729 3.2835776e-05 -1.8788253e-19)
(0.23632475 2.3848706e-05 -9.4632877e-20)
(0.21642059 1.4302302e-05 9.0906999e-21)
(0.18214447 5.4885474e-06 9.4764136e-20)
(0.30293051 1.2606833e-05 2.4424718e-18)
(0.29901531 2.6252739e-05 -2.7089829e-19)
(0.29206922 3.8507738e-05 -9.535136e-19)
(0.28358875 4.5589374e-05 -1.1755002e-19)
(0.27405095 4.6451397e-05 3.2180279e-19)
(0.26342219 4.2266215e-05 8.2048876e-20)
(0.25126271 3.4471501e-05 4.1117086e-20)
(0.23652016 2.4542956e-05 3.4396984e-20)
(0.21667066 1.4504284e-05 -1.0418344e-19)
(0.18240109 5.4998227e-06 -2.2009197e-20)
(0.30233164 1.6685805e-05 3.204882e-19)
(0.29848533 3.4600291e-05 -3.7846024e-19)
(0.29166293 4.6230807e-05 -8.6991662e-19)
(0.28332652 5.1359475e-05 -2.1892617e-19)
(0.27393382 5.0194207e-05 -1.6912458e-20)
(0.26343754 4.4377497e-05 -7.319967e-20)
(0.25138894 3.5451799e-05 1.544406e-19)
(0.23672934 2.4852576e-05 -2.0350142e-20)
(0.21692739 1.4510923e-05 -8.3512465e-20)
(0.18265838 5.4463381e-06 -2.0990531e-20)
(0.30159326 1.9181606e-05 9.5044291e-19)
(0.29787659 4.0083569e-05 2.3046979e-18)
(0.29123636 5.1326367e-05 2.5730056e-19)
(0.28307384 5.5102131e-05 4.6682351e-20)
(0.27383649 5.2477131e-05 -4.6415394e-19)
(0.26347281 4.5486029e-05 -1.3131274e-19)
(0.25153052 3.5778302e-05 -3.3388251e-19)
(0.23694749 2.4769244e-05 -2.0413967e-19)
(0.21718658 1.4313028e-05 -5.4055795e-20)
(0.18291286 5.3232199e-06 -1.2717779e-20)
(0.30077409 2.0343615e-05 8.6633062e-20)
(0.29721996 4.3029196e-05 1.9467227e-18)
(0.2907979 5.4062692e-05 6.669153e-20)
(0.28282963 5.697438e-05 -5.0278778e-19)
(0.2737546 5.3382018e-05 -1.062994e-19)
(0.26352281 4.5627108e-05 -3.2893225e-19)
(0.25168237 3.5459919e-05 -3.5298902e-19)
(0.23716991 2.4290251e-05 -2.8435028e-19)
(0.21744399 1.3905304e-05 -1.3312797e-19)
(0.18316088 5.1273855e-06 -1.1907654e-19)
(0.29992225 2.0483763e-05 -3.0549628e-18)
(0.29654264 4.3898877e-05 -2.1816569e-18)
(0.29035627 5.478054e-05 -1.3857018e-18)
(0.28259386 5.7181734e-05 -1.831494e-18)
(0.27368475 5.3024227e-05 -8.6611602e-19)
(0.26358307 4.4860338e-05 -8.9582219e-19)
(0.25183983 3.4523984e-05 -2.0996063e-19)
(0.2373921 2.3426377e-05 -1.7524452e-19)
(0.21769542 1.3290992e-05 -3.7923335e-20)
(0.18339876 4.8592976e-06 1.6744913e-21)
(0.29907427 1.9896969e-05 2.3577193e-18)
(0.29586749 4.3179719e-05 -4.4806787e-19)
(0.28992023 5.3855479e-05 -3.8700999e-19)
(0.28236751 5.5969841e-05 9.6666083e-19)
(0.27362456 5.1554976e-05 8.2933505e-19)
(0.26364989 4.3275497e-05 5.3519589e-19)
(0.25199879 3.3022202e-05 1.4122461e-19)
(0.2376099 2.2206431e-05 8.7375814e-20)
(0.21793686 1.248464e-05 1.6633592e-20)
(0.18362301 4.5239918e-06 -6.2780555e-20)
(0.29825617 1.8826536e-05 -1.544682e-20)
(0.29521266 4.1317031e-05 -3.9717047e-19)
(0.28949799 5.1662408e-05 1.9803545e-19)
(0.28215237 5.3607048e-05 2.7479118e-19)
(0.27357256 4.9154368e-05 4.8317329e-19)
(0.26372035 4.0990576e-05 3.132306e-19)
(0.25215571 3.1030622e-05 3.4209379e-19)
(0.23781959 2.0677668e-05 2.0972039e-19)
(0.21816471 1.1512481e-05 1.0147851e-19)
(0.18383052 4.1312155e-06 -5.3870863e-20)
(0.29748544 1.7458249e-05 2.6584869e-18)
(0.29459167 3.868429e-05 3.6168812e-18)
(0.28909669 4.8548431e-05 8.1642536e-19)
(0.28195053 5.0364425e-05 2.5876187e-19)
(0.27352798 4.6018735e-05 -9.4147897e-19)
(0.26379222 3.8143844e-05 -3.4877984e-19)
(0.25230768 2.8644491e-05 -2.2797183e-19)
(0.23801801 1.8902376e-05 -3.8993202e-20)
(0.21837592 1.0410356e-05 2.6751708e-20)
(0.18401875 3.6945417e-06 -8.7283757e-21)
(0.2967729 1.5927673e-05 1.6092858e-18)
(0.29401395 3.5577616e-05 2.8111064e-18)
(0.28872208 4.4816643e-05 8.8648272e-19)
(0.28176411 4.6498525e-05 3.8501122e-19)
(0.27349054 4.2346681e-05 -7.9093701e-19)
(0.26386387 3.4883225e-05 -6.5848979e-19)
(0.25245241 2.5970315e-05 -3.2653766e-19)
(0.23820265 1.6952256e-05 -1.7900277e-19)
(0.21856817 9.2202611e-06 -5.6076406e-20)
(0.18418594 3.2300016e-06 -2.8715527e-20)
(0.29612446 1.4330876e-05 -3.3938186e-18)
(0.29348538 3.2222597e-05 -2.8660012e-18)
(0.28837832 4.0719414e-05 -9.2714542e-19)
(0.28159489 4.2239074e-05 -1.7809843e-18)
(0.27346016 3.8326583e-05 -8.2478351e-19)
(0.26393413 3.1355332e-05 -7.1751349e-19)
(0.25258815 2.3116927e-05 -2.2867378e-19)
(0.23837166 1.4901744e-05 -3.9521367e-20)
(0.21873987 7.9860513e-06 1.0049094e-20)
(0.18433109 2.75428e-06 1.0682384e-19)
(0.29554243 1.2734545e-05 3.2116373e-18)
(0.29300902 2.8785964e-05 -1.9345672e-19)
(0.28806805 3.645879e-05 -1.5991583e-19)
(0.28144412 3.7782356e-05 1.250418e-18)
(0.27343685 3.4127628e-05 1.6699996e-18)
(0.26400215 2.7696569e-05 1.2135148e-18)
(0.2527137 2.0187762e-05 2.4030701e-19)
(0.23852383 1.2822149e-05 1.4537856e-19)
(0.2188902 6.7497235e-06 -4.5293562e-20)
(0.184454 2.2832644e-06 1.0626534e-20)
(0.29502658 1.1183952e-05 1.0672517e-18)
(0.29258572 2.5387546e-05 1.4978357e-18)
(0.28779254 3.2190813e-05 1.1023973e-18)
(0.2813125 3.3289033e-05 1.0634879e-18)
(0.2734205 2.9894358e-05 1.2806405e-18)
(0.26406732 2.4026734e-05 8.265854e-19)
(0.25282826 1.7274901e-05 5.1658887e-19)
(0.23865859 1.077695e-05 1.960455e-19)
(0.21901908 5.5483446e-06 5.177804e-20)
(0.18455519 1.8307866e-06 -3.1894643e-21)
(0.2945749 9.7089738e-06 2.256881e-18)
(0.29221468 2.2110969e-05 4.8834174e-18)
(0.28755186 2.803187e-05 2.1738616e-18)
(0.2812001 2.8885408e-05 7.099781e-19)
(0.27341088 2.574468e-05 -8.1252915e-19)
(0.2641292 2.0445639e-05 -3.2947847e-19)
(0.25293145 1.4455566e-05 -2.8197322e-19)
(0.23877585 8.8190068e-06 -8.8830121e-20)
(0.21912699 4.4122949e-06 -7.2206631e-20)
(0.18463576 1.4079812e-06 -9.5121644e-20)
(0.29418418 8.3284114e-06 4.622393e-18)
(0.29189389 1.9012359e-05 3.9097516e-18)
(0.28734516 2.40654e-05 2.56922e-18)
(0.2811065 2.4666586e-05 2.6284457e-18)
(0.27340761 2.1770235e-05 1.5861538e-18)
(0.26418743 1.7031998e-05 6.9354583e-19)
(0.25302315 1.1790567e-05 -1.9434663e-21)
(0.238876 6.9892398e-06 -2.4024029e-20)
(0.21921497 3.3644291e-06 -6.1000781e-20)
(0.18469724 1.0229685e-06 -1.5944912e-19)
(0.29385046 7.0531279e-06 3.2855204e-19)
(0.29162052 1.6127249e-05 -2.4277541e-19)
(0.28717088 2.0348261e-05 3.5900053e-18)
(0.2810308 2.0700638e-05 2.546079e-18)
(0.27341012 1.8038453e-05 2.2908257e-18)
(0.26424177 1.3844158e-05 1.7340557e-18)
(0.25310353 9.3244343e-06 9.8157594e-19)
(0.23895978 5.3166464e-06 4.2831113e-19)
(0.21928439 2.4201377e-06 3.3053946e-19)
(0.18474149 6.809097e-07 7.8036763e-20)
(0.29356933 5.8882935e-06 2.0974554e-18)
(0.2913912 1.3475877e-05 9.8101471e-19)
(0.28702691 1.6916318e-05 2.6014486e-18)
(0.28097179 1.7032981e-05 2.8249964e-18)
(0.27341774 1.4595441e-05 2.0520606e-18)
(0.264292 1.0921891e-05 1.6801439e-18)
(0.25317294 7.0865878e-06 1.180144e-18)
(0.2390282 3.819147e-06 6.4596307e-19)
(0.21933692 1.58793e-06 4.0213775e-19)
(0.18477054 3.8424092e-07 2.3534846e-19)
(0.29333616 4.8350801e-06 9.9740604e-19)
(0.29120222 1.1067354e-05 2.248962e-18)
(0.28691084 1.378933e-05 3.056091e-18)
(0.28092801 1.3690803e-05 4.2158186e-18)
(0.27342971 1.1469517e-05 3.5182917e-18)
(0.264338 8.2891606e-06 1.8465869e-18)
(0.25323189 5.0935608e-06 1.4610407e-18)
(0.23908247 2.5053796e-06 1.0148196e-18)
(0.21937437 8.7077407e-07 7.2451853e-19)
(0.18478648 1.3328963e-07 4.93913e-19)
(0.29314629 3.8917765e-06 3.4787114e-19)
(0.29104977 8.9026224e-06 2.0479233e-18)
(0.28682003 1.09747e-05 2.9299918e-18)
(0.28089785 1.0686694e-05 3.6191836e-18)
(0.27344524 8.6742622e-06 3.7463535e-18)
(0.26437968 5.9565201e-06 2.8439281e-18)
(0.25328103 3.3506849e-06 1.8893734e-18)
(0.23912392 1.3756176e-06 1.295238e-18)
(0.21939862 2.7204185e-07 9.793666e-19)
(0.18479138 -6.9403987e-08 5.8085862e-19)
(0.29299509 3.0546029e-06 1.2837747e-18)
(0.29092999 6.9765321e-06 1.8936095e-18)
(0.28675177 8.4701597e-06 3.0612608e-19)
(0.28087964 8.0213041e-06 1.3913841e-18)
(0.27346351 6.2107548e-06 2.564721e-18)
(0.26441701 3.9229563e-06 2.3265779e-18)
(0.25332108 1.8544585e-06 1.8975644e-18)
(0.23915391 4.292882e-07 1.4154846e-18)
(0.21941121 -2.1338716e-07 9.401306e-19)
(0.18478762 -2.2804532e-07 5.9486628e-19)
(0.29287813 2.3183694e-06 1.4147494e-18)
(0.2908391 5.2797002e-06 2.6226739e-18)
(0.28670334 6.2664982e-06 2.6387011e-18)
(0.28087169 5.6865216e-06 1.1899688e-18)
(0.27348376 4.0709842e-06 9.3335542e-19)
(0.26445004 2.1801019e-06 2.0650848e-18)
(0.25335274 5.9998521e-07 1.8525478e-18)
(0.23917354 -3.4277789e-07 1.475179e-18)
(0.21941459 -6.0389947e-07 1.2244759e-18)
(0.18477675 -3.537478e-07 8.4819424e-19)
(0.29279118 1.677163e-06 1.2555977e-18)
(0.29077351 3.8002906e-06 2.0807274e-18)
(0.28667213 4.3502421e-06 2.6689462e-18)
(0.28087238 3.6688896e-06 1.1818876e-18)
(0.27350524 2.2423385e-06 1.5490636e-18)
(0.26447878 7.1891581e-07 1.6678652e-18)
(0.25337659 -4.2699413e-07 1.6679291e-18)
(0.23918482 -9.6346736e-07 1.3616463e-18)
(0.21941033 -9.1318834e-07 1.124678e-18)
(0.18476022 -4.5116554e-07 8.9663281e-19)
(0.29273027 1.1246294e-06 1.1014937e-18)
(0.29072978 2.5248938e-06 1.3379063e-18)
(0.28665561 2.7051925e-06 3.4232006e-18)
(0.28088015 1.9522432e-06 4.1071502e-18)
(0.27352725 7.1181932e-07 3.5477475e-18)
(0.26450318 -4.7913961e-07 1.9772062e-18)
(0.25339399 -1.2540795e-06 1.717173e-18)
(0.23918902 -1.4519303e-06 1.496682e-18)
(0.2193999 -1.1477e-06 1.2350776e-18)
(0.18473941 -5.2179056e-07 1.0458174e-18)
(0.29269168 6.5426073e-07 2.1839021e-18)
(0.29070471 1.4395589e-06 2.4924329e-18)
(0.28665142 1.3150531e-06 2.7293576e-18)
(0.28089349 5.2105481e-07 3.7757559e-18)
(0.27354904 -5.4267968e-07 2.8476035e-18)
(0.2645239 -1.4451114e-06 2.3176777e-18)
(0.25340576 -1.9051931e-06 1.9999012e-18)
(0.23918729 -1.8207671e-06 1.7263214e-18)
(0.21938462 -1.3140689e-06 1.5016599e-18)
(0.18471557 -5.6788644e-07 1.1371367e-18)
(0.29267197 2.5996657e-07 3.5381308e-18)
(0.29069527 5.3136008e-07 2.8568263e-18)
(0.28665726 1.6269668e-07 7.7364982e-20)
(0.28091097 -6.4997635e-07 7.9493206e-19)
(0.27357051 -1.5544872e-06 1.764683e-18)
(0.26454118 -2.2063796e-06 2.149493e-18)
(0.25341263 -2.3979311e-06 2.0005579e-18)
(0.23918073 -2.0825546e-06 1.7791446e-18)
(0.2193657 -1.4204871e-06 1.2989652e-18)
(0.18468977 -5.9260449e-07 1.0536099e-18)
(0.29266794 -6.4734706e-08 1.2633582e-18)
(0.29069867 -2.1550072e-07 2.0225017e-18)
(0.28667114 -7.7692633e-07 3.4246735e-18)
(0.28093168 -1.5934965e-06 1.2386526e-18)
(0.27359128 -2.3520333e-06 1.321528e-18)
(0.26455525 -2.7839638e-06 2.3053127e-18)
(0.25341532 -2.7497523e-06 1.8962796e-18)
(0.23917033 -2.2509805e-06 1.8103575e-18)
(0.21934422 -1.4757554e-06 1.59509e-18)
(0.18466296 -5.9940856e-07 1.2153058e-18)
(0.29267672 -3.2790998e-07 -1.2039262e-18)
(0.29071247 -8.20316e-07 7.1687554e-19)
(0.28669139 -1.5303466e-06 2.1278426e-18)
(0.28095463 -2.3350288e-06 1.3791153e-18)
(0.27361101 -2.9576275e-06 1.6333071e-18)
(0.26456637 -3.1987442e-06 1.5802859e-18)
(0.25341449 -2.9789984e-06 1.613776e-18)
(0.23915701 -2.3399755e-06 1.6789364e-18)
(0.21932111 -1.488571e-06 1.5872514e-18)
(0.18463592 -5.9174829e-07 1.2299436e-18)
(0.29269581 -5.3701649e-07 2.1018162e-18)
(0.29073454 -1.2996596e-06 1.0594342e-18)
(0.28671645 -2.1178875e-06 6.4397219e-19)
(0.28097891 -2.8963218e-06 1.4839053e-18)
(0.27362945 -3.3935632e-06 9.9239141e-19)
(0.2645748 -3.4719135e-06 1.1023496e-18)
(0.25341078 -3.1037071e-06 1.5533621e-18)
(0.23914156 -2.3628099e-06 1.5798977e-18)
(0.21929716 -1.4670072e-06 1.5145852e-18)
(0.18460928 -5.7276048e-07 1.1855245e-18)
(0.29272297 -6.9805599e-07 1.8791656e-18)
(0.29076294 -1.6674367e-06 1.9884463e-18)
(0.28674497 -2.5581771e-06 1.109022e-18)
(0.28100379 -3.2987793e-06 8.2155512e-19)
(0.27364645 -3.6818966e-06 -2.6487667e-19)
(0.26458083 -3.6239765e-06 8.3188309e-19)
(0.25340477 -3.1409137e-06 1.4700174e-18)
(0.23912469 -2.3317206e-06 1.4899051e-18)
(0.21927303 -1.4183393e-06 1.4310507e-18)
(0.18458355 -5.4519137e-07 1.2427997e-18)
(0.29275622 -8.1668411e-07 1.7301088e-18)
(0.290796 -1.9367856e-06 2.5611608e-18)
(0.28677574 -2.8691435e-06 4.3330208e-18)
(0.28102864 -3.5630564e-06 2.4633554e-18)
(0.27366188 -3.843632e-06 2.2504316e-18)
(0.26458475 -3.6740983e-06 8.6913059e-19)
(0.25339699 -3.1062034e-06 1.2293883e-18)
(0.239107 -2.257623e-06 1.3214454e-18)
(0.21924927 -1.3488568e-06 1.1049642e-18)
(0.18455911 -5.1128957e-07 1.0912131e-18)
(0.29279384 -8.9823246e-07 2.1567216e-18)
(0.29083221 -2.1201465e-06 3.0547018e-18)
(0.28680774 -3.0678362e-06 5.6005814e-18)
(0.28105295 -3.7086888e-06 3.3708e-18)
(0.2736757 -3.898386e-06 2.8220971e-18)
(0.26458684 -3.6398799e-06 2.2474152e-18)
(0.2533879 -3.0136008e-06 1.7031808e-18)
(0.23908902 -2.1501137e-06 1.5545426e-18)
(0.2192263 -1.2639562e-06 1.516505e-18)
(0.18453621 -4.7292319e-07 1.1670554e-18)
(0.2928343 -9.4767964e-07 2.1661323e-18)
(0.29087032 -2.2291811e-06 2.3538777e-18)
(0.2868401 -3.1702319e-06 1.2083753e-20)
(0.2810763 -3.7538562e-06 1.861354e-18)
(0.2736879 -3.8641909e-06 2.3134415e-18)
(0.26458738 -3.5372393e-06 2.7266222e-18)
(0.25337794 -2.8755501e-06 2.0674574e-18)
(0.23907116 -2.0175278e-06 1.7319423e-18)
(0.21920445 -1.1682089e-06 1.6367988e-18)
(0.18451507 -4.3163879e-07 1.2611044e-18)
(0.2928763 -9.6968572e-07 1.9570093e-18)
(0.29090921 -2.2747937e-06 1.4967712e-18)
(0.28687212 -3.1912185e-06 6.6220709e-19)
(0.2810984 -3.7153651e-06 1.6415868e-18)
(0.27369851 -3.7575192e-06 1.8974924e-18)
(0.26458662 -3.3805079e-06 1.8856076e-18)
(0.25336744 -2.7030774e-06 1.8215029e-18)
(0.23905376 -1.8671426e-06 1.7234143e-18)
(0.21918398 -1.0655599e-06 1.5233843e-18)
(0.18449577 -3.8879633e-07 1.2188072e-18)
(0.29291874 -9.6858079e-07 -4.3893512e-19)
(0.29094799 -2.2671164e-06 8.5875054e-19)
(0.28690319 -3.1445701e-06 1.2161116e-18)
(0.281119 -3.608644e-06 1.1595778e-18)
(0.27370759 -3.5933238e-06 4.3703496e-19)
(0.26458481 -3.1825153e-06 1.5791693e-18)
(0.25335674 -2.5059071e-06 1.714671e-18)
(0.23903711 -1.7052814e-06 1.6726086e-18)
(0.21916504 -9.5939006e-07 1.4229569e-18)
(0.1844784 -3.4558575e-07 1.2438652e-18)
(0.2929607 -9.4839716e-07 1.3165601e-18)
(0.29098588 -2.2155579e-06 2.2536454e-18)
(0.28693286 -3.0430063e-06 3.4024343e-18)
(0.28113795 -3.4478205e-06 1.910641e-18)
(0.27371521 -3.3851469e-06 1.8650508e-18)
(0.26458217 -2.9547321e-06 8.9923886e-19)
(0.25334607 -2.2926155e-06 1.3697635e-18)
(0.23902142 -1.5374534e-06 1.4585594e-18)
(0.21914777 -8.5262165e-07 1.3079306e-18)
(0.18446297 -3.030562e-07 1.2419537e-18)
(0.29300143 -9.128334e-07 1.5759109e-18)
(0.2910223 -2.1287519e-06 3.831356e-18)
(0.28696077 -2.8981404e-06 4.3089278e-18)
(0.28115514 -3.2456743e-06 3.083286e-18)
(0.27372148 -3.1450804e-06 2.357819e-18)
(0.2645789 -2.7072416e-06 1.8356731e-18)
(0.25333565 -2.0706048e-06 1.6621124e-18)
(0.23900683 -1.3683083e-06 1.6807906e-18)
(0.21913222 -7.4765371e-07 1.6630942e-18)
(0.18444944 -2.6203922e-07 1.3148752e-18)
(0.29304032 -8.6526903e-07 9.276647e-20)
(0.29105675 -2.0145703e-06 1.6975276e-18)
(0.28698667 -2.720485e-06 -4.4640168e-19)
(0.28117054 -3.0136453e-06 2.1596591e-18)
(0.2737265 -2.8837919e-06 2.329981e-18)
(0.26457517 -2.4487799e-06 2.7201325e-18)
(0.25332566 -1.8461501e-06 2.2239069e-18)
(0.23899344 -1.2016854e-06 2.0156705e-18)
(0.21911839 -6.4640759e-07 1.8248488e-18)
(0.18443775 -2.2316373e-07 1.3870765e-18)
(0.29307693 -8.0872619e-07 1.4588589e-18)
(0.2910889 -1.8800539e-06 6.5648198e-19)
(0.28701037 -2.5193693e-06 1.3685682e-18)
(0.28118414 -2.7617507e-06 1.4908085e-18)
(0.2737304 -2.610454e-06 2.5234055e-18)
(0.26457115 -2.1866866e-06 2.4051068e-18)
(0.25331622 -1.6243677e-06 2.1785026e-18)
(0.23898133 -1.0405884e-06 2.0247005e-18)
(0.21910626 -5.5029417e-07 1.8821104e-18)
(0.1844278 -1.8682349e-07 1.4797311e-18)
(0.29311091 -7.4588518e-07 1.9296278e-18)
(0.2911185 -1.7314254e-06 1.5296857e-18)
(0.2870318 -2.3029543e-06 1.6147298e-18)
(0.281196 -2.4986183e-06 1.6452515e-18)
(0.2737333 -2.3328029e-06 1.7030399e-18)
(0.26456697 -1.9269877e-06 2.0951681e-18)
(0.25330743 -1.4093164e-06 2.0756622e-18)
(0.2389705 -8.8729232e-07 1.8322795e-18)
(0.21909577 -4.603146e-07 1.7379719e-18)
(0.18441949 -1.5325621e-07 1.4281428e-18)
(0.29314205 -6.7907321e-07 1.8858305e-18)
(0.29114541 -1.5740786e-06 1.5480186e-18)
(0.28705092 -2.0782336e-06 2.4553439e-18)
(0.28120617 -2.2315101e-06 2.4079423e-18)
(0.27373531 -2.0571934e-06 2.2443906e-18)
(0.26456275 -1.6744778e-06 1.0620705e-18)
(0.25329935 -1.2040886e-06 1.607411e-18)
(0.23896094 -7.4342585e-07 1.5975154e-18)
(0.21908684 -3.7711367e-07 1.3318584e-18)
(0.18441268 -1.2257744e-07 1.3228294e-18)
(0.29317022 -6.1029356e-07 2.0903055e-18)
(0.29116956 -1.4126355e-06 2.8378997e-18)
(0.28706775 -1.8511203e-06 4.8692955e-18)
(0.28121477 -1.9664491e-06 2.8578288e-18)
(0.27373657 -1.7887631e-06 2.1261632e-18)
(0.26455858 -1.4329057e-06 2.1463903e-18)
(0.25329202 -1.010996e-06 1.7487308e-18)
(0.23895263 -6.1012941e-07 1.6546408e-18)
(0.21907937 -3.0109406e-07 1.5755326e-18)
(0.18440725 -9.4846333e-08 1.3236765e-18)
(0.29319537 -5.4124643e-07 1.8644724e-18)
(0.29119094 -1.2510008e-06 2.8124418e-18)
(0.28708236 -1.62654e-06 3.401916e-19)
(0.28122188 -1.7083511e-06 1.6755144e-18)
(0.27373717 -1.5315904e-06 2.3704233e-18)
(0.26455455 -1.2051344e-06 2.5180613e-18)
(0.25328546 -8.317054e-07 1.8835957e-18)
(0.23894551 -4.8815145e-07 1.6922424e-18)
(0.21907326 -2.3247319e-07 1.7058802e-18)
(0.18440306 -7.0090359e-08 1.3775019e-18)
(0.29321753 -4.7335419e-07 -1.0952234e-19)
(0.29120961 -1.0924292e-06 2.1765548e-18)
(0.28709485 -1.4085371e-06 3.9076487e-19)
(0.28122764 -1.4611635e-06 1.6464287e-18)
(0.27373723 -1.2888467e-06 1.8473082e-18)
(0.26455071 -9.9328979e-07 1.9665734e-18)
(0.25327967 -6.6736934e-07 1.9921952e-18)
(0.23893952 -3.7794135e-07 1.9334903e-18)
(0.21906838 -1.7132786e-07 1.8020253e-18)
(0.18439997 -4.8302576e-08 1.4530114e-18)
(0.29323677 -4.0778451e-07 9.2457672e-19)
(0.29122567 -9.3957888e-07 1.7620744e-18)
(0.28710533 -1.2003576e-06 1.658055e-18)
(0.28123216 -1.227967e-06 1.8444172e-18)
(0.27373684 -1.0629053e-06 6.2993714e-19)
(0.2645471 -7.9885603e-07 2.0010938e-18)
(0.25327462 -5.1868363e-07 2.0301375e-18)
(0.23893457 -2.7966846e-07 1.9450466e-18)
(0.21906461 -1.1760022e-07 1.7389096e-18)
(0.18439785 -2.9435479e-08 1.4554361e-18)
(0.2932532 -3.4546016e-07 1.4195573e-18)
(0.29123925 -7.9454705e-07 1.491381e-18)
(0.28711394 -1.004507e-06 3.6202199e-18)
(0.28123558 -1.0110461e-06 2.6305027e-18)
(0.27373609 -8.5540575e-07 2.414904e-18)
(0.26454376 -6.2271978e-07 1.2654614e-18)
(0.2532703 -3.8591233e-07 1.5479313e-18)
(0.23893058 -1.9322619e-07 1.5794182e-18)
(0.21906184 -7.1080002e-08 1.3353606e-18)
(0.18439657 -1.3368929e-08 1.3011067e-18)