/*--------------------------------*- C++ -*----------------------------------*\
| =========                 |                                                 |
| \\      /  F ield         | OpenFOAM: The Open Source CFD Toolbox           |
|  \\    /   O peration     | Version:  2506                                  |
|   \\  /    A nd           | Website:  www.openfoam.com                      |
|    \\/     M anipulation  |                                                 |
\*---------------------------------------------------------------------------*/
FoamFile
{
    version     2.0;
    format      ascii;
    arch        "LSB;label=32;scalar=64";
    class       volScalarField;
    location    "19000/water";
    object      alphat;
}
// * * * * * * * * * * * * * * * * * * * * * * * * * * * * * * * * * * * * * //

dimensions      [1 -1 -1 0 0 0 0];

internalField   nonuniform List<scalar> 
6000
(
0.041292847
0.041292824
0.041292831
0.041292856
0.041292889
0.041292932
0.041292983
0.041293016
0.041292808
0.041290571
0.041271537
0.041111294
0.0397723
0.030564074
0.013464793
0.040788543
0.040788537
0.040788576
0.040788654
0.040788758
0.040788888
0.04078902
0.040788972
0.040787494
0.040776037
0.040696382
0.040161217
0.036863805
0.023766469
0.015141611
0.04033569
0.040335696
0.040335761
0.040335884
0.040336044
0.040336229
0.04033633
0.040335685
0.040330323
0.040296649
0.040097616
0.038983223
0.033614213
0.0194951
0.016360294
0.039926215
0.039926219
0.039926301
0.039926459
0.03992666
0.039926848
0.039926701
0.039924457
0.039910659
0.039835636
0.039448738
0.037597438
0.030384627
0.016783058
0.017196555
0.039553796
0.039553808
0.039553906
0.039554093
0.039554312
0.039554413
0.039553622
0.0395481
0.039519187
0.039379112
0.038737841
0.036066498
0.027427863
0.015063192
0.01773179
0.039213273
0.039213296
0.039213408
0.039213613
0.039213809
0.039213657
0.039211571
0.039200298
0.039147643
0.038916647
0.037965398
0.034462847
0.024852826
0.013984463
0.018040007
0.038900366
0.038900399
0.038900521
0.038900723
0.038900826
0.038900159
0.038895819
0.03887551
0.038788999
0.038441492
0.037140256
0.032849727
0.022675913
0.013336844
0.018183117
0.038611532
0.038611573
0.038611697
0.038611866
0.038611765
0.038610199
0.038602307
0.038568928
0.038437606
0.037950377
0.036275872
0.031274836
0.020870828
0.012994967
0.018210197
0.038343817
0.038343862
0.038343975
0.038344065
0.038343601
0.038340605
0.038327517
0.03827644
0.038089201
0.037442856
0.03538704
0.029770034
0.019396999
0.012882914
0.018158676
0.038094736
0.03809478
0.038094862
0.038094803
0.038093753
0.038088644
0.038068396
0.037994592
0.037740813
0.036920504
0.03448763
0.028354169
0.018213448
0.012953916
0.018056304
0.037862183
0.037862216
0.037862238
0.037861935
0.037860009
0.037851941
0.037822294
0.037720559
0.037390607
0.036386134
0.033589398
0.02703684
0.017284481
0.013178532
0.017923231
0.03764436
0.037644371
0.037644291
0.037643618
0.037640447
0.037628426
0.037586933
0.037452106
0.037037684
0.035843147
0.032701562
0.025821837
0.016581272
0.013537499
0.017773886
0.037439726
0.037439699
0.03743946
0.037438254
0.037433393
0.037416287
0.037360374
0.037187532
0.036681868
0.035295042
0.031830871
0.02470985
0.016081614
0.014017191
0.017618497
0.037246949
0.037246861
0.037246392
0.037244452
0.037237378
0.037213943
0.037140989
0.036925609
0.0363235
0.034745073
0.030981931
0.023700436
0.015768976
0.014606606
0.017464261
0.037064871
0.037064693
0.037063903
0.037060987
0.037051109
0.037020016
0.036927437
0.036665512
0.035963258
0.03419604
0.030157673
0.022793377
0.015631332
0.015295285
0.017316197
0.03689248
0.036892177
0.036890955
0.036886782
0.036873442
0.036833316
0.036718634
0.03640675
0.035602004
0.033650187
0.029359858
0.021989539
0.015659917
0.016071914
0.01717775
0.036728885
0.036728414
0.036726628
0.036720878
0.03670337
0.036652818
0.036513731
0.036149096
0.035240656
0.033109157
0.028589603
0.021291346
0.015847992
0.016923492
0.017051196
0.036573301
0.03657261
0.036570106
0.036562424
0.036540005
0.036477653
0.03631208
0.035892529
0.034880099
0.032574024
0.027847913
0.02070292
0.016189617
0.01783505
0.016937916
0.036425028
0.036424056
0.036420663
0.036410663
0.036382564
0.036307092
0.036113215
0.03563717
0.034521109
0.032045349
0.027136212
0.020229919
0.016678486
0.018789895
0.016838558
0.036283441
0.03628212
0.036277645
0.036264917
0.036230367
0.036140535
0.03591682
0.035383242
0.034164308
0.031523285
0.026456862
0.019879123
0.017306891
0.019770317
0.016753165
0.036147982
0.036146234
0.036140468
0.036124584
0.036082821
0.035977497
0.035722708
0.035131018
0.033810124
0.031007717
0.025813646
0.019657797
0.018064912
0.0207586
0.016681265
0.036018143
0.036015885
0.036008605
0.035989127
0.035939416
0.035817597
0.035530799
0.034880794
0.033458783
0.030498445
0.025212142
0.019572905
0.018939949
0.021738147
0.016621966
0.03589347
0.03589061
0.035881581
0.035858069
0.035799718
0.035660549
0.035341095
0.034632853
0.033110301
0.029995409
0.024659951
0.019630248
0.019916664
0.02269449
0.016574063
0.035773545
0.035769987
0.035758968
0.035730991
0.035663366
0.035506152
0.035153669
0.034387441
0.032764498
0.029498968
0.024166686
0.019833637
0.020977366
0.023616003
0.016536152
0.035657992
0.035653635
0.035640383
0.035607524
0.035530063
0.035354279
0.034968643
0.03414475
0.03242103
0.029010211
0.023743688
0.020184173
0.022102784
0.024494228
0.016506745
0.035546464
0.035541207
0.035525479
0.035487349
0.035399574
0.035204869
0.034786172
0.033904896
0.032079439
0.028531301
0.023403466
0.020679734
0.023273104
0.025323802
0.016484372
0.035438647
0.035432386
0.035413948
0.035370193
0.035271718
0.035057919
0.034606436
0.03366791
0.03173923
0.028065808
0.023158914
0.021314706
0.0244691
0.026102089
0.016467662
0.035334251
0.035326887
0.035305516
0.035255823
0.03514637
0.034913479
0.03442962
0.033433727
0.031399978
0.02761899
0.023022388
0.022080017
0.02567317
0.026828633
0.016455398
0.035233012
0.035224448
0.035199939
0.03514405
0.035023453
0.034771643
0.034255909
0.033202186
0.031061475
0.027197981
0.02300477
0.022963453
0.026870128
0.027504567
0.016446544
0.035134691
0.035124836
0.035097009
0.035034724
0.034902936
0.03463254
0.03408547
0.032973033
0.030723902
0.0268118
0.023114633
0.02395025
0.02804767
0.028132079
0.016440248
0.035039067
0.03502784
0.034996542
0.034927732
0.034784832
0.034496333
0.033918446
0.032745938
0.030388046
0.026471167
0.023357597
0.025023883
0.02919649
0.028713983
0.016435834
0.034945943
0.034933275
0.034898386
0.034822996
0.034669194
0.034363211
0.033754944
0.032520522
0.030055535
0.026188099
0.023735915
0.026166983
0.030310099
0.029253407
0.016432778
0.034855141
0.034840974
0.034802418
0.034720475
0.034556112
0.034233382
0.033595029
0.032296402
0.029729078
0.025975302
0.024248334
0.02736225
0.031384439
0.029753594
0.016430685
0.034766502
0.034750797
0.03470854
0.034620164
0.034445715
0.034107066
0.033438713
0.032073259
0.029412693
0.025845434
0.02489019
0.028593298
0.032417399
0.030217765
0.016429265
0.034679887
0.034662624
0.034616684
0.034522088
0.034338162
0.033984492
0.033285952
0.031850929
0.029111866
0.025810314
0.025653731
0.029845306
0.033408314
0.030649046
0.016428312
0.034595176
0.034576356
0.034526808
0.034426308
0.034233647
0.033865888
0.033136649
0.03162952
0.028833633
0.025880169
0.026528619
0.031105458
0.03435753
0.03105041
0.016427682
0.034512269
0.034491917
0.034438897
0.034332917
0.034132389
0.033751478
0.032990657
0.031409555
0.028586514
0.02606301
0.027502554
0.032363144
0.035266042
0.031424648
0.01642728
0.034431083
0.034409252
0.034352965
0.034242042
0.034034637
0.033641469
0.032847794
0.031192142
0.028380315
0.026364175
0.028561978
0.033609948
0.036135248
0.031774346
0.016427047
0.034351558
0.034328331
0.034269052
0.034153841
0.033940664
0.03353605
0.032707869
0.03097915
0.028225758
0.02678609
0.029692788
0.034839473
0.03696677
0.032101874
0.01642695
0.034273652
0.034249145
0.03418723
0.034068505
0.03385076
0.033435383
0.03257072
0.030773393
0.028133997
0.02732822
0.030880993
0.036047067
0.037762344
0.032409381
0.016426974
0.034197344
0.03417171
0.034107598
0.033986257
0.033765237
0.033339598
0.032436275
0.030578781
0.028116032
0.027987224
0.032113284
0.037229503
0.038523755
0.032698799
0.016427117
0.034122637
0.034096065
0.034030285
0.033907355
0.033684417
0.033248788
0.032304627
0.030400435
0.028182107
0.028757249
0.03337746
0.038384663
0.039252794
0.032971855
0.016427382
0.034049553
0.034022276
0.033955452
0.033832084
0.033608631
0.033163012
0.03217613
0.030244714
0.02834114
0.029630358
0.034662707
0.039511265
0.039951228
0.033230086
0.016427779
0.03397814
0.033950437
0.033883292
0.033760766
0.033538214
0.033082299
0.032051523
0.030119154
0.028600247
0.030597021
0.035959727
0.040608641
0.040620777
0.033474856
0.016428318
0.033908471
0.033880668
0.033814033
0.033693749
0.033473498
0.033006661
0.031932061
0.03003229
0.028964396
0.031646651
0.037260744
0.041676558
0.0412631
0.033707373
0.01642901
0.033840644
0.033813121
0.033747936
0.033631414
0.033414804
0.032936114
0.031819661
0.029993368
0.029436211
0.032768129
0.038559405
0.042715108
0.04187978
0.033928706
0.016429865
0.033774787
0.03374798
0.033685299
0.033574167
0.033362441
0.032870717
0.031717044
0.030011961
0.030015933
0.033950283
0.039850629
0.043724612
0.042472314
0.034139802
0.016430892
0.033711057
0.03368546
0.033626458
0.03352244
0.033316699
0.032810615
0.031627853
0.030097519
0.030701523
0.035182301
0.041130415
0.044705564
0.043042114
0.034341502
0.016432097
0.033649643
0.033625814
0.033571787
0.033476689
0.033277844
0.032756112
0.031556734
0.030258903
0.031488877
0.036454044
0.042395663
0.045658587
0.043590498
0.034534553
0.016433487
0.03359077
0.033569333
0.033521698
0.033437387
0.03324612
0.032707756
0.031509357
0.030503938
0.032372143
0.037756266
0.043643995
0.046584395
0.044118699
0.034719618
0.016435064
0.033534699
0.033516348
0.033476647
0.033405019
0.033221753
0.032666433
0.031492358
0.030839027
0.033344087
0.039080734
0.044873611
0.04748377
0.044627864
0.034897289
0.016436831
0.033481731
0.033467235
0.033437127
0.033380083
0.033204961
0.032633491
0.031513196
0.031268865
0.034396491
0.040420264
0.046083175
0.048357533
0.04511906
0.035068097
0.016438788
0.033432211
0.033422413
0.033403675
0.033363076
0.033195977
0.032610855
0.031579922
0.031796264
0.035520554
0.041768689
0.047271717
0.049206531
0.045593277
0.035232514
0.016440933
0.033386531
0.033382352
0.033376864
0.033354497
0.033195078
0.03260115
0.031700871
0.03242209
0.036707255
0.043120788
0.048438563
0.050031614
0.046051438
0.035390969
0.016443266
0.033345134
0.033347573
0.033357309
0.033354836
0.033202628
0.032607792
0.031884306
0.033145317
0.037947674
0.04447218
0.049583282
0.050833633
0.046494398
0.035543845
0.016445782
0.033308518
0.033318652
0.033345661
0.033364571
0.033219142
0.032635061
0.032138041
0.033963177
0.03923325
0.045819222
0.050705639
0.051613422
0.046922952
0.03569149
0.016448478
0.033277237
0.03329622
0.033342601
0.033384174
0.033245363
0.032688109
0.032469069
0.034871381
0.040555966
0.047158892
0.05180556
0.052371796
0.04733784
0.035834219
0.016451351
0.033251914
0.033280969
0.033348845
0.033414106
0.033282344
0.032772916
0.032883245
0.035864398
0.041908471
0.0484887
0.052883101
0.053109548
0.047739749
0.03597232
0.016454394
0.033233235
0.033273652
0.033365128
0.033454835
0.033331562
0.032896164
0.033385032
0.036935758
0.04328414
0.049806604
0.053938419
0.053827443
0.048129319
0.036106053
0.016457603
0.033221962
0.033275082
0.033392211
0.033506851
0.033395016
0.033065049
0.033977333
0.038078362
0.044677085
0.051110934
0.054971757
0.054526219
0.048507145
0.036235659
0.016460974
0.033218934
0.033286139
0.033430864
0.033570696
0.033475331
0.03328702
0.034661419
0.039284776
0.046082129
0.052400341
0.055983418
0.055206587
0.048873783
0.036361356
0.016464499
0.033225073
0.033307763
0.033481871
0.033647008
0.033575844
0.033569482
0.035436949
0.04054749
0.047494761
0.053673744
0.056973754
0.055869226
0.049229756
0.036483354
0.016468174
0.033241386
0.033340955
0.033546021
0.033736578
0.033700659
0.033919475
0.036302064
0.041859135
0.048911066
0.054930291
0.05794315
0.056514768
0.049575443
0.036601083
0.01647199
0.033268972
0.03338678
0.033624112
0.03384042
0.03385465
0.03434336
0.037253555
0.043212654
0.05032767
0.056169322
0.058892007
0.057143807
0.049911242
0.036714879
0.016475942
0.033309024
0.033446355
0.033716953
0.03395986
0.034043419
0.034846535
0.038287073
0.044601422
0.051741665
0.057390338
0.059820745
0.057756911
0.050237556
0.036825045
0.016480019
0.03336283
0.033520852
0.033825376
0.034096627
0.03427318
0.035433215
0.039397372
0.046019311
0.053150556
0.058592977
0.060729791
0.058354635
0.050554797
0.036931851
0.016484214
0.033431775
0.033611491
0.033950257
0.034252953
0.034550589
0.03610627
0.040578555
0.047460735
0.05455221
0.059776991
0.061619574
0.058937454
0.050862923
0.037035581
0.016488518
0.033517344
0.033719533
0.034092548
0.034431664
0.034882513
0.03686715
0.04182432
0.048920647
0.055944805
0.060942226
0.062490516
0.059505811
0.051162151
0.037136396
0.016492923
0.033621114
0.033846282
0.034253323
0.034636249
0.035275764
0.037715881
0.043128176
0.050394524
0.057326791
0.062088605
0.063343035
0.060060163
0.051452981
0.037234384
0.016497425
0.033744758
0.033993079
0.034433835
0.034870905
0.03573681
0.038651135
0.044483636
0.051878335
0.058696857
0.063216114
0.064177552
0.060600973
0.05173585
0.037329653
0.016502019
0.033890035
0.034161309
0.034635591
0.035140532
0.036271502
0.039670357
0.045884367
0.053368504
0.060053898
0.064324793
0.064994471
0.061128572
0.052011162
0.037422331
0.0165067
0.034058787
0.034352405
0.03486044
0.03545067
0.036884814
0.040769937
0.047324304
0.054861867
0.061396988
0.065414725
0.065794142
0.061642947
0.052279305
0.037512562
0.016511467
0.034252938
0.034567873
0.035110664
0.03580739
0.037580644
0.041945407
0.048797734
0.056355636
0.062725354
0.066486016
0.066576929
0.062144667
0.052540483
0.037600453
0.016516317
0.034474482
0.034809314
0.035389065
0.036217113
0.03836167
0.043191651
0.050299335
0.057847353
0.064038355
0.067538803
0.067343213
0.062634244
0.052794917
0.037686088
0.016521247
0.03472549
0.035078475
0.035699051
0.036686389
0.039229272
0.044503114
0.051824201
0.059334856
0.06533546
0.06857325
0.068093394
0.063112137
0.053042836
0.037769546
0.016526253
0.035008112
0.035377301
0.036044683
0.037221645
0.040183532
0.04587399
0.053367848
0.060816255
0.066616243
0.069589501
0.06882737
0.063578807
0.05328449
0.037850923
0.016531331
0.035324591
0.03570801
0.036430697
0.03782891
0.041223285
0.04729839
0.054926195
0.062289889
0.06788035
0.070587708
0.069545619
0.064034565
0.053520088
0.037930306
0.016536479
0.035677288
0.036073176
0.036862464
0.038513563
0.042346232
0.048770486
0.056495548
0.063754304
0.069127488
0.071568061
0.070248613
0.064479709
0.053749815
0.038007771
0.016541693
0.036068724
0.036475823
0.037345905
0.039280099
0.043549088
0.050284609
0.058072569
0.065208224
0.070357433
0.072530785
0.070936788
0.064914535
0.05397385
0.03808338
0.016546969
0.036501631
0.036919507
0.03788734
0.040131951
0.044827757
0.051835338
0.059654259
0.066650547
0.07157
0.073475728
0.071610524
0.065339341
0.054192383
0.038157196
0.016552305
0.036979027
0.037408387
0.038493288
0.041071364
0.046177515
0.053417545
0.061237917
0.068080293
0.072765015
0.074403188
0.072270172
0.06575439
0.054405591
0.038229281
0.016557696
0.037504289
0.037947272
0.03917022
0.042099341
0.047593198
0.055026428
0.062821117
0.069496596
0.073942365
0.075313494
0.072916048
0.066159929
0.054613631
0.038299688
0.01656314
0.038081244
0.038541611
0.039924302
0.043215647
0.049069367
0.05665752
0.064401679
0.070898703
0.07510191
0.076206924
0.073548449
0.0665562
0.054816652
0.038368466
0.016568632
0.03871424
0.039197434
0.040761127
0.044418875
0.050600459
0.058306695
0.065977656
0.072285946
0.076243439
0.077083727
0.074167654
0.066943446
0.055014794
0.038435662
0.01657417
0.039408196
0.03992123
0.041685471
0.04570655
0.052180915
0.059970152
0.067547279
0.073657702
0.077366975
0.077944205
0.074773922
0.067321889
0.055208189
0.038501318
0.016579751
0.040168606
0.040719759
0.042701091
0.047075282
0.053805276
0.061644391
0.069108948
0.075013441
0.078472605
0.078788616
0.075367508
0.067691736
0.055396963
0.038565473
0.01658537
0.041001491
0.041599802
0.043810578
0.048520925
0.055468263
0.063326226
0.070661261
0.076352561
0.07956026
0.079617162
0.075948662
0.068053183
0.055581228
0.03862816
0.016591025
0.041913265
0.042567883
0.045015266
0.05003875
0.05716482
0.06501272
0.072202873
0.077674599
0.080630132
0.080430046
0.076517619
0.068406418
0.055761094
0.038689414
0.016596712
0.042910542
0.043629958
0.046315214
0.051623609
0.058890145
0.066701164
0.073732566
0.078979243
0.081682352
0.08122747
0.077074598
0.068751613
0.055936658
0.038749263
0.016602429
0.043999846
0.044791114
0.047709242
0.053270093
0.06063973
0.068389125
0.075249201
0.080266022
0.08271697
0.082009629
0.077619803
0.069088931
0.056108014
0.038807734
0.016608172
0.045187284
0.046055304
0.049195012
0.05497266
0.062409323
0.070074286
0.076751679
0.081534843
0.083734047
0.082776707
0.078153429
0.069418522
0.056275246
0.038864851
0.016613937
0.046478174
0.047425113
0.050769153
0.056725738
0.064194937
0.071754501
0.078239059
0.082785578
0.08473365
0.083528871
0.078675654
0.069740525
0.056438431
0.038920634
0.016619723
0.047876675
0.048901607
0.052427408
0.058523833
0.06599289
0.073427804
0.079710319
0.084018006
0.085715842
0.084266275
0.079186643
0.070055068
0.056597641
0.038975103
0.016625525
0.049385447
0.050484239
0.054164778
0.060361546
0.067799637
0.075092236
0.081164972
0.085231944
0.086680675
0.084989062
0.079686547
0.070362267
0.056752939
0.039028275
0.016631341
0.051005388
0.052170838
0.055975689
0.062233676
0.069611917
0.076745846
0.082602393
0.086427217
0.087628188
0.085697357
0.080175503
0.070662229
0.056904383
0.039080162
0.016637167
0.052735452
0.053957655
0.057854101
0.064135132
0.071426507
0.078387245
0.084021975
0.087603649
0.088558409
0.086391269
0.080653632
0.070955048
0.057052025
0.039130776
0.016643001
0.054572586
0.055839487
0.059793666
0.066061029
0.073240176
0.08001514
0.085423141
0.088761061
0.089471351
0.087070891
0.081121043
0.071240808
0.057195908
0.039180128
0.016648839
0.05651177
0.057809811
0.061787734
0.068006449
0.075050355
0.081628272
0.086805334
0.089899264
0.090367009
0.087736298
0.081577826
0.071519583
0.057336072
0.039228222
0.016654679
0.058546171
0.05986097
0.063829437
0.0699666
0.07685467
0.083225444
0.088168008
0.091018059
0.091245362
0.088387547
0.082024058
0.071791434
0.057472547
0.039275066
0.016660517
0.060667325
0.061984255
0.065911636
0.071937321
0.078650869
0.084805507
0.089510624
0.092117234
0.092106368
0.089024674
0.0824598
0.072056411
0.05760536
0.039320659
0.01666635
0.062865343
0.06417027
0.0680275
0.073914601
0.080436803
0.086367357
0.090832644
0.093196561
0.092949963
0.089647698
0.082885096
0.072314555
0.05773453
0.039365003
0.016672175
0.065129371
0.066409223
0.070170249
0.075894572
0.082210411
0.087909922
0.09213353
0.094255795
0.093776065
0.090256616
0.083299975
0.072565893
0.05786007
0.039408095
0.016677989
0.067447975
0.068691105
0.07233319
0.077873492
0.083969714
0.089432155
0.093412738
0.095294672
0.094584566
0.090851404
0.083704448
0.072810442
0.057981985
0.039449931
0.016683788
0.069809492
0.071005897
0.074509751
0.079847736
0.085712797
0.090933035
0.094669719
0.096312909
0.095375336
0.091432018
0.084098511
0.073048206
0.058100276
0.039490502
0.01668957
0.072202344
0.073343741
0.076693523
0.081813787
0.087437805
0.092411558
0.095903918
0.097310205
0.096148226
0.091998392
0.084482141
0.07327918
0.058214935
0.0395298
0.01669533
0.074615299
0.075695106
0.078878296
0.083768232
0.089142935
0.093866739
0.097114775
0.098286241
0.096903061
0.092550443
0.084855302
0.073503345
0.05832595
0.039567812
0.016701064
0.077037678
0.07805091
0.081058097
0.085707768
0.090826434
0.095297607
0.098301725
0.099240681
0.097639649
0.093088063
0.085217938
0.073720672
0.058433301
0.039604523
0.016706771
0.079459504
0.080402622
0.083227228
0.087629199
0.092486594
0.09670321
0.0994642
0.10017318
0.098357778
0.093611131
0.08556998
0.07393112
0.058536961
0.039639918
0.016712444
0.081871607
0.082742337
0.085380298
0.089529452
0.094121758
0.098082614
0.10060164
0.10108337
0.099057221
0.094119505
0.085911343
0.074134639
0.058636898
0.039673976
0.016718081
0.084265674
0.085062817
0.087512258
0.091405583
0.095730321
0.09943491
0.10171347
0.1019709
0.099737737
0.094613032
0.086241931
0.074331166
0.058733074
0.039706675
0.016723677
0.086634274
0.087357521
0.089618418
0.093254792
0.097310733
0.10075921
0.10279915
0.10283539
0.10039908
0.095091542
0.086561633
0.074520633
0.058825444
0.039737993
0.016729227
0.088970846
0.089620604
0.091694471
0.095074435
0.098861513
0.10205467
0.10385815
0.10367649
0.10104098
0.095554859
0.086870331
0.07470296
0.058913961
0.039767903
0.016734728
0.091269664
0.091846905
0.093736503
0.09686204
0.10038125
0.10332047
0.10488995
0.10449382
0.1016632
0.096002799
0.087167896
0.074878063
0.058998571
0.039796378
0.016740174
0.0935258
0.094031923
0.095740993
0.098615315
0.10186861
0.10455583
0.10589405
0.10528706
0.10226547
0.096435176
0.087454195
0.075045851
0.059079218
0.039823389
0.016745561
0.095735059
0.096171782
0.097704816
0.10033216
0.10332235
0.10576003
0.10687
0.10605587
0.10284756
0.096851804
0.087729094
0.07520623
0.059155841
0.039848907
0.016750882
0.097893927
0.098263193
0.099625233
0.10201066
0.10474132
0.10693241
0.10781737
0.10679996
0.10340923
0.097252504
0.087992455
0.075359104
0.05922838
0.0398729
0.016756134
0.099999504
0.10030341
0.10149988
0.10364914
0.10612448
0.10807234
0.10873578
0.10751904
0.10395026
0.097637102
0.088244146
0.075504376
0.059296773
0.039895338
0.01676131
0.10204944
0.10229017
0.10332674
0.10524607
0.10747089
0.10917929
0.1096249
0.10821289
0.10447047
0.098005442
0.088484041
0.075641954
0.05936096
0.039916191
0.016766405
0.1040419
0.10422167
0.10510414
0.10680018
0.10877972
0.11025276
0.11048443
0.10888128
0.10496968
0.098357379
0.088712022
0.075771748
0.059420881
0.039935429
0.016771414
0.10597546
0.10609652
0.10683074
0.10831036
0.11005025
0.11129237
0.11131414
0.10952407
0.10544776
0.098692793
0.088927986
0.075893676
0.059476482
0.039953026
0.01677633
0.10784912
0.10791367
0.10850545
0.10977572
0.1112819
0.11229777
0.11211384
0.11014113
0.10590461
0.099011586
0.089131841
0.076007666
0.059527712
0.039968954
0.016781148
0.10966218
0.10967242
0.1101275
0.11119554
0.11247417
0.1132687
0.11288341
0.11073238
0.10634016
0.099313685
0.089323517
0.076113654
0.059574526
0.039983191
0.016785862
0.11141428
0.11137234
0.11169632
0.11256929
0.11362671
0.11420498
0.11362278
0.1112978
0.10675438
0.09959905
0.089502964
0.076211592
0.059616888
0.039995719
0.016790467
0.1131053
0.11301326
0.11321161
0.11389658
0.11473925
0.11510652
0.11433194
0.11183741
0.10714727
0.099867668
0.089670152
0.076301447
0.059654769
0.04000652
0.016794957
0.11473537
0.11459522
0.11467322
0.11517722
0.11581166
0.11597327
0.11501094
0.11235127
0.10751891
0.10011956
0.089825078
0.0763832
0.059688152
0.040015585
0.016799326
0.11630478
0.11611846
0.11608124
0.11641114
0.11684388
0.11680528
0.11565989
0.11283951
0.10786937
0.10035479
0.089967764
0.076456854
0.059717029
0.040022907
0.01680357
0.11781403
0.11758341
0.11743587
0.11759842
0.11783597
0.11760268
0.11627895
0.1133023
0.10819879
0.10057344
0.090098261
0.076522426
0.059741404
0.040028486
0.016807684
0.11926374
0.11899062
0.11873748
0.11873924
0.1187881
0.11836563
0.11686834
0.11373984
0.10850736
0.10077564
0.090216646
0.076579959
0.059761295
0.040032326
0.016811663
0.12065468
0.12034078
0.11998658
0.11983392
0.1197005
0.11909441
0.11742832
0.11415239
0.10879529
0.10096156
0.090323023
0.076629512
0.059776732
0.040034439
0.016815503
0.1219877
0.12163469
0.12118377
0.12088287
0.12057349
0.11978932
0.11795923
0.11454027
0.10906283
0.10113138
0.090417527
0.076671166
0.059787758
0.040034841
0.016819199
0.12326377
0.12287323
0.12232975
0.1218866
0.12140747
0.12045073
0.11846142
0.11490381
0.10931028
0.10128533
0.090500319
0.076705025
0.059794429
0.040033557
0.01682275
0.12448393
0.12405738
0.12342532
0.1228457
0.12220292
0.12107908
0.11893531
0.1152434
0.10953798
0.10142369
0.090571588
0.07673121
0.059796815
0.040030615
0.016826151
0.12564926
0.12518819
0.12447134
0.12376083
0.12296036
0.12167485
0.11938137
0.11555945
0.10974628
0.10154673
0.090631548
0.076749866
0.059795
0.040026052
0.016829401
0.12676094
0.12626673
0.12546876
0.12463274
0.1236804
0.12223856
0.11980007
0.11585243
0.10993559
0.10165478
0.090680437
0.076761154
0.059789079
0.040019908
0.016832497
0.12782015
0.12729417
0.12641854
0.1254622
0.12436367
0.12277079
0.12019196
0.11612282
0.11010632
0.10174819
0.09071852
0.076765255
0.059779161
0.04001223
0.016835437
0.12882814
0.12827167
0.12732173
0.12625005
0.12501087
0.12327214
0.12055759
0.11637113
0.11025892
0.10182733
0.090746079
0.076762368
0.059765365
0.040003071
0.016838222
0.12978616
0.12920047
0.1281794
0.12699719
0.12562273
0.12374327
0.12089755
0.11659791
0.11039388
0.10189259
0.09076342
0.076752706
0.059747821
0.039992488
0.01684085
0.13069552
0.13008178
0.12899264
0.12770453
0.12620003
0.12418484
0.12121247
0.11680371
0.11051169
0.10194439
0.090770865
0.076736499
0.059726669
0.039980541
0.016843322
0.1315575
0.13091688
0.12976259
0.12837302
0.12674356
0.12459756
0.12150297
0.11698912
0.11061285
0.10198315
0.090768752
0.076713989
0.059702058
0.039967297
0.016845638
0.13237343
0.13170703
0.1304904
0.12900364
0.12725415
0.12498215
0.12176973
0.11715474
0.11069791
0.10200933
0.090757433
0.076685428
0.059674144
0.039952823
0.016847798
0.13314463
0.13245352
0.13117722
0.12959739
0.12773266
0.12533937
0.1220134
0.11730117
0.1107674
0.10202337
0.090737273
0.076651081
0.059643091
0.039937192
0.016849806
0.13387241
0.13315761
0.13182423
0.13015529
0.12817994
0.12566997
0.12223469
0.11742904
0.11082188
0.10202577
0.090708648
0.07661122
0.059609068
0.039920477
0.016851662
0.13455811
0.13382061
0.13243261
0.13067836
0.12859689
0.12597473
0.12243429
0.117539
0.11086191
0.10201698
0.09067194
0.076566123
0.059572248
0.039902754
0.016853369
0.13520305
0.13444379
0.13300354
0.13116765
0.12898441
0.12625443
0.1226129
0.11763166
0.11088805
0.10199751
0.090627538
0.076516076
0.059532807
0.0398841
0.01685493
0.13580853
0.13502843
0.1335382
0.13162418
0.12934338
0.12650988
0.12277125
0.11770769
0.11090089
0.10196783
0.090575836
0.076461366
0.059490925
0.039864592
0.016856347
0.13637586
0.1355758
0.13403776
0.13204901
0.12967472
0.12674186
0.12291005
0.11776773
0.11090099
0.10192844
0.09051723
0.076402284
0.059446782
0.039844308
0.016857624
0.13690633
0.13608715
0.13450341
0.13244318
0.12997935
0.12695119
0.12303001
0.11781242
0.11088894
0.10187983
0.090452119
0.076339121
0.05940056
0.039823325
0.016858766
0.13740121
0.13656373
0.13493629
0.13280772
0.13025816
0.12713866
0.12313186
0.11784242
0.1108653
0.1018225
0.090380898
0.076272169
0.059352438
0.039801721
0.016859774
0.13786176
0.13700677
0.13533756
0.13314367
0.13051207
0.12730507
0.1232163
0.11785835
0.11083064
0.10175693
0.090303962
0.076201717
0.059302596
0.039779571
0.016860655
0.13828924
0.13741748
0.13570837
0.13345205
0.13074198
0.12745122
0.12328406
0.11786088
0.11078554
0.1016836
0.090221704
0.076128052
0.05925121
0.039756951
0.016861411
0.13868486
0.13779707
0.13604982
0.13373387
0.13094879
0.1275779
0.12333584
0.11785062
0.11073055
0.101603
0.09013451
0.076051457
0.059198455
0.039733931
0.016862048
0.13904983
0.13814671
0.13636304
0.13399015
0.13113337
0.1276859
0.12337233
0.1178282
0.11066622
0.10151561
0.090042761
0.075972211
0.059144499
0.039710584
0.016862571
0.13938532
0.13846755
0.13664911
0.13422186
0.13129661
0.12777598
0.12339423
0.11779424
0.11059311
0.10142188
0.089946832
0.075890586
0.059089511
0.039686978
0.016862983
0.13969252
0.13876073
0.1369091
0.13442998
0.13143938
0.12784892
0.12340222
0.11774935
0.11051173
0.10132226
0.089847089
0.075806849
0.05903365
0.039663177
0.016863289
0.13997254
0.13902737
0.13714407
0.13461547
0.13156252
0.12790547
0.12339697
0.11769412
0.11042263
0.10121722
0.089743891
0.075721259
0.058977073
0.039639247
0.016863495
0.14022651
0.13926856
0.13735505
0.13477928
0.13166688
0.12794637
0.12337914
0.11762914
0.11032631
0.10110718
0.089637588
0.075634068
0.058919931
0.039615246
0.016863605
0.14045552
0.13948537
0.13754305
0.13492232
0.13175328
0.12797235
0.12334938
0.11755499
0.11022327
0.10099258
0.089528517
0.07554552
0.058862369
0.039591232
0.016863624
0.14066063
0.13967884
0.13770905
0.13504551
0.13182253
0.12798413
0.12330832
0.11747222
0.11011402
0.10087381
0.089417009
0.07545585
0.058804526
0.03956726
0.016863557
0.14084289
0.13984998
0.13785404
0.13514972
0.13187542
0.12798242
0.12325658
0.11738139
0.10999902
0.1007513
0.089303382
0.075365284
0.058746534
0.039543381
0.016863408
0.14100331
0.13999981
0.13797894
0.13523583
0.13191273
0.12796789
0.12319477
0.11728303
0.10987873
0.10062542
0.089187943
0.075274039
0.058688519
0.039519642
0.016863183
0.14114288
0.14012928
0.13808469
0.13530469
0.13193522
0.12794122
0.12312349
0.11717766
0.10975362
0.10049656
0.089070987
0.075182323
0.058630601
0.03949609
0.016862885
0.14126256
0.14023934
0.13817218
0.13535711
0.13194363
0.12790307
0.12304331
0.11706579
0.10962412
0.10036507
0.088952799
0.075090334
0.058572893
0.039472765
0.016862519
0.1413633
0.14033091
0.13824228
0.13539391
0.13193869
0.12785408
0.1229548
0.11694791
0.10949065
0.10023131
0.088833651
0.07499826
0.058515501
0.039449708
0.01686209
0.141446
0.14040489
0.13829586
0.13541588
0.13192109
0.12779487
0.1228585
0.1168245
0.10935361
0.10009562
0.088713803
0.074906281
0.058458525
0.039426952
0.016861602
0.14151155
0.14046215
0.13833373
0.13542376
0.13189152
0.12772605
0.12275495
0.11669602
0.10921342
0.099958326
0.088593504
0.074814566
0.058402058
0.039404532
0.016861059
0.14156082
0.14050352
0.1383567
0.13541832
0.13185066
0.12764821
0.12264466
0.11656292
0.10907044
0.09981973
0.08847299
0.074723273
0.058346187
0.039382477
0.016860465
0.14159464
0.14052984