/*--------------------------------*- C++ -*----------------------------------*\
| =========                 |                                                 |
| \\      /  F ield         | OpenFOAM: The Open Source CFD Toolbox           |
|  \\    /   O peration     | Version:  2506                                  |
|   \\  /    A nd           | Website:  www.openfoam.com                      |
|    \\/     M anipulation  |                                                 |
\*---------------------------------------------------------------------------*/
FoamFile
{
    version     2.0;
    format      ascii;
    arch        "LSB;label=32;scalar=64";
    class       volScalarField;
    location    "19000/water";
    object      T;
}
// * * * * * * * * * * * * * * * * * * * * * * * * * * * * * * * * * * * * * //

dimensions      [0 0 0 1 0 0 0];

internalField   nonuniform List<scalar> 
6000
(
333.15
333.15
333.15
333.15
333.15
333.15
333.15
333.15
333.15
333.15
333.15
333.14998
333.14989
333.14924
333.14256
333.15
333.15
333.15
333.15
333.15
333.15
333.15
333.15
333.15
333.15
333.14999
333.14994
333.14968
333.14816
333.13667
333.15
333.15
333.15
333.15
333.15
333.15
333.15
333.15
333.15
333.14999
333.14997
333.14987
333.14939
333.14689
333.13172
333.15
333.15
333.15
333.15
333.15
333.15
333.15
333.15
333.15
333.14999
333.14994
333.14976
333.14903
333.14547
333.12739
333.15
333.15
333.15
333.15
333.15
333.15
333.15
333.15
333.14999
333.14997
333.1499
333.14963
333.1486
333.14396
333.12352
333.15
333.15
333.15
333.15
333.15
333.15
333.15
333.15
333.14999
333.14996
333.14985
333.14947
333.14812
333.14237
333.11999
333.15
333.15
333.15
333.15
333.15
333.15
333.15
333.14999
333.14998
333.14994
333.14978
333.14929
333.1476
333.14073
333.11674
333.15
333.15
333.15
333.15
333.15
333.15
333.15
333.14999
333.14997
333.14991
333.1497
333.14909
333.14703
333.13906
333.11373
333.15
333.15
333.15
333.15
333.15
333.15
333.15
333.14999
333.14996
333.14987
333.14961
333.14886
333.14643
333.13737
333.11093
333.15
333.15
333.15
333.15
333.15
333.15
333.14999
333.14998
333.14994
333.14983
333.14951
333.14862
333.14578
333.13567
333.10831
333.15
333.15
333.15
333.15
333.15
333.15
333.14999
333.14998
333.14993
333.14978
333.1494
333.14836
333.1451
333.13396
333.10587
333.15
333.15
333.15
333.15
333.15
333.15
333.14999
333.14997
333.1499
333.14973
333.14928
333.14807
333.14437
333.13227
333.10358
333.15
333.15
333.15
333.15
333.15
333.14999
333.14998
333.14996
333.14988
333.14967
333.14915
333.14777
333.14361
333.13059
333.10144
333.15
333.15
333.15
333.15
333.15
333.14999
333.14998
333.14994
333.14985
333.14961
333.14901
333.14745
333.1428
333.12894
333.09945
333.15
333.15
333.15
333.15
333.15
333.14999
333.14997
333.14993
333.14982
333.14954
333.14886
333.1471
333.14195
333.12731
333.0976
333.15
333.15
333.15
333.15
333.15
333.14999
333.14997
333.14991
333.14978
333.14946
333.1487
333.14673
333.14106
333.12572
333.09588
333.15
333.15
333.15
333.15
333.14999
333.14998
333.14996
333.1499
333.14974
333.14938
333.14852
333.14634
333.14013
333.12417
333.0943
333.15
333.15
333.15
333.15
333.14999
333.14998
333.14995
333.14988
333.1497
333.14929
333.14834
333.14591
333.13916
333.12266
333.09285
333.15
333.15
333.15
333.15
333.14999
333.14998
333.14994
333.14985
333.14965
333.1492
333.14814
333.14546
333.13814
333.12121
333.09152
333.15
333.15
333.15
333.14999
333.14999
333.14997
333.14993
333.14983
333.1496
333.14909
333.14793
333.14497
333.13709
333.11981
333.09031
333.15
333.15
333.15
333.14999
333.14999
333.14997
333.14992
333.1498
333.14955
333.14899
333.1477
333.14444
333.13601
333.11848
333.08921
333.15
333.15
333.15
333.14999
333.14998
333.14996
333.1499
333.14977
333.14949
333.14887
333.14745
333.14388
333.13491
333.1172
333.08822
333.15
333.15
333.15
333.14999
333.14998
333.14995
333.14989
333.14974
333.14943
333.14875
333.14719
333.14328
333.13379
333.11599
333.08732
333.15
333.15
333.14999
333.14999
333.14998
333.14994
333.14987
333.14971
333.14936
333.14861
333.1469
333.14263
333.13267
333.11484
333.08651
333.15
333.15
333.14999
333.14999
333.14997
333.14993
333.14985
333.14967
333.14929
333.14847
333.14659
333.14195
333.13154
333.11376
333.08579
333.15
333.15
333.14999
333.14998
333.14997
333.14992
333.14983
333.14963
333.14921
333.14831
333.14625
333.14123
333.13043
333.11274
333.08513
333.15
333.15
333.14999
333.14998
333.14996
333.14991
333.14981
333.14959
333.14913
333.14815
333.14589
333.14047
333.12933
333.11178
333.08454
333.15
333.14999
333.14999
333.14998
333.14996
333.1499
333.14979
333.14954
333.14904
333.14797
333.14549
333.13967
333.12825
333.11087
333.084
333.15
333.14999
333.14999
333.14998
333.14995
333.14989
333.14976
333.14949
333.14895
333.14777
333.14507
333.13885
333.12721
333.11002
333.08352
333.14999
333.14999
333.14999
333.14997
333.14994
333.14987
333.14973
333.14944
333.14884
333.14756
333.14461
333.13801
333.1262
333.10922
333.08308
333.14999
333.14999
333.14998
333.14997
333.14993
333.14986
333.1497
333.14939
333.14873
333.14733
333.14412
333.13715
333.12523
333.10846
333.08268
333.14999
333.14999
333.14998
333.14996
333.14992
333.14984
333.14967
333.14932
333.14862
333.14708
333.14359
333.13629
333.12429
333.10775
333.08232
333.14999
333.14999
333.14998
333.14996
333.14991
333.14982
333.14964
333.14926
333.14849
333.14681
333.14303
333.13542
333.12339
333.10708
333.08198
333.14999
333.14999
333.14998
333.14995
333.1499
333.1498
333.1496
333.14919
333.14835
333.14652
333.14245
333.13455
333.12253
333.10645
333.08168
333.14999
333.14998
333.14997
333.14995
333.14989
333.14978
333.14956
333.14911
333.1482
333.1462
333.14183
333.1337
333.12171
333.10585
333.0814
333.14999
333.14998
333.14997
333.14994
333.14988
333.14976
333.14952
333.14903
333.14803
333.14586
333.1412
333.13285
333.12092
333.10528
333.08114
333.14999
333.14998
333.14997
333.14993
333.14987
333.14974
333.14947
333.14895
333.14786
333.14549
333.14054
333.13202
333.12017
333.10474
333.0809
333.14998
333.14998
333.14996
333.14993
333.14985
333.14971
333.14942
333.14885
333.14766
333.14509
333.13986
333.13121
333.11945
333.10423
333.08068
333.14998
333.14998
333.14996
333.14992
333.14984
333.14968
333.14937
333.14875
333.14745
333.14467
333.13918
333.13042
333.11876
333.10375
333.08047
333.14998
333.14997
333.14995
333.14991
333.14982
333.14965
333.14931
333.14864
333.14723
333.14423
333.13849
333.12966
333.11811
333.10329
333.08028
333.14998
333.14997
333.14995
333.1499
333.1498
333.14962
333.14925
333.14852
333.14698
333.14375
333.13779
333.12891
333.11748
333.10285
333.0801
333.14997
333.14996
333.14994
333.14989
333.14978
333.14958
333.14918
333.14839
333.14672
333.14326
333.13709
333.12819
333.11687
333.10244
333.07993
333.14997
333.14996
333.14993
333.14988
333.14976
333.14954
333.14911
333.14824
333.14643
333.14275
333.1364
333.12749
333.1163
333.10204
333.07978
333.14997
333.14996
333.14993
333.14986
333.14974
333.1495
333.14903
333.14809
333.14612
333.14221
333.13571
333.12681
333.11574
333.10166
333.07963
333.14996
333.14995
333.14992
333.14985
333.14972
333.14946
333.14895
333.14792
333.14579
333.14167
333.13503
333.12616
333.11521
333.1013
333.0795
333.14996
333.14995
333.14991
333.14984
333.14969
333.14941
333.14886
333.14774
333.14544
333.14111
333.13437
333.12553
333.1147
333.10095
333.07937
333.14995
333.14994
333.1499
333.14982
333.14966
333.14936
333.14876
333.14754
333.14507
333.14054
333.13371
333.12491
333.11421
333.10062
333.07925
333.14995
333.14993
333.14989
333.1498
333.14963
333.1493
333.14865
333.14733
333.14468
333.13996
333.13306
333.12432
333.11373
333.1003
333.07914
333.14994
333.14993
333.14988
333.14979
333.1496
333.14924
333.14853
333.1471
333.14427
333.13938
333.13243
333.12375
333.11328
333.09999
333.07904
333.14994
333.14992
333.14987
333.14977
333.14957
333.14918
333.14841
333.14686
333.14384
333.1388
333.13182
333.1232
333.11284
333.0997
333.07894
333.14993
333.14991
333.14986
333.14974
333.14953
333.14911
333.14827
333.14659
333.1434
333.13822
333.13121
333.12266
333.11242
333.09942
333.07885
333.14993
333.1499
333.14984
333.14972
333.14949
333.14903
333.14812
333.14631
333.14294
333.13764
333.13062
333.12214
333.11201
333.09915
333.07877
333.14992
333.14989
333.14983
333.1497
333.14944
333.14894
333.14796
333.14601
333.14247
333.13707
333.13005
333.12164
333.11162
333.09889
333.07869
333.14991
333.14988
333.14981
333.14967
333.14939
333.14885
333.14779
333.14569
333.14199
333.1365
333.12949
333.12115
333.11124
333.09864
333.07861
333.1499
333.14987
333.1498
333.14964
333.14934
333.14876
333.1476
333.14536
333.1415
333.13594
333.12894
333.12068
333.11087
333.0984
333.07854
333.14989
333.14986
333.14978
333.14961
333.14928
333.14865
333.1474
333.14501
333.14101
333.13538
333.12841
333.12022
333.11051
333.09816
333.07848
333.14988
333.14985
333.14976
333.14958
333.14922
333.14853
333.14718
333.14464
333.14051
333.13483
333.12789
333.11977
333.11017
333.09794
333.07842
333.14987
333.14983
333.14974
333.14954
333.14916
333.14841
333.14695
333.14426
333.14
333.13429
333.12738
333.11934
333.10984
333.09772
333.07836
333.14986
333.14982
333.14971
333.1495
333.14908
333.14827
333.1467
333.14386
333.1395
333.13376
333.12689
333.11892
333.10951
333.09751
333.07831
333.14985
333.1498
333.14969
333.14946
333.149
333.14812
333.14643
333.14346
333.139
333.13324
333.12641
333.11852
333.1092
333.09731
333.07826
333.14983
333.14978
333.14966
333.14941
333.14892
333.14796
333.14615
333.14304
333.1385
333.13273
333.12594
333.11812
333.1089
333.09712
333.07821
333.14982
333.14976
333.14963
333.14936
333.14882
333.14779
333.14586
333.14262
333.138
333.13223
333.12548
333.11773
333.1086
333.09693
333.07817
333.1498
333.14974
333.1496
333.1493
333.14872
333.14761
333.14555
333.14218
333.1375
333.13173
333.12504
333.11736
333.10832
333.09675
333.07813
333.14978
333.14972
333.14956
333.14924
333.14861
333.14741
333.14522
333.14174
333.13701
333.13125
333.1246
333.117
333.10804
333.09657
333.07809
333.14976
333.1497
333.14952
333.14917
333.1485
333.1472
333.14489
333.1413
333.13652
333.13077
333.12417
333.11664
333.10777
333.0964
333.07806
333.14974
333.14967
333.14948
333.1491
333.14837
333.14697
333.14454
333.14086
333.13604
333.13031
333.12376
333.1163
333.1075
333.09623
333.07803
333.14972
333.14964
333.14944
333.14903
333.14823
333.14673
333.14418
333.14041
333.13557
333.12985
333.12335
333.11596
333.10725
333.09607
333.078
333.14969
333.14961
333.14939
333.14894
333.14808
333.14648
333.14381
333.13996
333.1351
333.12941
333.12296
333.11563
333.107
333.09591
333.07797
333.14967
333.14957
333.14933
333.14885
333.14792
333.14621
333.14343
333.13951
333.13463
333.12897
333.12257
333.11531
333.10675
333.09576
333.07794
333.14964
333.14954
333.14928
333.14875
333.14774
333.14593
333.14304
333.13906
333.13417
333.12854
333.12219
333.115
333.10652
333.09561
333.07792
333.14961
333.1495
333.14921
333.14864
333.14756
333.14564
333.14264
333.13861
333.13372
333.12812
333.12182
333.11469
333.10629
333.09546
333.0779
333.14957
333.14945
333.14914
333.14852
333.14736
333.14533
333.14224
333.13817
333.13328
333.1277
333.12146
333.1144
333.10606
333.09532
333.07788
333.14953
333.1494
333.14907
333.1484
333.14714
333.14501
333.14184
333.13772
333.13284
333.1273
333.12111
333.1141
333.10584
333.09519
333.07786
333.14949
333.14935
333.14899
333.14826
333.14692
333.14468
333.14143
333.13728
333.13241
333.1269
333.12076
333.11382
333.10563
333.09506
333.07784
333.14944
333.14929
333.1489
333.14811
333.14668
333.14434
333.14102
333.13685
333.13198
333.12651
333.12042
333.11354
333.10542
333.09493
333.07782
333.14939
333.14923
333.1488
333.14795
333.14643
333.14399
333.14061
333.13641
333.13156
333.12613
333.12009
333.11327
333.10521
333.0948
333.07781
333.14934
333.14916
333.14869
333.14778
333.14616
333.14363
333.14019
333.13598
333.13115
333.12576
333.11977
333.113
333.10501
333.09468
333.07779
333.14928
333.14908
333.14858
333.14759
333.14588
333.14327
333.13978
333.13556
333.13074
333.12539
333.11945
333.11274
333.10482
333.09456
333.07778
333.14921
333.149
333.14845
333.1474
333.14559
333.1429
333.13936
333.13514
333.13034
333.12503
333.11914
333.11249
333.10463
333.09444
333.07776
333.14914
333.14891
333.14832
333.14719
333.14529
333.14252
333.13895
333.13472
333.12995
333.12467
333.11883
333.11224
333.10444
333.09432
333.07775
333.14906
333.14881
333.14817
333.14696
333.14498
333.14214
333.13854
333.13431
333.12956
333.12432
333.11853
333.11199
333.10425
333.09421
333.07774
333.14897
333.1487
333.14801
333.14672
333.14466
333.14175
333.13812
333.1339
333.12918
333.12398
333.11824
333.11175
333.10407
333.0941
333.07773
333.14888
333.14858
333.14784
333.14647
333.14432
333.14137
333.13771
333.1335
333.1288
333.12364
333.11795
333.11152
333.1039
333.09399
333.07772
333.14877
333.14845
333.14765
333.14621
333.14398
333.14097
333.13731
333.1331
333.12843
333.12331
333.11766
333.11128
333.10373
333.09389
333.07771
333.14865
333.14831
333.14746
333.14594
333.14363
333.14058
333.1369
333.13271
333.12807
333.12299
333.11738
333.11106
333.10356
333.09378
333.0777
333.14853
333.14816
333.14724
333.14565
333.14328
333.14019
333.1365
333.13232
333.12771
333.12267
333.11711
333.11084
333.10339
333.09368
333.07769
333.14839
333.14799
333.14702
333.14535
333.14292
333.13979
333.1361
333.13193
333.12736
333.12235
333.11684
333.11062
333.10322
333.09358
333.07768
333.14824
333.14781
333.14678
333.14504
333.14255
333.13939
333.1357
333.13155
333.12701
333.12204
333.11658
333.1104
333.10306
333.09348
333.07767
333.14807
333.14761
333.14652
333.14471
333.14217
333.139
333.1353
333.13118
333.12666
333.12174
333.11632
333.11019
333.1029
333.09338
333.07765
333.14789
333.1474
333.14626
333.14438
333.1418
333.1386
333.13491
333.13081
333.12633
333.12144
333.11606
333.10998
333.10275
333.09329
333.07764
333.14769
333.14718
333.14597
333.14404
333.14142
333.13821
333.13452
333.13044
333.12599
333.12115
333.11581
333.10978
333.10259
333.09319
333.07763
333.14748
333.14693
333.14568
333.14369
333.14103
333.13781
333.13414
333.13008
333.12566
333.12086
333.11556
333.10958
333.10244
333.0931
333.07762
333.14725
333.14667
333.14537
333.14333
333.14064
333.13742
333.13376
333.12972
333.12534
333.12057
333.11532
333.10938
333.10229
333.09301
333.07761
333.147
333.1464
333.14504
333.14297
333.14025
333.13702
333.13338
333.12937
333.12502
333.12029
333.11508
333.10918
333.10215
333.09292
333.0776
333.14673
333.1461
333.14471
333.14259
333.13986
333.13663
333.133
333.12902
333.1247
333.12001
333.11484
333.10899
333.102
333.09283
333.07759
333.14644
333.14579
333.14436
333.14221
333.13947
333.13624
333.13263
333.12867
333.12439
333.11974
333.11461
333.1088
333.10186
333.09274
333.07758
333.14613
333.14547
333.144
333.14183
333.13907
333.13585
333.13226
333.12833
333.12408
333.11947
333.11438
333.10861
333.10172
333.09265
333.07757
333.14581
333.14512
333.14363
333.14143
333.13867
333.13547
333.13189
333.128
333.12378
333.1192
333.11415
333.10843
333.10158
333.09256
333.07756
333.14546
333.14476
333.14325
333.14104
333.13828
333.13508
333.13153
333.12766
333.12348
333.11894
333.11393
333.10824
333.10144
333.09247
333.07754
333.1451
333.14439
333.14285
333.14064
333.13788
333.1347
333.13117
333.12733
333.12318
333.11868
333.11371
333.10806
333.1013
333.09239
333.07753
333.14472
333.144
333.14245
333.14023
333.13748
333.13431
333.13081
333.127
333.12289
333.11842
333.11349
333.10788
333.10117
333.0923
333.07751
333.14432
333.14359
333.14204
333.13982
333.13708
333.13393
333.13046
333.12668
333.1226
333.11817
333.11327
333.10771
333.10103
333.09222
333.0775
333.14391
333.14318
333.14162
333.13941
333.13668
333.13355
333.1301
333.12636
333.12231
333.11792
333.11306
333.10753
333.1009
333.09213
333.07748
333.14348
333.14275
333.1412
333.13899
333.13628
333.13318
333.12976
333.12604
333.12203
333.11767
333.11285
333.10736
333.10077
333.09205
333.07747
333.14303
333.14231
333.14076
333.13857
333.13588
333.1328
333.12941
333.12573
333.12175
333.11742
333.11264
333.10719
333.10064
333.09197
333.07745
333.14258
333.14186
333.14032
333.13815
333.13548
333.13243
333.12907
333.12542
333.12147
333.11718
333.11243
333.10702
333.10051
333.09188
333.07743
333.14212
333.1414
333.13988
333.13772
333.13508
333.13206
333.12872
333.12511
333.1212
333.11694
333.11223
333.10685
333.10038
333.0918
333.07741
333.14164
333.14093
333.13943
333.13729
333.13468
333.13168
333.12838
333.1248
333.12092
333.1167
333.11202
333.10669
333.10025
333.09172
333.07739
333.14116
333.14046
333.13897
333.13686
333.13428
333.13131
333.12805
333.1245
333.12065
333.11646
333.11182
333.10652
333.10013
333.09163
333.07737
333.14067
333.13998
333.13851
333.13643
333.13387
333.13095
333.12771
333.12419
333.12038
333.11623
333.11162
333.10636
333.1
333.09155
333.07735
333.14017
333.13949
333.13805
333.136
333.13347
333.13058
333.12738
333.12389
333.12012
333.116
333.11143
333.10619
333.09987
333.09147
333.07733
333.13967
333.13901
333.13759
333.13557
333.13308
333.13021
333.12705
333.1236
333.11985
333.11577
333.11123
333.10603
333.09975
333.09138
333.07731
333.13917
333.13852
333.13712
333.13513
333.13268
333.12985
333.12672
333.1233
333.11959
333.11554
333.11103
333.10587
333.09962
333.0913
333.07728
333.13867
333.13802
333.13666
333.1347
333.13228
333.12949
333.12639
333.12301
333.11933
333.11531
333.11084
333.10571
333.0995
333.09122
333.07725
333.13816
333.13753
333.13619
333.13427
333.13188
333.12913
333.12606
333.12272
333.11907
333.11509
333.11065
333.10555
333.09938
333.09113
333.07723
333.13765
333.13703
333.13572
333.13383
333.13148
333.12876
333.12574
333.12242
333.11882
333.11486
333.11046
333.10539
333.09925
333.09105
333.0772
333.13714
333.13654
333.13525
333.1334
333.13109
333.12841
333.12541
333.12214
333.11856
333.11464
333.11027
333.10523
333.09913
333.09096
333.07717
333.13664
333.13605
333.13479
333.13297
333.13069
333.12805
333.12509
333.12185
333.11831
333.11442
333.11008
333.10508
333.099
333.09088
333.07713
333.13613
333.13555
333.13432
333.13254
333.1303
333.12769
333.12477
333.12156
333.11805
333.1142
333.10989
333.10492
333.09888
333.09079
333.0771
333.13563
333.13506
333.13386
333.13211
333.1299
333.12734
333.12445
333.12128
333.1178
333.11398
333.1097
333.10476
333.09876
333.0907
333.07707
333.13512
333.13457
333.13339
333.13168
333.12951
333.12698
333.12413
333.12099
333.11755
333.11376
333.10951
333.10461
333.09863
333.09062
333.07703
333.13463
333.13409
333.13293
333.13125
333.12912
333.12663
333.12382
333.12071
333.1173
333.11354
333.10932
333.10445
333.09851
333.09053
333.07699
333.13413
333.13361
333.13247
333.13083
333.12874
333.12628
333.1235
333.12043
333.11705
333.11332
333.10914
333.10429
333.09838
333.09044
333.07695
333.13364
333.13313
333.13202
333.1304
333.12835
333.12593
333.12319
333.12015
333.11681
333.11311
333.10895
333.10414
333.09826
333.09035
333.07691
333.13315
333.13265
333.13157
333.12998
333.12796
333.12558
333.12288
333.11987
333.11656
333.11289
333.10877
333.10398
333.09813
333.09026
333.07687
333.13267
333.13218
333.13112
333.12957
333.12758
333.12523
333.12256
333.11959
333.11631
333.11268
333.10858
333.10383
333.09801
333.09017
333.07682
333.13219
333.13171
333.13067
333.12915
333.1272
333.12489
333.12225
333.11932
333.11607
333.11246
333.10839
333.10367
333.09788
333.09007
333.07678
333.13172
333.13125
333.13023
333.12874
333.12682
333.12455
333.12195
333.11904
333.11582
333.11225
333.10821
333.10351
333.09776
333.08998
333.07673
333.13125
333.13079
333.12979
333.12833
333.12645
333.1242
333.12164
333.11877
333.11558
333.11203
333.10802
333.10336
333.09763
333.08989
333.07668
333.13078
333.13033
333.12936
333.12792
333.12608
333.12387
333.12133
333.11849
333.11534
333.11182
333.10784
333.1032
333.0975
333.08979
333.07662
333.13032
333.12988
333.12893
333.12752
333.1257
333.12353
333.12103
333.11822
333.1151
333.11161
333.10765
333.10304
333.09737
333.08969
333.07657
333.12987
333.12944
333.1285
333.12712
333.12534
333.12319
333.12072
333.11795
333.11485
333.11139
333.10747
333.10288
333.09724
333.08959
333.07651
333.12942
333.129
333.12808
333.12673
333.12497
333.12286
333.12042
333.11768
333.11461
333.11118
333.10728
333.10273
333.09711
333.08949
333.07645
333.12897
333.12856
333.12766
333.12633
333.12461
333.12253
333.12012
333.11741
333.11437
333.11097
333.1071
333.10257
333.09698
333.08939
333.07639
333.12853
333.12813
333.12725
333.12595
333.12425
333.1222
333.11982
333.11714
333.11413
333.11076
333.10691
333.10241
333.09685
333.08929
333.07633
333.1281
333.1277
333.12684
333.12556
333.12389
333.12187
333.11953
333.11687
333.11389
333.11055
333.10673
333.10225
333.09671
333.08918
333.07626
333.12767
333.12728
333.12644
333.12518
333.12354
333.12155
333.11923
333.11661
333.11366
333.11033
333.10654
333.10209
333.09658
333.08908
333.0762
333.12725
333.12687
333.12604
333.1248
333.12319
333.12122
333.11894
333.11634
333.11342
333.11012
333.10636
333.10193
333.09644
333.08897
333.07613
333.12683
333.12645
333.12564
333.12443
333.12284
333.1209
333.11865
333.11608
333.11318
333.10991
333.10617
333.10177
333.09631
333.08886
333.07605
333.12641
333.12605
333.12525
333.12406
333.12249
333.12058
333.11836
333.11581
333.11295
333.1097
333.10599
333.10161
333.09617
333.08875
333.07598
333.12601
333.12565
333.12486
333.12369
333.12215
333.12027
333.11807
333.11555
333.11271
333.10949
333.1058
333.10144
333.09603
333.08864
333.0759
333.1256
333.12525
333.12448
333.12333
333.12181
333.11995
333.11778
333.11529
333.11247
333.10928
333.10561
333.10128
333.09589
333.08852
333.07582
333.1252
333.12486
333.1241
333.12297
333.12147
333.11964
333.11749
333.11503
333.11224
333.10907
333.10543
333.10112
333.09575
333.08841
333.07574
333.12481
333.12447
333.12373
333.12261
333.12114
333.11933
333.11721
333.11477
333.11201
333.10886
333.10524
333.10095
333.09561
333.08829
333.07566
333.12442
333.12409
333.12336
333.12226
333.12081
333.11903
333.11693
333.11452
333.11177
333.10865
333.10505
333.10079
333.09547
333.08817
333.07557
333.12404
333.12371
333.12299
333.12191
333.12048
333.11872
333.11665
333.11426
333.11154
333.10844
333.10486
333.10062
333.09532
333.08805
333.07548
333.12366
333.12334
333.12263
333.12156
333.12016
333.11842
333.11637
333.114
333.11131
333.10823
333.10468
333.10045
333.09518
333.08793
333.07539
333.12329
333.12297
333.12227
333.12122
333.11983
333.11812
333.11609
333.11375
333.11108
333.10802
333.10449
333.10029
333.09503
333.08781
333.0753
333.12292
333.1226
333.12192
333.12088
333.11951
333.11782
333.11582
333.1135
333.11085
333.10781
333.1043
333.10012
333.09488
333.08768
333.0752
333.12255
333.12224
333.12157
333.12055
333.1192
333.11753
333.11554
333.11325
333.11062
333.1076
333.10411
333.09995
333.09473
333.08755
333.07511
333.12219
333.12189
333.12122
333.12022
333.11888
333.11723
333.11527
333.11299
333.11039
333.10739
333.10392
333.09978
333.09458
333.08742
333.07501
333.12183
333.12154
333.12088
333.11989
333.11857
333.11694
333.115
333.11275
333.11016
333.10718
333.10373
333.09961
333.09443
333.08729
333.07491
333.12148
333.12119
333.12054
333.11957
333.11827
333.11665
333.11473
333.1125
333.10993
333.10698
333.10354
333.09944
333.09428
333.08716
333.0748
333.12113
333.12085
333.12021
333.11924
333.11796
333.11637
333.11446
333.11225
333.1097
333.10677
333.10335
333.09927
333.09413
333.08703
333.0747
333.12079
333.12051
333.11988
333.11893
333.11766
333.11608
333.1142
333.112
333.10947
333.10656
333.10316
333.09909
333.09397
333.0869
333.07459
333.12045
333.12017
333.11955
333.11861
333.11736
333.1158
333.11393
333.11176
333.10925
333.10635
333.10297
333.09892
333.09382
333.08676
333.07448
333.12012
333.11984
333.11923
333.1183
333.11706
333.11552
333.11367
333.11151
333.10902
333.10614
333.10278
333.09875
333.09366
333.08662
333.07437
333.11978
333.11951
333.11891
333.11799
333.11677
333.11524
333.11341
333.11127
333.1088
333.10593
333.10259
333.09857
333.0935
333.08648
333.07425
333.11946
333.11919
333.11859
333.11769
333.11648
333.11496
333.11315
333.11103
333.10857
333.10573
333.1024
333.0984
333.09335
333.08634
333.07414
333.11913
333.11887
333.11828
333.11738
333.11619
333.11469
333.11289
333.11079
333.10835
333.10552
333.10221
333.09822
333.09319
333.0862
333.07402
333.11881
333.11855
333.11797
333.11708
333.1159
333.11442
333.11264
333.11055
333.10812
333.10531
333.10202
333.09805
333.09303
333.08606
333.0739
333.11849
333.11823
333.11766
333.11679
333.11562
333.11415
333.11238
333.11031
333.1079
333.1051
333.10182
333.09787
333.09286
333.08591
333.07378
333.11818
333.11792
333.11736
333.11649
333.11533
333.11388
333.11213
333.11007
333.10768
333.1049
333.10163
333.09769
333.0927
333.08577
333.07365
333.11787
333.11762
333.11706
333.1162
333.11505
333.11361
333.11188
333.10983
333.10746
333.10469
333.10144
333.09751
333.09254
333.08562
333.07353
333.11756
333.11731
333.11676
333.11591
333.11478
333.11335
333.11163
333.1096
333.10724
333.10448
333.10125
333.09734
333.09237
333.08547
333.0734
333.11726
333.11701
333.11646
333.11563
333.1145
333.11309
333.11138
333.10936
333.10701
333.10428
333.10105
333.09716
333.09221
333.08532
333.07327
333.11696
333.11671
333.11617
333.11534
333.11423
333.11283
333.11113
333.10913
333.10679
333.10407
333.10086
333.09698
333.09204
333.08517
333.07314
333.11666
333.11642
333.11588
333.11506
333.11396
333.11257
333.11088
333.1089
333.10657
333.10386
333.10067
333.0968
333.09188
333.08502
333.07301
333.11637
333.11613
333.11559
333.11478
333.11369
333.11231
333.11064
333.10866
333.10636
333.10366
333.10047
333.09662
333.09171
333.08487
333.07288
333.11608
333.11584
333.11531
333.11451
333.11342
333.11205
333.1104
333.10843
333.10614
333.10345
333.10028
333.09643
333.09154
333.08471
333.07274
333.11579
333.11555
333.11503
333.11423
333.11316
333.1118
333.11015
333.1082
333.10592
333.10325
333.10009
333.09625
333.09137
333.08456
333.0726
333.1155
333.11527
333.11475
333.11396
333.11289
333.11155
333.10991
333.10797
333.1057
333.10304
333.09989
333.09607
333.0912
333.0844
333.07247
333.11522
333.11499
333.11447
333.11369
333.11263
333.1113
333.10967
333.10774
333.10548
333.10284
333.0997
333.09589
333.09103
333.08424
333.07233
333.11494
333.11471
333.1142
333.11342
333.11237
333.11105
333.10943
333.10752
333.10527
333.10263
333.0995
333.0957
333.09086
333.08408
333.07219
333.11466
333.11443
333.11393
333.11316
333.11212
333.1108
333.1092
333.10729
333.10505
333.10242
333.09931
333.09552
333.09069
333.08392
333.07204
333.11438
333.11416
333.11366
333.11289
333.11186
333.11055
333.10896
333.10706
333.10484
333.10222
333.09911
333.09534
333.09051
333.08376
333.0719
333.11411
333.11389
333.11339
333.11263
333.11161
333.11031
333.10872
333.10684
333.10462
333.10201
333.09892
333.09515
333.09034
333.0836
333.07176
333.11384
333.11362
333.11313
333.11237
333.11135
333.11006
333.10849
333.10661
333.10441
333.10181
333.09873
333.09497
333.09016
333.08344
333.07161
333.11357
333.11335
333.11286
333.11212
333.1111
333.10982
333.10826
333.10639
333.10419
333.10161
333.09853
333.09478
333.08999
333.08327
333.07146
333.1133
333.11309
333.1126
333.11186
333.11086
333.10958
333.10802
333.10617
333.10398
333.1014
333.09834
333.0946
333.08981
333.08311
333.07131
333.11304
333.11282
333.11234
333.11161
333.11061
333.10934
333.10779
333.10594
333.10376
333.1012
333.09814
333.09441
333.08964
333.08295
333.07116
333.11278
333.11256
333.11209
333.11135
333.11036
333.1091
333.10756
333.10572
333.10355
333.10099
333.09794
333.09422
333.08946
333.08278
333.07101
333.11252
333.1123
333.11183
333.1111
333.11012
333.10887
333.10733
333.1055
333.10334
333.10079
333.09775
333.09404
333.08928
333.08261
333.07086
333.11226
333.11205
333.11158
333.11086
333.10988
333.10863
333.1071
333.10528
333.10313
333.10058
333.09755
333.09385
333.08911
333.08245
333.07071
333.112
333.11179
333.11133
333.11061
333.10963
333.10839
333.10688
333.10506
333.10292
333.10038
333.09736
333.09366
333.08893
333.08228
333.07055
333.11175
333.11154
333.11108
333.11036
333.10939
333.10816
333.10665
333.10484
333.1027
333.10018
333.09716
333.09348
333.08875
333.08211
333.0704
333.1115
333.11129
333.11083
333.11012
333.10916
333.10793
333.10642
333.10462
333.10249
333.09997
333.09697
333.09329
333.08857
333.08194
333.07024
333.11125
333.11104
333.11058
333.10988
333.10892
333.1077
333.1062
333.10441
333.10228
333.09977
333.09677
333.0931
333.08839
333.08177
333.07009
333.111
333.11079
333.11034
333.10964
333.10868
333.10747
333.10598
333.10419
333.10207
333.09957
333.09657
333.09291
333.08821
333.0816
333.06993
333.11075
333.11055
333.11009
333.1094
333.10845
333.10724
333.10575
333.10397
333.10186
333.09936
333.09638
333.09272
333.08803
333.08143
333.06977
333.11051
333.1103
333.10985
333.10916
333.10821
333.10701
333.10553
333.10376
333.10165
333.09916
333.09618
333.09253
333.08785
333.08125
333.06961
333.11026
333.11006
333.10961
333.10892
333.10798
333.10678
333.10531
333.10354
333.10144
333.09896
333.09599
333.09234
333.08766
333.08108
333.06945
333.11002
333.10982
333.10937
333.10868
333.10775
333.10655
333.10509
333.10332
333.10123
333.09875
333.09579
333.09215
333.08748
333.08091
333.06929
333.10978
333.10958
333.10913
333.10845
333.10752
333.10633
333.10487
333.10311
333.10102
333.09855
333.09559
333.09196
333.0873
333.08073
333.06913
333.10954
333.10934
333.1089
333.10822
333.10729
333.1061
333.10465
333.1029
333.10082
333.09835
333.0954
333.09178
333.08712
333.08056
333.06896
333.1093
333.1091
333.10866
333.10798
333.10706
333.10588
333.10443
333.10268
333.10061
333.09815
333.0952
333.09159
333.08693
333.08038
333.0688
333.10906
333.10887
333.10843
333.10775
333.10683
333.10566
333.10421
333.10247
333.1004
333.09795
333.095
333.09139
333.08675
333.08021
333.06863
333.10883
333.10863
333.1082
333.10752
333.10661
333.10543
333.10399
333.10226
333.10019
333.09774
333.09481
333.0912
333.08657
333.08003
333.06847
333.10859
333.1084
333.10796
333.10729
333.10638
333.10521
333.10377
333.10204
333.09998
333.09754
333.09461
333.09101
333.08638
333.07986
333.0683
333.10836