/*--------------------------------*- C++ -*----------------------------------*\
| =========                 |                                                 |
| \\      /  F ield         | OpenFOAM: The Open Source CFD Toolbox           |
|  \\    /   O peration     | Version:  2506                                  |
|   \\  /    A nd           | Website:  www.openfoam.com                      |
|    \\/     M anipulation  |                                                 |
\*---------------------------------------------------------------------------*/
FoamFile
{
    version     2.0;
    format      ascii;
    arch        "LSB;label=32;scalar=64";
    class       volVectorField;
    location    "19000/water";
    object      U;
}
// * * * * * * * * * * * * * * * * * * * * * * * * * * * * * * * * * * * * * //

dimensions      [0 1 -1 0 0 0 0];

internalField   nonuniform List<vector> 
6000
(
(0.25028648 -3.4193493e-05 -2.3852298e-18)
(0.25028875 -7.4648812e-05 -5.4081887e-18)
(0.25029344 -0.00011804414 -3.3919511e-19)
(0.25030059 -0.00016540046 -3.5204024e-19)
(0.25031046 -0.00021487336 -3.2661604e-19)
(0.25032332 -0.00026685039 -1.1149721e-20)
(0.25033948 -0.00032192175 1.8927739e-19)
(0.25035939 -0.00038078672 -3.1116585e-19)
(0.25038356 -0.00044434477 -2.7163952e-20)
(0.25041254 -0.00051362452 -1.5788647e-19)
(0.25044587 -0.00058677559 1.9826748e-19)
(0.25047643 -0.00065822056 -1.0621738e-19)
(0.25046276 -0.00078466513 -8.9617295e-20)
(0.25013031 -0.0015987837 -1.9404389e-20)
(0.24584996 0.0019968142 -1.0976682e-20)
(0.25104035 -3.7261304e-05 -7.6945221e-19)
(0.25104514 -8.9895979e-05 -2.7880406e-18)
(0.2510558 -0.00014352114 -9.5620583e-20)
(0.25107219 -0.00020025424 -3.6271567e-19)
(0.2510947 -0.0002571822 8.6776715e-19)
(0.25112368 -0.00031440571 4.0830634e-19)
(0.25115965 -0.00037188242 1.5730649e-19)
(0.25120324 -0.00042947839 -2.7968524e-19)
(0.2512551 -0.00048709454 -3.1076132e-19)
(0.25131538 -0.00054561245 -1.0749826e-19)
(0.25138039 -0.00060405492 2.6970867e-19)
(0.25142587 -0.00063755821 -1.5780185e-19)
(0.25133175 -0.00059164843 -1.8651531e-19)
(0.25037931 -0.0014370973 -2.2426102e-20)
(0.24194277 0.00099520264 9.6873418e-21)
(0.25195051 -3.6589028e-05 -1.5628437e-18)
(0.25195563 -9.0250612e-05 3.9121897e-18)
(0.25196731 -0.00014313025 2.0652577e-18)
(0.25198528 -0.00019912655 -5.3873823e-19)
(0.25200977 -0.00025508716 6.312682e-19)
(0.25204101 -0.0003112558 -4.8929234e-19)
(0.25207932 -0.00036762123 -8.2727725e-19)
(0.25212505 -0.00042413945 -7.1150036e-19)
(0.25217823 -0.00048056787 -7.3021638e-19)
(0.25223708 -0.0005377572 -8.0369353e-20)
(0.25229114 -0.00060007155 -4.4109044e-19)
(0.25229033 -0.00065419843 -3.6504261e-19)
(0.25200573 -0.00054460881 -5.2764282e-19)
(0.25014357 -0.0012195308 -2.6262207e-19)
(0.23758495 0.00043820543 -1.7014962e-19)
(0.25283353 -3.7446604e-05 -6.8216872e-19)
(0.25283867 -9.3611088e-05 -1.1465274e-18)
(0.25285018 -0.00014906892 2.1034051e-18)
(0.25286783 -0.00020791578 -5.8006686e-20)
(0.25289182 -0.00026672308 -2.2954804e-19)
(0.25292238 -0.00032582165 -5.9205788e-19)
(0.25295982 -0.00038519269 -5.9545398e-19)
(0.25300432 -0.00044485276 -7.7228023e-19)
(0.25305525 -0.00050441426 -5.0332339e-19)
(0.25310809 -0.00056332944 2.33692e-19)
(0.25314261 -0.00062607506 -2.955668e-19)
(0.25307635 -0.00069910336 -1.725312e-19)
(0.25255493 -0.0005845712 -4.6581172e-19)
(0.24963188 -0.001063787 -3.149063e-19)
(0.23320285 0.0001058672 -2.1234372e-19)
(0.25372643 -3.8342944e-05 7.931253e-18)
(0.2537317 -9.6368691e-05 9.6286555e-19)
(0.25374347 -0.00015372841 2.2899516e-18)
(0.25376156 -0.00021453144 8.9970588e-19)
(0.25378616 -0.00027516439 -1.2081681e-19)
(0.25381749 -0.00033599427 3.4901669e-19)
(0.25385581 -0.00039694563 2.3283946e-19)
(0.25390101 -0.00045805575 2.7337135e-20)
(0.25395133 -0.00051907431 1.9238026e-20)
(0.25399821 -0.00057855465 4.1893315e-19)
(0.25400834 -0.00063773998 2.4302239e-19)
(0.25386022 -0.0007177221 1.2720455e-19)
(0.25305737 -0.00062191547 -1.3107937e-20)
(0.24895451 -0.00093835859 -8.2981583e-20)
(0.22897365 -8.3792337e-05 -7.9663977e-20)
(0.25464474 -3.866162e-05 -1.8192098e-18)
(0.25465014 -9.7320118e-05 -2.8490507e-19)
(0.2546622 -0.00015516462 5.751406e-19)
(0.25468073 -0.00021648308 7.0641275e-19)
(0.2547059 -0.00027758564 -3.8341331e-19)
(0.25473792 -0.000338881 2.523485e-19)
(0.25477689 -0.00040025681 2.3064077e-19)
(0.25482222 -0.000461728 3.5242139e-19)
(0.25487049 -0.00052322808 4.9993983e-19)
(0.2549078 -0.000583188 5.5136493e-19)
(0.25488519 -0.00063896641 2.0717792e-19)
(0.25463685 -0.00071821651 4.6913188e-20)
(0.25350729 -0.0006469875 1.3952395e-19)
(0.248129 -0.00083894719 -2.2692782e-20)
(0.2249409 -0.00018589273 -1.2801018e-19)
(0.25557031 -3.8595293e-05 -4.0865808e-18)
(0.25557581 -9.7309346e-05 -3.6277716e-18)
(0.25558805 -0.00015511983 -1.5861567e-18)
(0.25560682 -0.00021642526 4.3983645e-19)
(0.2556323 -0.00027749359 -7.7549407e-19)
(0.25566463 -0.00033876345 1.4831731e-19)
(0.25570371 -0.00040009734 6.1381856e-19)
(0.25574825 -0.00046144626 5.5921432e-19)
(0.25579256 -0.00052279714 5.6558654e-19)
(0.25581623 -0.0005828814 2.7735627e-19)
(0.25575267 -0.00063600478 2.4745328e-19)
(0.25538743 -0.00071016267 1.36878e-19)
(0.25388915 -0.00066107344 7.7576078e-20)
(0.24716598 -0.00076077854 -5.2336883e-20)
(0.22112141 -0.00023459296 -1.2334573e-19)
(0.25649134 -3.8297106e-05 5.4754806e-18)
(0.25649692 -9.6712128e-05 8.4606012e-19)
(0.25650928 -0.00015419069 1.8995231e-18)
(0.25652824 -0.00021515485 1.0335217e-18)
(0.25655393 -0.00027585718 -7.4486739e-19)
(0.25658641 -0.0003367553 3.4106426e-19)
(0.25662528 -0.00039769653 4.4180924e-19)
(0.2566683 -0.00045856441 3.8113973e-19)
(0.25670691 -0.00051927104 1.0254568e-19)
(0.25671305 -0.00057893859 -2.2170235e-19)
(0.25660095 -0.00063003278 1.7117723e-19)
(0.25610359 -0.00069722485 7.3415344e-20)
(0.25419746 -0.0006651972 -3.51411e-20)
(0.24608527 -0.00069788903 -8.9883761e-20)
(0.21752738 -0.00025081848 8.4321707e-21)
(0.25740382 -3.7852859e-05 7.8623318e-19)
(0.25740947 -9.5689494e-05 -1.3822048e-18)
(0.25742193 -0.00015257331 9.3597019e-19)
(0.25744104 -0.00021291358 1.2871966e-18)
(0.25746687 -0.00027297291 8.4527891e-19)
(0.25749936 -0.0003332193 8.0406487e-19)
(0.2575377 -0.00039348924 3.3901225e-19)
(0.2575784 -0.00045361302 4.8252024e-19)
(0.25760945 -0.00051335259 1.9067263e-19)
(0.25759421 -0.00057212213 3.7895708e-19)
(0.25742635 -0.00062159363 2.6077862e-19)
(0.25678237 -0.00068144217 4.6179408e-20)
(0.25443121 -0.00066103685 3.4204818e-20)
(0.24490935 -0.00064561644 -7.5482165e-20)
(0.21416513 -0.00024776584 -1.8687238e-21)
(0.25830515 -3.7308638e-05 -6.0612232e-20)
(0.25831084 -9.4372769e-05 4.0898613e-21)
(0.25832339 -0.00015047649 -1.4745552e-18)
(0.2583426 -0.00020999612 7.5475773e-19)
(0.25836849 -0.00026922145 6.4738814e-20)
(0.25840083 -0.00032862339 6.7014636e-19)
(0.25843826 -0.00038802595 6.3039869e-19)
(0.25847573 -0.00044722018 4.7867863e-19)
(0.25849727 -0.00050579279 3.1488589e-19)
(0.25845683 -0.00056328987 3.2108843e-19)
(0.25822634 -0.00061131676 2.9387632e-19)
(0.25742154 -0.00066417743 8.5947802e-20)
(0.2545896 -0.00065044234 7.795529e-20)
(0.24365871 -0.00060064453 -5.4566517e-20)
(0.21103455 -0.00023378679 -6.7394994e-20)
(0.259193 -3.6693881e-05 5.7043368e-18)
(0.25919873 -9.285746e-05 6.5207657e-18)
(0.25921134 -0.00014806165 -1.146901e-18)
(0.25923061 -0.00020663289 5.0594479e-19)
(0.25925648 -0.0002648995 7.8073189e-19)
(0.25928848 -0.00032332972 3.6866251e-19)
(0.25932457 -0.00038173097 4.6074983e-19)
(0.25935785 -0.00043986308 2.2387794e-19)
(0.25936788 -0.00049714489 3.1014554e-19)
(0.25929853 -0.00055310431 -1.1356735e-19)
(0.2589988 -0.00059970361 2.255383e-19)
(0.25801896 -0.00064623362 1.0380385e-19)
(0.25467145 -0.00063499349 7.9669905e-20)
(0.24235144 -0.00056062195 -6.1376016e-20)
(0.20813123 -0.0002141088 -5.9219553e-20)
(0.26006576 -3.6034055e-05 6.311417e-18)
(0.26007152 -9.1214284e-05 4.384188e-18)
(0.26008417 -0.00014544281 3.025181e-19)
(0.26010346 -0.00020298347 1.5371338e-19)
(0.26012923 -0.00026021093 6.3576571e-19)
(0.2601607 -0.0003175869 2.9466597e-20)
(0.26019497 -0.00037489796 2.8925222e-19)
(0.26022303 -0.0004318747 3.704787e-19)
(0.26021952 -0.00048779066 2.7336352e-19)
(0.26011767 -0.00054204301 5.6420198e-20)
(0.25974224 -0.00058714002 1.1159735e-19)
(0.25857279 -0.00062806077 1.4370716e-19)
(0.25467557 -0.00061594005 5.4110834e-20)
(0.24100379 -0.00052390611 -4.7074749e-20)
(0.20544863 -0.00019196316 -6.5330079e-20)
(0.2609225 -3.5349633e-05 2.9467178e-18)
(0.26092828 -8.9497286e-05 3.5539919e-18)
(0.26094096 -0.00014270541 4.6925805e-19)
(0.26096023 -0.00019916671 4.6663613e-19)
(0.2609858 -0.00025530722 3.1833468e-19)
(0.2610165 -0.00031157921 3.1755923e-19)
(0.26104844 -0.00036774517 3.1823708e-19)
(0.2610702 -0.00042350433 2.6986542e-19)
(0.26105114 -0.00047801113 8.5012411e-20)
(0.26091327 -0.00053046086 6.3056192e-20)
(0.2604557 -0.00057393662 5.8781405e-20)
(0.2590814 -0.00060990566 9.7844514e-20)
(0.2546009 -0.00059424331 1.2713606e-20)
(0.23963056 -0.00048937354 -4.3700396e-20)
(0.20297926 -0.00016931833 -4.7453066e-20)
(0.26176274 -3.4655538e-05 2.793415e-18)
(0.26176854 -8.7746856e-05 3.0379372e-18)
(0.26178122 -0.00013991377 -1.3770864e-18)
(0.26180042 -0.00019527246 1.9756495e-19)
(0.26182568 -0.00025030306 6.1059284e-19)
(0.26185536 -0.00030544608 5.7808629e-19)
(0.26188442 -0.00036043768 4.076544e-19)
(0.26189878 -0.00041494196 1.2587477e-19)
(0.26186213 -0.00046801762 1.1874688e-19)
(0.2616848 -0.00051862213 -1.6653648e-19)
(0.26113855 -0.00056034346 5.4255575e-20)
(0.25954316 -0.00059189152 7.8787788e-20)
(0.25444651 -0.0005706321 3.8877649e-20)
(0.23824529 -0.00045627776 -5.1794582e-20)
(0.20071509 -0.00014735259 -2.8874149e-21)
(0.26258633 -3.396306e-05 3.5628316e-18)
(0.26259213 -8.5993781e-05 6.8063976e-19)
(0.26260479 -0.00013711719 2.8154145e-18)
(0.26262388 -0.00019136968 2.0121039e-19)
(0.2626487 -0.00024528655 -1.1735914e-18)
(0.26267708 -0.00029929459 7.9797849e-20)
(0.26270267 -0.00035310243 2.9071756e-19)
(0.26270848 -0.00040633486 1.1408682e-19)
(0.26265224 -0.00045797299 9.0712887e-20)
(0.26243199 -0.00050672605 1.1588423e-20)
(0.26179026 -0.00054656345 1.7340728e-19)
(0.25995633 -0.0005740675 2.1827473e-19)
(0.25421177 -0.00054566294 3.9285701e-20)
(0.23686046 -0.00042415213 1.6972859e-20)
(0.19864765 -0.0001267576 1.5244138e-20)
(0.26339335 -3.32814e-05 2.7290567e-18)
(0.26339915 -8.4262741e-05 4.2610631e-18)
(0.26341177 -0.0001343551 3.5186362e-18)
(0.26343068 -0.0001875135 1.3749792e-18)
(0.26345493 -0.00024032822 1.1694541e-18)
(0.26348171 -0.00029321054 1.1164192e-19)
(0.2635032 -0.00034584107 1.7705823e-19)
(0.2634993 -0.00039780175 2.5876842e-19)
(0.26342146 -0.00044800829 1.0441784e-19)
(0.26315482 -0.00049492779 5.0291072e-20)
(0.26241041 -0.00053276478 1.7334535e-19)
(0.26031893 -0.00055643964 2.1055212e-19)
(0.2538966 -0.000519773 2.3355272e-20)
(0.23548766 -0.00039274464 1.5154272e-19)
(0.19676807 -0.00010792878 -2.6218168e-20)
(0.26418413 -3.2618313e-05 2.7836641e-18)
(0.26418991 -8.2574226e-05 4.5333964e-18)
(0.26420246 -0.00013166021 1.5371634e-18)
(0.26422112 -0.0001837496 1.2167328e-18)
(0.26424465 -0.00023548649 1.4690148e-18)
(0.2642695 -0.00028726512 5.7780939e-19)
(0.26428624 -0.00033873796 2.2063726e-19)
(0.26427145 -0.00038944152 3.2018992e-19)
(0.26416998 -0.0004382328 2.3788773e-19)
(0.26385341 -0.00048335173 1.1985771e-19)
(0.26299854 -0.00051908846 7.0576917e-20)
(0.26062878 -0.00053898816 6.7802881e-20)
(0.25350187 -0.00049331965 8.227213e-20)
(0.2341376 -0.00036197184 9.2132644e-20)
(0.19506692 -9.1079356e-05 -1.6013159e-20)
(0.26495914 -3.1980325e-05 3.126305e-18)
(0.2649649 -8.0945389e-05 4.3259531e-18)
(0.26497734 -0.00012905989 1.2401761e-18)
(0.26499568 -0.00018011622 1.1237796e-18)
(0.26501831 -0.00023081031 1.1761644e-18)
(0.26504088 -0.00028151806 6.9377875e-19)
(0.2650522 -0.00033186392 4.9907355e-19)
(0.2650253 -0.00038133727 1.1852894e-19)
(0.26489816 -0.00042873842 1.3430381e-19)
(0.26452796 -0.00047209828 1.2888654e-19)
(0.26355413 -0.00050565096 1.8547312e-19)
(0.2608835 -0.00052167636 1.223662e-19)
(0.25302971 -0.00046660631 1.0437732e-19)
(0.23282016 -0.00033188327 1.6728069e-20)
(0.19353413 -7.6303786e-05 6.2782386e-20)
(0.26571903 -3.1372765e-05 1.8350878e-18)
(0.26572475 -7.9390278e-05 2.923474e-18)
(0.26573705 -0.00012657658 -2.5635501e-21)
(0.26575498 -0.00017664472 8.4006584e-19)
(0.26577653 -0.00022633987 9.1823173e-19)
(0.26579644 -0.0002760185 9.4429515e-19)
(0.26580163 -0.0003252772 7.3564059e-19)
(0.26576141 -0.00037355728 3.6799466e-19)
(0.26560652 -0.00041960061 -9.5755118e-20)
(0.26517878 -0.00046124612 -5.1448243e-20)
(0.26407657 -0.00049254343 2.9894541e-19)
(0.26108058 -0.00050445572 2.1640654e-19)
(0.25248384 -0.00043989699 1.3953018e-19)
(0.23154421 -0.00030262987 4.0825185e-20)
(0.19215888 -6.3609732e-05 9.5724764e-20)
(0.26646455 -3.0799672e-05 6.4966676e-18)
(0.26647021 -7.791971e-05 4.4935817e-19)
(0.26648233 -0.00012422759 3.4814111e-18)
(0.26649975 -0.0001733593 1.436264e-18)
(0.26652002 -0.00022210618 -7.2793065e-19)
(0.26653688 -0.0002708044 1.5077171e-18)
(0.26653522 -0.00031902283 1.1453212e-18)
(0.26648042 -0.00036615421 1.1687803e-18)
(0.26629564 -0.00041087723 6.4584917e-19)
(0.26580617 -0.00045085191 -2.192453e-19)
(0.26456508 -0.00047982866 4.4409332e-19)
(0.26121753 -0.00048726982 3.8967629e-19)
(0.25186982 -0.00041342264 3.7433604e-19)
(0.23031742 -0.00027443217 2.9795145e-19)
(0.1909297 -5.2932834e-05 1.4931227e-19)
(0.26719653 -3.0263687e-05 6.0627617e-18)
(0.26720212 -7.6541022e-05 -1.4929108e-18)
(0.26721401 -0.00012202465 2.4046318e-18)
(0.26723083 -0.00017027641 1.5281982e-18)
(0.2672496 -0.00021813033 9.0604367e-19)
(0.26726299 -0.00026590165 9.1582022e-19)
(0.26725373 -0.0003131315 9.6929447e-19)
(0.26718309 -0.00035916374 8.0896712e-19)
(0.26696618 -0.00040260692 7.9943586e-19)
(0.26641044 -0.00044094906 1.9375128e-19)
(0.26501868 -0.00046753759 3.6627885e-19)
(0.26129202 -0.00047005901 4.3267789e-19)
(0.25119506 -0.00038738325 3.4962889e-19)
(0.2291461 -0.00024754677 2.5455201e-19)
(0.18983455 -4.4145099e-05 1.9995038e-19)
(0.26791589 -2.9765992e-05 -9.1906868e-19)
(0.26792138 -7.5257932e-05 -4.6960163e-19)
(0.26793299 -0.00011997376 2.4711754e-19)
(0.26794908 -0.00016740448 1.2354049e-18)
(0.26796613 -0.00021442312 2.0396454e-18)
(0.26797562 -0.00026132351 5.1186833e-19)
(0.267958 -0.00030761887 2.303492e-19)
(0.26787018 -0.00035260382 3.9849712e-20)
(0.2676188 -0.00039480805 7.5815345e-20)
(0.2669918 -0.00043154706 1.9780644e-19)
(0.26543617 -0.00045566686 1.6346666e-19)
(0.2613021 -0.00045276642 2.6788237e-19)
(0.2504687 -0.00036194908 1.5588927e-19)
(0.22803501 -0.00022223217 -7.8096254e-20)
(0.18886112 -3.7064086e-05 1.7926083e-20)
(0.26862352 -2.9306383e-05 4.6060081e-18)
(0.2686289 -7.4070661e-05 9.4652695e-19)
(0.26864017 -0.00011807532 2.9932685e-18)
(0.26865542 -0.00016474413 2.7118042e-18)
(0.26867049 -0.00021098533 1.8354321e-18)
(0.26867563 -0.000257071 1.6566431e-18)
(0.26864885 -0.00030248606 1.297861e-18)
(0.26854251 -0.00034647515 9.5073392e-19)
(0.26825414 -0.00038747924 5.972552e-19)
(0.26755035 -0.00042263245 -1.9384627e-19)
(0.2658161 -0.00044417905 2.3605005e-19)
(0.26124652 -0.00043534493 3.4319233e-19)
(0.24970133 -0.00033726333 3.134826e-19)
(0.22698727 -0.00019871676 2.3387139e-19)
(0.18799711 -3.1466398e-05 2.2153248e-19)
(0.26932033 -2.8883461e-05 3.3726309e-18)
(0.26932558 -7.2976356e-05 3.9402471e-19)
(0.26933645 -0.00011632481 1.0807448e-18)
(0.26935072 -0.00016228909 2.0669456e-18)
(0.26936357 -0.0002078089 1.2913195e-18)
(0.26936389 -0.00025313433 1.6992384e-18)
(0.26932713 -0.0002977213 1.4670842e-18)
(0.26920083 -0.00034076321 9.9225918e-19)
(0.2688728 -0.00038060158 6.7041432e-19)
(0.26808605 -0.00041417146 2.4741854e-19)
(0.26615679 -0.00043300583 7.3872088e-20)
(0.26112496 -0.00041776402 2.416964e-19)
(0.24890441 -0.00031344658 3.4274693e-19)
(0.22600436 -0.00017717261 3.5868374e-19)
(0.18723056 -2.7105586e-05 3.3345851e-19)
(0.27000719 -2.849491e-05 3.7769165e-18)
(0.27001228 -7.1969743e-05 5.090081e-18)
(0.27002267 -0.00011471384 2.7016881e-18)
(0.27003582 -0.00016002771 1.738431e-18)
(0.27004618 -0.00020487885 2.2119991e-19)
(0.27004119 -0.00024949516 1.2481151e-18)
(0.2699936 -0.00029330262 1.2292111e-18)
(0.26984584 -0.00033544136 8.6572572e-19)
(0.26947524 -0.00037414208 6.8306974e-19)
(0.2685986 -0.00040611399 1.5654317e-19)
(0.26645635 -0.00042205446 2.5372579e-19)
(0.2609383 -0.00040001524 3.6373138e-19)
(0.24808975 -0.00029060213 4.6002459e-19)
(0.22508629 -0.00015769827 3.3000144e-19)
(0.18655015 -2.3732129e-05 2.1308019e-19)
(0.27068489 -2.8137825e-05 6.9250421e-18)
(0.2706898 -7.1043906e-05 5.1894494e-18)
(0.27069965 -0.00011323138 4.9188727e-18)
(0.27071153 -0.00015794462 2.6524632e-18)
(0.2707191 -0.00020217545 1.0812587e-18)
(0.27070829 -0.00024612933 1.8817132e-18)
(0.27064898 -0.00028920108 2.0627483e-18)
(0.27047818 -0.00033047455 1.3771341e-18)
(0.27006181 -0.00036805783 9.4816269e-19)
(0.26908753 -0.00039839812 1.2036339e-19)
(0.26671278 -0.00041121648 5.3487633e-19)
(0.26068881 -0.00038211515 6.7310329e-19)
(0.24726882 -0.00026882041 6.9399251e-19)
(0.22423175 -0.00014031231 5.7102899e-19)
(0.18594537 -2.1112147e-05 3.181627e-19)
(0.27135418 -2.7809012e-05 -1.0083726e-18)
(0.27135887 -7.0191042e-05 4.1340375e-18)
(0.2713681 -0.00011186497 2.8793573e-18)
(0.27137855 -0.00015602247 1.8145048e-18)
(0.27138303 -0.00019967637 2.244981e-18)
(0.27136587 -0.00024300948 1.4542867e-18)
(0.27129391 -0.00028538386 1.3220979e-18)
(0.27109836 -0.000325823 9.5334964e-19)
(0.27063272 -0.00036230005 5.1009297e-19)
(0.26955206 -0.00039095432 1.8901608e-19)
(0.26692403 -0.00040037784 2.1103801e-19)
(0.26038022 -0.00036410564 2.9953833e-19)
(0.24645221 -0.00024818088 2.8218994e-19)
(0.22343841 -0.00012495718 4.1153531e-19)
(0.18540672 -1.904183e-05 2.0919572e-19)
(0.27201571 -2.7505236e-05 1.9996357e-18)
(0.27202015 -6.94031e-05 2.2575244e-18)
(0.27202866 -0.00011060176 2.2625295e-18)
(0.27203751 -0.00015424331 2.2119485e-18)
(0.2720386 -0.00019735858 2.4723781e-18)
(0.27201452 -0.00024010733 1.3546642e-18)
(0.27192892 -0.00028181693 1.0185037e-18)
(0.2717068 -0.00032144525 1.1367805e-18)
(0.27118802 -0.00035681747 5.6398698e-19)
(0.2699912 -0.00038370884 1.7583316e-19)
(0.26708822 -0.000389429 4.2358116e-19)
(0.26001771 -0.00034605163 2.8054111e-19)
(0.24564917 -0.00022875086 3.027861e-19)
(0.22270325 -0.00011151162 4.0854982e-19)
(0.18492573 -1.7355844e-05 2.7848978e-19)
(0.27267005 -2.7223404e-05 2.8421875e-18)
(0.27267421 -6.8672269e-05 -7.0305875e-20)
(0.27268192 -0.00010942927 1.0101051e-18)
(0.27268898 -0.00015258973 2.2305381e-18)
(0.27268634 -0.00019519966 2.4272047e-18)
(0.27265476 -0.00023739527 1.4301751e-18)
(0.27255447 -0.00027846699 9.9629924e-19)
(0.2723038 -0.00031730047 9.8499708e-19)
(0.27172757 -0.00035155884 4.0954421e-19)
(0.27040369 -0.00037658611 6.4564432e-19)
(0.26720375 -0.00037827411 3.7758538e-19)
(0.25960771 -0.00032803713 2.8896517e-19)
(0.24486735 -0.00021058184 3.901626e-19)
(0.22202277 -9.980814e-05 4.2644404e-19)
(0.18449494 -1.5929485e-05 2.7923881e-19)
(0.27331772 -2.6960667e-05 4.2377434e-18)
(0.27332155 -6.7991275e-05 4.821216e-18)
(0.27332837 -0.00010833587 3.4860352e-18)
(0.27333345 -0.00015104547 2.4813684e-18)
(0.27332673 -0.00019317869 1.1629789e-18)
(0.27328702 -0.00023484751 1.341655e-18)
(0.27317093 -0.0002753027 1.2199528e-18)
(0.27288957 -0.0003133499 7.2568808e-19)
(0.27225107 -0.00034647442 5.5351627e-19)
(0.27078808 -0.00036951039 6.5993883e-19)
(0.26726952 -0.00036683813 3.0227854e-19)
(0.25915765 -0.0003101602 3.030206e-19)
(0.24411266 -0.00019370463 3.5408745e-19)
(0.22139331 -8.9652404e-05 3.9571321e-19)
(0.1841079 -1.4675691e-05 2.3629821e-19)
(0.27395916 -2.6714475e-05 6.476072e-18)
(0.27396262 -6.7353543e-05 4.2933227e-18)
(0.27396843 -0.00010731104 5.1469438e-18)
(0.27397134 -0.00014959584 4.0655056e-18)
(0.27396016 -0.00019127672 1.8115195e-18)
(0.27391168 -0.00023244055 2.1389792e-18)
(0.2737786 -0.00027229533 1.9833251e-18)
(0.27346419 -0.00030955758 1.5010628e-18)
(0.27275806 -0.00034151677 1.2036843e-18)
(0.27114274 -0.00036240704 4.7349897e-19)
(0.26728512 -0.00035507155 5.8071391e-19)
(0.25867552 -0.00029252748 6.7399394e-19)
(0.24338933 -0.00017812521 6.1495287e-19)
(0.22081116 -8.0841193e-05 5.0355164e-19)
(0.18375901 -1.3538668e-05 4.0357129e-19)
(0.27459475 -2.648259e-05 3.5981212e-19)
(0.2745978 -6.6753261e-05 4.2237143e-18)
(0.27460249 -0.0001063455 3.8667579e-18)
(0.274603 -0.0001482278 2.7553691e-18)
(0.27458699 -0.00018947691 2.7907483e-18)
(0.27452902 -0.00023015345 1.357775e-18)
(0.27437767 -0.00026941896 1.0629445e-18)
(0.27402763 -0.00030589064 1.0357356e-18)
(0.27324789 -0.00033664079 8.0625208e-19)
(0.27146593 -0.00035520381 3.1256605e-19)
(0.26725094 -0.00034295249 3.3968789e-19)
(0.25816956 -0.00027524859 4.1981525e-19)
(0.24270004 -0.00016382254 3.9622001e-19)
(0.22027275 -7.3177111e-05 3.5007672e-19)
(0.18344349 -1.248609e-05 2.4672049e-19)
(0.27522481 -2.6263072e-05 3.6776716e-18)
(0.27522741 -6.6185368e-05 4.4382949e-18)
(0.27523087 -0.00010543114 3.5665403e-18)
(0.27522875 -0.00014693 2.9522076e-18)
(0.27520748 -0.00018776456 2.7955489e-18)
(0.2751393 -0.00022796774 1.3858034e-18)
(0.27496829 -0.00026665041 1.0067351e-18)
(0.27457978 -0.00030231921 8.9843137e-19)
(0.27371976 -0.0003318036 6.440802e-19)
(0.27175586 -0.00034783257 1.8589552e-19)
(0.26716832 -0.00033048644 3.0482594e-19)
(0.25764777 -0.0002584306 5.1937172e-19)
(0.24204621 -0.0001507494 5.3292988e-19)
(0.21977469 -6.6478886e-05 5.0158539e-19)
(0.18315725 -1.1501422e-05 2.5989638e-19)
(0.27584964 -2.6054262e-05 1.5975917e-18)
(0.27585173 -6.5645513e-05 7.774123e-19)
(0.27585383 -0.00010456099 9.0376998e-19)
(0.27584885 -0.00014569263 2.5693224e-18)
(0.27582189 -0.00018612688 2.5824297e-18)
(0.2757427 -0.00022586725 1.6994538e-18)
(0.27555052 -0.00026396905 1.1577934e-18)
(0.27512041 -0.00029881616 9.0753552e-19)
(0.27417268 -0.00032696406 5.5854506e-19)
(0.27201082 -0.00034023145 6.7418415e-19)
(0.26703956 -0.00031770398 2.6178262e-19)
(0.25711762 -0.00024217267 4.4466349e-19)
(0.24142819 -0.00013883591 3.3131583e-19)
(0.21931381 -6.0587305e-05 2.5458564e-19)
(0.18289682 -1.0577471e-05 2.9448019e-19)
(0.27646948 -2.585475e-05 3.8011544e-18)
(0.27647102 -6.5129982e-05 4.5251528e-18)
(0.27647162 -0.00010372909 2.8848744e-18)
(0.27646352 -0.00014450731 2.0406239e-18)
(0.2764304 -0.00018455289 1.6150965e-18)
(0.27633935 -0.00022383792 1.9581815e-18)
(0.27612438 -0.00026135649 1.1036624e-18)
(0.27564919 -0.00029535665 9.3471812e-19)
(0.27460555 -0.00032208226 6.6655433e-19)
(0.27222923 -0.0003323472 6.9165835e-19)
(0.26686787 -0.00030465719 4.8128942e-19)
(0.25658579 -0.00022656125 3.3236428e-19)
(0.2408456 -0.00012799526 4.3782902e-19)
(0.21888719 -5.5367367e-05 1.9400817e-19)
(0.18265925 -9.7115807e-06 2.9164894e-19)
(0.27708455 -2.5663345e-05 9.0249358e-18)
(0.27708548 -6.4635632e-05 5.1864777e-18)
(0.27708444 -0.0001029304 5.0200942e-18)
(0.27707295 -0.00014336686 3.6511081e-18)
(0.27703318 -0.00018303314 2.0823888e-18)
(0.27692935 -0.00022186744 2.7772752e-18)
(0.2766898 -0.00025879623 2.0898009e-18)
(0.27616569 -0.00029191777 1.5250629e-18)
(0.27501711 -0.00031711916 1.1533755e-18)
(0.27240981 -0.00032413774 5.1824892e-19)
(0.26665728 -0.00029141517 8.0507889e-19)
(0.256058 -0.00021166603 7.2079486e-19)
(0.24029748 -0.00011813047 9.2551023e-19)
(0.21849214 -5.0707643e-05 7.4785445e-19)
(0.18244204 -8.902534e-06 4.6039428e-19)
(0.27769504 -2.5479044e-05 -6.1473474e-20)
(0.27769529 -6.4159807e-05 4.3531603e-18)
(0.27769247 -0.00010216065 3.6972207e-18)
(0.27767729 -0.00014226521 2.5185109e-18)
(0.27763035 -0.0001815595 2.7161687e-18)
(0.27751275 -0.00021994503 1.4237229e-18)
(0.27724666 -0.00025627339 1.4618922e-18)
(0.27666938 -0.00028847797 8.8328021e-19)
(0.275406 -0.00031203634 6.7794944e-19)
(0.27255164 -0.00031557421 7.3508208e-19)
(0.26641246 -0.00027805925 4.021325e-19)
(0.25553894 -0.0001975371 5.6769929e-19)
(0.23978254 -0.00010914112 5.039554e-19)
(0.21812621 -4.6517861e-05 3.2253791e-19)
(0.18224308 -8.148855e-06 3.2126e-19)
(0.27830111 -2.5301006e-05 9.656056e-20)
(0.27830062 -6.3700269e-05 3.5048857e-18)
(0.27829586 -0.0001014162 3.7374696e-18)
(0.27827669 -0.00014119716 2.4916271e-18)
(0.278222 -0.00018012494 2.6079913e-18)
(0.27808956 -0.00021806116 1.4093111e-18)
(0.2777948 -0.00025377436 1.1597254e-18)
(0.27715962 -0.0002850166 7.503873e-19)
(0.27577079 -0.00030679609 7.9320992e-19)
(0.27265429 -0.00030664249 7.3758672e-19)
(0.26613848 -0.00026467813 4.2768946e-19)
(0.2550323 -0.00018420368 7.7924352e-19)
(0.23929925 -0.00010092916 4.7322244e-19)
(0.21778713 -4.2725645e-05 3.2735924e-19)
(0.18206056 -7.4481435e-06 3.1727681e-19)
(0.27890291 -2.5128516e-05 2.6075372e-18)
(0.27890162 -6.3255127e-05 1.5440349e-18)
(0.27889474 -0.00010069401 1.7312271e-18)
(0.27887126 -0.00014015826 2.3974089e-18)
(0.27880821 -0.00017872332 2.4032752e-18)
(0.27865976 -0.00021620724 1.7288839e-18)
(0.27833397 -0.00025128651 9.2983468e-19)
(0.27763569 -0.00028151345 7.2773548e-19)
(0.27611001 -0.00030136189 7.1623654e-19)
(0.2727179 -0.00029734386 8.8514506e-19)
(0.26584062 -0.00025136317 6.0955326e-19)
(0.25454084 -0.00017167439 5.8346933e-19)
(0.23884602 -9.3403159e-05 2.7270763e-19)
(0.21747286 -3.9273087e-05 4.6570897e-19)
(0.18189296 -6.7970337e-06 3.4352073e-19)
(0.27950056 -2.4960972e-05 -1.5100966e-18)
(0.2794984 -6.2822774e-05 4.0634466e-18)
(0.27948922 -9.9991432e-05 2.0185703e-18)
(0.27946108 -0.00013914466 1.2021348e-18)
(0.279389 -0.00017734922 2.1140116e-18)
(0.27922329 -0.00021437542 6.5407815e-19)
(0.27886389 -0.00024879793 3.9484321e-19)
(0.27809674 -0.00027794828 3.9864241e-19)
(0.27642222 -0.00029569921 2.5501292e-19)
(0.27274323 -0.00028769474 6.130754e-19)
(0.2655241 -0.00023820407 3.4240178e-19)
(0.25406651 -0.00015993912 -9.4595567e-20)
(0.23842119 -8.6481052e-05 -1.5123103e-19)
(0.21718151 -3.6113612e-05 1.8068315e-20)
(0.18173897 -6.1914739e-06 1.6195751e-19)
(0.28009418 -2.4797857e-05 3.9505403e-19)
(0.28009107 -6.2401834e-05 3.8717824e-18)
(0.28007941 -9.9306213e-05 3.2465128e-18)
(0.28004623 -0.00013815299 2.1515832e-18)
(0.27996442 -0.00017599777 1.9437495e-18)
(0.27978006 -0.00021255837 4.585369e-19)
(0.2793842 -0.00024629715 3.8540564e-19)
(0.27854186 -0.00027430051 2.9236658e-19)
(0.27670605 -0.00028977676 4.3062945e-19)
(0.27273166 -0.0002777256 6.6844189e-19)
(0.26519392 -0.00022528491 2.9488789e-19)
(0.25361059 -0.00014897206 6.1616618e-20)
(0.23802316 -8.009123e-05 7.5477025e-20)
(0.21691137 -3.3209338e-05 1.6078769e-20)
(0.18159747 -5.627098e-06 1.2641831e-19)
(0.28068388 -2.4638721e-05 2.9584891e-18)
(0.28067974 -6.1991115e-05 4.3707879e-18)
(0.28066539 -9.863637e-05 3.5420084e-18)
(0.28062676 -0.00013718022 2.5393128e-18)
(0.28053445 -0.00017466448 1.2200296e-18)
(0.28032993 -0.00021074911 5.760205e-19)
(0.27989449 -0.00024377295 1.4900533e-19)
(0.27897002 -0.0002705489 2.6650186e-19)
(0.27696025 -0.00028356786 3.8086659e-19)
(0.27268518 -0.00026747915 5.4289152e-19)
(0.26485469 -0.00021268092 1.96485e-19)
(0.25317379 -0.00013873548 1.4903895e-19)
(0.23765034 -7.4172514e-05 9.0727435e-20)
(0.2166609 -3.0529028e-05 4.1531072e-20)
(0.18146749 -5.0995648e-06 1.4834423e-19)
(0.28126974 -2.4483172e-05 1.8610137e-18)
(0.28126448 -6.1589567e-05 5.5790197e-18)
(0.28124722 -9.7980135e-05 3.8059951e-18)
(0.28120271 -0.00013622364 1.0940322e-18)
(0.28109907 -0.00017334514 3.8096345e-19)
(0.28087275 -0.00020894082 2.4627012e-19)
(0.28039427 -0.00024121406 -3.1195955e-19)
(0.27938014 -0.00026667151 -1.2764259e-19)
(0.27718382 -0.00027705191 -1.4214096e-19)
(0.27260633 -0.00025700811 -1.1579229e-19)
(0.26451052 -0.00020045586 -3.4471499e-19)
(0.25275643 -0.00012918378 -3.6064514e-19)
(0.23730122 -6.8673274e-05 -3.9134075e-19)
(0.21642866 -2.8046558e-05 -1.1789168e-19)
(0.18134818 -4.6048117e-06 -1.297452e-20)
(0.28185185 -2.4330856e-05 4.1869874e-18)
(0.28184539 -6.1196251e-05 4.5913028e-18)
(0.28182498 -9.7335907e-05 3.449873e-18)
(0.28177412 -0.00013528067 1.0965965e-18)
(0.28165823 -0.00017203573 1.1461043e-18)
(0.2814083 -0.00020712676 4.4176953e-19)
(0.28088299 -0.00023860899 -1.8457642e-19)
(0.27977106 -0.0002626457 8.3043955e-20)
(0.27737601 -0.00027021574 -1.0269132e-19)
(0.27249806 -0.00024637257 1.1002284e-19)
(0.26416497 -0.0001886604 -1.2679576e-19)
(0.2523585 -0.00012026722 -3.8058419e-19)
(0.23697438 -6.3550126e-05 -2.2058239e-19)
(0.21621337 -2.5739815e-05 -5.3372762e-20)
(0.18123881 -4.1392038e-06 -1.4091226e-20)
(0.28243029 -2.4181448e-05 4.3533624e-18)
(0.28242252 -6.0810308e-05 4.3264117e-18)
(0.28239871 -9.6702198e-05 2.6527667e-18)
(0.28234099 -0.00013434892 2.3527019e-18)
(0.28221186 -0.00017073227 1.8062229e-18)
(0.28193636 -0.00020530013 1.2223473e-18)
(0.28136003 -0.00023594579 7.2188928e-19)
(0.2801416 -0.00025844846 7.6311565e-19)
(0.27753642 -0.00026305461 5.7690507e-19)
(0.27236366 -0.00023563725 2.2458624e-19)
(0.26382105 -0.00017733136 3.6106039e-19)
(0.25197976 -0.0001119352 1.9312801e-20)
(0.23666845 -5.876649e-05 2.811005e-19)
(0.21601387 -2.358992e-05 7.4507613e-20)
(0.1811387 -3.6995981e-06 1.3249119e-19)
(0.28300512 -2.4034648e-05 1.2198474e-18)
(0.28299594 -6.0430938e-05 2.5397185e-18)
(0.28296845 -9.6077597e-05 2.1189556e-18)
(0.28290332 -0.00013342601 2.5322013e-18)
(0.28275987 -0.00016943078 1.4012469e-18)
(0.28245663 -0.00020345398 1.2572282e-18)
(0.28182471 -0.00023321186 1.0031584e-18)
(0.28049056 -0.0002540569 4.9622947e-19)
(0.27766504 -0.00025557285 6.9002645e-19)
(0.27220658 -0.0002248688 4.0408516e-19)
(0.26348123 -0.00016649191 9.0607916e-20)
(0.25161982 -0.00010413863 9.3348188e-20)
(0.23638216 -5.4291231e-05 1.3390606e-19)
(0.21582908 -2.158066e-05 2.5783231e-20)
(0.18104728 -3.2833426e-06 1.1658072e-19)
(0.2835764 -2.3890167e-05 1.3425318e-18)
(0.28356569 -6.0057379e-05 2.2567858e-18)
(0.28353424 -9.5460739e-05 2.6624986e-18)
(0.2834611 -0.00013250962 2.3697853e-18)
(0.28330215 -0.00016812719 1.5930491e-18)