# Region        : all rock
# Cells         : 6000
# Volume        : 8.36684394e+00
# Time          	volAverage(T)
1000            	2.95179175e+02
2000            	3.02646080e+02
3000            	3.05999655e+02
4000            	3.07518283e+02
5000            	3.08208515e+02
6000            	3.08522835e+02
7000            	3.08666131e+02
8000            	3.08731503e+02
9000            	3.08761341e+02
10000           	3.08773913e+02
11000           	3.08773913e+02
12000           	3.08773913e+02
13000           	3.08773913e+02
14000           	3.08773913e+02
15000           	3.08773913e+02
16000           	3.08773913e+02
17000           	3.08773913e+02
18000           	3.08773913e+02
19000           	3.08773913e+02
20000           	3.08773913e+02
21000           	3.08773913e+02
22000           	3.08773913e+02
23000           	3.08773913e+02
24000           	3.08773913e+02
25000           	3.08773913e+02
26000           	3.08773913e+02
27000           	3.08773913e+02
28000           	3.08773913e+02
29000           	3.08773913e+02
30000           	3.08773913e+02
