/*--------------------------------*- C++ -*----------------------------------*\
| =========                 |                                                 |
| \\      /  F ield         | OpenFOAM: The Open Source CFD Toolbox           |
|  \\    /   O peration     | Version:  2506                                  |
|   \\  /    A nd           | Website:  www.openfoam.com                      |
|    \\/     M anipulation  |                                                 |
\*---------------------------------------------------------------------------*/
FoamFile
{
    version     2.0;
    format      ascii;
    arch        "LSB;label=32;scalar=64";
    class       volScalarField;
    location    "9000/water";
    object      epsilon;
}
// * * * * * * * * * * * * * * * * * * * * * * * * * * * * * * * * * * * * * //

dimensions      [0 2 -3 0 0 0 0];

internalField   nonuniform List<scalar> 
2600
(
8.8079773e-05
8.8079245e-05
8.8079271e-05
8.807949e-05
8.8079744e-05
8.8080245e-05
8.8082926e-05
8.8104349e-05
8.8272771e-05
8.9512908e-05
9.8428186e-05
0.00017145296
0.0010138716
6.7789348e-05
6.7791881e-05
6.7793339e-05
6.7794963e-05
6.7796901e-05
6.7799886e-05
6.7810178e-05
6.7875511e-05
6.8312468e-05
7.1039872e-05
8.7857083e-05
0.00021159534
0.0014669324
5.3500886e-05
5.3503148e-05
5.3504846e-05
5.3506859e-05
5.3509287e-05
5.3513643e-05
5.3532992e-05
5.3656306e-05
5.4399641e-05
5.8506995e-05
8.1500797e-05
0.00023956052
0.0017068244
4.3127504e-05
4.3128883e-05
4.3130503e-05
4.3132598e-05
4.3135149e-05
4.3140834e-05
4.3171684e-05
4.3362646e-05
4.4413342e-05
4.9710824e-05
7.7552644e-05
0.00025818579
0.0017816909
3.539909e-05
3.5400132e-05
3.5401605e-05
3.5403513e-05
3.5405834e-05
3.5412916e-05
3.5457613e-05
3.5722605e-05
3.7073304e-05
4.3450503e-05
7.5629286e-05
0.00027290618
0.0017622817
2.9510599e-05
2.9511446e-05
2.95127e-05
2.9514227e-05
2.9516143e-05
2.9525119e-05
2.9586798e-05
2.9933924e-05
3.159515e-05
3.9095388e-05
7.5939385e-05
0.00028837858
0.0017002497
2.4935213e-05
2.4935877e-05
2.4936847e-05
2.4937875e-05
2.4939416e-05
2.4951342e-05
2.503458e-05
2.5477125e-05
2.7489448e-05
3.6318413e-05
7.8818158e-05
0.0003073199
0.0016256765
2.1318423e-05
2.1318913e-05
2.1319549e-05
2.132003e-05
2.1321464e-05
2.1338095e-05
2.144948e-05
2.2008273e-05
2.4447975e-05
3.4968795e-05
8.4593389e-05
0.00033066897
0.0015541994
1.8415642e-05
1.8415958e-05
1.8416233e-05
1.8416208e-05
1.8418091e-05
1.8442025e-05
1.8590687e-05
1.9295945e-05
2.2279378e-05
3.5010665e-05
9.3512814e-05
0.00035786641
0.0014930959
1.6054297e-05
1.6054439e-05
1.6054351e-05
1.6053968e-05
1.6057197e-05
1.6092028e-05
1.6290179e-05
1.7183376e-05
2.0872546e-05
3.6486908e-05
0.00010564207
0.00038720676
0.0014449141
1.411016e-05
1.4110129e-05
1.4109712e-05
1.4109249e-05
1.4115119e-05
1.4165612e-05
1.4429188e-05
1.5565379e-05
2.0175367e-05
3.9486471e-05
0.00012074249
0.00041640751
0.0014094648
1.249217e-05
1.2491978e-05
1.249131e-05
1.24912e-05
1.2501471e-05
1.2573786e-05
1.2923263e-05
1.4374121e-05
2.0181311e-05
4.4103574e-05
0.00013819401
0.00044331751
0.0013850187
1.1132483e-05
1.1132152e-05
1.1131368e-05
1.1132227e-05
1.1149209e-05
1.1251189e-05
1.1712642e-05
1.3570321e-05
2.0918928e-05
5.0386672e-05
0.00015703479
0.00046647967
0.0013691707
9.9797899e-06
9.9793621e-06
9.9786681e-06
9.9813266e-06
1.0007987e-05
1.0149541e-05
1.0756002e-05
1.3137755e-05
2.2440689e-05
5.8285038e-05
0.00017613324
0.00048532287
0.0013594869
8.994766e-06
8.994305e-06
8.9939894e-06
8.9995396e-06
9.0396464e-06
9.2332357e-06
1.0026406e-05
1.3079617e-05
2.4808572e-05
6.7609618e-05
0.00019442665
0.00050000486
0.0013539038
8.1468971e-06
8.1464947e-06
8.1469469e-06
8.1567947e-06
8.2150975e-06
8.4763588e-06
9.5087285e-06
1.3415553e-05
2.807526e-05
7.8026841e-05
0.0002111215
0.00051110137
0.0013508788
7.4122408e-06
7.412023e-06
7.4137548e-06
7.4296903e-06
7.5121568e-06
7.8606834e-06
9.1980663e-06
1.4178291e-05
3.2262331e-05
8.9094589e-05
0.00022578147
0.00051932558
0.0013493668
6.7718206e-06
6.7719549e-06
6.7756276e-06
6.7999151e-06
6.9140283e-06
7.3743439e-06
9.0987625e-06
1.5408888e-05
3.7339829e-05
0.00010033156
0.00023829849
0.00052535583
0.0013487149
6.2104575e-06
6.2111621e-06
6.2176208e-06
6.2531142e-06
6.4082476e-06
7.0110033e-06
9.2236697e-06
1.7149875e-05
4.3213606e-05
0.00011129559
0.0002487951
0.00052976262
0.0013485457
5.7159095e-06
5.7174657e-06
5.7277834e-06
5.7780724e-06
5.9859581e-06
6.7693776e-06
9.5932706e-06
1.9436233e-05
4.9726067e-05
0.00012164394
0.00025751549
0.00053299526
0.0013486594
5.2782322e-06
5.2809984e-06
5.2965329e-06
5.3661281e-06
5.6414368e-06
6.6530083e-06
1.0234238e-05
2.228513e-05
5.6672016e-05
0.00013115952
0.00026474159
0.0005353945
0.0013489619
4.889296e-06
4.893728e-06
4.9161934e-06
5.0107595e-06
5.3718124e-06
6.6701645e-06
1.1177042e-05
2.5686553e-05
6.3825678e-05
0.00013974422
0.00027074338
0.00053721257
0.0013494179
4.5424222e-06
4.549097e-06
4.5806559e-06
4.707302e-06
5.1769356e-06
6.8337316e-06
1.2452335e-05
2.9597477e-05
7.097079e-05
0.00014739148
0.0002757568
0.0005386328
0.0013500205
4.2321037e-06
4.2417515e-06
4.2851315e-06
4.4527719e-06
5.0593678e-06
7.1609028e-06
1.4086152e-05
3.394183e-05
7.7925113e-05
0.00015415333
0.00027997823
0.00053978641
0.0013507744
3.9537926e-06
3.9673375e-06
4.0259782e-06
4.2457763e-06
5.0244498e-06
7.6724685e-06
1.6094424e-05
3.8616919e-05
8.4553952e-05
0.00016011197
0.00028356674
0.00054076615
0.0013516866
3.7037376e-06
3.7223496e-06
3.8005873e-06
4.0864974e-06
5.0804009e-06
8.3914976e-06
1.8477844e-05
4.3504911e-05
9.0772061e-05
0.00016536002
0.00028664926
0.00054163684
0.0013527623
3.4788613e-06
3.504022e-06
3.6073203e-06
3.9767408e-06
5.2383695e-06
9.3412707e-06
2.1218352e-05
4.8486364e-05
9.6537094e-05
0.00016998886
0.00028932618
0.00054244334
0.0013540034
3.2766694e-06
3.3102566e-06
3.4454921e-06
3.9200366e-06
5.5123349e-06
1.0542478e-05
2.4278371e-05
5.3452376e-05
0.00010183911
0.00017408281
0.00029167656
0.00054321637
0.0013554084
3.0951868e-06
3.1395803e-06
3.315394e-06
3.9217755e-06
5.9187331e-06
1.2009945e-05
2.7603267e-05
5.8312862e-05
0.0001066899
0.00017771679
0.00029376257
0.00054397675
0.0013569729
2.9329181e-06
2.991133e-06
3.2183574e-06
3.9893517e-06
6.4756801e-06
1.3749403e-05
3.112658e-05
6.3000085e-05
0.00011111418
0.0001809559
0.00029563313
0.00054473837
0.0013586903
2.7888292e-06
2.8646819e-06
3.1568532e-06
4.132263e-06
7.2016968e-06
1.5755029e-05
3.4776808e-05
6.7468124e-05
0.00011514328
0.00018385585
0.00029732665
0.00054550992
0.0013605531
2.6623516e-06
2.7606641e-06
3.1346228e-06
4.362102e-06
8.1139276e-06
1.8008404e-05
3.8484156e-05
7.1689805e-05
0.00011881108
0.00018646428
0.00029887505
0.00054629402
0.0013625491
2.5534087e-06
2.680258e-06
3.1568304e-06
4.6923497e-06
9.2259801e-06
2.0479255e-05
4.21859e-05
7.5652556e-05
0.00012215122
0.00018882083
0.00030030032
0.00054708344
0.001364665
2.4624667e-06
2.6254826e-06
3.2302147e-06
5.1378784e-06
1.0545685e-05
2.3127918e-05
4.5829653e-05
7.935444e-05
0.00012519597
0.00019095973
0.00030162122
0.00054787013
0.0013668874
2.3906118e-06
2.5993266e-06
3.3632045e-06
5.7140891e-06
1.2073206e-05
2.5908985e-05
4.9374528e-05
8.2800767e-05
0.00012797522
0.0001929092
0.00030285018
0.00054865288
0.0013692048
2.3396576e-06
2.6059009e-06
3.565945e-06
6.4356565e-06
1.3799941e-05
2.8775319e-05
5.2790669e-05
8.6001443e-05
0.00013051585
0.00019469159
0.00030399376
0.00054944273
0.0013716092
2.3122834e-06
2.6506068e-06
3.8501617e-06
7.314953e-06
1.5708513e-05
3.1681692e-05
5.6057927e-05
8.8969441e-05
0.00013284315
0.00019632773
0.00030505437
0.00055025018
0.0013740956
2.312204e-06
2.740297e-06
4.2287854e-06
8.3603379e-06
1.7773921e-05
3.4587408e-05
5.9163895e-05
9.1718484e-05
0.000134977
0.0001978295
0.00030604752
0.00055107622
0.0013766577
2.3443664e-06
2.8833942e-06
4.7152658e-06
9.5746042e-06
1.9965609e-05
3.7457895e-05
6.2102575e-05
9.4263946e-05
0.00013693775
0.00019920349
0.00030698675
0.00055192215
0.0013792894
2.4151612e-06
3.0899098e-06
5.3225441e-06
1.0953904e-05
2.2249993e-05
4.026506e-05
6.4872078e-05
9.6618923e-05
0.00013873802
0.00020046565
0.00030788006
0.00055278755
0.0013819844
2.5326204e-06
3.371289e-06
6.0617305e-06
1.2487421e-05
2.4593017e-05
4.2987257e-05
6.7474461e-05
9.8797812e-05
0.00014038632
0.00020163083
0.00030873381
0.00055367121
0.0013847362
2.7065544e-06
3.7399968e-06
6.9406286e-06
1.4157863e-05
2.6962172e-05
4.5608169e-05
6.9912765e-05
0.00010081055
0.00014189658
0.00020271014
0.00030955281
0.00055457138
0.0013875385
2.9485499e-06
4.2087758e-06
7.9623499e-06
1.5942734e-05
2.9328091e-05
4.8116704e-05
7.2192972e-05
0.0001026631
0.00014328329
0.00020371267
0.00031034058
0.00055548596
0.0013903847
3.2717204e-06
4.7895531e-06
9.1242818e-06
1.7815986e-05
3.1665e-05
5.0504533e-05
7.431848e-05
0.00010436656
0.00014455809
0.0002046458
0.00031109971
0.0005564126
0.0013932686
3.6900853e-06
5.4920725e-06
1.0417683e-05
1.9750012e-05
3.3951699e-05
5.2768183e-05
7.6289668e-05
0.00010593299
0.00014573089
0.00020551555
0.00031183197
0.00055734878
0.0013961839
4.2174843e-06
6.3224275e-06
1.1827951e-05
2.171714e-05
3.6170246e-05
5.4901159e-05
7.8113757e-05
0.00010737249
0.00014680993
0.00020632674
0.00031253851
0.00055829181
0.0013991243
4.8660256e-06
7.2817742e-06
1.3335593e-05
2.3691123e-05
3.8306688e-05
5.6898168e-05
7.9798304e-05
0.0001086939
0.00014780214
0.00020708321
0.00031321994
0.0005592389
0.0014020836
5.644249e-06
8.3655562e-06
1.4917866e-05
2.564878e-05
4.0344257e-05
5.8760207e-05
8.1350099e-05
0.00010990478
0.00014871321
0.00020778792
0.00031387635
0.00056018712
0.0014050556
6.5553589e-06
9.5634596e-06
1.6550686e-05
2.7565321e-05
4.2272541e-05
6.0488808e-05
8.2775228e-05
0.00011101156
0.00014954783
0.00020844308
0.00031450744
0.00056113341
0.0014080338
7.5961532e-06
1.0860441e-05
1.8207369e-05
2.9419102e-05
4.408453e-05
6.2085814e-05
8.4079034e-05
0.0001120196
0.00015030969
0.00020905022
0.00031511249
0.00056207453
0.0014110119
8.7563152e-06
1.2235551e-05
1.9861232e-05
3.1193216e-05
4.5774965e-05
6.355318e-05
8.5266112e-05
0.00011293328
0.00015100165
0.00020961024
0.00031569038
0.00056300711
0.0014139832
1.0017522e-05
1.3664334e-05
2.1488449e-05
3.2873858e-05
4.7340054e-05
6.4892867e-05
8.6340347e-05
0.00011375612
0.0001516258
0.00021012347
0.00031623966
0.00056392756
0.0014169405
1.1355901e-05
1.5121211e-05
2.3068171e-05
3.4450178e-05
4.8777289e-05
6.6106812e-05
8.7304985e-05
0.00011449085
0.00015218355
0.00021058975
0.00031675852
0.00056483205
0.0014198766
1.2744265e-05
1.6581081e-05
2.4582902e-05
3.5914123e-05
5.0085354e-05
6.719697e-05
8.8162738e-05
0.00011513953
0.00015267569
0.00021100843
0.00031724483
0.00056571654
0.0014227834
1.4154481e-05
1.8020637e-05
2.6018603e-05
3.7260264e-05
5.1264091e-05
6.8165413e-05
8.8915931e-05
0.0001157037
0.00015310253
0.00021137848
0.00031769616
0.00056657676
0.0014256524
1.555958e-05
1.9419301e-05
2.7364606e-05
3.8485597e-05
5.2314489e-05
6.9014448e-05
8.9566663e-05
0.0001161845
0.000153464
0.00021169859
0.00031810988
0.00056740822
0.0014284744
1.6935338e-05
2.0759786e-05
2.8613377e-05
3.9589302e-05
5.3238668e-05
6.9746755e-05
9.0116985e-05
0.00011658288
0.00015375982
0.00021196723
0.00031848322
0.00056820631
0.0014312395
1.8261268e-05
2.2028324e-05
2.9760205e-05
4.0572477e-05
5.4039841e-05
7.0365494e-05
9.0569075e-05
0.00011689975
0.00015398961
0.00021218283
0.00031881335
0.00056896635
0.0014339376
1.9521047e-05
2.3214634e-05
3.0802834e-05
4.143784e-05
5.4722226e-05
7.0874391e-05
9.092539e-05
0.00011713613
0.00015415307
0.00021234389
0.00031909757
0.00056968375
0.0014365578
2.0702515e-05
2.4311687e-05
3.1741085e-05
4.2189435e-05
5.5290937e-05
7.1277772e-05
9.1188791e-05
0.00011729337
0.00015425016
0.00021244916
0.0003193334
0.0005703541
0.0014390892
2.179737e-05
2.5315353e-05
3.257649e-05
4.2832333e-05
5.5751829e-05
7.158056e-05
9.1362628e-05
0.00011737319
0.0001542812
0.00021249775
0.00031951875
0.00057097334
0.0014415208
2.2800694e-05
2.6223984e-05
3.3311942e-05
4.3372363e-05
5.6111339e-05
7.1788222e-05
9.1450782e-05
0.00011737787
0.00015424705
0.00021248928
0.00031965205
0.00057153796
0.0014438421
2.3710404e-05
2.7037978e-05
3.3951389e-05
4.3815875e-05
5.6376318e-05
7.1906695e-05
9.1457661e-05
0.00011731023
0.00015414913
0.00021242403
0.00031973238
0.00057204509
0.0014460429
2.4526702e-05
2.7759362e-05
3.4499556e-05
4.416953e-05
5.6553871e-05
7.1942285e-05
9.1388173e-05
0.00011717368
0.00015398952
0.00021230293
0.00031975958
0.00057249266
0.0014481142
2.5251562e-05
2.8391404e-05
3.4961707e-05
4.444013e-05
5.6651213e-05
7.1901559e-05
9.1247656e-05
0.00011697222
0.00015377099
0.00021212769
0.00031973429
0.00057287951
0.0014500482
2.5888278e-05
2.8938286e-05
3.5343455e-05
4.4634485e-05
5.6675544e-05
7.1791232e-05
9.1041799e-05
0.00011671033
0.00015349694
0.00021190074
0.00031965797
0.0005732054
0.0014518386
2.6441082e-05
2.9404816e-05
3.565059e-05
4.4759301e-05
5.6633945e-05
7.1618063e-05
9.0776548e-05
0.00011639298
0.00015317134
0.00021162524
0.00031953289
0.00057347106
0.0014534807
2.6914834e-05
2.9796195e-05
3.5888956e-05
4.4821105e-05
5.6533301e-05
7.1388761e-05
9.0458005e-05
0.00011602546
0.00015279871
0.00021130494
0.00031936204
0.00057367809
0.0014549716
2.731477e-05
3.0117835e-05
3.6064344e-05
4.4826182e-05
5.6380234e-05
7.11099e-05
9.0092336e-05
0.00011561334
0.00015238397
0.00021094416
0.00031914906
0.00057382892
0.0014563103
2.7646311e-05
3.037521e-05
3.6182415e-05
4.4780537e-05
5.6181058e-05
7.0787856e-05
8.9685676e-05
0.00011516232
0.00015193233
0.00021054762
0.00031889808
0.00057392666
0.0014574974
2.7914913e-05
3.0573747e-05
3.6248645e-05
4.4689865e-05
5.5941756e-05
7.0428745e-05
8.9244052e-05
0.00011467816
0.00015144921
0.00021012036
0.00031861365
0.00057397498
0.0014585351
2.8125958e-05
3.0718742e-05
3.6268277e-05
4.455954e-05
5.5667952e-05
7.0038388e-05
8.8773309e-05
0.00011416658
0.00015094008
0.00020966755
0.00031830053
0.00057397796
0.0014594272
2.8284677e-05
3.0815305e-05
3.6246297e-05
4.43946e-05
5.5364905e-05
6.9622275e-05
8.8279056e-05
0.00011363316
0.00015041042
0.00020919444
0.00031796363
0.00057393997
0.0014601787
2.8396095e-05
3.0868316e-05
3.6187417e-05
4.4199751e-05
5.5037511e-05
6.918555e-05
8.7766617e-05
0.0001130833
0.00014986555
0.00020870623
0.00031760784
0.00057386553
0.0014607959
2.8464993e-05
3.0882401e-05
3.6096063e-05
4.3979371e-05
5.4690298e-05
6.8732992e-05
8.7240993e-05
0.00011252211
0.00014931063
0.00020820795
0.000317238
0.00057375923
0.0014612858
2.8495888e-05
3.0861916e-05
3.5976374e-05
4.3737514e-05
5.4327439e-05
6.8269016e-05
8.6706844e-05
0.00011195443
0.00014875053
0.0002077044
0.0003168587
0.00057362564
0.0014616565
2.849302e-05
3.0810941e-05
3.58322e-05
4.3477919e-05
5.3952759e-05
6.7797671e-05
8.6168462e-05
0.00011138473
0.00014818981
0.00020720008
0.00031647432
0.0005734692
0.0014619164
2.8460348e-05
3.0733276e-05
3.5667112e-05
4.3204025e-05
5.3569749e-05
6.732264e-05
8.562977e-05
0.00011081713
0.00014763265
0.00020669916
0.00031608889
0.00057329413
0.0014620743
2.8401552e-05
3.063245e-05
3.5484405e-05
4.2918976e-05
5.3181575e-05
6.6847257e-05
8.5094314e-05
0.00011025533
0.00014708285
0.00020620537
0.00031570608
0.00057310441
0.0014621394
2.8320039e-05
3.0511721e-05
3.5287111e-05
4.2625641e-05
5.2791097e-05
6.6374509e-05
8.4565268e-05
0.00010970267
0.00014654379
0.00020572207
0.00031532913
0.00057290369
0.0014621205
2.8218951e-05
3.037409e-05
3.5078004e-05
4.2326622e-05
5.240088e-05
6.5907056e-05
8.4045441e-05
0.00010916209
0.00014601847
0.00020525215
0.00031496087
0.00057269523
0.0014620266
2.8101175e-05
3.0222311e-05
3.485962e-05
4.2024271e-05
5.2013213e-05
6.5447241e-05
8.3537292e-05
0.00010863613
0.00014550942
0.00020479809
0.0003146037
0.00057248193
0.001461866
2.7969356e-05
3.0058901e-05
3.4634261e-05
4.1720702e-05
5.1630123e-05
6.4997114e-05
8.3042942e-05
0.00010812697
0.00014501881
0.00020436194
0.00031425961
0.00057226631
0.0014616469
2.782591e-05
2.9886152e-05
3.4404012e-05
4.1417805e-05
5.1253393e-05
6.4558444e-05
8.2564197e-05
0.00010763643
0.00014454842
0.00020394536
0.0003139302
0.00057205052
0.0014613769
2.7673036e-05
2.9706146e-05
3.4170753e-05
4.1117264e-05
5.0884578e-05
6.413274e-05
8.2102565e-05
0.00010716602
0.00014409966
0.00020354964
0.00031361668
0.00057183636
0.0014610633
2.7512729e-05
2.9520769e-05
3.3936174e-05
4.0820567e-05
5.0525022e-05
6.3721273e-05
8.1659279e-05
0.0001067169
0.00014367362
0.00020317575
0.00031332007
0.0005716251
0.0014607123
2.7346793e-05
2.9331719e-05
3.3701784e-05
4.052902e-05
5.0175872e-05
6.3325088e-05
8.1235318e-05
0.00010628998
0.00014327109
0.00020282432
0.00031304089
0.00057141685
0.0014603296
2.7176855e-05
2.9140521e-05
3.3468923e-05
4.0243761e-05
4.9838095e-05
6.294503e-05
8.0831433e-05
0.00010588593
0.00014289262
0.00020249589
0.00031277956
0.0005712094
0.0014599203
2.7004376e-05
2.894854e-05
3.3238777e-05
3.9965772e-05
4.9512491e-05
6.2581756e-05
8.0448161e-05
0.00010550515
0.00014253845
0.00020219035
0.00031253518
0.00057100442
0.0014594895
2.6830662e-05
2.8756989e-05
3.3012388e-05
3.9695891e-05
4.9199709e-05
6.2235756e-05
8.0085863e-05
0.00010514788
0.00014220877
0.00020190785
0.0003123058
0.00057080509
0.0014590429
2.6656875e-05
2.8566943e-05
3.2790661e-05
3.9434823e-05
4.8900258e-05
6.1907371e-05
7.9744729e-05
0.00010481417
0.00014190333
0.00020164679
0.00031209236
0.00057061309
0.0014585855
2.6484045e-05
2.8379347e-05
3.257438e-05
3.9183153e-05
4.8614521e-05
6.1596798e-05
7.9424777e-05
0.00010450383
0.00014162161
0.00020140621
0.00031189538
0.00057042962
0.001458122
2.631308e-05
2.8195027e-05
3.2364214e-05
3.8941353e-05
4.8342772e-05
6.1304128e-05
7.9125944e-05
0.00010421662
0.00014136214
0.00020118609
0.00031171496
0.00057025546
0.0014576564
2.6144774e-05
2.8014701e-05
3.2160727e-05
3.8709797e-05
4.8085182e-05
6.1029335e-05
7.8847979e-05
0.00010395152
0.00014112444
0.00020098611
0.0003115509
0.00057009103
0.0014571923
2.5979818e-05
2.7838985e-05
3.1964391e-05
3.8488766e-05
4.7841828e-05
6.0772283e-05
7.859035e-05
0.00010370767
0.00014090802
0.00020080574
0.0003114028
0.0005699365
0.0014567324
2.5818809e-05
2.7668405e-05
3.1775591e-05
3.8278466e-05
4.7612719e-05
6.0532726e-05
7.8352189e-05
0.00010348455
0.00014071225
0.00020064431
0.00031127011
0.00056979184
0.0014562792
2.566226e-05
2.7503408e-05
3.1594643e-05
3.8079048e-05
4.7397778e-05
6.0309988e-05
7.8133008e-05
0.00010328154
0.00014053641
0.00020050107
0.00031115217
0.00056965691
0.0014558349
2.5510609e-05
2.7344372e-05
3.1421813e-05
3.7890551e-05
4.7196596e-05
6.0103675e-05
7.7932255e-05
0.00010309796
0.00014037968
0.00020037518
0.00031104829
0.0005695315
0.0014554012
2.5364237e-05
2.7191616e-05
3.1257226e-05
3.7712826e-05
4.7008918e-05
5.9913353e-05
7.7749329e-05
0.00010293304
0.00014024122
0.00020026576
0.00031095773
0.00056941541
0.0014549798
2.5223423e-05
2.704533e-05
3.1100925e-05
3.754576e-05
4.683445e-05
5.973855e-05
7.7583586e-05
0.000102786
0.00014012014
0.00020017192
0.00031087976
0.00056930841
0.0014545719
2.508837e-05
2.6905651e-05
3.0952921e-05
3.7389206e-05
4.6672871e-05
5.9578761e-05
7.7434349e-05
0.00010265601
0.00014001551
0.00020009273
0.00031081364
0.00056921027
0.0014541789
2.4959229e-05
2.6772668e-05
3.0813188e-05
3.7242988e-05
4.6523826e-05
5.9433452e-05
7.7300912e-05
0.00010254223
0.0001399264
0.00020002728
0.00031075864
0.00056912076
0.0014538018
2.4836105e-05
2.6646432e-05
3.0681667e-05
3.7106895e-05
4.6386936e-05
5.9302063e-05
7.7182545e-05
0.00010244378
0.00013985186
0.00019997464
0.000310714
0.00056903961
0.0014534414
2.4719063e-05
2.6526958e-05
3.0558266e-05
3.6980693e-05
4.6261795e-05
5.9184011e-05
7.7078501e-05
0.00010235979
0.00013979095
0.00019993389
0.00031067899
0.00056896651
0.0014530985
2.4608133e-05
2.6414224e-05
3.0442863e-05
3.6864119e-05
4.6147977e-05
5.9078698e-05
7.698802e-05
0.00010228937
0.0001397427
0.00019990409
0.00031065285
0.00056890108
0.0014527734
2.4503313e-05
2.6308181e-05
3.0335312e-05
3.6756889e-05
4.6045036e-05
5.8985511e-05
7.6910334e-05
0.00010223163
0.00013970618
0.00019988434
0.00031063481
0.00056884288
0.0014524663
2.440457e-05
2.6208753e-05
3.0235439e-05
3.6658699e-05
4.5952513e-05
5.8903828e-05
7.6844673e-05
0.0001021857
0.00013968046
0.00019987375
0.00031062413
0.00056879147
0.0014521772
2.4311846e-05
2.6115836e-05
3.0143052e-05
3.6569228e-05
4.5869935e-05
5.883302e-05
7.6790271e-05
0.0001021507
0.00013966462
0.00019987145
0.00031062008
0.00056874635
0.0014519057
2.4225061e-05
2.6029308e-05
3.0057938e-05
3.6488141e-05
4.5796823e-05
5.8772461e-05
7.6746369e-05
0.00010212579
0.0001396578
0.00019987661
0.00031062197
0.00056870707
0.0014516517
2.4144113e-05
2.5949026e-05
2.997987e-05
3.6415091e-05
4.5732692e-05
5.8721525e-05
7.6712223e-05
0.00010211014
0.00013965914
0.00019988845
0.00031062916
0.00056867319
0.0014514148
2.4068879e-05
2.5874829e-05
2.9908607e-05
3.6349724e-05
4.5677057e-05
5.8679596e-05
7.6687104e-05
0.00010210296
0.00013966785
0.00019990623
0.00031064105
0.00056864433
0.0014511945
2.3999225e-05
2.5806543e-05
2.9843896e-05
3.6291681e-05
4.5629433e-05
5.8646066e-05
7.6670304e-05
0.00010210347
0.00013968316
0.00019992925
0.0003106571
0.00056862014
0.0014509905
2.3934999e-05
2.5743981e-05
2.9785477e-05
3.6240597e-05
4.5589339e-05
5.862034e-05
7.6661137e-05
0.00010211095
0.00013970434
0.00019995689
0.00031067682
0.00056860033
0.0014508023
2.3876038e-05
2.5686946e-05
2.973308e-05
3.6196106e-05
4.5556299e-05
5.8601836e-05
7.665894e-05
0.0001021247
0.00013973073
0.00019998853
0.00031069977
0.00056858463
0.0014506297
2.3822168e-05
2.5635232e-05
2.9686433e-05
3.6157844e-05
4.5529843e-05
5.8589987e-05
7.6663076e-05
0.00010214405
0.00013976166
0.00020002363
0.00031072552
0.00056857281
0.0014504721
2.3773206e-05
2.5588624e-05
2.9645257e-05
3.6125444e-05
4.550951e-05
5.8584243e-05
7.6672929e-05
0.00010216836
0.00013979655
0.00020006166
0.00031075367
0.00056856461
0.0014503292
2.3728962e-05
2.5546903e-05
2.9609272e-05
3.6098545e-05
4.5494848e-05
5.858407e-05
7.6687911e-05
0.00010219702
0.0001398348
0.00020010212
0.00031078385
0.00056855977
0.0014502004
2.3689239e-05
2.5509844e-05
2.9578196e-05
3.6076789e-05
4.5485416e-05
5.8588953e-05
7.6707457e-05
0.00010222946
0.00013987589
0.00020014454
0.00031081569
0.00056855801
0.0014500852
2.3653834e-05
2.5477217e-05
2.9551746e-05
3.6059821e-05
4.5480782e-05
5.8598395e-05
7.6731028e-05
0.00010226515
0.0001399193
0.0002001885
0.00031084884
0.00056855904
0.001449983
2.3622542e-05
2.5448793e-05
2.9529642e-05
3.6047295e-05
4.548053e-05
5.8611918e-05
7.6758113e-05
0.00010230355
0.00013996455
0.00020023357
0.00031088297
0.00056856255
0.001449893
2.3595155e-05
2.542434e-05
2.9511605e-05
3.6038869e-05
4.5484254e-05
5.8629066e-05
7.6788228e-05
0.0001023442
0.00014001121
0.00020027939
0.00031091776
0.00056856825
0.0014498146
2.3571462e-05
2.5403627e-05
2.9497361e-05
3.6034214e-05
4.5491567e-05
5.8649405e-05
7.6820914e-05
0.00010238665
0.00014005887
0.0002003256
0.00031095294
0.00056857586
0.001449747
2.3551254e-05
2.5386423e-05
2.9486639e-05
3.6033008e-05
4.5502095e-05
5.8672521e-05
7.6855745e-05
0.00010243048
0.00014010716
0.00020037191
0.00031098825
0.00056858511
0.0014496895
2.3534321e-05
2.53725e-05
2.9479174e-05
3.6034938e-05
4.5515482e-05
5.8698026e-05
7.6892321e-05
0.00010247531
0.00014015573
0.00020041802
0.00031102347
0.00056859579
0.0014496414
2.3520456e-05
2.5361635e-05
2.9474709e-05
3.6039707e-05
4.5531388e-05
5.8725555e-05
7.6930273e-05
0.00010252079
0.0001402043
0.00020046371
0.00031105842
0.0005686077
0.0014496021
2.3509455e-05
2.5353607e-05
2.9472994e-05
3.6047026e-05
4.5549492e-05
5.8754764e-05
7.6969257e-05
0.00010256661
0.00014025257
0.00020050875
0.00031109293
0.00056862067
0.0014495709
2.3501117e-05
2.5348201e-05
2.9473785e-05
3.6056621e-05
4.5569491e-05
5.8785335e-05
7.7008959e-05
0.00010261248
0.00014030032
0.00020055297
0.00031112687
0.00056863456
0.0014495474
2.3495244e-05
2.5345208e-05
2.9476851e-05
3.606823e-05
4.5591098e-05
5.8816971e-05
7.704909e-05
0.00010265813
0.00014034733
0.0002005962
0.00031116012
0.00056864925
0.0014495309
2.3491645e-05
2.5344423e-05
2.9481965e-05
3.6081602e-05
4.5614044e-05
5.8849394e-05
7.7089385e-05
0.00010270333
0.00014039341
0.0002006383
0.00031119258
0.00056866462
0.0014495211
2.3490132e-05
2.5345651e-05
2.9488912e-05
3.6096503e-05
4.5638077e-05
5.8882352e-05
7.7129603e-05
0.00010274788
0.00014043839
0.00020067916
0.00031122417
0.00056868055
0.0014495173
2.3490524e-05
2.5348701e-05
2.9497486e-05
3.6112709e-05
4.5662963e-05
5.8915608e-05
7.7169525e-05
0.00010279158
0.00014048213
0.00020071865
0.00031125479
0.00056869693
0.0014495191
2.3492645e-05
2.535339e-05
2.950749e-05
3.6130008e-05
4.5688483e-05
5.8948948e-05
7.7208952e-05
0.00010283426
0.00014052449
0.0002007567
0.00031128437
0.00056871362
0.0014495261
2.3496325e-05
2.5359541e-05
2.9518738e-05
3.6148202e-05
4.5714433e-05
5.8982175e-05
7.7247709e-05
0.00010287578
0.00014056537
0.00020079322
0.00031131283
0.00056873052
0.0014495376
2.3501402e-05
2.5366986e-05
2.953105e-05
3.6167107e-05
4.5740628e-05
5.9015111e-05
7.7285635e-05
0.00010291602
0.00014060466
0.00020082815
0.00031134012
0.00056874748
0.0014495532
2.3507719e-05
2.5375566e-05
2.9544261e-05
3.618655e-05
4.5766894e-05
5.9047593e-05
7.7322592e-05
0.00010295485
0.00014064229
0.00020086142
0.00031136618
0.00056876438
0.0014495724
2.3515127e-05
2.5385128e-05
2.9558213e-05
3.620637e-05
4.5793076e-05
5.907948e-05
7.7358459e-05
0.00010299219
0.00014067821
0.000200893
0.00031139096
0.00056878111
0.0014495947
2.3523485e-05
2.5395527e-05
2.9572759e-05
3.6226419e-05
4.5819031e-05
5.9110644e-05
7.7393131e-05
0.00010302797
0.00014071236
0.00020092287
0.00031141443
0.00056879757
0.0014496197
2.3532657e-05
2.5406628e-05
2.9587761e-05
3.6246563e-05
4.5844633e-05
5.9140973e-05
7.7426522e-05
0.00010306212
0.00014074471
0.00020095101
0.00031143658
0.00056881366
0.0014496468
2.3542519e-05
2.5418303e-05
2.9603091e-05
3.6266677e-05
4.5869768e-05
5.9170372e-05
7.7458561e-05
0.00010309461
0.00014077525
0.00020097742
0.0003114574
0.0005688292
0.0014496757
2.355295e-05
2.5430435e-05
2.9618634e-05
3.6286651e-05
4.5894337e-05
5.9198761e-05
7.7489191e-05
0.00010312539
0.00014080398
0.00020100213
0.0003114769
0.00056884393
0.0014497059
2.3563841e-05
2.5442912e-05
2.9634281e-05
3.6306383e-05
4.5918251e-05
5.9226071e-05
7.751837e-05
0.00010315447
0.0001408309
0.00020102515
0.00031149502
0.00056885784
0.0014497371
2.3575086e-05
2.5455632e-05
2.9649933e-05
3.6325784e-05
4.5941437e-05
5.9252249e-05
7.754607e-05
0.00010318184
0.00014085604
0.00020104651
0.00031151166
0.00056887108
0.0014497691
2.3586592e-05
2.5468501e-05
2.9665503e-05
3.6344775e-05
4.596383e-05
5.9277252e-05
7.7572273e-05
0.0001032075
0.00014087942
0.00020106621
0.0003115269
0.00056888372
0.0014498017
2.3598269e-05
2.5481433e-05
2.968091e-05
3.6363287e-05
4.5985377e-05
5.9301049e-05
7.7596973e-05
0.00010323147
0.00014090109
0.00020108419
0.00031154084
0.00056889581
0.0014498346
2.3610035e-05
2.5494351e-05
2.9696082e-05
3.6381259e-05
4.6006036e-05
5.9323619e-05
7.7620175e-05
0.00010325379
0.00014092101
0.00020110056
0.00031155356
0.00056890738
0.0014498678
2.3621818e-05
2.5507181e-05
2.9710956e-05
3.639864e-05
4.6025773e-05
5.934495e-05
7.7641885e-05
0.00010327447
0.00014093922
0.00020111538
0.00031156515
0.00056891846
0.001449901
2.3633548e-05
2.5519861e-05
2.9725474e-05
3.6415387e-05
4.6044564e-05
5.9365041e-05
7.766213e-05
0.00010329348
0.00014095577
0.00020112875
0.00031157566
0.00056892904
0.0014499341
2.3645164e-05
2.5532332e-05
2.9739589e-05
3.6431465e-05
4.6062392e-05
5.9383895e-05
7.7680892e-05
0.00010331089
0.00014097075
0.00020114074
0.00031158514
0.00056893914
0.0014499671
2.3656612e-05
2.5544543e-05
2.9753258e-05
3.6446846e-05
4.6079248e-05
5.9401505e-05
7.7698189e-05
0.00010332674
0.00014098421
0.00020115141
0.00031159365
0.00056894875
0.0014499997
2.3667842e-05
2.5556451e-05
2.9766446e-05
3.6461512e-05
4.6095119e-05
5.9417869e-05
7.771406e-05
0.00010334109
0.00014099624
0.00020116083
0.00031160123
0.00056895786
0.0014500318
2.3678811e-05
2.5568016e-05
2.9779126e-05
3.6475438e-05
4.6109993e-05
5.9433006e-05
7.7728547e-05
0.000103354
0.00014100689
0.00020116907
0.00031160793
0.00056896646
0.0014500632
2.3689482e-05
2.5579206e-05
2.9791268e-05
3.6488607e-05
4.6123874e-05
5.9446943e-05
7.7741695e-05
0.00010336553
0.00014101624
0.00020117619
0.00031161378
0.00056897454
0.0014500938
2.369982e-05
2.5589987e-05
2.9802848e-05
3.650101e-05
4.6136771e-05
5.945971e-05
7.7753555e-05
0.00010337576
0.00014102435
0.00020118225
0.00031161883
0.00056898208
0.0014501236
2.3709795e-05
2.5600334e-05
2.9813848e-05
3.6512644e-05
4.6148701e-05
5.9471341e-05
7.7764179e-05
0.00010338473
0.0001410313
0.00020118731
0.00031162311
0.00056898908
0.0014501523
2.371938e-05
2.5610225e-05
2.9824257e-05
3.6523512e-05
4.6159683e-05
5.9481877e-05
7.7773621e-05
0.00010339252
0.00014103716
0.00020119144
0.00031162666
0.00056899553
0.0014501798
2.3728555e-05
2.5619642e-05
2.9834068e-05
3.653362e-05
4.6169743e-05
5.9491357e-05
7.7781938e-05
0.00010339919
0.00014104198
0.0002011947
0.00031162953
0.00056900143
0.0014502062
2.3737304e-05
2.5628575e-05
2.9843279e-05
3.6542981e-05
4.6178907e-05
5.9499827e-05
7.7789189e-05
0.00010340482
0.00014104585
0.00020119716
0.00031163177
0.00056900679
0.0014502312
2.3745615e-05
2.5637015e-05
2.9851891e-05
3.655161e-05
4.6187207e-05
5.9507333e-05
7.7795432e-05
0.00010340946
0.00014104883
0.00020119887
0.00031163342
0.00056901162
0.0014502549
2.3753479e-05
2.564496e-05
2.9859911e-05
3.6559525e-05
4.6194676e-05
5.9513923e-05
7.7800728e-05
0.00010341319
0.00014105099
0.0002011999
0.00031163452
0.00056901596
0.0014502772
2.3760894e-05
2.565241e-05
2.9867347e-05
3.6566748e-05
4.620135e-05
5.9519647e-05
7.7805138e-05
0.00010341607
0.0001410524
0.00020120032
0.00031163514
0.00056901982
0.0014502982
2.3767859e-05
2.5659368e-05
2.9874212e-05
3.6573303e-05
4.6207267e-05
5.9524554e-05
7.7808721e-05
0.00010341817
0.00014105313
0.00020120017
0.00031163532
0.00056902325
0.0014503178
2.3774375e-05
2.566584e-05
2.9880521e-05
3.6579216e-05
4.6212463e-05
5.9528695e-05
7.7811536e-05
0.00010341956
0.00014105323
0.00020119953
0.00031163511