/*--------------------------------*- C++ -*----------------------------------*\
| =========                 |                                                 |
| \\      /  F ield         | OpenFOAM: The Open Source CFD Toolbox           |
|  \\    /   O peration     | Version:  2506                                  |
|   \\  /    A nd           | Website:  www.openfoam.com                      |
|    \\/     M anipulation  |                                                 |
\*---------------------------------------------------------------------------*/
FoamFile
{
    version     2.0;
    format      ascii;
    arch        "LSB;label=32;scalar=64";
    class       volScalarField;
    location    "9000/water";
    object      nut;
}
// * * * * * * * * * * * * * * * * * * * * * * * * * * * * * * * * * * * * * //

dimensions      [0 2 -1 0 0 0 0];

internalField   nonuniform List<scalar> 
2600
(
4.0562043e-05
4.0561942e-05
4.0561944e-05
4.0561981e-05
4.0561942e-05
4.0561434e-05
4.0558261e-05
4.0540002e-05
4.0435343e-05
3.98338e-05
3.6541397e-05
2.4161555e-05
1.4889524e-05
3.944741e-05
3.9447468e-05
3.944759e-05
3.9447676e-05
3.9447275e-05
3.9444342e-05
3.9428907e-05
3.9352895e-05
3.8988431e-05
3.7314814e-05
3.0763187e-05
1.7536144e-05
1.684056e-05
3.852265e-05
3.852264e-05
3.8522725e-05
3.8522528e-05
3.8520597e-05
3.8510798e-05
3.8466747e-05
3.8277827e-05
3.7500368e-05
3.454641e-05
2.5814945e-05
1.4669956e-05
1.7712619e-05
3.7742032e-05
3.774193e-05
3.7741811e-05
3.7740766e-05
3.7735283e-05
3.7711707e-05
3.7617453e-05
3.7258039e-05
3.5961308e-05
3.177518e-05
2.2061889e-05
1.3531464e-05
1.7967898e-05
3.7073562e-05
3.7073366e-05
3.7072781e-05
3.7069955e-05
3.7057916e-05
3.7011651e-05
3.6843992e-05
3.6266509e-05
3.4405655e-05
2.9188861e-05
1.9425178e-05
1.3345943e-05
1.7902414e-05
3.6493786e-05
3.6493393e-05
3.6491924e-05
3.648598e-05
3.646354e-05
3.6384687e-05
3.612226e-05
3.5294625e-05
3.2873382e-05
2.6881541e-05
1.771645e-05
1.3793839e-05
1.7689846e-05
3.5985207e-05
3.5984445e-05
3.5981496e-05
3.5970726e-05
3.5933497e-05
3.5812307e-05
3.5437992e-05
3.4343601e-05
3.1395257e-05
2.4892541e-05
1.6781972e-05
1.4727875e-05
1.7427344e-05
3.5534568e-05
3.55332e-05
3.5528007e-05
3.5510417e-05
3.5453869e-05
3.5281761e-05
3.478374e-05
3.3418009e-05
2.9989903e-05
2.3242727e-05
1.6521213e-05
1.605365e-05
1.7168093e-05
3.5131649e-05
3.5129373e-05
3.5121029e-05
3.5094485e-05
3.5014364e-05
3.4784646e-05
3.4156253e-05
3.2521766e-05
2.8667649e-05
2.1957692e-05
1.6869959e-05
1.7676047e-05
1.694009e-05
3.4768438e-05
3.47649e-05
3.4752406e-05
3.4714802e-05
3.4607522e-05
3.4315777e-05
3.3554458e-05
3.16563e-05
2.7438403e-05
2.1076946e-05
1.7774701e-05
1.9481897e-05
1.6755877e-05
3.4438571e-05
3.443338e-05
3.4415717e-05
3.4365168e-05
3.4228127e-05
3.3872266e-05
3.2977968e-05
3.0820513e-05
2.6321667e-05
2.0649591e-05
1.9168673e-05
2.1348725e-05
1.6617712e-05
3.4136931e-05
3.4129689e-05
3.4105903e-05
3.4040932e-05
3.3872746e-05
3.3452766e-05
3.2426062e-05
3.0012536e-05
2.5355877e-05
2.0719809e-05
2.0958175e-05
2.3166793e-05
1.6521078e-05
3.3859367e-05
3.3849701e-05
3.3819003e-05
3.3738723e-05
3.3539365e-05
3.3056856e-05
3.1897087e-05
2.923354e-05
2.4602257e-05
2.1309035e-05
2.3024752e-05
2.4858007e-05
1.6457822e-05
3.3602495e-05
3.3590098e-05
3.355197e-05
3.3456247e-05
3.3227088e-05
3.2684517e-05
3.1388405e-05
2.8493549e-05
2.4138757e-05
2.2402735e-05
2.5241354e-05
2.6381456e-05
1.6418929e-05
3.3363555e-05
3.334823e-05
3.3302533e-05
3.3192135e-05
3.2935885e-05
3.2335692e-05
3.0897111e-05
2.781812e-05
2.4044358e-05
2.3946907e-05
2.7493335e-05
2.7726694e-05
1.6396422e-05
3.3140311e-05
3.3122024e-05
3.3069114e-05
3.2945826e-05
3.2666358e-05
3.2009929e-05
3.0421904e-05
2.725306e-05
2.4379894e-05
2.5855075e-05
2.9693858e-05
2.8902281e-05
1.6384202e-05
3.2930983e-05
3.2909915e-05
3.2850758e-05
3.2717477e-05
3.2419519e-05
3.1706209e-05
2.9966345e-05
2.6863467e-05
2.5173339e-05
2.8023003e-05
3.1788481e-05
2.9925862e-05
1.6378087e-05
3.27342e-05
3.2710811e-05
3.2647097e-05
3.2507877e-05
3.219656e-05
3.1423099e-05
2.9543334e-05
2.6725089e-05
2.6414166e-05
3.0346001e-05
3.3750499e-05
3.0817911e-05
1.6375449e-05
3.254898e-05
3.2524066e-05
3.2458325e-05
3.2318371e-05
3.1998619e-05
3.1159479e-05
2.9179673e-05
2.6909997e-05
2.8056821e-05
3.2733298e-05
3.5572232e-05
3.159849e-05
1.6374764e-05
3.2374714e-05
3.234948e-05
3.2285189e-05
3.2150777e-05
3.1826588e-05
3.0916123e-05
2.8918575e-05
2.7471841e-05
3.0030666e-05
3.5115835e-05
3.7256818e-05
3.2285747e-05
1.6375224e-05
3.2211173e-05
3.2187303e-05
3.2128983e-05
3.2007273e-05
3.1681012e-05
3.0698309e-05
2.8817773e-05
2.8435851e-05
3.2252929e-05
3.7447134e-05
3.8812576e-05
3.2895331e-05
1.6376448e-05
3.2058522e-05
3.2038256e-05
3.199155e-05
3.1890271e-05
3.1562235e-05
3.051924e-05
2.8942305e-05
2.9795901e-05
3.464125e-05
3.9699499e-05
4.0249838e-05
3.3440303e-05
1.6378293e-05
3.1917349e-05
3.1903563e-05
3.1875268e-05
3.1802262e-05
3.147098e-05
3.0403414e-05
2.9353632e-05
3.1518042e-05
3.7123065e-05
4.1858567e-05
4.1579379e-05
3.3931332e-05
1.6380731e-05
3.1788707e-05
3.1784988e-05
3.1783034e-05
3.1745667e-05
3.1409596e-05
3.0388388e-05
3.0098641e-05
3.3548312e-05
3.9640504e-05
4.3918428e-05
4.2811639e-05
3.4377031e-05
1.638378e-05
3.167417e-05
3.1684884e-05
3.1718215e-05
3.1722747e-05
3.1384107e-05
3.0523332e-05
3.1201975e-05
3.5822342e-05
4.2151079e-05
4.5878174e-05
4.3956334e-05
3.4784313e-05
1.6387467e-05
3.1575896e-05
3.1606239e-05
3.1684577e-05
3.1735682e-05
3.1406918e-05
3.0863671e-05
3.2663378e-05
3.8274457e-05
4.4625624e-05
4.7739784e-05
4.5022273e-05
3.5158739e-05
1.6391813e-05
3.1496714e-05
3.155272e-05
3.1686171e-05
3.1786997e-05
3.1499546e-05
3.1462866e-05
3.445981e-05
4.0844582e-05
4.7045146e-05
4.9506882e-05
4.6017315e-05
3.5504794e-05
1.6396824e-05
3.1440215e-05
3.1528703e-05
3.1727217e-05
3.1880504e-05
3.1694229e-05
3.2363743e-05
3.6550943e-05
4.3482185e-05
4.939784e-05
5.1183995e-05
4.6948402e-05
3.5826124e-05
1.6402494e-05
3.141085e-05
3.1539289e-05
3.1812006e-05
3.2022926e-05
3.2033145e-05
3.3591894e-05
3.8886229e-05
4.6147427e-05
5.1676788e-05
5.2776063e-05
4.782164e-05
3.6125718e-05
1.6408802e-05
3.1414042e-05
3.1590274e-05
3.1944928e-05
3.2226119e-05
3.2564563e-05
3.5152685e-05
4.1411888e-05
4.881035e-05
5.3878385e-05
5.4288122e-05
4.8642393e-05
3.6406048e-05
1.6415722e-05
3.1456281e-05
3.1688095e-05
3.2130757e-05
3.2509433e-05
3.3336482e-05
3.7032011e-05
4.4076507e-05
5.1449132e-05
5.6001297e-05
5.5725115e-05
4.9415388e-05
3.6669254e-05
1.642322e-05
3.1545208e-05
3.183974e-05
3.2375386e-05
3.2901323e-05
3.4389413e-05
3.9199977e-05
4.6834636e-05
5.4048189e-05
5.8045691e-05
5.7091638e-05
5.0144339e-05
3.6914944e-05
1.6431248e-05
3.1689662e-05
3.2052668e-05
3.2687146e-05
3.3439136e-05
3.5750341e-05
4.1616212e-05
4.9648336e-05
5.659656e-05
6.0012743e-05
5.8392012e-05
5.0832727e-05
3.7144923e-05
1.6439749e-05
3.1899684e-05
3.2334824e-05
3.3078705e-05
3.4166341e-05
3.7429304e-05
4.4235463e-05
5.2487195e-05
5.9086685e-05
6.1904245e-05
5.9630093e-05
5.1482697e-05
3.7361244e-05
1.6448668e-05
3.2186465e-05
3.2694873e-05
3.3569197e-05
3.5127413e-05
3.9419068e-05
4.7012432e-05
5.5327452e-05
6.1513509e-05
6.3722344e-05
6.0809395e-05
5.2096451e-05
3.7565314e-05
1.6457959e-05
3.2562282e-05
3.3142862e-05
3.4185833e-05
3.6361553e-05
4.1697462e-05
4.9905191e-05
5.8150809e-05
6.3873836e-05
6.5469392e-05
6.1933119e-05
5.26774e-05
3.7758158e-05
1.6467586e-05
3.3040474e-05
3.3691441e-05
3.4963995e-05
3.789695e-05
4.4231435e-05
5.287705e-05
6.0943285e-05
6.6165778e-05
6.7147567e-05
6.3002906e-05
5.3228279e-05
3.7940824e-05
1.6477531e-05
3.3635638e-05
3.4357648e-05
3.5945068e-05
3.9746995e-05
4.6981724e-05
5.589712e-05
6.3694249e-05
6.838843e-05
6.8759335e-05
6.4022595e-05
5.3751054e-05
3.8114079e-05
1.6487766e-05
3.4364223e-05
3.5164901e-05
3.7171978e-05
4.1909157e-05
4.9907179e-05
5.8940025e-05
6.6395664e-05
7.0541366e-05
7.0305657e-05
6.4995388e-05
5.424764e-05
3.8278685e-05
1.6498266e-05
3.5245719e-05
3.6144413e-05
3.8683391e-05
4.4366363e-05
5.2968076e-05
6.1985168e-05
6.9041447e-05
7.2624747e-05
7.1789407e-05
6.5923871e-05
5.4719659e-05
3.8435268e-05
1.6509004e-05
3.6304388e-05
3.7335012e-05
4.0508068e-05
4.7090196e-05
5.6128204e-05
6.5015941e-05
7.1626951e-05
7.4638165e-05
7.3213263e-05
6.6810356e-05
5.5168629e-05
3.8584369e-05
1.6519954e-05
3.7571042e-05
3.8780592e-05
4.2660832e-05
5.0044941e-05
5.9355775e-05
6.8018895e-05
7.4148647e-05
7.6582487e-05
7.4579717e-05
6.7656899e-05
5.5595891e-05
3.872645e-05
1.653109e-05
3.9083846e-05
4.052521e-05
4.5140969e-05
5.3191574e-05
6.2623566e-05
7.0983102e-05
7.6603207e-05
7.8458835e-05
7.5890907e-05
6.8465404e-05
5.6002631e-05
3.8861904e-05
1.6542386e-05
4.0886893e-05
4.2606847e-05
4.7933086e-05
5.649098e-05
6.5908442e-05
7.3899524e-05
7.8988643e-05
8.0268734e-05
7.7148734e-05
6.9237566e-05
5.6389886e-05
3.8991065e-05
1.6553815e-05
4.3025751e-05
4.5051406e-05
5.1009866e-05
5.9906207e-05
6.9190862e-05
7.6760134e-05
8.1303261e-05
8.2013417e-05
7.8354963e-05
6.9974897e-05
5.675856e-05
3.911421e-05
1.6565353e-05
4.554033e-05
4.786844e-05
5.433574e-05
6.3403508e-05
7.2453902e-05
7.9558408e-05
8.3546724e-05
8.3693975e-05
7.9511138e-05
7.0678712e-05
5.7109425e-05
3.9231566e-05
1.6576974e-05
4.8456688e-05
5.1049431e-05
5.7870613e-05
6.6952745e-05
7.5682778e-05
8.2288859e-05
8.5718423e-05
8.5311366e-05
8.0618597e-05
7.1350138e-05
5.7443133e-05
3.9343314e-05
1.6588653e-05
5.1780092e-05
5.456861e-05
6.1572927e-05
7.052686e-05
7.8863938e-05
8.4947811e-05
8.7817762e-05
8.6866347e-05
8.167845e-05
7.1990114e-05
5.7760216e-05
3.9449593e-05
1.6600366e-05
5.5491334e-05
5.8385616e-05
6.540138e-05
7.4100915e-05
8.1987179e-05
8.7531659e-05
8.984404e-05
8.8359439e-05
8.2691571e-05
7.2599393e-05
5.8061096e-05
3.9550498e-05
1.6612086e-05
5.9547196e-05
6.244889e-05
6.9315555e-05
7.7653774e-05
8.5043645e-05
9.0036941e-05
9.1796376e-05
8.9790903e-05
8.3658587e-05
7.3178541e-05
5.8346083e-05
3.9646086e-05
1.662379e-05
6.3884444e-05
6.6699768e-05
7.327819e-05
8.1167571e-05
8.8025178e-05
9.2460233e-05
9.367366e-05
9.116071e-05
8.4579869e-05
7.3727935e-05
5.861538e-05
3.9736371e-05
1.663545e-05
6.8427314e-05
7.1077058e-05
7.7255176e-05
8.4626038e-05
9.0924148e-05
9.4798071e-05
9.547453e-05
9.2468538e-05
8.5455529e-05
7.4247769e-05
5.8869079e-05
3.9821329e-05
1.664704e-05
7.3095514e-05
7.5520267e-05
8.1214711e-05
8.8014203e-05
9.3733343e-05
9.7046935e-05
9.719737e-05
9.3713775e-05
8.6285429e-05
7.4738049e-05
5.9107169e-05
3.9900897e-05
1.6658531e-05
7.7811257e-05
7.9972295e-05
8.5127261e-05
9.1318191e-05
9.6445927e-05
9.9203273e-05
9.8840347e-05
9.4895545e-05
8.7069194e-05
7.5198614e-05
5.9329538e-05
3.9974975e-05
1.6669891e-05
8.250433e-05
8.4381446e-05
8.8965658e-05
9.4525135e-05
9.9055449e-05
0.00010126356
0.00010040148
9.6012757e-05
8.7806245e-05
7.5629145e-05
5.9535985e-05
4.004343e-05
1.6681088e-05
8.711498e-05
8.8702717e-05
9.2705332e-05
9.7623198e-05
0.00010155591
0.00010322442
0.00010187873
9.706418e-05
8.8495848e-05
7.60292e-05
5.9726233e-05
4.0106099e-05
1.6692087e-05
9.159491e-05
9.2898445e-05
9.6324595e-05
0.00010060167
0.00010394185
0.00010508271
0.00010327012
9.8048527e-05
8.9137174e-05
7.6398249e-05
5.989995e-05
4.0162803e-05
1.6702851e-05
9.5906942e-05
9.6938374e-05
9.9804885e-05
0.00010345109
0.00010620847
0.00010683566
0.00010457384
9.8964559e-05
8.9729372e-05
7.6735721e-05
6.0056775e-05
4.021335e-05
1.671334e-05
0.00010002389
0.00010079929
0.00010313092
0.00010616342
0.00010835176
0.00010848102
0.0001057884
9.9811194e-05
9.0271651e-05
7.7041061e-05
6.0196349e-05
4.0257555e-05
1.6723513e-05
0.00010392709
0.00010446438
0.00010629074
0.00010873215
0.00011036856
0.00011001712
0.00010691271
0.0001005876
9.0763362e-05
7.7313783e-05
6.0318348e-05
4.0295248e-05
1.673333e-05
0.00010760488
0.00010792239
0.00010927557
0.00011115237
0.00011225666
0.00011144298
0.00010794618
0.0001012933
9.1204071e-05
7.7553526e-05
6.0422514e-05
4.0326291e-05
1.6742749e-05
0.00011105121
0.00011116679
0.00011207964
0.00011342077
0.00011401484
0.00011275833
0.00010888879
0.00010192821
9.1593628e-05
7.7760108e-05
6.0508691e-05
4.0350589e-05
1.6751731e-05
0.0001142644
0.00011419494
0.00011469989
0.00011553565
0.00011564287
0.00011396366
0.00010974111
0.00010249275
9.193222e-05
7.7933567e-05
6.0576852e-05
4.0368108e-05
1.6760239e-05
0.00011724614
0.00011700734
0.00011713564
0.00011749678
0.0001171415
0.0001150602
0.00011050433
0.00010298779
9.2220407e-05
7.8074199e-05
6.0627125e-05
4.0378882e-05
1.6768238e-05
0.00012000071
0.00011960701
0.00011938825
0.00011930533
0.0001185124
0.00011604989
0.00011118024
0.00010341474
9.2459143e-05
7.8182581e-05
6.0659806e-05
4.038302e-05
1.6775701e-05
0.00012253427
0.00012199887
0.00012146083
0.00012096369
0.0001197581
0.00011693535
0.0001117712
0.00010377549
9.264978e-05
7.8259578e-05
6.0675377e-05
4.0380715e-05
1.6782603e-05
0.00012485442
0.00012418933
0.00012335785
0.00012247535
0.0001208819
0.00011771979
0.00011228011
0.00010407238
9.2794046e-05
7.8306339e-05
6.0674495e-05
4.0372241e-05
1.6788928e-05
0.00012696973
0.00012618592
0.00012508493
0.00012384468
0.00012188778
0.00011840695
0.0001127103
0.00010430817
9.2894016e-05
7.8324277e-05
6.0657992e-05
4.0357948e-05
1.6794665e-05
0.0001288895
0.00012799694
0.00012664855
0.00012507681
0.00012278027
0.00011900101
0.0001130655
0.00010448595
9.2952067e-05
7.8315041e-05
6.0626847e-05
4.0338251e-05
1.6799813e-05
0.00013062342
0.00012963123
0.00012805583
0.00012617746
0.00012356435
0.00011950652
0.00011334975
0.00010460909
9.2970816e-05
7.8280471e-05
6.0582166e-05
4.0313622e-05
1.6804375e-05
0.00013218146
0.00013109796
0.00012931435
0.00012715278
0.00012424534
0.00011992826
0.00011356728
0.00010468119
9.2953071e-05
7.8222556e-05
6.052515e-05
4.0284571e-05
1.6808361e-05
0.00013357366
0.00013240647
0.00013043197
0.00012800925
0.00012482882
0.00012027122
0.00011372251
0.00010470595
9.2901765e-05
7.8143389e-05
6.0457066e-05
4.0251634e-05
1.6811787e-05
0.00013481001
0.00013356614
0.00013141673
0.00012875352
0.00012532051
0.00012054048
0.00011381993
0.0001046872
9.2819908e-05
7.8045127e-05
6.0379219e-05
4.0215357e-05
1.6814674e-05
0.0001359004
0.00013458628
0.00013227669
0.00012939237
0.00012572623
0.00012074117
0.00011386405
0.00010462875
9.2710544e-05
7.7929952e-05
6.0292928e-05
4.017629e-05
1.6817044e-05
0.00013685451
0.00013547607
0.0001330199
0.00012993259
0.00012605182
0.00012087844
0.00011385939
0.00010453443
9.2576708e-05
7.7800045e-05
6.0199507e-05
4.0134973e-05
1.6818926e-05
0.0001376818
0.00013624449
0.0001336543
0.00013038096
0.0001263031
0.00012095739
0.00011381041
0.00010440801
9.2421404e-05
7.7657559e-05
6.0100245e-05
4.0091934e-05
1.682035e-05
0.00013839145
0.00013690031
0.0001341877
0.00013074416
0.00012648582
0.00012098304
0.00011372148
0.0001042532
9.2247568e-05
7.7504595e-05
5.9996396e-05
4.0047678e-05
1.6821348e-05
0.00013899234
0.000137452
0.00013462771
0.00013102875
0.00012660563
0.00012096032
0.00011359687
0.00010407359
9.2058048e-05
7.7343182e-05
5.9889161e-05
4.0002684e-05
1.6821953e-05
0.000139493
0.00013790776
0.00013498171
0.00013124112
0.00012666802
0.00012089398
0.00011344071
0.00010387265
9.1855574e-05
7.7175257e-05
5.9779677e-05
3.99574e-05
1.6822201e-05
0.00013990162
0.00013827544
0.0001352568
0.00013138744
0.00012667831
0.00012078864
0.00011325697
0.00010365366
9.1642733e-05
7.7002638e-05
5.9668999e-05
3.9912234e-05
1.6822125e-05
0.000140226
0.00013856254
0.00013545979
0.00013147365
0.00012664161
0.00012064869
0.00011304938
0.00010341976
9.1421947e-05
7.6827011e-05
5.9558091e-05
3.986755e-05
1.6821762e-05
0.00014047352
0.00013877616
0.00013559716
0.0001315054
0.00012656277
0.0001204783
0.0001128215
0.00010317384
9.1195454e-05
7.6649915e-05
5.9447816e-05
3.9823664e-05
1.6821144e-05
0.00014065117
0.00013892303
0.00013567504
0.00013148807
0.00012644641
0.00012028139
0.00011257663
0.00010291859
9.0965298e-05
7.6472731e-05
5.9338933e-05
3.9780846e-05
1.6820302e-05
0.00014076551
0.00013900948
0.00013569924
0.00013142672
0.00012629686
0.00012006164
0.00011231783
0.00010265648
9.0733331e-05
7.6296687e-05
5.9232097e-05
3.9739317e-05
1.6819268e-05
0.0001408227
0.00013904147
0.00013567519
0.00013132613
0.00012611821
0.00011982249
0.00011204795
0.00010238978
9.0501219e-05
7.6122867e-05
5.9127866e-05
3.9699255e-05
1.6818067e-05
0.00014082855
0.00013902458
0.00013560803
0.00013119079
0.00012591429
0.00011956715
0.00011176962
0.00010212053
9.027045e-05
7.5952199e-05
5.9026665e-05
3.9660589e-05
1.6816724e-05
0.00014078848
0.00013896405
0.00013550257
0.00013102493
0.00012568868
0.00011929862
0.00011148527
0.00010185062
9.0042349e-05
7.5785484e-05
5.8928829e-05
3.9623256e-05
1.6815259e-05
0.00014070759
0.00013886482
0.00013536334
0.00013083254
0.00012544479
0.00011901969
0.00011119713
0.00010158174
8.9818078e-05
7.5623349e-05
5.8834371e-05
3.9587544e-05
1.6813691e-05
0.00014059068
0.00013873151
0.00013519461
0.00013061735
0.00012518576
0.00011873297
0.00011090726
0.00010131543
8.9598676e-05
7.5466384e-05
5.8743641e-05
3.9553585e-05
1.6812038e-05
0.00014044223
0.00013856847
0.00013500037
0.00013038288
0.00012491457
0.00011844087
0.00011061757
0.00010105306
8.9384968e-05
7.5314745e-05
5.8657096e-05
3.9521485e-05
1.6810322e-05
0.00014026646
0.00013837976
0.00013478435
0.00013013241
0.00012463398
0.00011814562
0.00011032974
0.00010079581
8.9177633e-05
7.5169169e-05
5.8574912e-05
3.9491311e-05
1.6808562e-05
0.00014006724
0.00013816914
0.00013455005
0.00012986897
0.00012434653
0.00011784925
0.00011004531
0.00010054474
8.8977266e-05
7.5030158e-05
5.8497247e-05
3.9463113e-05
1.6806776e-05
0.0001398482
0.0001379401
0.00013430065
0.00012959537
0.00012405452
0.00011755356
0.00010976555
0.00010030052
8.8784703e-05
7.489799e-05
5.8424202e-05
3.9436911e-05
1.6804983e-05
0.00013961264
0.00013769585
0.0001340391
0.00012931415
0.00012376004
0.00011726013
0.00010949152
0.00010006414
8.8600426e-05
7.4772851e-05
5.8355819e-05
3.9412699e-05
1.6803195e-05
0.00013936358
0.00013743929
0.00013376807
0.00012902759
0.00012346492
0.0001169703
0.0001092242
9.983635e-05
8.8424765e-05
7.4654843e-05
5.8292085e-05
3.9390441e-05
1.6801426e-05
0.00013910374
0.00013717306
0.00013348995
0.00012873776
0.00012317076
0.00011668519
0.00010896465
9.9617678e-05
8.8257935e-05
7.4543989e-05
5.8232937e-05
3.9370081e-05
1.6799685e-05
0.0001388356
0.00013689953
0.00013320689
0.0001284464
0.00012287888
0.00011640607
0.00010871359
9.9408502e-05
8.8100055e-05
7.4440246e-05
5.8178277e-05
3.9351549e-05
1.679798e-05
0.00013856138
0.00013662083
0.00013292075
0.0001281551
0.00012259076
0.00011613394
0.00010847163
9.9209099e-05
8.7951169e-05
7.4343524e-05
5.8127981e-05
3.9334766e-05
1.6796317e-05
0.00013828304
0.00013633881
0.00013263329
0.00012786547
0.00012230763
0.00011586963
0.00010823926
9.9019665e-05
8.7811263e-05
7.42537e-05
5.8081911e-05
3.9319654e-05
1.67947e-05
0.0001380024
0.00013605528
0.00013234619
0.00012757894
0.00012203058
0.00011561388
0.00010801687
9.8840334e-05
8.768029e-05
7.4170637e-05
5.8039928e-05
3.9306135e-05
1.6793134e-05
0.00013772116
0.0001357719
0.00013206096
0.00012729679
0.00012176057
0.00011536734
0.00010780481
9.8671192e-05
8.7558172e-05
7.4094183e-05
5.8001893e-05
3.9294139e-05
1.6791623e-05
0.0001374409
0.00013549021
0.00013177903
0.00012702018
0.00012149848
0.00011513054
0.00010760334
9.851228e-05
8.7444807e-05
7.4024179e-05
5.7967666e-05
3.9283597e-05
1.6790171e-05
0.00013716309
0.00013521161
0.00013150164
0.00012675016
0.00012124506
0.00011490396
0.00010741265
9.8363594e-05
8.7340064e-05
7.3960454e-05
5.7937106e-05
3.9274443e-05
1.6788781e-05
0.00013688907
0.00013493738
0.00013122997
0.00012648767
0.00012100098
0.00011468798
0.00010723288
9.8225076e-05
8.7243778e-05
7.3902817e-05
5.7910066e-05
3.9266609e-05
1.6787456e-05
0.00013662003
0.00013466867
0.000130965
0.0001262335
0.00012076678
0.00011448286
0.00010706407
9.8096607e-05
8.7155744e-05
7.3851051e-05
5.7886384e-05
3.9260021e-05
1.67862e-05
0.00013635701
0.00013440649
0.00013070763
0.00012598833
0.00012054288
0.0001142888
0.00010690619
9.7978008e-05
8.7075711e-05
7.3804913e-05
5.7865883e-05
3.9254599e-05
1.6785013e-05
0.00013610095
0.00013415168
0.00013045857
0.00012575269
0.00012032959
0.00011410586
0.00010675912
9.7869035e-05
8.7003384e-05
7.3764131e-05
5.7848375e-05
3.9250259e-05
1.6783897e-05
0.00013585258
0.00013390498
0.00013021845
0.00012552702
0.00012012713
0.00011393404
0.00010662268
9.7769388e-05
8.693843e-05
7.3728413e-05
5.7833657e-05
3.924691e-05
1.6782851e-05
0.00013561256
0.00013366695
0.00012998771
0.0001253116
0.00011993557
0.00011377323
0.00010649662
9.7678725e-05
8.688049e-05
7.3697451e-05
5.7821523e-05
3.9244462e-05
1.6781874e-05
0.00013538137
0.00013343807
0.00012976674
0.00012510664
0.00011975494
0.00011362328
0.00010638062
9.7596674e-05
8.6829192e-05
7.3670934e-05
5.7811769e-05
3.9242829e-05
1.6780964e-05
0.00013515943
0.0001332187
0.0001295558
0.00012491227
0.00011958519
0.00011348396
0.00010627437
9.7522849e-05
8.6784159e-05
7.3648557e-05
5.78042e-05
3.924193e-05
1.6780119e-05
0.00013494704
0.00013300912
0.00012935507
0.00012472854
0.00011942622
0.00011335504
0.00010617752
9.7456863e-05
8.6745028e-05
7.3630031e-05
5.7798633e-05
3.924169e-05
1.6779336e-05
0.00013474446
0.00013280954
0.00012916469
0.00012455545
0.00011927789
0.00011323625
0.00010608972
9.7398338e-05
8.671145e-05
7.3615086e-05
5.7794902e-05
3.9242047e-05
1.6778613e-05
0.00013455187
0.00013262011
0.00012898473
0.00012439298
0.00011914004
0.00011312732
0.00010601061
9.7346906e-05
8.6683093e-05
7.3603468e-05
5.7792857e-05
3.9242945e-05
1.6777948e-05
0.00013436941
0.00013244095
0.00012881524
0.00012424105
0.00011901247
0.00011302795
0.00010593985
9.7302211e-05
8.6659643e-05
7.3594944e-05
5.7792359e-05
3.9244332e-05
1.677734e-05
0.00013419718
0.00013227211
0.00012865621
0.00012409955
0.00011889499
0.00011293785
0.0001058771
9.7263902e-05
8.6640795e-05
7.3589289e-05
5.779328e-05
3.9246165e-05
1.6776787e-05
0.0001340352
0.00013211361
0.00012850758
0.00012396836
0.00011878735
0.00011285669
0.00010582198
9.7231628e-05
8.6626249e-05
7.3586285e-05
5.7795495e-05
3.9248396e-05
1.6776288e-05
0.00013388347
0.0001319654
0.00012836926
0.00012384728
0.00011868927
0.00011278414
0.00010577414
9.7205033e-05
8.6615705e-05
7.3585717e-05
5.779888e-05
3.9250983e-05
1.6775841e-05
0.00013374191
0.0001318274
0.00012824111
0.00012373609
0.00011860046
0.00011271984
0.00010573318
9.7183753e-05
8.6608861e-05
7.3587367e-05
5.7803311e-05
3.9253879e-05
1.6775444e-05
0.00013361041
0.00013169946
0.00012812292
0.00012363452
0.00011852057
0.00011266339
0.00010569871
9.7167415e-05
8.6605408e-05
7.3591017e-05
5.7808664e-05
3.9257037e-05
1.6775096e-05
0.00013348878
0.00013158137
0.00012801444
0.00012354226
0.00011844922
0.00011261437
0.0001056703
9.7155642e-05
8.6605039e-05
7.3596449e-05
5.7814814e-05
3.926041e-05
1.6774793e-05
0.00013337678
0.00013147289
0.00012791539
0.00012345895
0.00011838602
0.00011257237
0.00010564753
9.7148053e-05
8.6607446e-05
7.3603447e-05
5.7821639e-05
3.9263953e-05
1.6774533e-05
0.00013327414
0.00013137372
0.00012782542
0.00012338422
0.00011833054
0.00011253693
0.00010562999
9.7144275e-05
8.6612335e-05
7.3611808e-05
5.7829025e-05
3.9267622e-05
1.6774313e-05
0.00013318056
0.00013128353
0.0001277442
0.00012331767
0.00011828236
0.00011250763
0.00010561725
9.7143949e-05
8.6619423e-05
7.3621338e-05
5.7836864e-05
3.9271379e-05
1.677413e-05
0.00013309569
0.00013120199
0.00012767133
0.0001232589
0.00011824105
0.00011248404
0.00010560893
9.7146734e-05
8.6628446e-05
7.363186e-05
5.7845061e-05
3.9275191e-05
1.677398e-05
0.00013301918
0.00013112872
0.00012760645
0.00012320751
0.00011820619
0.00011246574
0.00010560464
9.7152312e-05
8.6639163e-05
7.3643215e-05
5.7853534e-05
3.927903e-05
1.6773862e-05
0.00013295069
0.00013106338
0.00012754916
0.00012316308
0.00011817736
0.00011245233
0.00010560402
9.7160386e-05
8.6651354e-05
7.3655261e-05
5.7862208e-05
3.9282874e-05
1.6773772e-05
0.00013288987
0.00013100559
0.0001274991
0.00012312524
0.00011815419
0.00011244346
0.00010560674
9.7170687e-05
8.6664819e-05
7.3667874e-05
5.7871023e-05
3.9286704e-05
1.6773709e-05
0.00013283635
0.000130955
0.00012745589
0.00012309359
0.00011813628
0.00011243875
0.0001056125
9.7182961e-05
8.6679378e-05
7.3680939e-05
5.7879924e-05
3.9290505e-05
1.677367e-05
0.00013278978
0.00013091124
0.00012741916
0.00012306777
0.00011812327
0.00011243787
0.00010562099
9.7196975e-05
8.6694862e-05
7.3694356e-05
5.7888862e-05
3.9294262e-05
1.6773654e-05
0.00013274983
0.00013087397
0.00012738854
0.0001230474
0.00011811481
0.00011244049
0.00010563194
9.7212506e-05
8.6711114e-05
7.3708028e-05
5.7897794e-05
3.9297965e-05
1.6773659e-05
0.00013271612
0.00013084282
0.00012736368
0.00012303212
0.00011811054
0.00011244629
0.00010564506
9.7229341e-05
8.6727985e-05
7.3721866e-05
5.7906677e-05
3.93016e-05
1.6773684e-05
0.00013268831
0.00013081743
0.0001273442
0.00012302157
0.00011811012
0.00011245495
0.00010566011
9.7247274e-05
8.674533e-05
7.3735783e-05
5.7915468e-05
3.9305156e-05
1.6773727e-05
0.00013266602
0.00013079742
0.00012732973
0.00012301538
0.0001181132
0.00011246618
0.00010567681
9.7266104e-05
8.6763009e-05
7.3749693e-05
5.7924129e-05
3.9308618e-05
1.6773786e-05
0.00013264888
0.00013078243
0.00012731991
0.00012301319
0.00011811944
0.00011247966
0.00010569493
9.7285639e-05
8.6780887e-05
7.3763516e-05
5.7932618e-05
3.9311975e-05
1.677386e-05
0.00013263652
0.00013077208
0.00012731434
0.00012301463
0.0001181285
0.0001124951
0.0001057142
9.7305692e-05
8.6798836e-05
7.3777174e-05
5.79409e-05
3.9315214e-05
1.6773947e-05
0.00013262854
0.00013076598
0.00012731267
0.00012301936
0.00011814007
0.00011251222
0.00010573441
9.7326088e-05
8.6816735e-05
7.3790596e-05
5.7948939e-05
3.9318326e-05
1.6774044e-05
0.00013262458
0.00013076376
0.00012731452
0.00012302701
0.00011815381
0.00011253075
0.00010575533
9.7346664e-05
8.6834475e-05
7.3803716e-05
5.7956703e-05
3.9321282e-05
1.677415e-05
0.00013262427
0.00013076506
0.00012731953
0.00012303726
0.00011816944
0.00011255043
0.00010577677
9.7367271e-05
8.6851956e-05
7.3816477e-05
5.7964163e-05
3.9324067e-05
1.6774263e-05
0.00013262725
0.00013076952
0.00012732738
0.00012304979
0.00011818667
0.00011257103
0.00010579853
9.7387776e-05
8.6869092e-05
7.3828827e-05
5.7971279e-05
3.9326689e-05
1.6774382e-05
0.00013263317
0.00013077681
0.00012733772
0.00012306429
0.00011820525
0.00011259233
0.00010582045
9.7408065e-05
8.688581e-05
7.3840727e-05
5.7978039e-05
3.9329153e-05
1.6774503e-05
0.00013264173
0.00013078661
0.00012735027
0.00012308051
0.00011822493
0.00011261414
0.0001058424
9.7428037e-05
8.6902047e-05
7.385213e-05
5.7984453e-05
3.9331462e-05
1.6774627e-05
0.00013265263
0.00013079864
0.00012736474
0.00012309818
0.00011824549
0.00011263629
0.00010586424
9.7447611e-05
8.6917757e-05
7.3863025e-05
5.799052e-05
3.9333619e-05
1.6774753e-05
0.00013266559
0.00013081262
0.00012738089
0.00012311707
0.00011826676
0.00011265864
0.00010588587
9.7466713e-05
8.6932881e-05
7.3873418e-05
5.7996242e-05
3.933563e-05
1.677488e-05
0.00013268037
0.0001308283
0.00012739847
0.00012313699
0.00011828856
0.00011268104
0.00010590719
9.748528e-05
8.6947415e-05
7.3883304e-05
5.8001625e-05
3.9337501e-05
1.6775007e-05
0.00013269674
0.00013084548
0.00012741728
0.00012315774
0.00011831072
0.00011270338
0.00010592812
9.7503262e-05
8.696135e-05
7.3892681e-05
5.8006676e-05
3.9339238e-05
1.6775134e-05
0.00013271449
0.00013086392
0.00012743712
0.00012317914
0.00011833311
0.00011272555
0.00010594857
9.7520638e-05
8.6974673e-05
7.3901553e-05
5.8011403e-05
3.9340846e-05
1.677526e-05
0.00013273341
0.00013088344
0.0001274578
0.00012320103
0.00011835559
0.00011274744
0.00010596851
9.753738e-05
8.6987374e-05
7.3909924e-05
5.8015816e-05
3.9342333e-05
1.6775385e-05
0.00013275332
0.00013090385
0.00012747915
0.00012322326
0.00011837803
0.00011276897
0.00010598786
9.7553459e-05
8.6999447e-05
7.3917799e-05
5.8019923e-05
3.9343702e-05
1.6775509e-05
0.00013277402
0.00013092497
0.000127501
0.00012324567
0.00011840031
0.00011279006
0.0001060066
9.7568853e-05
8.7010885e-05
7.3925183e-05
5.8023732e-05
3.9344959e-05
1.6775632e-05
0.00013279533
0.00013094661
0.00012752316
0.00012326812
0.00011842234
0.00011281064
0.00010602467
9.7583538e-05
8.7021684e-05
7.393208e-05
5.8027249e-05
3.9346106e-05
1.6775752e-05
0.00013281706
0.0001309686
0.00012754549
0.00012329047
0.000118444
0.00011283064
0.00010604203
9.7597493e-05
8.7031839e-05
7.3938496e-05
5.8030482e-05
3.9347148e-05
1.677587e-05
0.00013283905
0.00013099076
0.00012756783
0.00012331261
0.00011846519
0.00011284998
0.00010605863
9.76107e-05
8.7041346e-05
7.3944434e-05
5.8033435e-05
3.9348086e-05
1.6775985e-05
0.00013286111
0.00013101293
0.00012759003
0.0001233344
0.00011848584
0.00011286861
0.00010607445
9.7623143e-05
8.7050203e-05
7.3949899e-05
5.8036115e-05
3.9348924e-05
1.6776096e-05
0.00013288308
0.00013103496
0.00012761196
0.00012335574
0.00011850585
0.00011288646
0.00010608944
9.7634809e-05
8.7058411e-05
7.3954897e-05
5.8038526e-05
3.9349664e-05
1.6776204e-05
0.00013290481
0.00013105671
0.00012763349
0.00012337652
0.00011852514
0.0001129035
0.00010610359
9.7645692e-05
8.7065973e-05
7.3959436e-05
5.8040676e-05
3.9350309e-05
1.6776307e-05
0.00013292616
0.00013107804
0.00012765451
0.00012339666
0.00011854365
0.00011291967
0.00010611687
9.7655788e-05
8.7072896e-05
7.3963524e-05
5.8042572e-05
3.935086e-05
1.6776406e-05
0.00013294702
0.00013109884
0.00012767492
0.00012341606
0.00011856133
0.00011293496
0.00010612928
9.7665104e-05
8.7079191e-05
7.3967175e-05
5.8044223e-05
3.9351323e-05
1.6776499e-05
0.00013296729
0.00013111901
0.00012769463
0.00012343468
0.00011857814
0.00011294934
0.00010614082
9.7673652e-05
8.7084877e-05
7.3970405e-05
5.804564e-05
3.9351702e-05
1.6776587e-05
0.00013298688
0.00013113849
0.00012771358
0.00012345246
0.00011859405
0.00011296281
0.0001061515
9.7681451e-05
8.7089975e-05
7.3973233e-05
5.8046836e-05
3.9352001e-05
1.6776669e-05
0.00013300576
0.00013115722
0.00012773174
0.00012346939
0.00011860906
0.00011297538
0.00010616134
9.7688529e-05
8.7094512e-05
7.3975682e-05
5.8047824e-05
3.9352227e-05
1.6776746e-05
0.00013302387