/*--------------------------------*- C++ -*----------------------------------*\
| =========                 |                                                 |
| \\      /  F ield         | OpenFOAM: The Open Source CFD Toolbox           |
|  \\    /   O peration     | Version:  2506                                  |
|   \\  /    A nd           | Website:  www.openfoam.com                      |
|    \\/     M anipulation  |                                                 |
\*---------------------------------------------------------------------------*/
FoamFile
{
    version     2.0;
    format      ascii;
    arch        "LSB;label=32;scalar=64";
    class       surfaceScalarField;
    location    "9000/water";
    object      phi;
}
// * * * * * * * * * * * * * * * * * * * * * * * * * * * * * * * * * * * * * //

dimensions      [1 0 -1 0 0 0 0];

oriented        oriented;

internalField   nonuniform List<scalar> 
4987
(
-6.9167736e-06
0.00085760419
-2.7656569e-05
0.0024926737
-6.1431121e-05
0.0040117068
-0.0001075903
0.0054211695
-0.00016565319
0.0067272392
-0.00023525167
0.0079357375
-0.00031606519
0.0090521266
-0.00040763483
0.010081416
-0.00050867084
0.011027654
-0.00061447105
0.011892066
-0.00070641237
0.012665127
-0.00069017742
0.01327532
0.013255156
-6.4252098e-06
0.00086402939
-2.4701717e-05
0.0025109502
-5.3973207e-05
0.0040409782
-9.3433184e-05
0.0054606295
-0.00014227852
0.0067760845
-0.00019970621
0.0079931652
-0.00026484255
0.0091172629
-0.00033648012
0.010153054
-0.00041221923
0.011103393
-0.0004856843
0.011965531
-0.00053558126
0.012715024
-0.00047144624
0.013211185
0.01278371
-6.163969e-06
0.00087019336
-2.380905e-05
0.0025285953
-5.2164898e-05
0.0040693341
-9.0528704e-05
0.0054989933
-0.00013822172
0.0068237776
-0.00019455674
0.0080495002
-0.00025870612
0.0091814123
-0.00032929751
0.010223645
-0.00040329175
0.011177387
-0.00047276141
0.012035
-0.00051220841
0.012754471
-0.00042242592
0.013121403
0.012361284
-6.1054147e-06
0.00087629878
-2.3924376e-05
0.0025464143
-5.2620538e-05
0.0040980303
-9.1395558e-05
0.0055377683
-0.00013947504
0.006871857
-0.00019604176
0.0081060669
-0.00026004543
0.009245416
-0.00032969289
0.010293293
-0.00040116834
0.011248863
-0.00046497904
0.012098811
-0.00049117541
0.012780667
-0.00037835998
0.013008587
0.011982924
-5.9919785e-06
0.00088229076
-2.3432324e-05
0.0025638546
-5.1502783e-05
0.0041261007
-8.9417765e-05
0.0055756833
-0.0001363976
0.0069188369
-0.00019157934
0.0081612487
-0.00025377584
0.0093076125
-0.0003208868
0.010360404
-0.00038849228
0.011316468
-0.0004456482
0.012155967
-0.00045837524
0.012793394
-0.00033102689
0.012881239
0.011651897
-5.8197985e-06
0.00088811056
-2.2720415e-05
0.0025807553
-4.9911333e-05
0.0041532916
-8.6629802e-05
0.0056124017
-0.00013209822
0.0069643053
-0.00018540983
0.0082145603
-0.00024524284
0.0093674455
-0.00030921061
0.010424371
-0.00037232044
0.011379578
-0.00042207813
0.012205725
-0.00042081904
0.012792135
-0.00028517408
0.012745594
0.011366723
-5.6148952e-06
0.00089372545
-2.1923414e-05
0.0025970638
-4.8158186e-05
0.0041795264
-8.35701e-05
0.0056478136
-0.00012737381
0.007008109
-0.00017860877
0.0082657952
-0.00023581604
0.0094246528
-0.00029633568
0.010484891
-0.0003545854
0.011437828
-0.00039630862
0.012247448
-0.00038067559
0.012776502
-0.00024201049
0.012606929
0.011124713
-5.4046947e-06
0.00089913014
-2.1106786e-05
0.0026127659
-4.6361915e-05
0.0042047815
-8.0433153e-05
0.0056818849
-0.00012252438
0.0070502002
-0.00017161842
0.0083148893
-0.0002261212
0.0094791555
-0.00028309872
0.010541869
-0.00033629459
0.011491024
-0.00036936757
0.012280521
-0.00033930313
0.012746438
-0.00020218079
0.012469807
0.010922532
-5.2040372e-06
0.00090433418
-2.032245e-05
0.0026278843
-4.4632487e-05
0.0042290916
-7.7407183e-05
0.0057146596
-0.000117836
0.007090629
-0.00016484161
0.0083618949
-0.00021669175
0.0095310057
-0.00027015443
0.010595331
-0.00031814583
0.011539015
-0.00034189245
0.012304267
-0.00029797663
0.012702522
-0.00016629141
0.012338121
0.010756241
-5.0193755e-06
0.00090935356
-1.9599432e-05
0.0026424643
-4.3036007e-05
0.0042525281
-7.4608171e-05
0.0057462317
-0.00011348606
0.0071295069
-0.00015852683
0.0084069356
-0.0002078498
0.0095803287
-0.00025787593
0.010645357
-0.00030047882
0.011581618
-0.00031421626
0.012318005
-0.00025799659
0.012646302
-0.00013488814
0.012215013
0.010621352
-4.8544122e-06
0.00091420797
-1.8953518e-05
0.0026565634
-4.1607992e-05
0.0042751826
-7.2098328e-05
0.0057767221
-0.00010956978
0.0071669784
-0.00015280648
0.0084501723
-0.00019976083
0.009627283
-0.00024643025
0.010692027
-0.00028338283
0.01161857
-0.00028657101
0.012321193
-0.00022065197
0.012580383
-0.00010831398
0.012102675
0.010513038
-4.7104908e-06
0.00091891846
-1.838964e-05
0.0026702426
-4.0359025e-05
0.004297152
-6.9895774e-05
0.0058062588
-0.00010611414
0.0072031967
-0.00014771517
0.0084917734
-0.00019245611
0.0096720239
-0.00023580475
0.010735375
-0.00026674608
0.011649512
-0.00025920371
0.012313651
-0.00018698909
0.012508168
-8.6549235e-05
0.012002235
0.010426489
-4.5864893e-06
0.00092350495
-1.7903118e-05
0.0026835592
-3.9278552e-05
0.0043185274
-6.7981782e-05
0.0058349621
-0.00010308929
0.0072383042
-0.0001432058
0.0085318899
-0.00018585427
0.0097146724
-0.00022583644
0.010775358
-0.0002503233
0.011673999
-0.00023244679
0.012295774
-0.00015760689
0.012433329
-6.9195209e-05
0.011913823
0.010357294
-4.4797101e-06
0.00092798466
-1.7483378e-05
0.0026965629
-3.8343222e-05
0.0043393873
-6.6315361e-05
0.0058629342
-0.00010043089
0.0072724198
-0.00013918123
0.0085706402
-0.00017980338
0.0097552946
-0.00021627053
0.010811825
-0.0002338457
0.011691574
-0.00020673154
0.01226866
-0.0001326094
0.012359206
-5.5603111e-05
0.011836817
0.010301691
-4.3869483e-06
0.00093237161
-1.7117944e-05
0.0027092939
-3.7525518e-05
0.0043597948
-6.4848149e-05
0.0058902568
-9.8062774e-05
0.0073056344
-0.00013552609
0.0086081035
-0.00017412332
0.0097938918
-0.00020682318
0.010844525
-0.00021713162
0.011701882
-0.00018252415
0.012234052
-0.00011170489
0.012288387
-4.5044655e-05
0.011770157
0.010256646
-4.305191e-06
0.0009366768
-1.679506e-05
0.0027217838
-3.6799452e-05
0.0043797992
-6.3534224e-05
0.0059169916
-9.5911856e-05
0.007338012
-0.0001321276
0.0086443193
-0.00016863372
0.0098303979
-0.0001972305
0.010873121
-0.00020015793
0.01170481
-0.0001602209
0.012194115
-9.4372482e-05
0.012222539
-3.6838815e-05
0.011712623
0.010219807
-4.2319149e-06
0.00094090871
-1.650485e-05
0.0027340567
-3.6143083e-05
0.0043994375
-6.2334436e-05
0.005943183
-9.3914663e-05
0.0073695922
-0.00012888455
0.0086792892
-0.00016316714
0.0098646805
-0.00018728235
0.010897237
-0.00018307194
0.011700599
-0.00014006424
0.012151108
-8.0017929e-05
0.012162492
-3.0412514e-05
0.011663018
0.010189395
-4.1651418e-06
0.00094507385
-1.6239539e-05
0.0027461311
-3.5538992e-05
0.0044187369
-6.1217189e-05
0.0059688612
-9.2018424e-05
0.0074003935
-0.00012570858
0.0087129793
-0.00015757395
0.0098965459
-0.00017684648
0.010916509
-0.00016614713
0.0116899
-0.0001221172
0.012107078
-6.8078241e-05
0.012108453
-2.5313024e-05
0.011620253
0.010164082
-4.1033745e-06
0.00094917723
-1.5993201e-05
0.0027580209
-3.4973725e-05
0.0044377174
-6.0157433e-05
0.0059940449
-9.0179432e-05
0.0074304155
-0.00012252186
0.0087453217
-0.00015172469
0.0099257487
-0.0001658846
0.010930669
-0.00014970629
0.011673722
-0.00010629217
0.012063664
-5.807152e-05
0.012060233
-2.1196919e-05
0.011583378
0.010142885
-4.045497e-06
0.00095322273
-1.5761374e-05
0.0027697368
-3.443692e-05
0.004456393
-5.9135103e-05
0.006018743
-8.8360529e-05
0.0074596409
-0.0001192538
0.008776215
-0.00014551369
0.0099520086
-0.00015445694
0.010939612
-0.00013404494
0.01165331
-9.2406392e-05
0.012022025
-4.9608156e-05
0.012017435
-1.781101e-05
0.011551581
0.010125074
-3.9906704e-06
0.0009572134
-1.5540649e-05
0.0027812868
-3.3920383e-05
0.0044747727
-5.813347e-05
0.0060429561
-8.6528475e-05
0.0074880359
-0.00011583834
0.0088055249
-0.00013886506
0.0099750353
-0.00014270996
0.010943457
-0.0001193799
0.01162998
-8.0236228e-05
0.011982881
-4.2382125e-05
0.01197958
-1.4972587e-05
0.011524171
0.010110101
-3.9382459e-06
0.00096115164
-1.5328321e-05
0.0027926768
-3.3417324e-05
0.0044928617
-5.7137748e-05
0.0060666766
-8.4651726e-05
0.0075155499
-0.00011221299
0.0088330861
-0.00013174064
0.009994563
-0.00013084741
0.010942564
-0.00010583199
0.011604964
-6.9555657e-05
0.011946605
-3.6155818e-05
0.011946181
-1.2551507e-05
0.011500567
0.01009755
-3.8876947e-06
0.00096503934
-1.512212e-05
0.0028039113
-3.2921707e-05
0.0045106613
-5.6133919e-05
0.0060898888
-8.2698663e-05
0.0075421146
-0.00010831969
0.0088587072
-0.00012414735
0.010010391
-0.00011909198
0.010937509
-9.3435697e-05
0.011579308
-6.0156888e-05
0.011913326
-3.0745122e-05
0.011916769
-1.0455497e-05
0.011480277
0.010087094
-3.8385567e-06
0.00096887789
-1.4919992e-05
0.0028149927
-3.2427783e-05
0.0045281691
-5.5107849e-05
0.0061125688
-8.0636492e-05
0.0075676433
-0.00010410814
0.0088821788
-0.00011614034
0.010022423
-0.00010764918
0.010929017
-8.2162716e-05
0.011553821
-5.1858102e-05
0.011883022
-2.6007007e-05
0.011890918
-8.6187485e-06
0.011462889
0.010078476
-3.7904018e-06
0.0009726683
-1.471995e-05
0.0028259223
-3.1929704e-05
0.0045453789
-5.4044564e-05
0.0061346837
-7.8430837e-05
0.0075920295
-9.9540734e-05
0.0089032887
-0.00010781835
0.0100307
-9.6682482e-05
0.010917882
-7.1946846e-05
0.011529086
-4.4503961e-05
0.011855579
-2.1829744e-05
0.011868244
-6.9937001e-06
0.011448053
0.010071482
-3.7427998e-06
0.0009764111
-1.4519944e-05
0.0028366994
-3.1421226e-05
0.0045622801
-5.2927707e-05
0.0061561902
-7.6046255e-05
0.0076151481
-9.4598623e-05
0.0089218411
-9.931096e-05
0.010035413
-8.6303353e-05
0.010904874
-6.2703774e-05
0.011505486
-3.7963128e-05
0.011830838
-1.8125323e-05
0.011848406
-5.5452856e-06
0.011435473
0.010065937
-3.6952976e-06
0.00098010639
-1.4317762e-05
0.0028473219
-3.0895461e-05
0.0045788578
-5.1739148e-05
0.0061770339
-7.3447799e-05
0.0076368567
-8.9287315e-05
0.0089376806
-9.0760481e-05
0.010036886
-7.6573761e-05
0.010890687
-5.434402e-05
0.011483256
-3.2125049e-05
0.011808619
-1.4823681e-05
0.011831104
-4.2469925e-06
0.011424896
0.01006169
-3.6473961e-06
0.00098375379
-1.4110935e-05
0.0028577854
-3.034464e-05
0.0045950915
-5.0458781e-05
0.006197148
-7.0603632e-05
0.0076570016
-8.3639728e-05
0.0089507167
-8.2303592e-05
0.01003555
-6.7515794e-05
0.010875899
-4.6780157e-05
0.011462521
-2.6896723e-05
0.011788736
-1.1868354e-05
0.011816076
-3.0782572e-06
0.011416106
0.010058611
-3.5985289e-06
0.00098735232
-1.3896642e-05
0.0028680835
-2.9759896e-05
0.0046109548
-4.906462e-05
0.0062164527
-6.7488585e-05
0.0076754255
-7.7715074e-05
0.0089609432
-7.4057339e-05
0.010031892
-5.912331e-05
0.010860965
-3.9930398e-05
0.011443328
-2.2199856e-05
0.011771005
-9.2132807e-06
0.011803089
-2.0226536e-06
0.011408916
0.010056589
-3.5480255e-06
0.00099090035
-1.3671564e-05
0.0028782071
-2.9130948e-05
0.0046264142
-4.7533109e-05
0.0062348549
-6.4087906e-05
0.0076919803
-7.1592539e-05
0.0089684478
-6.6111081e-05
0.010026411
-5.1371372e-05
0.010846226
-3.3718962e-05
0.011425676
-1.7967088e-05
0.011755253
-6.8191869e-06
0.011791942
-1.066573e-06
0.011403163
0.010055522
-3.4950998e-06
0.00099439545
-1.343182e-05
0.0028881438
-2.8446031e-05
0.0046414284
-4.5840364e-05
0.0062522492
-6.04013e-05
0.0077065413
-6.5362286e-05
0.0089734088
-5.8525779e-05
0.010019574
-4.4224377e-05
0.010831924
-2.8076923e-05
0.011409528
-1.4140028e-05
0.011741316
-4.6491627e-06
0.011782451
-1.6922322e-07
0.011398683
0.010055353
-3.4388795e-06
0.00099783432
-1.3173131e-05
0.002897878
-2.7692438e-05
0.0046559477
-4.3964993e-05
0.0062685218
-5.6447125e-05
0.0077190234
-5.9117554e-05
0.0089760792
-5.1340486e-05
0.010011797
-3.7645553e-05
0.010818229
-2.2947456e-05
0.01139483
-1.0674757e-05
0.011729044
-2.6810909e-06
0.011774457
6.6544609e-07
0.011395337
0.010056018
-3.3783153e-06
0.0010012126
-1.2890439e-05
0.0029073902
-2.6855997e-05
0.0046699133
-4.1889313e-05
0.0062835551
-5.226084e-05
0.0077293949
-5.2943432e-05
0.0089767618
-4.4574257e-05
0.010003428
-3.1595999e-05
0.010805251
-1.8279612e-05
0.011381514
-7.5311722e-06
0.011718295
-8.8301867e-07
0.011767809
1.4049971e-06
0.011393049
0.010057423
-3.3120985e-06
0.0010045247
-1.2577618e-05
0.0029166557
-2.5921008e-05
0.0046832566
-3.9601335e-05
0.0062972354
-4.7891273e-05
0.0077376849
-4.6909585e-05
0.0089757801
-3.8229286e-05
0.0099947476
-2.6033925e-05
0.010793056
-1.4024265e-05
0.011369504
-4.6695333e-06
0.011708941
7.7466656e-07
0.011762365
2.0667321e-06
0.011391757
0.01005949
-3.2386931e-06
0.0010077634
-1.2227715e-05
0.0029256447
-2.4871688e-05
0.0046959006
-3.709872e-05
0.0063094625
-4.3397669e-05
0.0077439838
-4.1070818e-05
0.0089734533
-3.2299148e-05
0.0099859759
-2.0920733e-05
0.010781677
-1.0139951e-05
0.011358723
-2.0591305e-06
0.01170086
2.277999e-06
0.011758028
2.663877e-06
0.011391371
0.010062154
-3.1562774e-06
0.0010109197
-1.1832823e-05
0.0029343212
-2.369304e-05
0.0047077608
-3.4390257e-05
0.0063201597
-3.8842821e-05
0.0077484364
-3.5466336e-05
0.0089700768
-2.6770495e-05
0.0099772801
-1.6218821e-05
0.010771126
-6.5853505e-06
0.01134909
3.4751086e-07
0.011693927
3.6322467e-06
0.011754743
3.2023291e-06
0.011391801
0.010065356
-3.0627122e-06
0.0010139824
-1.1384179e-05
0.0029426427
-2.2372405e-05
0.0047187491
-3.1496506e-05
0.0063292838
-3.4287365e-05
0.0077512272
-3.0121876e-05
0.0089659113
-2.1625952e-05
0.0099687841
-1.1894078e-05
0.010761394
-3.3303452e-06
0.011340526
2.5510703e-06
0.011688046
4.8616534e-06
0.011752432
3.6898288e-06
0.011392972
0.010069046
-2.9555343e-06
0.001016938
-1.087249e-05
0.0029505597
-2.0901465e-05
0.004728778
-2.8448953e-05
0.0063368313
-2.9785809e-05
0.0077525641
-2.5052622e-05
0.0089611781
-1.6845498e-05
0.009960577
-7.9112532e-06
0.01075246
-3.267635e-07
0.011332941
4.543372e-06
0.011683175
5.9753396e-06
0.011751
4.1313114e-06
0.011394816
0.010073178
-2.8319481e-06
0.0010197699
-1.028836e-05
0.0029580161
-1.92779e-05
0.0047377676
-2.5286911e-05
0.0063428403
-2.5383511e-05
0.0077526607
-2.026502e-05
0.0089560596
-1.2407986e-05
0.00995272
-4.2419051e-06
0.010744293
2.4380047e-06
0.011326262
6.3569864e-06
0.011679256
6.9857592e-06
0.011750371
4.5313155e-06
0.011397271
0.010077709
-2.6889077e-06
0.0010224588
-9.6232142e-06
0.0029649504
-1.7507136e-05
0.0047456515
-2.2054224e-05
0.0063473874
-2.111649e-05
0.0077517229
-1.5759144e-05
0.0089507023
-8.2896988e-06
0.0099452505
-8.4673448e-07
0.01073685
4.9536551e-06
0.011320461
8.0064707e-06
0.011676204
7.9030662e-06
0.011750475
4.8939889e-06
0.01140028
0.010082603
-2.5232507e-06
0.0010249821
-8.8703662e-06
0.0029712975
-1.5602916e-05
0.004752384
-1.879523e-05
0.0063505797
-1.7011668e-05
0.0077499394
-1.1530738e-05
0.0089452214
-4.4700357e-06
0.0099381898
2.2909448e-06
0.01073009
7.249494e-06
0.011315503
9.5068694e-06
0.011673946
8.7354257e-06
0.011751246
5.2223181e-06
0.011403793
0.010087825
-2.3319754e-06
0.001027314
-8.0264275e-06
0.002976992
-1.3587014e-05
0.0047579446
-1.555171e-05
0.0063525444
-1.3087807e-05
0.0077474755
-7.570064e-06
0.0089397036
-9.1687959e-07
0.0099315366
5.1653228e-06
0.010724007
9.3448395e-06
0.011311323
1.0871944e-05
0.011672419
9.4906009e-06
0.011752628
5.5193431e-06
0.011407764
0.010093344
-2.1126551e-06
0.0010294267
-7.0926633e-06
0.002981972
-1.1487685e-05
0.0047623396
-1.236077e-05
0.0063534175
-9.3574565e-06
0.0077444722
-3.8681046e-06
0.0089342143
2.3811838e-06
0.0099252874
7.7971163e-06
0.010718591
1.1256318e-05
0.011307864
1.2113246e-05
0.011671562
1.0174994e-05
0.011754566
5.7874266e-06
0.011412152
0.010099132
-1.864028e-06
0.0010312907
-6.0761546e-06
0.0029861841
-9.3374833e-06
0.004765601
-9.2536002e-06
0.0063533336
-5.8255953e-06
0.0077410442
-4.0088674e-07
0.0089287896
5.4171384e-06
0.0099194693
1.0206071e-05
0.010713802
1.299912e-05
0.011305071
1.3241026e-05
0.01167132
1.0794275e-05
0.011757013
6.0287297e-06
0.011416917
0.010105161
-1.5866528e-06
0.0010328774
-4.9902406e-06
0.0029895877
-7.1706332e-06
0.0047677814
-6.2552755e-06
0.0063524182
-2.4927392e-06
0.0077372816
2.8316856e-06
0.0089234651
8.2067998e-06
0.0099140942
1.240895e-05
0.0107096
1.4586648e-05
0.011302893
1.4264272e-05
0.011671643
1.1353367e-05
0.011759924
6.2450691e-06
0.011422026
0.010111406
-1.2835183e-06
0.0010341609
-3.8541855e-06
0.0029921583
-5.0207825e-06
0.004768948
-3.3849456e-06
0.0063507824
6.4622659e-07
0.0077332504
5.8153844e-06
0.008918296
1.0765938e-05
0.0099091437
1.4420848e-05
0.010705945
1.6030834e-05
0.011301283
1.5191009e-05
0.011672482
1.1856707e-05
0.011763258
6.4381692e-06
0.011427444
0.010117844
-9.6035059e-07
0.0010351212
-2.6918229e-06
0.0029938898
-2.918338e-06
0.0047691745
-6.5059835e-07
0.0063485146
3.5782692e-06
0.0077290216
8.5629413e-06
0.0089133113
1.3108593e-05
0.009904598
1.6254548e-05
0.010702799
1.7341544e-05
0.011300196
1.6027697e-05
0.011673796
1.2307727e-05
0.011766978
6.6092271e-06
0.011433143
0.010124453
-6.2535253e-07
0.0010357466
-1.5291155e-06
0.0029947936
-8.8735714e-07
0.0047685327
1.9291125e-06
0.0063456982
6.2873383e-06
0.0077246634
1.1084092e-05
0.0089085146
1.5247521e-05
0.0099004346
1.792174e-05
0.010700125
1.8527767e-05
0.01129959
1.6780263e-05
0.011675544
1.2709642e-05
0.011771048
6.7594547e-06
0.011439093
0.010131213
-2.8821748e-07
0.0010360348
-3.9067242e-07
0.002994896
1.0457231e-06
0.0047670963
4.3266921e-06
0.0063424172
8.777146e-06
0.0077202129
1.3387485e-05
0.0089039042
1.7193163e-05
0.0098966289
1.9431871e-05
0.010697887
1.9596656e-05
0.011299425
1.7453282e-05
0.011677687
1.30648e-05
0.011775437
6.8896384e-06
0.011445268
0.010138102
4.0782769e-08
0.001035994
6.9666417e-07
0.0029942402
2.8486096e-06
0.0047649444
6.5296282e-06
0.0063387362
1.1049546e-05
0.007715693
1.5480333e-05
0.0088994734
1.8954102e-05
0.0098931551
2.0792591e-05
0.010696048
2.0553883e-05
0.011299664
1.8050278e-05
0.011680191
1.3374921e-05
0.011780112
7.0002971e-06
0.011451643
0.010145102
3.5067577e-07
0.0010356434
1.7048733e-06
0.002992886
4.4971019e-06
0.0047621522
8.530806e-06
0.0063347025
1.3105751e-05
0.007711118
1.7368052e-05
0.0088952111
2.0536784e-05
0.0098899864
2.2009532e-05
0.010694575
2.1403461e-05
0.01130027
1.8573544e-05
0.011683021
1.3640939e-05
0.011785045
7.0915892e-06
0.011458192
0.010152194
6.3199475e-07
0.0010350114
2.6138022e-06
0.0029909042
5.9772077e-06
0.0047587888
1.032453e-05
0.0063303552
1.4946309e-05
0.0077064963
1.9054297e-05
0.0088911031
2.194556e-05
0.0098870952
2.3086329e-05
0.010693435
2.2147727e-05
0.011301209
1.9024125e-05
0.011686144
1.386298e-05
0.011790206
7.1632792e-06
0.011464892
0.010159357
8.7876351e-07
0.0010341326
3.4113843e-06
0.0029883715
7.2795535e-06
0.0047549206
1.1906916e-05
0.0063257278
1.6571508e-05
0.0077018317
2.054136e-05
0.0088871333
2.3183006e-05
0.0098844535
2.402486e-05
0.010692593
2.278751e-05
0.011302446
1.940192e-05
0.01168953
1.4040432e-05
0.011795568
7.2148054e-06
0.011471717
0.010166572
1.0879016e-06
0.0010330447
4.0915528e-06
0.0029853679
8.3995063e-06
0.0047506126
1.3276249e-05
0.0063208511
1.7981824e-05
0.0076971261
2.1830602e-05
0.0088832845
2.4250304e-05
0.0098820338
2.4825548e-05
0.010692017
2.3322358e-05
0.011303949
1.9705828e-05
0.011693146
1.4172007e-05
0.011801101
7.2452505e-06
0.011478644
0.010173817
1.258895e-06
0.0010317858
4.6536574e-06
0.0029819731
9.3370775e-06
0.0047459292
1.4433317e-05
0.0063157548
1.9178425e-05
0.007692381
2.2922949e-05
0.00887954
2.5147648e-05
0.0098798091
2.5487661e-05
0.010691677
2.3750732e-05
0.011305686
1.9933893e-05
0.011696963
1.4255866e-05
0.011806779
7.2534844e-06
0.011485647
0.010181071
1.393213e-06
0.0010303926
5.1015103e-06
0.0029782648
1.0096586e-05
0.0047409341
1.5381696e-05
0.0063104697
2.0163747e-05
0.0076875989
2.3819547e-05
0.0088758842
2.587486e-05
0.0098777538
2.600985e-05
0.010691542
2.4070468e-05
0.011307626
2.0083614e-05
0.01170095
1.428979e-05
0.011812573
7.2381579e-06
0.011492698
0.010188309
1.493655e-06
0.0010288989
5.4422356e-06
0.0029743162
1.0686056e-05
0.0047356903
1.6127792e-05
0.006305028
2.0941902e-05
0.0076827848
2.4522278e-05
0.0088723038
2.6431895e-05
0.0098758442
2.6390569e-05
0.010691584
2.4279048e-05
0.011309737
2.0152189e-05
0.011705077
1.4271371e-05
0.011818454
7.1979037e-06
0.011499772
0.010195507
1.5637654e-06
0.0010273352
5.6851386e-06
0.0029701949
1.1116465e-05
0.004730259
1.6680746e-05
0.0062994637
2.1519032e-05
0.0076779465
2.5034347e-05
0.0088687885
2.6819491e-05
0.009874059
2.6628703e-05
0.010691775
2.4374224e-05
0.011311992
2.0136946e-05
0.011709314
1.4198267e-05
0.011824393
7.131323e-06
0.011506839
0.010202638
1.6073758e-06
0.0010257278
5.8406894e-06
0.0029659616
1.1400879e-05
0.0047246988
1.7052054e-05
0.0062938125
2.1903352e-05
0.0076730952
2.5360552e-05
0.0088653313
2.7039522e-05
0.0098723801
2.6723927e-05
0.01069209
2.4354261e-05
0.011314361
2.0035603e-05
0.011713633
1.4068439e-05
0.01183036
7.0372746e-06
0.01151387
0.010209676
1.6282889e-06
0.0010240995
5.9197276e-06
0.0029616701
1.155364e-05
0.0047190649
1.7255126e-05
0.006288111
2.210512e-05
0.0076682453
2.5507555e-05
0.0088619289
2.7095452e-05
0.0098707922
2.6677218e-05
0.010692508
2.4218491e-05
0.01131682
1.9846678e-05
0.011718005
1.38804e-05
0.011836326
6.9148611e-06
0.011520835
0.01021659
1.630083e-06
0.0010224694
5.9328738e-06
0.0029573673
1.1589619e-05
0.0047134081
1.7304726e-05
0.0062823959
2.213638e-05
0.0076634136
2.5483881e-05
0.0088585814
2.6992484e-05
0.0098692836
2.649109e-05
0.01069301
2.3967531e-05
0.011319344
1.9569744e-05
0.011722403
1.3633433e-05
0.011842262
6.763627e-06
0.011527705
0.010223354
1.6160089e-06
0.0010208534
5.8901467e-06
0.0029530932
1.1523619e-05
0.0047077747
1.7216422e-05
0.0062767031
2.2010636e-05
0.0076586194
2.5299832e-05
0.0088552922
2.6737665e-05
0.0098678457
2.616982e-05
0.010693578
2.3603589e-05
0.01132191
1.9205683e-05
0.0117268
1.3327782e-05
0.01184814
6.5836319e-06
0.011534449
0.010229938
1.5889484e-06
0.0010192645
5.8007394e-06
0.0029488814
1.1369921e-05
0.0047022055
1.7006074e-05
0.006271067
2.1742446e-05
0.007653883
2.4967256e-05
0.0088520674
2.6339822e-05
0.0098664732
2.5719493e-05
0.010694198
2.3130566e-05
0.011324499
1.8756846e-05
0.011731174
1.2964797e-05
0.011853932
6.3755298e-06
0.011541039
0.010236313
1.5514137e-06
0.001017713
5.6729163e-06
0.0029447599
1.1141967e-05
0.0046967364
1.6689387e-05
0.0062655196
2.1347003e-05
0.0076492254
2.4499236e-05
0.0088489151
2.580937e-05
0.009865163
2.514793e-05
0.010694859
2.2554068e-05
0.011327093
1.8227091e-05
0.011735501
1.2546983e-05
0.011859613
6.1406261e-06
0.011547445
0.010242454
1.5055678e-06
0.0010162075
5.5139947e-06
0.0029407515
1.0852171e-05
0.0046913983
1.6281563e-05
0.0062600902
2.0839743e-05
0.0076446672
2.390975e-05
0.0088458451
2.5158069e-05
0.0098639147
2.4464536e-05
0.010695553
2.1881325e-05
0.011329676
1.7621761e-05
0.011739761
1.2078001e-05
0.011865156
5.8808606e-06
0.011553642
0.010248335
1.4532573e-06
0.0010147542
5.3303767e-06
0.0029368743
1.0511813e-05
0.0046862168
1.5797031e-05
0.0062548049
2.0235975e-05
0.0076402283
2.3213295e-05
0.0088428678
2.4398689e-05
0.0098627293
2.3680023e-05
0.010696272
2.1120985e-05
0.011332235
1.6947525e-05
0.011743934
1.1562551e-05
0.011870541
5.5987435e-06
0.011559606
0.010253933
1.3960478e-06
0.0010133582
5.1276114e-06
0.0029331428
1.0131017e-05
0.0046812134
1.5249256e-05
0.0062496867
1.9550571e-05
0.007635927
2.2424516e-05
0.0088399938
2.3544642e-05
0.0098616092
2.2806077e-05
0.01069701
2.0282814e-05
0.011334758
1.6212146e-05
0.011748005
1.1006218e-05
0.011875747
5.2972962e-06
0.011565315
0.010259231
1.3352598e-06
0.0010120229
4.9104734e-06
0.0029295676
9.7187665e-06
0.0046764051
1.4650629e-05
0.0062447548
1.8797729e-05
0.0076317799
2.1557904e-05
0.0088372337
2.2609654e-05
0.0098605574
2.185504e-05
0.010697765
1.9377421e-05
0.011337236
1.542422e-05
0.011751958
1.0415237e-05
0.011880756
4.9798729e-06
0.01157075
0.010264211
1.2720031e-06
0.0010107509
4.6830446e-06
0.0029261565
9.2829608e-06
0.0046718052
1.4012406e-05
0.0062400254
1.7990779e-05
0.0076278015
2.0627493e-05
0.008834597
2.1607408e-05
0.0098595775
2.083953e-05
0.010698533
1.8415871e-05
0.011339659
1.4592847e-05
0.011755781
9.7962534e-06
0.011885553
4.6500418e-06
0.011575896
0.010268861
1.2072067e-06
0.0010095437
4.4487971e-06
0.0029229149
8.8304914e-06
0.0046674235
1.3344703e-05
0.0062355112
1.7142066e-05
0.0076240041
1.964666e-05
0.0088320924
2.0551278e-05
0.0098586729
1.977215e-05
0.010699312
1.74094e-05
0.011342022
1.3727361e-05
0.011759463
9.1560984e-06
0.011890124
4.3114639e-06
0.011580741
0.010273172
1.1416465e-06
0.0010084021
4.2106719e-06
0.0029198459
8.367332e-06
0.0046632669
1.2656534e-05
0.006231222
1.6262899e-05
0.0076203978
1.8627973e-05
0.0088297273
1.9454122e-05
0.0098578468
1.8665244e-05
0.010700101
1.6369176e-05
0.011344318
1.2837091e-05
0.011762995
8.5015734e-06
0.01189446
3.9677114e-06
0.011585275
0.01027714
1.0759683e-06
0.0010073261
3.9711482e-06
0.0029169507
7.8986265e-06
0.0046593394
1.1955852e-05
0.0062271648
1.5363513e-05
0.0076169901
1.7583073e-05
0.0088275077
1.8328083e-05
0.0098571017
1.7530653e-05
0.010700898
1.5306e-05
0.011346543
1.1931125e-05
0.01176637
7.8393083e-06
0.011898551
3.6222768e-06
0.011589492
0.010280762
1.010708e-06
0.0010063154
3.7323104e-06
0.0029142291
7.4287867e-06
0.0046556429
1.1249645e-05
0.0062233439
1.4453112e-05
0.0076137866
1.6522661e-05
0.0088254382
1.7184538e-05
0.0098564399
1.6379636e-05
0.010701703
1.4230279e-05
0.011348692
1.1018222e-05
0.011769582
7.1756553e-06
0.011902394
3.2784225e-06
0.011593389
0.010284041
9.46308e-07
0.0010053691
3.4958987e-06
0.0029116795
6.961566e-06
0.0046521772
1.0543986e-05
0.0062197615
1.3539871e-05
0.0076107908
1.5456428e-05
0.0088235216
1.6033955e-05
0.0098558623
1.5222683e-05
0.010702514
1.3151753e-05
0.011350763
1.0106637e-05
0.011772627
6.5165996e-06
0.011905984
2.9392444e-06
0.011596966
0.01028698
8.8313114e-07
0.0010044859
3.2633607e-06
0.0029092993
6.5001457e-06
0.0046489405
9.8441325e-06
0.0062164175
1.2631018e-05
0.0076080039
1.43931e-05
0.0088217595
1.488591e-05
0.0098553695
1.4069499e-05
0.010703331
1.2079518e-05
0.011352753
9.2040704e-06
0.011775503
5.8676955e-06
0.01190932
2.6075607e-06
0.011600227
0.010289587
8.2147211e-07
0.0010036645
3.0358872e-06
0.0029070849
6.0471924e-06
0.0046459291
9.1545823e-06
0.0062133101
1.1732854e-05
0.0076054256
1.3340419e-05
0.008820152
1.3749012e-05
0.0098549609
1.2928892e-05
0.010704151
1.1021869e-05
0.01135466
8.3175599e-06
0.011778207
5.2340028e-06
0.011912404
2.2859217e-06
0.011603175
0.010291873
7.6156655e-07
0.0010029029
2.8144447e-06
0.002905032
5.6049145e-06
0.0046431387
8.4791359e-06
0.0062104359
1.0850803e-05
0.0076030539
1.2305146e-05
0.0088186976
1.2630865e-05
0.0098546352
1.1808701e-05
0.010704973
9.9861959e-06
0.011356483
7.4533686e-06
0.01178074
4.6200076e-06
0.011915237
1.9765973e-06
0.011605818
0.01029385
7.0359966e-07
0.0010021993
2.599807e-06
0.0029031358
5.1751167e-06
0.0046405634
7.820966e-06
0.00620779
9.9894767e-06
0.0076008854
1.1293118e-05
0.008817394
1.1538102e-05
0.0098543902
1.0715795e-05
0.010705795
8.9789911e-06
0.011358219
6.6169403e-06
0.011783102
4.0295287e-06
0.011917825
1.6814208e-06
0.011608166
0.010295531
6.4771277e-07
0.0010015516
2.392575e-06
0.0029013909
4.7592356e-06
0.0046381967
7.182652e-06
0.0062053666
9.1526903e-06
0.0075989154
1.0309218e-05
0.0088162375
1.0476306e-05
0.0098542231
9.655959e-06
0.010706616
8.0056673e-06
0.01135987
5.8127759e-06
0.011785295
3.4656798e-06
0.011920172
1.4019037e-06
0.01161023
0.010296933
5.9401076e-07
0.0010009576
2.1932053e-06
0.0028997917
4.3583942e-06
0.0046360315
6.5662622e-06
0.0062031587
8.343561e-06
0.0075971381
9.3574886e-06
0.0088152235
9.4501253e-06
0.0098541305
8.634002e-06
0.010707432
7.0706905e-06
0.011361433
5.0444849e-06
0.011787321
2.930839e-06
0.011922285
1.1390889e-06
0.011612022
0.010298072
5.4256709e-07
0.001000415
2.0020278e-06
0.0028983323
3.973435e-06
0.0046340601
5.9733963e-06
0.0062011588
7.5645483e-06
0.0075955469
8.4411542e-06
0.0088143469
8.4632756e-06
0.0098541084
7.653734e-06
0.010708241
6.1775171e-06
0.011362909
4.3147596e-06
0.011789184
2.4266613e-06
0.011924174
8.9361731e-07
0.011613555
0.010298966
4.9343023e-07
0.00099992158
1.81927e-06
0.0028970064
3.6049709e-06
0.0046322744
5.4052625e-06
0.0061993585
6.8175575e-06
0.0075941346
7.5627413e-06
0.0088136017
7.5186674e-06
0.0098541525
6.718103e-06
0.010709042
5.3287416e-06
0.011364299
3.625503e-06
0.011790887
1.9541818e-06
0.011925845
6.6579041e-07
0.011614843
0.010299632
4.4662741e-07
0.00099947496
1.645073e-06
0.002895808
3.2534183e-06
0.0046306661
4.8627331e-06
0.0061977492
6.1040093e-06
0.0075928934
6.7241667e-06
0.0088129816
6.6185102e-06
0.0098542581
5.8293084e-06
0.010709831
4.5262229e-06
0.011365602
2.9779447e-06
0.011792435
1.5139042e-06
0.011927309
4.5559376e-07
0.011615901
0.010300087
4.0217023e-07
0.00099907279
1.4795135e-06
0.0028947307
2.9190461e-06
0.0046292265
4.3464234e-06
0.0061963218
5.4249545e-06
0.0075918148
5.9268747e-06
0.0088124797
5.7644741e-06
0.0098544205
4.9889868e-06
0.010710606
3.7712828e-06
0.011366819
2.3728883e-06
0.011793834
1.1060774e-06
0.011928576
2.6296685e-07
0.011616745
0.01030035
3.6005689e-07
0.00099871273
1.3226152e-06
0.0028937681
2.602003e-06
0.0046279471
3.8567395e-06
0.0061950671
4.7811404e-06
0.0075908904
5.1719313e-06
0.0088120889
4.9578051e-06
0.0098546347
4.1983529e-06
0.010711366
3.0648781e-06
0.011367953
1.8109123e-06
0.011795088
7.3111736e-07
0.011929656
9.03111e-08
0.011617385
0.010300441
3.2027052e-07
0.00099839246
1.1743412e-06
0.002892914
2.3022983e-06
0.0046268192
3.3938431e-06
0.0061939755
4.1729526e-06
0.0075901113
4.4599264e-06
0.0088118019
4.1991796e-06
0.0098548954
3.4579788e-06
0.010712107
2.4073011e-06
0.011369004
1.2919249e-06
0.011796203
3.8877941e-07
0.011930559
-6.1435256e-08
0.011617836
0.010300379
2.8277833e-07
0.00099810968
1.0345904e-06
0.0028921622
2.0197969e-06
0.004625834
2.9576397e-06
0.0061930377
3.6003897e-06
0.0075894686
3.7909309e-06
0.0088116114
3.4886425e-06
0.0098551977
2.7677581e-06
0.010712828
1.7982265e-06
0.011369973
8.1577882e-07
0.011797185
8.134854e-08
0.011931293
-1.977755e-07
0.011618115