/*--------------------------------*- C++ -*----------------------------------*\
| =========                 |                                                 |
| \\      /  F ield         | OpenFOAM: The Open Source CFD Toolbox           |
|  \\    /   O peration     | Version:  2506                                  |
|   \\  /    A nd           | Website:  www.openfoam.com                      |
|    \\/     M anipulation  |                                                 |
\*---------------------------------------------------------------------------*/
FoamFile
{
    version     2.0;
    format      ascii;
    arch        "LSB;label=32;scalar=64";
    class       volScalarField;
    location    "9000/water";
    object      T;
}
// * * * * * * * * * * * * * * * * * * * * * * * * * * * * * * * * * * * * * //

dimensions      [0 0 0 1 0 0 0];

internalField   nonuniform List<scalar> 
2600
(
333.15
333.15
333.15
333.15
333.15
333.15
333.15
333.14999
333.14998
333.14991
333.14959
333.14804
333.13783
333.15
333.15
333.15
333.15
333.15
333.15
333.14999
333.14998
333.14992
333.14971
333.14893
333.14549
333.12879
333.15
333.15
333.15
333.15
333.15
333.15
333.14999
333.14995
333.14983
333.14942
333.14806
333.14258
333.12149
333.15
333.15
333.15
333.15
333.15
333.14999
333.14997
333.1499
333.14969
333.14905
333.14703
333.13947
333.11531
333.15
333.15
333.15
333.15
333.14999
333.14998
333.14995
333.14983
333.14951
333.14861
333.14585
333.13627
333.10996
333.15
333.15
333.15
333.15
333.14999
333.14997
333.14991
333.14974
333.1493
333.1481
333.14452
333.13306
333.10529
333.15
333.15
333.15
333.14999
333.14998
333.14995
333.14987
333.14963
333.14904
333.14751
333.14306
333.12989
333.1012
333.15
333.15
333.15
333.14999
333.14998
333.14993
333.14981
333.1495
333.14876
333.14684
333.14144
333.12682
333.09767
333.15
333.15
333.15
333.14999
333.14996
333.1499
333.14974
333.14935
333.14843
333.14608
333.13967
333.12389
333.09464
333.15
333.15
333.14999
333.14998
333.14995
333.14987
333.14966
333.14918
333.14805
333.14522
333.13777
333.12113
333.09208
333.15
333.15
333.14999
333.14997
333.14993
333.14983
333.14957
333.14898
333.14762
333.14423
333.13575
333.11859
333.08995
333.15
333.14999
333.14999
333.14997
333.14991
333.14978
333.14946
333.14876
333.14713
333.14311
333.13368
333.11627
333.08819
333.14999
333.14999
333.14998
333.14995
333.14988
333.14972
333.14934
333.1485
333.14656
333.14186
333.13158
333.11418
333.08675
333.14999
333.14999
333.14998
333.14994
333.14985
333.14965
333.1492
333.1482
333.1459
333.14047
333.12953
333.11231
333.08556
333.14999
333.14999
333.14997
333.14992
333.14982
333.14957
333.14904
333.14786
333.14514
333.13899
333.12756
333.11064
333.08457
333.14999
333.14998
333.14996
333.1499
333.14977
333.14949
333.14886
333.14746
333.14427
333.13744
333.12571
333.10915
333.08375
333.14999
333.14998
333.14995
333.14988
333.14973
333.14938
333.14864
333.147
333.1433
333.13585
333.12398
333.10781
333.08306
333.14998
333.14997
333.14994
333.14985
333.14967
333.14927
333.1484
333.14647
333.14223
333.13426
333.12238
333.10661
333.08247
333.14998
333.14996
333.14992
333.14982
333.1496
333.14913
333.14811
333.14585
333.14108
333.13271
333.1209
333.10553
333.08197
333.14997
333.14995
333.1499
333.14979
333.14953
333.14898
333.14778
333.14515
333.13986
333.13121
333.11954
333.10456
333.08154
333.14996
333.14994
333.14988
333.14974
333.14944
333.1488
333.14739
333.14437
333.13861
333.12978
333.11829
333.10368
333.08117
333.14995
333.14993
333.14986
333.1497
333.14934
333.14859
333.14695
333.14351
333.13734
333.12843
333.11714
333.10287
333.08084
333.14994
333.14991
333.14983
333.14964
333.14923
333.14834
333.14644
333.14258
333.13608
333.12714
333.11607
333.10214
333.08056
333.14993
333.1499
333.1498
333.14958
333.14909
333.14806
333.14586
333.1416
333.13484
333.12594
333.11509
333.10147
333.08031
333.14992
333.14988
333.14976
333.1495
333.14894
333.14773
333.14521
333.14058
333.13364
333.1248
333.11417
333.10085
333.08009
333.1499
333.14985
333.14972
333.14941
333.14876
333.14735
333.1445
333.13953
333.13247
333.12373
333.11332
333.10028
333.0799
333.14988
333.14983
333.14967
333.14931
333.14854
333.14692
333.14373
333.13848
333.13135
333.12273
333.11253
333.09975
333.07973
333.14986
333.1498
333.14961
333.14919
333.1483
333.14643
333.14291
333.13742
333.13028
333.12178
333.11179
333.09926
333.07958
333.14984
333.14976
333.14954
333.14906
333.14802
333.14589
333.14205
333.13639
333.12925
333.12089
333.11109
333.0988
333.07945
333.14981
333.14972
333.14946
333.14889
333.14769
333.14528
333.14116
333.13537
333.12827
333.12004
333.11044
333.09838
333.07934
333.14977
333.14967
333.14937
333.14871
333.14731
333.14463
333.14026
333.13438
333.12733
333.11924
333.10982
333.09798
333.07924
333.14973
333.14961
333.14926
333.14849
333.14689
333.14392
333.13935
333.13341
333.12643
333.11849
333.10924
333.09761
333.07915
333.14968
333.14954
333.14913
333.14823
333.14641
333.14318
333.13843
333.13247
333.12558
333.11777
333.1087
333.09726
333.07908
333.14963
333.14946
333.14898
333.14794
333.14589
333.14241
333.13753
333.13157
333.12476
333.11709
333.10818
333.09693
333.07901
333.14956
333.14936
333.1488
333.14761
333.14531
333.14161
333.13663
333.13069
333.12398
333.11644
333.10769
333.09662
333.07895
333.14948
333.14925
333.1486
333.14723
333.14469
333.1408
333.13575
333.12985
333.12323
333.11582
333.10722
333.09633
333.0789
333.14939
333.14911
333.14836
333.1468
333.14403
333.13998
333.13489
333.12903
333.12251
333.11523
333.10677
333.09605
333.07886
333.14928
333.14896
333.14808
333.14632
333.14334
333.13916
333.13405
333.12825
333.12182
333.11466
333.10635
333.09579
333.07882
333.14915
333.14877
333.14777
333.1458
333.14262
333.13834
333.13323
333.12749
333.12116
333.11412
333.10594
333.09554
333.07878
333.149
333.14856
333.1474
333.14523
333.14188
333.13752
333.13243
333.12675
333.12053
333.1136
333.10555
333.0953
333.07875
333.14881
333.1483
333.14699
333.14462
333.14113
333.13672
333.13165
333.12604
333.11991
333.1131
333.10518
333.09507
333.07872
333.14859
333.148
333.14653
333.14398
333.14036
333.13592
333.13089
333.12536
333.11933
333.11263
333.10482
333.09485
333.0787
333.14833
333.14766
333.14603
333.1433
333.13959
333.13514
333.13014
333.12469
333.11876
333.11216
333.10448
333.09464
333.07867
333.14802
333.14726
333.14547
333.1426
333.13882
333.13437
333.12942
333.12405
333.11821
333.11172
333.10415
333.09444
333.07865
333.14766
333.14681
333.14487
333.14188
333.13805
333.13361
333.12872
333.12343
333.11768
333.11129
333.10383
333.09424
333.07863
333.14724
333.14631
333.14423
333.14114
333.13728
333.13287
333.12803
333.12282
333.11716
333.11087
333.10352
333.09405
333.0786
333.14676
333.14575
333.14355
333.14039
333.13652
333.13214
333.12737
333.12223
333.11666
333.11047
333.10321
333.09386
333.07858
333.14621
333.14513
333.14284
333.13963
333.13576
333.13142
333.12672
333.12166
333.11618
333.11008
333.10292
333.09368
333.07855
333.14559
333.14445
333.1421
333.13886
333.135
333.13072
333.12608
333.12111
333.11571
333.10969
333.10263
333.0935
333.07853
333.1449
333.14373
333.14133
333.13808
333.13426
333.13003
333.12546
333.12056
333.11525
333.10932
333.10235
333.09332
333.0785
333.14415
333.14296
333.14055
333.13731
333.13352
333.12935
333.12486
333.12004
333.1148
333.10896
333.10208
333.09315
333.07847
333.14335
333.14215
333.13974
333.13653
333.13279
333.12868
333.12426
333.11952
333.11437
333.1086
333.10181
333.09298
333.07843
333.1425
333.1413
333.13891
333.13575
333.13207
333.12802
333.12368
333.11901
333.11394
333.10826
333.10155
333.09281
333.07839
333.1416
333.14043
333.13808
333.13496
333.13135
333.12738
333.12311
333.11852
333.11352
333.10791
333.10129
333.09264
333.07835
333.14068
333.13953
333.13723
333.13418
333.13064
333.12674
333.12254
333.11803
333.11311
333.10758
333.10103
333.09247
333.07831
333.13973
333.13861
333.13638
333.1334
333.12993
333.12611
333.12199
333.11755
333.1127
333.10725
333.10077
333.09231
333.07826
333.13877
333.13769
333.13552
333.13262
333.12923
333.12549
333.12144
333.11708
333.1123
333.10692
333.10052
333.09214
333.07821
333.1378
333.13676
333.13466
333.13185
333.12854
333.12487
333.1209
333.11661
333.11191
333.10659
333.10027
333.09197
333.07815
333.13683
333.13583
333.13381
333.13107
333.12785
333.12427
333.12037
333.11615
333.11151
333.10627
333.10002
333.09179
333.07809
333.13586
333.1349
333.13295
333.13031
333.12717
333.12366
333.11984
333.11569
333.11113
333.10595
333.09977
333.09162
333.07802
333.13489
333.13398
333.1321
333.12954
333.12649
333.12306
333.11932
333.11524
333.11074
333.10564
333.09952
333.09144
333.07794
333.13394
333.13306
333.13126
333.12879
333.12582
333.12247
333.1188
333.11479
333.11036
333.10532
333.09927
333.09126
333.07786
333.133
333.13216
333.13043
333.12804
333.12515
333.12189
333.11829
333.11435
333.10998
333.105
333.09901
333.09108
333.07777
333.13208
333.13127
333.12961
333.12729
333.12449
333.1213
333.11778
333.11391
333.1096
333.10468
333.09876
333.09089
333.07768
333.13117
333.1304
333.1288
333.12656
333.12384
333.12073
333.11727
333.11347
333.10923
333.10437
333.0985
333.0907
333.07757
333.13028
333.12954
333.128
333.12584
333.12319
333.12015
333.11677
333.11303
333.10885
333.10405
333.09824
333.0905
333.07746
333.12941
333.1287
333.12721
333.12512
333.12255
333.11959
333.11627
333.11259
333.10847
333.10373
333.09798
333.0903
333.07734
333.12856
333.12787
333.12644
333.12442
333.12192
333.11903
333.11578
333.11216
333.1081
333.10341
333.09771
333.09009
333.07722
333.12772
333.12706
333.12569
333.12373
333.1213
333.11847
333.11528
333.11173
333.10772
333.10308
333.09744
333.08988
333.07708
333.12691
333.12627
333.12494
333.12305
333.12068
333.11792
333.11479
333.1113
333.10734
333.10276
333.09717
333.08966
333.07693
333.12611
333.1255
333.12422
333.12238
333.12007
333.11737
333.11431
333.11087
333.10697
333.10243
333.09689
333.08944
333.07678
333.12534
333.12474
333.1235
333.12172
333.11947
333.11683
333.11383
333.11044
333.10659
333.1021
333.09661
333.08921
333.07662
333.12458
333.12401
333.1228
333.12107
333.11888
333.1163
333.11335
333.11001
333.10621
333.10177
333.09632
333.08897
333.07645
333.12384
333.12328
333.12212
333.12043
333.1183
333.11577
333.11287
333.10958
333.10583
333.10144
333.09603
333.08873
333.07627
333.12311
333.12258
333.12144
333.1198
333.11772
333.11525
333.1124
333.10916
333.10545
333.1011
333.09574
333.08848
333.07608
333.12241
333.12189
333.12079
333.11919
333.11715
333.11473
333.11193
333.10873
333.10507
333.10076
333.09544
333.08822
333.07588
333.12172
333.12121
333.12014
333.11858
333.11659
333.11421
333.11146
333.10831
333.10469
333.10042
333.09514
333.08796
333.07568
333.12104
333.12055
333.11951
333.11799
333.11604
333.11371
333.111
333.10789
333.10431
333.10008
333.09483
333.0877
333.07547
333.12038
333.1199
333.11889
333.1174
333.1155
333.11321
333.11054
333.10747
333.10392
333.09973
333.09452
333.08743
333.07525
333.11974
333.11927
333.11828
333.11683
333.11496
333.11271
333.11008
333.10705
333.10354
333.09938
333.09421
333.08715
333.07502
333.11911
333.11865
333.11768
333.11626
333.11443
333.11222
333.10963
333.10663
333.10316
333.09903
333.09389
333.08687
333.07478
333.11849
333.11804
333.1171
333.11571
333.11391
333.11173
333.10917
333.10622
333.10277
333.09868
333.09357
333.08658
333.07454
333.11788
333.11745
333.11652
333.11516
333.11339
333.11125
333.10873
333.1058
333.10239
333.09833
333.09325
333.08629
333.07429
333.11729
333.11687
333.11596
333.11462
333.11288
333.11077
333.10828
333.10538
333.102
333.09797
333.09292
333.08599
333.07404
333.11671
333.11629
333.1154
333.11409
333.11238
333.1103
333.10784
333.10497
333.10162
333.09761
333.09259
333.08569
333.07378
333.11614
333.11573
333.11486
333.11357
333.11188
333.10983
333.1074
333.10456
333.10123
333.09725
333.09225
333.08539
333.07351
333.11558
333.11518
333.11432
333.11305
333.11139
333.10936
333.10696
333.10415
333.10085
333.09689
333.09192
333.08508
333.07324
333.11503
333.11464
333.11379
333.11254
333.11091
333.1089
333.10652
333.10374
333.10046
333.09653
333.09158
333.08476
333.07296
333.11449
333.1141
333.11327
333.11204
333.11043
333.10845
333.10609
333.10333
333.10007
333.09616
333.09123
333.08445
333.07268
333.11396
333.11358
333.11276
333.11155
333.10995
333.10799
333.10566
333.10292
333.09969
333.09579
333.09089
333.08413
333.07239
333.11344
333.11306
333.11225
333.11106
333.10948
333.10754
333.10523
333.10251
333.0993
333.09543
333.09054
333.0838
333.0721
333.11292
333.11255
333.11176
333.11057
333.10902
333.1071
333.1048
333.1021
333.09891
333.09506
333.09019
333.08347
333.0718
333.11241
333.11205
333.11126
333.11009
333.10856
333.10665
333.10438
333.1017
333.09852
333.09469
333.08984
333.08315
333.0715
333.11191
333.11155
333.11078
333.10962
333.1081
333.10621
333.10396
333.10129
333.09813
333.09432
333.08949
333.08281
333.07119
333.11142
333.11106
333.1103
333.10915
333.10765
333.10578
333.10354
333.10089
333.09775
333.09395
333.08914
333.08248
333.07089
333.11093
333.11058
333.10982
333.10869
333.1072
333.10534
333.10312
333.10048
333.09736
333.09357
333.08878
333.08214
333.07057
333.11045
333.11011
333.10935
333.10823
333.10675
333.10491
333.1027
333.10008
333.09697
333.0932
333.08842
333.0818
333.07026
333.10998
333.10963
333.10889
333.10778
333.10631
333.10448
333.10228
333.09968
333.09658
333.09283
333.08806
333.08146
333.06994
333.10951
333.10917
333.10843
333.10733
333.10587
333.10405
333.10187
333.09928
333.09619
333.09245
333.0877
333.08112
333.06962
333.10904
333.10871
333.10798
333.10688
333.10543
333.10363
333.10145
333.09887
333.0958
333.09207
333.08734
333.08077
333.0693
333.10858
333.10825
333.10752
333.10644
333.105
333.1032
333.10104
333.09847
333.09541
333.0917
333.08698
333.08042
333.06897
333.10813
333.1078
333.10708
333.106
333.10457
333.10278
333.10063
333.09807
333.09503
333.09132
333.08662
333.08007
333.06864
333.10768
333.10735
333.10663
333.10556
333.10414
333.10236
333.10022
333.09768
333.09464
333.09095
333.08625
333.07972
333.06831
333.10723
333.1069
333.10619
333.10513
333.10371
333.10195
333.09981
333.09728
333.09425
333.09057
333.08588
333.07937
333.06797
333.10679
333.10646
333.10576
333.1047
333.10329
333.10153
333.09941
333.09688
333.09386
333.09019
333.08552
333.07902
333.06764
333.10635
333.10602
333.10532
333.10427
333.10287
333.10112
333.099
333.09648
333.09347
333.08981
333.08515
333.07866
333.0673
333.10591
333.10559
333.10489
333.10384
333.10245
333.1007
333.0986
333.09608
333.09309
333.08943
333.08478
333.07831
333.06696
333.10548
333.10516
333.10446
333.10342
333.10203
333.10029
333.09819
333.09569
333.0927
333.08905
333.08441
333.07795
333.06662
333.10505
333.10473
333.10404
333.103
333.10161
333.09988
333.09779
333.09529
333.09231
333.08868
333.08404
333.07759
333.06627
333.10462
333.1043
333.10361
333.10258
333.1012
333.09947
333.09739
333.0949
333.09192
333.0883
333.08367
333.07723
333.06593
333.10419
333.10388
333.10319
333.10216
333.10079
333.09907
333.09699
333.0945
333.09153
333.08792
333.0833
333.07687
333.06558
333.10377
333.10345
333.10277
333.10174
333.10037
333.09866
333.09659
333.09411
333.09115
333.08754
333.08293
333.07651
333.06523
333.10335
333.10303
333.10235
333.10133
333.09996
333.09825
333.09619
333.09371
333.09076
333.08716
333.08256
333.07615
333.06488
333.10293
333.10262
333.10194
333.10092
333.09955
333.09785
333.09579
333.09332
333.09037
333.08678
333.08219
333.07578
333.06452
333.10251
333.1022
333.10152
333.1005
333.09915
333.09745
333.09539
333.09293
333.08999
333.0864
333.08182
333.07542
333.06417
333.1021
333.10179
333.10111
333.10009
333.09874
333.09704
333.09499
333.09254
333.0896
333.08602
333.08144
333.07505
333.06381
333.10168
333.10137
333.1007
333.09969
333.09833
333.09664
333.09459
333.09214
333.08921
333.08564
333.08107
333.07469
333.06346
333.10127
333.10096
333.10029
333.09928
333.09793
333.09624
333.0942
333.09175
333.08883
333.08526
333.08069
333.07432
333.0631
333.10086
333.10055
333.09988
333.09887
333.09753
333.09584
333.0938
333.09136
333.08844
333.08487
333.08032
333.07395
333.06274
333.10045
333.10014
333.09947
333.09847
333.09712
333.09544
333.0934
333.09097
333.08805
333.08449
333.07995
333.07358
333.06238
333.10004
333.09973
333.09907
333.09806
333.09672
333.09504
333.09301
333.09058
333.08767
333.08411
333.07957
333.07322
333.06202
333.09963
333.09933
333.09866
333.09766
333.09632
333.09465
333.09261
333.09019
333.08728
333.08373
333.07919
333.07285
333.06165
333.09923
333.09892
333.09826
333.09726
333.09592
333.09425
333.09222
333.0898
333.0869
333.08335
333.07882
333.07248
333.06129
333.09882
333.09852
333.09785
333.09685
333.09552
333.09385
333.09183
333.08941
333.08651
333.08297
333.07844
333.0721
333.06092
333.09842
333.09811
333.09745
333.09645
333.09512
333.09345
333.09143
333.08902
333.08612
333.08259
333.07807
333.07173
333.06055
333.09802
333.09771
333.09705
333.09605
333.09472
333.09306
333.09104
333.08863
333.08574
333.08221
333.07769
333.07136
333.06018
333.09761
333.09731
333.09665
333.09565
333.09433
333.09266
333.09065
333.08824
333.08535
333.08182
333.07731
333.07099
333.05981
333.09721
333.09691
333.09625
333.09525
333.09393
333.09227
333.09026
333.08785
333.08497
333.08144
333.07693
333.07061
333.05944
333.09681
333.09651
333.09585
333.09486
333.09353
333.09187
333.08986
333.08746
333.08458
333.08106
333.07655
333.07024
333.05907
333.09641
333.09611
333.09545
333.09446
333.09314
333.09148
333.08947
333.08707
333.0842
333.08068
333.07617
333.06986
333.05869
333.09601
333.09571
333.09505
333.09406
333.09274
333.09109
333.08908
333.08668
333.08381
333.0803
333.0758
333.06948
333.05832
333.09561
333.09531
333.09465
333.09366
333.09234
333.09069
333.08869
333.0863
333.08342
333.07991
333.07542
333.0691
333.05794
333.09521
333.09491
333.09425
333.09327
333.09195
333.0903
333.0883
333.08591
333.08304
333.07953
333.07504
333.06873
333.05756
333.09482
333.09451
333.09386
333.09287
333.09155
333.08991
333.08791
333.08552
333.08265
333.07915
333.07465
333.06835
333.05718
333.09442
333.09412
333.09346
333.09247
333.09116
333.08951
333.08752
333.08513
333.08227
333.07876
333.07427
333.06797
333.0568
333.09402
333.09372
333.09306
333.09208
333.09077
333.08912
333.08713
333.08474
333.08188
333.07838
333.07389
333.06759
333.05641
333.09362
333.09332
333.09267
333.09168
333.09037
333.08873
333.08674
333.08435
333.0815
333.078
333.07351
333.0672
333.05603
333.09323
333.09293
333.09227
333.09129
333.08998
333.08834
333.08635
333.08397
333.08111
333.07761
333.07313
333.06682
333.05564
333.09283
333.09253
333.09188
333.0909
333.08959
333.08795
333.08596
333.08358
333.08072
333.07723
333.07274
333.06644
333.05525
333.09244
333.09213
333.09148
333.0905
333.08919
333.08755
333.08557
333.08319
333.08034
333.07684
333.07236
333.06605
333.05487
333.09204
333.09174
333.09109
333.09011
333.0888
333.08716
333.08518
333.0828
333.07995
333.07646
333.07197
333.06567
333.05447
333.09164
333.09134
333.09069
333.08971
333.08841
333.08677
333.08479
333.08241
333.07956
333.07607
333.07159
333.06528
333.05408
333.09125
333.09095
333.0903
333.08932
333.08802
333.08638
333.0844
333.08202
333.07918
333.07568
333.0712
333.06489
333.05369
333.09086
333.09056
333.08991
333.08893
333.08762
333.08599
333.08401
333.08164
333.07879
333.0753
333.07081
333.0645
333.05329
333.09046
333.09016
333.08951
333.08853
333.08723
333.0856
333.08362
333.08125
333.0784
333.07491
333.07043
333.06411
333.05289
333.09007
333.08977
333.08912
333.08814
333.08684
333.08521
333.08323
333.08086
333.07801
333.07452
333.07004
333.06372
333.05249
333.08967
333.08937
333.08873
333.08775
333.08645
333.08482
333.08284
333.08047
333.07762
333.07413
333.06965
333.06333
333.05209
333.08928
333.08898
333.08833
333.08736
333.08606
333.08443
333.08245
333.08008
333.07724
333.07374
333.06926
333.06294
333.05169
333.08889
333.08859
333.08794
333.08696
333.08566
333.08404
333.08206
333.07969
333.07685
333.07336
333.06887
333.06254
333.05128
333.08849
333.08819
333.08755
333.08657
333.08527
333.08364
333.08167
333.0793
333.07646
333.07297
333.06848
333.06214
333.05087
333.0881
333.0878
333.08715
333.08618
333.08488
333.08325
333.08128
333.07891
333.07607
333.07257
333.06808
333.06175
333.05046
333.08771
333.08741
333.08676
333.08579
333.08449
333.08286
333.08089
333.07852
333.07568
333.07218
333.06769
333.06135
333.05005
333.08731
333.08702
333.08637
333.0854
333.0841
333.08247
333.0805
333.07813
333.07528
333.07179
333.06729
333.06095
333.04964
333.08692
333.08662
333.08598
333.085
333.08371
333.08208
333.08011
333.07774
333.07489
333.0714
333.0669
333.06055
333.04922
333.08653
333.08623
333.08558
333.08461
333.08331
333.08169
333.07971
333.07735
333.0745
333.071
333.0665
333.06014
333.0488
333.08614
333.08584
333.08519
333.08422
333.08292
333.0813
333.07932
333.07696
333.07411
333.07061
333.0661
333.05974
333.04838
333.08574
333.08544
333.0848
333.08383
333.08253
333.08091
333.07893
333.07656
333.07372
333.07021
333.0657
333.05933
333.04796
333.08535
333.08505
333.08441
333.08344
333.08214
333.08051
333.07854
333.07617
333.07332
333.06982
333.0653
333.05892
333.04753
333.08496
333.08466
333.08401
333.08304
333.08175
333.08012
333.07815
333.07578
333.07293
333.06942
333.0649
333.05851
333.04711
333.08456
333.08427
333.08362
333.08265
333.08136
333.07973
333.07775
333.07538
333.07253
333.06902
333.0645
333.0581
333.04668
333.08417
333.08387
333.08323
333.08226
333.08096
333.07934
333.07736
333.07499
333.07214
333.06862
333.0641
333.05769
333.04624
333.08378
333.08348
333.08284
333.08187
333.08057
333.07894
333.07697
333.0746
333.07174
333.06822
333.06369
333.05727
333.04581
333.08339
333.08309
333.08245
333.08147
333.08018
333.07855
333.07657
333.0742
333.07134
333.06782
333.06328
333.05686
333.04537
333.08299
333.0827
333.08205
333.08108
333.07978
333.07816
333.07618
333.0738
333.07094
333.06742
333.06287
333.05644
333.04492
333.0826
333.0823
333.08166
333.08069
333.07939
333.07776
333.07578
333.07341
333.07054
333.06702
333.06247
333.05602
333.04448
333.08221
333.08191
333.08127
333.08029
333.079
333.07737
333.07539
333.07301
333.07014
333.06661
333.06205
333.05559
333.04403
333.08182
333.08152
333.08087
333.0799
333.0786
333.07697
333.07499
333.07261
333.06974
333.06621
333.06164
333.05517
333.04358
333.08142
333.08113
333.08048
333.07951
333.07821
333.07658
333.0746
333.07221
333.06934
333.0658
333.06123
333.05474
333.04312
333.08103
333.08073
333.08009
333.07911
333.07781
333.07618
333.0742
333.07181
333.06894
333.06539
333.06081
333.05431
333.04266
333.08064
333.08034
333.07969
333.07872
333.07742
333.07579
333.0738
333.07141
333.06853
333.06498
333.06039
333.05388
333.0422
333.08024
333.07994
333.0793
333.07832
333.07702
333.07539
333.0734
333.07101
333.06813
333.06457
333.05997
333.05344
333.04173
333.07985
333.07955
333.0789
333.07793
333.07663
333.07499
333.073
333.07061
333.06772
333.06416
333.05955
333.05301
333.04126
333.07945
333.07916
333.07851
333.07753
333.07623
333.0746
333.0726
333.07021
333.06731
333.06375
333.05913
333.05257
333.04079
333.07906
333.07876
333.07811
333.07714
333.07584
333.0742
333.0722
333.0698
333.06691
333.06333
333.0587
333.05212
333.04031
333.07867
333.07837
333.07772
333.07674
333.07544
333.0738
333.0718
333.0694
333.06649
333.06291
333.05827
333.05168
333.03983
333.07827
333.07797
333.07732
333.07635
333.07504
333.0734
333.0714
333.06899
333.06608
333.06249
333.05784
333.05123
333.03934
333.07788
333.07758
333.07693
333.07595
333.07464
333.073
333.07099
333.06858
333.06567
333.06207
333.05741
333.05078
333.03885
333.07748
333.07718
333.07653
333.07555
333.07424
333.0726
333.07059
333.06817
333.06526
333.06165
333.05698
333.05032
333.03835
333.07708
333.07678
333.07613
333.07515
333.07384
333.07219
333.07018
333.06776
333.06484
333.06123
333.05654
333.04986
333.03785
333.07669
333.07639
333.07574
333.07475
333.07344
333.07179
333.06978
333.06735
333.06442
333.0608
333.0561
333.0494
333.03734
333.07629
333.07599
333.07534
333.07435
333.07304
333.07139
333.06937
333.06694
333.064
333.06037
333.05566
333.04894
333.03682
333.07589
333.07559
333.07494
333.07395
333.07264
333.07098
333.06896
333.06653
333.06358
333.05994
333.05521
333.04847
333.03631
333.07549
333.07519
333.07454
333.07355
333.07223
333.07057
333.06855
333.06611
333.06316
333.05951
333.05476
333.048
333.03578
333.07509
333.07479
333.07414
333.07315
333.07183
333.07017
333.06814
333.06569
333.06274
333.05907
333.05431
333.04752
333.03525
333.0747
333.07439
333.07374
333.07275
333.07143
333.06976
333.06773
333.06528
333.06231
333.05863
333.05386
333.04704
333.03471
333.0743
333.07399
333.07334
333.07235
333.07102
333.06935
333.06731
333.06486
333.06188
333.05819
333.0534
333.04655
333.03416
333.07389
333.07359
333.07293
333.07194
333.07061
333.06894
333.0669
333.06443
333.06145
333.05775
333.05294
333.04606
333.03361
333.07349
333.07319
333.07253
333.07154
333.0702
333.06853
333.06648
333.06401
333.06102
333.0573
333.05247
333.04556
333.03305
333.07309
333.07279
333.07213
333.07113
333.0698
333.06811
333.06606
333.06358
333.06058
333.05686
333.052
333.04506
333.03247
333.07269
333.07238
333.07172
333.07072
333.06939
333.0677
333.06564
333.06316
333.06014
333.0564
333.05153
333.04455
333.03189
333.07228
333.07198
333.07132
333.07031
333.06897
333.06728
333.06522
333.06273
333.0597
333.05595
333.05105
333.04404
333.0313
333.07188
333.07157
333.07091
333.0699
333.06856
333.06687
333.0648
333.0623
333.05926
333.05549
333.05057
333.04352
333.0307
333.07147
333.07117
333.0705
333.06949
333.06815
333.06645
333.06437
333.06186
333.05881
333.05503
333.05009
333.04299
333.03009
333.07107
333.07076
333.07009
333.06908
333.06773
333.06603
333.06394
333.06143
333.05837
333.05456
333.04959
333.04246
333.02946
333.07066
333.07035
333.06968
333.06867
333.06731
333.06561
333.06351
333.06099
333.05791
333.05409
333.0491
333.04191
333.02881
333.07025
333.06994
333.06927
333.06826
333.0669
333.06518
333.06308
333.06054
333.05746
333.05362
333.04859
333.04136
333.02814
333.06984
333.06953
333.06886
333.06784
333.06648
333.06476
333.06265
333.0601
333.057
333.05314
333.04808
333.04079
333.02745
333.06943
333.06912
333.06844
333.06742
333.06605
333.06433
333.06221
333.05965
333.05654
333.05265
333.04756
333.04021
333.02673
333.06902
333.0687
333.06803
333.067
333.06563
333.0639
333.06177
333.0592
333.05607
333.05216
333.04703
333.03961
333.02595
333.0686
333.06829
333.06761
333.06658
333.06521
333.06347
333.06133
333.05875
333.0556
333.05166
333.04649
333.03899
333.02509
)
;

boundaryField
{
    water_inlet
    {
        type            fixedValue;
        value           uniform 333.15;
    }
    water_outlet
    {
        type            zeroGradient;
    }
    water_wedge1
    {
        type            wedge;
    }
    water_wedge2
    {
        type            wedge;
    }
    water_to_rock
    {
        type            compressible::turbulentTemperatureRadCoupledMixed;
        refValue        nonuniform List<scalar> 
200
(
315.50168
319.1189
320.92516
322.02211
322.7823
323.35546
323.81221
324.19048
324.51267
324.79305
325.04115
325.26361
325.46522
325.64953
325.81923
325.97643
326.12278
326.25964
326.38812
326.50912
326.62341
326.73164
326.83436
326.93204
327.02509
327.11387
327.19869
327.27981
327.35749
327.43194
327.50334
327.57189
327.63772
327.701
327.76183
327.82036
327.87668
327.9309
327.98312
328.03341
328.08187
328.12856
328.17357
328.21696
328.2588
328.29913
328.33803
328.37555
328.41173
328.44663
328.48029
328.51277
328.54409
328.5743
328.60344
328.63156
328.65867
328.68483
328.71005
328.73437
328.75783
328.78045
328.80226
328.82329
328.84355
328.86309
328.88191
328.90005
328.91753
328.93436
328.95058
328.96619
328.98123
328.9957
329.00963
329.02303
329.03592
329.04832
329.06024
329.07169
329.08271
329.09328
329.10344
329.11319
329.12254
329.13151
329.14011
329.14836
329.15625
329.1638
329.17102
329.17793
329.18452
329.19081
329.19681
329.20252
329.20795
329.21311
329.218
329.22264
329.22703
329.23117
329.23506
329.23873
329.24216
329.24537
329.24836
329.25112
329.25368
329.25603
329.25817
329.2601
329.26184
329.26338
329.26472
329.26587
329.26682
329.26759
329.26817
329.26856
329.26876
329.26878
329.26861
329.26826
329.26772
329.26699
329.26608
329.26499
329.2637
329.26223
329.26056
329.25871
329.25666
329.25441
329.25197
329.24932
329.24648
329.24342
329.24016
329.23668
329.23298
329.22907
329.22493
329.22055
329.21594
329.2111
329.206
329.20065
329.19505
329.18917
329.18303
329.17661
329.1699
329.16289
329.15558
329.14796
329.14001
329.13174
329.12312
329.11415
329.10481
329.09509
329.08499
329.07448
329.06356
329.0522
329.04039
329.02812
329.01536
329.0021
328.98832
328.97399
328.9591
328.9436
328.92749
328.91072
328.89327
328.8751
328.85616
328.83642
328.81583
328.79432
328.77185
328.74833
328.72368
328.6978
328.67059
328.6419
328.61156
328.57937
328.54506
328.50829
328.4686
328.42535
328.37761
328.32389
328.26166
328.18594
328.08517
327.92699
)
;
        refGradient     uniform 0;
        valueFraction   nonuniform List<scalar> 
200
(
0.021313587
0.018349032
0.017286587
0.016999676
0.017072311
0.017312679
0.017619574
0.017934173
0.018220835
0.018459614
0.01864309
0.018773723
0.018860286
0.018913928
0.018945118
0.018962099
0.018970608
0.018974281
0.018975235
0.018974594
0.018972889
0.01897032
0.018966927
0.018962686
0.018957559
0.018951519
0.01894456
0.018936694
0.018927949
0.018918366
0.018907994
0.018896903
0.018885173
0.018872882
0.018860098
0.018846868
0.018833224
0.018819204
0.018804843
0.018790181
0.018775253
0.018760098
0.018744752
0.018729251
0.018713631
0.018697926
0.018682171
0.018666398
0.018650643
0.018634938
0.018619319
0.018603823
0.018588486
0.018573349
0.018558454
0.018543848
0.018529578
0.018515694
0.018502249
0.018489294
0.018476882
0.018465063
0.018453884
0.018443385
0.018433603
0.018424565
0.018416291
0.01840879
0.018402065
0.018396109
0.018390909
0.018386443
0.018382684
0.018379599
0.018377151
0.0183753
0.018374003
0.018373215
0.01837289
0.018372984
0.018373453
0.018374255