/*--------------------------------*- C++ -*----------------------------------*\
| =========                 |                                                 |
| \\      /  F ield         | OpenFOAM: The Open Source CFD Toolbox           |
|  \\    /   O peration     | Version:  2506                                  |
|   \\  /    A nd           | Website:  www.openfoam.com                      |
|    \\/     M anipulation  |                                                 |
\*---------------------------------------------------------------------------*/
FoamFile
{
    version     2.0;
    format      ascii;
    arch        "LSB;label=32;scalar=64";
    class       volVectorField;
    location    "9000/water";
    object      U;
}
// * * * * * * * * * * * * * * * * * * * * * * * * * * * * * * * * * * * * * //

dimensions      [0 1 -1 0 0 0 0];

internalField   nonuniform List<vector> 
2600
(
(0.2509291 -6.6886033e-05 -6.9728684e-19)
(0.25093316 -0.00014739222 -3.8144165e-18)
(0.25094167 -0.00023143146 -3.608759e-19)
(0.2509543 -0.00031980043 -7.2140578e-19)
(0.25097092 -0.0004082391 -1.8811418e-19)
(0.25099124 -0.00049673666 -1.0075433e-19)
(0.25101467 -0.0005856609 1.353276e-19)
(0.25103908 -0.00067482201 -3.1521224e-20)
(0.25105541 -0.00075972197 8.2765967e-20)
(0.25102652 -0.00083857781 -4.6357077e-20)
(0.25079811 -0.00098580402 2.5040155e-20)
(0.24954942 -0.001485464 -1.1122551e-20)
(0.2411817 0.0014904344 -4.1959628e-19)
(0.25290631 -5.2391824e-05 -1.6852112e-18)
(0.25291356 -0.00012867936 -4.5175849e-18)
(0.25292967 -0.00020232594 -6.958901e-19)
(0.25295369 -0.00027812692 -7.7981531e-19)
(0.25298503 -0.00035187867 -4.0737695e-19)
(0.25302278 -0.00042368282 -1.1946833e-19)
(0.25306456 -0.0004936843 6.4439767e-20)
(0.25310219 -0.00056251339 -2.0954818e-21)
(0.25310631 -0.00062550536 -4.7091452e-20)
(0.25297401 -0.00066089399 -1.3271845e-19)
(0.25231856 -0.00068576655 2.6991855e-20)
(0.24919071 -0.0011507908 -1.6699414e-19)
(0.23317376 0.00055016191 -5.6930719e-19)
(0.25485703 -5.0201261e-05 -9.5194e-19)
(0.25486389 -0.00012463928 -1.4251098e-18)
(0.2548791 -0.00019574884 -1.2870155e-18)
(0.2549016 -0.00026956178 1.5740595e-19)
(0.25493052 -0.00034177627 -1.7214392e-19)
(0.25496396 -0.00041257844 -2.9937145e-21)
(0.25499618 -0.00048173979 1.0871629e-19)
(0.25500857 -0.00054996705 3.3648947e-19)
(0.25494172 -0.0006163767 9.549069e-20)
(0.2546073 -0.0006602417 -5.6038934e-20)
(0.25332071 -0.00063871076 -8.6328029e-20)
(0.2478214 -0.00092597142 -3.0587236e-19)
(0.22526486 0.00012340436 -6.1910571e-19)
(0.25664521 -4.974385e-05 3.6182113e-18)
(0.25665224 -0.00012488064 1.4196976e-18)
(0.2566674 -0.00019721364 3.7103823e-19)
(0.2566896 -0.0002720698 1.6667985e-19)
(0.25671747 -0.00034495172 2.1592919e-20)
(0.25674738 -0.00041609227 1.8630765e-19)
(0.25676826 -0.0004848948 1.6356439e-19)
(0.25674667 -0.00055096518 2.6473638e-19)
(0.25658539 -0.00061444887 -9.4796697e-20)
(0.2559957 -0.0006636637 -9.573554e-20)
(0.2539403 -0.00063277351 -2.4361571e-19)
(0.24583249 -0.00077044467 -3.7848772e-19)
(0.21800982 -5.9385922e-05 -5.7368173e-19)
(0.25841323 -4.8556776e-05 2.5462243e-18)
(0.2584204 -0.00012219546 1.207034e-18)
(0.25843571 -0.00019301893 6.1498083e-19)
(0.25845781 -0.00026625064 -9.4232258e-19)
(0.25848442 -0.00033744492 -1.9429217e-19)
(0.25850914 -0.00040689655 6.6237194e-20)
(0.25851346 -0.00047389151 -1.0377749e-20)
(0.25844542 -0.00053705871 -6.258175e-20)
(0.25816424 -0.00059536594 -7.1506976e-20)
(0.25726648 -0.00064373127 -1.6793798e-19)
(0.25431322 -0.00061442321 -2.1121246e-19)
(0.24352458 -0.00065114415 -3.2356866e-19)
(0.21163262 -0.00012321892 -5.2791026e-19)
(0.26015467 -4.709344e-05 1.6260285e-18)
(0.26016187 -0.0001185153 9.6485256e-19)
(0.26017704 -0.0001870764 2.1325793e-19)
(0.2601984 -0.00025799462 2.9779158e-19)
(0.26022227 -0.00032687702 -1.0775013e-20)
(0.26023853 -0.00039398781 -2.2011029e-19)
(0.26021927 -0.00045855461 -3.9168383e-20)
(0.26009115 -0.00051865148 -2.3662774e-19)
(0.25966515 -0.00057157394 -3.3475274e-21)
(0.2584067 -0.0006148087 -4.6172386e-20)
(0.25443266 -0.00058544056 -1.0822302e-19)
(0.24102793 -0.0005571206 -1.0423404e-19)
(0.20612335 -0.00013293671 -4.0809108e-19)
(0.26183846 -4.5390268e-05 5.0702733e-19)
(0.26184561 -0.00011435405 1.0685655e-18)
(0.26186042 -0.00018050108 9.3214534e-19)
(0.26188043 -0.00024892327 1.5748541e-18)
(0.26190008 -0.00031528561 2.775243e-19)
(0.26190445 -0.00037977027 9.6618692e-20)
(0.26185458 -0.00044151447 1.3361372e-19)
(0.2616533 -0.0004983285 -1.618767e-19)
(0.26105826 -0.00054618084 -2.4907402e-19)
(0.25938354 -0.00058222647 -3.2005733e-20)
(0.25426994 -0.00054801504 -1.1213154e-19)
(0.23842933 -0.00047868139 -1.811406e-19)
(0.20141646 -0.00011963306 -5.3182833e-19)
(0.26345768 -4.3664882e-05 -2.4882507e-18)
(0.26346469 -0.00011008558 -6.0937956e-19)
(0.26347885 -0.00017377013 1.4011094e-19)
(0.26349678 -0.00023963045 2.5947117e-19)
(0.26351051 -0.00030340684 1.6948866e-19)
(0.26349932 -0.00036518044 2.3879425e-19)
(0.26341166 -0.00042394822 3.680742e-20)
(0.2631242 -0.00047735793 5.0704822e-20)
(0.26233468 -0.00052050214 -7.40803e-20)
(0.26018092 -0.00054846095 -6.9111567e-20)
(0.25381559 -0.00050481858 -8.8337869e-20)
(0.23581666 -0.00040978299 -7.9052738e-20)
(0.19745226 -9.8494618e-05 -4.2051207e-19)
(0.26501552 -4.2046878e-05 1.7874248e-18)
(0.26502225 -0.00010599907 1.415677e-18)
(0.26503542 -0.0001673021 1.4216136e-18)
(0.26505044 -0.00023067618 7.2850271e-19)
(0.26505633 -0.00029193977 1.3883946e-19)
(0.26502564 -0.00035106734 5.7492714e-20)
(0.26489279 -0.0004068816 -1.6592993e-19)
(0.26450568 -0.00045685739 4.7142782e-21)
(0.26349313 -0.00049549057 -3.8708225e-19)
(0.26078727 -0.00051473411 -2.2351293e-19)
(0.25307513 -0.00045847926 -1.6531457e-19)
(0.23327192 -0.00034737981 3.1716528e-20)
(0.19416843 -7.6932879e-05 -1.5127541e-19)
(0.2665165 -4.0577061e-05 9.5793866e-19)
(0.26652283 -0.00010224007 1.0169603e-18)
(0.26653459 -0.00016134013 1.0526173e-18)
(0.26654572 -0.0002224043 1.01446e-18)
(0.26654166 -0.00028132047 2.5060891e-19)
(0.26648729 -0.00033795568 7.7229592e-20)
(0.26630156 -0.0003909415 4.6247775e-20)
(0.26580019 -0.00043752442 -5.4956606e-20)
(0.26453091 -0.00047164498 -2.3861387e-19)
(0.26118849 -0.00048140525 -2.1113366e-19)
(0.25206937 -0.00041120618 -1.8846213e-19)
(0.23086314 -0.00029047959 -3.1714751e-19)
(0.19149027 -5.8333257e-05 -3.489276e-19)
(0.26796591 -3.9276698e-05 -1.8063372e-18)
(0.26797166 -9.8886217e-05 -5.6676315e-19)
(0.26798155 -0.00015601486 -3.8298328e-19)
(0.26798768 -0.00021499986 6.3761136e-19)
(0.26797137 -0.00027178437 2.1094203e-19)
(0.26788889 -0.00032612646 -5.9098454e-20)
(0.26764202 -0.00037645614 -2.6151888e-21)
(0.26700984 -0.00041972353 -1.8252174e-19)
(0.26544297 -0.00044912486 -2.0182716e-19)
(0.26137042 -0.00044842588 -1.6537418e-19)
(0.25083979 -0.00036475941 -1.7407769e-19)
(0.22864123 -0.00023936528 -4.9637329e-19)
(0.18933265 -4.3854025e-05 -3.6834567e-19)
(0.26936985 -3.8151203e-05 -7.0497475e-19)
(0.26937484 -9.5961773e-05 -3.3235152e-19)
(0.26938229 -0.00015136516 -1.7004805e-19)
(0.2693822 -0.00020851724 2.2065856e-19)
(0.26935114 -0.00026339986 1.2799242e-19)
(0.26923575 -0.00031565718 -2.0019131e-19)
(0.26891866 -0.00036350366 -6.6320265e-20)
(0.26813622 -0.00040351927 -2.3658621e-19)
(0.26622207 -0.00042777198 -1.6305128e-19)
(0.26132397 -0.00041560855 -1.1133654e-19)
(0.24944814 -0.00032041763 -2.2245347e-19)
(0.22663743 -0.00019477817 -4.0038412e-19)
(0.18760708 -3.3365974e-05 -3.0624336e-19)
(0.27073452 -3.7186893e-05 5.9182043e-19)
(0.27073851 -9.3441596e-05 -2.2451498e-19)
(0.27074291 -0.00014735094 7.2837339e-20)
(0.27073523 -0.00020290125 4.5217718e-19)
(0.27068668 -0.00025609589 3.8735889e-19)
(0.27053315 -0.00030645578 1.3049374e-19)
(0.27013553 -0.00035195662 8.3830285e-20)
(0.26917943 -0.00038871662 -9.45965e-20)
(0.26685881 -0.00040716162 -1.0956838e-20)
(0.26105041 -0.00038281108 -2.0704043e-20)
(0.24796793 -0.00027903903 -2.1422393e-19)
(0.2248628 -0.00015723519 -4.3151745e-19)
(0.18622942 -2.6089622e-05 -2.7812281e-19)
(0.27206549 -3.6358598e-05 7.9349646e-19)
(0.27206822 -9.1270026e-05 5.6111354e-20)
(0.27206885 -0.00014388431 1.6367512e-19)
(0.27205207 -0.00019803069 9.4845427e-19)
(0.27198302 -0.00024971698 1.0987832e-19)
(0.27178551 -0.00029832671 2.8234082e-19)
(0.27129541 -0.00034156267 4.5328701e-19)
(0.27013718 -0.00037494839 3.1595806e-20)
(0.26734241 -0.00038673535 -7.4464077e-20)
(0.2605654 -0.00035005845 -1.6009283e-19)
(0.24647172 -0.00024119444 -3.534723e-19)
(0.22331131 -0.00012666963 -4.9810839e-19)
(0.18512583 -2.1076371e-05 -4.3907924e-19)
(0.27336737 -3.5638789e-05 1.0534531e-19)
(0.27336856 -8.9381862e-05 4.2962152e-19)
(0.27336463 -0.00014086217 7.9915158e-19)
(0.27333706 -0.00019376296 3.772305e-19)
(0.27324415 -0.00024407934 3.29373e-19)
(0.27299604 -0.00029103799 1.8071263e-19)
(0.27239931 -0.00033202383 3.286382e-19)
(0.27100443 -0.00036176734 8.5407594e-20)
(0.26766283 -0.00036596046 1.4319883e-19)
(0.25989992 -0.00031757793 -3.1969132e-19)
(0.24502002 -0.00020725745 -6.2896682e-19)
(0.22196569 -0.00010242448 -3.2178e-19)
(0.18423545 -1.7507119e-05 -3.1614853e-19)
(0.27464382 -3.5002896e-05 -2.8745603e-19)
(0.27464313 -8.7716021e-05 2.192635e-19)
(0.27463375 -0.00013818759 9.5232953e-19)
(0.2745935 -0.00018996325 6.4817625e-19)
(0.27447297 -0.0002390078 7.6976033e-19)
(0.27416661 -0.0002843653 3.2961752e-19)
(0.27344636 -0.00032304578 -1.2576997e-19)
(0.27177364 -0.00034871443 8.3086583e-20)
(0.26781391 -0.00034445793 -1.7161855e-19)
(0.25909705 -0.00028576383 -3.6473864e-19)
(0.2436552 -0.00017740821 -4.6439689e-19)
(0.22080343 -8.347306e-05 -5.1825582e-19)
(0.18351045 -1.4804615e-05 -7.5505772e-20)
(0.27589768 -3.4431104e-05 1.9190394e-19)
(0.27589473 -8.6221416e-05 4.7529234e-19)
(0.27587888 -0.00013577913 4.531223e-20)
(0.27582384 -0.00018651756 2.1283505e-19)
(0.27567139 -0.00023435206 6.5954521e-19)
(0.27529788 -0.00027811161 4.2840941e-19)
(0.27443375 -0.00031435606 -1.2058777e-19)
(0.27243556 -0.00033536391 -7.5189448e-20)
(0.26779662 -0.00032206947 -2.0009738e-19)
(0.25820551 -0.00025510597 -2.3184724e-19)
(0.24240122 -0.00015160162 5.0889637e-21)
(0.21980119 -6.8691002e-05 -3.1431397e-19)
(0.18291435 -1.2618555e-05 -3.5726723e-19)
(0.27713109 -3.3908296e-05 1.5073621e-18)
(0.27712546 -8.4858e-05 7.4486588e-20)
(0.27710201 -0.00013357264 -3.3161653e-19)
(0.27702977 -0.00018333501 1.3425815e-19)
(0.27684047 -0.00022998947 5.763609e-19)
(0.2763893 -0.00027211088 2.4156825e-19)
(0.27535691 -0.00030570399 -4.1549941e-20)
(0.2729805 -0.00032135787 -9.6327483e-20)
(0.26762111 -0.00029886295 -1.9960685e-19)
(0.25727242 -0.00022610441 -6.6762869e-20)
(0.24126718 -0.00012956886 -1.499637e-21)
(0.21893722 -5.7057434e-05 -1.8862172e-19)
(0.18241982 -1.0759084e-05 -3.2172183e-19)
(0.27834572 -3.3423243e-05 1.9599267e-18)
(0.27833694 -8.3595438e-05 -2.0914436e-19)
(0.2783046 -0.00013151911 1.5355756e-19)
(0.27821241 -0.00018034488 1.0143069e-18)
(0.27798052 -0.00022582105 -3.5841916e-20)
(0.27743925 -0.00026622306 1.5798144e-19)
(0.27620962 -0.00029685485 4.2248362e-19)
(0.27340008 -0.00030643644 4.5451413e-20)
(0.26730692 -0.00027509383 -1.1997308e-19)
(0.25633756 -0.0001991843 -3.6529723e-20)
(0.24025214 -0.00011087579 -2.9005767e-19)
(0.21819233 -4.7749365e-05 -3.4492437e-19)
(0.18200662 -9.1303524e-06 -4.2411366e-19)
(0.27954284 -3.2967676e-05 4.7105633e-19)
(0.27953036 -8.2411066e-05 5.2921045e-19)
(0.27948767 -0.00012958149 1.0219664e-18)
(0.27937237 -0.00017749197 4.1717326e-19)
(0.27909121 -0.00022176547 9.3189634e-20)
(0.27844503 -0.00026032528 1.2300399e-19)
(0.27698441 -0.00028758731 2.0896591e-19)
(0.27368915 -0.00029046173 1.2222101e-19)
(0.26688073 -0.00025114512 2.235877e-19)
(0.25543061 -0.00017462896 2.9484583e-19)
(0.2393495 -9.5013854e-05 -2.3563803e-19)
(0.21755 -4.0152303e-05 -7.7589123e-20)
(0.18165972 -7.6839534e-06 -1.7150758e-19)
(0.28072346 -3.2535407e-05 7.6935303e-19)
(0.28070667 -8.128779e-05 8.3904163e-19)
(0.28065194 -0.00012773124 7.8020356e-19)
(0.28050986 -0.00017473179 8.6873335e-20)
(0.28017156 -0.00021775303 1.3957878e-19)
(0.27940289 -0.00025430188 2.8071398e-19)
(0.27767312 -0.00027769789 2.39111e-19)
(0.27384765 -0.00027342827 3.1965978e-19)
(0.26637281 -0.00022746053 9.3153423e-20)
(0.2545711 -0.0001525485 -2.4226868e-19)
(0.23855012 -8.1484026e-05 -4.2770182e-19)
(0.21699614 -3.3827431e-05 -7.0451915e-20)
(0.18136794 -6.3925375e-06 1.4160191e-19)
(0.28188837 -3.2121654e-05 6.2527136e-19)
(0.28186655 -8.021234e-05 1.8144169e-18)
(0.28179785 -0.00012594549 2.8158613e-19)
(0.28162471 -0.00017202641 2.4011782e-19)
(0.28121999 -0.00021372065 2.1442509e-19)
(0.28030804 -0.00024803603 4.5762109e-19)
(0.27826773 -0.00026701328 4.64038e-19)
(0.27388156 -0.00025545692 3.4056536e-19)
(0.26581311 -0.00020447967 7.9369251e-20)
(0.25377001 -0.00013289057 -5.7082593e-19)
(0.23784411 -6.9849919e-05 -2.367869e-19)
(0.21651887 -2.846715e-05 -1.4210806e-19)
(0.18112283 -5.2370901e-06 -6.5772223e-20)
(0.28303819 -3.1722484e-05 -4.42471e-19)
(0.28301052 -7.9173846e-05 1.00282e-18)
(0.28292559 -0.00012420468 1.6744226e-19)
(0.28271638 -0.00016934095 -1.8856793e-19)
(0.2822343 -0.00020960734 4.3525393e-19)
(0.28115476 -0.00024140493 2.3285004e-19)
(0.27876144 -0.00025540747 3.3049453e-20)
(0.27380291 -0.00023677355 4.6128936e-19)
(0.26522808 -0.00018258167 1.2518264e-19)
(0.25303215 -0.00011548282 1.9388501e-20)
(0.23722187 -5.9756957e-05 1.7481924e-19)
(0.21610816 -2.3855668e-05 -1.9742503e-20)
(0.18091788 -4.2018392e-06 8.1538621e-20)
(0.28417339 -3.133445e-05 -4.1358559e-19)
(0.28413893 -7.8162815e-05 -5.6280062e-19)
(0.28403512 -0.00012249081 3.72953e-19)
(0.28378396 -0.00016664114 2.0592692e-19)
(0.28321158 -0.0002053501 -2.3319628e-19)
(0.28193659 -0.0002342804 1.3262714e-19)
(0.27914984 -0.00024281874 3.6341476e-19)
(0.27362851 -0.00021767781 6.913809e-19)
(0.26463906 -0.00016204558 2.7698831e-19)
(0.25235823 -0.00010008753 -1.9851756e-19)
(0.23667446 -5.0928429e-05 -2.7961888e-19)
(0.21575559 -1.9839545e-05 -3.588585e-20)
(0.18074793 -3.2726306e-06 6.2698767e-20)
(0.28529433 -3.0954303e-05 7.6978699e-20)
(0.28525196 -7.7170333e-05 5.5259535e-19)
(0.28512619 -0.00012078599 1.3693331e-18)
(0.28482614 -0.00016389138 6.2514425e-19)
(0.28414822 -0.00020087986 2.0781538e-19)
(0.28264669 -0.00022653515 1.9953301e-19)
(0.27943202 -0.00022926075 4.4112872e-19)
(0.27337791 -0.00019850621 3.2822844e-19)
(0.26406181 -0.00014303339 3.8151057e-19)
(0.25174654 -8.6449677e-05 2.2811025e-19)
(0.23619383 -4.3151078e-05 -1.385094e-19)
(0.21545404 -1.6307477e-05 -8.2486061e-20)
(0.18060883 -2.4367028e-06 -2.5824652e-20)
(0.28640123 -3.0578783e-05 1.04776e-18)
(0.28634965 -7.6187461e-05 1.6038522e-18)
(0.28619826 -0.00011907139 7.8991863e-19)
(0.28584114 -0.00016105348 2.4017617e-19)
(0.28503985 -0.00019611847 7.1185868e-19)
(0.2832784 -0.00021805401 3.3325945e-19)
(0.27961117 -0.00021482471 1.0746829e-19)
(0.27307114 -0.00017959427 1.44061e-19)
(0.26350715 -0.00012559657 1.9699333e-19)
(0.25119402 -7.4328965e-05 4.4756963e-19)
(0.23577276 -3.6259369e-05 2.8708021e-19)
(0.21519748 -1.3176831e-05 3.4919367e-20)
(0.18049716 -1.6827531e-06 1.148739e-19)
(0.28749419 -3.020445e-05 8.6485967e-20)
(0.28743185 -7.5204718e-05 2.0084053e-18)
(0.28725056 -0.00011732616 -6.8093868e-20)
(0.28682673 -0.0001580853 9.4495701e-20)
(0.28588145 -0.00019097762 5.8747122e-19)
(0.28382593 -0.00020874813 2.6852064e-19)
(0.27969464 -0.00019967158 -3.0858258e-20)
(0.27272686 -0.00016124193 3.2641286e-21)
(0.26298189 -0.00010969945 1.6915498e-22)
(0.25069697 -6.3515016e-05 -6.3452043e-21)
(0.23540492 -3.0122539e-05 2.2070405e-19)
(0.21498079 -1.0384796e-05 1.3294905e-19)
(0.18041 -1.0009974e-06 4.6429317e-20)
(0.28857317 -2.9827533e-05 -6.0438773e-19)
(0.28849825 -7.4211607e-05 6.266808e-19)
(0.28828196 -0.00011552671 5.4929925e-19)
(0.28778008 -0.00015493914 2.8691771e-19)
(0.28666738 -0.00018536089 4.3721331e-19)
(0.28428521 -0.00019856895 2.0073525e-19)
(0.27969326 -0.00018401636 1.5693178e-19)
(0.27236107 -0.0001436879 1.9229302e-19)
(0.26248991 -9.5249855e-05 1.7482459e-19)
(0.25025143 -5.3830545e-05 1.2690202e-19)
(0.23508473 -2.4635266e-05 4.4437721e-20)
(0.21479959 -7.8824844e-06 1.5844767e-19)
(0.18034487 -3.8307525e-07 7.3847862e-20)
(0.28963798 -2.944375e-05 1.6573478e-18)
(0.28954832 -7.3196105e-05 2.0529965e-19)
(0.28929102 -0.00011364593 4.1214411e-19)
(0.2886978 -0.00015155982 9.4701822e-19)
(0.28739174 -0.00017916927 -1.1867157e-19)
(0.28465455 -0.00018751865 3.0272199e-19)
(0.27962017 -0.00016810641 6.3021948e-19)
(0.2719867 -0.00012709648 5.6333934e-19)
(0.26203302 -8.2127518e-05 1.0329311e-19)
(0.24985346 -4.5128131e-05 -2.3815789e-19)
(0.23480728 -1.9711265e-05 -4.1437138e-19)
(0.21465012 -5.6309878e-06 -6.8528604e-20)
(0.18029962 1.7813366e-07 2.90539e-20)
(0.29068824 -2.9047996e-05 4.5896607e-19)
(0.29058126 -7.214382e-05 1.3280222e-18)
(0.29027586 -0.0001116522 1.6486002e-18)
(0.28957586 -0.00014788248 6.4096835e-19)
(0.28804865 -0.00017230925 1.8194689e-19)
(0.28493523 -0.00017565384 2.9729078e-19)
(0.2794894 -0.00015219578 2.5549742e-19)
(0.2716136 -0.0001115566 9.6909614e-21)
(0.26161163 -7.0203552e-05 -1.3924353e-20)
(0.24949925 -3.72832e-05 -2.0513553e-21)
(0.23456828 -1.5277057e-05 -9.8849939e-20)
(0.21452909 -3.5978727e-06 -1.7847234e-19)
(0.18027234 6.889183e-07 -2.2501787e-20)
(0.29172336 -2.863428e-05 1.2970193e-18)
(0.291596 -7.1037634e-05 1.4051051e-18)
(0.29123415 -0.00010950892 1.6538824e-18)
(0.29040962 -0.00014383257 -7.3479689e-20)
(0.28863287 -0.00016470429 7.1955529e-19)
(0.28513156 -0.00016308395 3.428632e-19)
(0.27931466 -0.00013652205 8.2800606e-20)
(0.27124896 -9.7093552e-05 1.4601549e-19)
(0.26122524 -5.9353647e-05 2.4526745e-19)
(0.24918522 -3.0190176e-05 5.8554957e-19)
(0.23436395 -1.1270301e-05 5.7949654e-19)
(0.21443371 -1.7305515e-06 1.6765149e-20)
(0.18026136 1.176157e-06 8.2677487e-20)
(0.29274252 -2.8196033e-05 2.6521886e-18)
(0.29259116 -6.9858456e-05 2.2802388e-18)
(0.29216305 -0.00010717576 -2.356292e-19)
(0.29119393 -0.00013933084 2.3637754e-19)
(0.28914031 -0.00015631031 6.9160567e-19)
(0.28525057 -0.00014996781 3.4074674e-19)
(0.27910837 -0.00012129296 5.5872353e-20)
(0.2708978 -8.3692827e-05 1.6798693e-19)
(0.26087272 -4.9471587e-05 1.9392775e-19)
(0.24890802 -2.3766763e-05 9.559384e-20)
(0.23419085 -7.6476547e-06 3.8444416e-19)
(0.21436056 -1.626315e-08 1.004419e-19)
(0.18026627 1.6403919e-06 -4.9015979e-20)
(0.2937446 -2.7725103e-05 -5.7749036e-19)
(0.29356496 -6.8583196e-05 5.9798231e-19)
(0.29305914 -0.00010460504 -6.9766235e-19)
(0.29192334 -0.00013429446 1.7087626e-20)
(0.28956868 -0.00014712078 2.862139e-19)
(0.2853013 -0.00013649479 2.1843525e-19)
(0.27888121 -0.00010666837 -4.4945499e-21)
(0.27056351 -7.1310478e-05 1.3739746e-19)
(0.26055265 -4.0462899e-05 5.2678518e-20)
(0.24866458 -1.794026e-05 -4.8357292e-20)
(0.23404606 -4.3539107e-06 1.0490632e-19)
(0.21430781 1.537404e-06 1.4481857e-19)
(0.18028522 2.056388e-06 5.2245758e-20)
(0.29472815 -2.7211028e-05 9.5155888e-19)
(0.29451518 -6.7183251e-05 -5.861084e-19)
(0.29391842 -0.00010173907 -2.3314754e-19)
(0.29259237 -0.00012864185 3.7228693e-19)
(0.28991788 -0.00013716949 -4.3453095e-19)
(0.28529395 -0.00012286451 3.340046e-20)
(0.27864192 -9.275292e-05 6.9599892e-19)
(0.27024822 -5.9882437e-05 6.147102e-19)
(0.26026336 -3.2238659e-05 1.6318122e-19)
(0.24845204 -1.2642375e-05 -3.2224199e-19)
(0.23392646 -1.3358837e-06 -2.6578652e-19)
(0.21427448 2.9561714e-06 1.6180571e-19)
(0.18031663 2.4263083e-06 2.9689765e-20)
(0.29569132 -2.6641406e-05 2.0040126e-18)
(0.2954391 -6.5625554e-05 8.0989409e-19)
(0.29473631 -9.8512692e-05 1.1068158e-18)
(0.29319592 -0.0001223057 4.5443542e-19)
(0.29019018 -0.00012653597 1.483491e-19)
(0.2852389 -0.00010927516 2.359049e-20)
(0.27839743 -7.9607266e-05 3.6440317e-19)
(0.26995312 -4.934223e-05 -4.463652e-21)
(0.26000309 -2.4722184e-05 1.0726178e-19)
(0.24826773 -7.8150989e-06 1.1092776e-19)
(0.23382956 1.4151415e-06 -1.7284477e-19)
(0.21425921 4.2390722e-06 -6.3492338e-20)
(0.18035932 2.7544295e-06 -2.6903191e-20)
(0.29663173 -2.6001184e-05 -1.2829012e-18)
(0.29633339 -6.3871162e-05 6.4125426e-19)
(0.29550768 -9.4853901e-05 3.4346208e-19)
(0.29372976 -0.0001152412 1.8837079e-19)
(0.29039011 -0.00011533898 8.8234145e-19)
(0.28514604 -9.5905387e-05 2.6918908e-19)
(0.27815305 -6.7254142e-05 -1.1348497e-19)
(0.26967872 -3.9623336e-05 3.9885181e-19)
(0.25977003 -1.7841858e-05 3.0120001e-19)
(0.24810923 -3.3839713e-06 6.6797849e-19)
(0.23375398 3.9311981e-06 1.6898974e-19)
(0.21425996 5.3905993e-06 6.1968842e-20)
(0.18041214 3.0443313e-06 1.2824134e-19)
(0.29754645 -2.5272394e-05 5.6226023e-19)
(0.29719411 -6.187446e-05 1.4842147e-18)
(0.29622706 -9.0687772e-05 4.7267973e-19)
(0.29419101 -0.00010743481 5.0352904e-19)
(0.290524 -0.00010372738 4.1637389e-19)
(0.28502427 -8.2903381e-05 2.8214979e-19)
(0.27791277 -5.5688952e-05 2.2940401e-19)
(0.26942499 -3.0662248e-05 4.6798701e-19)
(0.25956226 -1.1539697e-05 2.7251497e-19)
(0.24797362 6.7588268e-07 3.5163003e-20)
(0.23369893 6.2277079e-06 1.3827345e-19)
(0.21427538 6.4296251e-06 1.6555005e-19)
(0.18047413 3.3030796e-06 2.5636046e-20)
(0.29843186 -2.4434093e-05 2.3538322e-18)
(0.29801658 -5.9582987e-05 1.6290289e-18)
(0.29688883 -8.5943407e-05 7.7419815e-19)
(0.29457851 -9.8910859e-05 4.8906412e-19)
(0.29059935 -9.1868447e-05 3.3983982e-19)
(0.28488126 -7.0382639e-05 3.8524481e-19)
(0.27767954 -4.4890699e-05 4.9349268e-19)
(0.26919163 -2.2395861e-05 3.343603e-19)
(0.25937815 -5.7364327e-06 3.1800952e-19)
(0.24785972 4.3904696e-06 1.3223027e-19)
(0.2336621 8.3015832e-06 3.039403e-19)
(0.21430404 7.3666857e-06 2.0571635e-19)
(0.18054443 3.5354572e-06 9.5804768e-20)
(0.29928359 -2.3462157e-05 -1.8390022e-18)
(0.29879547 -5.69376e-05 8.6492828e-21)
(0.29748763 -8.0561635e-05 2.4633703e-19)
(0.29489309 -8.9732446e-05 1.0038151e-18)
(0.29062422 -7.9932359e-05 1.9386196e-19)
(0.28472341 -5.8420122e-05 7.1515375e-19)
(0.27745536 -3.4827551e-05 1.0473642e-18)
(0.26897782 -1.4770426e-05 8.7926626e-19)
(0.25921519 -3.9181453e-07 2.2295246e-19)
(0.24776702 7.7920314e-06 -2.3811389e-19)
(0.23364198 1.018109e-05 -1.4009242e-19)
(0.21434474 8.2147517e-06 7.632235e-20)
(0.18062225 3.7449901e-06 3.8695435e-20)
(0.30009637 -2.2329736e-05 -1.4846494e-18)
(0.29952479 -5.3875511e-05 9.8189332e-19)
(0.29801875 -7.4505274e-05 4.0053163e-19)
(0.29513749 -7.9999975e-05 7.9752336e-19)
(0.29060659 -6.8080608e-05 3.978392e-19)
(0.28455591 -4.7062509e-05 6.4584613e-19)
(0.27724164 -2.5459256e-05 4.538275e-19)
(0.2687829 -7.7156989e-06 5.4735207e-20)
(0.25907248 4.5153659e-06 4.2454692e-20)
(0.24769347 1.0881363e-05 -1.5806967e-19)
(0.23363709 1.188485e-05 -1.3703316e-19)
(0.21439637 8.9837349e-06 -6.9697723e-20)
(0.18070689 3.9343445e-06 -1.321262e-19)
(0.30086402 -2.1007839e-05 2.0295549e-18)
(0.30019808 -5.0335145e-05 2.8334082e-18)
(0.29847859 -6.776751e-05 1.0738099e-18)
(0.29531608 -6.9843633e-05 -4.5425117e-19)
(0.29055391 -5.6454434e-05 4.0581355e-19)
(0.28438287 -3.6332032e-05 2.3527836e-19)
(0.27703906 -1.674827e-05 -5.4488404e-19)
(0.2686053 -1.1875314e-06 -7.0629251e-19)
(0.25894976 9.0213335e-06 1.8629969e-19)
(0.24763751 1.3689794e-05 5.7988514e-19)
(0.23364609 1.3431086e-05 2.3764095e-19)
(0.21445793 9.6806765e-06 -1.8633257e-19)
(0.18079772 4.1050154e-06 -1.0926287e-19)
(0.30157943 -1.9467193e-05 2.9921901e-18)
(0.30080863 -4.6264345e-05 3.1091601e-18)
(0.29886499 -6.0378837e-05 9.5592778e-19)
(0.29543444 -5.9413964e-05 -3.283597e-19)
(0.29047287 -4.5169377e-05 3.6874626e-19)
(0.28420752 -2.6229161e-05 4.8606909e-21)
(0.27684812 -8.6362778e-06 -6.5965765e-20)
(0.26844451 4.8386374e-06 -3.7961348e-19)
(0.25884557 1.3135761e-05 1.3352052e-19)
(0.2475977 1.6244092e-05 3.5608296e-19)
(0.23366777 1.4835354e-05 2.1804642e-19)
(0.21452852 1.0311984e-05 -1.0404596e-19)
(0.18089414 4.2585305e-06 -8.5287789e-20)
(0.30223466 -1.7681572e-05 3.3357059e-18)
(0.3013499 -4.1630435e-05 1.1021111e-18)
(0.29917751 -5.2409547e-05 4.5051862e-19)
(0.29549883 -4.886943e-05 5.2796158e-19)
(0.29036918 -3.4313659e-05 5.7740957e-19)
(0.28403214 -1.6747518e-05 3.5938533e-19)
(0.27666826 -1.0891091e-06 6.8776353e-19)
(0.26830088 1.0390979e-05 1.9872465e-19)
(0.25875851 1.6888489e-05 6.7047476e-20)
(0.24757272 1.8568191e-05 -3.6400863e-19)
(0.23370102 1.6110028e-05 1.6170745e-19)
(0.21460732 1.0882766e-05 -5.5507841e-21)
(0.18099561 4.3960761e-06 -2.564132e-20)
(0.30282117 -1.5633395e-05 2.1923826e-18)
(0.30181594 -3.6431496e-05 2.1079071e-19)
(0.29941741 -4.3968569e-05 1.027586e-18)
(0.29551566 -3.8365479e-05 7.0903483e-19)
(0.2902477 -2.3945235e-05 2.6041297e-19)
(0.28385859 -7.8477361e-06 4.8730054e-19)
(0.27649982 5.914114e-06 2.7478017e-19)
(0.26817344 1.5479806e-05 2.2533171e-19)
(0.25868728 2.0310835e-05 -3.1536897e-20)
(0.24756135 2.0682634e-05 -3.2004023e-19)
(0.23374484 1.7265706e-05 -9.0671702e-20)
(0.21469357 1.1397594e-05 -1.2578611e-19)
(0.18110164 4.5187654e-06 -8.1370017e-20)
(0.30333026 -1.3320789e-05 -2.1348484e-18)
(0.30220189 -3.0705589e-05 5.7046068e-20)
(0.29958744 -3.5196375e-05 1.0222615e-18)
(0.29549103 -2.8043646e-05 1.0191677e-18)
(0.29011218 -1.4099838e-05 5.6911682e-19)
(0.28368733 4.8517812e-07 1.1815213e-19)
(0.276344 1.2388907e-05 -1.5046336e-19)
(0.26806118 2.0135136e-05 -1.4114164e-19)
(0.2586307 2.3431362e-05 -5.935879e-20)
(0.24756246 2.2604575e-05 3.5382535e-19)
(0.23379832 1.831148e-05 -8.7350017e-20)
(0.21478659 1.1860471e-05 9.7088857e-20)
(0.18121176 4.6275491e-06 -4.5003e-20)
(0.30375374 -1.0764902e-05 5.7891413e-20)
(0.30250438 -2.4536352e-05 6.9023397e-19)
(0.29969147 -2.6255592e-05 2.5842206e-18)
(0.29543051 -1.8024194e-05 4.7747336e-20)
(0.28996562 -4.7858083e-06 5.8280919e-19)
(0.28352015 8.2431242e-06 -9.3706284e-20)
(0.27620025 1.8335887e-05 -1.3101286e-19)
(0.26796311 2.4389471e-05 -4.5516143e-20)
(0.25858763 2.627466e-05 -1.5418567e-19)
(0.24757502 2.4348916e-05 3.5095117e-19)
(0.2338606 1.925554e-05 1.334564e-19)
(0.21488574 1.2275093e-05 -1.0575303e-19)
(0.18132555 4.7233453e-06 -1.2361892e-20)
(0.30408466 -8.0145696e-06 1.7494729e-18)
(0.30272186 -1.8051784e-05 2.4898596e-18)
(0.29973407 -1.7315877e-05 1.2328766e-18)
(0.29533886 -8.3895736e-06 2.4314686e-19)
(0.28980995 3.9789727e-06 5.9740421e-20)
(0.28335875 1.5424511e-05 -9.8372249e-20)
(0.27606809 2.3784745e-05 -2.4057839e-20)
(0.26787825 2.8272293e-05 2.8408025e-20)
(0.25855702 2.8860176e-05 2.3857024e-21)
(0.24759808 2.5927624e-05 1.7845038e-19)
(0.23393092 2.0104421e-05 1.9961221e-19)
(0.21499042 1.2644242e-05 4.5175399e-20)
(0.1814426 4.806728e-06 -3.7059883e-20)
(0.30431819 -5.1449366e-06 -2.2360898e-18)
(0.30285461 -1.1412627e-05 9.7636134e-19)
(0.29971994 -8.5331477e-06 -1.0188216e-19)
(0.29521955 7.8209858e-07 1.4731001e-18)
(0.28964857 1.2143096e-05 3.0029291e-19)
(0.28320331 2.2022633e-05 5.9564798e-19)
(0.27594691 2.8765132e-05 8.3828813e-19)
(0.26780566 3.1808704e-05 2.771325e-19)
(0.25853789 3.120518e-05 2.1167523e-20)
(0.24763076 2.7351719e-05 -3.2183858e-19)
(0.23400854 2.0864209e-05 -1.2800521e-19)
(0.2151001 1.2970565e-05 1.1785295e-19)
(0.18156252 4.8782958e-06 -2.6900686e-20)
(0.30445222 -2.2472224e-06 1.9759124e-19)
(0.30290466 -4.7892183e-06 1.1679261e-18)
(0.2996534 -5.7421372e-08 1.3972219e-18)
(0.29507686 9.3868966e-06 1.150188e-18)
(0.28948321 1.9670575e-05 6.1451943e-19)
(0.28305386 2.8057822e-05 6.1311702e-19)
(0.27583605 3.3302697e-05 5.6655364e-19)
(0.26774441 3.5018209e-05 2.6317739e-19)
(0.25852929 3.3323449e-05 1.3831573e-19)
(0.24767222 2.8629924e-05 -3.6032898e-19)
(0.23409279 2.1539504e-05 -6.3610001e-20)
(0.21521426 1.3255905e-05 4.5693668e-20)
(0.18168496 4.9383662e-06 8.8823535e-21)
(0.30448759 5.8144134e-07 4.1365537e-18)
(0.30287533 1.6332145e-06 4.028878e-18)
(0.29953939 7.9404072e-06 1.5763183e-18)
(0.29491435 1.7334267e-05 8.9301743e-19)
(0.28931491 2.6550408e-05 3.2617322e-19)
(0.28291026 3.3548739e-05 2.4790806e-19)
(0.2757348 3.7416542e-05 -3.3990554e-19)
(0.26769361 3.7916292e-05 -1.2540873e-19)
(0.25853035 3.522613e-05 2.9288634e-19)
(0.24772169 2.9769094e-05 1.9616046e-19)
(0.23418305 2.213375e-05 1.7101207e-19)
(0.2153324 1.3501543e-05 1.4758618e-19)
(0.18180955 4.9870983e-06 5.7663564e-20)
(0.30442824 3.2381487e-06 4.082413e-18)
(0.30277199 7.6570032e-06 2.908626e-18)
(0.29938292 1.5304026e-05 2.3063217e-18)
(0.29473444 2.4565394e-05 -3.8849523e-19)
(0.28914434 3.2781719e-05 6.476457e-19)
(0.28277222 3.8508147e-05 4.2478595e-19)
(0.27564244 4.1120473e-05 -1.5161796e-20)
(0.26765239 4.0514612e-05 2.459803e-19)
(0.25854021 3.6921386e-05 2.788533e-19)
(0.24777843 3.0773925e-05 3.5085174e-19)
(0.23427872 2.2649024e-05 -3.999853e-20)
(0.21545406 1.3708035e-05 -2.7544888e-19)
(0.18193595 5.0244082e-06 -1.9256842e-20)
(0.30428148 5.6355972e-06 -5.6378407e-19)
(0.30260141 1.3122397e-05 9.6866815e-19)
(0.29918843 2.1930439e-05 3.818918e-19)
(0.29453912 3.1047539e-05 -2.9059122e-19)
(0.28897192 3.8362704e-05 4.0346051e-19)
(0.28263933 4.2943564e-05 1.2121005e-19)
(0.2755582 4.4423857e-05 -1.0140336e-20)
(0.26761989 4.2821004e-05 2.0247017e-19)
(0.25855808 3.8414273e-05 7.5257527e-20)
(0.24784174 3.1646872e-05 2.8034051e-19)
(0.23437921 2.3085982e-05 -4.7913693e-21)
(0.21557877 1.3875187e-05 -2.210459e-19)
(0.18206381 5.0499653e-06 -9.874274e-20)
(0.30405678 7.7205467e-06 7.4232118e-19)
(0.30237113 1.7926718e-05 1.2400708e-18)
(0.29896016 2.7756825e-05 8.1829699e-19)
(0.29433004 3.6759526e-05 5.3559582e-19)
(0.28879784 4.3291006e-05 7.5291281e-20)
(0.2825111 4.6859616e-05 -7.0002905e-20)
(0.2754813 4.7332608e-05 -8.9250327e-20)
(0.26759529 4.4839951e-05 -1.5916065e-19)
(0.25858316 3.9707107e-05 1.5027562e-19)
(0.24791094 3.2388408e-05 1.3171438e-19)
(0.23448396 2.3444009e-05 1.5468896e-19)
(0.21570609 1.4002119e-05 -4.2273763e-20)
(0.18219278 5.0632119e-06 -5.7621062e-20)
(0.30376497 9.4676929e-06 1.0142082e-18)
(0.30208913 2.2015482e-05 1.7700545e-18)
(0.29870222 3.2751926e-05 1.5142321e-18)
(0.29410866 4.1691449e-05 7.7878903e-19)
(0.2886222 4.7566309e-05 6.7590445e-19)
(0.28238699 5.0259472e-05 4.4381404e-19)