/*--------------------------------*- C++ -*----------------------------------*\
| =========                 |                                                 |
| \\      /  F ield         | OpenFOAM: The Open Source CFD Toolbox           |
|  \\    /   O peration     | Version:  2506                                  |
|   \\  /    A nd           | Website:  www.openfoam.com                      |
|    \\/     M anipulation  |                                                 |
\*---------------------------------------------------------------------------*/
FoamFile
{
    version     2.0;
    format      ascii;
    arch        "LSB;label=32;scalar=64";
    class       volScalarField;
    location    "20000/rock";
    object      T;
}
// * * * * * * * * * * * * * * * * * * * * * * * * * * * * * * * * * * * * * //

dimensions      [0 0 0 1 0 0 0];

internalField   nonuniform List<scalar> 
16000
(
317.74886
306.98237
301.16333
297.53827
295.07619
293.30423
291.97457
290.94471
290.12695
289.46436
288.9185
288.46243
288.07681
287.74738
287.46343
287.21674
287.00094
286.81101
286.64293
286.49348
286.36002
286.24038
286.13276
286.03567
285.94784
285.8682
285.79583
285.72995
285.66988
285.61501
285.56483
285.51887
285.4767
285.43793
285.40218
285.36905
285.33815
285.30899
285.28089
285.25278
320.43389
309.70859
303.4971
299.51146
296.76414
294.76999
293.26549
292.09588
291.16465
290.40862
289.78479
289.26294
288.82126
288.44362
288.11789
287.83475
287.58694
287.36874
287.17558
287.00377
286.85029
286.71268
286.58888
286.47716
286.37608
286.28441
286.2011
286.12526
286.05609
285.99292
285.93514
285.88223
285.83368
285.78905
285.74792
285.70985
285.67438
285.64099
285.60904
285.57763
321.96885
311.71706
305.42253
301.24025
298.29639
296.13113
294.48298
293.19369
292.16245
291.3223
290.62718
290.04444
289.55035
289.1273
288.76195
288.44404
288.16556
287.92018
287.70281
287.50936
287.33648
287.18139
287.04181
286.91582
286.80179
286.69835
286.60433
286.51871
286.44062
286.3693
286.30406
286.24432
286.18953
286.13918
286.0928
286.04992
286.01008
285.97274
285.93731
285.90309
322.95264
313.22809
307.00666
302.74264
299.6756
297.38561
295.62384
294.2349
293.11742
292.2029
291.44354
290.80512
290.26256
289.7971
289.39448
289.04366
288.73599
288.46461
288.22401
288.00972
287.81808
287.64607
287.49118
287.3513
287.22466
287.10974
287.00525
286.91008
286.82326
286.74395
286.67142
286.60499
286.54409
286.48815
286.43667
286.38916
286.34512
286.30405
286.26542
286.22868
323.64417
314.39956
308.31936
304.04655
300.91191
298.53624
296.6879
295.2182
294.02792
293.04873
292.2323
291.54358
290.95664
290.45195
290.01454
289.63277
289.29749
289.00139
288.7386
288.50432
288.29464
288.10631
287.93661
287.78328
287.64439
287.5183
287.40362
287.29913
287.20379
287.11669
287.03703
286.96408
286.89721
286.83582
286.77939
286.7274
286.67935
286.63475
286.59312
286.55402
324.165
315.33578
309.42016
305.18177
302.01923
299.58902
297.67732
296.14393
294.89341
293.85893
292.99247
292.25881
291.63164
291.09096
290.62132
290.21066
289.84942
289.52995
289.24607
288.99272
288.76577
288.56175
288.37778
288.21145
288.0607
287.92379
287.7992
287.68566
287.58203
287.48733
287.40071
287.32141
287.24873
287.18205
287.12082
287.0645
287.01259
286.96461
286.92014
286.87878
324.57741
316.10466
310.35588
306.17584
303.01258
300.55171
298.59585
297.01365
295.71433
294.6333
293.72355
292.9502
292.28692
291.71348
291.21421
290.77674
290.39124
290.04979
289.74596
289.47451
289.23107
289.01204
288.81438
288.63553
288.47335
288.32596
288.19178
288.06945
287.95776
287.85569
287.76231
287.67682
287.59849
287.52668
287.46079
287.40029
287.34466
287.29346
287.24626
287.20272
324.9161
316.75098
311.16213
307.05254
303.90651
301.43279
299.44819
297.82984
296.49181
295.37223
294.42552
293.61748
292.92206
292.31907
291.79275
291.33057
290.92252
290.5605
290.23791
289.94932
289.69023
289.45687
289.24611
289.05526
288.88207
288.72458
288.58114
288.4503
288.33082
288.22159
288.12165
288.03016
287.94635
287.86956
287.79916
287.73461
287.6754
287.62108
287.57126
287.5256
325.20193
317.30495
311.86568
307.83161
304.7143
302.24067
300.23949
298.59551
297.22754
296.07656
295.09869
294.26067
293.53691
292.90747
292.35661
291.87179
291.44291
291.06174
290.72158
290.41685
290.14294
289.89599
289.67272
289.4704
289.28664
289.11945
288.96709
288.82805
288.70102
288.58486
288.47857
288.38126
288.29215
288.21053
288.13577
288.06731
288.00464
287.94731
287.89494
287.8472
325.44825
317.78752
312.48672
308.52918
305.44763
302.98335
300.97499
299.31399
297.92355
296.74749
295.74371
294.88003
294.13152
293.47857
292.90562
292.40019
291.95216
291.55326
291.1967
290.87684
290.58897
290.32914
290.094
289.88072
289.68687
289.51038
289.34944
289.2025
289.06819
288.94535
288.83292
288.72999
288.63574
288.54945
288.47047
288.39822
288.33221
288.27197
288.21712
288.16735
325.66407
318.21363
313.04058
309.15831
306.11658
303.66812
301.65977
299.98869
298.58208
297.38643
296.36143
295.47605
294.7061
294.03243
293.43972
292.91563
292.4501
292.03486
291.66308
291.32908
291.0281
290.75612
290.50973
290.28605
290.08258
289.89718
289.72802
289.57349
289.43219
289.30291
289.18455
289.07619
288.97698
288.88617
288.80311
288.72721
288.65795
288.59488
288.53763
288.48586
325.85573
318.59422
313.53902
309.72959
306.72972
304.30153
302.2986
300.62301
299.20546
297.99494
296.95286
296.04936
295.26103
294.56922
293.95897
293.41809
292.93664
292.5064
292.12056
291.77341
291.46016
291.17676
290.91976
290.68621
290.47358
290.2797
290.10269
289.94089
289.79287
289.65739
289.53333
289.41973
289.31573
289.22056
289.13355
289.05412
288.98172
288.91591
288.85631
288.80258
326.02784
318.93748
313.99123
310.2516
307.29433
304.88936
302.8959
301.22019
299.79603
298.57467
297.51913
296.6007
295.79677
295.08924
294.46349
293.9076
293.41175
292.96782
292.56903
292.2097
291.88502
291.59092
291.32392
291.08105
290.85975
290.6578
290.47329
290.30454
290.15009
290.00866
289.87912
289.76048
289.65186
289.55249
289.46167
289.37881
289.30337
289.2349
289.173
289.11735
326.18387
319.24966
314.40439
310.73131
307.81656
305.43669
303.45566
301.78329
300.35607
299.12728
298.06143
297.13091
296.31389
295.59283
294.95351
294.38427
293.87547
293.4191
293.00845
292.63787
292.30257
291.99848
291.72211
291.47046
291.24095
291.03135
290.8397
290.66432
290.50372
290.35659
290.2218
290.09831
289.98525
289.88182
289.78733
289.70116
289.62278
289.55172
289.48758
289.43004
326.32647
319.53564
314.78428
311.17449
308.30161
305.94794
303.98149
302.31516
300.88777
299.65442
298.58097
297.64086
296.81301
296.08044
295.42932
294.84828
294.32789
293.86027
293.4388
293.05788
292.71276
292.39936
292.11422
291.85432
291.61708
291.40023
291.20182
291.02013
290.85366
290.70108
290.56125
290.43311
290.31578
290.20845
290.11042
290.02105
289.93982
289.86624
289.79991
289.7405
326.4577
319.79929
315.13553
311.58585
308.75389
306.42698
304.47664
302.81841
301.3932
300.15768
299.07898
298.13147
297.29479
296.55252
295.89124
295.29985
294.76915
294.29141
293.8601
293.46971
293.11553
292.79351
292.50019
292.23256
291.98804
291.76435
291.55953
291.37185
291.19979
291.04202
290.89736
290.76478
290.64335
290.53226
290.43081
290.33836
290.25436
290.17833
290.10987
290.04863
326.57921
320.04371
315.46193
311.96934
309.17715
306.87715
304.94396
303.29544
301.87428
300.6386
299.55663
298.60364
297.75993
297.0096
296.33963
295.73923
295.19941
294.7126
294.27241
293.87338
293.51087
293.18088
292.87996
292.60512
292.35376
292.12364
291.91276
291.7194
291.54203
291.37931
291.23005
291.0932
290.96784
290.85315
290.74841
290.65297
290.5663
290.48789
290.41734
290.3543
326.69233
320.27142
315.7666
312.32826
309.57458
307.30138
305.38602
303.7484
302.33282
301.09864
300.0151
299.05828
298.20912
297.45221
296.7749
296.16672
295.61889
295.12401
294.67581
294.26894
293.89881
293.56147
293.2535
292.97193
292.71419
292.47802
292.26144
292.0627
291.8803
291.71287
291.55922
291.4183
291.28917
291.17102
291.06311
290.9648
290.87553
290.79481
290.72223
290.65742
326.79814
320.48449
316.05212
312.6654
309.94892
307.70222
305.8051
304.17928
302.77047
301.53915
300.45549
299.49628
298.64305
297.88087
297.19746
296.58262
296.02779
295.52577
295.0704
294.65643
294.27936
293.93527
293.62079
293.33298
293.06928
292.82744
292.60549
292.40169
292.21451
292.04261
291.88478
291.73998
291.60725
291.48578
291.37482
291.27374
291.18197
291.099
291.02443
290.95788
326.89753
320.68464
316.32068
312.98311
310.30254
308.08189
306.20321
304.58984
303.18874
301.96142
300.87885
299.91849
299.06243
298.29615
297.60773
296.98725
296.42638
295.91808
295.45632
295.03596
294.65257
294.30231
293.98184
293.68825
293.419
293.17186
292.94486
292.73629
292.54461
292.36847
292.20668
292.05817
291.922
291.79735
291.68347
291.57971
291.48551
291.40037
291.32385
291.25559
326.99123
320.87333
316.57411
313.28341
310.63746
308.44235
306.58215
304.98168
303.58904
302.36663
301.28618
300.32575
299.46792
298.69858
298.00615
297.38097
296.81492
296.30112
295.83371
295.40763
295.01853
294.66263
294.33666
294.03773
293.76333
293.51124
293.27953
293.06647
292.87054
292.6904
292.52484
292.3728
292.23335
292.10565
291.98897
291.88264
291.78609
291.69883
291.62042
291.55048
327.07986
321.05177
316.81398
313.56802
310.95547
308.7853
306.94351
305.35625
303.97263
302.75589
301.67842
300.71883
299.86016
299.0887
298.39314
297.7641
297.19366
296.67512
296.20272
295.77154
295.3773
295.01629
294.68528
294.38143
294.10226
293.84558
293.60946
293.39219
293.19226
293.00833
292.8392
292.68382
292.54124
292.41063
292.29124
292.18244
292.08363
291.99431
291.91404
291.84245
327.16395
321.221
317.04162
313.83846
311.25809
309.11227
307.28873
305.71485
304.34069
303.13022
302.05645
301.09849
300.2398
299.46702
298.76913
298.137
297.5629
297.04028
296.56353
296.12783
295.72898
295.36334
295.02774
294.71938
294.43581
294.17486
293.93463
293.71342
293.50973
293.32223
293.14972
292.99116
292.8456
292.71221
292.59024
292.47905
292.37805
292.28674
292.20467
292.13146
327.24394
321.3819
317.25818
314.096
311.54668
309.42458
307.61907
306.05866
304.69427
303.49056
302.42109
301.46543
300.60743
299.83404
299.13455
298.5
297.9229
297.39683
296.91631
296.47663
296.07367
295.70387
295.36409
295.0516
294.76398
294.49908
294.25503
294.03014
293.82292
293.63206
293.45636
293.29478
293.14638
293.01034
292.8859
292.77241
292.6693
292.57605
292.49222
292.41742
327.3202
321.53524
317.46468
314.34179
311.82243
309.72342
307.93566
306.38873
305.03435
303.83779
302.7731
301.82031
300.96362
300.19027
299.48978
298.85346
298.27394
297.74499
297.26125
296.81808
296.41148
296.03794
295.6944
295.37814
295.0868
294.81826
294.57066
294.34233
294.13182
293.93779
293.75908
293.59465
293.44355
293.30497
293.17817
293.06248
292.95733
292.8622
292.77665
292.70029
327.39306
321.68169
317.66198
314.57681
312.08638
310.00984
308.23953
306.70604
305.36181
304.17269
303.11321
302.16378
301.30891
300.53615
299.83525
299.1977
298.61632
298.085
297.59852
297.15234
296.74254
296.36567
296.01872
295.69904
295.4043
295.1324
294.88151
294.65
294.43639
294.2394
294.05785
293.89072
293.73707
293.59608
293.467
293.3492
293.24208
293.14513
293.05791
292.98001
327.46281
321.82183
317.85084
314.80194
312.33945
310.28477
308.5316
307.01145
305.67746
304.49602
303.44208
302.49641
301.64383
300.87214
300.17132
299.53304
298.95028
298.41709
297.92832
297.47956
297.06695
296.68713
296.33714
296.01437
295.71651
295.44153
295.18761
294.95313
294.73665
294.53687
294.35266
294.18297
294.0269
293.8836
293.75237
293.63253
293.52351
293.4248
293.33594
293.25654
327.52969
321.95617
318.03195
315.01796
312.58248
310.54905
308.81268
307.30575
305.98204
304.80844
303.76031
302.81875
301.96886
301.19867
300.49837
299.85981
299.27612
298.74147
298.25084
297.79989
297.38486
297.00243
296.64972
296.32416
296.02349
295.74569
295.48897
295.25174
295.03258
294.8302
294.64348
294.47139
294.31301
294.16753
294.03422
293.91243
293.80159
293.70116
293.61071
293.52984
327.59392
322.08515
318.20588
315.22554
312.8162
310.80344
309.08352
307.58965
306.27623
305.1106
304.0685
303.13132
302.28445
301.51613
300.81674
300.1783
299.59409
299.05837
298.56626
298.11349
297.69638
297.31168
296.95656
296.6285
296.32527
296.0449
295.78561
295.54584
295.32419
295.11939
294.93031
294.75594
294.59539
294.44783
294.31255
294.18889
294.07627
293.97419
293.88219
293.79987
327.65571
322.20919
318.37319
315.4253
313.04126
311.04861
309.34479
307.86382
306.56065
305.40306
304.36716
303.43461
302.59105
301.82492
301.12679
300.48883
299.90444
299.36802
298.87476
298.42051
298.00165
297.61499
297.25775
296.92745
296.62192
296.3392
296.07757
295.83546
295.61149
295.40442
295.21314
295.03663
294.87402
294.72449
294.58732
294.46186
294.34754
294.24386
294.15034
294.0666
327.71521
322.32862
318.53432
315.61778
313.25826
311.28517
309.5971
308.12883
306.83586
305.68637
304.65679
303.72907
302.88906
302.1254
301.42883
300.79166
300.20742
299.67062
299.17655
298.72112
298.3008
297.91246
297.55336
297.22109
296.91349
296.62865
296.36486
296.1206
295.89449
295.68531
295.49196
295.31345
295.14889
294.99748
294.85851
294.73133
294.61538
294.51013
294.41514
294.33001
327.77258
322.44377
318.68972
315.80348
313.46772
311.51367
309.84101
308.38525
307.10238
305.96101
304.93785
304.01511
303.17886
302.41792
301.72317
301.08707
300.50328
299.96639
299.47178
299.01547
298.59396
298.2042
297.8435
297.50949
297.20004
296.91329
296.64754
296.4013
296.17322
295.96208
295.7668
295.5864
295.42
295.26681
295.12612
294.99729
294.87975
294.773
294.67658
294.59008
327.82798
322.55493
318.83975
315.98284
313.67013
311.73461
310.07702
308.63355
307.3607
306.22743
305.21076
304.29314
303.46082
302.7028
302.01011
301.37534
300.79224
300.25552
299.76065
299.30371
298.88126
298.49033
298.12826
297.79272
297.48164
297.19316
296.92564
296.67759
296.44768
296.23473
296.03764
295.85547
295.68734
295.53246
295.39013
295.25972
295.14066
295.03245
294.93462
294.84679
327.88151
322.66234
318.98476
316.15625
313.86592
311.94845
310.30559
308.8742
307.61126
306.48607
305.47594
304.56352
303.73528
302.98036
302.28993
301.6567
301.07453
300.53823
300.04333
299.58598
299.16284
298.77095
298.40773
298.07087
297.75835
297.46833
297.19921
296.9495
296.71792
296.50328
296.30452
296.12068
295.95091
295.79443
295.65054
295.51862
295.39809
295.28846
295.18927
295.10013
327.9333
322.76625
319.12507
316.32408
314.05549
312.15559
310.52713
309.10761
307.85445
306.73731
305.73373
304.8266
304.00255
303.25088
302.56289
301.9314
301.35037
300.81469
300.31998
299.86245
299.43882
299.04618
298.682
298.34402
298.03024
297.73886
297.46828
297.21708
296.98396
296.76776
296.56743
296.38204
296.21073
296.05273
295.90736
295.77398
295.65204
295.54104
295.44052
295.35008
327.98345
322.86686
319.26094
316.48666
314.23919
312.35642
310.74204
309.33417
308.09066
306.9815
305.98449
305.0827
304.26294
303.51465
302.82925
302.19966
301.61995
301.08509
300.59076
300.13326
299.70933
299.31614
298.95119
298.61225
298.29737
298.00479
297.73292
297.48036
297.24583
297.02819
296.82641
296.63956
296.4668
296.30736
296.16057
296.0258
295.9025
295.79017
295.68836
295.59666
328.03205
322.96437
319.39263
316.64428
314.41735
312.55128
310.95066
309.55422
308.32024
307.219
306.22853
305.33213
304.51673
303.77192
303.08925
302.46172
301.88349
301.34961
300.85585
300.39854
299.97449
299.58092
299.21537
298.87565
298.55983
298.26619
297.99317
297.73937
297.50356
297.2846
297.08147
296.89326
296.71913
296.55833
296.41019
296.27409
296.14948
296.03586
295.93278
295.83985
328.0792
323.05894
319.52039
316.79721
314.59027
312.74048
311.15332
309.7681
308.5435
307.4501
306.46616
305.57516
304.76418
304.02295
303.34311
302.71777
302.14117
301.60843
301.11539
300.65843
300.23443
299.84064
299.47464
299.13429
298.81769
298.52312
298.24908
297.99418
297.7572
297.53702
297.33264
297.14316
296.96774
296.80566
296.65623
296.51886
296.39298
296.27811
296.17381
296.07966
328.12496
323.15075
319.64441
316.94572
314.75823
312.92431
311.35032
309.9761
308.76074
307.6751
306.69766
305.81206
305.00555
304.26797
303.59105
302.96802
302.39317
301.86171
301.36953
300.91308
300.48927
300.0954
299.72911
299.38826
299.07101
298.77565
298.50071
298.24482
298.00678
297.78549
297.57995
297.38928
297.21266
297.04935
296.8987
296.76011
296.63301
296.51693
296.41143
296.31609
328.16942
323.23992
319.7649
317.09002
314.92148
313.10305
311.54193
310.1785
308.97224
307.89426
306.92327
306.04309
305.24107
304.50719
303.83329
303.21265
302.63967
302.10961
301.61842
301.1626
300.73912
300.34532
299.97885
299.63765
299.31986
299.02384
298.74811
298.49135
298.25235
298.03003
297.82343
297.63165
297.45389
297.28944
297.13762
296.99785
296.86958
296.75233
296.64566
296.54915
328.21263
323.32661
319.88204
317.23033
315.08025
313.27694
311.7284
310.37557
309.17824
308.10784
307.14326
306.26846
305.47097
304.74083
304.07001
303.45185
302.88084
302.35228
301.8622
301.40713
300.9841
300.59048
300.22397
299.88253
299.56433
299.26775
298.99135
298.7338
298.49394
298.27069
298.0631
297.87029
297.69147
297.52593
297.373
297.23211
297.10271
296.98432
296.8765
296.77886
328.25467
323.41092
319.99598
317.36684
315.23476
313.44621
311.90999
310.56753
309.379
308.31607
307.35784
306.48842
305.69545
304.96909
304.30139
303.6858
303.11683
302.58988
302.101
301.6468
301.22433
300.831
300.46456
300.12298
299.80448
299.50745
299.23047
298.97224
298.7316
298.50751
298.29901
298.10524
297.92542
297.75885
297.60487
297.4629
297.33241
297.21292
297.10399
297.00522
328.29558
323.49298
320.10689
317.49972
315.3852
313.61107
312.08689
310.75461
309.57474
308.51918
307.56723
306.70315
305.9147
305.19216
304.52763
303.91465
303.3478
302.82253
302.33495
301.88171
301.4599
301.06698
300.7007
300.35909
300.04038
299.743
299.46553
299.20671
298.96538
298.74052
298.53119
298.33653
298.15577
297.98822
297.83324
297.69024
297.55869
297.43813
297.32812
297.22826
328.33542
323.57289
320.2149
317.62916
315.53176
313.77171
312.25932
310.93702
309.76565
308.71736
307.77162
306.91285
306.12893
305.4102
304.74888
304.13856
303.5739
303.05039
302.56419
302.11199
301.69093
301.2985
300.93249
300.59094
300.27211
299.97446
299.6966
299.43726
299.19533
298.96977
298.75967
298.56418
298.38255
298.21408
298.05814
297.91415
297.78159
297.65999
297.54892
297.44798
328.37424
323.65074
320.32014
317.75529
315.67461
313.92832
312.42746
311.11495
309.95194
308.91081
307.97122
307.11772
306.33829
305.62339
304.96531
304.35769
303.79527
303.27358
302.78883
302.33776
301.91753
301.52567
301.16
300.8186
300.49974
300.20191
299.92372
299.66395
299.42148
299.1953
298.9845
298.78825
298.60579
298.43645
298.27959
298.13466
298.00112
297.87852
297.76641
297.66441
328.41208
323.72663
320.42273
317.87827
315.8139
314.08106
312.5915
311.28858
310.13378
309.09971
308.16619
307.31791
306.54296
305.83189
305.17706
304.57218
304.01204
303.49222
303.00899
302.55911
302.13978
301.74857
301.38333
301.04215
300.72334
300.4254
300.14697
299.88684
299.64389
299.41715
299.20571
299.00875
298.82552
298.65536
298.49763
298.35179
298.21731
298.09373
297.98061
297.87758
328.44899
323.80065
320.52279
317.99822
315.94979
314.23009
312.75159
311.45808
310.31134
309.28422
308.3567
307.5136
306.7431
306.03585
305.38428
304.78216
304.22434
303.70645
303.22478
302.77615
302.3578
301.96731
301.60256
301.26167
300.94298
300.645
300.3664
300.10596
299.86261
299.63537
299.42335
299.22573
299.04178
298.87084
298.71229
298.56557
298.43018
298.30565
298.19155
298.0875
328.485
323.87286
320.62041
318.11526
316.0824
314.37557
312.90789
311.6236
310.4848
309.46452
308.54291
307.70492
306.93885
306.23542
305.58711
304.98777
304.4323
303.91637
303.43632
302.98899
302.57167
302.18196
301.81776
301.47724
301.15873
300.86078
300.58206
300.32139
300.07769
299.85001
299.63745
299.43923
299.25461
299.08293
298.92359
298.77603
298.63976
298.51431
298.39925
298.29421
328.52015
323.94334
320.71571
318.22952
316.21188
314.51762
313.06054
311.7853
310.65428
309.64073
308.72497
307.89205
307.13036
306.43072
305.78567
305.18913
304.63603
304.12209
303.6437
303.19773
302.78148
302.39261
302.02903
301.68892
301.37066
301.07279
300.79402
300.53317
300.28918
300.0611
299.84806
299.64928
299.46403
299.29165
299.13156
298.9832
298.84608
298.71973
298.60374
298.49772
328.55447
324.01215
320.80876
318.3411
316.33833
314.65638
313.20969
311.94332
310.81994
309.81302
308.90301
308.07509
307.31776
306.62189
305.9801
305.38636
304.83565
304.32374
303.84704
303.40246
302.98734
302.59935
302.23644
301.8968
301.57884
301.28111
301.00233
300.74135
300.49712
300.2687
300.05523
299.85593
299.67008
299.49706
299.33625
299.18712
299.04917
298.92195
298.80505
298.69807
328.588
324.07937
320.89965
318.4501
316.46188
314.79197
313.35544
312.09777
310.98191
309.9815
309.07717
308.2542
307.50118
306.80905
306.17052
305.57958
305.03127
304.5214
304.04642
303.60327
303.18932
302.80225
302.44005
302.10094
301.78332
301.48578
301.20705
300.94599
300.70157
300.47285
300.25898
300.05921
299.87282
299.69917
299.53768
299.3878
299.24906
299.121
299.0032
298.89529
328.62075
324.14505
320.98846
318.55662
316.58262
314.9245
313.49793
312.2488
311.14031
310.14632
309.24757
308.42949
307.68073
306.99233
306.35703
305.76889
305.223
304.71519
304.24195
303.80026
303.3875
303.00141
302.63996
302.30141
301.98418
301.68688
301.40824
301.14714
300.90257
300.67359
300.45938
300.25917
300.07226
299.89803
299.73588
299.5853
299.44579
299.3169
299.19823
299.0894
328.65278
324.20925
321.07527
318.66074
316.70066
315.05407
313.63727
312.3965
311.29526
310.30757
309.41434
308.60107
307.85654
307.17183
306.53974
305.95441
305.41092
304.90519
304.43371
303.99351
303.58198
303.19689
302.83624
302.49829
302.18149
301.88446
301.60595
301.34486
301.10018
300.87099
300.65646
300.45585
300.26846
300.09367
299.93091
299.77964
299.63938
299.50969
299.39017
299.28043
328.68408
324.27201
321.16014
318.76254
316.81608
315.1808
313.77355
312.541
311.44687
310.46538
309.57758
308.76907
308.02871
307.34765
306.71877
306.13622
305.59515
305.0915
304.6218
304.1831
303.77283
303.38877
303.02894
302.69163
302.3753
302.07858
301.80025
301.5392
301.29444
301.06507
300.85027
300.64929
300.46145
300.28614
300.12278
299.97085
299.82987
299.69941
299.57905
299.46843
328.71471
324.33339
321.24314
318.86211
316.92898
315.30476
313.90689
312.68239
311.59524
310.61986
309.73739
308.93358
308.19735
307.51991
306.8942
306.31442
305.77577
305.27421
304.8063
304.36912
303.96013
303.57712
303.21815
302.88151
302.56568
302.26931
301.99118
301.73021
301.48541
301.2559
301.04085
300.83953
300.65128
300.47547
300.31154
300.15898
300.0173
299.88608
299.76491
299.65342
328.74466
324.39343
321.32434
318.95952
317.03944
315.42606
314.03738
312.82078
311.74049
310.7711
309.89389
309.09471
308.36255
307.6887
307.06614
306.48912
305.95288
305.4534
304.98729
304.55165
304.14396
303.76203
303.40393
303.06799
302.75269
302.45669
302.17881
301.91795
301.67314
301.44351
301.22825
301.02662
300.83798
300.6617
300.49723
300.34405
300.2017
300.06974
299.94778
299.83544
328.77397
324.45218
321.4038
319.05484
317.14754
315.54477
314.1651
312.95625
311.88269
310.9192
310.04717
309.25255
308.52442
307.85411
307.23467
306.6604
306.12655
305.62916
305.16486
304.73076
304.32438
303.94355
303.58635
303.25113
302.93638
302.6408
302.36318
302.10245
301.85767
301.62795
301.4125
301.2106
301.02159
300.84487
300.67988
300.52612
300.38311
300.25043
300.12769
300.01451
328.80266
324.50968
321.48156
319.14814
317.25334
315.66098
314.29014
313.08889
312.02195
311.06425
310.19732
309.4072
308.68303
308.01623
307.39989
306.82833
306.29687
305.80157
305.33907
304.90653
304.50148
304.12175
303.76548
303.431
303.11683
302.82167
302.54435
302.28379
302.03905
301.80927
301.59367
301.39151
301.20216
301.02502
300.85953
300.7052
300.56156
300.42819
300.30468
300.19068
328.83075
324.56596
321.55768
319.23947
317.35693
315.77476
314.41257
313.21879
312.15835
311.20634
310.34443
309.55873
308.83848
308.17515
307.56187
306.99302
306.46393
305.9707
305.51001
305.07903
304.67531
304.29671
303.94137
303.60765
303.29409
302.99938
302.72237
302.462
302.21734
301.98752
301.77178
301.5694
301.37973
301.20219
301.03623
300.88135
300.73709
300.60304
300.47879
300.36399
328.85825
324.62107
321.63221
319.32889
317.45837
315.88619
314.53249
313.34603
312.29196
311.34555
310.48857
309.70724
308.99086
308.33095
307.7207
307.15452
306.62779
306.13663
305.67775
305.24833
304.84594
304.46848
304.1141
303.78116
303.46821
303.17398
302.8973
302.63714
302.39258
302.16275
301.94689
301.7443
301.55434
301.37642
301.21
301.0546
300.90974
300.77502
300.65004
300.53445
328.88518
324.67504
321.7052
319.41648
317.55771
315.99532
314.64995
313.47067
312.42287
311.48196
310.62984
309.85281
309.14024
308.48371
307.87646
307.31293
306.78854
306.29944
305.84235
305.41449
305.01345
304.63714
304.28371
303.95156
303.63925
303.34551
303.06919
302.80926
302.56481
302.33499
302.11904
301.91626
301.72602
301.54775
301.3809
301.22498
301.07955
300.94418
300.81849
300.70212
328.91156
324.7279
321.7767
319.50226
317.65503
316.10224
314.76503
313.59281
312.55116
311.61565
310.7683
309.9955
309.28669
308.6335
308.02921
307.46831
306.94624
306.45918
306.00389
305.57759
305.1779
304.80274
304.45028
304.11893
303.80727
303.51403
303.23808
302.97841
302.73409
302.50429
302.28827
302.08532
301.89483
301.71622
301.54895
301.39254
301.24654
301.11054
300.98416
300.86703
328.9374
324.77969
321.84673
319.58631
317.75037
316.20699
314.8778
313.71249
312.67688
311.74668
310.90404
310.1354
309.43029
308.7804
308.17904
307.62074
307.10097
306.61594
306.16243
305.73769
305.33934
304.96533
304.61386
304.28332
303.97232
303.6796
303.40404
303.14463
302.90046
302.67071
302.45463
302.25153
302.0608
301.88187
301.7142
301.55731
301.41077
301.27415
301.14708
301.02921
328.96273
324.83042
321.91536
319.66866
317.8438
316.30965
314.98831
313.82979
312.80011
311.87514
311.03711
310.27258
309.57112
308.92447
308.326
307.77027
307.25279
306.76977
306.31803
305.89484
305.49784
305.12499
304.7745
304.44478
304.13445
303.84226
303.5671
303.30797
303.06397
302.83428
302.61816
302.41493
302.22398
302.04474
301.87668
301.71934
301.57226
301.43504
301.30731
301.1887
328.98754
324.88014
321.98261
319.74936
317.93536
316.41026
315.09662
313.94477
312.92092
312.00107
311.16759
310.40709
309.70923
309.06579
308.47017
307.91699
307.40176
306.92074
306.47076
306.04912
305.65346
305.28177
304.93226
304.60337
304.29372
304.00207
303.72733
303.46849
303.22467
302.99505
302.7789
302.57556
302.3844
302.20486
302.03644
301.87865
301.73106
301.59326
301.46487
301.34554
329.01187
324.92888
322.04852
319.82845
318.0251
316.50887
315.2028
314.05749
313.03936
312.12455
311.29554
310.53901
309.84469
309.20441
308.61162
308.06094
307.54795
307.06891
306.62068
306.20057
305.80626
305.43572
305.0872
304.75915
304.45018
304.15908
303.88476
303.62622
303.38259
303.15306
302.9369
302.73345
302.5421
302.36229
302.19352
302.0353
301.8872
301.74882
301.6198
301.49977
329.03571
324.97664
322.11312
319.90599
318.11307
316.60555
315.3069
314.16801
313.15549
312.24564
311.42102
310.66841
309.97757
309.3404
308.75039
308.2022
307.69141
307.21434
306.76785
306.34926
305.95628
305.5869
305.23937
304.91215
304.60387
304.31333
304.03944
303.78122
303.53779
303.30836
303.09221
302.88866
302.69713
302.51706
302.34794
302.18931
302.04072
301.90179
301.77213
301.65141
329.05909
325.02347
322.17646
319.982
318.19932
316.70034
315.40897
314.27638
313.26938
312.3644
311.54409
310.79533
310.10792
309.47383
308.88656
308.34082
307.83222
307.35709
306.91232
306.49525
306.10359
305.73536
305.38882
305.06243
304.75485
304.46488
304.19142
303.93352
303.69031
303.46099
303.24485
303.04123
302.84953
302.66921
302.49977
302.34072
302.19166
302.05218
301.92191
301.80051
329.08201
325.06938
322.23856
320.05653
318.28389
316.79328
315.50906
314.38265
313.38107
312.48087
311.66481
310.91983
310.23581
309.60474
309.02018
308.47686
307.97042
307.49721
307.05414
306.63857
306.24824
305.88115
305.5356
305.21005
304.90317
304.61376
304.34075
304.08318
303.84019
303.61099
303.39487
303.19119
302.99934
302.81878
302.64902
302.48958
302.34006
302.20004
302.06917
301.94711
329.10448
325.1144
322.29945
320.12961
318.36682
316.88443
315.60721
314.48688
313.49062
312.59512
311.78324
311.04198
310.36129
309.7332
309.1513
308.61037
308.10606
307.63475
307.19338
306.7793
306.39027
306.02433
305.67976
305.35505
305.04887
304.76003
304.48747
304.23024
303.98748
303.75841
303.54232
303.33858
303.14659
302.9658
302.79574
302.63593
302.48595
302.34541
302.21395
302.09123
329.12653
325.15855
322.35917
320.20128
318.44815
316.97383
315.70349
314.58912
313.59808
312.7072
311.89942
311.16182
310.48441
309.85925
309.27999
308.74141
308.23921
307.76978
307.33007
306.91748
306.52975
306.16494
305.82135
305.49747
305.19199
304.90373
304.63163
304.37474
304.13222
303.90328
303.68724
303.48345
303.29132
303.11033
302.93996
302.77978
302.62937
302.48832
302.35628
302.23292
329.14815
325.20185
322.41774
320.27158
318.52792
317.06151
315.79792
314.68941
313.7035
312.81716
312.01341
311.27941
310.60522
309.98296
309.40629
308.87003
308.36991
307.90234
307.46429
307.05316
306.66672
306.30303
305.96042
305.63738
305.3326
305.04491
304.77326
304.51672
304.27444
304.04566
303.82966
303.62583
303.43358
303.25238
303.08174
302.9212
302.77035
302.62881
302.49621
302.37221
329.16935
325.24432
322.47518
320.34053
318.60617
317.14752
315.89056
314.78779
313.80693
312.92504
312.12526
311.3948
310.72378
310.10436
309.53025
308.99629
308.49822
308.03248
307.59606
307.18638
306.80122
306.43866
306.09701
305.7748
305.47072
305.1836
304.91242
304.65624
304.4142
304.18557
303.96963
303.76577
303.57341
303.39201
303.22109
303.06021
302.90894
302.76691
302.63375
302.50914
329.19015
325.28599
322.53153
320.40817
318.68293
317.2319
315.98144
314.88432
313.9084
313.0309
312.23501
311.50804
310.84014
310.22352
309.65192
309.12022
308.62418
308.16026
307.72545
307.3172
306.93331
306.57185
306.23117
305.90978
305.6064
305.31987