/*--------------------------------*- C++ -*----------------------------------*\
| =========                 |                                                 |
| \\      /  F ield         | OpenFOAM: The Open Source CFD Toolbox           |
|  \\    /   O peration     | Version:  2506                                  |
|   \\  /    A nd           | Website:  www.openfoam.com                      |
|    \\/     M anipulation  |                                                 |
\*---------------------------------------------------------------------------*/
FoamFile
{
    version     2.0;
    format      ascii;
    arch        "LSB;label=32;scalar=64";
    class       volScalarField;
    location    "28000/water";
    object      epsilon;
}
// * * * * * * * * * * * * * * * * * * * * * * * * * * * * * * * * * * * * * //

dimensions      [0 2 -3 0 0 0 0];

internalField   nonuniform List<scalar> 
2600
(
8.8079773e-05
8.8079245e-05
8.8079271e-05
8.807949e-05
8.8079744e-05
8.8080245e-05
8.8082926e-05
8.8104349e-05
8.8272771e-05
8.9512908e-05
9.8428186e-05
0.00017145296
0.0010138716
6.7789348e-05
6.7791881e-05
6.7793339e-05
6.7794963e-05
6.7796901e-05
6.7799886e-05
6.7810178e-05
6.7875511e-05
6.8312468e-05
7.1039872e-05
8.7857083e-05
0.00021159534
0.0014669324
5.3500886e-05
5.3503148e-05
5.3504846e-05
5.3506859e-05
5.3509287e-05
5.3513643e-05
5.3532992e-05
5.3656306e-05
5.4399641e-05
5.8506995e-05
8.1500797e-05
0.00023956052
0.0017068244
4.3127504e-05
4.3128883e-05
4.3130503e-05
4.3132598e-05
4.3135149e-05
4.3140834e-05
4.3171684e-05
4.3362646e-05
4.4413342e-05
4.9710824e-05
7.7552644e-05
0.00025818579
0.0017816909
3.539909e-05
3.5400132e-05
3.5401605e-05
3.5403513e-05
3.5405834e-05
3.5412916e-05
3.5457613e-05
3.5722605e-05
3.7073304e-05
4.3450503e-05
7.5629285e-05
0.00027290618
0.0017622817
2.9510599e-05
2.9511446e-05
2.95127e-05
2.9514227e-05
2.9516143e-05
2.9525119e-05
2.9586798e-05
2.9933924e-05
3.159515e-05
3.9095388e-05
7.5939385e-05
0.00028837858
0.0017002497
2.4935213e-05
2.4935877e-05
2.4936847e-05
2.4937875e-05
2.4939416e-05
2.4951342e-05
2.503458e-05
2.5477125e-05
2.7489448e-05
3.6318413e-05
7.8818158e-05
0.0003073199
0.0016256765
2.1318423e-05
2.1318913e-05
2.1319549e-05
2.132003e-05
2.1321464e-05
2.1338095e-05
2.144948e-05
2.2008273e-05
2.4447975e-05
3.4968795e-05
8.4593389e-05
0.00033066897
0.0015541994
1.8415642e-05
1.8415958e-05
1.8416233e-05
1.8416208e-05
1.8418091e-05
1.8442025e-05
1.8590687e-05
1.9295945e-05
2.2279378e-05
3.5010665e-05
9.3512814e-05
0.00035786641
0.0014930959
1.6054297e-05
1.6054439e-05
1.6054351e-05
1.6053968e-05
1.6057197e-05
1.6092028e-05
1.6290179e-05
1.7183376e-05
2.0872546e-05
3.6486908e-05
0.00010564207
0.00038720676
0.0014449141
1.411016e-05
1.4110129e-05
1.4109712e-05
1.4109249e-05
1.4115119e-05
1.4165612e-05
1.4429188e-05
1.5565379e-05
2.0175367e-05
3.9486471e-05
0.00012074249
0.00041640751
0.0014094648
1.249217e-05
1.2491978e-05
1.249131e-05
1.24912e-05
1.2501471e-05
1.2573786e-05
1.2923263e-05
1.4374121e-05
2.0181311e-05
4.4103574e-05
0.00013819401
0.0004433175
0.0013850187
1.1132483e-05
1.1132152e-05
1.1131368e-05
1.1132227e-05
1.1149209e-05
1.1251189e-05
1.1712642e-05
1.3570321e-05
2.0918928e-05
5.0386672e-05
0.00015703479
0.00046647967
0.0013691707
9.9797899e-06
9.9793621e-06
9.9786681e-06
9.9813266e-06
1.0007987e-05
1.0149541e-05
1.0756002e-05
1.3137755e-05
2.2440689e-05
5.8285038e-05
0.00017613324
0.00048532286
0.0013594869
8.994766e-06
8.994305e-06
8.9939894e-06
8.9995396e-06
9.0396464e-06
9.2332357e-06
1.0026406e-05
1.3079617e-05
2.4808572e-05
6.7609618e-05
0.00019442665
0.00050000486
0.0013539038
8.1468971e-06
8.1464947e-06
8.1469469e-06
8.1567947e-06
8.2150975e-06
8.4763588e-06
9.5087285e-06
1.3415553e-05
2.807526e-05
7.8026841e-05
0.0002111215
0.00051110137
0.0013508788
7.4122408e-06
7.412023e-06
7.4137548e-06
7.4296903e-06
7.5121568e-06
7.8606834e-06
9.1980664e-06
1.4178291e-05
3.2262331e-05
8.9094588e-05
0.00022578146
0.00051932558
0.0013493668
6.7718206e-06
6.7719549e-06
6.7756276e-06
6.7999151e-06
6.9140283e-06
7.3743439e-06
9.0987625e-06
1.5408888e-05
3.7339829e-05
0.00010033156
0.00023829849
0.00052535583
0.0013487149
6.2104575e-06
6.2111621e-06
6.2176208e-06
6.2531142e-06
6.4082476e-06
7.0110033e-06
9.2236697e-06
1.7149875e-05
4.3213605e-05
0.00011129559
0.0002487951
0.00052976262
0.0013485457
5.7159095e-06
5.7174657e-06
5.7277834e-06
5.7780724e-06
5.9859581e-06
6.7693776e-06
9.5932706e-06
1.9436232e-05
4.9726067e-05
0.00012164394
0.00025751549
0.00053299526
0.0013486594
5.2782322e-06
5.2809984e-06
5.2965329e-06
5.3661281e-06
5.6414368e-06
6.6530083e-06
1.0234238e-05
2.228513e-05
5.6672016e-05
0.00013115952
0.00026474159
0.0005353945
0.0013489619
4.889296e-06
4.893728e-06
4.9161934e-06
5.0107595e-06
5.3718124e-06
6.6701645e-06
1.1177042e-05
2.5686553e-05
6.3825677e-05
0.00013974422
0.00027074337
0.00053721257
0.0013494179
4.5424222e-06
4.549097e-06
4.5806559e-06
4.707302e-06
5.1769356e-06
6.8337316e-06
1.2452335e-05
2.9597476e-05
7.0970789e-05
0.00014739148
0.0002757568
0.0005386328
0.0013500205
4.2321037e-06
4.2417515e-06
4.2851315e-06
4.4527719e-06
5.0593678e-06
7.1609028e-06
1.4086152e-05
3.394183e-05
7.7925113e-05
0.00015415333
0.00027997823
0.00053978641
0.0013507744
3.9537926e-06
3.9673375e-06
4.0259782e-06
4.2457763e-06
5.0244498e-06
7.6724685e-06
1.6094424e-05
3.8616919e-05
8.4553951e-05
0.00016011197
0.00028356674
0.00054076615
0.0013516866
3.7037376e-06
3.7223496e-06
3.8005873e-06
4.0864974e-06
5.0804009e-06
8.3914976e-06
1.8477844e-05
4.3504911e-05
9.077206e-05
0.00016536002
0.00028664926
0.00054163685
0.0013527623
3.4788613e-06
3.504022e-06
3.6073203e-06
3.9767408e-06
5.2383695e-06
9.3412707e-06
2.1218352e-05
4.8486363e-05
9.6537094e-05
0.00016998886
0.00028932618
0.00054244334
0.0013540034
3.2766694e-06
3.3102566e-06
3.4454921e-06
3.9200366e-06
5.512335e-06
1.0542478e-05
2.4278371e-05
5.3452376e-05
0.00010183911
0.00017408281
0.00029167656
0.00054321637
0.0013554084
3.0951868e-06
3.1395803e-06
3.315394e-06
3.9217755e-06
5.9187332e-06
1.2009945e-05
2.7603266e-05
5.8312862e-05
0.0001066899
0.00017771679
0.00029376257
0.00054397675
0.0013569728
2.9329181e-06
2.991133e-06
3.2183574e-06
3.9893517e-06
6.4756801e-06
1.3749403e-05
3.112658e-05
6.3000085e-05
0.00011111418
0.0001809559
0.00029563313
0.00054473837
0.0013586903
2.7888292e-06
2.8646819e-06
3.1568533e-06
4.132263e-06
7.2016968e-06
1.5755029e-05
3.4776808e-05
6.7468124e-05
0.00011514328
0.00018385585
0.00029732665
0.00054550992
0.0013605531
2.6623516e-06
2.7606642e-06
3.1346229e-06
4.3621021e-06
8.1139277e-06
1.8008404e-05
3.8484156e-05
7.1689805e-05
0.00011881108
0.00018646428
0.00029887505
0.00054629402
0.0013625491
2.5534088e-06
2.680258e-06
3.1568305e-06
4.6923498e-06
9.2259802e-06
2.0479255e-05
4.21859e-05
7.5652556e-05
0.00012215122
0.00018882083
0.00030030032
0.00054708344
0.001364665
2.4624667e-06
2.6254827e-06
3.2302147e-06
5.1378785e-06
1.0545685e-05
2.3127918e-05
4.5829653e-05
7.935444e-05
0.00012519597
0.00019095973
0.00030162122
0.00054787013
0.0013668874
2.3906118e-06
2.5993266e-06
3.3632046e-06
5.7140893e-06
1.2073207e-05
2.5908985e-05
4.9374528e-05
8.2800768e-05
0.00012797522
0.0001929092
0.00030285018
0.00054865288
0.0013692048
2.3396576e-06
2.6059009e-06
3.5659451e-06
6.4356568e-06
1.3799941e-05
2.877532e-05
5.2790669e-05
8.6001444e-05
0.00013051585
0.0001946916
0.00030399376
0.00054944273
0.0013716092
2.3122834e-06
2.6506068e-06
3.8501619e-06
7.3149535e-06
1.5708514e-05
3.1681693e-05
5.6057927e-05
8.8969442e-05
0.00013284315
0.00019632773
0.00030505437
0.00055025018
0.0013740956
2.312204e-06
2.7402971e-06
4.2287857e-06
8.3603385e-06
1.7773922e-05
3.4587409e-05
5.9163896e-05
9.1718486e-05
0.000134977
0.00019782951
0.00030604752
0.00055107622
0.0013766577
2.3443665e-06
2.8833944e-06
4.7152662e-06
9.574605e-06
1.996561e-05
3.7457896e-05
6.2102576e-05
9.4263948e-05
0.00013693775
0.00019920349
0.00030698675
0.00055192215
0.0013792894
2.4151613e-06
3.08991e-06
5.3225447e-06
1.0953905e-05
2.2249994e-05
4.0265061e-05
6.487208e-05
9.6618925e-05
0.00013873802
0.00020046565
0.00030788006
0.00055278756
0.0013819844
2.5326205e-06
3.3712893e-06
6.0617313e-06
1.2487422e-05
2.4593019e-05
4.2987258e-05
6.7474462e-05
9.8797813e-05
0.00014038632
0.00020163083
0.00030873382
0.00055367121
0.0013847362
2.7065546e-06
3.7399972e-06
6.9406294e-06
1.4157864e-05
2.6962173e-05
4.560817e-05
6.9912766e-05
0.00010081055
0.00014189658
0.00020271014
0.00030955281
0.00055457138
0.0013875385
2.9485502e-06
4.2087764e-06
7.9623508e-06
1.5942735e-05
2.9328092e-05
4.8116705e-05
7.2192973e-05
0.00010266311
0.00014328329
0.00020371267
0.00031034059
0.00055548596
0.0013903847
3.2717207e-06
4.7895537e-06
9.1242827e-06
1.7815987e-05
3.1665001e-05
5.0504533e-05
7.4318481e-05
0.00010436656
0.0001445581
0.0002046458
0.00031109971
0.0005564126
0.0013932687
3.6900858e-06
5.4920732e-06
1.0417684e-05
1.9750012e-05
3.39517e-05
5.2768184e-05
7.6289669e-05
0.00010593299
0.00014573089
0.00020551555
0.00031183197
0.00055734878
0.0013961839
4.2174848e-06
6.3224282e-06
1.1827952e-05
2.1717141e-05
3.6170246e-05
5.490116e-05
7.8113758e-05
0.00010737249
0.00014680994
0.00020632674
0.00031253851
0.00055829181
0.0013991244
4.8660261e-06
7.2817748e-06
1.3335594e-05
2.3691123e-05
3.8306688e-05
5.6898168e-05
7.9798305e-05
0.0001086939
0.00014780214
0.00020708321
0.00031321994
0.00055923891
0.0014020837
5.6442495e-06
8.3655568e-06
1.4917866e-05
2.5648781e-05
4.0344258e-05
5.8760207e-05
8.13501e-05
0.00010990478
0.00014871322
0.00020778792
0.00031387636
0.00056018713
0.0014050556
6.5553593e-06
9.5634601e-06
1.6550686e-05
2.7565321e-05
4.2272541e-05
6.0488808e-05
8.2775228e-05
0.00011101156
0.00014954783
0.00020844308
0.00031450745
0.00056113341
0.0014080338
7.5961534e-06
1.0860441e-05
1.8207369e-05
2.9419102e-05
4.408453e-05
6.2085814e-05
8.4079034e-05
0.0001120196
0.00015030969
0.00020905022
0.00031511249
0.00056207453
0.0014110119
8.7563152e-06
1.2235551e-05
1.9861232e-05
3.1193216e-05
4.5774965e-05
6.3553181e-05
8.5266112e-05
0.00011293328
0.00015100165
0.00020961023
0.00031569038
0.00056300711
0.0014139832
1.0017521e-05
1.3664334e-05
2.1488449e-05
3.2873859e-05
4.7340054e-05
6.4892867e-05
8.6340347e-05
0.00011375612
0.0001516258
0.00021012347
0.00031623966
0.00056392755
0.0014169405
1.13559e-05
1.5121211e-05
2.3068171e-05
3.4450178e-05
4.8777289e-05
6.6106812e-05
8.7304984e-05
0.00011449085
0.00015218355
0.00021058975
0.00031675852
0.00056483203
0.0014198766
1.2744264e-05
1.6581081e-05
2.4582902e-05
3.5914123e-05
5.0085355e-05
6.7196971e-05
8.8162738e-05
0.00011513953
0.00015267569
0.00021100843
0.00031724482
0.00056571653
0.0014227834
1.4154481e-05
1.8020637e-05
2.6018604e-05
3.7260265e-05
5.1264092e-05
6.8165414e-05
8.8915932e-05
0.0001157037
0.00015310253
0.00021137848
0.00031769616
0.00056657675
0.0014256524
1.555958e-05
1.9419301e-05
2.7364606e-05
3.8485598e-05
5.231449e-05
6.901445e-05
8.9566665e-05
0.0001161845
0.00015346401
0.00021169859
0.00031810989
0.00056740823
0.0014284744
1.6935338e-05
2.0759786e-05
2.8613378e-05
3.9589303e-05
5.323867e-05
6.9746757e-05
9.0116988e-05
0.00011658289
0.00015375983
0.00021196724
0.00031848324
0.00056820634
0.0014312396
1.8261268e-05
2.2028325e-05
2.9760206e-05
4.0572478e-05
5.4039842e-05
7.0365496e-05
9.0569078e-05
0.00011689975
0.00015398961
0.00021218284
0.00031881338
0.0005689664
0.0014339377
1.9521047e-05
2.3214635e-05
3.0802835e-05
4.1437841e-05
5.4722228e-05
7.0874392e-05
9.0925392e-05
0.00011713614
0.00015415307
0.0002123439
0.00031909759
0.0005696838
0.0014365579
2.0702514e-05
2.4311687e-05
3.1741085e-05
4.2189436e-05
5.5290937e-05
7.1277773e-05
9.1188791e-05
0.00011729337
0.00015425016
0.00021244916
0.00031933341
0.00057035412
0.0014390893
2.1797369e-05
2.5315352e-05
3.2576489e-05
4.2832332e-05
5.5751828e-05
7.1580559e-05
9.1362626e-05
0.00011737319
0.0001542812
0.00021249774
0.00031951874
0.00057097333
0.0014415208
2.2800692e-05
2.6223983e-05
3.3311941e-05
4.3372362e-05
5.6111337e-05
7.1788219e-05
9.1450778e-05
0.00011737787
0.00015424704
0.00021248927
0.00031965202
0.0005715379
0.0014438419
2.3710402e-05
2.7037977e-05
3.3951388e-05
4.3815874e-05
5.6376316e-05
7.1906692e-05
9.1457656e-05
0.00011731022
0.00015414911
0.00021242401
0.00031973234
0.00057204499
0.0014460427
2.45267e-05
2.775936e-05
3.4499554e-05
4.4169528e-05
5.6553869e-05
7.1942283e-05
9.1388169e-05
0.00011717368
0.00015398951
0.00021230291
0.00031975954
0.00057249257
0.001448114
2.5251561e-05
2.8391402e-05
3.4961706e-05
4.444013e-05
5.6651212e-05
7.1901559e-05
9.1247655e-05
0.00011697222
0.00015377099
0.00021212768
0.00031973427
0.00057287945
0.0014500481
2.5888277e-05
2.8938285e-05
3.5343455e-05
4.4634485e-05
5.6675545e-05
7.1791234e-05
9.1041802e-05
0.00011671034
0.00015349694
0.00021190076
0.00031965799
0.00057320541
0.0014518386
2.6441081e-05
2.9404816e-05
3.5650591e-05
4.4759302e-05
5.6633948e-05
7.1618067e-05
9.0776553e-05
0.00011639299
0.00015317136
0.00021162526
0.00031953294
0.00057347114
0.0014534809
2.6914833e-05
2.9796196e-05
3.5888957e-05
4.4821106e-05
5.6533304e-05
7.1388765e-05
9.0458012e-05
0.00011602548
0.00015279874
0.00021130497
0.00031936212
0.00057367824
0.0014549719
2.731477e-05
3.0117836e-05
3.6064344e-05
4.4826183e-05
5.6380236e-05
7.1109904e-05
9.0092342e-05
0.00011561335
0.00015238399
0.00021094419
0.00031914913
0.00057382908
0.0014563106
2.764631e-05
3.037521e-05
3.6182415e-05
4.4780537e-05
5.6181059e-05
7.0787857e-05
8.9685678e-05
0.00011516232
0.00015193234
0.00021054764
0.00031889812
0.00057392677
0.0014574976
2.7914911e-05
3.0573745e-05
3.6248644e-05
4.4689864e-05
5.5941754e-05
7.0428742e-05
8.9244048e-05
0.00011467816
0.0001514492
0.00021012034
0.00031861363
0.00057397498
0.0014585351
2.8125955e-05
3.071874e-05
3.6268274e-05
4.4559536e-05
5.5667947e-05
7.0038381e-05
8.87733e-05
0.00011416656
0.00015094006
0.00020966751
0.00031830045
0.00057397783
0.0014594269
2.8284674e-05
3.0815302e-05
3.6246294e-05
4.4394595e-05
5.5364899e-05
6.9622266e-05
8.8279043e-05
0.00011363314
0.00015041038
0.00020919438
0.0003179635
0.00057393972
0.0014601782
2.8396093e-05
3.0868313e-05
3.6187414e-05
4.4199747e-05
5.5037505e-05
6.9185541e-05
8.7766604e-05
0.00011308328
0.00014986552
0.00020870617
0.00031760771
0.00057386524
0.0014607953
2.8464992e-05
3.0882399e-05
3.6096061e-05
4.3979369e-05
5.4690294e-05
6.8732987e-05
8.7240985e-05
0.0001125221
0.00014931061
0.0002082079
0.0003172379
0.00057375899
0.0014612853
2.8495889e-05
3.0861916e-05
3.5976374e-05
4.3737514e-05
5.4327439e-05
6.8269017e-05
8.6706845e-05
0.00011195443
0.00014875054
0.00020770439
0.00031685868
0.00057362554
0.0014616562
2.8493022e-05
3.0810943e-05
3.5832203e-05
4.3477923e-05
5.3952765e-05
6.7797678e-05
8.6168473e-05
0.00011138475
0.00014818984
0.00020720013
0.00031647439
0.00057346929
0.0014619165
2.8460351e-05
3.073328e-05
3.5667117e-05
4.3204031e-05
5.3569758e-05
6.7322654e-05
8.562979e-05
0.00011081716
0.0001476327
0.00020669924
0.00031608905
0.00057329442
0.0014620748
2.8401556e-05
3.0632455e-05
3.5484411e-05
4.2918984e-05
5.3181586e-05
6.6847273e-05
8.5094337e-05
0.00011025537
0.00014708291
0.00020620548
0.00031570629
0.00057310484
0.0014621402
2.8320042e-05
3.0511725e-05
3.5287116e-05
4.2625648e-05
5.2791106e-05
6.6374523e-05
8.4565289e-05
0.00010970271
0.00014654385
0.00020572217
0.00031532933
0.00057290414
0.0014621215
2.8218951e-05
3.0374092e-05
3.5078007e-05
4.2326625e-05
5.2400885e-05
6.5907063e-05
8.4045453e-05
0.00010916211
0.0001460185
0.00020525221
0.000314961
0.00057269557
0.0014620273
2.8101172e-05
3.022231e-05
3.4859619e-05
4.2024269e-05
5.2013211e-05
6.5447239e-05
8.353729e-05
0.00010863613
0.00014550942
0.00020479808
0.00031460372
0.00057248205
0.0014618664
2.796935e-05
3.0058895e-05
3.4634255e-05
4.1720695e-05
5.1630114e-05
6.4997102e-05
8.3042925e-05
0.00010812694
0.00014501877
0.00020436186
0.00031425949
0.00057226614
0.0014616467
2.7825902e-05
2.9886143e-05
3.4404002e-05
4.1417794e-05
5.1253378e-05
6.4558423e-05
8.2564167e-05
0.00010763639
0.00014454834
0.00020394523
0.00031392995
0.00057205009
0.0014613761
2.7673027e-05
2.9706137e-05
3.4170742e-05
4.1117251e-05
5.088456e-05
6.4132716e-05
8.2102529e-05
0.00010716596
0.00014409957
0.00020354948
0.00031361637
0.00057183575
0.001461062
2.7512721e-05
2.952076e-05
3.3936164e-05
4.0820555e-05
5.0525006e-05
6.372125e-05
8.1659246e-05
0.00010671685
0.00014367354
0.00020317561
0.00031331979
0.0005716245
0.001460711
2.7346788e-05
2.9331712e-05
3.3701776e-05
4.0529011e-05
5.0175861e-05
6.3325073e-05
8.1235298e-05
0.00010628995
0.00014327104
0.00020282424
0.00031304071
0.00057141641
0.0014603285
2.7176855e-05
2.9140519e-05
3.3468921e-05
4.0243758e-05
4.9838093e-05
6.2945028e-05
8.0831431e-05
0.00010588593
0.00014289262
0.00020249589
0.00031277953
0.00057120928
0.0014599197
2.700438e-05
2.8948543e-05
3.3238781e-05
3.9965777e-05
4.9512499e-05
6.2581767e-05
8.0448179e-05
0.00010550517
0.00014253849
0.00020219043
0.00031253534
0.00057100469
0.0014594897
2.6830669e-05
2.8756996e-05
3.3012397e-05
3.9695902e-05
4.9199725e-05
6.2235779e-05
8.0085897e-05
0.00010514794
0.00014220886
0.00020190801
0.00031230612
0.00057080571
0.0014590438
2.6656885e-05
2.8566953e-05
3.2790673e-05
3.9434839e-05
4.8900279e-05
6.19074e-05
7.9744772e-05
0.00010481424
0.00014190343
0.00020164698
0.00031209275
0.00057061391
0.0014585869
2.6484055e-05
2.8379358e-05
3.2574393e-05
3.9183169e-05
4.8614542e-05
6.1596827e-05
7.9424819e-05
0.00010450389
0.00014162171
0.00020140638
0.00031189574
0.00057043043
0.0014581236
2.6313088e-05
2.8195037e-05
3.2364225e-05
3.8941366e-05
4.8342788e-05
6.1304149e-05
7.9125974e-05
0.00010421666
0.0001413622
0.0002011862
0.0003117152
0.00057025605
0.0014576578
2.6144778e-05
2.8014707e-05
3.2160733e-05
3.8709803e-05
4.8085189e-05
6.1029343e-05
7.8847989e-05
0.00010395153
0.00014112445
0.00020098612
0.00031155095
0.00057009124
0.001457193
2.5979818e-05
2.7838986e-05
3.1964391e-05
3.8488765e-05
4.7841825e-05
6.0772277e-05
7.8590336e-05
0.00010370764
0.00014090797
0.00020080564
0.00031140263
0.00056993627
0.0014567323
2.5818804e-05
2.7668401e-05
3.1775585e-05
3.8278457e-05
4.7612706e-05
6.0532705e-05
7.8352155e-05
0.00010348449
0.00014071215
0.00020064413
0.00031126976
0.00056979122
0.0014562783
2.5662251e-05
2.7503399e-05
3.1594633e-05
3.8079034e-05
4.7397757e-05
6.0309957e-05
7.8132961e-05
0.00010328147
0.00014053628
0.00020050084
0.00031115173
0.00056965604
0.0014558334
2.5510599e-05
2.7344361e-05
3.14218e-05
3.7890534e-05
4.7196574e-05
6.0103642e-05
7.7932206e-05
0.00010309788
0.00014037956
0.00020037496
0.00031104786
0.0005695306
0.0014553995
2.5364227e-05
2.7191604e-05
3.1257213e-05
3.771281e-05
4.7008898e-05
5.9913326e-05
7.774929e-05
0.00010293298
0.00014024113
0.0002002656
0.00031095741
0.00056941469
0.0014549782
2.5223416e-05
2.7045321e-05
3.1100915e-05
3.7545749e-05
4.6834438e-05
5.9738535e-05
7.7583567e-05
0.00010278597
0.0001401201
0.00020017186
0.00031087963
0.00056930803
0.0014545709
2.5088367e-05
2.6905646e-05
3.0952917e-05
3.7389203e-05
4.6672869e-05
5.9578762e-05
7.7434354e-05
0.00010265602
0.00014001553
0.00020009278
0.00031081372
0.00056921032
0.0014541786
2.495923e-05
2.6772669e-05
3.081319e-05
3.7242993e-05
4.6523836e-05
5.9433469e-05
7.730094e-05
0.00010254227
0.00013992648
0.00020002743
0.00031075891
0.00056912122
0.0014538023
2.483611e-05
2.6646438e-05
3.0681675e-05
3.7106907e-05
4.6386955e-05
5.9302092e-05
7.718259e-05
0.00010244385
0.00013985198
0.00019997486
0.00031071441
0.00056904037
0.0014534426
2.4719071e-05
2.6526967e-05
3.0558278e-05
3.6980709e-05
4.6261819e-05
5.9184046e-05
7.7078553e-05
0.00010235987
0.00013979108
0.00019993411
0.00031067943
0.00056896738
0.0014531
2.4608143e-05
2.6414235e-05
3.0442876e-05
3.6864136e-05
4.6148001e-05
5.9078732e-05
7.6988068e-05
0.00010228944
0.00013974281
0.00019990428
0.00031065322
0.00056890186
0.0014527749
2.4503321e-05
2.6308191e-05
3.0335323e-05
3.6756904e-05
4.6045055e-05
5.8985536e-05
7.6910367e-05
0.00010223168
0.00013970625
0.00019988446
0.00031063504
0.00056884342
0.0014524674
2.4404576e-05
2.620876e-05
3.0235447e-05
3.6658708e-05
4.5952523e-05
5.8903839e-05
7.6844686e-05
0.00010218571
0.00013968047
0.00019987377
0.00031062417
0.00056879165
0.0014521777
2.4311849e-05
2.611584e-05
3.0143054e-05
3.656923e-05
4.5869934e-05
5.8833016e-05
7.6790261e-05
0.00010215068
0.00013966458
0.00019987137
0.00031061993
0.00056874615
0.0014519057
2.422506e-05
2.6029307e-05
3.0057935e-05
3.6488135e-05
4.5796812e-05
5.8772443e-05
7.674634e-05
0.00010212574
0.00013965771
0.00019987646
0.00031062168
0.00056870655
0.0014516511
2.4144108e-05
2.5949021e-05
2.9979863e-05
3.6415079e-05
4.5732674e-05
5.8721498e-05
7.6712181e-05
0.00010211007
0.00013965903
0.00019988825
0.00031062879
0.00056867248
0.0014514138
2.4068872e-05
2.5874821e-05
2.9908597e-05
3.634971e-05
4.5677036e-05
5.8679566e-05
7.6687058e-05
0.00010210289
0.00013966774
0.00019990603
0.00031064068
0.00056864357
0.0014511934
2.3999218e-05
2.5806534e-05
2.9843885e-05
3.6291666e-05
4.5629414e-05
5.8646039e-05
7.6670265e-05
0.00010210341
0.00013968307
0.0001999291
0.00031065681
0.0005686195
0.0014509895
2.3934993e-05
2.5743974e-05
2.9785468e-05
3.6240585e-05
4.5589325e-05
5.8620321e-05
7.6661112e-05
0.00010211092
0.00013970429
0.00019995681
0.00031067667
0.00056859994
0.0014508016
2.3876034e-05
2.5686942e-05
2.9733075e-05
3.6196101e-05
4.5556293e-05
5.8601829e-05
7.6658934e-05
0.0001021247
0.00013973073
0.00019998854
0.00031069978
0.00056858456
0.0014506294
2.3822167e-05
2.5635231e-05
2.9686433e-05
3.6157844e-05
4.5529846e-05
5.8589994e-05
7.666309e-05
0.00010214408
0.00013976171
0.00020002372
0.00031072568
0.00056857305
0.0014504722
2.3773209e-05
2.5588627e-05
2.9645261e-05
3.6125451e-05
4.5509522e-05
5.8584262e-05
7.6672959e-05
0.00010216841
0.00013979663
0.00020006181
0.00031075394
0.00056856511
0.0014503296
2.3728967e-05
2.5546909e-05
2.960928e-05
3.6098557e-05
4.5494866e-05
5.8584097e-05
7.6687951e-05
0.00010219708
0.0001398349
0.00020010229
0.00031078418
0.00056856041
0.0014502011
2.3689246e-05
2.5509852e-05
2.9578206e-05
3.6076803e-05
4.5485436e-05
5.8588982e-05
7.6707499e-05
0.00010222953
0.00013987599
0.00020014471
0.000310816
0.00056855867
0.0014500859
2.3653841e-05
2.5477226e-05
2.9551756e-05
3.6059835e-05
4.5480801e-05
5.8598421e-05
7.6731064e-05
0.0001022652
0.00013991937
0.00020018862
0.00031084908
0.00056855958
0.0014499836
2.3622548e-05
2.54488e-05
2.9529651e-05
3.6047305e-05
4.5480543e-05
5.8611936e-05
7.6758136e-05
0.00010230358
0.00013996459
0.00020023363
0.00031088308
0.00056856287
0.0014498935
2.3595158e-05
2.5424345e-05
2.951161e-05
3.6038875e-05
4.548426e-05
5.8629072e-05
7.6788233e-05
0.0001023442
0.00014001121
0.00020027938
0.00031091774
0.00056856828
0.0014498148
2.3571462e-05
2.5403628e-05
2.9497362e-05
3.6034214e-05
4.5491565e-05
5.8649399e-05
7.6820902e-05
0.00010238662
0.00014005883
0.00020032552
0.00031095278
0.0005685756
0.001449747
2.355125e-05
2.538642e-05
2.9486635e-05
3.6033001e-05
4.5502085e-05
5.8672504e-05
7.6855718e-05
0.00010243043
0.00014010708
0.00020037177
0.00031098799
0.00056858463
0.0014496893
2.3534315e-05
2.5372494e-05
2.9479166e-05
3.6034927e-05
4.5515466e-05
5.8698003e-05
7.6892286e-05
0.00010247525
0.00014015564
0.00020041787
0.00031102317
0.00056859518
0.001449641
2.3520449e-05
2.5361627e-05
2.94747e-05
3.6039694e-05
4.5531371e-05
5.872553e-05
7.6930236e-05
0.00010252074
0.00014020421
0.00020046356
0.00031105813
0.00056860708
0.0014496016
2.3509448e-05
2.5353599e-05
2.9472984e-05
3.6047014e-05
4.5549477e-05
5.8754743e-05
7.6969227e-05
0.00010256657
0.00014025251
0.00020050864
0.00031109272
0.00056862018
0.0014495704
2.3501111e-05
2.5348194e-05
2.9473778e-05
3.6056612e-05
4.556948e-05
5.8785322e-05
7.7008942e-05
0.00010261245
0.00014030029
0.00020055292
0.00031112678
0.0005686343
0.0014495469
2.3495241e-05
2.5345204e-05
2.9476847e-05
3.6068226e-05
4.5591095e-05
5.8816968e-05
7.704909e-05
0.00010265813
0.00014034734
0.00020059623
0.00031116017
0.00056864927
0.0014495306
2.3491645e-05
2.5344423e-05
2.9481966e-05
3.6081605e-05
4.5614049e-05
5.8849404e-05
7.7089401e-05
0.00010270336
0.00014039346
0.0002006384
0.00031119276
0.00056866492
0.0014495209
2.3490136e-05
2.5345655e-05
2.9488917e-05
3.6096511e-05
4.563809e-05
5.8882371e-05
7.7129633e-05
0.00010274793
0.00014043847
0.0002006793
0.00031122444
0.00056868108
0.0014495174
2.349053e-05
2.5348707e-05
2.9497494e-05
3.611272e-05
4.566298e-05
5.8915633e-05
7.7169562e-05
0.00010279163
0.00014048222
0.00020071881
0.0003112551
0.00056869757
0.0014495195
2.3492651e-05
2.5353397e-05
2.95075e-05
3.6130021e-05
4.5688501e-05
5.8948974e-05
7.7208989e-05
0.00010283432
0.00014052458
0.00020075685
0.00031128464
0.00056871424
0.0014495266
2.3496331e-05
2.5359548e-05
2.9518746e-05
3.6148214e-05
4.5714448e-05
5.8982196e-05
7.7247737e-05
0.00010287582
0.00014056543
0.00020079332
0.00031131302
0.00056873098
0.0014495382
2.3501406e-05
2.5366991e-05
2.9531056e-05
3.6167114e-05
4.5740636e-05
5.9015121e-05
7.7285648e-05
0.00010291603
0.00014060468
0.00020082817
0.00031134018
0.00056874768
0.0014495538
2.350772e-05
2.5375568e-05
2.9544263e-05
3.6186551e-05
4.5766894e-05
5.9047592e-05
7.7322588e-05
0.00010295484
0.00014064227
0.00020086137
0.00031136609
0.00056876427
0.0014495729
2.3515124e-05
2.5385125e-05
2.955821e-05
3.6206364e-05
4.5793067e-05
5.9079466e-05
7.7358437e-05
0.00010299216
0.00014067815
0.00020089289
0.00031139073
0.00056878071
0.001449595
2.3523479e-05
2.5395521e-05
2.9572751e-05
3.6226408e-05
4.5819015e-05
5.911062e-05
7.7393096e-05
0.00010302791
0.00014071227
0.00020092271
0.00031141412
0.00056879696
0.0014496196
2.3532649e-05
2.5406619e-05
2.958775e-05
3.6246549e-05
4.5844613e-05
5.9140944e-05
7.7426481e-05
0.00010306206
0.00014074461
0.00020095083
0.00031143624
0.00056881293
0.0014496463
2.354251e-05
2.5418294e-05
2.960308e-05
3.6266663e-05
4.5869748e-05
5.9170345e-05
7.7458522e-05
0.00010309455
0.00014077516
0.00020097727
0.0003114571
0.00056882851
0.0014496749
2.3552943e-05
2.5430426e-05
2.9618624e-05
3.6286639e-05
4.5894321e-05
5.919874e-05
7.7489163e-05
0.00010312535
0.00014080392
0.00020100203
0.00031147669
0.00056884341
0.0014497049
2.3563836e-05
2.5442906e-05
2.9634274e-05
3.6306376e-05
4.5918243e-05
5.9226062e-05
7.751836e-05
0.00010315446
0.00014083088
0.00020102512
0.00031149495
0.00056885757
0.0014497361
2.3575085e-05
2.545563e-05
2.9649932e-05
3.6325784e-05
4.5941439e-05
5.9252254e-05
7.754608e-05
0.00010318185
0.00014085607
0.00020104657
0.00031151174
0.00056887111
0.0014497683
2.3586595e-05
2.5468504e-05
2.9665508e-05
3.6344783e-05
4.5963841e-05
5.927727e-05
7.7572302e-05
0.00010320754
0.0001408795
0.00020106633
0.0003115271
0.00056888403
0.0014498012
2.3598276e-05
2.5481441e-05
2.968092e-05
3.6363301e-05
4.5985397e-05
5.9301078e-05
7.7597017e-05
0.00010323154
0.00014090119
0.00020108436
0.00031154113
0.00056889635
0.0014498346
2.3610045e-05
2.5494361e-05
2.9696095e-05
3.6381276e-05
4.600606e-05
5.9323653e-05
7.7620224e-05
0.00010325386
0.00014092113
0.00020110074
0.00031155389
0.00056890803
0.0014498684
2.3621828e-05
2.5507193e-05
2.971097e-05
3.6398658e-05
4.6025797e-05
5.9344983e-05
7.7641932e-05
0.00010327453
0.00014093932
0.00020111555
0.00031156545
0.0005689191
0.0014499021
2.3633557e-05
2.5519872e-05
2.9725487e-05
3.6415402e-05
4.6044583e-05
5.9365066e-05
7.7662164e-05
0.00010329353
0.00014095585
0.00020112887
0.00031157588
0.00056892955
0.0014499357
2.3645171e-05
2.553234e-05
2.9739598e-05
3.6431475e-05
4.6062402e-05
5.9383907e-05
7.7680908e-05
0.00010331091
0.00014097078
0.00020114079
0.00031158524
0.00056893942
0.0014499687
2.3656615e-05
2.5544548e-05
2.9753261e-05
3.6446849e-05
4.6079248e-05
5.9401503e-05
7.7698184e-05
0.00010332673
0.0001409842
0.00020115138
0.00031159361
0.00056894875
0.0014500012
2.366784e-05
2.555645e-05
2.9766444e-05
3.6461506e-05
4.6095109e-05
5.9417852e-05
7.7714034e-05
0.00010334105
0.00014099618
0.00020116073
0.00031160105
0.00056895757
0.0014500328
2.3678805e-05
2.556801e-05
2.9779118e-05
3.6475426e-05
4.6109975e-05
5.9432978e-05
7.7728506e-05
0.00010335394
0.0001410068
0.00020116891
0.00031160765
0.00056896595
0.0014500635
2.3689472e-05
2.5579196e-05
2.9791256e-05
3.6488591e-05
4.6123851e-05
5.944691e-05
7.7741648e-05
0.00010336546
0.00014101613
0.00020117601
0.00031161346
0.00056897391
0.0014500933
2.3699808e-05
2.5589976e-05
2.9802834e-05
3.6500993e-05
4.6136748e-05
5.9459678e-05
7.775351e-05
0.00010337569
0.00014102425
0.00020118208
0.00031161853
0.00056898147
0.0014501222
2.3709783e-05
2.5600322e-05
2.9813835e-05
3.6512629e-05
4.6148683e-05
5.9471317e-05
7.7764146e-05
0.00010338468
0.00014103123
0.00020118719
0.00031162289
0.00056898861
0.0014501502
2.3719369e-05
2.5610214e-05
2.9824247e-05
3.6523502e-05
4.6159673e-05
5.9481865e-05
7.7773607e-05
0.0001033925
0.00014103713
0.0002011914
0.00031162657
0.00056899531
0.0014501774
2.3728546e-05
2.5619633e-05
2.9834061e-05
3.6533616e-05
4.6169742e-05
5.949136e-05
7.7781946e-05
0.00010339921
0.000141042
0.00020119474
0.00031162959
0.0005690015
0.0014502037
2.3737297e-05
2.5628569e-05
2.9843276e-05
3.6542983e-05
4.6178915e-05
5.9499844e-05
7.7789217e-05
0.00010340486
0.00014104592
0.00020119727
0.00031163196
0.00056900715
0.0014502292
2.374561e-05
2.5637012e-05
2.9851892e-05
3.6551616e-05
4.6187222e-05
5.950736e-05
7.7795475e-05
0.00010340953
0.00014104893
0.00020119903
0.0003116337
0.00056901219
0.0014502537
2.3753476e-05
2.5644958e-05
2.9859913e-05
3.6559533e-05
4.6194694e-05
5.9513953e-05
7.7800776e-05
0.00010341326
0.00014105111
0.00020120008
0.00031163484
0.0005690166
0.0014502771
2.3760892e-05
2.5652408e-05
2.9867349e-05
3.6566755e-05
4.6201365e-05
5.9519673e-05
7.7805179e-05
0.00010341614
0.0001410525
0.00020120047
0.00031163541
0.00056902039
0.0014502993
2.3767857e-05
2.5659365e-05
2.9874212e-05
3.6573306e-05
4.6207274e-05
5.9524569e-05
7.7808745e-05
0.00010341821
0.00014105319
0.00020120027
0.00031163548
0.00056902359
0.00145032
2.3774373e-05
2.5665837e-05
2.9880517e-05
3.6579212e-05
4.621246e-05
5.9528693e-05
7.7811536e-05
0.00010341956
0.00014105324
0.00020119954
0.00031163512