/*--------------------------------*- C++ -*----------------------------------*\
| =========                 |                                                 |
| \\      /  F ield         | OpenFOAM: The Open Source CFD Toolbox           |
|  \\    /   O peration     | Version:  2506                                  |
|   \\  /    A nd           | Website:  www.openfoam.com                      |
|    \\/     M anipulation  |                                                 |
\*---------------------------------------------------------------------------*/
FoamFile
{
    version     2.0;
    format      ascii;
    arch        "LSB;label=32;scalar=64";
    class       volScalarField;
    location    "28000/water";
    object      k;
}
// * * * * * * * * * * * * * * * * * * * * * * * * * * * * * * * * * * * * * //

dimensions      [0 2 -2 0 0 0 0];

internalField   nonuniform List<scalar> 
2600
(
0.0001992401
0.00019923925
0.00019923929
0.00019923963
0.00019923982
0.00019923914
0.00019923438
0.00019921375
0.00019914651
0.00019904325
0.00019990841
0.00021454267
0.00040955349
0.00017237279
0.00017237614
0.00017237826
0.00017238051
0.0001723821
0.00017237949
0.00017235884
0.00017227555
0.000172027
0.00017162102
0.00017329371
0.00020304806
0.00052391648
0.00015132731
0.00015133049
0.00015133306
0.00015133552
0.00015133516
0.00015132207
0.00015126283
0.00015106462
0.00015055477
0.00014985944
0.0001528957
0.00019760629
0.00057958156
0.00013448336
0.00013448533
0.00013448764
0.00013448905
0.00013448325
0.00013445009
0.00013432997
0.00013398205
0.00013321503
0.00013247936
0.00013787909
0.00019702317
0.00059640815
0.00012075551
0.00012075697
0.00012075853
0.00012075718
0.00012074152
0.0001206782
0.00012048052
0.00011997843
0.0001190486
0.00011870929
0.00012776334
0.00020116854
0.00059206885
0.0001093899
0.00010939088
0.000109391
0.00010938492
0.00010935483
0.00010925313
0.00010897207
0.00010834649
0.00010742643
0.0001080609
0.00012226457
0.00021023394
0.00057809221
9.984982e-05
9.9850093e-05
9.9847944e-05
9.9835056e-05
9.9786463e-05
9.9641865e-05
9.9284958e-05
9.859999e-05
9.7925044e-05
0.00010022517
0.00012123091
0.00022425603
0.00056106272
9.1744874e-05
9.174416e-05
9.1738826e-05
9.1717148e-05
9.1647174e-05
9.1460104e-05
9.1049018e-05
9.0398665e-05
9.0258419e-05
9.5030413e-05
0.00012461431
0.00024286356
0.00054449405
8.4785472e-05
8.4783454e-05
8.4774018e-05
8.4741918e-05
8.4649457e-05
8.4426122e-05
8.3996574e-05
8.3502376e-05
8.4241543e-05
9.2421343e-05
0.00013239492
0.00026511347
0.00053012765
7.8752977e-05
7.8749319e-05
7.8734951e-05
7.8691403e-05
7.8577619e-05
7.8330528e-05
7.7932172e-05
7.7743318e-05
7.9771153e-05
9.2438123e-05
0.00014444361
0.00028951151
0.0005186607
7.3479682e-05
7.3474066e-05
7.3454131e-05
7.3398964e-05
7.3267704e-05
7.3016085e-05
7.2712929e-05
7.3009357e-05
7.6815021e-05
9.5182833e-05
0.00016036324
0.00031428525
0.00051014247
6.8835097e-05
6.8827266e-05
6.8801436e-05
6.8735571e-05
6.8593744e-05
6.836405e-05
6.8235745e-05
6.9234209e-05
7.5403716e-05
0.00010076472
0.00017939076
0.00033780739
0.0005042266
6.4716374e-05
6.4706175e-05
6.4674551e-05
6.4600233e-05
6.4458202e-05
6.4284863e-05
6.4429045e-05
6.6391811e-05
7.5619872e-05
0.0001092241
0.00020043528
0.00035894529
0.00050037283
6.1041501e-05
6.1028932e-05
6.0992164e-05
6.091321e-05
6.0785257e-05
6.0711783e-05
6.1247563e-05
6.4493003e-05
7.7580807e-05
0.00012045028
0.00022225715
0.00037717552
0.0004980107
5.7744396e-05
5.7729653e-05
5.7689074e-05
5.7611142e-05
5.751606e-05
5.7596592e-05
5.8669223e-05
6.3582872e-05
8.1411587e-05
0.00013412437
0.00024370832
0.00039247762
0.00049664628
5.4771313e-05
5.4754847e-05
5.4712615e-05
5.4643526e-05
5.4605384e-05
5.4906753e-05
5.6693486e-05
6.3736861e-05
8.7208043e-05
0.00014971788
0.00026392364
0.00040513366
0.00049590625
5.2078186e-05
5.206076e-05
5.2020025e-05
5.1970154e-05
5.2019282e-05
5.2623661e-05
5.5340605e-05
6.5053658e-05
9.4994185e-05
0.00016655656
0.0002823955
0.00041554871
0.00049553614
4.9628636e-05
4.9611393e-05
4.9576492e-05
4.9559258e-05
4.9733503e-05
5.0741692e-05
5.4651195e-05
6.7643172e-05
0.00010468473
0.00018392817
0.00029893687
0.00042413794
0.00049537652
4.7392458e-05
4.7377004e-05
4.7353699e-05
4.7386176e-05
4.773248e-05
4.9267886e-05
5.4685329e-05
7.1608743e-05
0.00011606686
0.00020119288
0.00031358495
0.0004312733
0.0004953351
4.5344476e-05
4.5332971e-05
4.5328746e-05
4.5432431e-05
4.600877e-05
4.8222045e-05
5.5520138e-05
7.7024462e-05
0.0001288111
0.00021785898
0.00032650009
0.00043726613
0.00049536294
4.3463657e-05
4.3458933e-05
4.3483358e-05
4.3685127e-05
4.4562868e-05
4.7637066e-05
5.7244888e-05
8.3911106e-05
0.00014251076
0.00023360813
0.00033789056
0.00044236711
0.00049543702
4.1732429e-05
4.173814e-05
4.1803329e-05
4.2136614e-05
4.3403329e-05
4.7559127e-05
5.9952699e-05
9.2216774e-05
0.00015673762
0.00024827797
0.00034796834
0.00044677301
0.00049554866
4.0136167e-05
4.015697e-05
4.0278148e-05
4.0784372e-05
4.2547129e-05
4.8047288e-05
6.3728701e-05
0.00010180889
0.00017109624
0.00026182259
0.0003569282
0.00045063571
0.00049569617
3.8662802e-05
3.8704582e-05
3.8900797e-05
3.9631107e-05
4.2020194e-05
4.9171841e-05
6.8635431e-05
0.00011248166
0.0001852623
0.00027427018
0.00036494028
0.00045407114
0.00049588069
3.7302531e-05
3.7372692e-05
3.7667676e-05
3.8685008e-05
4.1857944e-05
5.1010816e-05
7.4697746e-05
0.00012397797
0.00019899861
0.00028568912
0.00037214923
0.00045716736
0.00049610392
3.6047628e-05
3.6155447e-05
3.6578682e-05
3.7960181e-05
4.2105652e-05
5.3644137e-05
8.1890766e-05
0.00013601988
0.00021215193
0.00029616533
0.00037867608
0.00045999117
0.00049636709
3.4892327e-05
3.5049398e-05
3.5637397e-05
3.74772e-05
4.2818254e-05
5.7145344e-05
9.0134488e-05
0.00014833914
0.00022463802
0.00030578893
0.00038462123
0.0004625934
0.00049667064
3.383279e-05
3.4053569e-05
3.4851411e-05
3.7263736e-05
4.4059203e-05
6.1571461e-05
9.929738e-05
0.00016070076
0.00023642316
0.00031464713
0.00039006764
0.00046501299
0.00049701416
3.2867148e-05
3.316962e-05
3.4232754e-05
3.7355161e-05
4.5897909e-05
6.695245e-05
0.00010920861
0.00017291579
0.00024750737
0.00032282077
0.00039508379
0.00046727996
0.00049739654
3.1995627e-05
3.2402111e-05
3.3798454e-05
3.7794961e-05
4.8405426e-05
7.3282435e-05
0.00011967597
0.00018484396
0.00025791153
0.00033038288
0.00039972633
0.00046941774
0.00049781615
3.1220754e-05
3.1758868e-05
3.3571165e-05
3.8634688e-05
5.1648298e-05
8.0515032e-05
0.00013050501
0.00019638896
0.00026766839
0.00033739835
0.00040404224
0.00047144508
0.00049827105
3.0547674e-05
3.1251458e-05
3.3579859e-05
3.9933127e-05
5.5680953e-05
8.856441e-05
0.00014151526
0.0002074904
0.00027681664
0.00034392426
0.00040806987
0.00047336165
0.00049875826
2.9984563e-05
3.0895778e-05
3.3860461e-05
4.1754322e-05
6.0537581e-05
9.7312148e-05
0.00015255088
0.00021811501
0.00028539698
0.00035000997
0.00041183982
0.00047517683
0.00049927448
2.9543172e-05
3.071274e-05
3.4456303e-05
4.4164149e-05
6.6225003e-05
0.00010661843
0.00016348529
0.00022824914
0.00029345001
0.00035569878
0.00041537498
0.00047690098
0.00049981638
2.9239498e-05
3.072904e-05
3.5418148e-05
4.7225363e-05
7.2718213e-05
0.00011633497
0.00017422101
0.00023789273
0.00030101459
0.00036102772
0.000418694
0.00047854312
0.00050038114
2.9094595e-05
3.0977952e-05
3.6803502e-05
5.0991333e-05
7.9959881e-05
0.00012631696
0.00018468652
0.00024705469
0.00030812684
0.00036602758
0.00042181619
0.00048011509
0.00050096676
2.9135496e-05
3.1500047e-05
3.867486e-05
5.5499188e-05
8.7864163e-05
0.00013643209
0.00019483195
0.00025575014
0.00031482083
0.00037072328
0.00042475508
0.00048162854
0.000501572
2.9396232e-05
3.234367e-05
4.1096632e-05
6.0763504e-05
9.6324072e-05
0.00014656574
0.00020462431
0.0002639967
0.00032112526
0.00037513787
0.00042753007
0.00048308916
0.00050219529
2.9918842e-05
3.356491e-05
4.4130586e-05
6.6771885e-05
0.00010522079
0.00015662302
0.00021404417
0.00027181504
0.00032706606
0.00037928746
0.00043015897
0.00048450265
0.00050283511
3.0754243e-05
3.5226726e-05
4.7830034e-05
7.3483555e-05
0.00011443287
0.00016652783
0.00022308101
0.00027922363
0.00033266467
0.00038319522
0.00043265449
0.00048587307
0.00050348988
3.1962697e-05
3.7396844e-05
5.2233351e-05
8.0831458e-05
0.00012384408
0.00017622136
0.00023173237
0.00028624169
0.00033793722
0.00038688252
0.00043502773
0.00048720352
0.00050415803
3.3613508e-05
4.0144095e-05
5.7357854e-05
8.8727399e-05
0.00013334837
0.00018565851
0.00023999855
0.00029288457
0.00034290599
0.00039036649
0.00043728791
0.00048849634
0.00050483797
3.5783414e-05
4.3533081e-05
6.3195319e-05
9.706924e-05
0.00014285307
0.00019480683
0.00024788469
0.00029916231
0.0003475933
0.00039366187
0.00043944269
0.00048975325
0.00050552812
3.8553078e-05
4.7617446e-05
6.971013e-05
0.00010574828
0.00015227866
0.00020364079
0.0002553933
0.00030509328
0.00035201759
0.00039678117
0.00044149842
0.00049097545
0.00050622692
4.200117e-05
5.243258e-05
7.6840737e-05
0.00011465643
0.00016156002
0.00021214495
0.00026252194
0.00031069683
0.000356195
0.00039973504
0.0004434603
0.00049216367
0.00050693283
4.619594e-05
5.7988984e-05
8.4503835e-05
0.00012369062
0.00017064179
0.00022029902
0.00026928195
0.00031598929
0.00036013925
0.00040253238
0.00044533252
0.00049331827
0.00050764432
5.1185042e-05
6.4267735e-05
9.2600657e-05
0.00013275651
0.0001794794
0.0002280859
0.00027568471
0.00032098503
0.00036386202
0.00040518056
0.00044711836
0.00049443921
0.00050835989
5.6985387e-05
7.1219316e-05
0.00010102459
0.00014177167
0.00018802209
0.00023550304
0.00028174031
0.0003256963
0.00036737304
0.00040768556
0.00044882026
0.00049552615
0.000509078
6.3575507e-05
7.8766106e-05
0.00010966809
0.00015065103
0.00019623702
0.00024254865
0.00028745746
0.00033013331
0.00037068023
0.00041005205
0.00045043988
0.00049657837
0.00050979713
7.0893515e-05
8.6809051e-05
0.00011841802
0.00015932165
0.00020409991
0.00024922139
0.00029284336
0.00033430427
0.00037378984
0.00041228348
0.00045197812
0.00049759484
0.00051051571
7.8838294e-05
9.5225402e-05
0.00012716549
0.0001677259
0.00021159053
0.00025552
0.00029790358
0.00033821555
0.00037670648
0.00041438214
0.00045343518
0.00049857418
0.00051123214
8.7271778e-05
0.00010388141
0.00013581419
0.00017581508
0.00021869193
0.00026144298
0.00030264215
0.00034187168
0.00037943325
0.00041634919
0.00045481055
0.0004995147
0.00051194472
9.603622e-05
0.00011264292
0.00014427887
0.00018354852
0.00022539
0.00026698863
0.00030706161
0.00034527556
0.00038197182
0.00041818478
0.00045610304
0.00050041432
0.00051265169
0.00010496814
0.00012138221
0.0001524859
0.00019089302
0.00023167335
0.00027215517
0.00031116333
0.00034842866
0.00038432261
0.00041988808
0.00045731083
0.00050127064
0.00051335113
0.00011391062
0.00012998325
0.00016037327
0.00019782237
0.00023753334
0.00027694109
0.00031494782
0.00035133129
0.00038648498
0.00042145744
0.00045843154
0.00050208095
0.000514041
0.00012272251
0.0001383452
0.00016789036
0.00020431696
0.00024296425
0.00028134553
0.00031841516
0.00035398296
0.00038845746
0.00042289052
0.00045946232
0.00050284227
0.00051471912
0.00013128391
0.00014638431
0.00017499756
0.00021036347
0.00024796342
0.00028536876
0.00032156551
0.00035638279
0.00039023808
0.00042418455
0.00046039997
0.0005035514
0.00051538316
0.00013949845
0.00015403431
0.00018166561
0.00021595444
0.00025253143
0.00028901262
0.0003243996
0.00035852996
0.00039182472
0.00042533657
0.00046124117
0.00050420509
0.00051603067
0.00014729307
0.00016124586
0.00018787485
0.00022108784
0.00025667213
0.00029228086
0.00032691921
0.00036042415
0.00039321548
0.00042634369
0.00046198263
0.0005048001
0.0005166591
0.00015461614
0.00016798502
0.00019361431
0.0002257666
0.00026039251
0.00029517938
0.00032912753
0.00036206601
0.00039440908
0.00042720348
0.00046262138
0.0005053334
0.00051726585
0.0001614347
0.00017423147
0.00019888063
0.00022999798
0.0002637026
0.00029771635
0.00033102951
0.00036345746
0.00039540521
0.00042791421
0.00046315498
0.00050580232
0.00051784835
0.00016773143
0.00017997643
0.00020367705
0.00023379305
0.00026661511
0.0002999022
0.00033263199
0.00036460199
0.00039620483
0.00042847516
0.00046358175
0.00050620472
0.0005184041
0.00017350167
0.00018522059
0.00020801228
0.00023716601
0.0002691451
0.00030174949
0.0003339438
0.00036550487
0.00039681041
0.00042888686
0.000463901
0.00050653911
0.00051893074
0.00017875061
0.00018997217
0.00021189951
0.00024013366
0.00027130964
0.00030327272
0.00033497569
0.0003661732
0.00039722606
0.00042915125
0.00046411316
0.00050680481
0.00051942617
0.00018349098
0.00019424526
0.00021535542
0.0002427148
0.00027312735
0.00030448801
0.00033574018
0.00036661586
0.00039745759
0.00042927176
0.00046421989
0.000507002
0.00051988856
0.00018774098
0.00019805829
0.00021839935
0.00024492974
0.00027461802
0.00030541288
0.00033625141
0.00036684346
0.00039751248
0.00042925336
0.00046422413
0.0005071318
0.00052031645
0.00019152274
0.00020143279
0.00022105256
0.0002467998
0.00027580229
0.00030606582
0.00033652479
0.00036686812
0.00039739979
0.00042910246
0.00046413005
0.00050719619
0.00052070875
0.00019486094
0.00020439238
0.00022333756
0.00024834695
0.00027670127
0.00030646608
0.00033657683
0.00036670323
0.00039712995
0.00042882683
0.00046394296
0.00050719805
0.0005210648
0.00019778184
0.00020696197
0.00022527761
0.00024959345
0.00027733626
0.00030663329
0.00033642475
0.00036636323
0.00039671457
0.00042843538
0.00046366922
0.000507141
0.00052138437
0.00020031247
0.00020916708
0.00022689626
0.00025056155
0.00027772851
0.00030658726
0.00033608626
0.00036586331
0.00039616617
0.00042793801
0.00046331603
0.00050702932
0.00052166763
0.00020248004
0.00021103336
0.00022821704
0.00025127326
0.00027789897
0.00030634767
0.00033557925
0.00036521914
0.00039549795
0.0004273453
0.00046289128
0.00050686782
0.00052191516
0.00020431147
0.00021258617
0.00022926312
0.00025175014
0.00027786813
0.00030593391
0.00033492157
0.00036444657
0.00039472348
0.00042666835
0.00046240329
0.00050666169
0.00052212789
0.00020583311
0.00021385036
0.00023005714
0.00025201314
0.0002776559
0.00030536488
0.00033413081
0.00036356147
0.00039385651
0.00042591847
0.00046186066
0.00050641636
0.00052230706
0.00020707044
0.00021484998
0.00023062103
0.0002520825
0.00027728142
0.00030465886
0.0003332241
0.00036257941
0.00039291069
0.00042510702
0.00046127207
0.00050613734
0.0005224542
0.00020804799
0.00021560818
0.00023097589
0.00025197763
0.00027676306
0.00030383336
0.00033221796
0.00036151554
0.00039189938
0.00042424516
0.00046064609
0.00050583012
0.00052257103
0.00020878912
0.0002161471
0.00023114189
0.00025171705
0.00027611825
0.00030290505
0.00033112819
0.00036038443
0.00039083549
0.00042334373
0.00045999103
0.00050550008
0.00052265946
0.00020931605
0.00021648776
0.00023113821
0.00025131835
0.00027536353
0.00030188972
0.00032996972
0.0003591999
0.0003897313
0.00042241306
0.00045931482
0.00050515234
0.0005227215
0.00020964978
0.00021665007
0.00023098303
0.00025079813
0.00027451446
0.00030080217
0.00032875662
0.00035797497
0.00038859842
0.00042146286
0.00045862494
0.00050479173
0.00052275925
0.00020981007
0.0002166528
0.00023069348
0.00025017203
0.00027358559
0.00029965623
0.00032750199
0.00035672176
0.00038744761
0.00042050218
0.00045792828
0.00050442274
0.00052277483
0.00020981548
0.00021651357
0.00023028563
0.00024945468
0.00027259053
0.00029846474
0.00032621793
0.00035545146
0.00038628881
0.00041953929
0.00045723115
0.00050404946
0.00052277036
0.00020968335
0.00021624885
0.00022977454
0.00024865972
0.00027154187
0.00029723955
0.00032491558
0.00035417431
0.00038513104
0.00041858169
0.0004565392
0.00050367556
0.00052274793
0.00020942985
0.00021587403
0.00022917422
0.00024779985
0.00027045124
0.00029599151
0.00032360507
0.00035289957
0.00038398244
0.00041763607
0.00045585747
0.00050330431
0.00052270956
0.00020907001
0.00021540339
0.00022849769
0.00024688679
0.00026932936
0.00029473053
0.00032229558
0.00035163557
0.00038285023
0.00041670832
0.00045519032
0.00050293857
0.00052265719
0.00020861778
0.00021485019
0.00022775702
0.00024593135
0.000268186
0.00029346557
0.00032099533
0.00035038968
0.00038174078
0.00041580356
0.00045454151
0.00050258077
0.00052259269
0.00020808602
0.00021422666
0.00022696333
0.00024494346
0.00026703006
0.00029220471
0.00031971163
0.0003491684
0.00038065958
0.00041492615
0.00045391419
0.00050223296
0.00052251781
0.00020748662
0.00021354409
0.00022612683
0.0002439322
0.0002658696
0.00029095516
0.00031845095
0.00034797736
0.00037961133
0.00041407971
0.00045331084
0.00050189538
0.0005224341
0.00020683051
0.00021281284
0.00022525688
0.0002429058
0.00026471187
0.00028972333
0.00031721888
0.00034682137
0.00037859992
0.00041326713
0.00045273318
0.00050156776
0.00052234291
0.00020612768
0.00021204241
0.00022436204
0.00024187176
0.00026356336
0.00028851484
0.00031602028
0.00034570447
0.00037762856
0.00041249068
0.0004521816
0.00050125097
0.00052224542
0.00020538731
0.00021124145
0.00022345006
0.0002408368
0.00026242984
0.00028733459
0.00031485926
0.00034462998
0.0003766997
0.0004117518
0.00045165673
0.00050094653
0.00052214286
0.00020461773
0.00021041786
0.00022252799
0.00023980698
0.00026131637
0.00028618681
0.00031373926
0.00034360062
0.00037581527
0.00041105095
0.0004511588
0.00050065636
0.0005220365
0.00020382651
0.00020957877
0.00022160215
0.00023878766
0.00026022742
0.0002850751
0.00031266311
0.00034261838
0.00037497622
0.00041038838
0.00045068902
0.00050038147
0.00052192752
0.00020302053
0.00020873065
0.00022067824
0.00023778362
0.00025916683
0.00028400246
0.000311633
0.00034168468
0.000374183
0.00040976435
0.00045024823
0.00050012258
0.00052181699
0.00020220599
0.0002078793
0.00021976134
0.00023679906
0.00025813792
0.00028297138
0.00031065064
0.00034080024
0.00037343536
0.00040917951
0.00044983683
0.0004998801
0.00052170585
0.00020138843
0.00020702992
0.00021885595
0.00023583764
0.00025714347
0.00028198379
0.00030971707
0.00033996502
0.00037273365
0.00040863403
0.00044945485
0.0004996542
0.00052159494
0.00020057286
0.00020618716
0.00021796607
0.00023490253
0.00025618579
0.00028104112
0.00030883271
0.000339179
0.00037207794
0.00040812772
0.00044910202
0.00049944482
0.00052148499
0.0001997637
0.00020535513
0.00021709516
0.00023399642
0.00025526673
0.0002801443
0.00030799743
0.00033844226
0.00037146797
0.00040766008
0.00044877786
0.00049925174
0.00052137665
0.0001989649
0.00020453746
0.00021624628
0.0002331216
0.00025438765
0.00027929345
0.00030721144
0.00033775456
0.00037090314
0.00040723037
0.00044848168
0.00049907463
0.00052127046
0.00019817993
0.00020373733
0.00021542205
0.00023227983
0.00025354918
0.00027848896
0.00030647461
0.00033711532
0.00037038259
0.00040683762
0.00044821263
0.00049891301
0.00052116688
0.00019741185
0.00020295751
0.00021462452
0.00023147229
0.00025275204
0.00027773098
0.00030578653
0.00033652373
0.00036990525
0.0004064807
0.00044796975
0.00049876637
0.0005210663
0.00019666318
0.00020220021
0.00021385535
0.00023070006
0.00025199667
0.00027701933
0.00030514654
0.00033597874
0.00036946984
0.00040615831
0.00044775196
0.0004986341
0.00052096905
0.00019593606
0.00020146729
0.00021311594
0.00022996396
0.00025128327
0.00027635364
0.00030455375
0.00033547911
0.00036907495
0.00040586905
0.00044755812
0.00049851556
0.00052087538
0.00019523231
0.00020076033
0.0002124074
0.00022926454
0.00025061179
0.00027573329
0.0003040071
0.00033502343
0.00036871903
0.00040561146
0.00044738705
0.00049841008
0.00052078551
0.00019455343
0.00020008063
0.00021173062
0.00022860214
0.00024998198
0.0002751575
0.00030350533
0.00033461018
0.00036840044
0.00040538399
0.00044723751
0.00049831698
0.00052069961
0.00019390068
0.00019942923
0.00021108622
0.00022797686
0.0002493934
0.00027462529
0.00030304708
0.00033423772
0.00036811746
0.00040518506
0.00044710829
0.00049823556
0.00052061778
0.00019327507
0.00019880694
0.00021047463
0.00022738861
0.00024884541
0.00027413555
0.00030263084
0.00033390432
0.00036786835
0.00040501308
0.00044699814
0.00049816515
0.00052054012
0.00019267736
0.00019821434
0.00020989605
0.00022683713
0.00024833725
0.00027368703
0.00030225502
0.0003336082
0.00036765129
0.00040486643
0.00044690584
0.00049810505
0.00052046667
0.00019210812
0.00019765182
0.00020935051
0.00022632199
0.00024786798
0.0002732784
0.00030191795
0.00033334752
0.00036746449
0.00040474353
0.00044683017
0.0004980546
0.00052039745
0.00019156774
0.00019711958
0.00020883788
0.0002258426
0.00024743659
0.00027290819
0.00030161789
0.00033312041
0.00036730611
0.00040464277
0.00044676995
0.00049801313
0.00052033245
0.00019105639
0.00019661765
0.00020835785
0.00022539825
0.0002470419
0.00027257488
0.00030135305
0.00033292497
0.00036717433
0.00040456259
0.00044672398
0.00049797997
0.00052027163
0.00019057412
0.0001961459
0.00020790998
0.0002249881
0.00024668269
0.00027227689
0.00030112161
0.00033275931
0.00036706735
0.00040450143
0.00044669113
0.00049795448
0.00052021493
0.0001901208
0.00019570407
0.00020749373
0.00022461123
0.00024635763
0.00027201257
0.00030092172
0.00033262153
0.00036698339
0.00040445779
0.00044667027
0.00049793603
0.00052016227
0.00018969618
0.00019529175
0.0002071084
0.00022426661
0.00024606535
0.00027178024
0.00030075153
0.00033250976
0.00036692071
0.0004044302
0.00044666034
0.000497924
0.00052011356
0.00018929987
0.00019490844
0.00020675323
0.00022395313
0.00024580441
0.00027157822
0.00030060922
0.00033242216
0.00036687762
0.00040441725
0.0004466603
0.00049791783
0.00052006868
0.00018893141
0.00019455352
0.00020642736
0.00022366963
0.00024557336
0.00027140481
0.00030049295
0.00033235693
0.00036685248
0.00040441761
0.00044666919
0.00049791696
0.00052002751
0.00018859021
0.00019422631
0.00020612988
0.00022341491
0.0002453707
0.00027125832
0.00030040095
0.00033231233
0.00036684373
0.00040442997
0.0004466861
0.0004979209
0.00051998995
0.00018827561
0.00019392604
0.00020585979
0.00022318772
0.00024519495
0.00027113706
0.00030033147
0.00033228666
0.00036684986
0.00040445315
0.00044671017
0.00049792917
0.00051995586
0.00018798689
0.00019365186
0.00020561606
0.00022298678
0.00024504459
0.00027103939
0.0003002828
0.00033227832
0.00036686945
0.00040448598
0.00044674059
0.00049794134
0.00051992512
0.00018772323
0.00019340288
0.00020539761
0.0002228108
0.00024491813
0.00027096367
0.00030025328
0.00033228571
0.00036690111
0.00040452738
0.00044677662
0.000497957
0.00051989759
0.00018748378
0.00019317815
0.00020520332
0.00022265845
0.00024481407
0.00027090829
0.0003002413
0.00033230734
0.00036694354
0.00040457632
0.00044681753
0.00049797575
0.00051987312
0.00018726763
0.00019297669
0.00020503205
0.00022252841
0.00024473093
0.00027087169
0.0003002453
0.00033234175
0.00036699549
0.00040463179
0.00044686262
0.00049799718
0.00051985156
0.00018707384
0.00019279746
0.00020488263
0.00022241934
0.00024466724
0.00027085232
0.00030026375
0.00033238752
0.00036705575
0.00040469287
0.00044691123
0.00049802091
0.00051983277
0.0001869014
0.00019263941
0.00020475388
0.00022232993
0.00024462155
0.00027084867
0.00030029519
0.00033244333
0.00036712317
0.00040475863
0.00044696272
0.00049804656
0.00051981656
0.00018674932
0.00019250147
0.00020464459
0.00022225883
0.00024459244
0.0002708593
0.0003003382
0.00033250788
0.00036719667
0.00040482825
0.00044701649
0.00049807376
0.00051980279
0.00018661654
0.00019238253
0.00020455358
0.00022220476
0.00024457852
0.0002708828
0.00030039145
0.00033257997
0.00036727522
0.00040490092
0.000447072
0.00049810219
0.00051979127
0.00018650203
0.00019228152
0.00020447967
0.00022216642
0.00024457845
0.00027091782
0.00030045364
0.00033265845
0.0003673579
0.00040497594
0.00044712874
0.00049813154
0.00051978187
0.00018640475
0.00019219733
0.0002044217
0.00022214259
0.00024459094
0.00027096309
0.0003005236
0.00033274229
0.00036744384
0.00040505264
0.00044718627
0.00049816156
0.00051977443
0.00018632366
0.00019212891
0.00020437851
0.00022213206
0.00024461477
0.0002710174
0.00030060021
0.00033283051
0.00036753224
0.00040513044
0.00044724421
0.00049819204
0.00051976882
0.00018625774
0.00019207519
0.00020434901
0.00022213367
0.00024464877
0.00027107963
0.00030068243
0.00033292222
0.00036762242
0.00040520885
0.00044730224
0.00049822281
0.0005197649
0.00018620598
0.00019203514
0.00020433212
0.00022214632
0.00024469182
0.0002711487
0.0003007693
0.00033301661
0.00036771373
0.0004052874
0.00044736006
0.00049825371
0.00051976257
0.00018616739
0.00019200774
0.00020432679
0.00022216893
0.00024474286
0.00027122363
0.00030085992
0.00033311293
0.00036780558
0.00040536567
0.00044741743
0.00049828462
0.00051976169
0.00018614099
0.00019199202
0.000204332
0.00022220047
0.00024480088
0.00027130346
0.00030095346
0.00033321049
0.00036789745
0.0004054433
0.00044747409
0.00049831539
0.00051976216
0.00018612582
0.00019198699
0.00020434677
0.00022223996
0.00024486494
0.0002713873
0.00030104914
0.00033330864
0.00036798883
0.00040551992
0.00044752981
0.00049834588
0.00051976384
0.00018612096
0.00019199171
0.00020437015
0.00022228645
0.00024493411
0.00027147432
0.00030114622
0.00033340676
0.00036807924
0.00040559518
0.00044758435
0.00049837593
0.00051976662
0.00018612548
0.00019200526
0.00020440121
0.00022233903
0.00024500751
0.00027156371
0.000301244
0.00033350428
0.00036816824
0.00040566876
0.00044763748
0.00049840538
0.00051977037
0.00018613848
0.00019202674
0.00020443905
0.00022239682
0.00024508433
0.00027165472
0.00030134183
0.00033360068
0.00036825543
0.00040574036
0.00044768899
0.00049843405
0.00051977495
0.00018615912
0.00019205529
0.00020448283
0.00022245899
0.00024516379
0.00027174666
0.00030143913
0.00033369548
0.00036834044
0.00040580971
0.00044773869
0.00049846181
0.00051978025
0.00018618654
0.00019209009
0.00020453173
0.00022252478
0.00024524518
0.0002718389
0.00030153537
0.00033378827
0.00036842296
0.00040587661
0.00044778643
0.00049848855
0.00051978616
0.00018621998
0.00019213036
0.00020458499
0.00022259345
0.00024532784
0.00027193087
0.00030163009
0.00033387869
0.00036850275
0.00040594088
0.00044783211
0.00049851413
0.00051979258
0.00018625867
0.00019217535
0.00020464191
0.00022266436
0.00024541117
0.00027202208
0.00030172288
0.00033396644
0.0003685796
0.00040600242
0.00044787565
0.00049853836
0.00051979941
0.00018630193
0.00019222439
0.00020470182
0.00022273689
0.00024549466
0.00027211208
0.00030181342
0.00033405131
0.00036865339
0.00040606115
0.00044791696
0.00049856126
0.00051980658
0.00018634909
0.00019227683
0.00020476413
0.0002228105
0.00024557783
0.00027220051
0.00030190143
0.00033413311
0.000368724
0.00040611702
0.00044795601
0.00049858286
0.00051981402
0.00018639956
0.00019233208
0.00020482828
0.0002228847
0.00024566026
0.00027228703
0.00030198669
0.0003342117
0.00036879139
0.00040616998
0.00044799278
0.00049860329
0.00051982168
0.00018645274
0.00019238958
0.00020489375
0.00022295902
0.00024574157
0.00027237135
0.00030206898
0.00033428696
0.00036885548
0.00040621999
0.00044802732
0.00049862263
0.00051982952
0.00018650811
0.00019244881
0.00020496006
0.00022303305
0.00024582144
0.00027245323
0.00030214814
0.0003343588
0.0003689162
0.00040626702
0.00044805973
0.00049864093
0.00051983749
0.00018656516
0.00019250929
0.00020502676
0.00022310639
0.00024589952
0.00027253242
0.00030222402
0.0003344271
0.00036897347
0.00040631109
0.00044809004
0.0004986582
0.00051984554
0.00018662339
0.00019257054
0.00020509344
0.0002231787
0.00024597555
0.00027260871
0.00030229646
0.00033449177
0.00036902723
0.00040635224
0.00044811828
0.00049867444
0.00051985361
0.00018668236
0.00019263215
0.00020515969
0.00022324963
0.00024604926
0.00027268192
0.00030236533
0.00033455266
0.00036907749
0.00040639048
0.00044814445
0.00049868962
0.00051986165
0.00018674166
0.0001926937
0.00020522517
0.00022331889
0.00024612041
0.00027275186
0.00030243047
0.00033460976
0.00036912426
0.00040642583
0.00044816855
0.00049870371
0.00051986959
0.00018680089
0.00019275483
0.00020528956
0.00022338621
0.00024618881
0.00027281837
0.0003024918
0.00033466304
0.00036916755
0.00040645831
0.00044819059
0.00049871667
0.00051987738
0.00018685971
0.00019281523
0.00020535256
0.00022345137
0.00024625427
0.00027288134
0.0003025493
0.00033471255
0.00036920741
0.00040648798
0.0004482106
0.0004987285
0.00051988497
0.00018691782
0.00019287461
0.00020541395
0.00022351418
0.00024631666
0.00027294073
0.00030260298
0.00033475833
0.00036924393
0.00040651492
0.00044822865
0.00049873922
0.00051989234
0.00018697497
0.00019293274
0.00020547352
0.00022357448
0.00024637591
0.00027299653
0.00030265292
0.00033480048
0.00036927722
0.00040653923
0.00044824483
0.00049874888
0.00051989947
0.00018703093
0.0001929894
0.00020553111
0.00022363218
0.000246432
0.00027304879
0.00030269921
0.00033483915
0.00036930744
0.00040656109
0.00044825926
0.00049875756
0.00051990636
0.00018708552
0.00019304444
0.0002055866
0.00022368722
0.00024648494
0.0002730976
0.00030274198
0.00033487451
0.00036933478
0.00040658065
0.0004482721
0.00049876537
0.00051991301
0.00018713856
0.0001930977
0.00020563989
0.00022373958
0.00024653476
0.00027314305
0.00030278138
0.00033490672
0.00036935942
0.00040659812
0.00044828352
0.00049877243
0.00051991945
0.00018718993
0.00019314909
0.00020569091
0.00022378923
0.00024658153
0.00027318525
0.00030281756
0.00033493599
0.00036938156
0.00040661366
0.00044829365
0.00049877886
0.00051992568
0.0001872395
0.00019319849
0.00020573961
0.00022383618
0.00024662529
0.0002732243
0.00030285068
0.00033496246
0.00036940136
0.00040662744
0.00044830264
0.00049878475
0.0005199317
0.00018728715
0.00019324581
0.00020578593
0.00022388041
0.00024666608
0.0002732603
0.00030288083
0.00033498628
0.00036941896
0.00040663955
0.00044831056
0.00049879013
0.00051993752
0.00018733275
0.00019329094
0.0002058298
0.00022392191
0.00024670393
0.00027329329
0.00030290812
0.00033500753
0.00036943444
0.00040665009
0.00044831745
0.00049879502
0.00051994311
0.00018737621
0.00019333379
0.00020587115
0.00022396065
0.00024673884
0.00027332333
0.0003029326
0.00033502629
0.00036944785
0.00040665906
0.00044832331
0.00049879938
0.00051994843
0.0001874174
0.00019337428
0.00020590992
0.0002239966
0.00024677083
0.00027335044
0.00030295431
0.00033504258
0.00036945923
0.00040666648
0.0004483281
0.00049880313
0.00051995345
0.00018745625