/*--------------------------------*- C++ -*----------------------------------*\
| =========                 |                                                 |
| \\      /  F ield         | OpenFOAM: The Open Source CFD Toolbox           |
|  \\    /   O peration     | Version:  2506                                  |
|   \\  /    A nd           | Website:  www.openfoam.com                      |
|    \\/     M anipulation  |                                                 |
\*---------------------------------------------------------------------------*/
FoamFile
{
    version     2.0;
    format      ascii;
    arch        "LSB;label=32;scalar=64";
    class       volScalarField;
    location    "28000/water";
    object      nut;
}
// * * * * * * * * * * * * * * * * * * * * * * * * * * * * * * * * * * * * * //

dimensions      [0 2 -1 0 0 0 0];

internalField   nonuniform List<scalar> 
2600
(
4.0562043e-05
4.0561942e-05
4.0561944e-05
4.0561981e-05
4.0561942e-05
4.0561434e-05
4.0558261e-05
4.0540002e-05
4.0435343e-05
3.98338e-05
3.6541397e-05
2.4161555e-05
1.4889524e-05
3.944741e-05
3.9447468e-05
3.944759e-05
3.9447676e-05
3.9447275e-05
3.9444342e-05
3.9428907e-05
3.9352895e-05
3.8988431e-05
3.7314814e-05
3.0763187e-05
1.7536145e-05
1.684056e-05
3.852265e-05
3.852264e-05
3.8522725e-05
3.8522528e-05
3.8520597e-05
3.8510798e-05
3.8466747e-05
3.8277827e-05
3.7500368e-05
3.454641e-05
2.5814945e-05
1.4669956e-05
1.7712619e-05
3.7742032e-05
3.774193e-05
3.7741811e-05
3.7740766e-05
3.7735283e-05
3.7711707e-05
3.7617453e-05
3.7258039e-05
3.5961308e-05
3.177518e-05
2.2061889e-05
1.3531464e-05
1.7967898e-05
3.7073562e-05
3.7073366e-05
3.7072781e-05
3.7069955e-05
3.7057916e-05
3.7011651e-05
3.6843992e-05
3.6266509e-05
3.4405655e-05
2.9188861e-05
1.9425178e-05
1.3345943e-05
1.7902414e-05
3.6493786e-05
3.6493393e-05
3.6491924e-05
3.648598e-05
3.646354e-05
3.6384687e-05
3.612226e-05
3.5294625e-05
3.2873382e-05
2.6881541e-05
1.771645e-05
1.3793839e-05
1.7689846e-05
3.5985207e-05
3.5984445e-05
3.5981496e-05
3.5970726e-05
3.5933497e-05
3.5812307e-05
3.5437992e-05
3.4343601e-05
3.1395257e-05
2.4892541e-05
1.6781972e-05
1.4727875e-05
1.7427344e-05
3.5534568e-05
3.55332e-05
3.5528007e-05
3.5510417e-05
3.5453869e-05
3.5281761e-05
3.478374e-05
3.3418009e-05
2.9989903e-05
2.3242727e-05
1.6521213e-05
1.605365e-05
1.7168093e-05
3.5131649e-05
3.5129373e-05
3.5121029e-05
3.5094485e-05
3.5014364e-05
3.4784646e-05
3.4156253e-05
3.2521766e-05
2.8667649e-05
2.1957692e-05
1.6869959e-05
1.7676047e-05
1.694009e-05
3.4768438e-05
3.47649e-05
3.4752406e-05
3.4714802e-05
3.4607522e-05
3.4315777e-05
3.3554458e-05
3.16563e-05
2.7438403e-05
2.1076946e-05
1.7774701e-05
1.9481897e-05
1.6755877e-05
3.4438571e-05
3.443338e-05
3.4415717e-05
3.4365168e-05
3.4228127e-05
3.3872266e-05
3.2977968e-05
3.0820513e-05
2.6321667e-05
2.0649591e-05
1.9168673e-05
2.1348725e-05
1.6617712e-05
3.4136931e-05
3.4129689e-05
3.4105903e-05
3.4040932e-05
3.3872746e-05
3.3452766e-05
3.2426062e-05
3.0012536e-05
2.5355877e-05
2.0719809e-05
2.0958175e-05
2.3166793e-05
1.6521078e-05
3.3859367e-05
3.3849701e-05
3.3819003e-05
3.3738723e-05
3.3539365e-05
3.3056856e-05
3.1897087e-05
2.923354e-05
2.4602257e-05
2.1309035e-05
2.3024752e-05
2.4858007e-05
1.6457822e-05
3.3602495e-05
3.3590098e-05
3.355197e-05
3.3456247e-05
3.3227088e-05
3.2684517e-05
3.1388405e-05
2.8493549e-05
2.4138757e-05
2.2402735e-05
2.5241354e-05
2.6381456e-05
1.6418929e-05
3.3363555e-05
3.334823e-05
3.3302533e-05
3.3192135e-05
3.2935885e-05
3.2335692e-05
3.0897111e-05
2.7818119e-05
2.4044358e-05
2.3946906e-05
2.7493335e-05
2.7726694e-05
1.6396422e-05
3.3140311e-05
3.3122024e-05
3.3069114e-05
3.2945826e-05
3.2666358e-05
3.2009929e-05
3.0421904e-05
2.725306e-05
2.4379894e-05
2.5855075e-05
2.9693858e-05
2.8902281e-05
1.6384202e-05
3.2930983e-05
3.2909915e-05
3.2850758e-05
3.2717477e-05
3.2419519e-05
3.1706209e-05
2.9966345e-05
2.6863467e-05
2.5173338e-05
2.8023002e-05
3.1788481e-05
2.9925862e-05
1.6378087e-05
3.27342e-05
3.2710811e-05
3.2647097e-05
3.2507877e-05
3.219656e-05
3.1423099e-05
2.9543334e-05
2.6725088e-05
2.6414165e-05
3.0346001e-05
3.3750499e-05
3.0817911e-05
1.6375449e-05
3.254898e-05
3.2524066e-05
3.2458325e-05
3.2318372e-05
3.1998619e-05
3.1159479e-05
2.9179673e-05
2.6909997e-05
2.805682e-05
3.2733298e-05
3.5572232e-05
3.1598491e-05
1.6374764e-05
3.2374714e-05
3.234948e-05
3.2285189e-05
3.2150777e-05
3.1826588e-05
3.0916123e-05
2.8918575e-05
2.7471841e-05
3.0030665e-05
3.5115834e-05
3.7256818e-05
3.2285748e-05
1.6375224e-05
3.2211173e-05
3.2187303e-05
3.2128983e-05
3.2007273e-05
3.1681012e-05
3.0698309e-05
2.8817773e-05
2.8435851e-05
3.2252929e-05
3.7447134e-05
3.8812576e-05
3.2895331e-05
1.6376448e-05
3.2058522e-05
3.2038256e-05
3.199155e-05
3.1890271e-05
3.1562235e-05
3.051924e-05
2.8942305e-05
2.9795901e-05
3.464125e-05
3.9699498e-05
4.0249838e-05
3.3440303e-05
1.6378293e-05
3.1917349e-05
3.1903563e-05
3.1875268e-05
3.1802262e-05
3.147098e-05
3.0403414e-05
2.9353632e-05
3.1518042e-05
3.7123065e-05
4.1858567e-05
4.1579379e-05
3.3931333e-05
1.6380731e-05
3.1788707e-05
3.1784988e-05
3.1783034e-05
3.1745667e-05
3.1409596e-05
3.0388388e-05
3.009864e-05
3.3548311e-05
3.9640503e-05
4.3918428e-05
4.2811639e-05
3.4377031e-05
1.638378e-05
3.167417e-05
3.1684884e-05
3.1718215e-05
3.1722747e-05
3.1384107e-05
3.0523332e-05
3.1201974e-05
3.5822341e-05
4.2151078e-05
4.5878174e-05
4.3956334e-05
3.4784314e-05
1.6387467e-05
3.1575896e-05
3.1606239e-05
3.1684577e-05
3.1735682e-05
3.1406918e-05
3.086367e-05
3.2663377e-05
3.8274456e-05
4.4625623e-05
4.7739783e-05
4.5022273e-05
3.5158739e-05
1.6391813e-05
3.1496714e-05
3.155272e-05
3.1686171e-05
3.1786997e-05
3.1499545e-05
3.1462865e-05
3.4459808e-05
4.084458e-05
4.7045145e-05
4.9506881e-05
4.6017315e-05
3.5504794e-05
1.6396824e-05
3.1440215e-05
3.1528703e-05
3.1727217e-05
3.1880504e-05
3.1694228e-05
3.2363741e-05
3.655094e-05
4.3482183e-05
4.9397839e-05
5.1183995e-05
4.6948401e-05
3.5826124e-05
1.6402494e-05
3.141085e-05
3.1539289e-05
3.1812006e-05
3.2022926e-05
3.2033143e-05
3.3591891e-05
3.8886226e-05
4.6147425e-05
5.1676786e-05
5.2776062e-05
4.782164e-05
3.6125718e-05
1.6408802e-05
3.1414042e-05
3.1590274e-05
3.1944927e-05
3.2226118e-05
3.256456e-05
3.5152681e-05
4.1411884e-05
4.8810347e-05
5.3878383e-05
5.4288121e-05
4.8642392e-05
3.6406047e-05
1.6415722e-05
3.1456281e-05
3.1688095e-05
3.2130756e-05
3.2509431e-05
3.3336478e-05
3.7032006e-05
4.4076503e-05
5.1449129e-05
5.6001294e-05
5.5725114e-05
4.9415387e-05
3.6669253e-05
1.642322e-05
3.1545208e-05
3.183974e-05
3.2375385e-05
3.290132e-05
3.4389408e-05
3.9199972e-05
4.6834631e-05
5.4048186e-05
5.8045688e-05
5.7091636e-05
5.0144338e-05
3.6914943e-05
1.6431248e-05
3.1689662e-05
3.2052668e-05
3.2687145e-05
3.3439132e-05
3.5750335e-05
4.1616206e-05
4.964833e-05
5.6596556e-05
6.0012741e-05
5.839201e-05
5.0832726e-05
3.7144922e-05
1.6439749e-05
3.1899684e-05
3.2334823e-05
3.3078703e-05
3.4166336e-05
3.7429298e-05
4.4235456e-05
5.248719e-05
5.9086681e-05
6.1904242e-05
5.9630091e-05
5.1482695e-05
3.7361243e-05
1.6448668e-05
3.2186465e-05
3.2694872e-05
3.3569195e-05
3.5127407e-05
3.9419061e-05
4.7012425e-05
5.5327447e-05
6.1513506e-05
6.3722341e-05
6.0809393e-05
5.209645e-05
3.7565313e-05
1.6457958e-05
3.2562282e-05
3.3142862e-05
3.418583e-05
3.6361548e-05
4.1697456e-05
4.9905185e-05
5.8150805e-05
6.3873832e-05
6.546939e-05
6.1933117e-05
5.2677399e-05
3.7758158e-05
1.6467586e-05
3.3040475e-05
3.3691441e-05
3.4963993e-05
3.7896945e-05
4.4231429e-05
5.2877046e-05
6.0943281e-05
6.6165776e-05
6.7147565e-05
6.3002904e-05
5.3228278e-05
3.7940823e-05
1.6477531e-05
3.3635639e-05
3.4357649e-05
3.5945066e-05
3.9746992e-05
4.698172e-05
5.5897117e-05
6.3694247e-05
6.8388429e-05
6.8759334e-05
6.4022594e-05
5.3751053e-05
3.8114078e-05
1.6487766e-05
3.4364226e-05
3.5164903e-05
3.7171979e-05
4.1909156e-05
4.9907177e-05
5.8940024e-05
6.6395663e-05
7.0541365e-05
7.0305657e-05
6.4995388e-05
5.4247639e-05
3.8278684e-05
1.6498266e-05
3.5245724e-05
3.6144418e-05
3.8683395e-05
4.4366365e-05
5.2968077e-05
6.1985169e-05
6.9041448e-05
7.2624748e-05
7.1789407e-05
6.5923871e-05
5.4719659e-05
3.8435268e-05
1.6509004e-05
3.6304397e-05
3.7335021e-05
4.0508075e-05
4.7090201e-05
5.6128208e-05
6.5015944e-05
7.1626954e-05
7.4638167e-05
7.3213265e-05
6.6810357e-05
5.5168629e-05
3.8584368e-05
1.6519954e-05
3.7571055e-05
3.8780605e-05
4.2660843e-05
5.004495e-05
5.9355782e-05
6.80189e-05
7.414865e-05
7.658249e-05
7.4579719e-05
6.76569e-05
5.5595891e-05
3.8726449e-05
1.653109e-05
3.9083866e-05
4.0525228e-05
4.5140984e-05
5.3191586e-05
6.2623575e-05
7.0983108e-05
7.6603212e-05
7.8458838e-05
7.5890909e-05
6.8465404e-05
5.6002631e-05
3.8861904e-05
1.6542386e-05
4.0886921e-05
4.2606871e-05
4.7933106e-05
5.6490994e-05
6.5908452e-05
7.3899531e-05
7.8988648e-05
8.0268737e-05
7.7148736e-05
6.9237566e-05
5.6389886e-05
3.8991065e-05
1.6553816e-05
4.3025787e-05
4.5051437e-05
5.100989e-05
5.9906223e-05
6.9190873e-05
7.6760142e-05
8.1303266e-05
8.201342e-05
7.8354965e-05
6.9974897e-05
5.675856e-05
3.911421e-05
1.6565353e-05
4.5540374e-05
4.7868477e-05
5.4335766e-05
6.3403525e-05
7.2453914e-05
7.9558417e-05
8.3546729e-05
8.3693978e-05
7.951114e-05
7.0678713e-05
5.7109425e-05
3.9231566e-05
1.6576974e-05
4.8456741e-05
5.1049472e-05
5.7870642e-05
6.6952764e-05
7.5682791e-05
8.2288867e-05
8.5718429e-05
8.531137e-05
8.0618599e-05
7.1350139e-05
5.7443133e-05
3.9343315e-05
1.6588653e-05
5.1780151e-05
5.4568655e-05
6.1572956e-05
7.0526879e-05
7.8863951e-05
8.4947821e-05
8.7817769e-05
8.6866351e-05
8.1678453e-05
7.1990116e-05
5.7760217e-05
3.9449594e-05
1.6600366e-05
5.5491399e-05
5.8385663e-05
6.540141e-05
7.4100934e-05
8.1987192e-05
8.7531668e-05
8.9844047e-05
8.8359444e-05
8.2691574e-05
7.2599395e-05
5.8061097e-05
3.95505e-05
1.6612087e-05
5.9547262e-05
6.2448937e-05
6.9315584e-05
7.7653792e-05
8.5043657e-05
9.0036949e-05
9.1796381e-05
8.9790907e-05
8.365859e-05
7.3178543e-05
5.8346085e-05
3.9646087e-05
1.662379e-05
6.3884508e-05
6.6699813e-05
7.3278217e-05
8.1167587e-05
8.8025188e-05
9.2460239e-05
9.3673664e-05
9.1160712e-05
8.457987e-05
7.3727936e-05
5.8615381e-05
3.9736371e-05
1.6635451e-05
6.8427374e-05
7.10771e-05
7.7255199e-05
8.4626051e-05
9.0924155e-05
9.4798074e-05
9.5474531e-05
9.2468537e-05
8.5455527e-05
7.4247767e-05
5.8869078e-05
3.9821329e-05
1.664704e-05
7.3095568e-05
7.5520304e-05
8.1214731e-05
8.8014214e-05
9.3733348e-05
9.7046936e-05
9.7197368e-05
9.3713771e-05
8.6285424e-05
7.4738045e-05
5.9107166e-05
3.9900896e-05
1.6658531e-05
7.7811306e-05
7.9972329e-05
8.512728e-05
9.1318201e-05
9.6445932e-05
9.9203274e-05
9.8840345e-05
9.489554e-05
8.7069188e-05
7.5198608e-05
5.9329534e-05
3.9974973e-05
1.6669891e-05
8.2504378e-05
8.4381481e-05
8.8965679e-05
9.4525148e-05
9.9055457e-05
0.00010126357
0.00010040148
9.6012756e-05
8.7806242e-05
7.5629141e-05
5.9535982e-05
4.0043428e-05
1.6681088e-05
8.7115032e-05
8.8702757e-05
9.270536e-05
9.7623219e-05
0.00010155592
0.00010322443
0.00010187874
9.7064187e-05
8.8495852e-05
7.6029202e-05
5.9726234e-05
4.0106099e-05
1.6692087e-05
9.1594971e-05
9.2898494e-05
9.6324633e-05
0.0001006017
0.00010394187
0.00010508273
0.00010327014
9.8048545e-05
8.9137188e-05
7.6398259e-05
5.9899957e-05
4.0162806e-05
1.6702851e-05
9.5907012e-05
9.6938434e-05
9.9804934e-05
0.00010345113
0.00010620851
0.0001068357
0.00010457387
9.8964588e-05
8.9729396e-05
7.6735741e-05
6.0056788e-05
4.0213358e-05
1.671334e-05
0.00010002396
0.00010079936
0.00010313098
0.00010616347
0.00010835181
0.00010848106
0.00010578844
9.9811228e-05
9.0271681e-05
7.7041086e-05
6.0196367e-05
4.0257565e-05
1.6723514e-05
0.00010392716
0.00010446444
0.00010629079
0.0001087322
0.0001103686
0.00011001716
0.00010691274
0.00010058763
9.0763388e-05
7.7313806e-05
6.0318364e-05
4.0295258e-05
1.6733331e-05
0.00010760494
0.00010792244
0.00010927561
0.0001111524
0.00011225669
0.000111443
0.0001079462
0.00010129331
9.1204083e-05
7.7553537e-05
6.0422522e-05
4.0326295e-05
1.674275e-05
0.00011105124
0.00011116681
0.00011207965
0.00011342078
0.00011401484
0.00011275833
0.00010888878
0.0001019282
9.1593619e-05
7.77601e-05
6.0508686e-05
4.0350586e-05
1.6751732e-05
0.00011426439
0.00011419493
0.00011469988
0.00011553563
0.00011564285
0.00011396363
0.00010974108
0.00010249271
9.1932189e-05
7.793354e-05
6.0576833e-05
4.0368097e-05
1.6760239e-05
0.00011724612
0.00011700732
0.00011713561
0.00011749674
0.00011714146
0.00011506016
0.00011050428
0.00010298775
9.2220363e-05
7.8074161e-05
6.0627095e-05
4.0378865e-05
1.6768237e-05
0.00012000068
0.00011960698
0.00011938823
0.0001193053
0.00011851237
0.00011604986
0.0001111802
0.00010341471
9.2459104e-05
7.8182545e-05
6.0659778e-05
4.0383004e-05
1.6775699e-05
0.00012253426
0.00012199886
0.00012146082
0.00012096369
0.00011975809
0.00011693534
0.00011177119
0.00010377548
9.2649765e-05
7.8259561e-05
6.0675362e-05
4.0380707e-05
1.6782601e-05
0.00012485444
0.00012418935
0.00012335788
0.00012247538
0.00012088194
0.00011771982
0.00011228014
0.00010407241
9.2794069e-05
7.8306355e-05
6.0674504e-05
4.0372246e-05
1.6788927e-05
0.00012696979
0.00012618598
0.00012508499
0.00012384475
0.00012188786
0.00011840702
0.00011271038
0.00010430824
9.289408e-05
7.8324328e-05
6.0658028e-05
4.0357968e-05
1.6794666e-05
0.00012888958
0.00012799702
0.00012664863
0.0001250769
0.00012278037
0.00011900111
0.00011306561
0.00010448604
9.2952156e-05
7.8315116e-05
6.0626902e-05
4.0338282e-05
1.6799815e-05
0.0001306235
0.00012963131
0.00012805591
0.00012617755
0.00012356444
0.00011950662
0.00011334984
0.00010460918
9.2970905e-05
7.8280547e-05
6.0582223e-05
4.0313655e-05
1.6804378e-05
0.0001321815
0.000131098
0.0001293144
0.00012715283
0.00012424539
0.00011992832
0.00011356734
0.00010468124
9.2953125e-05
7.8222605e-05
6.0525189e-05
4.0284593e-05
1.6808364e-05
0.00013357363
0.00013240645
0.00013043195
0.00012800923
0.0001248288
0.0001202712
0.0001137225
0.00010470594
9.2901757e-05
7.8143387e-05
6.0457068e-05
4.0251635e-05
1.6811789e-05
0.0001348099
0.00013356604
0.00013141663
0.00012875342
0.00012532041
0.00012054038
0.00011381983
0.00010468711
9.2819829e-05
7.8045064e-05
6.0379176e-05
4.0215334e-05
1.6814674e-05
0.00013590022
0.00013458611
0.00013227652
0.00012939221
0.00012572606
0.00012074101
0.00011386389
0.0001046286
9.2710406e-05
7.7929838e-05
6.0292847e-05
4.0176245e-05
1.6817042e-05
0.00013685431
0.00013547587
0.00013301971
0.00012993241
0.00012605164
0.00012087826
0.00011385921
0.00010453426
9.2576549e-05
7.7799911e-05
6.0199408e-05
4.0134919e-05
1.6818922e-05
0.00013768163
0.00013624433
0.00013365414
0.00013038081
0.00012630295
0.00012095725
0.00011381026
0.00010440787
9.2421274e-05
7.7657445e-05
6.0100159e-05
4.0091886e-05
1.6820345e-05
0.00013839138
0.00013690023
0.00013418764
0.0001307441
0.00012648577
0.00012098299
0.00011372142
0.00010425315
9.2247515e-05
7.7504544e-05
5.9996354e-05
4.0047654e-05
1.6821343e-05
0.0001389924
0.00013745206
0.00013462777
0.00013102882
0.0001266057
0.0001209604
0.00011359695
0.00010407366
9.2058103e-05
7.7343221e-05
5.9889184e-05
4.0002696e-05
1.6821951e-05
0.0001394932
0.00013790796
0.0001349819
0.00013124132
0.00012666822
0.00012089419
0.00011344092
0.00010387283
9.1855738e-05
7.7175387e-05
5.9779766e-05
3.9957449e-05
1.6822201e-05
0.00013990193
0.00013827574
0.00013525709
0.00013138774
0.0001266786
0.00012078894
0.00011325725
0.00010365393
9.1642973e-05
7.7002834e-05
5.9669137e-05
3.9912309e-05
1.682213e-05
0.00014022632
0.00013856286
0.0001354601
0.00013147397
0.00012664192
0.000120649
0.00011304968
0.00010342004
9.1422202e-05
7.6827223e-05
5.9558243e-05
3.9867632e-05
1.6821769e-05
0.00014047377
0.00013877641
0.00013559741
0.00013150565
0.00012656302
0.00012047854
0.00011282173
0.00010317406
9.1195653e-05
7.6650083e-05
5.9447939e-05
3.982373e-05
1.6821151e-05
0.00014065126
0.00013892313
0.00013567515
0.00013148817
0.00012644651
0.00012028148
0.00011257672
0.00010291867
9.0965378e-05
7.6472802e-05
5.9338989e-05
3.9780876e-05
1.6820309e-05
0.00014076539
0.00013900938
0.00013569914
0.00013142662
0.00012629676
0.00012006154
0.00011231773
0.00010265639
9.0733257e-05
7.6296633e-05
5.9232063e-05
3.9739299e-05
1.6819271e-05
0.00014082237
0.00013904115
0.00013567489
0.00013132583
0.00012611792
0.0001198222
0.00011204768
0.00010238952
9.0500996e-05
7.6122689e-05
5.9127744e-05
3.9699189e-05
1.6818066e-05
0.00014082805
0.0001390241
0.00013560757
0.00013119034
0.00012591385
0.00011956673
0.00011176922
0.00010212016
9.0270125e-05
7.5951936e-05
5.9026481e-05
3.966049e-05
1.6816718e-05
0.00014078791
0.0001389635
0.00013550205
0.00013102443
0.0001256882
0.00011929816
0.00011148483
0.00010185022
9.0041999e-05
7.57852e-05
5.8928629e-05
3.9623152e-05
1.6815251e-05
0.00014070708
0.00013886433
0.00013536287
0.0001308321
0.00012544437
0.0001190193
0.00011119677
0.00010158141
8.9817793e-05
7.5623119e-05
5.8834213e-05
3.9587467e-05
1.6813682e-05
0.00014059035
0.00013873119
0.0001351943
0.00013061708
0.00012518552
0.00011873275
0.00011090707
0.00010131526
8.9598533e-05
7.5466275e-05
5.8743572e-05
3.955356e-05
1.681203e-05
0.00014044216
0.00013856839
0.0001350003
0.00013038285
0.00012491456
0.00011844088
0.00011061759
0.0001010531
8.9385012e-05
7.5314792e-05
5.8657141e-05
3.9521523e-05
1.6810318e-05
0.00014026666
0.00013837995
0.00013478455
0.00013013262
0.00012463421
0.00011814587
0.00011032999
0.00010079606
8.917786e-05
7.5169367e-05
5.8575065e-05
3.9491406e-05
1.6808563e-05
0.00014006769
0.00013816956
0.00013455047
0.00012986939
0.00012434695
0.00011784967
0.00011004572
0.00010054513
8.8977622e-05
7.503046e-05
5.8497471e-05
3.9463241e-05
1.6806783e-05
0.00013984879
0.00013794067
0.0001343012
0.0001295959
0.00012405504
0.00011755407
0.00010976603
0.00010030097
8.8785099e-05
7.4898318e-05
5.842444e-05
3.943704e-05
1.6804993e-05
0.00013961323
0.00013769642
0.00013403965
0.00012931467
0.00012376054
0.00011726059
0.00010949194
0.00010006452
8.8600758e-05
7.4773119e-05
5.8356008e-05
3.9412794e-05
1.6803207e-05
0.00013936404
0.00013743974
0.0001337685
0.00012902799
0.00012346528
0.00011697061
0.00010922447
9.9836572e-05
8.8424943e-05
7.4654979e-05
5.8292173e-05
3.9390477e-05
1.6801436e-05
0.00013910398
0.00013717329
0.00013349016
0.00012873793
0.00012317088
0.00011668526
0.00010896468
9.9617677e-05
8.8257911e-05
7.4543953e-05
5.82329e-05
3.9370047e-05
1.679969e-05
0.00013883556
0.00013689949
0.00013320683
0.00012844631
0.00012287875
0.00011640589
0.00010871338
9.9408275e-05
8.809983e-05
7.4440045e-05
5.8178122e-05
3.9351454e-05
1.6797979e-05
0.00013856107
0.00013662052
0.00013292044
0.00012815477
0.0001225904
0.00011613355
0.00010847123
9.9208699e-05
8.7950795e-05
7.4343205e-05
5.8127746e-05
3.9334634e-05
1.679631e-05
0.00013828252
0.00013633831
0.0001326328
0.00012786498
0.00012230713
0.00011586912
0.00010823876
9.9019187e-05
8.7810831e-05
7.4253341e-05
5.8081654e-05
3.9319517e-05
1.679469e-05
0.00013800179
0.0001360547
0.00013234562
0.0001275784
0.00012203005
0.00011561338
0.00010801639
9.8839891e-05
8.7679902e-05
7.4170323e-05
5.8039711e-05
3.9306027e-05
1.6793122e-05
0.00013772059
0.00013577136
0.00013206046
0.00012729632
0.00012176014
0.00011536695
0.00010780446
9.8670888e-05
8.7557918e-05
7.4093987e-05
5.8001765e-05
3.9294085e-05
1.6791613e-05
0.0001374405
0.00013548982
0.00013177868
0.00012701989
0.00012149824
0.00011513036
0.0001076032
9.851218e-05
8.7444741e-05
7.4024142e-05
5.7967654e-05
3.9283608e-05
1.6790164e-05
0.00013716292
0.00013521145
0.00013150153
0.00012675011
0.00012124506
0.00011490401
0.00010741274
9.8363714e-05
8.7340194e-05
7.3960578e-05
5.7937208e-05
3.9274512e-05
1.678878e-05
0.00013688915
0.00013493747
0.00013123009
0.00012648785
0.00012100121
0.00011468824
0.00010723317
9.8225379e-05
8.7244066e-05
7.3903065e-05
5.7910252e-05
3.9266717e-05
1.678746e-05
0.00013662033
0.00013466898
0.00013096533
0.00012623386
0.00012076717
0.00011448328
0.00010706449
9.8097017e-05
8.7156117e-05
7.385136e-05
5.7886605e-05
3.9260139e-05
1.6786208e-05
0.00013635746
0.00013440693
0.00013070807
0.00012598878
0.00012054334
0.00011428926
0.00010690664
9.7978428e-05
8.707608e-05
7.380521e-05
5.7866089e-05
3.92547e-05
1.6785023e-05
0.00013610144
0.00013415216
0.00013045904
0.00012575314
0.00012033003
0.00011410627
0.0001067595
9.7869373e-05
8.7003669e-05
7.3764352e-05
5.7848519e-05
3.9250321e-05
1.6783907e-05
0.00013585301
0.00013390539
0.00013021883
0.00012552737
0.00012012744
0.00011393431
0.00010662292
9.7769578e-05
8.6938576e-05
7.3728516e-05
5.7833714e-05
3.9246924e-05
1.6782858e-05
0.00013561284
0.00013366722
0.00012998795
0.00012531178
0.00011993571
0.00011377332
0.00010649667
9.7678739e-05
8.6880479e-05
7.3697424e-05
5.782149e-05
3.924443e-05
1.6781878e-05
0.00013538146
0.00013343815
0.00012976679
0.00012510664
0.00011975489
0.00011362318
0.0001063805
9.7596526e-05
8.682904e-05
7.3670796e-05
5.7811663e-05
3.9242764e-05
1.6780963e-05
0.00013515933
0.0001332186
0.00012955567
0.0001249121
0.00011958498
0.00011348372
0.00010627411
9.7522586e-05
8.6783914e-05
7.364835e-05
5.7804051e-05
3.924185e-05
1.6780115e-05
0.00013494679
0.00013300887
0.0001293548
0.00012472825
0.00011942591
0.00011335471
0.0001061772
9.7456552e-05
8.674475e-05
7.3629806e-05
5.7798479e-05
3.9241616e-05
1.6779329e-05
0.00013474413
0.00013280921
0.00012916436
0.00012455512
0.00011927755
0.00011323591
0.0001060894
9.7398047e-05
8.67112e-05
7.361489e-05
5.7794774e-05
3.9241993e-05
1.6778606e-05
0.00013455153
0.00013261978
0.00012898441
0.00012439267
0.00011913974
0.00011312704
0.00010601036
9.7346691e-05
8.6682917e-05
7.3603337e-05
5.7792777e-05
3.9242918e-05
1.6777942e-05
0.00013436914
0.00013244068
0.00012881499
0.00012424082
0.00011901227
0.00011302778
0.00010593971
9.7302103e-05
8.6659565e-05
7.3594894e-05
5.7792334e-05
3.9244332e-05
1.6777336e-05
0.00013419701
0.00013227195
0.00012865607
0.00012409944
0.00011889491
0.0001129378
0.00010587708
9.7263907e-05
8.6640816e-05
7.3589316e-05
5.7793305e-05
3.9246185e-05
1.6776785e-05
0.00013403517
0.00013211358
0.00012850757
0.00012396838
0.00011878739
0.00011285676
0.00010582208
9.723173e-05
8.662635e-05
7.3586372e-05
5.7795556e-05
3.9248428e-05
1.6776289e-05
0.00013388358
0.00013196551
0.00012836938
0.00012384741
0.00011868942
0.00011278431
0.00010577431
9.7205199e-05
8.6615856e-05
7.3585838e-05
5.7798959e-05
3.9251017e-05
1.6775844e-05
0.00013374213
0.00013182761
0.00012824132
0.0001237363
0.00011860068
0.00011272006
0.00010573339
9.7183945e-05
8.6609027e-05
7.3587496e-05
5.7803393e-05
3.9253909e-05
1.6775448e-05
0.00013361069
0.00013169973
0.00012812318
0.00012363477
0.00011852081
0.00011266361
0.00010569891
9.7167599e-05
8.6605561e-05
7.3591133e-05
5.7808735e-05
3.9257061e-05
1.67751e-05
0.00013348908
0.00013158166
0.00012801471
0.0001235425
0.00011844945
0.00011261457
0.00010567047
9.7155789e-05
8.6605157e-05
7.3596537e-05
5.7814869e-05
3.9260428e-05
1.6774797e-05
0.00013337705
0.00013147315
0.00012791563
0.00012345916
0.0001183862
0.00011257252
0.00010564765
9.7148149e-05
8.660752e-05
7.3603501e-05
5.7821675e-05
3.9263967e-05
1.6774536e-05
0.00013327435
0.00013137391
0.0001278256
0.00012338436
0.00011833065
0.00011253702
0.00010563005
9.7144314e-05
8.661236e-05
7.3611826e-05
5.7829041e-05
3.9267633e-05
1.6774315e-05
0.00013318068
0.00013128364
0.00012774429
0.00012331774
0.0001182824
0.00011250765
0.00010561725
9.7143933e-05
8.6619403e-05
7.3621323e-05
5.7836861e-05
3.9271387e-05
1.677413e-05
0.00013309571
0.00013120201
0.00012767134
0.00012325889
0.00011824102
0.00011248399
0.00010560887
9.7146671e-05
8.6628387e-05
7.3631815e-05
5.784504e-05
3.9275193e-05
1.677398e-05
0.00013301911
0.00013112866
0.00012760638
0.00012320743
0.00011820609
0.00011246563
0.00010560453
9.7152212e-05
8.6639075e-05
7.3643146e-05
5.7853493e-05
3.9279023e-05
1.677386e-05
0.00013295055
0.00013106324
0.00012754903
0.00012316295
0.00011817723
0.0001124522
0.00010560389
9.7160266e-05
8.6651248e-05
7.3655176e-05
5.7862151e-05
3.9282854e-05
1.677377e-05
0.00013288969
0.00013100542
0.00012749894
0.00012312508
0.00011815404
0.00011244331
0.00010560661
9.7170563e-05
8.666471e-05
7.3667782e-05
5.7870956e-05
3.9286671e-05
1.6773706e-05
0.00013283617
0.00013095482
0.00012745572
0.00012309344
0.00011813614
0.00011243862
0.00010561238
9.7182855e-05
8.6679282e-05
7.3680856e-05
5.7879856e-05
3.9290464e-05
1.6773667e-05
0.00013278964
0.0001309111
0.00012741903
0.00012306765
0.00011812317
0.00011243778
0.00010562091
9.7196906e-05
8.6694799e-05
7.3694297e-05
5.7888808e-05
3.9294222e-05
1.6773651e-05
0.00013274975
0.0001308739
0.00012738848
0.00012304735
0.00011811477
0.00011244046
0.00010563192
9.7212493e-05
8.6711101e-05
7.370801e-05
5.7897768e-05
3.9297937e-05
1.6773658e-05
0.00013271614
0.00013084283
0.0001273637
0.00012303215
0.00011811058
0.00011244634
0.00010564512
9.7229395e-05
8.6728032e-05
7.37219e-05
5.790669e-05
3.9301593e-05
1.6773684e-05
0.00013268842
0.00013081753
0.00012734431
0.00012302168
0.00011811024
0.00011245508
0.00010566024
9.7247394e-05
8.6745437e-05
7.373587e-05
5.7915526e-05
3.9305177e-05
1.6773729e-05
0.00013266621
0.0001307976
0.00012732991
0.00012301556
0.00011811338
0.00011246636
0.00010567699
9.7266275e-05
8.6763163e-05
7.3749824e-05
5.7924225e-05
3.9308666e-05
1.677379e-05
0.00013264911
0.00013078266
0.00012732013
0.00012301341
0.00011811965
0.00011247987
0.00010569513
9.7285831e-05
8.6781061e-05
7.3763667e-05
5.7932735e-05
3.9312042e-05
1.6773865e-05
0.00013263674
0.0001307723
0.00012731456
0.00012301484
0.0001181287
0.0001124953
0.00010571439
9.7305864e-05
8.6798992e-05
7.3777312e-05
5.7941012e-05
3.9315285e-05
1.6773952e-05
0.00013262871
0.00013076614
0.00012731283
0.00012301951
0.0001181402
0.00011251235
0.00010573453
9.7326195e-05
8.6816832e-05
7.3790684e-05
5.7949016e-05
3.9318381e-05
1.6774048e-05
0.00013262464
0.00013076382
0.00012731457
0.00012302705
0.00011815384
0.00011253077
0.00010575534
9.7346669e-05
8.6834479e-05
7.3803725e-05
5.7956722e-05
3.9321311e-05
1.6774153e-05
0.00013262419
0.00013076499
0.00012731945
0.00012303717
0.00011816934
0.00011255032
0.00010577665
9.7367155e-05
8.685185e-05
7.3816392e-05
5.796411e-05
3.9324057e-05
1.6774264e-05
0.00013262703
0.00013076931
0.00012732716
0.00012304956
0.00011818644
0.00011257079
0.00010579829
9.7387546e-05
8.6868882e-05
7.3828652e-05
5.7971158e-05
3.9326639e-05
1.6774379e-05
0.00013263285
0.0001307765
0.0001273374
0.00012306397
0.00011820492
0.000112592
0.00010582013
9.7407754e-05
8.6885528e-05
7.3840489e-05
5.7977867e-05
3.9329068e-05
1.6774498e-05
0.00013264137
0.00013078625
0.00012734991
0.00012308015
0.00011822457
0.00011261378
0.00010584205
9.7427706e-05
8.6901744e-05
7.385187e-05
5.798426e-05
3.9331356e-05
1.677462e-05
0.00013265231
0.00013079832
0.00012736443
0.00012309787
0.00011824519
0.00011263599
0.00010586395
9.744733e-05
8.6917496e-05
7.3862797e-05
5.7990343e-05
3.9333513e-05
1.6774745e-05
0.00013266541
0.00013081242
0.0001273807
0.00012311689
0.00011826659
0.00011265847
0.00010588571
9.7466555e-05
8.6932726e-05
7.3873273e-05
5.799612e-05
3.9335548e-05
1.6774872e-05
0.0001326804
0.00013082831
0.00012739849
0.00012313701
0.00011828859
0.00011268107
0.00010590722
9.74853e-05
8.6947415e-05
7.3883284e-05
5.8001592e-05
3.9337466e-05
1.6775002e-05
0.00013269701
0.00013084573
0.00012741754
0.000123158
0.00011831099
0.00011270365
0.00010592837
9.7503484e-05
8.6961528e-05
7.3892808e-05
5.800675e-05
3.9339263e-05
1.6775132e-05
0.00013271499
0.00013086441
0.00012743761
0.00012317963
0.0001183336
0.00011272603
0.00010594903
9.752105e-05
8.697502e-05
7.3901821e-05
5.8011583e-05
3.9340935e-05
1.6775263e-05
0.00013273409
0.00013088411
0.00012745846
0.00012320169
0.00011835625
0.00011274808
0.00010596911
9.753793e-05
8.6987846e-05
7.3910299e-05
5.801608e-05
3.9342475e-05
1.6775393e-05
0.00013275405
0.00013090458
0.00012747988
0.00012322398
0.00011837875
0.00011276967
0.00010598852
9.7554063e-05
8.699997e-05
7.3918222e-05
5.8020228e-05
3.9343875e-05
1.677552e-05
0.00013277466
0.00013092563
0.00012750165
0.00012324632
0.00011840095
0.00011279069
0.0001060072
9.7569401e-05
8.7011366e-05
7.3925578e-05
5.8024024e-05
3.9345132e-05
1.6775645e-05
0.00013279574
0.00013094705
0.0001275236
0.00012326855
0.00011842277
0.00011281107
0.00010602508
9.7583919e-05
8.7022025e-05
7.3932367e-05
5.8027468e-05
3.9346244e-05
1.6775765e-05
0.00013281712
0.00013096868
0.00012754558
0.00012329057
0.0001184441
0.00011283075
0.00010604215
9.7597614e-05
8.7031957e-05
7.3938606e-05
5.8030576e-05
3.9347218e-05
1.677588e-05
0.00013283868
0.00013099043
0.00012756751
0.00012331231
0.00011846491
0.00011284972
0.0001060584
9.7610504e-05
8.704119e-05
7.3944323e-05
5.8033369e-05
3.9348063e-05
1.677599e-05
0.00013286031
0.00013101217
0.0001275893
0.0001233337
0.00011848516
0.00011286797
0.00010607386
9.7622626e-05
8.7049769e-05
7.3949561e-05
5.8035881e-05
3.9348802e-05
1.6776096e-05
0.00013288194
0.00013103386
0.00012761089
0.00012335471
0.00011850485
0.00011288552
0.00010608857
9.7634028e-05
8.7057746e-05
7.3954369e-05
5.8038151e-05
3.9349453e-05
1.6776196e-05
0.00013290348
0.0001310554
0.00012763223
0.0001233753
0.00011852396
0.00011290238
0.00010610255
9.7644758e-05
8.7065172e-05
7.3958794e-05
5.8040214e-05
3.9350039e-05
1.6776294e-05
0.00013292485
0.00013107674
0.00012765324
0.00012339543
0.00011854248
0.00011291856
0.00010611584
9.7654854e-05
8.707209e-05
7.3962875e-05
5.8042099e-05
3.9350578e-05
1.6776388e-05
0.00013294596
0.00013109776
0.00012767386
0.00012341505
0.00011856037
0.00011293405
0.00010612843
9.7664334e-05
8.7078524e-05
7.3966635e-05
5.8043826e-05
3.9351079e-05
1.677648e-05
0.00013296666
0.00013111836
0.00012769399
0.00012343407
0.00011857757
0.00011294881
0.00010614033
9.7673198e-05
8.7084481e-05
7.3970082e-05
5.8045399e-05
3.9351546e-05
1.677657e-05
0.00013298683
0.00013113841
0.0001277135
0.0001234524
0.00011859401
0.00011296278
0.00010615147
9.7681421e-05
8.7089944e-05
7.3973203e-05
5.8046809e-05
3.9351971e-05
1.6776657e-05
0.00013300633
0.00013115776
0.00012773227
0.00012346992
0.00011860959
0.0001129759
0.00010616183
9.7688962e-05
8.7094882e-05
7.3975977e-05
5.8048036e-05
3.9352342e-05
1.6776741e-05
0.000133025
0.00013117628
0.00012775016