/*--------------------------------*- C++ -*----------------------------------*\
| =========                 |                                                 |
| \\      /  F ield         | OpenFOAM: The Open Source CFD Toolbox           |
|  \\    /   O peration     | Version:  2506                                  |
|   \\  /    A nd           | Website:  www.openfoam.com                      |
|    \\/     M anipulation  |                                                 |
\*---------------------------------------------------------------------------*/
FoamFile
{
    version     2.0;
    format      ascii;
    arch        "LSB;label=32;scalar=64";
    class       volVectorField;
    location    "28000/water";
    object      U;
}
// * * * * * * * * * * * * * * * * * * * * * * * * * * * * * * * * * * * * * //

dimensions      [0 1 -1 0 0 0 0];

internalField   nonuniform List<vector> 
2600
(
(0.2509291 -6.6886033e-05 1.9670862e-19)
(0.25093316 -0.00014739222 -2.6350753e-18)
(0.25094167 -0.00023143146 -4.6914498e-19)
(0.2509543 -0.00031980044 -4.6311857e-19)
(0.25097092 -0.0004082391 2.1299388e-19)
(0.25099124 -0.00049673665 1.1557591e-19)
(0.25101467 -0.0005856609 1.3788056e-19)
(0.25103908 -0.00067482201 9.8981638e-20)
(0.25105541 -0.00075972197 5.6503576e-20)
(0.25102652 -0.00083857781 -1.2056212e-19)
(0.25079811 -0.00098580402 8.0577588e-20)
(0.24954942 -0.001485464 -1.4457276e-19)
(0.2411817 0.0014904344 -3.7321634e-19)
(0.25290631 -5.2391824e-05 5.0745893e-19)
(0.25291356 -0.00012867936 -2.9591458e-18)
(0.25292967 -0.00020232594 -1.0589866e-18)
(0.25295369 -0.00027812692 -3.9885331e-19)
(0.25298503 -0.00035187867 2.1462988e-19)
(0.25302278 -0.00042368282 1.5531943e-19)
(0.25306456 -0.0004936843 2.5801181e-20)
(0.25310219 -0.00056251339 2.3219368e-19)
(0.25310631 -0.00062550536 9.8666108e-20)
(0.25297401 -0.00066089399 -1.29845e-19)
(0.25231856 -0.00068576655 5.6474537e-20)
(0.24919071 -0.0011507908 -3.744975e-19)
(0.23317376 0.00055016191 -5.4706118e-19)
(0.25485703 -5.0201261e-05 -5.308611e-19)
(0.25486389 -0.00012463928 -1.0152648e-18)
(0.2548791 -0.00019574884 -1.8273378e-18)
(0.2549016 -0.00026956178 1.8020917e-20)
(0.25493052 -0.00034177627 7.5360605e-20)
(0.25496396 -0.00041257844 1.3792038e-19)
(0.25499618 -0.00048173979 -1.2897341e-20)
(0.25500857 -0.00054996705 4.8987333e-19)
(0.25494172 -0.0006163767 3.8023071e-19)
(0.2546073 -0.0006602417 8.4648825e-20)
(0.25332071 -0.00063871076 -3.6758789e-20)
(0.2478214 -0.00092597142 -4.7289649e-19)
(0.22526486 0.00012340436 -5.6269205e-19)
(0.25664521 -4.974385e-05 1.6245361e-18)
(0.25665224 -0.00012488064 7.4722374e-19)
(0.2566674 -0.00019721364 -4.5002208e-19)
(0.2566896 -0.0002720698 9.4616388e-20)
(0.25671747 -0.00034495172 -7.1843294e-20)
(0.25674738 -0.00041609227 9.0150999e-20)
(0.25676826 -0.0004848948 9.3479915e-20)
(0.25674667 -0.00055096518 2.1868888e-19)
(0.25658539 -0.00061444887 -5.9025758e-20)
(0.2559957 -0.0006636637 5.4477291e-20)
(0.2539403 -0.00063277351 -1.3823646e-19)
(0.24583249 -0.00077044467 -3.7585935e-19)
(0.21800982 -5.9385922e-05 -4.9377551e-19)
(0.25841323 -4.8556775e-05 2.193106e-18)
(0.2584204 -0.00012219546 5.1464174e-19)
(0.25843571 -0.00019301892 3.0447226e-19)
(0.25845781 -0.00026625064 -5.8612118e-19)
(0.25848442 -0.00033744492 -9.7130759e-20)
(0.25850914 -0.00040689654 -3.6122991e-20)
(0.25851346 -0.00047389151 1.1460532e-19)
(0.25844542 -0.00053705871 -1.7377263e-19)
(0.25816424 -0.00059536594 -1.8872573e-19)
(0.25726648 -0.00064373127 -4.942494e-20)
(0.25431322 -0.0006144232 -1.5568659e-19)
(0.24352458 -0.00065114415 -2.8713895e-19)
(0.21163262 -0.00012321892 -4.3977428e-19)
(0.26015467 -4.709344e-05 1.9063679e-18)
(0.26016187 -0.0001185153 7.494068e-19)
(0.26017704 -0.0001870764 1.0721611e-18)
(0.2601984 -0.00025799462 5.0080897e-19)
(0.26022227 -0.00032687702 3.0408926e-23)
(0.26023853 -0.00039398781 -1.3266759e-19)
(0.26021927 -0.00045855461 -2.349882e-20)
(0.26009115 -0.00051865148 -2.3895868e-19)
(0.25966515 -0.00057157394 -1.6412494e-19)
(0.2584067 -0.0006148087 -7.5579533e-20)
(0.25443266 -0.00058544056 -3.8434461e-20)
(0.24102793 -0.0005571206 -5.7004347e-20)
(0.20612335 -0.00013293671 -4.1959469e-19)
(0.26183846 -4.5390267e-05 7.5112505e-19)
(0.26184561 -0.00011435405 1.5465948e-18)
(0.26186042 -0.00018050108 1.3829603e-18)
(0.26188043 -0.00024892327 1.480094e-18)
(0.26190008 -0.00031528561 3.171664e-19)
(0.26190445 -0.00037977026 9.5109087e-20)
(0.26185458 -0.00044151446 -2.0818715e-19)
(0.2616533 -0.00049832849 -2.3810602e-19)
(0.26105826 -0.00054618084 -2.8620043e-19)
(0.25938354 -0.00058222647 -9.7090446e-20)
(0.25426994 -0.00054801504 -1.3098082e-19)
(0.23842933 -0.00047868139 -1.6007172e-19)
(0.20141646 -0.00011963306 -5.4418813e-19)
(0.26345768 -4.3664882e-05 -1.9038754e-18)
(0.26346469 -0.00011008557 -6.0937956e-19)
(0.26347885 -0.00017377013 -6.27329e-19)
(0.26349678 -0.00023963045 6.9966928e-20)
(0.26351051 -0.00030340684 2.0193354e-19)
(0.26349932 -0.00036518044 9.2195093e-20)
(0.26341166 -0.00042394823 -5.2496323e-20)
(0.2631242 -0.00047735793 -6.0214861e-20)
(0.26233468 -0.00052050214 7.8284017e-20)
(0.26018092 -0.00054846095 -1.2927865e-20)
(0.25381559 -0.00050481858 -8.0215427e-20)
(0.23581666 -0.00040978299 2.6347111e-20)
(0.19745226 -9.8494617e-05 -3.7420399e-19)
(0.26501552 -4.2046877e-05 1.4375165e-18)
(0.26502225 -0.00010599907 1.3875515e-18)
(0.26503542 -0.0001673021 8.0671977e-19)
(0.26505044 -0.00023067618 5.2326732e-19)
(0.26505633 -0.00029193976 -2.0007745e-19)
(0.26502564 -0.00035106733 -1.8456608e-19)
(0.26489279 -0.0004068816 -3.1605304e-20)
(0.26450568 -0.00045685738 -5.1079252e-20)
(0.26349313 -0.00049549056 -1.9303548e-19)
(0.26078727 -0.00051473411 -3.8675531e-20)
(0.25307513 -0.00045847926 -2.3368185e-20)
(0.23327192 -0.00034737981 1.6602931e-19)
(0.19416843 -7.6932879e-05 -1.0673487e-20)
(0.2665165 -4.057706e-05 9.2948654e-19)
(0.26652283 -0.00010224007 1.0357056e-18)
(0.26653459 -0.00016134012 1.0982488e-18)
(0.26654572 -0.0002224043 5.3655022e-19)
(0.26654166 -0.00028132047 -1.619785e-20)
(0.26648729 -0.00033795568 -1.7867602e-19)
(0.26630156 -0.0003909415 -1.7690223e-19)
(0.26580019 -0.00043752442 -5.8538564e-20)
(0.26453091 -0.00047164498 -4.7354026e-20)
(0.26118849 -0.00048140525 4.9303779e-21)
(0.25206937 -0.00041120617 -3.1424746e-20)
(0.23086314 -0.00029047959 -2.5906337e-19)
(0.19149027 -5.8333256e-05 -1.0607437e-19)
(0.26796591 -3.9276698e-05 -2.1010639e-18)
(0.26797166 -9.8886215e-05 -1.0211313e-18)
(0.26798155 -0.00015601485 -1.4588459e-19)
(0.26798768 -0.00021499986 6.9618792e-19)
(0.26797137 -0.00027178437 2.902532e-19)
(0.26788889 -0.00032612646 5.7590092e-20)
(0.26764202 -0.00037645613 -6.0862077e-20)
(0.26700984 -0.00041972353 -1.8252174e-19)
(0.26544297 -0.00044912486 -1.8142772e-19)
(0.26137042 -0.00044842588 -7.964725e-20)
(0.25083979 -0.00036475941 -7.7166912e-20)
(0.22864123 -0.00023936528 -5.5263765e-19)
(0.18933265 -4.3854024e-05 -2.3571146e-19)
(0.26936985 -3.8151202e-05 -1.8096905e-19)
(0.26937484 -9.5961771e-05 -7.9112507e-19)
(0.26938229 -0.00015136516 -3.0141836e-21)
(0.2693822 -0.00020851723 6.7542909e-19)
(0.26935114 -0.00026339986 4.0010988e-19)
(0.26923575 -0.00031565718 9.855287e-20)
(0.26891866 -0.00036350366 8.8943171e-20)
(0.26813622 -0.00040351927 -1.21942e-19)
(0.26622207 -0.00042777198 -1.904002e-19)
(0.26132397 -0.00041560855 -1.8704647e-19)
(0.24944814 -0.00032041762 -1.951843e-19)
(0.22663743 -0.00019477817 -3.9877724e-19)
(0.18760708 -3.3365973e-05 -3.6809016e-19)
(0.27073452 -3.7186892e-05 1.1740461e-18)
(0.27073851 -9.3441594e-05 -3.6017434e-19)
(0.27074291 -0.00014735094 -6.9756723e-20)
(0.27073523 -0.00020290124 2.0473162e-19)
(0.27068668 -0.00025609589 4.0897668e-19)
(0.27053315 -0.00030645578 5.1592586e-20)
(0.27013553 -0.00035195662 7.7179547e-20)
(0.26917943 -0.00038871662 2.0579186e-20)
(0.26685881 -0.00040716162 -4.5827691e-20)
(0.26105041 -0.00038281108 -1.9751398e-19)
(0.24796793 -0.00027903903 -2.5000466e-19)
(0.2248628 -0.00015723519 -3.364199e-19)
(0.18622942 -2.608962e-05 -3.0519068e-19)
(0.27206549 -3.6358598e-05 -3.3453708e-19)
(0.27206822 -9.1270024e-05 -1.4954173e-19)
(0.27206885 -0.0001438843 2.2125612e-19)
(0.27205207 -0.00019803069 7.6191508e-19)
(0.27198302 -0.00024971698 -1.7102603e-19)
(0.27178551 -0.0002983267 2.6412451e-19)
(0.27129541 -0.00034156266 4.5861944e-19)
(0.27013718 -0.00037494839 -9.6198308e-20)
(0.26734241 -0.00038673535 -1.0707265e-19)
(0.2605654 -0.00035005845 -1.1194718e-19)
(0.24647172 -0.00024119444 -2.3232433e-19)
(0.22331131 -0.00012666963 -4.1127055e-19)
(0.18512583 -2.107637e-05 -3.6459979e-19)
(0.27336737 -3.5638788e-05 1.7235245e-19)
(0.27336856 -8.938186e-05 -3.7820324e-19)
(0.27336463 -0.00014086217 1.0503924e-18)
(0.27333706 -0.00019376295 1.7516132e-19)
(0.27324415 -0.00024407934 -1.4753673e-19)
(0.27299604 -0.00029103798 2.8853084e-19)
(0.27239931 -0.00033202382 1.5364008e-19)
(0.27100443 -0.00036176734 -2.0779487e-20)
(0.26766283 -0.00036596046 1.8772743e-19)
(0.25989992 -0.00031757793 -4.0602511e-20)
(0.24502002 -0.00020725745 -3.7360699e-19)
(0.22196569 -0.00010242448 -1.0216822e-19)
(0.18423545 -1.7507118e-05 -1.9045997e-19)
(0.27464382 -3.5002894e-05 6.7088987e-19)
(0.27464313 -8.7716017e-05 1.5862261e-19)
(0.27463375 -0.00013818758 5.7443073e-19)
(0.2745935 -0.00018996324 1.6598188e-19)
(0.27447297 -0.0002390078 3.5072139e-19)
(0.27416661 -0.00028436529 -1.5157533e-21)
(0.27344636 -0.00032304577 -1.9000806e-19)
(0.27177364 -0.00034871442 6.8418969e-20)
(0.26781391 -0.00034445792 -1.6082703e-19)
(0.25909705 -0.00028576382 -1.660134e-19)
(0.2436552 -0.00017740821 -3.2448971e-19)
(0.22080343 -8.347306e-05 -3.1767461e-19)
(0.18351045 -1.4804616e-05 4.875782e-20)
(0.27589768 -3.4431105e-05 1.1128163e-18)
(0.27589473 -8.6221417e-05 5.9643942e-19)
(0.27587888 -0.00013577914 -4.588885e-19)
(0.27582384 -0.00018651757 1.7923345e-19)
(0.27567139 -0.00023435206 3.7920722e-19)
(0.27529788 -0.00027811161 4.5508347e-21)
(0.27443375 -0.00031435606 8.7141629e-20)
(0.27243556 -0.00033536392 -4.3185516e-21)
(0.26779662 -0.00032206948 -2.5418435e-19)
(0.25820551 -0.00025510598 -1.7530461e-19)
(0.24240122 -0.00015160162 -7.1817651e-20)
(0.21980119 -6.8691002e-05 -3.1431397e-19)
(0.18291435 -1.2618554e-05 -2.8197307e-19)
(0.27713109 -3.3908297e-05 1.4881607e-18)
(0.27712546 -8.4858001e-05 9.028967e-19)
(0.27710201 -0.00013357264 -2.5925841e-19)
(0.27702977 -0.00018333502 2.0361215e-19)
(0.27684047 -0.00022998947 3.3577456e-19)
(0.2763893 -0.00027211088 1.1546822e-19)
(0.27535691 -0.00030570399 -6.1668784e-20)
(0.2729805 -0.00032135787 -1.1278353e-19)
(0.26762111 -0.00029886295 -1.5056271e-19)
(0.25727242 -0.00022610441 -1.7332325e-19)
(0.24126718 -0.00012956885 -1.2759566e-19)
(0.21893722 -5.7057434e-05 -1.5574712e-19)
(0.18241982 -1.0759083e-05 -2.581575e-19)
(0.27834572 -3.3423243e-05 -7.3010526e-19)
(0.27833694 -8.3595438e-05 9.2035672e-19)
(0.2783046 -0.00013151911 3.5525732e-19)
(0.27821241 -0.00018034488 7.1493718e-19)
(0.27798052 -0.00022582105 -1.2193439e-19)
(0.27743925 -0.00026622306 -1.2157611e-20)
(0.27620962 -0.00029685485 1.4352927e-19)
(0.27340008 -0.00030643644 -1.0558908e-19)
(0.26730692 -0.00027509383 -4.8479822e-20)
(0.25633756 -0.0001991843 -1.7775186e-19)
(0.24025214 -0.0001108758 -4.7317228e-20)
(0.21819234 -4.7749368e-05 -2.6519233e-19)
(0.18200662 -9.1303534e-06 -4.0186636e-19)
(0.27954284 -3.2967675e-05 -1.4610478e-18)
(0.27953036 -8.2411065e-05 1.007335e-18)
(0.27948767 -0.00012958149 1.265429e-18)
(0.27937237 -0.00017749197 2.3648532e-19)
(0.27909121 -0.00022176546 6.9899504e-20)
(0.27844503 -0.00026032527 1.7311548e-19)
(0.27698441 -0.00028758731 1.8485679e-19)
(0.27368915 -0.00029046172 -5.3022973e-20)
(0.26688073 -0.00025114512 2.8153611e-19)
(0.25543062 -0.00017462896 2.4173419e-19)
(0.2393495 -9.5013855e-05 5.3356616e-21)
(0.21755 -4.0152309e-05 -1.2666318e-19)
(0.18165972 -7.683958e-06 -1.55745e-19)
(0.28072346 -3.253541e-05 2.1348739e-18)
(0.28070667 -8.1287793e-05 6.2117467e-19)
(0.28065194 -0.00012773124 7.1718912e-19)
(0.28050986 -0.0001747318 1.7372788e-19)
(0.28017156 -0.00021775304 4.1169239e-20)
(0.27940289 -0.00025430188 3.2926938e-19)
(0.27767312 -0.00027769789 3.5130633e-19)
(0.27384765 -0.00027342828 3.1488862e-19)
(0.26637281 -0.00022746054 1.3278753e-20)
(0.2545711 -0.00015254851 -2.7776909e-19)
(0.23855012 -8.1484032e-05 -5.4856763e-19)
(0.21699614 -3.3827435e-05 -1.5020886e-19)
(0.18136794 -6.3925394e-06 1.1946435e-19)
(0.28188837 -3.2121656e-05 9.9078821e-19)
(0.28186655 -8.0212343e-05 1.397847e-18)
(0.28179785 -0.00012594549 -2.0665313e-19)
(0.28162471 -0.00017202641 9.1173417e-20)
(0.28121999 -0.00021372065 2.3943878e-19)
(0.28030804 -0.00024803604 3.1215309e-19)
(0.27826773 -0.00026701328 2.9850673e-19)
(0.27388156 -0.00025545692 4.2659738e-19)
(0.26581311 -0.00020447967 -4.8349559e-21)
(0.25377001 -0.00013289057 -6.0096178e-19)
(0.23784411 -6.9849923e-05 -5.2336459e-19)
(0.21651887 -2.8467156e-05 -1.0151891e-19)
(0.18112283 -5.2370948e-06 -8.571708e-20)
(0.28303819 -3.1722486e-05 -1.538737e-19)
(0.28301052 -7.9173849e-05 1.5712265e-18)
(0.28292559 -0.00012420469 5.0847939e-20)
(0.28271638 -0.00016934096 -1.9744282e-19)
(0.2822343 -0.00020960734 7.1351705e-19)
(0.28115476 -0.00024140494 7.4090688e-20)
(0.27876144 -0.00025540748 -1.3998621e-19)
(0.27380291 -0.00023677356 3.5496591e-19)
(0.26522808 -0.00018258168 1.3134291e-19)
(0.25303215 -0.00011548282 1.8921912e-20)
(0.23722187 -5.9756963e-05 1.2529244e-19)
(0.21610816 -2.3855674e-05 9.5471638e-20)
(0.18091788 -4.201844e-06 9.1158219e-20)
(0.28417339 -3.1334452e-05 7.9844695e-19)
(0.28413893 -7.8162818e-05 9.6900696e-20)
(0.28403512 -0.00012249081 2.9836734e-19)
(0.28378396 -0.00016664114 4.3618486e-19)
(0.28321158 -0.0002053501 -4.6269862e-20)
(0.28193659 -0.00023428041 6.0286677e-20)
(0.27914984 -0.00024281874 2.8746344e-19)
(0.27362851 -0.00021767781 5.6099737e-19)
(0.26463906 -0.00016204558 -2.0224372e-20)
(0.25235823 -0.00010008753 -3.5161299e-19)
(0.23667446 -5.0928435e-05 -2.3240969e-19)
(0.21575559 -1.9839554e-05 1.4818373e-20)
(0.18074793 -3.2726372e-06 4.4139515e-20)
(0.28529433 -3.0954305e-05 1.0675095e-18)
(0.28525196 -7.7170336e-05 -6.3083136e-19)
(0.28512619 -0.000120786 1.0508201e-18)
(0.28482614 -0.00016389138 4.1529923e-19)
(0.28414822 -0.00020087986 6.5734095e-20)
(0.28264669 -0.00022653515 2.7904499e-19)
(0.27943202 -0.00022926076 4.2558274e-19)
(0.27337791 -0.00019850622 1.2588017e-19)
(0.26406181 -0.0001430334 1.1406933e-19)
(0.25174654 -8.6449682e-05 7.3756007e-20)
(0.23619383 -4.3151083e-05 -1.3939327e-19)
(0.21545404 -1.6307483e-05 -1.3626528e-19)
(0.18060883 -2.4367077e-06 -5.1445344e-20)
(0.28640123 -3.0578784e-05 8.6513061e-19)
(0.28634965 -7.6187463e-05 8.1802094e-19)
(0.28619826 -0.00011907139 9.3542544e-19)
(0.28584114 -0.00016105348 8.8321162e-21)
(0.28503985 -0.00019611847 7.6143972e-19)
(0.2832784 -0.00021805401 2.7212514e-19)
(0.27961117 -0.00021482471 1.5863127e-19)
(0.27307114 -0.00017959427 2.8590218e-19)
(0.26350715 -0.00012559658 1.5817306e-19)
(0.25119402 -7.4328968e-05 5.1771595e-19)
(0.23577276 -3.6259373e-05 3.2226635e-19)
(0.21519748 -1.3176837e-05 -2.0194961e-20)
(0.18049716 -1.682758e-06 8.7078852e-20)
(0.28749419 -3.0204452e-05 1.0565601e-18)
(0.28743185 -7.520472e-05 3.1043045e-18)
(0.28725056 -0.00011732616 1.3922261e-19)
(0.28682673 -0.0001580853 9.4495702e-20)
(0.28588145 -0.00019097762 6.1040489e-19)
(0.28382593 -0.00020874813 4.2682039e-19)
(0.27969464 -0.00019967158 1.6326826e-19)
(0.27272685 -0.00016124193 3.1954501e-19)
(0.26298189 -0.00010969946 9.9290005e-20)
(0.25069697 -6.3515019e-05 1.8667793e-19)
(0.23540492 -3.0122542e-05 1.930969e-19)
(0.21498079 -1.0384801e-05 2.9375005e-20)
(0.18041 -1.0010023e-06 -3.8469846e-20)
(0.28857317 -2.9827535e-05 2.1107555e-18)
(0.28849825 -7.4211612e-05 7.2273817e-19)
(0.28828196 -0.00011552671 1.624443e-19)
(0.28778008 -0.00015493915 1.2704476e-19)
(0.28666738 -0.00018536089 1.7384439e-19)
(0.28428521 -0.00019856896 2.7326266e-19)
(0.27969326 -0.00018401637 4.095718e-20)
(0.27236107 -0.00014368791 2.4435665e-19)
(0.26248991 -9.5249867e-05 2.9469714e-19)
(0.25025143 -5.3830553e-05 1.5604853e-19)
(0.23508472 -2.4635271e-05 1.0763733e-19)
(0.21479959 -7.8824883e-06 7.4450514e-20)
(0.18034487 -3.8307864e-07 2.1387587e-20)
(0.28963798 -2.9443749e-05 8.0474601e-19)
(0.28954832 -7.3196105e-05 -3.6491975e-19)
(0.28929102 -0.00011364593 2.7084584e-19)
(0.2886978 -0.00015155982 8.5973749e-19)
(0.28739174 -0.00017916927 -3.9444408e-19)
(0.28465455 -0.00018751865 5.5042626e-20)
(0.27962017 -0.00016810641 6.3326686e-19)
(0.2719867 -0.00012709648 7.3739071e-19)
(0.26203302 -8.2127518e-05 1.9099882e-19)
(0.24985346 -4.512813e-05 -3.7040884e-19)
(0.23480728 -1.9711265e-05 -3.378456e-19)
(0.21465012 -5.6309914e-06 2.3784865e-20)
(0.18029962 1.7812882e-07 2.1244018e-20)
(0.29068824 -2.9047996e-05 -3.7283219e-19)
(0.29058125 -7.214382e-05 1.5919974e-19)
(0.29027586 -0.0001116522 9.0644757e-19)
(0.28957586 -0.00014788248 7.1918511e-19)
(0.28804865 -0.00017230926 -2.7701683e-20)
(0.28493523 -0.00017565385 2.8514199e-19)
(0.2794894 -0.00015219579 4.6672103e-19)
(0.2716136 -0.00011155661 -1.8427044e-20)
(0.26161163 -7.020356e-05 1.317079e-19)
(0.24949925 -3.7283206e-05 2.3933769e-19)
(0.23456828 -1.527706e-05 -1.8545627e-19)
(0.21452909 -3.5978748e-06 -1.2299186e-19)
(0.18027234 6.889164e-07 -3.0114497e-20)
(0.29172336 -2.8634279e-05 -1.9358859e-18)
(0.291596 -7.1037633e-05 -2.4020381e-19)
(0.29123415 -0.00010950892 4.6754567e-19)
(0.29040962 -0.00014383257 -6.2671177e-20)
(0.28863287 -0.00016470429 7.3930409e-19)
(0.28513156 -0.00016308395 3.3793503e-19)
(0.27931466 -0.00013652206 -2.9116488e-19)
(0.27124896 -9.7093555e-05 -1.635396e-19)
(0.26122524 -5.9353647e-05 3.0056904e-19)
(0.24918522 -3.0190175e-05 6.2005004e-19)
(0.23436395 -1.12703e-05 3.0792638e-19)
(0.2144337 -1.7305503e-06 6.0356291e-20)
(0.18026136 1.176156e-06 1.7462428e-19)
(0.29274252 -2.8196034e-05 6.0841994e-19)
(0.29259116 -6.9858459e-05 2.0589899e-18)
(0.29216305 -0.00010717576 5.8209485e-20)
(0.29119393 -0.00013933085 -4.2952188e-20)
(0.28914031 -0.00015631032 8.1480129e-19)
(0.28525057 -0.00014996782 2.2164833e-20)
(0.27910837 -0.00012129297 -8.5766777e-20)
(0.2708978 -8.3692842e-05 1.9926571e-19)
(0.26087272 -4.9471601e-05 1.4669348e-19)
(0.24890802 -2.3766773e-05 1.0221359e-19)
(0.23419085 -7.6476575e-06 3.7262246e-19)
(0.21436056 -1.6258892e-08 2.5957453e-19)
(0.18026627 1.6403964e-06 5.5169499e-20)
(0.2937446 -2.7725099e-05 5.5863881e-19)
(0.29356496 -6.8583189e-05 8.4975591e-19)
(0.29305914 -0.00010460504 9.6115052e-19)
(0.29192334 -0.00013429445 4.2686993e-20)
(0.28956868 -0.00014712078 5.128194e-19)
(0.2853013 -0.00013649478 1.7692624e-19)
(0.27888121 -0.00010666836 1.6206262e-19)
(0.27056351 -7.1310467e-05 3.2804149e-19)
(0.26055265 -4.0462887e-05 1.875059e-19)
(0.24866458 -1.7940251e-05 9.2579413e-20)
(0.23404606 -4.3539043e-06 2.4578449e-19)
(0.21430781 1.5374067e-06 2.1885335e-19)
(0.18028522 2.0563883e-06 3.1492865e-20)
(0.29472815 -2.7211025e-05 -1.0080014e-18)
(0.29451518 -6.7183245e-05 -1.3243616e-18)
(0.29391842 -0.00010173906 1.1399678e-18)
(0.29259237 -0.00012864185 1.0237521e-18)
(0.28991788 -0.00013716948 -6.7863933e-20)
(0.28529395 -0.00012286451 6.105172e-19)
(0.27864192 -9.2752914e-05 8.6708643e-19)
(0.27024822 -5.9882431e-05 5.990159e-19)
(0.26026336 -3.2238653e-05 1.3775488e-19)
(0.24845204 -1.264237e-05 -5.4056529e-19)
(0.23392646 -1.3358775e-06 -4.4237695e-19)
(0.21427448 2.956179e-06 -8.9211844e-20)
(0.18031663 2.4263127e-06 1.2976841e-20)
(0.29569132 -2.6641403e-05 9.7393387e-19)
(0.2954391 -6.5625547e-05 2.8481142e-19)
(0.29473631 -9.8512684e-05 1.3413301e-18)
(0.29319592 -0.00012230569 1.0889319e-18)
(0.29019018 -0.00012653596 1.2552907e-19)
(0.2852389 -0.00010927514 5.4449315e-19)
(0.27839743 -7.960725e-05 5.6208893e-19)
(0.26995312 -4.9342213e-05 1.2088753e-19)
(0.26000309 -2.4722166e-05 1.2202567e-19)
(0.24826773 -7.8150828e-06 1.4679857e-19)
(0.23382955 1.4151549e-06 -1.4731204e-19)
(0.21425921 4.2390836e-06 -1.6505779e-19)
(0.18035932 2.7544358e-06 -1.945416e-20)
(0.29663173 -2.6001181e-05 1.0784559e-18)
(0.29633339 -6.3871156e-05 1.4726483e-18)
(0.29550768 -9.4853894e-05 6.8122557e-19)
(0.29372976 -0.00011524119 4.5952326e-19)
(0.29039011 -0.00011533897 8.2383939e-19)
(0.28514604 -9.5905372e-05 4.5678459e-19)
(0.27815305 -6.7254125e-05 1.0233586e-19)
(0.26967872 -3.9623319e-05 1.8067625e-19)
(0.25977003 -1.7841843e-05 4.4066834e-19)
(0.24810923 -3.3839571e-06 6.1454063e-19)
(0.23375398 3.9312127e-06 4.1905831e-19)
(0.21425996 5.3906144e-06 7.1667389e-20)
(0.18041214 3.0443416e-06 1.1674733e-19)
(0.29754645 -2.527239e-05 5.2539335e-19)
(0.29719411 -6.1874451e-05 2.6346857e-18)
(0.29622706 -9.0687759e-05 4.5017218e-19)
(0.29419101 -0.00010743479 5.0761432e-19)
(0.290524 -0.00010372736 8.5242596e-19)
(0.28502427 -8.2903356e-05 4.836837e-19)
(0.27791277 -5.5688924e-05 2.0351008e-19)
(0.26942499 -3.0662221e-05 1.3700582e-19)
(0.25956226 -1.1539671e-05 1.2022234e-19)
(0.24797362 6.7590424e-07 1.5726327e-19)
(0.23369893 6.227725e-06 2.3804254e-19)
(0.21427538 6.4296391e-06 6.6670403e-20)
(0.18047413 3.3030879e-06 -1.9169754e-20)
(0.29843186 -2.4434088e-05 1.9524101e-18)
(0.29801658 -5.9582978e-05 1.9208568e-18)
(0.29688883 -8.5943392e-05 1.150148e-18)
(0.29457851 -9.8910838e-05 4.6793258e-19)
(0.29059935 -9.1868421e-05 4.1166586e-19)
(0.28488126 -7.038261e-05 1.3582497e-19)
(0.27767954 -4.4890668e-05 -1.4460533e-19)
(0.26919163 -2.2395831e-05 1.8642949e-19)
(0.25937815 -5.7364059e-06 1.7729615e-20)
(0.24785972 4.3904926e-06 1.5964246e-19)
(0.2336621 8.3016019e-06 2.8244752e-19)
(0.21430404 7.3667005e-06 1.7323151e-19)
(0.18054443 3.535466e-06 2.0982972e-20)
(0.29928359 -2.3462152e-05 7.3926178e-19)
(0.29879547 -5.6937588e-05 -4.3581565e-19)
(0.29748763 -8.0561615e-05 3.9925e-20)
(0.29489309 -8.9732419e-05 1.0444025e-18)
(0.29062422 -7.9932327e-05 -1.4086134e-19)
(0.28472341 -5.8420088e-05 2.5846156e-19)
(0.27745536 -3.4827516e-05 6.7022924e-19)
(0.26897782 -1.4770393e-05 7.1305746e-19)
(0.25921519 -3.9178577e-07 1.5167454e-19)
(0.24776702 7.7920546e-06 -4.5033364e-19)
(0.23364198 1.0181108e-05 -2.3739042e-19)
(0.21434474 8.2147659e-06 1.1025216e-19)
(0.18062225 3.7449986e-06 2.6952985e-20)
(0.30009637 -2.2329728e-05 -6.756277e-19)
(0.29952479 -5.3875492e-05 1.1953438e-18)
(0.29801875 -7.4505245e-05 7.0600879e-19)
(0.29513749 -7.9999937e-05 5.9523332e-19)
(0.29060659 -6.8080564e-05 1.9670146e-19)
(0.28455591 -4.7062463e-05 4.1641718e-19)
(0.27724164 -2.545921e-05 6.0138378e-19)
(0.2687829 -7.7156554e-06 5.2943561e-20)
(0.25907248 4.5154037e-06 2.293972e-19)
(0.24769347 1.0881393e-05 -1.5153003e-19)
(0.23363709 1.1884869e-05 -2.9210974e-19)
(0.21439637 8.983746e-06 -1.7430188e-19)
(0.1807069 3.9343492e-06 -1.6207302e-19)
(0.30086402 -2.1007835e-05 2.9655816e-18)
(0.30019808 -5.0335132e-05 3.8621982e-18)
(0.29847858 -6.7767489e-05 1.8520769e-18)
(0.29531607 -6.9843606e-05 -7.6155135e-19)
(0.29055391 -5.6454406e-05 8.356092e-19)
(0.28438287 -3.6332005e-05 2.2537811e-19)
(0.27703906 -1.6748244e-05 -2.3830749e-19)
(0.2686053 -1.1875083e-06 -4.049173e-19)
(0.25894976 9.0213525e-06 1.0774778e-19)
(0.24763751 1.3689808e-05 3.2769447e-19)
(0.23364609 1.3431097e-05 1.1490229e-19)
(0.21445793 9.6806863e-06 -3.0823208e-19)
(0.18079772 4.1050216e-06 -2.0003821e-19)
(0.30157943 -1.9467187e-05 1.3093721e-18)
(0.30080863 -4.6264331e-05 3.6744581e-18)
(0.29886499 -6.0378815e-05 1.1926053e-18)
(0.29543444 -5.9413936e-05 -1.3656127e-19)
(0.29047287 -4.5169348e-05 7.4317642e-19)
(0.28420752 -2.6229133e-05 2.3435772e-19)
(0.27684812 -8.6362497e-06 -1.9168443e-19)
(0.26844451 4.8386632e-06 -1.0116057e-19)
(0.25884557 1.3135783e-05 -1.0021033e-19)
(0.2475977 1.6244109e-05 3.4468051e-21)
(0.23366777 1.4835365e-05 -3.7848287e-21)
(0.21452852 1.0311991e-05 -2.3756799e-19)
(0.18089414 4.258533e-06 -1.5842467e-19)
(0.30223466 -1.7681565e-05 -1.8862548e-18)
(0.3013499 -4.1630418e-05 6.749286e-20)
(0.29917751 -5.2409523e-05 -5.1523114e-21)
(0.29549883 -4.8869404e-05 9.6699796e-19)
(0.29036918 -3.4313634e-05 3.8261772e-19)
(0.28403214 -1.6747495e-05 2.4361367e-19)
(0.27666826 -1.0890889e-06 5.292033e-19)
(0.26830088 1.0390996e-05 2.1085201e-19)
(0.25875851 1.6888501e-05 -4.6530115e-20)
(0.24757272 1.8568199e-05 -4.0298961e-19)
(0.23370102 1.6110033e-05 -1.5615103e-19)
(0.21460732 1.0882769e-05 -1.7898479e-19)
(0.18099561 4.3960772e-06 -1.0347795e-19)
(0.30282117 -1.5633385e-05 7.2125584e-19)
(0.30181594 -3.6431475e-05 6.5040341e-19)
(0.29941741 -4.396854e-05 3.9105353e-19)
(0.29551566 -3.836545e-05 9.5853702e-19)
(0.2902477 -2.3945206e-05 3.4458048e-19)
(0.28385859 -7.8477079e-06 2.6296792e-19)
(0.27649982 5.9141406e-06 4.5188195e-19)
(0.26817344 1.547983e-05 2.8485231e-19)
(0.25868728 2.0310855e-05 7.673763e-20)
(0.24756135 2.0682649e-05 -1.1347575e-19)
(0.23374484 1.7265713e-05 -4.7791975e-20)
(0.21469357 1.1397593e-05 -9.4510829e-20)
(0.18110164 4.5187628e-06 -8.0906437e-20)
(0.30333026 -1.3320783e-05 1.2506927e-18)
(0.30220188 -3.0705575e-05 1.2998851e-18)
(0.29958744 -3.5196358e-05 1.6876559e-18)
(0.29549103 -2.8043631e-05 7.2308679e-19)
(0.29011218 -1.4099826e-05 5.5217623e-19)
(0.28368733 4.851872e-07 2.7686026e-19)
(0.276344 1.2388914e-05 1.8936953e-19)
(0.26806118 2.0135141e-05 2.1734072e-19)
(0.2586307 2.3431365e-05 3.5930877e-19)
(0.24756246 2.2604577e-05 4.0440925e-19)
(0.23379832 1.8311482e-05 2.2108617e-19)
(0.21478659 1.1860472e-05 1.3047527e-19)
(0.18121176 4.6275507e-06 -1.9623088e-20)
(0.30375373 -1.0764897e-05 7.7147528e-19)
(0.30250438 -2.4536341e-05 1.6861459e-18)
(0.29969147 -2.6255579e-05 2.6739162e-18)
(0.29543051 -1.8024184e-05 -2.4852624e-19)
(0.28996561 -4.7857997e-06 2.0841423e-19)
(0.28352015 8.2431326e-06 6.043067e-19)
(0.27620025 1.8335896e-05 6.9010993e-19)
(0.26796311 2.438948e-05 4.3748133e-19)
(0.25858763 2.6274669e-05 3.8537717e-19)
(0.24757502 2.4348923e-05 3.6945557e-19)
(0.2338606 1.9255544e-05 2.7091024e-19)
(0.21488574 1.2275091e-05 4.0027292e-20)
(0.18132555 4.7233439e-06 -2.7186073e-20)
(0.30408466 -8.0145678e-06 3.9232437e-18)
(0.30272185 -1.8051778e-05 4.0978431e-18)
(0.29973407 -1.7315871e-05 1.8887102e-18)
(0.29533886 -8.3895717e-06 1.0654345e-19)
(0.28980995 3.9789727e-06 -6.6843557e-21)
(0.28335875 1.542451e-05 3.3250657e-19)
(0.27606809 2.3784745e-05 2.4054295e-19)
(0.26787825 2.8272293e-05 2.3238705e-19)
(0.25855702 2.8860177e-05 2.2416272e-19)
(0.24759809 2.5927626e-05 4.7796461e-19)
(0.23393092 2.0104421e-05 3.3846112e-19)
(0.21499043 1.2644238e-05 3.0712316e-19)
(0.1814426 4.8067262e-06 8.1931252e-20)
(0.30431819 -5.1449376e-06 2.6604575e-18)
(0.3028546 -1.1412627e-05 -5.219815e-19)
(0.29971994 -8.5331505e-06 -1.0466279e-18)
(0.29521955 7.8209218e-07 1.2701647e-18)
(0.28964857 1.2143088e-05 5.4416027e-19)
(0.28320331 2.2022625e-05 3.8668105e-19)
(0.27594691 2.8765126e-05 7.7016474e-19)
(0.26780566 3.1808699e-05 -1.2109813e-20)
(0.25853789 3.1205178e-05 9.1895941e-20)
(0.24763076 2.7351718e-05 5.1651536e-20)
(0.23400854 2.0864205e-05 1.3516579e-19)
(0.2151001 1.2970556e-05 2.6427409e-19)
(0.18156252 4.878288e-06 1.3477949e-19)
(0.30445221 -2.2472285e-06 -1.1252125e-18)
(0.30290466 -4.7892291e-06 6.8696915e-19)
(0.2996534 -5.7437767e-08 -2.6344051e-19)
(0.29507686 9.3868752e-06 8.3030317e-19)
(0.28948321 1.9670551e-05 5.205105e-19)
(0.28305385 2.8057798e-05 3.0924277e-19)
(0.27583605 3.3302673e-05 2.0133378e-19)
(0.26774441 3.5018187e-05 -5.9550798e-20)
(0.25852929 3.3323429e-05 9.6537776e-20)
(0.24767222 2.8629906e-05 -1.0439704e-19)
(0.23409279 2.1539489e-05 -2.7054677e-20)
(0.21521426 1.3255892e-05 2.0702269e-20)
(0.18168496 4.9383557e-06 2.5261612e-20)
(0.30448759 5.8143238e-07 -1.0980253e-18)
(0.30287533 1.633197e-06 2.8788398e-18)
(0.29953939 7.9403829e-06 1.3368879e-18)
(0.29491434 1.7334237e-05 4.7815505e-19)
(0.28931491 2.6550376e-05 1.072263e-20)
(0.28291026 3.3548706e-05 -2.2582368e-19)
(0.2757348 3.7416508e-05 -8.1553708e-19)
(0.26769361 3.7916257e-05 -1.7233348e-19)
(0.25853035 3.5226096e-05 -6.5065685e-20)
(0.24772169 2.9769062e-05 3.0230168e-19)
(0.23418305 2.2133722e-05 1.5565961e-19)
(0.2153324 1.350152e-05 2.222953e-19)
(0.18180955 4.9870811e-06 6.2426841e-20)
(0.30442824 3.2381377e-06 1.269472e-18)
(0.30277199 7.6569811e-06 2.3794045e-18)
(0.29938292 1.5303996e-05 2.6041897e-18)
(0.29473444 2.4565359e-05 -2.7760305e-19)
(0.28914434 3.2781681e-05 2.4691035e-20)
(0.28277222 3.8508107e-05 2.5299096e-19)
(0.27564244 4.1120431e-05 -1.0238258e-19)
(0.26765239 4.0514569e-05 6.4282658e-20)
(0.25854021 3.6921342e-05 -2.2382969e-19)
(0.24777843 3.0773882e-05 2.4453023e-19)
(0.23427872 2.2648986e-05 2.7299821e-19)
(0.21545406 1.3708006e-05 -1.0759955e-19)
(0.18193595 5.0243879e-06 3.4675742e-20)
(0.30428147 5.6355873e-06 2.9758558e-18)
(0.30260141 1.3122376e-05 3.9220803e-18)
(0.29918843 2.1930411e-05 2.8008905e-18)
(0.29453912 3.1047507e-05 7.8898915e-19)
(0.28897192 3.836267e-05 9.0999102e-19)
(0.28263933 4.294353e-05 5.0096336e-19)
(0.2755582 4.4423821e-05 1.9256651e-19)
(0.26761989 4.2820967e-05 3.4748642e-19)
(0.25855808 3.8414236e-05 1.6852959e-19)
(0.24784174 3.1646835e-05 1.0391812e-19)
(0.23437921 2.3085948e-05 2.7065618e-19)
(0.21557877 1.3875162e-05 5.9596634e-20)
(0.18206381 5.049949e-06 4.3827193e-20)
(0.30405678 7.720541e-06 -2.3681672e-19)
(0.30237113 1.7926705e-05 1.8465682e-18)
(0.29896016 2.7756808e-05 1.5911899e-18)
(0.29433004 3.6759509e-05 6.9171363e-19)
(0.28879784 4.3290992e-05 5.304611e-19)
(0.2825111 4.6859604e-05 9.9456661e-20)
(0.2754813 4.7332597e-05 -8.0868513e-20)
(0.26759529 4.483994e-05 2.3941201e-20)
(0.25858316 3.9707095e-05 1.499147e-19)
(0.24791094 3.2388396e-05 1.996345e-19)
(0.23448396 2.3443997e-05 1.1588767e-19)
(0.21570609 1.400211e-05 1.3637355e-19)
(0.18219278 5.0632088e-06 9.9199063e-20)
(0.30376497 9.4676919e-06 1.718255e-19)
(0.30208913 2.201548e-05 1.0741275e-18)
(0.29870222 3.2751926e-05 -4.2022617e-19)
(0.29410866 4.1691456e-05 -8.0403723e-21)
(0.2886222 4.7566323e-05 -1.0916297e-20)
(0.28238699 5.0259494e-05 4.8533197e-19)