/*--------------------------------*- C++ -*----------------------------------*\
| =========                 |                                                 |
| \\      /  F ield         | OpenFOAM: The Open Source CFD Toolbox           |
|  \\    /   O peration     | Version:  2506                                  |
|   \\  /    A nd           | Website:  www.openfoam.com                      |
|    \\/     M anipulation  |                                                 |
\*---------------------------------------------------------------------------*/
FoamFile
{
    version     2.0;
    format      ascii;
    arch        "LSB;label=32;scalar=64";
    class       volScalarField;
    location    "15000/water";
    object      alphat;
}
// * * * * * * * * * * * * * * * * * * * * * * * * * * * * * * * * * * * * * //

dimensions      [1 -1 -1 0 0 0 0];

internalField   nonuniform List<scalar> 
6000
(
0.041292847
0.041292824
0.041292831
0.041292856
0.041292889
0.041292932
0.041292983
0.041293016
0.041292808
0.041290571
0.041271537
0.041111294
0.0397723
0.030564074
0.013464793
0.040788543
0.040788537
0.040788576
0.040788654
0.040788758
0.040788888
0.04078902
0.040788972
0.040787494
0.040776037
0.040696382
0.040161217
0.036863805
0.023766469
0.015141611
0.04033569
0.040335696
0.040335761
0.040335884
0.040336044
0.040336229
0.04033633
0.040335685
0.040330323
0.040296649
0.040097616
0.038983223
0.033614213
0.0194951
0.016360294
0.039926215
0.039926219
0.039926301
0.039926459
0.03992666
0.039926848
0.039926701
0.039924457
0.039910659
0.039835636
0.039448738
0.037597438
0.030384627
0.016783058
0.017196555
0.039553796
0.039553808
0.039553906
0.039554093
0.039554312
0.039554413
0.039553622
0.0395481
0.039519187
0.039379112
0.038737841
0.036066498
0.027427863
0.015063192
0.01773179
0.039213273
0.039213296
0.039213408
0.039213613
0.039213809
0.039213657
0.039211571
0.039200298
0.039147643
0.038916647
0.037965398
0.034462847
0.024852826
0.013984463
0.018040007
0.038900366
0.038900399
0.038900521
0.038900723
0.038900826
0.038900159
0.038895819
0.03887551
0.038788999
0.038441492
0.037140256
0.032849727
0.022675913
0.013336844
0.018183117
0.038611532
0.038611573
0.038611697
0.038611866
0.038611765
0.038610199
0.038602307
0.038568928
0.038437606
0.037950377
0.036275872
0.031274836
0.020870828
0.012994967
0.018210197
0.038343817
0.038343862
0.038343975
0.038344065
0.038343601
0.038340605
0.038327517
0.03827644
0.038089201
0.037442856
0.03538704
0.029770035
0.019396999
0.012882914
0.018158676
0.038094736
0.03809478
0.038094862
0.038094803
0.038093753
0.038088644
0.038068396
0.037994592
0.037740813
0.036920505
0.03448763
0.028354169
0.018213448
0.012953916
0.018056304
0.037862183
0.037862216
0.037862238
0.037861935
0.037860009
0.037851941
0.037822294
0.037720559
0.037390607
0.036386134
0.033589398
0.02703684
0.017284481
0.013178532
0.017923231
0.03764436
0.037644371
0.037644291
0.037643618
0.037640447
0.037628426
0.037586933
0.037452106
0.037037684
0.035843147
0.032701562
0.025821837
0.016581272
0.013537499
0.017773886
0.037439726
0.037439699
0.03743946
0.037438254
0.037433393
0.037416287
0.037360374
0.037187532
0.036681868
0.035295042
0.031830871
0.02470985
0.016081614
0.014017191
0.017618497
0.037246949
0.037246861
0.037246392
0.037244452
0.037237378
0.037213943
0.037140989
0.036925609
0.0363235
0.034745073
0.030981931
0.023700436
0.015768976
0.014606606
0.017464261
0.037064871
0.037064693
0.037063903
0.037060987
0.037051109
0.037020016
0.036927437
0.036665512
0.035963258
0.03419604
0.030157673
0.022793377
0.015631332
0.015295285
0.017316197
0.03689248
0.036892177
0.036890955
0.036886782
0.036873442
0.036833316
0.036718634
0.03640675
0.035602004
0.033650187
0.029359858
0.021989539
0.015659917
0.016071914
0.01717775
0.036728885
0.036728414
0.036726628
0.036720878
0.03670337
0.036652818
0.036513731
0.036149096
0.035240656
0.033109157
0.028589603
0.021291346
0.015847992
0.016923492
0.017051196
0.036573301
0.03657261
0.036570106
0.036562424
0.036540005
0.036477653
0.03631208
0.035892529
0.034880099
0.032574024
0.027847913
0.02070292
0.016189617
0.01783505
0.016937915
0.036425028
0.036424056
0.036420663
0.036410663
0.036382564
0.036307092
0.036113215
0.03563717
0.034521109
0.032045349
0.027136212
0.020229919
0.016678486
0.018789895
0.016838558
0.036283441
0.03628212
0.036277645
0.036264917
0.036230367
0.036140535
0.03591682
0.035383242
0.034164308
0.031523285
0.026456862
0.019879123
0.017306891
0.019770317
0.016753165
0.036147982
0.036146234
0.036140468
0.036124584
0.036082821
0.035977497
0.035722708
0.035131018
0.033810124
0.031007717
0.025813646
0.019657797
0.018064912
0.0207586
0.016681265
0.036018143
0.036015885
0.036008605
0.035989127
0.035939416
0.035817597
0.035530799
0.034880794
0.033458783
0.030498445
0.025212142
0.019572905
0.018939949
0.021738147
0.016621966
0.03589347
0.03589061
0.035881581
0.035858069
0.035799718
0.035660549
0.035341095
0.034632853
0.033110301
0.029995409
0.024659951
0.019630248
0.019916664
0.02269449
0.016574063
0.035773545
0.035769987
0.035758968
0.035730991
0.035663366
0.035506152
0.035153669
0.034387441
0.032764498
0.029498968
0.024166686
0.019833637
0.020977366
0.023616003
0.016536152
0.035657992
0.035653635
0.035640383
0.035607524
0.035530063
0.035354279
0.034968643
0.03414475
0.03242103
0.029010211
0.023743688
0.020184173
0.022102784
0.024494228
0.016506745
0.035546464
0.035541207
0.035525479
0.035487349
0.035399574
0.035204869
0.034786172
0.033904896
0.032079439
0.028531302
0.023403466
0.020679734
0.023273104
0.025323802
0.016484372
0.035438647
0.035432386
0.035413948
0.035370193
0.035271718
0.035057919
0.034606436
0.03366791
0.03173923
0.028065808
0.023158915
0.021314706
0.0244691
0.026102089
0.016467662
0.035334251
0.035326887
0.035305516
0.035255823
0.03514637
0.034913479
0.03442962
0.033433727
0.031399978
0.02761899
0.023022388
0.022080017
0.02567317
0.026828633
0.016455398
0.035233012
0.035224448
0.035199939
0.03514405
0.035023453
0.034771643
0.034255909
0.033202186
0.031061475
0.027197981
0.02300477
0.022963453
0.026870128
0.027504567
0.016446543
0.035134691
0.035124836
0.035097009
0.035034724
0.034902936
0.03463254
0.03408547
0.032973033
0.030723902
0.0268118
0.023114634
0.02395025
0.02804767
0.028132079
0.016440248
0.035039067
0.03502784
0.034996542
0.034927732
0.034784832
0.034496333
0.033918446
0.032745938
0.030388046
0.026471168
0.023357597
0.025023884
0.02919649
0.028713983
0.016435834
0.034945943
0.034933275
0.034898386
0.034822996
0.034669194
0.034363211
0.033754944
0.032520522
0.030055535
0.026188099
0.023735915
0.026166983
0.030310099
0.029253407
0.016432778
0.034855141
0.034840974
0.034802418
0.034720475
0.034556112
0.034233382
0.033595029
0.032296402
0.029729078
0.025975302
0.024248334
0.027362251
0.031384439
0.029753594
0.016430685
0.034766502
0.034750797
0.03470854
0.034620164
0.034445715
0.034107066
0.033438713
0.032073259
0.029412693
0.025845434
0.02489019
0.028593298
0.032417399
0.030217765
0.016429265
0.034679887
0.034662624
0.034616684
0.034522088
0.034338162
0.033984492
0.033285952
0.031850929
0.029111866
0.025810314
0.025653731
0.029845306
0.033408314
0.030649046
0.016428312
0.034595176
0.034576356
0.034526808
0.034426308
0.034233647
0.033865888
0.033136649
0.03162952
0.028833633
0.025880169
0.026528619
0.031105458
0.034357529
0.031050409
0.016427682
0.034512269
0.034491917
0.034438897
0.034332917
0.034132389
0.033751478
0.032990657
0.031409555
0.028586514
0.02606301
0.027502554
0.032363144
0.035266042
0.031424648
0.01642728
0.034431083
0.034409252
0.034352965
0.034242042
0.034034637
0.033641469
0.032847794
0.031192142
0.028380315
0.026364175
0.028561978
0.033609948
0.036135248
0.031774346
0.016427047
0.034351558
0.034328331
0.034269052
0.034153841
0.033940664
0.03353605
0.032707869
0.03097915
0.028225758
0.02678609
0.029692788
0.034839473
0.03696677
0.032101874
0.01642695
0.034273652
0.034249145
0.03418723
0.034068505
0.03385076
0.033435383
0.03257072
0.030773393
0.028133997
0.02732822
0.030880993
0.036047067
0.037762344
0.032409381
0.016426974
0.034197344
0.03417171
0.034107598
0.033986257
0.033765237
0.033339598
0.032436275
0.030578781
0.028116032
0.027987224
0.032113284
0.037229503
0.038523755
0.032698799
0.016427117
0.034122637
0.034096065
0.034030285
0.033907355
0.033684417
0.033248788
0.032304627
0.030400435
0.028182107
0.02875725
0.033377461
0.038384663
0.039252794
0.032971855
0.016427382
0.034049553
0.034022276
0.033955452
0.033832084
0.033608631
0.033163012
0.03217613
0.030244714
0.02834114
0.029630358
0.034662707
0.039511266
0.039951228
0.033230086
0.016427779
0.03397814
0.033950437
0.033883292
0.033760766
0.033538214
0.033082299
0.032051523
0.030119154
0.028600247
0.030597021
0.035959728
0.040608641
0.040620777
0.033474856
0.016428318
0.033908471
0.033880668
0.033814033
0.033693749
0.033473498
0.033006661
0.031932061
0.03003229
0.028964396
0.031646652
0.037260744
0.041676559
0.0412631
0.033707373
0.01642901
0.033840644
0.033813121
0.033747936
0.033631414
0.033414804
0.032936115
0.031819661
0.029993369
0.029436211
0.03276813
0.038559405
0.042715108
0.04187978
0.033928705
0.016429865
0.033774787
0.03374798
0.033685299
0.033574167
0.033362441
0.032870717
0.031717044
0.030011961
0.030015933
0.033950284
0.039850629
0.043724612
0.042472314
0.034139802
0.016430892
0.033711057
0.03368546
0.033626458
0.03352244
0.033316699
0.032810615
0.031627853
0.030097519
0.030701523
0.035182301
0.041130415
0.044705564
0.043042113
0.034341502
0.016432097
0.033649643
0.033625814
0.033571787
0.033476689
0.033277844
0.032756113
0.031556734
0.030258903
0.031488877
0.036454043
0.042395663
0.045658586
0.043590498
0.034534552
0.016433487
0.03359077
0.033569333
0.033521698
0.033437387
0.03324612
0.032707756
0.031509357
0.030503938
0.032372143
0.037756265
0.043643994
0.046584395
0.044118699
0.034719617
0.016435064
0.033534699
0.033516348
0.033476647
0.033405019
0.033221753
0.032666433
0.031492358
0.030839027
0.033344086
0.039080734
0.044873611
0.047483769
0.044627864
0.034897289
0.016436831
0.033481731
0.033467235
0.033437127
0.033380083
0.033204961
0.032633491
0.031513197
0.031268865
0.034396491
0.040420263
0.046083175
0.048357533
0.045119059
0.035068096
0.016438788
0.033432211
0.033422413
0.033403675
0.033363077
0.033195978
0.032610856
0.031579923
0.031796265
0.035520554
0.041768689
0.047271717
0.04920653
0.045593277
0.035232514
0.016440933
0.033386531
0.033382352
0.033376864
0.033354498
0.033195078
0.032601151
0.031700872
0.032422091
0.036707256
0.043120788
0.048438563
0.050031615
0.046051438
0.035390969
0.016443266
0.033345134
0.033347573
0.033357309
0.033354836
0.033202628
0.032607793
0.031884308
0.033145319
0.037947676
0.044472182
0.049583283
0.050833634
0.046494399
0.035543845
0.016445782
0.033308518
0.033318652
0.033345661
0.033364572
0.033219143
0.032635062
0.032138044
0.03396318
0.039233254
0.045819225
0.050705642
0.051613424
0.046922954
0.03569149
0.016448478
0.033277237
0.03329622
0.033342601
0.033384174
0.033245364
0.032688112
0.032469073
0.034871386
0.040555971
0.047158896
0.051805564
0.052371799
0.047337843
0.03583422
0.016451351
0.033251914
0.033280969
0.033348845
0.033414107
0.033282346
0.032772919
0.032883251
0.035864404
0.041908477
0.048488706
0.052883106
0.053109552
0.047739752
0.035972322
0.016454394
0.033233235
0.033273652
0.033365129
0.033454836
0.033331565
0.032896169
0.033385039
0.036935765
0.043284147
0.049806611
0.053938425
0.053827448
0.048129323
0.036106055
0.016457604
0.033221962
0.033275082
0.033392211
0.033506852
0.033395018
0.033065054
0.033977341
0.038078371
0.044677093
0.051110942
0.054971764
0.054526225
0.048507149
0.036235661
0.016460974
0.033218934
0.033286139
0.033430864
0.033570697
0.033475333
0.033287026
0.034661428
0.039284785
0.046082138
0.052400348
0.055983424
0.055206592
0.048873787
0.036361358
0.016464499
0.033225073
0.033307763
0.033481871
0.033647009
0.033575847
0.033569488
0.035436957
0.040547498
0.047494768
0.05367375
0.05697376
0.055869231
0.049229759
0.036483356
0.016468174
0.033241386
0.033340955
0.033546021
0.033736578
0.033700661
0.033919481
0.036302071
0.041859141
0.048911072
0.054930296
0.057943153
0.056514771
0.049575445
0.036601084
0.016471991
0.033268972
0.03338678
0.033624112
0.03384042
0.033854651
0.034343364
0.037253559
0.043212658
0.050327673
0.056169324
0.058892009
0.057143808
0.049911243
0.03671488
0.016475942
0.033309023
0.033446355
0.033716952
0.033959858
0.034043418
0.034846536
0.038287074
0.044601421
0.051741664
0.057390337
0.059820743
0.05775691
0.050237555
0.036825045
0.016480019
0.033362829
0.033520851
0.033825374
0.034096624
0.034273177
0.035433212
0.039397367
0.046019306
0.05315055
0.058592971
0.060729786
0.058354631
0.050554794
0.03693185
0.016484214
0.033431774
0.033611489
0.033950254
0.034252947
0.034550581
0.036106261
0.040578544
0.047460724
0.054552199
0.059776981
0.061619564
0.058937446
0.050862918
0.037035579
0.016488518
0.033517342
0.03371953
0.034092543
0.034431655
0.0348825
0.036867134
0.041824302
0.048920629
0.055944787
0.060942211
0.062490502
0.0595058
0.051162144
0.037136393
0.016492923
0.033621112
0.033846278
0.034253316
0.034636235
0.035275744
0.037715856
0.04312815
0.050394499
0.057326767
0.062088584
0.063343017
0.060060148
0.051452972
0.03723438
0.016497425
0.033744755
0.033993075
0.034433825
0.034870887
0.035736783
0.038651102
0.044483602
0.051878303
0.058696827
0.063216087
0.064177529
0.060600955
0.051735839
0.037329648
0.016502018
0.033890031
0.034161302
0.034635578
0.035140507
0.036271467
0.039670316
0.045884325
0.053368465
0.060053863
0.064324762
0.064994444
0.061128551
0.052011148
0.037422324
0.0165067
0.034058783
0.034352397
0.034860423
0.03545064
0.036884771
0.040769888
0.047324257
0.054861824
0.061396949
0.06541469
0.065794112
0.061642923
0.052279289
0.037512555
0.016511467
0.034252932
0.034567863
0.035110643
0.035807354
0.037580594
0.041945352
0.048797682
0.056355589
0.062725312
0.066485979
0.066576896
0.06214464
0.052540465
0.037600445
0.016516317
0.034474476
0.034809303
0.035389041
0.036217071
0.038361615
0.043191593
0.050299281
0.057847305
0.064038312
0.067538764
0.067343179
0.062634216
0.052794898
0.037686079
0.016521246
0.034725484
0.035078463
0.035699025
0.036686345
0.039229216
0.044503057
0.05182415
0.059334811
0.065335419
0.068573213
0.068093361
0.063112109
0.053042816
0.037769537
0.016526252
0.035008106
0.03537729
0.036044657
0.037221601
0.040183478
0.045873937
0.053367803
0.060816216
0.066616208
0.069589468
0.06882734
0.063578782
0.053284471
0.037850914
0.01653133
0.035324588
0.035708001
0.036430674
0.037828872
0.04122324
0.047298349
0.054926162
0.062289861
0.067880324
0.070587684
0.069545595
0.064034543
0.053520071
0.037930298
0.016536478
0.03567729
0.036073173
0.036862449
0.038513536
0.042346203
0.048770462
0.056495532
0.063754292
0.069127477
0.071568049
0.070248599
0.064479694
0.053749802
0.038007763
0.016541692
0.036068734
0.036475829
0.037345903
0.039280091
0.043549082
0.05028461
0.058072576
0.065208234
0.070357441
0.072530789
0.070936786
0.064914529
0.053973843
0.038083375
0.016546969
0.036501653
0.036919528
0.03788736
0.04013197
0.044827781
0.05183537
0.059654295
0.066650583
0.071570032
0.073475752
0.071610539
0.065339347
0.054192383
0.038157195
0.016552304
0.036979066
0.03740843
0.038493336
0.041071418
0.046177578
0.053417615
0.061237988
0.068080361
0.072765075
0.074403238
0.072270207
0.065754411
0.054405601
0.038229284
0.016557696
0.037504352
0.037947343
0.039170305
0.042099439
0.047593306
0.055026539
0.062821226
0.069496698
0.073942457
0.07531357
0.072916106
0.066159968
0.054613653
0.038299696
0.01656314
0.038081338
0.038541718
0.039924433
0.043215796
0.049069524
0.056657676
0.064401829
0.070898842
0.075102035
0.07620703
0.073548532
0.066556259
0.054816687
0.038368481
0.016568633
0.038714371
0.039197585
0.040761309
0.044419078
0.050600666
0.058306896
0.065977845
0.07228612
0.076243596
0.077083861
0.074167762
0.066943525
0.055014843
0.038435684
0.016574171
0.039408371
0.039921431
0.041685708
0.045706807
0.05218117
0.059970393
0.067547503
0.073657909
0.077367161
0.077944366
0.074774054
0.067321988
0.055208253
0.038501347
0.016579752
0.040168828
0.040720011
0.042701383
0.047075588
0.053805571
0.061644664
0.0691092
0.075013672
0.078472814
0.078788797
0.075367659
0.067691852
0.055397039
0.038565507
0.016585372
0.041001759
0.041600104
0.043810916
0.048521269
0.055468585
0.06332652
0.070661528
0.076352805
0.079560481
0.079617356
0.075948826
0.068053311
0.055581314
0.0386282
0.016591028
0.041913574
0.042568225
0.045015637
0.050039114
0.057165151
0.065013016
0.07220314
0.077674842
0.080630352
0.080430243
0.076517787
0.068406551
0.055761185
0.038689457
0.016596715
0.042910876
0.043630324
0.046315598
0.051623971
0.058890464
0.066701442
0.073732813
0.078979468
0.081682557
0.081227655
0.077074759
0.068751744
0.055936749
0.038749307
0.016602432
0.044000184
0.04479148
0.04770961
0.053270425
0.06064001
0.068389362
0.075249407
0.08026621
0.082717143
0.082009787
0.077619944
0.069089049
0.056108098
0.038807775
0.016608175
0.045187594
0.046055635
0.049195331
0.054972931
0.062409537
0.070074456
0.076751822
0.081534973
0.083734168
0.082776822
0.078153536
0.069418615
0.056275315
0.038864886
0.016613941
0.046478415
0.047425371
0.050769387
0.056725915
0.064195057
0.071754581
0.078239118
0.082785631
0.084733703
0.083528927
0.078675713
0.069740582
0.056438478
0.038920659
0.016619726
0.047876798
0.048901747
0.052427518
0.058523886
0.06599289
0.073427771
0.079710275
0.084017964
0.08571581
0.084266258
0.079186641
0.070055079
0.056597659
0.038975115
0.016625528
0.049385403
0.050484217
0.054164729
0.060361447
0.067799497
0.075092075
0.08116481
0.085231794
0.086680546
0.08498896
0.079686475
0.070362224
0.056752922
0.039028271
0.016631343
0.05100513
0.052170614
0.055975453
0.062233408
0.069611624
0.076745548
0.082602107
0.086426953
0.087627956
0.085697164
0.080175354
0.070662126
0.056904326
0.039080139
0.016637168
0.052734941
0.0539572
0.057853661
0.064134686
0.071426058
0.07838681
0.084021564
0.087603271
0.088558074
0.086390984
0.080653405
0.070954884
0.057051926
0.039130734
0.016643
0.054571799
0.055838786
0.059793019
0.06606041
0.073239582
0.080014577
0.085422615
0.088760578
0.08947092
0.087070521
0.081120742
0.071240585
0.057195769
0.039180066
0.016648837
0.056510704
0.057808867
0.061786892
0.068005676
0.075049635
0.081627601
0.086804712
0.089898694
0.090366499
0.087735856
0.081577462
0.071519308
0.057335896
0.039228144
0.016654675
0.058544852
0.05985981
0.063828432
0.069965707
0.076853858
0.083224697
0.08816732
0.09101743
0.091244797
0.088387053
0.082023648
0.07179112
0.057472343
0.039274973
0.016660511
0.060665805
0.061982928
0.065910516
0.071936353
0.078650008
0.084804725
0.089509907
0.09211658
0.092105778
0.089024157
0.082459366
0.072056075
0.057605138
0.039320557
0.016666343
0.062863703
0.064168849
0.06802633
0.073913617
0.080435944
0.086366587
0.090831944
0.093195922
0.092949386
0.089647189
0.082884665
0.072314217
0.057734303
0.039364898
0.016672167
0.065127714
0.066407796
0.070169104
0.075893636
0.082209613
0.087909216
0.092132893
0.094255216
0.09377554
0.09025615
0.083299576
0.072565575
0.057859853
0.039407994
0.01667798
0.067446419
0.068689774
0.07233215
0.077872672
0.083969035
0.089431568
0.093412214
0.095294197
0.094584134
0.090851016
0.083704111
0.072810168
0.057981794
0.03944984
0.016683779
0.06980816
0.071004764
0.074508899
0.079847097
0.085712294
0.090932616
0.094669354
0.09631258
0.095375035
0.091431742
0.084098264
0.073048
0.058100126
0.039490429
0.016689561
0.072201353
0.073342906
0.076692934
0.081813389
0.087437527
0.09241135
0.09590375
0.097310057
0.096148087
0.091998257
0.08448201
0.07327906
0.058214841
0.039529752
0.016695322
0.074614748
0.075694653
0.078878033
0.083768122
0.089142919
0.093866774
0.097114832
0.098286299
0.096903108
0.092550469
0.084855304
0.073503327
0.058325922
0.039567794
0.016701058
0.077037639
0.078050901
0.081058205
0.085707976
0.090826703
0.095297902
0.098302021
0.099240959
0.097639894
0.093088263
0.085218085
0.073720765
0.058433345
0.039604539
0.016706767
0.079460016
0.080403091
0.083227727
0.087629737
0.092487152
0.096703766
0.099464736
0.10017368
0.09835822
0.093611504
0.085570273
0.073931326
0.058537081
0.039639968
0.016712443
0.081872665
0.082743282
0.085381184
0.089530308
0.09412259
0.098083416
0.10060239
0.10108407
0.099057847
0.094120041
0.085911774
0.074134953
0.05863709
0.039674059
0.016718083
0.084267235
0.085064203
0.087513497
0.091406724
0.095731393
0.099435923
0.10171442
0.10197177
0.099738519
0.094613706
0.086242481
0.074331575
0.058733331
0.039706789
0.016723681
0.086636255
0.087359279
0.089619952
0.093256163
0.097311993
0.10076039
0.10280025
0.10283639
0.10039998
0.095092322
0.086562275
0.074521117
0.058825754
0.039738132
0.016729235
0.08897313
0.089622635
0.091696217
0.095075965
0.098862895
0.10205594
0.10385933
0.10367756
0.10104195
0.095555703
0.086871031
0.074703493
0.058914307
0.039768059
0.016734738
0.09127211
0.091849087
0.093738361
0.096863642
0.10038267
0.10332177
0.10489114
0.10449492
0.10166418
0.096003659
0.087168614
0.074878615
0.058998933
0.039796542
0.016740186
0.09352825
0.09403412
0.09574285
0.098616893
0.10186999
0.10455708
0.10589519
0.10528811
0.10226642
0.096436002
0.087454889
0.075046389
0.059079574
0.039823552
0.016745574
0.095737354
0.096173854
0.097706557
0.10033362
0.10332361
0.10576116
0.10687102
0.10605681
0.1028484
0.096852547
0.087729721
0.075206722
0.05915617
0.039849057
0.016750896
0.097895916
0.098265004
0.099626745
0.10201191
0.10474238
0.10693334
0.10781821
0.10680072
0.10340992
0.097253117
0.087992978
0.075359519
0.059228662
0.03987303
0.016756148
0.10000106
0.10030484
0.10150106
0.10365009
0.10612527
0.10807302
0.10873639
0.10751959
0.10395076
0.097637547
0.088244532
0.075504689
0.05929699
0.039895439
0.016761323
0.10205046
0.10229112
0.10332751
0.10524667
0.10747135
0.10917966
0.10962523
0.10821318
0.10447074
0.09800569
0.088484265
0.075642144
0.059361099
0.039916256
0.016766416
0.10404231
0.10422208
0.10510445
0.10680037
0.10877982
0.11025282
0.11048446
0.1088813
0.10496971
0.098357414
0.08871207
0.075771804
0.059420933
0.039935455
0.016771422
0.10597524
0.10609635
0.10683056
0.10831014
0.11004999
0.11129209
0.11131386
0.10952381
0.10544754
0.098692611
0.088927853
0.075893594
0.059476443
0.03995301
0.016776335
0.10784827
0.10791294
0.10850478
0.10977508
0.11128127
0.11229716
0.11211326
0.1101406
0.10590415
0.099011196
0.089131534
0.076007449
0.059527584
0.039968898
0.01678115
0.10966076
0.10967116
0.11012637
0.11119451
0.11247321
0.1132678
0.11288257
0.11073162
0.10633948
0.099313108
0.089323054
0.076113315
0.059574317
0.039983099
0.016785861
0.11141238
0.11137063
0.1116948
0.11256792
0.11362546
0.11420383
0.11362172
0.11129684
0.10675352
0.099598317
0.089502369
0.076211152
0.059616611
0.039995595
0.016790462
0.11310304
0.11301119
0.11320977
0.11389495
0.11473778
0.11510518
0.11433071
0.11183629
0.10714629
0.09986682
0.089669459
0.076300929
0.05965444
0.040006373
0.016794949
0.11473286
0.11459291
0.11467118
0.11517542
0.11581004
0.1159718
0.11500961
0.11235007
0.10751784
0.10011864
0.089824326
0.076382635
0.059687789
0.040015423
0.016799316
0.11630218
0.11611605
0.11607909
0.11640925
0.1168422
0.11680377
0.11565852
0.11283828
0.10786828
0.10035385
0.089966993
0.07645627
0.059716653
0.040022739
0.016803558
0.11781147
0.11758102
0.11743373
0.11759654
0.11783431
0.11760119
0.11627761
0.11330109
0.10819773
0.10057253
0.090097509
0.076521857
0.059741036
0.040028321
0.01680767
0.11926136
0.11898837
0.11873546
0.11873746
0.11878654
0.11836424
0.11686709
0.11373872
0.10850638
0.1007748
0.09021595
0.076579431
0.059760953
0.040032174
0.016811648
0.12065259
0.12033879
0.11998478
0.11983233
0.11969911
0.11909318
0.11742723
0.11415142
0.10879443
0.10096082
0.090322416
0.076629051
0.059776432
0.040034306
0.016815488
0.121986
0.12163304
0.12118226
0.12088154
0.12057233
0.1197883
0.11795832
0.11453947
0.10906213
0.10113078
0.090417035
0.076670792
0.059787514
0.040034734
0.016819186
0.12326253
0.122872
0.12232861
0.12188559
0.12140659
0.12044996
0.11846074
0.11490321
0.10930976
0.10128489
0.090499959
0.07670475
0.059794249
0.040033479
0.016822738
0.12448318
0.12405661
0.12342458
0.12284504
0.12220234
0.12107859
0.11893489
0.11524302
0.10953766
0.10142342
0.090571369
0.076731044
0.059796706
0.040030569
0.016826142
0.12564903
0.12518788
0.12447103
0.12376054
0.12296011
0.12167464
0.11938119
0.11555931
0.10974616
0.10154664
0.090631472
0.076749808
0.059794961
0.040026038
0.016829394
0.1267612
0.1262669
0.12546886
0.12463281
0.12368047
0.12223863
0.11980015
0.11585251
0.10993566
0.10165486
0.0906805
0.076761201
0.059789109
0.040019924
0.016832492
0.12782087
0.12729477
0.12641904
0.12546262
0.12436404
0.12277112
0.12019227
0.1161231
0.11010657
0.10174842
0.090718708
0.076765397
0.059779252
0.040012274
0.016835435
0.12882925
0.12827266
0.12732258
0.12625078
0.12501151
0.12327271
0.1205581
0.1163716
0.11025934
0.10182769
0.090746375
0.076762591
0.059765508
0.040003137
0.016838223
0.1297876
0.12920177
0.12818054
0.12699818
0.12562361
0.12374404
0.12089824
0.11659853
0.11039442
0.10189306
0.090763803
0.076752995
0.059748005
0.039992572
0.016840853
0.1306972
0.13008334
0.12899402
0.12770573
0.12620109
0.12418577
0.12121329
0.11680444
0.11051233
0.10194493
0.090771311
0.076736834
0.059726883
0.039980637
0.016843327
0.13155935
0.1309186
0.12976413
0.12837437
0.12674475
0.1245986
0.12150389
0.11698993
0.11061356
0.10198375
0.090769237
0.076714352
0.059702289
0.0399674
0.016845644
0.13237535
0.13170884
0.13049203
0.12900508
0.12725542
0.12498326
0.1217707
0.11715559
0.11069865
0.10200995
0.090757935
0.076685802
0.059674381
0.039952928
0.016847806
0.13314654
0.13245534
0.13117887
0.12959886
0.12773394
0.12534049
0.12201439
0.11730203
0.11076814
0.10202399
0.090737771
0.076651449
0.059643324
0.039937293
0.016849815
0.13387425
0.13315937
0.13182584
0.13015673
0.12818121
0.12567107
0.12223565
0.11742988
0.11082259
0.10202636
0.090709122
0.076611568
0.059609287
0.039920571
0.016851671
0.13455981
0.13382225
0.13243412
0.13067972
0.12859809
0.12597577
0.1224352
0.11753978
0.11086257
0.10201753
0.090672375
0.076566441
0.059572445
0.039902838
0.016853378
0.13520455
0.13444526
0.1330049
0.13116888
0.1289855
0.12625539
0.12261373
0.11763237
0.11088865
0.101998
0.090627922
0.076516354
0.059532978
0.039884172
0.016854938
0.13580979
0.13502968
0.13353938
0.13162526
0.12934434
0.12651072
0.12277198
0.11770831
0.11090141
0.10196825
0.090576161
0.076461599
0.059491067
0.03986465
0.016856355
0.13637686
0.1355768
0.13403873
0.1320499
0.12967552
0.12674257
0.12291065
0.11776824
0.11090142
0.10192878
0.090517492
0.076402468
0.059446893
0.039844352
0.016857632
0.13690705
0.13608789
0.13450414
0.13244387
0.12997998
0.12695175
0.12303049
0.11781283
0.11088927
0.10188009
0.090452314
0.076339256
0.05940064
0.039823355
0.016858772
0.13740165
0.13656421
0.13493679
0.1328082
0.13025861
0.12713906
0.1231322
0.1178427
0.11086553
0.10182268
0.090381027
0.076272255
0.059352487
0.039801738
0.016859779
0.13786193
0.13700699
0.13533782
0.13314394
0.13051234
0.12730531
0.12321651
0.11785853
0.11083078
0.10175702
0.090304028
0.076201757
0.059302616
0.039779576
0.016860659
0.13828915
0.13741745
0.1357084
0.13345211
0.13074207
0.12745131
0.12328414
0.11786094
0.11078558
0.10168362
0.09022171
0.076128049
0.059251204
0.039756944
0.016861414
0.13868453
0.13779681
0.13604964
0.13373375
0.1309487
0.12757784
0.12333579
0.11785057
0.1107305
0.10160296
0.090134461
0.076051415
0.059198425
0.039733915
0.01686205
0.13904929
0.13814624
0.13636266
0.13398984
0.13113313
0.1276857
0.12337217
0.11782806
0.1106661
0.10151549
0.090042663
0.075972134
0.059144449
0.03971056
0.016862571
0.13938462
0.13846691
0.13664856
0.1342214
0.13129623
0.12777566
0.12339396
0.11779401
0.11059291
0.1014217
0.08994669
0.075890478
0.059089442
0.039686946
0.016862982
0.13969167
0.13875995
0.13690842
0.13442939
0.13143888
0.1278485
0.12340186
0.11774904
0.11051147
0.10132204
0.08984691
0.075806716
0.059033566
0.03966314
0.016863288
0.1399716
0.13902649
0.13714328
0.13461478
0.13156193
0.12790496
0.12339654
0.11769375
0.11042231
0.10121696
0.089743682
0.075721105
0.058976977
0.039639205
0.016863493
0.14022551
0.13926762
0.13735419
0.13477851
0.13166621
0.12794579
0.12337865
0.11762872
0.11032595
0.10110689
0.089637354
0.075633898
0.058919826
0.039615201
0.016863602
0.1404545
0.13948439
0.13754215
0.13492151
0.13175257
0.12797173
0.12334884
0.11755453
0.11022289
0.10099226
0.089528268
0.075545339
0.058862258
0.039591185
0.016863621
0.14065963
0.13967787
0.13770815
0.13504468
0.1318218
0.12798349
0.12330776
0.11747174
0.11011362
0.10087348
0.08941675
0.075455662
0.058804411
0.039567211
0.016863553
0.14084195
0.13984906
0.13785316
0.13514891
0.13187469
0.12798177
0.12325602
0.11738091
0.10999861
0.10075097
0.089303121
0.075365095
0.058746418
0.039543332
0.016863404
0.14100245
0.13999896
0.13797812
0.13523507
0.13191204
0.12796726
0.12319423
0.11728256
0.10987834
0.10062509
0.089187688
0.075273854
0.058688406
0.039519594
0.016863178
0.14114214
0.14012853
0.13808396
0.13530399
0.13193458
0.12794064
0.12312298
0.11717721
0.10975324
0.10049625
0.089070746
0.075182148
0.058630493
0.039496044
0.01686288
0.14126196
0.14023872
0.13817156
0.13535651
0.13194306
0.12790255
0.12304285
0.11706538
0.10962377
0.10036479
0.088952578
0.075090174
0.058572794
0.039472723
0.016862514
0.14136285
0.14033044
0.13824179
0.13539342
0.13193821
0.12785364
0.1229544
0.11694756
0.10949035
0.10023107
0.088833458
0.07499812
0.058515414
0.03944967
0.016862085
0.14144572
0.14040457
0.13829551
0.13541551
0.13192072
0.12779452
0.12285818
0.11682421
0.10935337
0.10009542
0.088713644
0.074906165
0.058458452
0.039426921
0.016861597
0.14151144
0.14046199
0.13833353
0.13542353
0.13189128
0.1277258
0.12275472
0.11669581
0.10921324
0.099958175
0.088593385
0.074814478
0.058402002
0.039404508
0.016861055
0.14156088
0.14050353
0.13835665
0.13541823
0.13185054
0.12764807
0.12264453
0.1165628
0.10907033
0.099819635
0.088472915
0.074723217
0.05834615
0.039382462