/*--------------------------------*- C++ -*----------------------------------*\
| =========                 |                                                 |
| \\      /  F ield         | OpenFOAM: The Open Source CFD Toolbox           |
|  \\    /   O peration     | Version:  2506                                  |
|   \\  /    A nd           | Website:  www.openfoam.com                      |
|    \\/     M anipulation  |                                                 |
\*---------------------------------------------------------------------------*/
FoamFile
{
    version     2.0;
    format      ascii;
    arch        "LSB;label=32;scalar=64";
    class       volScalarField;
    location    "15000/water";
    object      epsilon;
}
// * * * * * * * * * * * * * * * * * * * * * * * * * * * * * * * * * * * * * //

dimensions      [0 2 -3 0 0 0 0];

internalField   nonuniform List<scalar> 
6000
(
0.00010005327
0.00010005311
0.00010005314
0.00010005327
0.00010005342
0.00010005363
0.0001000539
0.00010005427
0.00010005511
0.00010005982
0.00010010144
0.00010049509
0.00010424183
0.00014354191
0.00073980483
8.5785229e-05
8.5785556e-05
8.5786111e-05
8.5786982e-05
8.5788138e-05
8.5789633e-05
8.5791527e-05
8.5794043e-05
8.5798789e-05
8.581901e-05
8.5962524e-05
8.7071869e-05
9.5619929e-05
0.00016974081
0.0010520452
7.4267219e-05
7.4268013e-05
7.426896e-05
7.4270365e-05
7.4272213e-05
7.4274585e-05
7.4277581e-05
7.4281747e-05
7.4291154e-05
7.4336305e-05
7.4633748e-05
7.6634978e-05
9.0041817e-05
0.00019500629
0.0013270628
6.4852864e-05
6.485355e-05
6.4854661e-05
6.4856389e-05
6.4858676e-05
6.4861616e-05
6.4865387e-05
6.4871112e-05
6.4886838e-05
6.4967364e-05
6.5458677e-05
6.84101e-05
8.6285088e-05
0.00021715658
0.0015411415
5.7072087e-05
5.7072704e-05
5.7073918e-05
5.7075861e-05
5.7078448e-05
5.7081784e-05
5.7086167e-05
5.7093598e-05
5.7117581e-05
5.7242267e-05
5.7947685e-05
6.180797e-05
8.3505097e-05
0.0002348614
0.0016895689
5.0576692e-05
5.0577312e-05
5.0578592e-05
5.0580667e-05
5.0583434e-05
5.0587016e-05
5.0591882e-05
5.0601216e-05
5.0635234e-05
5.0810032e-05
5.1732149e-05
5.6406881e-05
8.1259069e-05
0.00024828861
0.0017792142
4.5104569e-05
4.5105188e-05
4.5106499e-05
4.5108638e-05
4.5111496e-05
4.5115213e-05
4.5120483e-05
4.5131961e-05
4.5177479e-05
4.5405527e-05
4.6535255e-05
5.1917397e-05
7.9376731e-05
0.00025838324
0.0018218943
4.0455895e-05
4.0456503e-05
4.045782e-05
4.0459977e-05
4.0462859e-05
4.0466628e-05
4.0472257e-05
4.0486117e-05
4.0544208e-05
4.0826355e-05
4.2148994e-05
4.8144563e-05
7.7837439e-05
0.00026629433
0.0018300463
3.6476506e-05
3.6477102e-05
3.6478406e-05
3.6480546e-05
3.6483399e-05
3.6487156e-05
3.6493116e-05
3.6509564e-05
3.6580944e-05
3.6916576e-05
3.8416896e-05
4.4958845e-05
7.6693461e-05
0.00027309124
0.0018145574
3.304611e-05
3.3046691e-05
3.304797e-05
3.3050065e-05
3.3052847e-05
3.3056537e-05
3.3062809e-05
3.3082024e-05
3.3167159e-05
3.3555102e-05
3.5220975e-05
4.2274823e-05
7.6025068e-05
0.00027965054
0.0017840405
3.0069857e-05
3.007042e-05
3.0071664e-05
3.0073692e-05
3.0076366e-05
3.0079941e-05
3.0086514e-05
3.0108667e-05
3.0207924e-05
3.0647227e-05
3.2471858e-05
4.0036357e-05
7.5917105e-05
0.00028663427
0.001744886
2.7472233e-05
2.7472777e-05
2.7473976e-05
2.7475917e-05
2.747845e-05
2.7481869e-05
2.7488744e-05
2.7514021e-05
2.7627825e-05
2.8118369e-05
3.010146e-05
3.820687e-05
7.6449192e-05
0.00029450875
0.0017016307
2.5192577e-05
2.5193098e-05
2.5194246e-05
2.5196082e-05
2.5198442e-05
2.520167e-05
2.520887e-05
2.5237507e-05
2.5366478e-05
2.5909414e-05
2.805763e-05
3.6763308e-05
7.7693097e-05
0.0003035735
0.00165739
2.3181748e-05
2.3182245e-05
2.3183333e-05
2.3185048e-05
2.3187207e-05
2.3190219e-05
2.3197794e-05
2.323011e-05
2.3375184e-05
2.3973213e-05
2.6300284e-05
3.5692527e-05
7.9712907e-05
0.00031398658
0.0016142425
2.1399629e-05
2.14001e-05
2.140112e-05
2.1402697e-05
2.140463e-05
2.1407412e-05
2.1415452e-05
2.1451882e-05
2.1614405e-05
2.2271964e-05
2.4798652e-05
3.4989203e-05
8.2565442e-05
0.00032578296
0.0015735325
1.9813231e-05
1.9813672e-05
1.9814616e-05
1.981604e-05
1.9817725e-05
1.9820279e-05
1.9828922e-05
1.9870043e-05
2.0051847e-05
2.0775227e-05
2.3529325e-05
3.4654636e-05
8.6299521e-05
0.00033888748
0.0015360911
1.8395236e-05
1.8395645e-05
1.8396506e-05
1.8397761e-05
1.8399183e-05
1.8401531e-05
1.8410972e-05
1.8457531e-05
1.8660989e-05
1.9458432e-05
2.2474895e-05
3.4695971e-05
9.095345e-05
0.00035312607
0.0015023901
1.7122886e-05
1.7123259e-05
1.7124028e-05
1.7125102e-05
1.712625e-05
1.7128438e-05
1.7138942e-05
1.7191872e-05
1.7419954e-05
1.8301752e-05
2.1622992e-05
3.5125546e-05
9.6550687e-05
0.00036823944
0.0014726449
1.5977101e-05
1.5977436e-05
1.5978105e-05
1.5978984e-05
1.5979859e-05
1.598196e-05
1.5993865e-05
1.6054312e-05
1.6310628e-05
1.7289248e-05
2.0965619e-05
3.5960111e-05
0.00010309413
0.00038390222
0.0014468811
1.4941799e-05
1.4942091e-05
1.4942652e-05
1.4943329e-05
1.494394e-05
1.4946058e-05
1.4959787e-05
1.5029124e-05
1.5317979e-05
1.6408225e-05
2.049868e-05
3.7219755e-05
0.00011055991
0.00039974861
0.00142498
1.4003348e-05
1.4003595e-05
1.4004041e-05
1.4004511e-05
1.400488e-05
1.4007153e-05
1.402322e-05
1.4103071e-05
1.442952e-05
1.5648751e-05
2.0221625e-05
3.8926414e-05
0.00011889194
0.00041540307
0.0014067117
1.3150142e-05
1.315034e-05
1.3150665e-05
1.3150927e-05
1.315109e-05
1.3153695e-05
1.3172714e-05
1.3264971e-05
1.3634892e-05
1.5003284e-05
2.0137155e-05
4.1101901e-05
0.00012799852
0.0004305123
0.0013917631
1.2372247e-05
1.2372393e-05
1.2372592e-05
1.237265e-05
1.2372659e-05
1.2375814e-05
1.2398506e-05
1.2505359e-05
1.2925534e-05
1.446641e-05
2.0250947e-05
4.3765469e-05
0.00013775238
0.00044477369
0.0013797649
1.1661123e-05
1.1661215e-05
1.1661286e-05
1.166115e-05
1.1661074e-05
1.1665043e-05
1.1692246e-05
1.1816209e-05
1.2294425e-05
1.4034634e-05
2.0571326e-05
4.6930996e-05
0.00014799478
0.00045795585
0.0013703185
1.1009401e-05
1.1009437e-05
1.1009378e-05
1.1009066e-05
1.1008994e-05
1.101409e-05
1.104677e-05
1.1190715e-05
1.1735881e-05
1.3706238e-05
2.1108871e-05
5.0604014e-05
0.00015854369
0.00046990849
0.0013630208
1.0410692e-05
1.041067e-05
1.0410485e-05
1.0410022e-05
1.0410062e-05
1.0416652e-05
1.0455917e-05
1.0623112e-05
1.1245399e-05
1.3481165e-05
2.1875889e-05
5.4778859e-05
0.00016920526
0.00048056142
0.0013574861
9.8594384e-06
9.8593586e-06
9.8590515e-06
9.8584721e-06
9.8587577e-06
9.8672657e-06
9.9143754e-06
1.0108535e-05
1.0819533e-05
1.3360938e-05
2.2885735e-05
5.9436317e-05
0.00017978706
0.00048991474
0.001353362
9.3507874e-06
9.3506504e-06
9.3502304e-06
9.3495787e-06
9.3502669e-06
9.3611826e-06
9.4175684e-06
9.6428999e-06
1.045581e-05
1.3348574e-05
2.4151946e-05
6.4542152e-05
0.00019011095
0.00049802341
0.0013503406
8.8804873e-06
8.8802951e-06
8.8797751e-06
8.879106e-06
8.8803818e-06
8.8942644e-06
8.9615474e-06
9.2228179e-06
1.0152655e-05
1.3448503e-05
2.5687206e-05
7.0046824e-05
0.00020002406
0.00050498001
0.0013481619
8.4448007e-06
8.4445568e-06
8.4439543e-06
8.4433345e-06
8.4454129e-06
8.4628989e-06
8.5429123e-06
8.8455163e-06
9.9093487e-06
1.3666457e-05
2.7502143e-05
7.5886621e-05
0.00020940613
0.0005108985
0.0013466143
8.0404324e-06
8.0401416e-06
8.0394792e-06
8.0389884e-06
8.0421174e-06
8.0639293e-06
8.1587433e-06
8.508784e-06
9.7259953e-06
1.4009323e-05
2.9604058e-05
8.1986182e-05
0.00021817297
0.000515901
0.00134553
7.664468e-06
7.6641372e-06
7.663443e-06
7.6631755e-06
7.6676392e-06
7.6945949e-06
7.8065457e-06
8.2109262e-06
9.6034999e-06
1.4484935e-05
3.1995646e-05
8.8262228e-05
0.00022627582
0.0005201082
0.0013447795
7.3143234e-06
7.3139614e-06
7.3132697e-06
7.3133352e-06
7.319458e-06
7.3524816e-06
7.4842048e-06
7.950732e-06
9.5435554e-06
1.5101802e-05
3.4673865e-05
9.4628078e-05
0.00023369766
0.00052363336
0.0013442658
6.9877006e-06
6.9873184e-06
6.9866703e-06
6.9871959e-06
6.9953468e-06
7.0354818e-06
7.1899496e-06
7.7274515e-06
9.5486283e-06
1.5868742e-05
3.7629068e-05
0.00010099842
0.00024044745
0.00052657911
0.0013439174
6.6825513e-06
6.6821625e-06
6.6816065e-06
6.6827386e-06
6.6933357e-06
6.741759e-06
6.9223234e-06
7.5407805e-06
9.6219392e-06
1.6794438e-05
4.0844541e-05
0.00010729381
0.00024655353
0.00052903629
0.0013436835
6.3970453e-06
6.396666e-06
6.3962591e-06
6.3981651e-06
6.411682e-06
6.4697206e-06
6.6801611e-06
7.3908531e-06
9.7674313e-06
1.7886905e-05
4.4296529e-05
0.00011344428
0.00025205715
0.0005310841
0.0013435288
6.1295436e-06
6.129193e-06
6.129001e-06
6.1318719e-06
6.1488438e-06
6.2179935e-06
6.4625723e-06
7.2782395e-06
9.9897187e-06
1.9152894e-05
4.7954808e-05
0.00011939198
0.0002570069
0.00053279086
0.0013434302
5.8785752e-06
5.8782757e-06
5.8783746e-06
5.8824275e-06
5.903459e-06
5.9854055e-06
6.2689287e-06
7.2039478e-06
1.0294006e-05
2.0597266e-05
5.1783773e-05
0.00012509231
0.00026145422
0.00053421506
0.001343373
5.6428172e-06
5.642595e-06
5.6430719e-06
5.6485531e-06
5.6743264e-06
5.7709695e-06
6.0988564e-06
7.1694287e-06
1.0685974e-05
2.2222385e-05
5.5743958e-05
0.00013051409
0.00026545026
0.00053540647
0.0013433493
5.4210776e-06
5.4209629e-06
5.4219174e-06
5.4291059e-06
5.4603909e-06
5.5738715e-06
5.9522322e-06
7.1765787e-06
1.1171622e-05
2.4027579e-05
5.9793835e-05
0.00013563849
0.00026904378
0.00053640725
0.0013433553
5.2122808e-06
5.2123081e-06
5.2138535e-06
5.2230651e-06
5.26073e-06
5.3934608e-06
5.8291825e-06
7.2277422e-06
1.1757062e-05
2.6008735e-05
6.3891719e-05
0.00014045745
0.00027228005
0.00053725289
0.0013433902
5.0154542e-06
5.0156629e-06
5.0179281e-06
5.0295196e-06
5.0745437e-06
5.2292435e-06
5.7300867e-06
7.3257058e-06
1.2448271e-05
2.8158068e-05
6.7997575e-05
0.00014497164
0.00027520025
0.00053797313
0.0013434553
4.8297171e-06
4.8301524e-06
4.8332834e-06
4.847658e-06
4.9011459e-06
5.0808782e-06
5.6555823e-06
7.4736832e-06
1.3250796e-05
3.0464119e-05
7.2074575e-05
0.00014918835
0.00027784139
0.00053859275
0.0013435527
4.654271e-06
4.6549842e-06
4.6591465e-06
4.6767597e-06
4.739957e-06
4.9481738e-06
5.6065719e-06
7.6752861e-06
1.4169424e-05
3.2911987e-05
7.6090277e-05
0.00015311953
0.00028023648
0.00053913229
0.0013436849
4.4883913e-06
4.4894404e-06
4.4948214e-06
4.5161875e-06
4.5904991e-06
4.8310889e-06
5.5842316e-06
7.9344756e-06
1.5207848e-05
3.5483783e-05
8.0017361e-05
0.00015678017
0.00028241474
0.00053960873
0.0013438547
4.3314193e-06
4.3328703e-06
4.3396818e-06
4.3653818e-06
4.452392e-06
4.7297343e-06
5.5900196e-06
8.2554924e-06
1.6368331e-05
3.8159287e-05
8.3833932e-05
0.00016018692
0.00028440196
0.00054003599
0.0013440645
4.1827562e-06
4.1846838e-06
4.1931653e-06
4.2238553e-06
4.3253508e-06
4.6443763e-06
5.6256833e-06
8.64276e-06
1.7651409e-05
4.0916739e-05
8.7523434e-05
0.00016335711
0.00028622083
0.00054042551
0.0013443165
4.0418571e-06
4.0443457e-06
4.0547683e-06
4.0911891e-06
4.2091847e-06
4.5754417e-06
5.693263e-06
9.10076e-06
1.9055658e-05
4.3733691e-05
9.1074255e-05
0.00016630804
0.00028789123
0.00054078658
0.0013446125
3.9082261e-06
3.9113713e-06
3.9240414e-06
3.96703e-06
4.103797e-06
4.5235248e-06
5.7950909e-06
9.6338803e-06
2.0577552e-05
4.658786e-05
9.447915e-05
0.00016905655
0.0002894306
0.00054112679
0.0013449537
3.781412e-06
3.7853219e-06
3.8005859e-06
3.8510876e-06
4.0091864e-06
4.4893953e-06
5.9337827e-06
1.0246237e-05
2.2211424e-05
4.9457896e-05
9.7734538e-05
0.00017161867
0.00029085417
0.00054145227
0.001345341
3.6610043e-06
3.6658014e-06
3.6840513e-06
3.7431338e-06
3.9254494e-06
4.4740067e-06
6.1122182e-06
1.0941479e-05
2.3949551e-05
5.2324022e-05
0.00010083981
0.0001740095
0.00029217525
0.00054176798
0.0013457749
3.5466302e-06
3.5524531e-06
3.5741321e-06
3.6430016e-06
3.8527838e-06
4.4785051e-06
6.3335103e-06
1.172258e-05
2.5782348e-05
5.5168499e-05
0.00010379664
0.00017624312
0.00029340545
0.00054207792
0.0013462556
3.4379516e-06
3.4449572e-06
3.470567e-06
3.5505856e-06
3.7914931e-06
4.5042378e-06
6.6009581e-06
1.2591637e-05
2.7698675e-05
5.7975926e-05
0.00010660842
0.00017833256
0.00029455494
0.00054238527
0.0013467828
3.3346627e-06
3.3430286e-06
3.373137e-06
3.4658429e-06
3.7419925e-06
4.5527599e-06
6.9179828e-06
1.3549688e-05
2.9686212e-05
6.0733358e-05
0.00010927977
0.00018028983
0.00029563259
0.00054269259
0.001347356
3.2364878e-06
3.2464154e-06
3.281665e-06
3.3887949e-06
3.7048152e-06
4.6258384e-06
7.2880456e-06
1.4596555e-05
3.1731891e-05
6.3430278e-05
0.00011181612
0.00018212593
0.00029664614
0.0005430019
0.0013479746
3.1431799e-06
3.1548974e-06
3.1960156e-06
3.3195298e-06
3.6806199e-06
4.7254524e-06
7.7145469e-06
1.5730747e-05
3.382234e-05
6.6058467e-05
0.0001142234
0.00018385092
0.00029760241
0.00054331478
0.0013486378
3.0545192e-06
3.0682854e-06
3.1160958e-06
3.2582055e-06
3.6701986e-06
4.8537869e-06
8.2007094e-06
1.6949409e-05
3.5944303e-05
6.8611787e-05
0.00011650785
0.00018547397
0.00029850735
0.00054363246
0.0013493444
2.9703119e-06
2.9864203e-06
3.0418551e-06
3.2050543e-06
3.6744852e-06
5.0132197e-06
8.7494483e-06
1.8248349e-05
3.8085015e-05
7.1085926e-05
0.00011867579
0.00018700343
0.00029936619
0.0005439559
0.0013500934
2.8903898e-06
2.9091733e-06
2.9732878e-06
3.1603869e-06
3.6945633e-06
5.2062983e-06
9.3632348e-06
1.9622123e-05
4.0232513e-05
7.3478131e-05
0.00012073351
0.00018844688
0.00030018354
0.00054428579
0.0013508836
2.8146096e-06
2.836446e-06
2.9104344e-06
3.1245986e-06
3.731674e-06
5.4357062e-06
1.004396e-05
2.1064181e-05
4.2375859e-05
7.5786948e-05
0.00012268719
0.00018981121
0.00030096345
0.00054462266
0.0013517137
2.7428528e-06
2.7681709e-06
2.8533843e-06
3.098175e-06
3.7872216e-06
5.7042163e-06
1.0792809e-05
2.2567069e-05
4.4505284e-05
7.8011978e-05
0.00012454279
0.00019110266
0.00030170949
0.00054496683
0.0013525823
2.6750262e-06
2.7043127e-06
2.8022791e-06
3.0816992e-06
3.8627769e-06
6.0146314e-06
1.1610154e-05
2.4122663e-05
4.6612261e-05
8.0153671e-05
0.00012630605
0.0001923269
0.00030242477
0.00054531835
0.0013534882
2.6110622e-06
2.6448693e-06
2.7573159e-06
3.0758592e-06
3.960078e-06
6.3697119e-06
1.2495477e-05
2.5722421e-05
4.8689511e-05
8.2213149e-05
0.00012798248
0.00019348921
0.00030311294
0.00054567956
0.0013544294
2.5509198e-06
2.5898742e-06
2.718752e-06
3.0814556e-06
4.0810244e-06
6.772092e-06
1.3447326e-05
2.7357634e-05
5.0730959e-05
8.4192048e-05
0.00012957729
0.0001945943
0.00030377608
0.0005460453
0.0013554044
2.494586e-06
2.5393984e-06
2.6869098e-06
3.0994094e-06
4.227667e-06
7.2241854e-06
1.4463313e-05
2.9019658e-05
5.2731645e-05
8.6092384e-05
0.00013109537
0.00019564634
0.00030441573
0.00054641395
0.001356411
2.4420772e-06
2.4935535e-06
2.6621823e-06
3.1307691e-06
4.4021883e-06
7.7280864e-06
1.5540152e-05
3.0700121e-05
5.4687626e-05
8.7916443e-05
0.00013254129
0.00019664903
0.00030503327
0.00054678552
0.001357447
2.3934419e-06
2.4524951e-06
2.6450394e-06
3.1767177e-06
4.6068755e-06
8.2854715e-06
1.6673736e-05
3.2391085e-05
5.6595863e-05
8.9666713e-05
0.00013391945
0.00019760626
0.00030563172
0.00054715698
0.0013585105
2.3487625e-06
2.4164266e-06
2.6360346e-06
3.2385774e-06
4.8440829e-06
8.8975065e-06
1.7859254e-05
3.4085177e-05
5.8454113e-05
9.1345818e-05
0.00013523396
0.00019852137
0.00030621173
0.00054752789
0.0013595997
2.3081594e-06
2.3856042e-06
2.6358124e-06
3.317812e-06
5.1161845e-06
9.5647667e-06
1.9091324e-05
3.5775669e-05
6.0260818e-05
9.2956447e-05
0.00013648858
0.00019939689
0.0003067729
0.00054790008
0.0013607133
2.2717941e-06
2.3603414e-06
2.6451157e-06
3.4160261e-06
5.4255156e-06
1.0287174e-05
2.0364153e-05
3.7456522e-05
6.2014997e-05
9.4501287e-05
0.00013768677
0.00020023506
0.00030731593
0.00054827477
0.0013618502
2.2398737e-06
2.3410154e-06
2.6647937e-06
3.5349596e-06
5.7743064e-06
1.1063962e-05
2.1671689e-05
3.91224e-05
6.3716162e-05
9.5983026e-05
0.0001388318
0.00020103833
0.00030784121
0.00054865319
0.0013630096
2.2126561e-06
2.3280735e-06
2.6958092e-06
3.6764764e-06
6.1646075e-06
1.189366e-05
2.3007781e-05
4.0768661e-05
6.5364246e-05
9.7404398e-05
0.00013992712
0.00020180982
0.00030834746
0.00054903722
0.0013641908
2.1904555e-06
2.32204e-06
2.7392453e-06
3.8425462e-06
6.5982126e-06
1.2774116e-05
2.436632e-05
4.2391324e-05
6.6959524e-05
9.876802e-05
0.00014097539
0.00020254993
0.00030883711
0.00054942732
0.0013653933
2.1736492e-06
2.3235242e-06
2.7963111e-06
4.0352186e-06
7.0765802e-06
1.3702541e-05
2.5741359e-05
4.3987023e-05
6.8502528e-05
0.00010007636
0.00014197891
0.00020325984
0.00030931202
0.00054982339
0.0013666163
2.1626845e-06
2.3332283e-06
2.8683448e-06
4.2565884e-06
7.6007607e-06
1.4675578e-05
2.7127211e-05
4.5552955e-05
6.9993989e-05
0.00010133173
0.0001429398
0.0002039411
0.00030977371
0.00055022517
0.0013678589
2.1580871e-06
2.3519561e-06
2.9568145e-06
4.5087518e-06
8.1713327e-06
1.5689391e-05
2.8518531e-05
4.7086841e-05
7.1434906e-05
0.00010253685
0.00014386158
0.00020459277
0.00031022403
0.00055063282
0.0013691203
2.16047e-06
2.3806212e-06
3.0633144e-06
4.7937545e-06
8.7883534e-06
1.6739768e-05
2.9910361e-05
4.8586868e-05
7.2826369e-05
0.00010369384
0.00014474504
0.00020521729
0.00031066406
0.00055104642
0.0013703998
2.1705427e-06
2.4202554e-06
3.1895567e-06
5.1135318e-06
9.4513268e-06
1.7822232e-05
3.1298164e-05
5.0051612e-05
7.4169495e-05
0.00010480455
0.0001455915
0.00020581675
0.00031109453
0.00055146589
0.0013716965
2.1891215e-06
2.4720157e-06
3.3373562e-06
5.4698441e-06
1.0159193e-05
1.8932142e-05
3.2677829e-05
5.1479987e-05
7.5465414e-05
0.00010587072
0.00014640254
0.00020639292
0.00031151604
0.00055189099
0.0013730096
2.2171398e-06
2.5371902e-06
3.5086087e-06
5.8642095e-06
1.0910338e-05
2.0064804e-05
3.4045692e-05
5.2871295e-05
7.6715704e-05
0.00010689533
0.00014717783
0.00020694766
0.0003119293
0.00055232149
0.0013743383
2.2556585e-06
2.6172012e-06
3.7052603e-06
6.2978367e-06
1.1702625e-05
2.1215554e-05
3.5398504e-05
5.4225059e-05
7.7921543e-05
0.00010787904
0.00014791975
0.0002074823
0.00031233493
0.00055275716
0.0013756817
2.3058762e-06
2.7136045e-06
3.9292692e-06
6.7715642e-06
1.2533444e-05
2.237984e-05
3.6733409e-05
5.5540973e-05
7.9083981e-05
0.00010882303
0.00014863035
0.00020799796
0.00031273341
0.00055319776
0.001377039
2.369137e-06
2.8280851e-06
4.182558e-06
7.2858076e-06
1.3399773e-05
2.3553284e-05
3.804793e-05
5.6818986e-05
8.020443e-05
0.00010972817
0.00014931146
0.00020849566
0.00031312512
0.00055364298
0.0013784095
2.4469379e-06
2.9624453e-06
4.4669593e-06
7.8405197e-06
1.4298259e-05
2.4731732e-05
3.9339966e-05
5.8059314e-05
8.128447e-05
0.00011059499
0.00014996478
0.00020897641
0.00031351039
0.00055409253
0.0013797922
2.540931e-06
3.1185867e-06
4.7841555e-06
8.4351663e-06
1.5225291e-05
2.5911282e-05
4.0607695e-05
5.9262029e-05
8.2324504e-05
0.00011142554
0.00015059169
0.00020944109
0.0003138895
0.00055454609
0.0013811864
2.6529221e-06
3.2984832e-06
5.1356144e-06
9.0687188e-06
1.6177081e-05
2.7088296e-05
4.1849527e-05
6.042722e-05
8.3325318e-05
0.00011222156
0.00015119346
0.00020989049
0.00031426268
0.00055500333
0.0013825913
2.7848622e-06
3.5041445e-06
5.5225263e-06
9.7396654e-06
1.7149747e-05
2.8259461e-05
4.3064375e-05
6.1556061e-05
8.4286603e-05
0.00011298473
0.00015177128
0.00021032529
0.00031463013
0.00055546393
0.001384006
2.93883e-06
3.7375705e-06
5.9457432e-06
1.0446039e-05
1.8139378e-05
2.9421728e-05
4.4251117e-05
6.2648228e-05
8.5209837e-05
0.00011371645
0.00015232627
0.00021074613
0.00031499199
0.00055592753
0.0013854297
3.1170046e-06
4.0006961e-06
6.4057265e-06
1.1185455e-05
1.914209e-05
3.0572282e-05
4.5408705e-05
6.3703704e-05
8.6096461e-05
0.00011441802
0.00015285942
0.00021115357
0.0003153484
0.00055639381
0.0013868617
3.3216254e-06
4.2953288e-06
6.9025064e-06
1.1955175e-05
2.0154107e-05
3.1708758e-05
4.6537106e-05
6.4721731e-05
8.6947803e-05
0.00011509066
0.00015337163
0.00021154811
0.00031569942
0.00055686241
0.0013883012
3.5549394e-06
4.6230802e-06
7.4356543e-06
1.2752158e-05
2.1171766e-05
3.2828859e-05
4.7635173e-05
6.5702982e-05
8.7765046e-05
0.0001157355
0.00015386373
0.00021193019
0.00031604512
0.00055733298
0.0013897474
3.8191347e-06
4.9852962e-06
8.0042718e-06
1.357313e-05
2.2191546e-05
3.393052e-05
4.870183e-05
6.6648289e-05
8.8549286e-05
0.00011635359
0.00015433648
0.00021230021
0.00031638554
0.00055780518
0.0013911996
4.1162623e-06
5.382989e-06
8.6069997e-06
1.4414667e-05
2.3210228e-05
3.5012461e-05
4.9735647e-05
6.7558419e-05
8.9301574e-05
0.0001169459
0.00015479055
0.00021265851
0.00031672067
0.00055827865
0.0013926569
4.4481482e-06
5.8167749e-06
9.242036e-06
1.5273222e-05
2.4224586e-05
3.6072375e-05
5.0736592e-05
6.8434077e-05
9.0022891e-05
0.00011751329
0.00015522656
0.00021300538
0.0003170505
0.00055875303
0.0013941186
4.8163023e-06
6.2868251e-06
9.9071898e-06
1.6145297e-05
2.5232123e-05
3.7107772e-05
5.1704639e-05
6.9275954e-05
9.071415e-05
0.00011805659
0.00015564507
0.00021334109
0.00031737498
0.00055922796
0.0013955841
5.2218272e-06
6.7928271e-06
1.0599909e-05
1.702731e-05
2.6229764e-05
3.8117119e-05
5.2639786e-05
7.0084715e-05
9.1376197e-05
0.00011857654
0.00015604657
0.00021366585
0.00031769406
0.00055970307
0.0013970524
5.6653392e-06
7.3339778e-06
1.131742e-05
1.7916138e-05
2.7213997e-05
3.9099304e-05
5.3542069e-05
7.0860992e-05
9.2009814e-05
0.00011907379
0.00015643152
0.00021397984
0.00031800765
0.00056017797
0.001398523
6.1469039e-06
7.9089829e-06
1.205673e-05
1.880803e-05
2.8182115e-05
4.0053333e-05
5.4411561e-05
7.1605384e-05
9.261572e-05
0.00011954897
0.00015680029
0.0002142832
0.00031831565
0.00056065229
0.001399995
6.6660068e-06
8.5161258e-06
1.2814856e-05
1.9698959e-05
2.913183e-05
4.0978331e-05
5.5248356e-05
7.2318449e-05
9.3194573e-05
0.00012000262
0.00015715323
0.00021457604
0.00031861791
0.00056112563
0.0014014677
7.2216176e-06
9.1533767e-06
1.3587924e-05
2.0585545e-05
3.0061056e-05
4.1873534e-05
5.6052565e-05
7.3000709e-05
9.3746972e-05
0.00012043523
0.00015749062
0.00021485843
0.0003189143
0.00056159757
0.0014029403
7.8120043e-06
9.8178698e-06
1.437227e-05
2.1464606e-05
3.0967901e-05
4.2738275e-05
5.6824309e-05
7.3652644e-05
9.4273457e-05
0.00012084721
0.00015781272
0.0002151304
0.00031920463
0.00056206771
0.001404412
8.4347119e-06
1.05064e-05
1.5164239e-05
2.2333176e-05
3.1850667e-05
4.3571975e-05
5.7563715e-05
7.4274693e-05
9.4774511e-05
0.00012123896
0.00015811972
0.00021539197
0.00031948872
0.0005625356
0.001405882
9.0867194e-06
1.1215467e-05
1.596025e-05
2.3188513e-05
3.2707834e-05
4.437414e-05
5.8270914e-05
7.4867257e-05
9.5250564e-05
0.0001216108
0.00015841178
0.0002156431
0.00031976634
0.00056300079
0.0014073494
9.7645302e-06
1.1941361e-05
1.6756829e-05
2.4028109e-05
3.3538062e-05
4.5144353e-05
5.8946039e-05
7.5430701e-05
9.5701995e-05
0.000121963
0.00015868902
0.00021588373
0.00032003726
0.00056346282
0.0014088133
1.0464277e-05
1.2680241e-05
1.7550654e-05
2.484969e-05
3.4340184e-05
4.5882275e-05
5.9589227e-05
7.5965352e-05
9.6129136e-05
0.00012229578
0.00015895151
0.00021611378
0.00032030122
0.0005639212
0.001410273
1.1181833e-05
1.3428214e-05
1.8338582e-05
2.5651222e-05
3.5113203e-05
4.658764e-05
6.0200621e-05
7.6471508e-05
9.6532271e-05
0.00012260933
0.0001591993
0.00021633314
0.00032055793
0.00056437543
0.0014117273
1.1912928e-05
1.4181415e-05
1.9117674e-05
2.6430905e-05
3.5856283e-05
4.7260259e-05
6.0780375e-05
7.694944e-05
9.6911647e-05
0.0001229038
0.00015943238
0.00021654165
0.0003208071
0.000564825
0.0014131753
1.2653253e-05
1.493607e-05
1.9885214e-05
2.7187171e-05
3.6568751e-05
4.7900017e-05
6.1328653e-05
7.7399397e-05
9.7267473e-05
0.00012317928
0.00015965073
0.00021673915
0.0003210484
0.00056526937
0.001414616
1.3398561e-05
1.5688557e-05
2.0638715e-05
2.7918678e-05
3.725009e-05
4.8506878e-05
6.1845641e-05
7.7821612e-05
9.759993e-05
0.00012343585
0.00015985429
0.00021692545
0.00032128149
0.00056570798
0.0014160482
1.4144748e-05
1.6435454e-05
2.1375936e-05
2.86243e-05
3.7899934e-05
4.9080886e-05
6.2331547e-05
7.8216309e-05
9.7909171e-05
0.00012367356
0.00016004298
0.00021710032
0.00032150602
0.00056614027
0.0014174709
1.4887925e-05
1.7173574e-05
2.2094877e-05
2.9303117e-05
3.8518061e-05
4.9622163e-05
6.2786609e-05
7.858371e-05
9.8195333e-05
0.00012389242
0.0001602167
0.00021726354
0.0003217216
0.00056656567
0.001418883
1.5624469e-05
1.7900001e-05
2.2793781e-05
2.9954408e-05
3.9104386e-05
5.0130913e-05
6.3211099e-05
7.8924041e-05
9.845854e-05
0.00012409243
0.0001603753
0.00021741485
0.00032192786
0.00056698357
0.0014202831
1.6351065e-05
1.86121e-05
2.3471131e-05
3.0577635e-05
3.9658955e-05
5.0607418e-05
6.3605328e-05
7.9237536e-05
9.8698909e-05
0.00012427358
0.00016051866
0.00021755398
0.0003221244
0.00056739337
0.00142167
1.7064726e-05
1.9307531e-05
2.4125642e-05
3.117243e-05
4.0181938e-05
5.1052042e-05
6.396965e-05
7.952445e-05
9.8916561e-05
0.00012443585
0.00016064662
0.00021768067
0.0003223108
0.00056779445
0.0014230425
1.7762807e-05
1.9984253e-05
2.475625e-05
3.1738586e-05
4.0673614e-05
5.1465223e-05
6.4304468e-05
7.9785058e-05
9.9111623e-05
0.00012457923
0.00016075904
0.00021779463
0.00032248666
0.00056818619
0.0014243993
1.8443007e-05
2.0640515e-05
2.5362104e-05
3.2276038e-05
4.1134367e-05
5.1847473e-05
6.4610228e-05
8.0019666e-05
9.9284234e-05
0.00012470369
0.00016085574
0.00021789558
0.00032265156
0.00056856797
0.0014257389
1.9103362e-05
2.1274849e-05
2.5942554e-05
3.2784857e-05
4.1564673e-05
5.2199371e-05
6.488743e-05
8.0228611e-05
9.9434557e-05
0.00012480924
0.0001609366
0.00021798325
0.0003228051
0.00056893914
0.00142706
1.9742232e-05
2.1886058e-05
2.6497132e-05
3.3265229e-05
4.196509e-05
5.2521564e-05
6.5136622e-05
8.0412267e-05
9.9562778e-05
0.00012489589
0.00016100147
0.00021805737
0.00032294687
0.0005692991
0.0014283612
2.0358281e-05
2.2473197e-05
2.7025543e-05
3.3717449e-05
4.2336251e-05
5.2814752e-05
6.5358399e-05
8.0571045e-05
9.9669114e-05
0.00012496368
0.00016105024
0.00021811768
0.00032307649
0.00056964722
0.0014296409
2.0950457e-05
2.3035556e-05
2.7527649e-05
3.4141905e-05
4.2678852e-05
5.307969e-05
6.5553404e-05
8.0705401e-05
9.9753815e-05
0.00012501268
0.00016108281
0.00021816397
0.00032319357
0.0005699829
0.0014308979
2.1517971e-05
2.3572639e-05
2.8003452e-05
3.4539069e-05
4.299364e-05
5.3317178e-05
6.5722325e-05
8.0815828e-05
9.981717e-05
0.00012504297
0.00016109913
0.00021819603
0.00032329779
0.00057030555
0.0014321305
2.206027e-05
2.4084144e-05
2.8453082e-05
3.4909483e-05
4.3281408e-05
5.3528055e-05
6.5865887e-05
8.0902864e-05
9.9859507e-05
0.00012505471
0.00016109917
0.00021821369
0.00032338883
0.00057061463
0.0014333373
2.257701e-05
2.4569944e-05
2.8876783e-05
3.5253751e-05
4.3542988e-05
5.3713191e-05
6.5984855e-05
8.0967085e-05
9.9881197e-05
0.00012504806
0.00016108293
0.00021821681
0.00032346641
0.0005709096
0.0014345169
2.3068041e-05
2.5030067e-05
2.9274895e-05
3.5572531e-05
4.3779237e-05
5.3873485e-05
6.6080026e-05
8.1009108e-05
9.9882651e-05
0.00012502325
0.00016105047
0.00021820532
0.00032353029
0.00057118999
0.0014356678
2.3533374e-05
2.5464675e-05
2.9647848e-05
3.5866521e-05
4.3991036e-05
5.4009854e-05
6.6152223e-05
8.1029584e-05
9.9864325e-05
0.00012498055
0.0001610019
0.00021817916
0.00032358029
0.00057145535
0.0014367886
2.3973168e-05
2.587405e-05
2.9996144e-05
3.6136456e-05
4.417928e-05
5.4123229e-05
6.6202296e-05
8.1029202e-05
9.9826716e-05
0.00012492026
0.00016093737
0.00021813835
0.00032361627
0.00057170529
0.0014378779
2.4387702e-05
2.6258573e-05
3.0320347e-05
3.63831e-05
4.4344874e-05
5.4214552e-05
6.6231109e-05
8.1008679e-05
9.9770362e-05
0.00012484275
0.00016085707
0.00021808296
0.00032363817
0.0005719395
0.0014389344
2.4777366e-05
2.6618713e-05
3.0621075e-05
3.6607235e-05
4.4488728e-05
5.4284767e-05
6.6239546e-05
8.096876e-05
9.969584e-05
0.00012474843
0.00016076127
0.00021801311
0.00032364596
0.0005721577
0.0014399569
2.5142634e-05
2.6955009e-05
3.0898988e-05
3.680966e-05
4.461175e-05
5.4334819e-05
6.6228497e-05
8.0910214e-05
9.9603762e-05
0.00012463774
0.00016065028
0.00021792898
0.00032363969
0.00057235969
0.0014409443
2.5484056e-05
2.7268062e-05
3.1154782e-05
3.6991185e-05
4.4714845e-05
5.436565e-05
6.6198859e-05
8.0833832e-05
9.9494775e-05
0.0001245112
0.00016052444
0.00021783081
0.00032361947
0.00057254536
0.0014418954
2.5802244e-05
2.7558519e-05
3.1389176e-05
3.7152623e-05
4.4798912e-05
5.4378191e-05
6.6151534e-05
8.0740419e-05
9.9369557e-05
0.00012436933
0.00016038419
0.00021771891
0.00032358548
0.00057271465
0.0014428092
2.6097854e-05
2.7827066e-05
3.1602912e-05
3.7294788e-05
4.4864835e-05
5.4373366e-05
6.6087419e-05
8.0630793e-05
9.9228812e-05
0.00012421272
0.00016022998
0.00021759361
0.00032353797
0.00057286758
0.0014436851
2.6371584e-05
2.8074416e-05
3.1796744e-05
3.7418494e-05
4.4913491e-05
5.4352083e-05
6.6007407e-05
8.0505783e-05
9.9073267e-05
0.00012404198
0.00016006232
0.00021745535
0.00032347723
0.00057300424
0.0014445222
2.6624158e-05
2.8301306e-05
3.1971434e-05
3.7524547e-05
4.4945736e-05
5.4315235e-05
6.5912385e-05
8.0366222e-05
9.8903672e-05
0.00012385776
0.00015988176
0.00021730458
0.00032340363
0.00057312481
0.00144532
2.6856319e-05
2.8508486e-05
3.2127748e-05
3.7613743e-05
4.4962413e-05
5.4263698e-05
6.5803229e-05
8.0212944e-05
9.8720788e-05
0.00012366075
0.0001596889
0.00021714181
0.00032331759
0.00057322953
0.0014460781
2.7068826e-05
2.8696713e-05
3.2266451e-05
3.768687e-05
4.4964345e-05
5.4198328e-05
6.5680802e-05
8.0046785e-05
9.8525393e-05
0.00012345164
0.00015948436
0.00021696761
0.00032321959
0.00057331869
0.0014467961
2.7262443e-05
2.886675e-05
3.2388302e-05
3.7744701e-05
4.4952337e-05
5.4119962e-05
6.5545953e-05
7.9868574e-05
9.8318272e-05
0.00012323116
0.00015926881
0.00021678258
0.00032311015
0.00057339266
0.0014474739
2.7437936e-05
2.9019354e-05
3.2494054e-05
3.7787995e-05
4.4927172e-05
5.4029415e-05
6.5399512e-05
7.9679135e-05
9.8100214e-05
0.00012300005
0.00015904294
0.00021658734
0.00032298983
0.00057345188
0.0014481114
2.7596069e-05
2.9155283e-05
3.2584452e-05
3.7817495e-05
4.4889612e-05
5.3927477e-05
6.5242295e-05
7.9479281e-05
9.7872011e-05
0.00012275906
0.00015880746
0.00021638257
0.00032285924
0.0005734968
0.0014487088
2.7737599e-05
2.9275281e-05
3.2660225e-05
3.7833926e-05
4.4840398e-05
5.381492e-05
6.5075095e-05
7.9269815e-05
9.7634453e-05
0.00012250897
0.00015856309
0.00021616895
0.00032271902
0.00057352796
0.0014492664
2.7863274e-05
2.9380086e-05
3.272209e-05
3.7837997e-05
4.4780249e-05