/*--------------------------------*- C++ -*----------------------------------*\
| =========                 |                                                 |
| \\      /  F ield         | OpenFOAM: The Open Source CFD Toolbox           |
|  \\    /   O peration     | Version:  2506                                  |
|   \\  /    A nd           | Website:  www.openfoam.com                      |
|    \\/     M anipulation  |                                                 |
\*---------------------------------------------------------------------------*/
FoamFile
{
    version     2.0;
    format      ascii;
    arch        "LSB;label=32;scalar=64";
    class       volScalarField;
    location    "15000/water";
    object      k;
}
// * * * * * * * * * * * * * * * * * * * * * * * * * * * * * * * * * * * * * //

dimensions      [0 2 -2 0 0 0 0];

internalField   nonuniform List<scalar> 
6000
(
0.0002144485
0.00021444827
0.00021444833
0.00021444852
0.00021444878
0.00021444911
0.00021444953
0.00021445001
0.00021445038
0.00021444961
0.00021444477
0.00021444847
0.00021482328
0.00022098609
0.00033298785
0.00019735372
0.00019735408
0.00019735481
0.00019735601
0.00019735759
0.00019735962
0.00019736212
0.0001973649
0.00019736678
0.00019736231
0.00019733424
0.0001972933
0.00019808165
0.00021190706
0.00042108833
0.00018260526
0.00018260625
0.00018260756
0.00018260957
0.0001826122
0.00018261554
0.00018261945
0.00018262311
0.00018262253
0.00018260174
0.00018251429
0.00018235696
0.00018354965
0.00020571076
0.0004915993
0.00016977104
0.00016977195
0.00016977358
0.00016977617
0.00016977959
0.00016978384
0.00016978847
0.00016979119
0.00016978242
0.00016972799
0.0001695392
0.00016920344
0.00017083025
0.00020141509
0.00054314021
0.00015851703
0.00015851791
0.00015851979
0.00015852287
0.0001585269
0.00015853173
0.00015853623
0.00015853548
0.0001585108
0.00015840225
0.00015807228
0.00015752308
0.00015966967
0.00019844232
0.00057747636
0.00014858047
0.00014858142
0.00014858351
0.00014858695
0.00014859139
0.00014859636
0.00014859955
0.0001485919
0.00014854197
0.00014835849
0.00014785779
0.00014709963
0.00014993181
0.00019659445
0.00059772639
0.00013975169
0.00013975271
0.00013975496
0.00013975864
0.00013976325
0.00013976781
0.00013976817
0.00013974945
0.00013966425
0.0001393877
0.00013870223
0.00013778194
0.00014154644
0.00019585229
0.00060724748
0.00013186192
0.00013186298
0.00013186534
0.00013186914
0.00013187366
0.00013187713
0.00013187282
0.00013183836
0.00013170812
0.00013132527
0.00013045854
0.00012946164
0.00013447268
0.00019626303
0.00060905754
0.00012477404
0.00012477514
0.00012477755
0.00012478136
0.00012478548
0.00012478703
0.00012477592
0.00012472085
0.00012453699
0.00012404097
0.00012301362
0.00012205827
0.00012868159
0.00019789321
0.0006056161
0.00011837572
0.00011837682
0.00011837924
0.0001183829
0.00011838626
0.00011838492
0.00011836468
0.00011828424
0.00011804014
0.00011743108
0.00011627928
0.00011550993
0.00012414935
0.00020080676
0.00059880682
0.0001125741
0.0001125752
0.00011257756
0.00011258091
0.00011258305
0.00011257774
0.00011254594
0.00011243584
0.00011212738
0.0001114124
0.00011018555
0.00010976786
0.00012085593
0.00020505367
0.00059001308
0.00010729189
0.00010729297
0.0001072952
0.00010729803
0.00010729845
0.00010728799
0.00010724223
0.00010709893
0.00010672477
0.00010591759
0.00010467621
0.00010479348
0.00011878602
0.00021066301
0.00058022149
0.0001024643
0.00010246533
0.00010246733
0.00010246942
0.00010246756
0.00010245071
0.00010238875
0.00010220964
0.0001017714
0.00010089174
9.9705638e-05
0.000100557
0.00011793046
0.00021763683
0.00057012062
9.8036637e-05
9.8037572e-05
9.8039255e-05
9.8040328e-05
9.8035582e-05
9.8011091e-05
9.7930966e-05
9.7714594e-05
9.7216801e-05
9.6289669e-05
9.5236719e-05
9.703687e-05
0.00011828673
0.00022594366
0.0005601824
9.3962451e-05
9.3963259e-05
9.3964497e-05
9.3964262e-05
9.3955981e-05
9.3922652e-05
9.3822751e-05
9.3568903e-05
9.3018884e-05
9.2074025e-05
9.1239503e-05
9.4219615e-05
0.00011985802
0.00023551194
0.0005507241
9.0202076e-05
9.020271e-05
9.0203366e-05
9.0201504e-05
9.0189027e-05
9.0145749e-05
9.0024925e-05
8.9734681e-05
8.914241e-05
8.8213812e-05
8.7690325e-05
9.2099801e-05
0.00012265037
0.00024622465
0.00054195294
8.6721448e-05
8.6721856e-05
8.6721775e-05
8.6717945e-05
8.6700619e-05
8.664642e-05
8.6504047e-05
8.61798e-05
8.5557736e-05
8.4683334e-05
8.4571272e-05
9.0679902e-05
0.00012666793
0.00025791693
0.00053399692
8.3491166e-05
8.3491287e-05
8.3490304e-05
8.3484151e-05
8.3461349e-05
8.3395437e-05
8.3231463e-05
8.2876915e-05
8.2239851e-05
8.1461425e-05
8.1869885e-05
8.9969913e-05
0.00013190642
0.00027037857
0.00052692519
8.0485733e-05
8.0485502e-05
8.0483437e-05
8.0474603e-05
8.0445747e-05
8.0367548e-05
8.018253e-05
7.9802669e-05
7.9167636e-05
7.8530889e-05
7.9578989e-05
8.9986538e-05
0.00013834557
0.00028336255
0.00052076146
7.7682937e-05
7.7682283e-05
7.767895e-05
7.7667083e-05
7.7631664e-05
7.7540855e-05
7.7335982e-05
7.6937064e-05
7.6323276e-05
7.5878109e-05
7.7696612e-05
9.0751816e-05
0.00014594134
0.00029659939
0.00051549302
7.5063349e-05
7.5062196e-05
7.5057404e-05
7.5042167e-05
7.4999765e-05
7.4896302e-05
7.4673418e-05
7.4262946e-05
7.369182e-05
7.3492783e-05
7.6225917e-05
9.229105e-05
0.00015461944
0.000309816
0.00051107779
7.2609902e-05
7.2608172e-05
7.260173e-05
7.2582813e-05
7.2533118e-05
7.2417256e-05
7.2178869e-05
7.1765596e-05
7.1260831e-05
7.1367745e-05
7.5175079e-05
9.4629939e-05
0.00016427135
0.00032275576
0.00050745065
7.0307551e-05
7.0305165e-05
7.0296888e-05
7.0274015e-05
7.0216842e-05
7.0089161e-05
6.9838457e-05
6.94324e-05
6.9020131e-05
6.949887e-05
7.4557053e-05
9.7790947e-05
0.00017475428
0.00033519669
0.00050453
6.8142984e-05
6.8139863e-05
6.8129574e-05
6.8102519e-05
6.8037823e-05
6.7899244e-05
6.7640104e-05
6.7252585e-05
6.6961603e-05
6.7885016e-05
7.438916e-05
0.00010178904
0.0001858954
0.00034696444
0.00050222457
6.6104382e-05
6.6100451e-05
6.608799e-05
6.6056581e-05
6.5984475e-05
6.5836276e-05
6.5573296e-05
6.5217006e-05
6.5079053e-05
6.6528011e-05
7.4692423e-05
0.00010662718
0.00019750038
0.00035793856
0.00050043991
6.418122e-05
6.4176406e-05
6.4161633e-05
6.4125766e-05
6.4046535e-05
6.3890369e-05
6.3628889e-05
6.3317981e-05
6.3368113e-05
6.5432644e-05
7.5490606e-05
0.00011229203
0.00020936499
0.00036805173
0.00049908424
6.2364094e-05
6.2358333e-05
6.2341135e-05
6.230078e-05
6.2214894e-05
6.2052808e-05
6.1798947e-05
6.1549161e-05
6.182618e-05
6.4606648e-05
7.6808891e-05
0.00011875054
0.00022128816
0.00037728353
0.00049807291
6.064458e-05
6.0637817e-05
6.0618111e-05
6.0573325e-05
6.0481451e-05
6.031591e-05
6.0076617e-05
5.9905429e-05
6.045239e-05
6.4060644e-05
7.8672186e-05
0.00012594803
0.00023308444
0.00038565069
0.00049733132
5.9015114e-05
5.9007302e-05
5.8985044e-05
5.8935977e-05
5.8838997e-05
5.8672904e-05
5.8456016e-05
5.8382826e-05
5.9247607e-05
6.380802e-05
8.1103079e-05
0.00013380822
0.00024459408
0.00039319634
0.00049679626
5.746888e-05
5.745999e-05
5.7435175e-05
5.7382083e-05
5.7281105e-05
5.7117831e-05
5.6932149e-05
5.6978499e-05
5.8214438e-05
6.3864707e-05
8.4119511e-05
0.00014223537
0.0002556896
0.00039997992
0.00049641599
5.599973e-05
5.5989745e-05
5.596242e-05
5.590567e-05
5.5802046e-05
5.5645466e-05
5.5500841e-05
5.5690668e-05
5.7357258e-05
6.424881e-05
8.773233e-05
0.00015111851
0.00026627829
0.00040606902
0.00049614946
5.4602101e-05
5.4591025e-05
5.4561286e-05
5.4501369e-05
5.4396714e-05
5.4251246e-05
5.4158685e-05
5.4518612e-05
5.6682234e-05
6.4980079e-05
9.1942942e-05
0.00016033718
0.00027630116
0.00041153335
0.00049596497
5.3270953e-05
5.3258808e-05
5.3226813e-05
5.3164353e-05
5.3060564e-05
5.2931212e-05
5.2903001e-05
5.3462663e-05
5.6197343e-05
6.6079181e-05
9.6741327e-05
0.00016976802
0.00028572901
0.00041644086
0.00049583865
5.2001708e-05
5.198854e-05
5.1954511e-05
5.1890276e-05
5.1789556e-05
5.1681971e-05
5.1731808e-05
5.2524225e-05
5.5912363e-05
6.7566765e-05
0.00010210472
0.00017929137
0.00029455685
0.00042085544
0.00049575298
5.0790203e-05
5.0776083e-05
5.0740313e-05
5.067523e-05
5.0580113e-05
5.050065e-05
5.0643813e-05
5.1705788e-05
5.5838828e-05
6.946233e-05
0.00010799714
0.00018879709
0.0003027979
0.00042483586
0.00049569544
4.9632648e-05
4.9617675e-05
4.9580534e-05
4.9515698e-05
4.942908e-05
4.9384875e-05
4.9638394e-05
5.1010966e-05
5.5989918e-05
7.178292e-05
0.00011437
0.00019818901
0.00031047772
0.00042843533
0.0004956574
4.8525586e-05
4.8509888e-05
4.8471831e-05
4.8408525e-05
4.8333699e-05
4.8332748e-05
4.8715611e-05
5.0444524e-05
5.6380276e-05
7.4541726e-05
0.00012116371
0.00020738765
0.00031762942
0.0004317015
0.00049563313
4.7465859e-05
4.74496e-05
4.7411173e-05
4.7350883e-05
4.7291577e-05
4.7342831e-05
4.7876207e-05
5.0012417e-05
5.702572e-05
7.7746678e-05
0.00012831013
0.00021633122
0.00032428982
0.00043467667
0.00049561908
4.6450583e-05
4.6433963e-05
4.6395814e-05
4.6340247e-05
4.6300671e-05
4.641414e-05
4.7121628e-05
4.9721816e-05
5.7942847e-05
8.1399166e-05
0.00013573578
0.0002249751
0.00033049682
0.00043739817
0.00049561324
4.5477121e-05
4.5460379e-05
4.5423267e-05
4.5374375e-05
4.5359268e-05
4.5546142e-05
4.6454049e-05
4.9581125e-05
5.9148508e-05
8.5493018e-05
0.00014336522
0.00023329015
0.00033628765
0.00043989867
0.00049561471
4.4543061e-05
4.4526479e-05
4.4491284e-05
4.4451289e-05
4.446598e-05
4.4738756e-05
4.5876394e-05
4.9599966e-05
6.0659158e-05
9.0013881e-05
0.00015112441
0.00024126036
0.0003416978
0.00044220662
0.00049562332
4.3646195e-05
4.3630105e-05
4.359784e-05
4.3569259e-05
4.3619731e-05
4.3992365e-05
4.5392377e-05
4.9789137e-05
6.2490099e-05
9.4939089e-05
0.0001589437
0.00024888021
0.00034676053
0.00044434669
0.00049563932
4.2784505e-05
4.2769292e-05
4.2741115e-05
4.2726796e-05
4.2819756e-05
4.3307822e-05
4.500653e-05
5.0160522e-05
6.4654625e-05
0.00010023808
0.00016676014
0.00025615208
0.00035150662
0.00044634014
0.00049566327
4.1956147e-05
4.1942252e-05
4.1919486e-05
4.1922641e-05
4.2065604e-05
4.2686474e-05
4.4724243e-05
5.0726936e-05
6.7163134e-05
0.00010587333
0.00017451901
0.00026308403
0.00035596427
0.00044820531
0.00049569579
4.1159436e-05
4.1147367e-05
4.1131511e-05
4.1155759e-05
4.1357137e-05
4.2130176e-05
4.4551789e-05
5.1501906e-05
7.0022254e-05
0.0001118018
0.00018217461
0.0002696879
0.00036015925
0.00044995792
0.00049573755
4.039284e-05
4.0383173e-05
4.0375928e-05
4.0425336e-05
4.0694537e-05
4.1641323e-05
4.4496352e-05
5.2499368e-05
7.3234061e-05
0.00011797661
0.00018969027
0.00027597786
0.0003641149
0.00045161147
0.00049578915
3.9654963e-05
3.9648355e-05
3.9651641e-05
3.9730781e-05
4.0078323e-05
4.1222872e-05
4.4566031e-05
5.3733283e-05
7.6795466e-05
0.00012434896
0.00019703788
0.00028196939
0.00036785236
0.00045317754
0.00049585112
3.8944544e-05
3.8941738e-05
3.8957721e-05
3.9071722e-05
3.9509355e-05
4.0878378e-05
4.4769829e-05
5.521717e-05
8.0697838e-05
0.00013087001
0.00020419698
0.00028767848
0.00037139066
0.00045466608
0.00049592389
3.8260447e-05
3.8262283e-05
3.8293404e-05
3.8448018e-05
3.8988856e-05
4.0612024e-05
4.5117613e-05
5.6963567e-05
8.4926926e-05
0.00013749256
0.00021115368
0.00029312118
0.00037474694
0.00045608564
0.00049600778
3.7601653e-05
3.7609082e-05
3.7658086e-05
3.7859757e-05
3.851843e-05
4.0428652e-05
4.5620028e-05
5.8983443e-05
8.946309e-05
0.00014417246
0.0002178995
0.00029831319
0.0003779366
0.00045744356
0.000496103
3.6967262e-05
3.6981351e-05
3.7051327e-05
3.7307273e-05
3.8100084e-05
4.0333799e-05
4.628838e-05
6.1285581e-05
9.4281842e-05
0.00015086965
0.00022443029
0.00030326971
0.00038097346
0.0004587462
0.00049620967
3.6356483e-05
3.6378439e-05
3.6472854e-05
3.6791149e-05
3.7736253e-05
4.0333719e-05
4.7134449e-05
6.3875987e-05
9.9354665e-05
0.00015754881
0.00023074527
0.00030800524
0.00038386991
0.00045999903
0.00049632782
3.5768637e-05
3.5799814e-05
3.5922562e-05
3.6312237e-05
3.7429828e-05
4.0435397e-05
4.8170259e-05
6.6757354e-05
0.00010465002
0.00016417962
0.00023684619
0.00031253356
0.0003866371
0.00046120682
0.00049645738
3.5203153e-05
3.5245078e-05
3.5400526e-05
3.587167e-05
3.7184185e-05
4.064656e-05
4.9407776e-05
6.9928646e-05
0.00011013448
0.00017073673
0.00024273672
0.0003168676
0.00038928504
0.00046237371
0.00049659824
3.4659571e-05
3.4713957e-05
3.4907005e-05
3.5470884e-05
3.7003216e-05
4.0975654e-05
5.0858553e-05
7.3384824e-05
0.00011577387
0.0001771995
0.00024842186
0.00032101951
0.00039182274
0.00046350331
0.00049675024
3.4137541e-05
3.4206315e-05
3.4442453e-05
3.5111633e-05
3.689136e-05
4.1431808e-05
5.2533326e-05
7.7116766e-05
0.00012153433
0.00018355156
0.00025390757
0.00032500063
0.00039425831
0.00046459878
0.00049691315
3.3636827e-05
3.3722154e-05
3.4007531e-05
3.4796016e-05
3.6853632e-05
4.2024759e-05
5.4441567e-05
8.111139e-05
0.00012738327
0.00018978031
0.00025920046
0.00032882149
0.00039659908
0.0004656629
0.00049708671
3.3157312e-05
3.3261621e-05
3.3603121e-05
3.4526502e-05
3.6895651e-05
4.2764746e-05
5.6591039e-05
8.5351973e-05
0.00013329012
0.00019587638
0.00026430751
0.0003324919
0.00039885167
0.00046669811
0.00049727065
3.2699001e-05
3.2825019e-05
3.3230344e-05
3.4305957e-05
3.7023662e-05
4.3662354e-05
5.8987347e-05
8.9818647e-05
0.00013922684
0.00020183315
0.00026923593
0.00033602093
0.00040102207
0.00046770658
0.00049746465
3.2262029e-05
3.2412818e-05
3.2890574e-05
3.4137671e-05
3.7244543e-05
4.4728318e-05
6.1633544e-05
9.4489038e-05
0.00014516826
0.00020764626
0.00027399296
0.00033941701
0.0004031157
0.00046869024
0.00049766841
3.1846672e-05
3.2025663e-05
3.2585463e-05
3.402539e-05
3.7565811e-05
4.5973276e-05
6.4529817e-05
9.9338989e-05
0.0001510922
0.00021331318
0.0002785858
0.00034268793
0.0004051375
0.00046965078
0.00049788159
3.1453353e-05
3.1664391e-05
3.2316961e-05
3.3973345e-05
3.7995596e-05
4.7407475e-05
6.767327e-05
0.00010434331
0.0001569795
0.00021883291
0.00028302154
0.00034584088
0.00040709193
0.00047058969
0.00049810387
3.1082656e-05
3.133005e-05
3.2087341e-05
3.3986286e-05
3.8542603e-05
4.9040451e-05
7.1057852e-05
0.00010947653
0.00016281382
0.00022420566
0.00028730706
0.00034888261
0.00040898324
0.00047150443
0.00049833478
3.0735342e-05
3.1023912e-05
3.1899228e-05
3.4069503e-05
3.921604e-05
5.0880668e-05
7.4674412e-05
0.00011471355
0.0001685815
0.00022943258
0.00029144901
0.00035181926
0.00041081466
0.00047239507
0.00049857391
3.0412362e-05
3.0747498e-05
3.1755625e-05
3.4228855e-05
4.0025515e-05
5.2935158e-05
7.8510897e-05
0.00012003018
0.00017427128
0.00023451559
0.00029545377
0.0003546564
0.0004125891
0.00047326294
0.0004988207
3.0114877e-05
3.0502598e-05
3.1659946e-05
3.4470785e-05
4.0980896e-05
5.5209169e-05
8.2552682e-05
0.00012540361
0.000179874
0.00023945713
0.00029932738
0.00035739916
0.00041430936
0.00047410987
0.00049907467
2.9844281e-05
3.02913e-05
3.1616046e-05
3.4802324e-05
4.2092128e-05
5.7705849e-05
8.6782999e-05
0.00013081269
0.00018538237
0.00024426012
0.00030307569
0.00036005262
0.00041597748
0.00047493645
0.00049933529
2.9602222e-05
3.0116017e-05
3.1628254e-05
3.5231088e-05
4.3369014e-05
6.0425994e-05
9.1183438e-05
0.00013623816
0.00019079075
0.0002489278
0.00030670429
0.00036262124
0.00041759495
0.00047574359
0.00049960216
2.9390631e-05
2.9979516e-05
3.1701406e-05
3.5765244e-05
4.4820959e-05
6.3367874e-05
9.5734485e-05
0.00014166267
0.00019609486
0.0002534636
0.00031021836
0.00036510884
0.00041916373
0.0004765327
0.00049987493
2.9211751e-05
2.9884954e-05
3.184087e-05
3.6413469e-05
4.6456683e-05
6.6527155e-05
0.00010041604
0.00014707084
0.0002012916
0.00025787107
0.00031362275
0.00036751896
0.00042068618
0.00047730506
0.00050015334
2.9068172e-05
2.9835911e-05
3.2052579e-05
3.7184865e-05
4.828391e-05
6.9896934e-05
0.00010520794
0.00015244917
0.00020637887
0.00026215387
0.00031692212
0.00036985496
0.00042216435
0.00047806208
0.00050043716
2.8962863e-05
2.9836428e-05
3.2343042e-05
3.8088853e-05
5.0309062e-05
7.3467875e-05
0.00011009034
0.00015778594
0.00021135547
0.00026631577
0.00032012119
0.00037211975
0.00042359906
0.00047880555
0.00050072624
2.8899216e-05
2.9891044e-05
3.2719362e-05
3.9135026e-05
5.2536959e-05
7.7228449e-05
0.00011504415
0.00016307108
0.00021622084
0.00027036046
0.00032322384
0.00037431553
0.00042499288
0.0004795364
0.00050102044
2.8881086e-05
3.0004834e-05
3.3189225e-05
4.0332966e-05
5.4970554e-05
8.116525e-05
0.00012005122
0.00016829601
0.00022097503
0.00027429144
0.00032623359
0.00037644504
0.00042634811
0.00048025516
0.00050131957
2.8912836e-05
3.0183449e-05
3.3760885e-05
4.1692027e-05
5.761072e-05
8.5263369e-05
0.00012509462
0.00017345348
0.00022561848
0.00027811213
0.00032915385
0.00037851116
0.00042766679
0.00048096228
0.00050162342
2.8999383e-05
3.0433146e-05
3.4443117e-05
4.3221084e-05
6.0456106e-05
8.9506796e-05
0.0001301587
0.0001785375
0.00023015221
0.00028182642
0.00033198837
0.0003805145
0.00042895132
0.00048165846
0.00050193176
2.9146247e-05
3.0760818e-05
3.5245149e-05
4.4928255e-05
6.3503079e-05
9.3878832e-05
0.00013522918
0.00018354311
0.00023457744
0.00028543742
0.00033473924
0.0003824583
0.00043020337
0.00048234433
0.00050224441
2.9359595e-05
3.1174014e-05
3.6176556e-05
4.6820618e-05
6.6745746e-05
9.8362474e-05
0.00014029314
0.0001884663
0.0002388955
0.00028894795
0.00033740911
0.0003843455
0.00043142428
0.00048302037
0.00050256118
2.9646289e-05
3.1680948e-05
3.7247123e-05
4.8903921e-05
7.0176074e-05
0.00010294076
0.00014533898
0.0001933038
0.00024310784
0.00029236078
0.00034000087
0.0003861787
0.00043261526
0.0004836869
0.00050288186
3.0013923e-05
3.2290483e-05
3.8466671e-05
5.1182317e-05
7.3784084e-05
0.00010759709
0.00015035639
0.00019805322
0.00024721664
0.00029567959
0.00034251503
0.0003879606
0.00043377765
0.00048434426
0.00050320623
3.0470853e-05
3.3012108e-05
3.9844841e-05
5.3658127e-05
7.7558105e-05
0.00011231542
0.00015533627
0.00020271267
0.00025122348
0.00029890586
0.0003449552
0.0003896933
0.00043491266
0.00048499273
0.0005035341
3.1026214e-05
3.3855866e-05
4.1390849e-05
5.6331669e-05
8.1485082e-05
0.0001170805
0.00016027057
0.00020728066
0.00025512978
0.00030204176
0.00034732452
0.00039137867
0.00043602131
0.0004856326
0.00050386526
3.168992e-05
3.4832267e-05
4.3113207e-05
5.920114e-05
8.5550905e-05
0.00012187793
0.00016515228
0.00021175627
0.00025893753
0.00030508899
0.00034962585
0.00039301844
0.00043710454
0.00048626405
0.00050419951
3.2472636e-05
3.5952144e-05
4.5019433e-05
6.2262586e-05
8.9740744e-05
0.00012669433
0.00016997538
0.00021613912
0.00026264881
0.00030804873
0.00035186185
0.00039461435
0.00043816317
0.00048688727
0.00050453665
3.3385711e-05
3.7226476e-05
4.711576e-05
6.5509944e-05
9.4039362e-05
0.00013151729
0.00017473455
0.00022042858
0.00026626425
0.00031092432
0.00035403479
0.00039616798
0.000439198
0.00048750239
0.00050487647
3.4441083e-05
3.866616e-05
4.9406847e-05
6.8935163e-05
9.8431401e-05
0.00013633537
0.00017942509
0.00022462417
0.00026978517
0.00031371867
0.00035614674
0.00039768072
0.00044020973
0.00048810952
0.00050521877
3.5651111e-05
4.0281736e-05
5.1895539e-05
7.2528393e-05
0.00010290165
0.00014113824
0.00018404353
0.00022872723
0.00027321085
0.00031643442
0.00035819977
0.00039915387
0.000441199
0.00048870876
0.00050556336
3.7028366e-05
4.2083072e-05
5.4582665e-05
7.6278225e-05
0.00010743526
0.00014591643
0.00018858629
0.00023273653
0.00027654392
0.00031907392
0.00036019574
0.00040058863
0.00044216638
0.00048930017
0.00050591003
3.8585344e-05
4.4079023e-05
5.7466904e-05
8.0171959e-05
0.00011201782
0.00015066123
0.00019305005
0.00023665158
0.00027978683
0.00032163932
0.00036213638
0.0004019861
0.00044311238
0.0004898838
0.00050625859
4.0334115e-05
4.6277072e-05
6.0544724e-05
8.4195913e-05
0.00011663567
0.00015536524
0.00019743366
0.00024047028
0.00028294175
0.00032413269
0.00036402327
0.00040334729
0.00044403748
0.00049045965
0.00050660886
4.2285909e-05
4.868297e-05
6.3810405e-05
8.83357e-05
0.00012127575
0.00016002127
0.00020173357
0.00024419371
0.00028601059
0.00032655597
0.00036585788
0.00040467312
0.00044494208
0.00049102775
0.00050696063
4.4450649e-05
5.1300407e-05
6.7256124e-05
9.2576491e-05
0.00012592575
0.00016462282
0.00020594657
0.00024782319
0.00028899517
0.00032891093
0.00036764156
0.00040596441
0.00044582654
0.00049158807
0.00050731372
4.6836457e-05
5.4130732e-05
7.0872133e-05
9.6903362e-05
0.00013057446
0.00016916537
0.00021006853
0.00025135977
0.00029189724
0.00033119922
0.00036937555
0.00040722193
0.0004466912
0.00049214058
0.00050766795
4.9449156e-05
5.7172727e-05
7.4646952e-05
0.00010130132
0.0001352108
0.00017364184
0.00021409893
0.00025480444
0.00029471841
0.00033342236
0.00037106098
0.00040844636
0.00044753633
0.00049268525
0.00050802313
5.229182e-05
6.0422491e-05
7.8567695e-05
0.00010575594
0.00013982594
0.00017804468
0.00021803704
0.00025815814
0.00029746017
0.00033558173
0.00037269888
0.00040963831
0.00044836216
0.00049322201
0.00050837907
5.536438e-05
6.3873387e-05
8.2620242e-05
0.00011025276
0.00014440941
0.0001823692
0.00022188217
0.00026142179
0.0003001239
0.00033767861
0.00037429018
0.00041079833
0.00044916889
0.00049375079
0.00050873559
5.8663377e-05
6.7516161e-05
8.6789845e-05
0.00011477909
0.0001489495
0.00018661177
0.0002256337
0.00026459622
0.00030271085
0.00033971414
0.00037583572
0.00041192688
0.00044995668
0.00049427149
0.00050909252
6.2181835e-05
7.1339081e-05
9.1061104e-05
0.00011932026
0.00015343733
0.000190769
0.0002292911
0.0002676822
0.00030522215
0.00034168935
0.00037733621
0.00041302437
0.00045072563
0.00049478399
0.00050944967
6.5909375e-05
7.5328386e-05
9.5418791e-05
0.0001238609
0.0001578653
0.0001948378
0.00023285387
0.00027068039
0.00030765879
0.00034360514
0.00037879231
0.00041409114
0.00045147583
0.00049528818
0.00050980685
6.9832757e-05
7.9468804e-05
9.9844439e-05
0.00012838827
0.00016222637
0.0001988153
0.00023632151
0.00027359138
0.00031002165
0.0003454623
0.00038020455
0.00041512746
0.0004522073
0.00049578388
0.00051016389
7.3935188e-05
8.3741497e-05
0.00010432086
0.00013289041
0.00016651407
0.00020269887
0.00023969355
0.00027641562
0.00031231148
0.00034726149
0.00038157337
0.00041613352
0.00045292002
0.00049627094
0.00051052057
7.8196625e-05
8.8126486e-05
0.00010883116
0.00013735608
0.00017072241
0.00020648608
0.00024296948
0.00027915351
0.00031452888
0.00034900325
0.00038289913
0.00041710946
0.00045361393
0.00049674915
0.00051087672
8.259485e-05
9.2602922e-05
0.00011335887
0.00014177477
0.00017484589
0.00021017466
0.00024614879
0.0002818053
0.00031667435
0.00035068802
0.00038418207
0.00041805533
0.00045428894
0.00049721828
0.00051123213
8.7106133e-05
9.7149513e-05
0.0001178881
0.00014613671
0.00017887947
0.0002137625
0.00024923095
0.00028437116
0.00031874825
0.00035231611
0.00038542237
0.00041897112
0.00045494487
0.00049767809
0.00051158658
9.1705891e-05
0.00010174493
0.00012240363
0.00015043284
0.00018281853
0.00021724765
0.00025221542
0.00028685116
0.00032075084
0.00035388772
0.00038662009
0.00041985675
0.00045558154
0.0004981283
0.00051193987
9.6369321e-05
0.00010636817
0.00012689102
0.00015465479
0.00018665886
0.00022062832
0.00025510163
0.00028924528
0.00032268225
0.00035540296
0.0003877752
0.00042071208
0.00045619869
0.00049856861
0.00051229175
0.00010107196
0.00011099891
0.00013133667
0.00015879492
0.00019039668
0.00022390288
0.00025788903
0.00029155344
0.00032454252
0.00035686181
0.00038888761
0.0004215369
0.00045679603
0.00049899868
0.000512642
0.00010579019
0.00011561775
0.00013572789
0.00016284624
0.00019402859
0.00022706986
0.0002605771
0.00029377549
0.00032633159
0.0003582642
0.00038995714
0.00042233094
0.00045737324
0.00049941816
0.00051299036
0.00011050158
0.00012020647
0.00014005299
0.00016680245
0.00019755161
0.00023012798
0.00026316533
0.00029591122
0.00032804933
0.00035960993
0.00039098352
0.00042309386
0.00045792992
0.00049982668
0.00051333658
0.00011518527
0.00012474818
0.00014430124
0.00017065793
0.00020096313
0.00023307614
0.00026565328
0.00029796044
0.00032969557
0.00036089878
0.00039196646
0.00042382529
0.00045846568
0.00050022383
0.00051368039
0.00011982209
0.00012922747
0.00014846296
0.0001744077
0.00020426095
0.00023591346
0.00026804058
0.00029992292
0.00033127006
0.00036213046
0.00039290556
0.0004245248
0.00045898007
0.00050060918
0.0005140215
0.00012439474
0.00013363042
0.00015252951
0.00017804743
0.00020744327
0.00023863927
0.00027032698
0.00030179845
0.00033277257
0.00036330461
0.00039380044
0.00042519193
0.00045947261
0.00050098232
0.00051435963
0.00012888787
0.00013794472
0.00015649327
0.00018157343
0.00021050867
0.00024125313
0.0002725123
0.0003035869
0.00033420283
0.00036442089
0.00039465063
0.0004258262
0.00045994283
0.00050134277
0.00051469447
0.00013328799
0.00014215956
0.00016034764
0.00018498263
0.00021345609
0.00024375484
0.00027459655
0.00030528815
0.00033556062
0.00036547891
0.00039545567
0.0004264271
0.0004603902
0.0005016901
0.00051502572
0.00013758354
0.00014626568
0.00016408703
0.00018827254
0.00021628487
0.00024614442
0.00027657984
0.00030690221
0.00033684572
0.00036647833
0.00039621511
0.0004269941
0.00046081421
0.00050202382
0.00051535306
0.0001417647
0.00015025525
0.00016770676
0.00019144125
0.00021899469
0.00024842215
0.00027846246
0.00030842916
0.00033805799
0.00036741881
0.00039692848
0.00042752669
0.00046121435
0.00050234348
0.00051567616
0.00014582338
0.00015412182
0.0001712031
0.00019448739
0.00022158561
0.00025058856
0.00028024489
0.00030986919
0.00033919736
0.00036830004
0.00039759533
0.00042802436
0.0004615901
0.00050264862
0.00051599468
0.00014975301
0.00015786022
0.00017457312
0.00019741011
0.00022405797
0.00025264439
0.00028192775
0.00031122265
0.00034026384
0.0003691218
0.00039821527
0.00042848662
0.00046194095
0.00050293877
0.00051630829
0.00015354847
0.00016146644
0.00017781473
0.00020020905
0.00022641247
0.00025459064
0.00028351188
0.00031249
0.00034125754
0.00036988389
0.00039878793
0.00042891301
0.00046226644
0.00050321349
0.00051661665
0.00015720593
0.00016493755
0.00018092653
0.00020288428
0.00022865006
0.0002564285
0.00028499826
0.00031367185
0.00034217868
0.00037058625
0.00039931302
0.00042930311
0.00046256611
0.00050347235
0.0005169194
0.0001607227
0.0001682716
0.00018390782
0.00020543629
0.00023077199
0.00025815939
0.00028638807
0.00031476896
0.00034302761
0.00037122888
0.0003997903
0.00042965658
0.00046283955
0.00050371496
0.0005172162
0.00016409714
0.00017146749
0.00018675846
0.00020786595
0.00023277975
0.00025978491
0.00028768266
0.00031578226
0.0003438048
0.00037181189
0.00040021963
0.00042997309
0.00046308638
0.00050394094
0.0005175067
0.0001673285
0.00017452489
0.0001894789
0.00021017447
0.00023467504
0.00026130684
0.00028888352
0.00031671281
0.00034451087
0.0003723355
0.00040060096
0.00043025243
0.00046330629
0.00050414994
0.00051779056
0.00017041682
0.00017744415
0.00019207003
0.00021236336
0.00023645978
0.00026272713
0.00028999234
0.00031756181
0.00034514657
0.00037280005
0.00040093433
0.00043049443
0.00046349902
0.00050434166
0.00051806743
0.00017336282
0.00018022619
0.00019453318
0.00021443441
0.00023813606
0.00026404787
0.0002910109
0.00031833064
0.00034571276
0.00037320603
0.00040121989
0.00043069905
0.00046366439
0.00050451585
0.00051833698
0.00017616783
0.00018287245
0.00019687006
0.00021638966
0.00023970613
0.00026527129
0.00029194115
0.00031902078
0.00034621049
0.00037355402
0.0004014579
0.0004308663
0.00046380227
0.00050467231
0.0005185989
0.00017883363
0.0001853848
0.00019908268
0.00021823132
0.00024117238
0.00026639971
0.00029278514
0.00031963387
0.00034664091
0.00037384477
0.00040164877
0.00043099634
0.00046391264
0.00050481087
0.00051885287
0.00018136246
0.00018776548
0.00020117333
0.00021996182
0.00024253732
0.0002674356
0.00029354505
0.00032017165
0.0003470053
0.00037407912
0.00040179298
0.00043108939
0.00046399555
0.00050493145
0.00051909861
0.00018375691
0.00019001703
0.00020314455
0.00022158373
0.00024380356
0.00026838146
0.00029422313
0.000320636
0.0003473051
0.00037425808
0.00040189118
0.00043114582
0.00046405114
0.00050503402
0.00051933584
0.00018601983
0.00019214225
0.00020499905
0.00022309975
0.00024497381
0.00026923992
0.00029482174
0.0003210289
0.00034754183
0.00037438275
0.00040194412
0.00043116609
0.00046407966
0.00050511863
0.00051956432
0.00018815434
0.00019414417
0.00020673972
0.00022451268
0.00024605082
0.00027001362
0.00029534332
0.0003213524
0.00034771716
0.0003744544
0.00040195268
0.00043115077
0.00046408143
0.00050518538
0.00051978383
0.00019016374
0.00019602597
0.00020836959
0.00022582543
0.00024703744
0.00027070529
0.00029579034
0.00032160867
0.00034783284
0.00037447438
0.00040191787
0.00043110056
0.00046405688
0.00050523446
0.00051999416
0.00019205147
0.00019779098
0.00020989178
0.00022704096
0.00024793651
0.00027131768
0.00029616536
0.00032179995
0.00034789075
0.00037444417
0.0004018408
0.00043101627
0.00046400655
0.00050526612
0.00052019516
0.0001938211
0.00019944261
0.00021130949
0.0002281623
0.00024875096
0.00027185357
0.00029647096
0.00032192853
0.00034789282
0.00037436535
0.0004017227
0.0004308988
0.00046393106
0.00050528069
0.00052038669
0.00019547629
0.00020098438
0.00021262599
0.0002291925
0.0002494837
0.00027231576
0.00029670976
0.00032199677
0.00034784109
0.00037423959
0.0004015649
0.00043074916
0.0004638311
0.00050527854
0.00052056865
0.00019702073
0.00020241985
0.00021384459
0.00023013466
0.00025013767
0.00027270706
0.00029688441
0.00032200707
0.00034773767
0.00037406867
0.00040136884
0.00043056848
0.00046370748
0.00050526014
0.00052074097
0.00019845816
0.00020375259
0.00021496864
0.00023099188
0.00025071582
0.0002730303
0.00029699757
0.00032196188
0.0003475847
0.00037385442
0.00040113603
0.00043035794
0.00046356108
0.000505226
0.00052090362
0.00019979234
0.00020498622
0.00021600147
0.00023176726
0.00025122106
0.00027328828
0.00029705191
0.00032186366
0.00034738439
0.00037359876
0.00040086807
0.00043011881
0.00046339283
0.0005051767
0.00052105659
0.00020102702
0.00020612434
0.00021694643
0.00023246389
0.00025165634
0.00027348379
0.00029705008
0.0003217149
0.00034713899
0.00037330364
0.00040056662
0.00042985245
0.00046320375
0.00050511284
0.00052119991
0.00020216592
0.00020717053
0.00021780685
0.00023308486
0.00025202454
0.00027361962
0.00029699475
0.00032151807
0.00034685077
0.00037297108