/*--------------------------------*- C++ -*----------------------------------*\
| =========                 |                                                 |
| \\      /  F ield         | OpenFOAM: The Open Source CFD Toolbox           |
|  \\    /   O peration     | Version:  2506                                  |
|   \\  /    A nd           | Website:  www.openfoam.com                      |
|    \\/     M anipulation  |                                                 |
\*---------------------------------------------------------------------------*/
FoamFile
{
    version     2.0;
    format      ascii;
    arch        "LSB;label=32;scalar=64";
    class       volScalarField;
    location    "15000/water";
    object      nut;
}
// * * * * * * * * * * * * * * * * * * * * * * * * * * * * * * * * * * * * * //

dimensions      [0 2 -1 0 0 0 0];

internalField   nonuniform List<scalar> 
6000
(
4.1367308e-05
4.1367285e-05
4.1367292e-05
4.1367317e-05
4.136735e-05
4.1367394e-05
4.1367445e-05
4.1367477e-05
4.1367269e-05
4.1365028e-05
4.1345959e-05
4.1185428e-05
3.984402e-05
3.0619188e-05
1.3489073e-05
4.0862094e-05
4.0862089e-05
4.0862128e-05
4.0862206e-05
4.086231e-05
4.0862441e-05
4.0862573e-05
4.0862525e-05
4.0861044e-05
4.0849566e-05
4.0769767e-05
4.0233638e-05
3.6930279e-05
2.3809326e-05
1.5168915e-05
4.0408426e-05
4.0408431e-05
4.0408496e-05
4.0408619e-05
4.040878e-05
4.0408965e-05
4.0409066e-05
4.0408421e-05
4.0403049e-05
4.0369314e-05
4.0169922e-05
3.9053519e-05
3.3674827e-05
1.9530254e-05
1.6389796e-05
3.9998212e-05
3.9998216e-05
3.9998298e-05
3.9998456e-05
3.9998657e-05
3.9998846e-05
3.9998699e-05
3.999645e-05
3.9982628e-05
3.9907469e-05
3.9519874e-05
3.7665236e-05
3.0439418e-05
1.6813321e-05
1.7227565e-05
3.9625122e-05
3.9625133e-05
3.9625231e-05
3.9625419e-05
3.9625638e-05
3.9625739e-05
3.9624947e-05
3.9619415e-05
3.959045e-05
3.9450123e-05
3.8807695e-05
3.6131535e-05
2.7477322e-05
1.5090355e-05
1.7763765e-05
3.9283984e-05
3.9284007e-05
3.9284119e-05
3.9284324e-05
3.9284521e-05
3.9284369e-05
3.9282279e-05
3.9270986e-05
3.9218236e-05
3.8986823e-05
3.8033859e-05
3.4524992e-05
2.4897642e-05
1.400968e-05
1.8072537e-05
3.8970512e-05
3.8970546e-05
3.8970668e-05
3.8970871e-05
3.8970973e-05
3.8970306e-05
3.8965958e-05
3.8945612e-05
3.8858945e-05
3.8510812e-05
3.7207229e-05
3.2908964e-05
2.2716803e-05
1.3360893e-05
1.8215906e-05
3.8681158e-05
3.8681199e-05
3.8681323e-05
3.8681493e-05
3.8681392e-05
3.8679823e-05
3.8671916e-05
3.8638477e-05
3.8506919e-05
3.801881e-05
3.6341286e-05
3.1331233e-05
2.0908463e-05
1.30184e-05
1.8243034e-05
3.841296e-05
3.8413006e-05
3.8413119e-05
3.8413209e-05
3.8412743e-05
3.8409742e-05
3.8396631e-05
3.8345462e-05
3.8157885e-05
3.7510375e-05
3.5450851e-05
2.9823717e-05
1.9431977e-05
1.2906145e-05
1.8191421e-05
3.816343e-05
3.8163474e-05
3.8163556e-05
3.8163497e-05
3.8162446e-05
3.8157327e-05
3.8137042e-05
3.8063106e-05
3.7808869e-05
3.6987081e-05
3.454982e-05
2.8405299e-05
1.8246291e-05
1.2977275e-05
1.8088864e-05
3.7930458e-05
3.7930491e-05
3.7930513e-05
3.793021e-05
3.7928279e-05
3.7920197e-05
3.7890497e-05
3.7788579e-05
3.7458031e-05
3.6451747e-05
3.3649968e-05
2.7085594e-05
1.7315649e-05
1.3202297e-05
1.7955551e-05
3.7712242e-05
3.7712253e-05
3.7712173e-05
3.7711499e-05
3.7708322e-05
3.7696279e-05
3.7654711e-05
3.7519641e-05
3.7104472e-05
3.5907781e-05
3.2760531e-05
2.58684e-05
1.6611172e-05
1.3561911e-05
1.7805936e-05
3.7507239e-05
3.7507212e-05
3.7506973e-05
3.7505765e-05
3.7500895e-05
3.7483757e-05
3.7427744e-05
3.725459e-05
3.6748014e-05
3.5358688e-05
3.188827e-05
2.4754408e-05
1.6110613e-05
1.4042468e-05
1.7650267e-05
3.7314115e-05
3.7314026e-05
3.7313557e-05
3.7311613e-05
3.7304527e-05
3.7281048e-05
3.7207963e-05
3.6992195e-05
3.6389e-05
3.4807726e-05
3.1037799e-05
2.3743174e-05
1.5797412e-05
1.4632945e-05
1.7495753e-05
3.7131708e-05
3.713153e-05
3.7130739e-05
3.7127817e-05
3.7117921e-05
3.7086772e-05
3.6994026e-05
3.6731629e-05
3.6028109e-05
3.4257704e-05
3.0212055e-05
2.2834479e-05
1.5659519e-05
1.5322866e-05
1.7347422e-05
3.6959006e-05
3.6958703e-05
3.6957478e-05
3.6953298e-05
3.6939934e-05
3.6899735e-05
3.6784847e-05
3.64724e-05
3.5666203e-05
3.3710866e-05
2.9412801e-05
2.2029191e-05
1.5688155e-05
1.6100896e-05
1.7208725e-05
3.6795116e-05
3.6794644e-05
3.6792855e-05
3.6787094e-05
3.6769555e-05
3.6718912e-05
3.6579574e-05
3.6214282e-05
3.5304204e-05
3.3168861e-05
2.8641157e-05
2.132974e-05
1.587657e-05
1.695401e-05
1.7081944e-05
3.6639251e-05
3.6638559e-05
3.6636051e-05
3.6628355e-05
3.6605895e-05
3.6543431e-05
3.637756e-05
3.5957252e-05
3.4942996e-05
3.2632763e-05
2.789813e-05
2.0740252e-05
1.6218811e-05
1.7867211e-05
1.6968459e-05
3.6490711e-05
3.6489738e-05
3.6486338e-05
3.6476321e-05
3.6448171e-05
3.6372563e-05
3.6178336e-05
3.5701433e-05
3.4583359e-05
3.2103134e-05
2.7185145e-05
2.0266398e-05
1.6708562e-05
1.8823777e-05
1.6868922e-05
3.6348869e-05
3.6347546e-05
3.6343063e-05
3.6330312e-05
3.62957e-05
3.6205706e-05
3.5981587e-05
3.5447046e-05
3.4225914e-05
3.1580129e-05
2.6504571e-05
1.991497e-05
1.7338099e-05
1.9805967e-05
1.6783375e-05
3.6213165e-05
3.6211415e-05
3.6205638e-05
3.6189726e-05
3.6147887e-05
3.6042373e-05
3.5787125e-05
3.5194368e-05
3.3871092e-05
3.1063631e-05
2.5860194e-05
1.9693245e-05
1.8097487e-05
2.0796033e-05
1.6711346e-05
3.6083093e-05
3.6080831e-05
3.6073537e-05
3.6054024e-05
3.6004223e-05
3.5882185e-05
3.5594869e-05
3.4943693e-05
3.3519118e-05
3.0553441e-05
2.5257606e-05
1.96082e-05
1.8974102e-05
2.1777346e-05
1.6651939e-05
3.5958194e-05
3.5955329e-05
3.5946284e-05
3.592273e-05
3.5864274e-05
3.5724854e-05
3.5404824e-05
3.4695304e-05
3.3170007e-05
3.0049498e-05
2.4704419e-05
1.9665646e-05
1.9952579e-05
2.2735414e-05
1.660395e-05
3.5838054e-05
3.5834489e-05
3.582345e-05
3.5795422e-05
3.5727676e-05
3.5570179e-05
3.521706e-05
3.444945e-05
3.2823581e-05
2.9552162e-05
2.4210265e-05
1.9869402e-05
2.1015194e-05
2.3658589e-05
1.6565971e-05
3.5722292e-05
3.5717927e-05
3.5704651e-05
3.5671733e-05
3.5594133e-05
3.5418031e-05
3.50317e-05
3.4206321e-05
3.2479493e-05
2.9062524e-05
2.3786503e-05
2.022057e-05
2.2142641e-05
2.4538397e-05
1.6536511e-05
3.5610563e-05
3.5605296e-05
3.558954e-05
3.5551342e-05
3.5463408e-05
3.5268352e-05
3.48489e-05
3.3966035e-05
3.2137286e-05
2.858275e-05
2.3445668e-05
2.0717024e-05
2.3315072e-05
2.5369467e-05
1.6514097e-05
3.5502551e-05
3.549628e-05
3.5477808e-05
3.5433974e-05
3.5335321e-05
3.5121137e-05
3.466884e-05
3.3728621e-05
3.1796463e-05
2.8116417e-05
2.3200676e-05
2.1353142e-05
2.4513224e-05
2.6149157e-05
1.6497357e-05
3.5397967e-05
3.539059e-05
3.536918e-05
3.5319398e-05
3.5209747e-05
3.4976437e-05
3.4491706e-05
3.3494016e-05
3.14566e-05
2.7668794e-05
2.3063903e-05
2.2119832e-05
2.5719465e-05
2.6877012e-05
1.6485071e-05
3.5296546e-05
3.5287966e-05
3.5263414e-05
3.5207424e-05
3.5086609e-05
3.4834344e-05
3.4317681e-05
3.3262058e-05
3.1117487e-05
2.7247026e-05
2.3046253e-05
2.3004862e-05
2.6918581e-05
2.7554165e-05
1.6476201e-05
3.5198047e-05
3.5188175e-05
3.5160297e-05
3.5097901e-05
3.4965875e-05
3.4694991e-05
3.4146934e-05
3.3032492e-05
3.0779305e-05
2.6860148e-05
2.3156315e-05
2.3993438e-05
2.8098247e-05
2.8182808e-05
1.6469894e-05
3.5102251e-05
3.5091004e-05
3.5059649e-05
3.4990715e-05
3.4847558e-05
3.4558539e-05
3.3979609e-05
3.2804987e-05
3.0442844e-05
2.6518902e-05
2.3399716e-05
2.5069008e-05
2.9249139e-05
2.8765761e-05
1.6465472e-05
3.5008959e-05
3.4996268e-05
3.4961317e-05
3.488579e-05
3.4731711e-05
3.4425177e-05
3.3815813e-05
3.2579164e-05
3.0109732e-05
2.6235323e-05
2.3778717e-05
2.6214168e-05
3.0364756e-05
2.9306158e-05
1.646241e-05
3.4917993e-05
3.4903801e-05
3.4865175e-05
3.4783085e-05
3.4618425e-05
3.4295113e-05
3.3655609e-05
3.235464e-05
2.9782687e-05
2.6022142e-05
2.429206e-05
2.7411591e-05
3.1441033e-05
2.9807247e-05
1.6460314e-05
3.4829195e-05
3.4813462e-05
3.4771128e-05
3.4682592e-05
3.4507829e-05
3.416857e-05
3.3499011e-05
3.2131095e-05
2.9465731e-05
2.589204e-05
2.4935073e-05
2.8644859e-05
3.2475855e-05
3.0272255e-05
1.6458891e-05
3.4742423e-05
3.4725129e-05
3.4679107e-05
3.4584339e-05
3.4400083e-05
3.4045774e-05
3.3345975e-05
3.1908364e-05
2.9164362e-05
2.5856856e-05
2.5699991e-05
2.9899124e-05
3.3468558e-05
3.0704314e-05
1.6457936e-05
3.465756e-05
3.4638706e-05
3.4589068e-05
3.4488387e-05
3.4295378e-05
3.3926957e-05
3.3196403e-05
3.1686556e-05
2.8885627e-05
2.5926838e-05
2.6576457e-05
3.1161549e-05
3.4419485e-05
3.1106401e-05
1.6457305e-05
3.4574503e-05
3.4554114e-05
3.4500999e-05
3.4394828e-05
3.4193938e-05
3.381234e-05
3.3050148e-05
3.1466195e-05
2.8638063e-05
2.6110008e-05
2.7552148e-05
3.2421503e-05
3.5329635e-05
3.1481314e-05
1.6456902e-05
3.4493171e-05
3.4471301e-05
3.4414911e-05
3.4303789e-05
3.409601e-05
3.3702133e-05
3.2907027e-05
3.1248389e-05
2.8431492e-05
2.6411716e-05
2.8613483e-05
3.3670555e-05
3.6200409e-05
3.1831643e-05
1.6456669e-05
3.4413502e-05
3.4390234e-05
3.4330848e-05
3.4215429e-05
3.4001867e-05
3.3596524e-05
3.2766849e-05
3.1035013e-05
2.8276656e-05
2.6834392e-05
2.9746331e-05
3.4902297e-05
3.703343e-05
3.2159762e-05
1.6456572e-05
3.4335456e-05
3.4310905e-05
3.4248878e-05
3.4129939e-05
3.3911801e-05
3.3495676e-05
3.2629453e-05
3.0828885e-05
2.818473e-05
2.73775e-05
3.0936679e-05
3.6112069e-05
3.7830438e-05
3.2467823e-05
1.6456596e-05
3.4259011e-05
3.423333e-05
3.4169102e-05
3.4047543e-05
3.3826124e-05
3.3399718e-05
3.2494766e-05
3.0633922e-05
2.8166732e-05
2.8037692e-05
3.2171193e-05
3.7296637e-05
3.8593223e-05
3.2757763e-05
1.6456739e-05
3.4184168e-05
3.4157548e-05
3.409165e-05
3.3968498e-05
3.3745158e-05
3.3308744e-05
3.236288e-05
3.0455254e-05
2.8232926e-05
2.8809106e-05
3.3437648e-05
3.845388e-05
3.9323577e-05
3.3031311e-05
1.6457005e-05
3.4110952e-05
3.4083626e-05
3.4016682e-05
3.3893092e-05
3.3669236e-05
3.3222813e-05
3.2234152e-05
3.0299252e-05
2.8392246e-05
2.9683789e-05
3.4725213e-05
3.9582514e-05
4.002327e-05
3.3290008e-05
1.6457402e-05
3.4039411e-05
3.4011658e-05
3.3944392e-05
3.3821645e-05
3.3598692e-05
3.3141955e-05
3.210932e-05
3.0173466e-05
2.8651821e-05
3.0652195e-05
3.6024572e-05
4.0681868e-05
4.0694026e-05
3.353522e-05
1.6457942e-05
3.3969616e-05
3.3941763e-05
3.3875008e-05
3.3754507e-05
3.3533859e-05
3.306618e-05
3.1989642e-05
3.0086446e-05
2.9016626e-05
3.1703719e-05
3.7327935e-05
4.1751712e-05
4.1337508e-05
3.3768156e-05
1.6458635e-05
3.3901667e-05
3.3874095e-05
3.3808792e-05
3.369206e-05
3.3475059e-05
3.2995507e-05
3.187704e-05
3.0047454e-05
2.9489292e-05
3.2827219e-05
3.8628938e-05
4.2792134e-05
4.1955299e-05
3.3989887e-05
1.6459492e-05
3.3835691e-05
3.3808835e-05
3.3746042e-05
3.3634709e-05
3.3422602e-05
3.2929991e-05
3.1774238e-05
3.006608e-05
3.0070059e-05
3.4011504e-05
3.9922489e-05
4.3803458e-05
4.2548902e-05
3.4201364e-05
1.6460521e-05
3.3771846e-05
3.3746203e-05
3.3687095e-05
3.358289e-05
3.3376778e-05
3.286978e-05
3.1684886e-05
3.0151792e-05
3.0756885e-05
3.5245743e-05
4.1204583e-05
4.4786179e-05
4.3119729e-05
3.4403428e-05
1.6461728e-05
3.3710322e-05
3.3686449e-05
3.3632325e-05
3.3537056e-05
3.3337852e-05
3.281518e-05
3.1613638e-05
3.0313468e-05
3.1545659e-05
3.6519779e-05
4.2472112e-05
4.574092e-05
4.3669102e-05
3.4596827e-05
1.6463121e-05
3.3651343e-05
3.3629867e-05
3.3582146e-05
3.3497683e-05
3.3306071e-05
3.2766736e-05
3.1566176e-05
3.0558944e-05
3.2430518e-05
3.7824349e-05
4.3722695e-05
4.6668398e-05
4.4198256e-05
3.4782225e-05
1.6464701e-05
3.359517e-05
3.3576787e-05
3.3537014e-05
3.3465257e-05
3.328166e-05
3.2725339e-05
3.1549147e-05
3.0894637e-05
3.3404214e-05
3.9151206e-05
4.4954529e-05
4.7569394e-05
4.4708339e-05
3.4960217e-05
1.6466471e-05
3.3542107e-05
3.3527584e-05
3.3497423e-05
3.3440275e-05
3.3264838e-05
3.2692337e-05
3.1570023e-05
3.1325251e-05
3.4458516e-05
4.0493151e-05
4.6166274e-05
4.8444733e-05
4.520042e-05
3.5131333e-05
1.6468431e-05
3.3492497e-05
3.3482682e-05
3.346391e-05
3.3423238e-05
3.3255838e-05
3.2669661e-05
3.1636869e-05
3.1853601e-05
3.5584606e-05
4.1844008e-05
4.7356959e-05
4.9295262e-05
4.5675493e-05
3.5296047e-05
1.647058e-05
3.3446735e-05
3.3442549e-05
3.3437051e-05
3.3414644e-05
3.3254937e-05
3.2659938e-05
3.1758036e-05
3.2480556e-05
3.6773448e-05
4.3198546e-05
4.852591e-05
5.0121834e-05
4.613448e-05
3.5454787e-05
1.6472917e-05
3.3405264e-05
3.3407707e-05
3.3417461e-05
3.3414983e-05
3.3262501e-05
3.2666593e-05
3.1941803e-05
3.3205088e-05
3.8016105e-05
4.4552377e-05
4.9672694e-05
5.09253e-05
4.657824e-05
3.5607939e-05
1.6475438e-05
3.3368581e-05
3.3378733e-05
3.3405791e-05
3.3424736e-05
3.3279046e-05
3.2693912e-05
3.2195997e-05
3.4024424e-05
3.9304001e-05
4.5901848e-05
5.0797077e-05
5.1706496e-05
4.7007567e-05
3.5755851e-05
1.6478139e-05
3.3337244e-05
3.3356261e-05
3.3402726e-05
3.3444374e-05
3.3305313e-05
3.2747056e-05
3.2527623e-05
3.4934267e-05
4.0629104e-05
4.7243935e-05
5.1898982e-05
5.2466238e-05
4.7423204e-05
3.5898838e-05
1.6481016e-05
3.3311875e-05
3.3340983e-05
3.3408981e-05
3.347436e-05
3.3342362e-05
3.2832017e-05
3.2942547e-05
3.5929076e-05
4.1984049e-05
4.8576143e-05
5.2978467e-05
5.3205322e-05
4.7825839e-05
3.6037188e-05
1.6484065e-05
3.3293163e-05
3.3333652e-05
3.3425294e-05
3.3515163e-05
3.339167e-05
3.2955489e-05
3.344524e-05
3.700237e-05
4.3362199e-05
4.9896424e-05
5.403569e-05
5.3924512e-05
4.8216112e-05
3.6171163e-05
1.6487281e-05
3.3281869e-05
3.3335085e-05
3.3452425e-05
3.3567273e-05
3.3455238e-05
3.3124679e-05
3.403861e-05
3.8147036e-05
4.4757657e-05
5.1203107e-05
5.5070891e-05
5.4624549e-05
4.8594619e-05
3.6301002e-05
1.6490657e-05
3.3278836e-05
3.3346162e-05
3.3491148e-05
3.3631233e-05
3.3535698e-05
3.334705e-05
3.4723931e-05
3.9355625e-05
4.6165235e-05
5.2494839e-05
5.6084376e-05
5.5306143e-05
4.8961918e-05
3.6426927e-05
1.6494189e-05
3.3284986e-05
3.3367825e-05
3.3542247e-05
3.3707683e-05
3.3636393e-05
3.3630022e-05
3.5500859e-05
4.0620615e-05
4.7580413e-05
5.3770537e-05
5.7076497e-05
5.5969977e-05
4.9318532e-05
3.6549144e-05
1.649787e-05
3.3301328e-05
3.3401077e-05
3.3606513e-05
3.3797413e-05
3.3761432e-05
3.3980646e-05
3.6367532e-05
4.1934624e-05
4.8999271e-05
5.5029348e-05
5.8047639e-05
5.6616681e-05
4.9664842e-05
3.6667085e-05
1.6501694e-05
3.3328964e-05
3.3446984e-05
3.3684744e-05
3.3901442e-05
3.39157e-05
3.4405293e-05
3.7320736e-05
4.3290581e-05
5.0418426e-05
5.6270611e-05
5.8998206e-05
5.7246852e-05
5.0001245e-05
3.6781085e-05
1.6505652e-05
3.3369088e-05
3.3506667e-05
3.3777752e-05
3.4021096e-05
3.4104807e-05
3.4909373e-05
3.8356115e-05
4.4681849e-05
5.1834966e-05
5.7493825e-05
5.9928615e-05
5.786106e-05
5.0328146e-05
3.689145e-05
1.6509737e-05
3.342299e-05
3.3581298e-05
3.3886369e-05
3.4158108e-05
3.4334979e-05
3.5497107e-05
3.946841e-05
4.610229e-05
5.3246394e-05
5.8698629e-05
6.0839296e-05
5.8459858e-05
5.0645957e-05
3.6998447e-05
1.6513939e-05
3.349206e-05
3.3672099e-05
3.4011474e-05
3.4314714e-05
3.4612885e-05
3.617137e-05
4.0651717e-05
4.7546307e-05
5.465057e-05
5.9884773e-05
6.173068e-05
5.9043725e-05
5.0954637e-05
3.7102363e-05
1.6518251e-05
3.3577782e-05
3.3780335e-05
3.4154021e-05
3.4493743e-05
3.4945402e-05
3.6933614e-05
4.1899721e-05
4.9008845e-05
5.6045669e-05
6.1052104e-05
6.2603188e-05
5.9613103e-05
5.1254402e-05
3.7203359e-05
1.6522664e-05
3.3681739e-05
3.3907312e-05
3.4315083e-05
3.4698693e-05
3.5339355e-05
3.7783867e-05
4.3205921e-05
5.0485372e-05
5.7430142e-05
6.2200545e-05
6.345724e-05
6.0168452e-05
5.1545754e-05
3.7301523e-05
1.6527174e-05
3.3805605e-05
3.4054372e-05
3.4495917e-05
3.4933768e-05
3.5801225e-05
3.8720799e-05
4.4563817e-05
5.1971852e-05
5.8802672e-05
6.3330081e-05
6.4293257e-05
6.0710233e-05
5.1829131e-05
3.7396963e-05
1.6531776e-05
3.3951143e-05
3.4222904e-05
3.4698034e-05
3.5203874e-05
3.6336873e-05
3.9741851e-05
4.5967066e-05
5.3464702e-05
6.0162155e-05
6.4440756e-05
6.5111645e-05
6.1238781e-05
5.2104937e-05
3.7489806e-05
1.6536465e-05
3.4120199e-05
3.4414343e-05
3.4923285e-05
3.5514566e-05
3.6951283e-05
4.0843406e-05
4.7409594e-05
5.4960753e-05
6.1507662e-05
6.5532649e-05
6.5912755e-05
6.175408e-05
5.2373561e-05
3.75802e-05
1.6541241e-05
3.4314699e-05
3.4630197e-05
3.5173956e-05
3.5871923e-05
3.7648361e-05
4.202099e-05
4.8885676e-05
5.6457212e-05
6.2838421e-05
6.6605869e-05
6.669695e-05
6.2256703e-05
5.2635208e-05
3.7668248e-05
1.65461e-05
3.4536642e-05
3.4872073e-05
3.5452857e-05
3.628238e-05
3.843079e-05
4.3269478e-05
5.0389983e-05
5.7951618e-05
6.4153789e-05
6.7660553e-05
6.7464615e-05
6.2747161e-05
5.28901e-05
3.7754036e-05
1.6551038e-05
3.4788102e-05
3.5141718e-05
3.5763399e-05
3.67525e-05
3.9299955e-05
4.4583307e-05
5.1917602e-05
5.9441806e-05
6.5453235e-05
6.8696867e-05
6.821615e-05
6.3225915e-05
5.3138466e-05
3.7837645e-05
1.6556053e-05
3.5071235e-05
3.5441084e-05
3.6109655e-05
3.7288721e-05
4.0255939e-05
4.5956659e-05
5.3464038e-05
6.0925882e-05
6.6736334e-05
6.9714955e-05
6.8951452e-05
6.369343e-05
5.3380556e-05
3.7919168e-05
1.6561141e-05
3.5388287e-05
3.5772391e-05
3.6496367e-05
3.7897086e-05
4.1297576e-05
4.738364e-05
5.5025207e-05
6.2402185e-05
6.8002729e-05
7.0714971e-05
6.9671003e-05
6.4150013e-05
5.361658e-05
3.7998695e-05
1.6566298e-05
3.5741625e-05
3.6138222e-05
3.6928921e-05
3.8582985e-05
4.2422563e-05
4.8858407e-05
5.6597407e-05
6.3869257e-05
6.9252131e-05
7.1697104e-05
7.0375274e-05
6.4595966e-05
5.3846726e-05
3.8076301e-05
1.6571521e-05
3.6133774e-05
3.6541604e-05
3.7413247e-05
3.9350923e-05
4.3627611e-05
5.0375286e-05
5.8177296e-05
6.532582e-05
7.0484313e-05
7.266158e-05
7.1064703e-05
6.5031586e-05
5.4071171e-05
3.8152049e-05
1.6576807e-05
3.6567475e-05
3.6986103e-05
3.795568e-05
4.0204337e-05
4.4908617e-05
5.1928842e-05
5.9761866e-05
6.6770771e-05
7.169909e-05
7.3608247e-05
7.1739671e-05
6.545717e-05
5.4290106e-05
3.8226002e-05
1.6582152e-05
3.7045748e-05
3.7475886e-05
3.8562749e-05
4.114548e-05
4.6260848e-05
5.351394e-05
6.1348415e-05
6.8203126e-05
7.2896288e-05
7.4537405e-05
7.2400528e-05
6.5872983e-05
5.4503707e-05
3.829822e-05
1.6587553e-05
3.7571981e-05
3.8015772e-05
3.9240939e-05
4.2175355e-05
4.7679129e-05
5.5125765e-05
6.2934508e-05
6.9622018e-05
7.4075794e-05
7.5449379e-05
7.3047591e-05
6.6279271e-05
5.4712135e-05
3.836876e-05
1.6593007e-05
3.8150008e-05
3.8611219e-05
3.9996426e-05
4.3293725e-05
4.9158008e-05
5.6759844e-05
6.4517961e-05
7.102669e-05
7.5237463e-05
7.634445e-05
7.3681158e-05
6.6676277e-05
5.4915535e-05
3.8437669e-05
1.659851e-05
3.8784183e-05
3.9268268e-05
4.0834812e-05
4.4499176e-05
5.0691912e-05
5.8412038e-05
6.6096819e-05
7.241647e-05
7.6381082e-05
7.7222862e-05
7.4301504e-05
6.7064241e-05
5.5114048e-05
3.8504993e-05
1.6604059e-05
3.9479434e-05
3.9993419e-05
4.1760878e-05
4.5789228e-05
5.2275266e-05
6.0078534e-05
6.7669308e-05
7.3790732e-05
7.7506673e-05
7.8084918e-05
7.490889e-05
6.7443386e-05
5.5307807e-05
3.8570774e-05
1.660965e-05
4.0241262e-05
4.0793439e-05
4.2778384e-05
4.7160477e-05
5.3902596e-05
6.1755825e-05
6.9233821e-05
7.514894e-05
7.861432e-05
7.8930873e-05
7.5503565e-05
6.7813917e-05
5.5496933e-05
3.863505e-05
1.661528e-05
4.1075695e-05
4.1675119e-05
4.3889918e-05
4.8608764e-05
5.5568608e-05
6.3440713e-05
7.0788948e-05
7.6490488e-05
7.9703948e-05
7.9760926e-05
7.608578e-05
6.8176028e-05
5.5681541e-05
3.8697856e-05
1.6620945e-05
4.1989154e-05
4.2644986e-05
4.5096812e-05
5.0129347e-05
5.7268234e-05
6.5130251e-05
7.233334e-05
7.7814909e-05
8.0775749e-05
8.0575278e-05
7.6655768e-05
6.8529905e-05
5.5861736e-05
3.8759223e-05
1.6626643e-05
4.2988255e-05
4.3709e-05
4.6399117e-05
5.1717061e-05
5.8996658e-05
6.6821721e-05
7.3865771e-05
7.9121887e-05
8.1829851e-05
8.1374128e-05
7.7213744e-05
6.887572e-05
5.6037617e-05
3.8819181e-05
1.6632371e-05
4.4079527e-05
4.487225e-05
4.7795643e-05
5.3366485e-05
6.0749359e-05
6.8512685e-05
7.53851e-05
8.0410949e-05
8.2866302e-05
8.2157671e-05
7.7759912e-05
6.9213633e-05
5.6209275e-05
3.8877755e-05
1.6638124e-05
4.5269079e-05
4.6138685e-05
4.9284043e-05
5.507206e-05
6.2522077e-05
7.0200818e-05
7.6890225e-05
8.1682e-05
8.3885162e-05
8.2926089e-05
7.8294466e-05
6.9543794e-05
5.6376793e-05
3.8934968e-05
1.66439e-05
4.6562227e-05
4.751089e-05
5.0860936e-05
5.6828206e-05
6.4310816e-05
7.1883972e-05
7.8380202e-05
8.2934913e-05
8.4886498e-05
8.367955e-05
7.8817584e-05
6.9866342e-05
5.6540251e-05
3.8990843e-05
1.6649696e-05
4.7963132e-05
4.8989929e-05
5.2522057e-05
5.8629419e-05
6.6111892e-05
7.3560179e-05
7.9854012e-05
8.4169469e-05
8.5870377e-05
8.4418211e-05
7.9329434e-05
7.0181406e-05
5.6699718e-05
3.9045397e-05
1.6655508e-05
4.9474457e-05
5.0575252e-05
5.4262401e-05
6.0470293e-05
6.7921756e-05
7.5227484e-05
8.131117e-05
8.5385488e-05
8.6836852e-05
8.5142216e-05
7.9830169e-05
7.0489105e-05
5.6855261e-05
3.9098648e-05
1.6661333e-05
5.1097105e-05
5.2264691e-05
5.6076391e-05
6.234563e-05
6.9737151e-05
7.6883939e-05
8.2751058e-05
8.6582802e-05
8.7785971e-05
8.5851697e-05
8.0319929e-05
7.0789547e-05
5.7006939e-05
3.915061e-05
1.6667169e-05
5.2830035e-05
5.4054498e-05
5.7957985e-05
6.4250336e-05
7.1554857e-05
7.852816e-05
8.4173075e-05
8.7761242e-05
8.8717766e-05
8.6546768e-05
8.0798843e-05
7.1082833e-05
5.7154805e-05
3.9201297e-05
1.6673012e-05
5.4670205e-05
5.5939477e-05
5.9900841e-05
6.6179533e-05
7.3371651e-05
8.0158863e-05
8.5576653e-05
8.8920635e-05
8.9632258e-05
8.722753e-05
8.1267022e-05
7.136905e-05
5.7298907e-05
3.9250718e-05
1.6678859e-05
5.6612607e-05
5.7913111e-05
6.1898309e-05
6.8128307e-05
7.5184968e-05
8.1774796e-05
8.6961242e-05
9.0060804e-05
9.0529452e-05
8.7894065e-05
8.1724566e-05
7.1648275e-05
5.7439287e-05
3.9298882e-05
1.6684707e-05
5.8650422e-05
5.9967752e-05
6.3943531e-05
7.0091872e-05
7.6992444e-05
8.3374771e-05
8.8326307e-05
9.1181556e-05
9.1409333e-05
8.8546437e-05
8.2171556e-05
7.1920577e-05
5.7575979e-05
3.9345795e-05
1.6690554e-05
6.0775201e-05
6.2094699e-05
6.6029369e-05
7.2066072e-05
7.8791833e-05
8.4957649e-05
8.9671316e-05
9.2282688e-05
9.2271867e-05
8.9184689e-05
8.260806e-05
7.218601e-05
5.7709014e-05
3.9391462e-05
1.6696396e-05
6.2977062e-05
6.4284561e-05
6.8148998e-05
7.4046901e-05
8.058099e-05
8.6522328e-05
9.0995736e-05
9.3363978e-05
9.3116997e-05
8.9808845e-05
8.3034126e-05
7.2444617e-05
5.7838412e-05
3.9435883e-05
1.6702231e-05
6.5245156e-05
6.6527546e-05
7.0295636e-05
7.6030491e-05
8.2357857e-05
8.8067738e-05
9.2299032e-05
9.4425182e-05
9.3944641e-05
9.0418904e-05
8.3449785e-05
7.2696429e-05
5.7964188e-05
3.9479056e-05
1.6708054e-05
6.7568041e-05
6.8813638e-05
7.2462583e-05
7.8013095e-05
8.4120452e-05
8.9592835e-05
9.3580659e-05
9.5466036e-05
9.4754692e-05
9.1014843e-05
8.385505e-05
7.2941463e-05
5.8086349e-05
3.9520978e-05
1.6713864e-05
6.9934041e-05
7.1132803e-05
7.4643257e-05
7.9991081e-05
8.5866854e-05
9.109659e-05
9.4840066e-05
9.6486256e-05
9.554702e-05
9.1596616e-05
8.4249914e-05
7.3179723e-05
5.8204895e-05
3.956164e-05
1.6719656e-05
7.233155e-05
7.3475161e-05
7.6831231e-05
8.1960918e-05
8.7595198e-05
9.2577991e-05
9.6076688e-05
9.7485531e-05
9.6321466e-05
9.2164153e-05
8.4634352e-05
7.34112e-05
5.8319816e-05
3.9601034e-05
1.6725428e-05
7.4749297e-05
7.5831149e-05
7.902027e-05
8.3919177e-05
8.9303666e-05
9.4036038e-05
9.7289954e-05
9.8463534e-05
9.7077848e-05
9.271736e-05
8.5008319e-05
7.3635871e-05
5.8431098e-05
3.9639144e-05
1.6731175e-05
7.7176557e-05
7.8191646e-05
8.1204373e-05
8.5862529e-05
9.0990486e-05
9.5469747e-05
9.8479284e-05
9.9419915e-05
9.7815963e-05
9.3256124e-05
8.5371754e-05
7.3853701e-05
5.8538715e-05
3.9675955e-05
1.6736893e-05
7.9603301e-05
8.0548077e-05
8.3377807e-05
8.7787755e-05
9.2653929e-05
9.6878147e-05
9.9644095e-05
0.00010035431
9.8535584e-05
9.3780308e-05
8.5724577e-05
7.4064643e-05
5.8642637e-05
3.9711448e-05
1.674258e-05
8.2020301e-05
8.2892488e-05
8.5535147e-05
8.9691753e-05
9.4292316e-05
9.8260284e-05
0.0001007838
0.00010126635
9.9236472e-05
9.4289762e-05
8.6066694e-05
7.4268636e-05
5.8742827e-05
3.9745601e-05
1.6748229e-05
8.441919e-05
8.5217595e-05
8.7671305e-05
9.1571553e-05
9.590402e-05
9.961523e-05
0.00010189783
0.00010215565
9.9918372e-05
9.4784318e-05
8.6397997e-05
7.4465613e-05
5.8839242e-05
3.977839e-05
1.6753838e-05
8.6792482e-05
8.751681e-05
8.9781558e-05
9.3424327e-05
9.7487471e-05
0.00010094208
0.00010298562
0.00010302183
0.00010058102
9.5263797e-05
8.6718368e-05
7.4655497e-05
5.8931831e-05
3.9809789e-05
1.6759402e-05
8.913357e-05
8.9784247e-05
9.1861568e-05
9.524741e-05
9.9041169e-05
0.00010223997
0.00010404661
0.00010386452
0.00010122416
9.5728013e-05
8.702768e-05
7.4838202e-05
5.9020544e-05
3.983977e-05
1.6764915e-05
9.1436696e-05
9.2014714e-05
9.3907394e-05
9.703831e-05
0.00010056369
0.00010350808
0.00010508029
0.00010468335
0.00010184751
9.6176778e-05
8.73258e-05
7.501364e-05
5.9105322e-05
3.9868305e-05
1.6770373e-05
9.3696904e-05
9.4203687e-05
9.5915498e-05
9.8794723e-05
0.00010205369
0.00010474562
0.00010608615
0.00010547797
0.00010245083
9.66099e-05
8.7612592e-05
7.5181716e-05
5.9186109e-05
3.9895363e-05
1.677577e-05
9.5909992e-05
9.6347279e-05
9.7882745e-05
0.00010051454
0.00010350993
0.00010595187
0.00010706373
0.00010624805
0.00010303386
9.7027196e-05
8.788792e-05
7.5342338e-05
5.9262843e-05
3.9920915e-05
1.6781102e-05
9.8072447e-05
9.84422e-05
9.9806396e-05
0.00010219586
0.00010493126
0.00010712616
0.00010801263
0.00010699331
0.00010359639
9.7428488e-05
8.8151651e-05
7.5495411e-05
5.9335466e-05
3.994493e-05
1.6786363e-05
0.00010018138
0.00010048571
0.00010168409
0.000103837
0.00010631664
0.0001082679
0.00010893246
0.00010771347
0.00010413821
9.7813612e-05
8.8403659e-05
7.5640842e-05
5.9403917e-05
3.996738e-05
1.6791548e-05
0.00010223448
0.00010247557
0.00010351384
0.00010543645
0.00010766515
0.00010937654
0.00010982291
0.00010840832
0.00010465912
9.8182418e-05
8.8643824e-05
7.5778546e-05
5.9468141e-05
3.9988235e-05
1.679665e-05
0.00010422992
0.00010441002
0.00010529398
0.00010699296
0.00010897598
0.00011045163
0.00011068369
0.00010907764
0.00010515899
9.8534777e-05
8.887204e-05
7.5908439e-05
5.9528083e-05
4.0007469e-05
1.6801665e-05
0.00010616634
0.00010628767
0.0001070232
0.00010850545
0.00011024843
0.00011149277
0.00011151458
0.00010972131
0.00010563769
9.8870578e-05
8.9088211e-05
7.6030448e-05
5.9583694e-05
4.0025055e-05
1.6806587e-05
0.00010804274
0.00010810753
0.00010870044
0.00010997303
0.00011148194
0.00011249966
0.00011231543
0.00011033921
0.00010609512
9.9189737e-05
8.929226e-05
7.6144509e-05
5.9634927e-05
4.0040972e-05
1.6811411e-05
0.00010985851
0.00010986893
0.00011032496
0.00011139502
0.00011267603
0.00011347205
0.00011308612
0.00011093129
0.00010653124
9.9492194e-05
8.9484125e-05
7.6250566e-05
5.9681745e-05
4.0055198e-05
1.681613e-05
0.00011161329
0.00011157146
0.00011189622
0.00011277091
0.00011383036
0.00011440977
0.00011382661
0.00011149753
0.00010694602
9.9777917e-05
8.9663764e-05
7.6348579e-05
5.9724114e-05
4.0067717e-05
1.682074e-05
0.00011330699
0.00011321497
0.00011341392
0.00011410033
0.00011494468
0.00011531274
0.00011453688
0.00011203796
0.0001073395
0.0001000469
8.9831155e-05
7.6438518e-05
5.9762012e-05
4.0078514e-05
1.6825234e-05
0.00011493975
0.00011479955
0.00011487796
0.00011538311
0.00011601887
0.00011618093
0.000115217
0.00011255266
0.00010771172
0.00010029918
8.9986301e-05
7.6520371e-05
5.9795421e-05
4.0087581e-05
1.6829609e-05
0.0001165119
0.00011632543
0.00011628841
0.00011661917
0.00011705289
0.0001170144
0.00011586709
0.00011304175
0.00010806279
0.00010053481
9.0129225e-05
7.659414e-05
5.9824337e-05
4.009491e-05
1.6833859e-05
0.00011802391
0.00011779304
0.00011764549
0.00011780859
0.0001180468
0.00011781325
0.00011648729
0.0001135054
0.00010839284
0.00010075388
9.0259977e-05
7.6659844e-05
5.9848764e-05
4.0100502e-05
1.6837979e-05
0.00011947642
0.00011920294
0.00011894957
0.00011895158
0.00011900074
0.00011857768
0.00011707783
0.00011394382
0.00010870204
0.00010095652
9.0378632e-05
7.6717523e-05
5.9868717e-05
4.0104361e-05
1.6841964e-05
0.00012087015
0.00012055579
0.00012020114
0.00012004842
0.00011991495
0.00011930793
0.00011763898
0.00011435726
0.00010899061
0.00010114287
9.048529e-05
7.6767232e-05
5.9884224e-05
4.0106498e-05
1.6845811e-05
0.00012220597
0.00012185237
0.00012140078
0.00012109952
0.00012078975
0.0001200043
0.00011817103
0.00011474601
0.00010925879
0.00010131314
9.0580079e-05
7.6809048e-05
5.9895325e-05
4.0106927e-05
1.6849515e-05
0.0001234848
0.00012309357
0.00012254919
0.00012210538
0.00012162552
0.00012066716
0.00011867436
0.00011511041
0.00010950688
0.00010146753
9.0663152e-05
7.6843068e-05
5.9902073e-05
4.010567e-05
1.6853074e-05
0.00012470765
0.00012428031
0.00012364714
0.00012306656
0.00012242271
0.00012129692
0.00011914935
0.00011545083
0.00010973518
0.00010160631
9.0734692e-05
7.6869409e-05
5.9904534e-05
4.0102754e-05
1.6856483e-05
0.0001258756
0.00012541363
0.00012469548
0.00012398371
0.00012318184
0.00012189405
0.00011959647
0.00011576769
0.00010994406
0.00010172975
9.0794903e-05
7.6888207e-05
5.9902786e-05
4.0098215e-05
1.6859741e-05
0.00012698978
0.00012649459
0.00012569511
0.00012485756
0.00012390349
0.00012245906
0.00012001618
0.00011606142
0.0001101339
0.00010183817
9.0844019e-05
7.689962e-05
5.9896923e-05
4.009209e-05
1.6862845e-05
0.00012805136
0.00012752431
0.000126647
0.00012568886
0.0001245883
0.00012299251
0.000120409
0.0001163325
0.00011030512
0.0001019319
9.0882296e-05
7.6903824e-05
5.9887048e-05
4.0084426e-05
1.6865794e-05
0.00012906156
0.00012850397
0.00012755217
0.00012647845
0.00012523694
0.00012349501
0.0001207755
0.00011658145
0.00011045816
0.00010201131
9.0910013e-05
7.6901013e-05
5.987328e-05
4.0075273e-05
1.6868586e-05
0.00013002164
0.00012943476
0.00012841168
0.00012722719
0.00012585014
0.00012396718
0.00012111625
0.00011680878
0.00011059349
0.0001020768
9.0927472e-05
7.6891399e-05
5.9855746e-05
4.0064688e-05
1.6871221e-05
0.00013093288
0.00013031791
0.00012922663
0.00012793602
0.00012642866
0.0001244097
0.00012143187
0.00011701507
0.00011071161
0.00010212876
9.0934994e-05
7.6875209e-05
5.9834585e-05
4.0052732e-05
1.68737e-05
0.00013179658
0.00013115468
0.00012999813
0.00012860586
0.0001269733
0.00012482328
0.00012172299
0.00011720089
0.00011081302
0.00010216765
9.0932916e-05
7.6852687e-05
5.9809947e-05
4.0039471e-05
1.6876021e-05
0.00013261406
0.00013194635
0.00013072734
0.00012923771
0.00012748489
0.00012520863
0.00012199028
0.00011736685
0.00011089826
0.0001021939