/*--------------------------------*- C++ -*----------------------------------*\
| =========                 |                                                 |
| \\      /  F ield         | OpenFOAM: The Open Source CFD Toolbox           |
|  \\    /   O peration     | Version:  2506                                  |
|   \\  /    A nd           | Website:  www.openfoam.com                      |
|    \\/     M anipulation  |                                                 |
\*---------------------------------------------------------------------------*/
FoamFile
{
    version     2.0;
    format      ascii;
    arch        "LSB;label=32;scalar=64";
    class       surfaceScalarField;
    location    "15000/water";
    object      phi;
}
// * * * * * * * * * * * * * * * * * * * * * * * * * * * * * * * * * * * * * //

dimensions      [1 0 -1 0 0 0 0];

oriented        oriented;

internalField   nonuniform List<scalar> 
11585
(
-1.313792e-06
0.00048440267
-5.3280547e-06
0.0014532809
-1.2127227e-05
0.0024222435
-2.1852679e-05
0.0033913476
-3.4715325e-05
0.0043606625
-5.1001499e-05
0.0053302637
-7.1083764e-05
0.0063002377
-9.5435194e-05
0.0072706845
-0.00012464613
0.0082417217
-0.00015943259
0.0092134751
-0.00020054802
0.010185982
-0.00024815003
0.011158646
-0.00029864418
0.012127716
-0.00032291745
0.013067673
0.01368666
-1.6346617e-06
0.00048603733
-6.5771598e-06
0.0014582234
-1.4836024e-05
0.0024305024
-2.6425787e-05
0.0034029374
-4.1365734e-05
0.0043756024
-5.9674432e-05
0.0053485724
-8.1362962e-05
0.0063219262
-0.00010642483
0.0072957464
-0.00013481672
0.0082701136
-0.00016640745
0.0092450658
-0.00020079565
0.01022037
-0.00023647938
0.01119433
-0.0002666563
0.012157893
-0.00025457078
0.013055587
0.013432089
-1.6701015e-06
0.00048770743
-6.5929278e-06
0.0014631462
-1.4773491e-05
0.002438683
-2.6221894e-05
0.0034143858
-4.0945963e-05
0.0043903265
-5.8955404e-05
0.0053665818
-8.0263839e-05
0.0063432346
-0.00010488901
0.0073203716
-0.00013284178
0.0082980664
-0.00016406132
0.0092762853
-0.00019814562
0.010254454
-0.00023332868
0.011229513
-0.00026190878
0.012186473
-0.00024272199
0.013036401
0.013189367
-1.7119635e-06
0.0004894194
-6.8435341e-06
0.0014682778
-1.5399876e-05
0.0024472393
-2.7391209e-05
0.0034263771
-4.283175e-05
0.0044057671
-6.1739569e-05
0.0053854897
-8.4135091e-05
0.0063656301
-0.0001100348
0.0073462713
-0.00013942463
0.0083274562
-0.00017215217
0.0093090129
-0.00020754176
0.010289844
-0.00024312988
0.011265101
-0.00026941013
0.012212753
-0.00023956968
0.01300656
0.012949797
-1.760232e-06
0.00049117963
-7.056152e-06
0.0014735737
-1.5889756e-05
0.0024560729
-2.826388e-05
0.0034387512
-4.4183018e-05
0.0044216862
-6.3652339e-05
0.005404959
-8.6675001e-05
0.0063886528
-0.00011324192
0.0073728382
-0.00014329248
0.0083575067
-0.0001765727
0.0093422931
-0.0002121716
0.010325443
-0.00024708112
0.01130001
-0.00027028843
0.012235961
-0.00023126234
0.012967534
0.012718535
-1.7816102e-06
0.00049296124
-7.1271333e-06
0.0014789192
-1.603803e-05
0.0024649838
-2.8516642e-05
0.0034512298
-4.4565925e-05
0.0044377355
-6.4188778e-05
0.0054245818
-8.7384364e-05
0.0064118484
-0.00011413321
0.007399587
-0.00014434328
0.0083877168
-0.00017767412
0.009375624
-0.00021301243
0.010360781
-0.00024688606
0.011333884
-0.00026689385
0.012255968
-0.00022012995
0.01292077
0.012498405
-1.7821797e-06
0.00049474342
-7.1264934e-06
0.0014842635
-1.6034354e-05
0.0024738917
-2.8508174e-05
0.0034637037
-4.4550708e-05
0.004453778
-6.4163839e-05
0.005444195
-8.7342958e-05
0.0064350275
-0.00011405608
0.0074263002
-0.00014417436
0.0084178351
-0.00017726592
0.0094087155
-0.00021202742
0.010395543
-0.00024456854
0.011366425
-0.00026117981
0.01227258
-0.00020779615
0.012867386
0.012290609
-1.7710725e-06
0.00049651449
-7.0840966e-06
0.0014895766
-1.5940127e-05
0.0024827477
-2.8340819e-05
0.0034761044
-4.4287781e-05
0.004469725
-6.3780555e-05
0.0054636877
-8.6808665e-05
0.0064580556
-0.0001133243
0.0074528158
-0.00014315809
0.0084476689
-0.0001757879
0.0094413453
-0.00020973665
0.010429491
-0.00024072505
0.011397414
-0.00025380649
0.012285661
-0.00019492304
0.012808503
0.012095686
-1.7524834e-06
0.00049826697
-7.0102663e-06
0.0014948343
-1.577414e-05
0.0024915116
-2.8045194e-05
0.0034883754
-4.3823992e-05
0.0044855038
-6.3107629e-05
0.0054829714
-8.5879134e-05
0.0064808271
-0.00011207347
0.0074790101
-0.00014147992
0.0084770753
-0.00017349067
0.0094733561
-0.00020646882
0.010462469
-0.00023575587
0.011426701
-0.00024522711
0.012295132
-0.0001819236
0.012745199
0.011913762
-1.7285696e-06
0.00049999554
-6.9144002e-06
0.0015000202
-1.5558104e-05
0.0025001553
-2.7660371e-05
0.0035004777
-4.3220797e-05
0.0045010642
-6.2233883e-05
0.0055019845
-8.4675495e-05
0.0065032687
-0.00011046221
0.0075047969
-0.00013934183
0.0085059549
-0.00017062598
0.0095046402
-0.00020252743
0.010494371
-0.00023000373
0.011454177
-0.00023580268
0.012300931
-0.00016906992
0.012678467
0.011744692
-1.70094e-06
0.00050169648
-6.8037902e-06
0.001505123
-1.5308997e-05
0.0025086605
-2.7216839e-05
0.0035123855
-4.2525844e-05
0.0045163732
-6.1227561e-05
0.0055206862
-8.3289917e-05
0.0065253311
-0.00010861012
0.0075301171
-0.000136895
0.0085342398
-0.00016738031
0.0095351255
-0.00019813362
0.010525124
-0.00022371244
0.011479756
-0.00022578413
0.012303003
-0.00015651972
0.012609202
0.011588173
-1.6709202e-06
0.0005033674
-6.6837125e-06
0.0015101358
-1.5038658e-05
0.0025170154
-2.6735589e-05
0.0035240824
-4.177183e-05
0.0045314095
-6.0135597e-05
0.0055390499
-8.178618e-05
0.0065469817
-0.00010660079
0.0075549317
-0.00013424618
0.0085618852
-0.00016388614
0.0095647655
-0.00019344352
0.010554682
-0.00021704984
0.011503362
-0.00021534229
0.012301295
-0.00014435878
0.012538219
0.011443814
-1.6395267e-06
0.00050500693
-6.5581296e-06
0.0015150544
-1.4755919e-05
0.0025252132
-2.6232239e-05
0.0035355588
-4.0983052e-05
0.0045461603
-5.899287e-05
0.0055570598
-8.0211744e-05
0.0065682005
-0.00010449654
0.0075792165
-0.00013147499
0.0085888636
-0.0001602416
0.0095935321
-0.0001885704
0.01058301
-0.00021013199
0.011524924
-0.0002045968
0.01229576
-0.00013263332
0.012466255
0.011311181
-1.6075053e-06
0.00050661444
-6.4300134e-06
0.0015198769
-1.4467448e-05
0.0025332506
-2.5718605e-05
0.0035468099
-4.0177906e-05
0.0045606196
-5.782579e-05
0.0055747076
-7.860256e-05
0.0065889773
-0.00010234457
0.0076029585
-0.0001286416
0.0086151607
-0.00015652001
0.0096214105
-0.0001835964
0.010610087
-0.00020303754
0.011544365
-0.00019363624
0.012286359
-0.00012137095
0.01239399
0.01118981
-1.5754214e-06
0.00050818986
-6.3016364e-06
0.0015246031
-1.4178357e-05
0.0025411274
-2.5203756e-05
0.0035578353
-3.9370524e-05
0.0045747863
-5.6654671e-05
0.0055919918
-7.6986335e-05
0.006609309
-0.00010018133
0.0076261535
-0.00012579228
0.0086407716
-0.00015277703
0.0096483953
-0.00017858159
0.010635891
-0.00019581922
0.011561602
-0.00018253466
0.012273074
-0.00011059474
0.01232205
0.011079215
-1.5437291e-06
0.00050973359
-6.1748176e-06
0.0015292342
-1.3892736e-05
0.0025488453
-2.4694946e-05
0.0035686375
-3.8572216e-05
0.0045886636
-5.5495795e-05
0.0056089154
-7.5385319e-05
0.0066291985
-9.8036087e-05
0.0076488043
-0.00012296402
0.0086656995
-0.00014905646
0.0096744877
-0.00017357093
0.010660406
-0.00018851281
0.011576544
-0.00017136408
0.012255926
-0.00010033148
0.012251018
0.010978883
-1.5128054e-06
0.00051124639
-6.0510648e-06
0.0015337725
-1.3613973e-05
0.0025564082
-2.4198186e-05
0.0035792217
-3.7792358e-05
0.0046022578
-5.4362681e-05
0.0056254857
-7.3818011e-05
0.0066486538
-9.5933159e-05
0.0076709194
-0.00012018734
0.0086899537
-0.00014539366
0.009699694
-0.00016859847
0.010683611
-0.00018114318
0.011589089
-0.00016020252
0.012234985
-9.0614596e-05
0.01218143
0.010888269
-1.4829658e-06
0.00051272936
-5.93164e-06
0.0015382212
-1.3344902e-05
0.0025638214
-2.3718509e-05
0.0035895953
-3.7038814e-05
0.0046155781
-5.3266679e-05
0.0056417135
-7.2299955e-05
0.0066676871
-9.3892922e-05
0.0076925124
-0.00011748756
0.0087135484
-0.00014181718
0.0097240236
-0.00016368932
0.010705483
-0.0001737284
0.011599128
-0.00014913745
0.012210394
-8.1482762e-05
0.012113775
0.010806786
-1.4544692e-06
0.00051418383
-5.8175781e-06
0.0015425843
-1.308785e-05
0.0025710917
-2.3260047e-05
0.0035997675
-3.6318039e-05
0.0046286361
-5.2217122e-05
0.0056576126
-7.0843932e-05
0.0066863139
-9.1932065e-05
0.0077136005
-0.00011488513
0.0087365014
-0.00013834916
0.0097474877
-0.00015886025
0.010725994
-0.00016628243
0.01160655
-0.00013826517
0.012182377
-7.2975469e-05
0.012048485
0.01073381
-1.4275154e-06
0.00051561134
-5.7096777e-06
0.0015468664
-1.2844611e-05
0.0025782267
-2.2825986e-05
0.0036097489
-3.5635024e-05
0.0046414451
-5.1221226e-05
0.0056731988
-6.9459815e-05
0.0067045525
-9.0063388e-05
0.0077342041
-0.00011239538
0.0087588334
-0.00013500501
0.0097700973
-0.00015411954
0.010745108
-0.00015881736
0.011611248
-0.00012768679
0.012151246
-6.5127027e-05
0.011985925
0.010668683
-1.4022406e-06
0.00051701358
-5.608483e-06
0.0015510727
-1.2616408e-05
0.0025852346
-2.2418499e-05
0.003619551
-3.4993166e-05
0.0046540198
-5.0283912e-05
0.0056884896
-6.8154315e-05
0.0067224229
-8.8295464e-05
0.0077543452
-0.00011002811
0.0087805661
-0.00013179283
0.009791862
-0.00014946665
0.010762782
-0.00015134545
0.011613127
-0.00011750185
0.012117403
-5.7960621e-05
0.011926384
0.010610723
-1.378715e-06
0.0005183923
-5.5142733e-06
0.0015552082
-1.2403867e-05
0.0025921242
-2.2038696e-05
0.0036291858
-3.4394204e-05
0.0046663753
-4.9407695e-05
0.0057035031
-6.6930833e-05
0.006739946
-8.6632446e-05
0.0077740469
-0.0001077873
0.0088017209
-0.0001287131
0.0098127878
-0.00014489246
0.010778962
-0.00014388131
0.011612116
-0.00010780106
0.012081322
-5.1483858e-05
0.011870067
0.010559239
-1.3569446e-06
0.00051974924
-5.4270712e-06
0.0015592784
-1.2207035e-05
0.0025989041
-2.1686661e-05
0.0036386655
-3.3838271e-05
0.0046785269
-4.8592764e-05
0.0057182576
-6.5789554e-05
0.0067571428
-8.5074193e-05
0.0077933315
-0.0001056713
0.008822318
-0.00012575891
0.0098328754
-0.00014038024
0.010793583
-0.00013644398
0.011608179
-9.8659613e-05
0.012043538
-4.5686741e-05
0.011817094
0.010513552
-1.3368788e-06
0.00052108612
-5.3466731e-06
0.0015632882
-1.2025454e-05
0.0026055829
-2.136157e-05
0.0036480016
-3.3324078e-05
0.0046904894
-4.7837246e-05
0.0057327707
-6.4727823e-05
0.0067740334
-8.361676e-05
0.0078122204
-0.00010367344
0.0088423747
-0.00012291675
0.0098521187
-0.00013590757
0.010806574
-0.0001290586
0.01160133
-9.0132231e-05
0.012004612
-4.0542297e-05
0.011767504
0.01047301
-1.3184222e-06
0.00052240454
-5.2726967e-06
0.0015672424
-1.1858259e-05
0.0026121685
-2.1061889e-05
0.0036572052
-3.2849217e-05
0.0047022768
-4.7137644e-05
0.0057470592
-6.3740728e-05
0.0067906365
-8.225317e-05
0.0078307329
-0.000101783
0.0088619045
-0.00012016782
0.0098705035
-0.00013144897
0.010817855
-0.00012175714
0.011591639
-8.2250756e-05
0.011965105
-3.6009416e-05
0.011721263
0.010437001
-1.3014489e-06
0.00052370599
-5.2046376e-06
0.0015711456
-1.1704314e-05
0.0026186682
-2.0785591e-05
0.0036662865
-3.2410515e-05
0.0047139017
-4.6489343e-05
0.005761138
-6.2821805e-05
0.0068069689
-8.0974334e-05
0.0078488854
-9.9986372e-05
0.0088809166
-0.00011748963
0.0098880068
-0.00012697904
0.010827344
-0.00011457774
0.011579237
-7.5024306e-05
0.011925552
-3.2037021e-05
0.011678276
0.010404964
-1.2858163e-06
0.00052499181
-5.1419252e-06
0.0015750017
-1.1562335e-05
0.0026250886
-2.0530388e-05
0.0036752545
-3.2004381e-05
0.0047253757
-4.5887115e-05
0.0057750207
-6.1963719e-05
0.0068230455
-7.9769943e-05
0.0078666916
-9.8268198e-05
0.0088994148
-0.00011485756
0.0099045961
-0.00012247554
0.010834962
-0.00010756279
0.011564325
-6.8441674e-05
0.011886431
-2.8568607e-05
0.011638403
0.010376395
-1.2713771e-06
0.00052626319
-5.08397e-06
0.0015788143
-1.1430992e-05
0.0026314356
-2.0293915e-05
0.0036841175
-3.1627102e-05
0.0047367089
-4.5325543e-05
0.0057887192
-6.1158845e-05
0.0068388788
-7.8629222e-05
0.007884162
-9.6612305e-05
0.0089173979
-0.00011224639
0.0099202302
-0.00011792214
0.010840638
-0.00010075594
0.011547158
-6.2475241e-05
0.01184815
-2.5546308e-05
0.011601474
0.010350849
-1.2579878e-06
0.00052752117
-5.0301984e-06
0.0015825865
-1.1308995e-05
0.0026377144
-2.0073872e-05
0.0036928823
-3.1275065e-05
0.0047479101
-4.4799338e-05
0.0058022434
-6.0399694e-05
0.0068544792
-7.7541482e-05
0.0079013038
-9.5002417e-05
0.0089348588
-0.00010963152
0.0099348593
-0.00011331048
0.010844317
-9.4198576e-05
0.011528046
-5.7085585e-05
0.011811037
-2.2914044e-05
0.011567302
0.010327935
-1.2455149e-06
0.00052876669
-4.9800763e-06
0.0015863211
-1.1195141e-05
0.0026439294
-1.9868113e-05
0.0037015553
-3.0944889e-05
0.0047589868
-4.4303536e-05
0.0058156021
-5.9679183e-05
0.0068698548
-7.6496467e-05
0.0079181211
-9.3422611e-05
0.008951785
-0.00010698998
0.0099484267
-0.00010864131
0.010845968
-8.7926538e-05
0.011507332
-5.2226067e-05
0.011775336
-2.0619585e-05
0.011535696
0.010307315
-1.2338376e-06
0.00053000053
-4.9331204e-06
0.0015900204
-1.1088341e-05
0.0026500847
-1.9674695e-05
0.0037101417
-3.0633507e-05
0.0047699456
-4.3833602e-05
0.0058288022
-5.8990775e-05
0.006885012
-7.5484522e-05
0.0079346148
-9.1857576e-05
0.008968158
-0.0001043013
0.0099608704
-0.00010392462
0.010845592
-8.1967616e-05
0.011485375
-4.7846852e-05
0.011741216
-1.8615644e-05
0.011506464
0.010288699
-1.2228492e-06
0.00053122337
-4.8889034e-06
0.0015936864
-1.098763e-05
0.0026561834
-1.9491894e-05
0.0037186459
-3.0338187e-05
0.0047807919
-4.338547e-05
0.0058418494
-5.8328522e-05
0.0068999551
-7.449665e-05
0.007950783
-9.0292742e-05
0.0089839541
-0.0001015482
0.0099721259
-9.9178737e-05
0.010843222
-7.6340101e-05
0.011462536
-4.3898076e-05
0.011708774
-1.6860249e-05
0.011479427
0.010271839
-1.2124566e-06
0.00053243583
-4.8470527e-06
0.001597321
-1.0892169e-05
0.0026622285
-1.9318205e-05
0.003727072
-3.0056528e-05
0.0047915303
-4.295553e-05
0.0058547484
-5.7687054e-05
0.0069146866
-7.3524484e-05
0.0079666204
-8.8714353e-05
0.008999144
-9.871726e-05
0.0099821288
-9.4428638e-05
0.010838934
-7.105254e-05
0.01143916
-4.0332087e-05
0.011678053
-1.5316665e-05
0.011454411
0.010256522
-1.2025799e-06
0.00053363841
-4.8072478e-06
0.0016009257
-1.0801233e-05
0.0026682225
-1.9152324e-05
0.003735423
-2.9786441e-05
0.0048021644
-4.2540598e-05
0.0058675026
-5.7061525e-05
0.0069292075
-7.2560217e-05
0.0079821191
-8.7109527e-05
0.0090136933
-9.5799519e-05
0.0099908188
-8.9703621e-05
0.010832838
-6.6104494e-05
0.011415561
-3.7104832e-05
0.011649054
-1.3953065e-05
0.011431259
0.010242569
-1.1931508e-06
0.00053483156
-4.7692153e-06
0.0016045018
-1.0714201e-05
0.0026741675
-1.8993131e-05
0.003743702
-2.9526111e-05
0.0048126974
-4.2137867e-05
0.0058801144
-5.6447553e-05
0.0069435172
-7.1596522e-05
0.0079972681
-8.5466337e-05
0.0090275631
-9.2790917e-05
0.0099981434
-8.5034774e-05
0.010825082
-6.1488021e-05
0.011392014
-3.4176539e-05
0.011621742
-1.2742113e-05
0.011409825
0.010229827
-1.1841115e-06
0.00053601567
-4.732723e-06
0.0016080504
-1.0630547e-05
0.0026800653
-1.8839668e-05
0.0037519111
-2.9273969e-05
0.0048231317
-4.1744858e-05
0.0058925852
-5.5841134e-05
0.0069576135
-7.0626453e-05
0.0080120534
-8.3773924e-05
0.0090407106
-8.969257e-05
0.010004062
-8.0452515e-05
0.010815842
-5.7189501e-05
0.011368751
-3.1511898e-05
0.011596064
-1.1660519e-05
0.011389974
0.010218167
-1.1754133e-06
0.00053719109
-4.6975749e-06
0.0016115725
-1.0549823e-05
0.0026859176
-1.8691113e-05
0.0037600524
-2.9028646e-05
0.0048334692
-4.1359358e-05
0.005904916
-5.5238571e-05
0.0069714927
-6.9643369e-05
0.0080264582
-8.2022667e-05
0.0090530899
-8.6510763e-05
0.01000855
-7.598451e-05
0.010805315
-5.3191503e-05
0.011345958
-2.9079897e-05
0.011571953
-1.0688598e-05
0.011371582
0.010207478
-1.1670151e-06
0.0005383581
-4.6636052e-06
0.0016150691
-1.0471649e-05
0.0026917256
-1.854676e-05
0.0037681275
-2.8788948e-05
0.0048437114
-4.0979375e-05
0.0059171064
-5.4636397e-05
0.0069851497
-6.8640865e-05
0.0080404627
-8.020439e-05
0.0090646534
-8.3256608e-05
0.010011602
-7.1654164e-05
0.010793713
-4.9474462e-05
0.011323778
-2.6853481e-05
0.011549332
-9.8098391e-06
0.011354539
0.010197668
-1.1588823e-06
0.00053951698
-4.6306735e-06
0.0016185409
-1.0395699e-05
0.0026974906
-1.8405999e-05
0.0037761378
-2.8553815e-05
0.0048538592
-4.0603085e-05
0.0059291557
-5.4031299e-05
0.0069985779
-6.7612731e-05
0.0080540441
-7.8312619e-05
0.0090753533
-7.9945364e-05
0.010013235
-6.7479755e-05
0.010781247
-4.6018015e-05
0.011302317
-2.4809126e-05
0.011528123
-9.0104985e-06
0.01133874
0.010188658
-1.1509853e-06
0.00054066797
-4.5986601e-06
0.0016219886
-1.0321694e-05
0.0027032137
-1.8268293e-05
0.0037840844
-2.8322291e-05
0.0048639132
-4.0228783e-05
0.0059410621
-5.3420062e-05
0.0070117692
-6.6552939e-05
0.008067177
-7.634286e-05
0.0090851432
-7.6595471e-05
0.010013488
-6.3474185e-05
0.010768126
-4.2801992e-05
0.011281644
-2.2926399e-05
0.011508247
-8.2791893e-06
0.011324093
0.010180379
-1.143299e-06
0.00054181127
-4.5674622e-06
0.0016254127
-1.0249391e-05
0.0027088956
-1.8133168e-05
0.0037919682
-2.8093503e-05
0.0048738735
-3.985485e-05
0.0059528235
-5.2799505e-05
0.0070247139
-6.5455671e-05
0.0080798331
-7.429287e-05
0.0090939804
-7.322736e-05
0.010012422
-5.9645236e-05
0.010754544
-3.9807053e-05
0.011261806
-2.1187555e-05
0.011489628
-7.606522e-06
0.011310512
0.010172772
-1.1358016e-06
0.00054294707
-4.5369898e-06
0.0016288139
-1.0178573e-05
0.0027145372
-1.8000191e-05
0.0037997898
-2.7866631e-05
0.00488374
-3.9479709e-05
0.0059644366
-5.2166443e-05
0.0070374006
-6.4315378e-05
0.0080919821
-7.2162887e-05
0.0091018279
-6.9862211e-05
0.010010121
-5.5996187e-05
0.010740678
-3.7015057e-05
0.011242825
-1.9577177e-05
0.01147219
-6.9847566e-06
0.011297919
0.010165787
-1.1284741e-06
0.00054407554
-4.5071636e-06
0.0016321926
-1.0109047e-05
0.0027201391
-1.7868961e-05
0.0038075497
-2.7640892e-05
0.0048935119
-3.9101797e-05
0.0059758975
-5.1517648e-05
0.0070498164
-6.3126874e-05
0.0081035913
-6.9955762e-05
0.0091086568
-6.652075e-05
0.010006686
-5.2526613e-05
0.010726684
-3.4409226e-05
0.011224708
-1.8081861e-05
0.011455863
-6.4075177e-06
0.011286245
0.01015938
-1.1212993e-06
0.00054519684
-4.4779119e-06
0.0016355492
-1.0040633e-05
0.0027257018
-1.7739101e-05
0.0038152482
-2.7415519e-05
0.0049031883
-3.8719538e-05
0.0059872015
-5.0849829e-05
0.0070619467
-6.188548e-05
0.008114627
-6.7676982e-05
0.0091144483
-6.322224e-05
0.010002232
-4.9233253e-05
0.010712695
-3.1974184e-05
0.011207449
-1.6689943e-05
0.011440578
-5.8695242e-06
0.011275425
0.01015351
-1.1142616e-06
0.0005463111
-4.4491683e-06
0.0016388841
-9.9731623e-06
0.0027312258
-1.7610244e-05
0.0038228853
-2.7189747e-05
0.0049127678
-3.8331314e-05
0.0059983431
-5.0159622e-05
0.007073775
-6.0587176e-05
0.0081250545
-6.5334503e-05
0.0091191956
-5.9983698e-05
0.0099968809
-4.6110793e-05
0.010698822
-2.9695899e-05
0.011191034
-1.5391268e-05
0.011426274
-5.3664044e-06
0.0112654
0.010148144
-1.1073466e-06
0.00054741845
-4.4208704e-06
0.0016421977
-9.906473e-06
0.0027367114
-1.7482026e-05
0.0038304608
-2.6962799e-05
0.0049222486
-3.793545e-05
0.0060093157
-4.9443603e-05
0.0070852832
-5.9228798e-05
0.0081348397
-6.2938453e-05
0.0091229053
-5.6819439e-05
0.0099907619
-4.3152583e-05
0.010685155
-2.7561615e-05
0.011175443
-1.4176976e-05
0.011412889
-4.8944993e-06
0.011256117
0.010143249
-1.1005404e-06
0.00054851899
-4.3929581e-06
0.0016454901
-9.8404048e-06
0.0027421588
-1.7354082e-05
0.0038379745
-2.6733875e-05
0.0049316284
-3.7530192e-05
0.006020112
-4.8698308e-05
0.0070964513
-5.7808226e-05
0.0081439496
-6.050066e-05
0.0091255977
-5.3740862e-05
0.0099840021
-4.0351155e-05
0.010671765
-2.5559734e-05
0.011160651
-1.3039327e-05
0.011400369
-4.4507468e-06
0.011247529
0.010138799
-1.0938298e-06
0.00054961282
-4.3653727e-06
0.0016487616
-9.7747988e-06
0.0027475682
-1.722604e-05
0.0038454257
-2.6502143e-05
0.0049409045
-3.7113701e-05
0.0060307236
-4.792029e-05
0.0071072579
-5.632458e-05
0.0081523539
-5.8034105e-05
0.0091273072
-5.0756514e-05
0.0099767245
-3.7698671e-05
0.010658707
-2.3679737e-05
0.011146632
-1.1971534e-05
0.011388661
-4.0325397e-06
0.01123959
0.010134766
-1.0872017e-06
0.00055070002
-4.3380554e-06
0.0016520125
-9.7094922e-06
0.0027529397
-1.7097512e-05
0.0038528137
-2.6266727e-05
0.0049500737
-3.6684034e-05
0.0060411409
-4.7106173e-05
0.00711768
-5.4778366e-05
0.0081600261
-5.5552284e-05
0.0091280812
-4.7872287e-05
0.0099690445
-3.5187167e-05
0.010646022
-2.1912068e-05
0.011133357
-1.0967627e-05
0.011377716
-3.6376739e-06
0.01123226
0.010131128
-1.0806428e-06
0.00055178067
-4.3109467e-06
0.0016552428
-9.6443178e-06
0.002758273
-1.6968095e-05
0.0038601375
-2.6026701e-05
0.0049591323
-3.6239149e-05
0.0060513533
-4.6252747e-05
0.0071276936
-5.317159e-05
0.008166945
-5.3068626e-05
0.0091279782
-4.5091786e-05
0.0099610677
-3.2808797e-05
0.010633739
-2.0248066e-05
0.011120797
-1.0022335e-05
0.01136749
-3.2642397e-06
0.011225502
0.010127864
-1.0741397e-06
0.00055285481
-4.2839851e-06
0.0016584526
-9.5791007e-06
0.0027635682
-1.6837359e-05
0.0038673958
-2.5781075e-05
0.0049680761
-3.5776899e-05
0.0060613492
-4.5357066e-05
0.0071372738
-5.1507779e-05
0.0081730957
-5.0595934e-05
0.0091270663
-4.2416679e-05
0.0099528884
-3.055591e-05
0.010621879
-1.8679871e-05
0.011108921
-9.1309878e-06
0.011357941
-2.9105958e-06
0.011219281
0.010124954
-1.0676787e-06
0.00055392248
-4.2571072e-06
0.0016616421
-9.5136581e-06
0.0027688247
-1.6704854e-05
0.003874587
-2.5528801e-05
0.0049769
-3.5295048e-05
0.0060711154
-4.4416579e-05
0.0071463953
-4.9791937e-05
0.008178471
-4.8145978e-05
0.0091254204
-3.984711e-05
0.0099445895
-2.8421173e-05
0.010610453
-1.7200353e-05
0.0110977
-8.2894199e-06
0.011349031
-2.5752862e-06
0.011213567
0.010122378
-1.0612454e-06
0.00055498373
-4.2302461e-06
0.0016648111
-9.4477951e-06
0.0027740423
-1.6570094e-05
0.0038817093
-2.5268751e-05
0.0049855987
-3.4791283e-05
0.0060806379
-4.3429243e-05
0.0071550333
-4.803038e-05
0.0081830722
-4.5729164e-05
0.0091231192
-3.7382024e-05
0.0099362424
-2.6397568e-05
0.010599468
-1.5803039e-05
0.011087105
-7.4939157e-06
0.011340721
-2.2570455e-06
0.01120833
0.010120121
-1.0548247e-06
0.00055603855
-4.2033309e-06
0.0016679596
-9.3813041e-06
0.0027792202
-1.643256e-05
0.0038887605
-2.4999722e-05
0.0049941658
-3.4263242e-05
0.0060899015
-4.2393667e-05
0.0071631637
-4.6230524e-05
0.008186909
-4.335439e-05
0.009120243
-3.501949e-05
0.0099279075
-2.447846e-05
0.010588927
-1.4482051e-05
0.011077109
-6.7411376e-06
0.011332981
-1.9547343e-06
0.011203544
0.010118167
-1.0484005e-06
0.00055708695
-4.1762861e-06
0.0016710875
-9.3139624e-06
0.0027843579
-1.6291694e-05
0.0038957383
-2.4720425e-05
0.0050025946
-3.3708555e-05
0.0060988896
-4.1309231e-05
0.0071707644
-4.4400577e-05
0.0081900004
-4.1028982e-05
0.0091168714
-3.2756933e-05
0.0099196355
-2.265757e-05
0.010578828
-1.323204e-05
0.011067683
-6.0280824e-06
0.011325777
-1.6673388e-06
0.011199183
0.010116499
-1.0419557e-06
0.00055812891
-4.1490308e-06
0.0016741945
-9.2455307e-06
0.0027894544
-1.6146895e-05
0.0039026396
-2.4429491e-05
0.0050108772
-3.3124891e-05
0.006107585
-4.0176191e-05
0.0071778157
-4.2549218e-05
0.0081923734
-3.8758754e-05
0.009113081
-3.0591341e-05
0.009911468
-2.0929e-05
0.010569165
-1.2048136e-05
0.011058802
-5.3520348e-06
0.01131908
-1.3939377e-06
0.011195225
0.010115105
-1.0354719e-06
0.00055916438
-4.1214776e-06
0.0016772805
-9.1757504e-06
0.0027945087
-1.5997516e-05
0.0039094614
-2.4125464e-05
0.0050190051
-3.2510026e-05
0.0061159695
-3.8995753e-05
0.0071843014
-4.0685257e-05
0.0081940629
-3.6548119e-05
0.0091089438
-2.8519406e-05
0.0099034393
-1.9287217e-05
0.010559933
-1.0925894e-05
0.011050441
-4.7105348e-06
0.011312865
-1.1336952e-06
0.011191648
0.010113972
-1.0289291e-06
0.00056019331
-4.093532e-06
0.0016803451
-9.1043411e-06
0.0027995195
-1.5842857e-05
0.0039161999
-2.3806807e-05
0.0050269691
-3.1861906e-05
0.0061240246
-3.7770094e-05
0.0071902096
-3.8817316e-05
0.0081951101
-3.4400246e-05
0.0091045268
-2.6537636e-05
0.0098955767
-1.7727036e-05
0.010551123
-9.8612488e-06
0.011042575
-4.1013423e-06
0.011307105
-8.8584949e-07
0.011188433
0.010113086
-1.0223055e-06
0.00056121562
-4.0650899e-06
0.0016833879
-9.0309964e-06
0.0028044854
-1.5682157e-05
0.0039228511
-2.3471907e-05
0.0050347588
-3.1178732e-05
0.0061317315
-3.6502336e-05
0.0071955332
-3.6953566e-05
0.0081955614
-3.2317231e-05
0.0090998904
-2.4642437e-05
0.0098879019
-1.6243608e-05
0.010542724
-8.8504679e-06
0.011035182
-3.5224027e-06
0.011301777
-6.4968559e-07
0.01118556
0.010112436
-1.0155762e-06
0.00056223119
-4.0360349e-06
0.0016864084
-8.955376e-06
0.0028094047
-1.5514586e-05
0.0039294103
-2.3119073e-05
0.0050423633
-3.0459015e-05
0.0061390714
-3.5196439e-05
0.0072002706
-3.5101464e-05
0.0081954664
-3.0300208e-05
0.0090950892
-2.2830113e-05
0.0098804318
-1.4832322e-05
0.010534726
-7.8900512e-06
0.01102824
-2.9717803e-06
0.011296859
-4.245372e-07
0.011183013
0.010112011
-1.0087126e-06
0.00056323991
-4.0062329e-06
0.0016894059
-8.8770938e-06
0.0028142756
-1.5339217e-05
0.0039358724
-2.2746525e-05
0.0050497706
-2.970163e-05
0.0061460265
-3.3857004e-05
0.007204426
-3.326753e-05
0.0081948769
-2.8349378e-05
0.009090171
-2.1096714e-05
0.0098731792
-1.3488519e-05
0.010527118
-6.9763087e-06
0.011021728
-2.4471216e-06
0.01129233
-2.0917243e-07
0.011180775
0.010111802
-1.0016842e-06
0.00056424159
-3.9755408e-06
0.0016923798
-8.795737e-06
0.0028190958
-1.515507e-05
0.0039422317
-2.235249e-05
0.005056968
-2.890597e-05
0.00615258
-3.2489222e-05
0.0072080092
-3.1457408e-05
0.0081938451
-2.6464315e-05
0.0090851779
-1.9438278e-05
0.0098661531
-1.2207691e-05
0.010519887
-6.105535e-06
0.011015626
-1.9450765e-06
0.011288169
8.7380008e-09
0.011178821
0.010111811
-9.9446573e-07
0.00056523606
-3.9438363e-06
0.0016953291
-8.7109372e-06
0.0028238629
-1.4961242e-05
0.003948482
-2.1935456e-05
0.0050639422
-2.8072371e-05
0.0061587169
-3.1099176e-05
0.0072110361
-2.9676542e-05
0.0081924225
-2.4645027e-05
0.0090801464
-1.7852108e-05
0.0098593602
-1.0987119e-05
0.010513022
-5.2761751e-06
0.011009915
-1.4654042e-06
0.011284358
2.240955e-07
0.011177131
0.010112035
-9.8703069e-07
0.00056622309
-3.910992e-06
0.0016982531
-8.6223081e-06
0.0028285742
-1.4756802e-05
0.0039546165
-2.1494039e-05
0.0050706795
-2.7201875e-05
0.0061644247
-2.9693251e-05
0.0072135274
-2.7929662e-05
0.0081906589
-2.2891333e-05
0.0090751081
-1.6335852e-05
0.0098528047
-9.8246458e-06
0.010506511
-4.4874123e-06
0.011004577
-1.0096464e-06
0.011280881
4.2183471e-07
0.0111757
0.010112457
-9.7934125e-07
0.00056720243
-3.8768294e-06
0.0017011506
-8.5293413e-06
0.0028332267
-1.4540609e-05
0.0039606278
-2.1026737e-05
0.0050771656
-2.6295824e-05
0.0061696938
-2.8277318e-05
0.0072155089
-2.6220006e-05
0.0081886016
-2.1201847e-05
0.0090700899
-1.4886083e-05
0.009846489
-8.7168314e-06
0.010500342
-3.7366995e-06
0.010999597
-5.7661024e-07
0.011277721
6.0516684e-07
0.011174518
0.010113062
-9.7135136e-07
0.00056817378
-3.8411372e-06
0.0017040204
-8.4314507e-06
0.002837817
-1.4311409e-05
0.0039665078
-2.0532139e-05
0.0050833863
-2.5356068e-05
0.0061745178
-2.6856898e-05
0.0072170097
-2.4549854e-05
0.0081862945
-1.9574666e-05
0.0090651147
-1.3499126e-05
0.0098404134
-7.6598931e-06
0.010494503
-3.0202935e-06
0.010994958
-1.5747717e-07
0.011274858
7.7750997e-07
0.011173583
0.01011384
-9.6301347e-07
0.00056913679
-3.8036987e-06
0.001706861
-8.3280379e-06
0.0028423414
-1.4067969e-05
0.0039722477
-2.0009174e-05
0.0050893275
-2.4385212e-05
0.0061788938
-2.5437402e-05
0.0072180619
-2.2921118e-05
0.0081837782
-1.8008064e-05
0.0090602017
-1.2171843e-05
0.0098345772
-6.6506973e-06
0.010488981
-2.3351985e-06
0.010990642
2.5109773e-07
0.011272271
9.4170785e-07
0.011172893
0.010114781
-9.5427905e-07
0.00057009107
-3.7642922e-06
0.0017096711
-8.2184924e-06
0.0028467956
-1.3809094e-05
0.0039778383
-1.9457174e-05
0.0050949756
-2.338653e-05
0.0061828232
-2.4024016e-05
0.0072186994
-2.1335403e-05
0.0081810896
-1.6500521e-05
0.0090553668
-1.090165e-05
0.0098289783
-5.6869582e-06
0.010483767
-1.6806818e-06
0.010986636
6.3994917e-07
0.011269951
1.0985782e-06
0.011172434
0.01011588
-9.4509446e-07
0.00057103617
-3.7226738e-06
0.0017124486
-8.1021567e-06
0.0028511751
-1.3533588e-05
0.0039832697
-1.8875835e-05
0.0051003179
-2.236373e-05
0.006186311
-2.2621434e-05
0.0072189571
-1.9793828e-05
0.008178262
-1.5050425e-05
0.0090506234
-9.6860933e-06
0.009823614
-4.7666761e-06
0.010478847
-1.0563813e-06
0.010982926
1.0058394e-06
0.011267889
1.2476998e-06
0.011172192
0.010117128
-9.3539792e-07
0.00057197156
-3.6785664e-06
0.0017151918
-7.9783043e-06
0.0028554748
-1.3240243e-05
0.0039885316
-1.8265194e-05
0.0051053428
-2.1320727e-05
0.0061893666
-2.1233684e-05
0.0072188701
-1.8296901e-05
0.0081753252
-1.3655835e-05
0.0090459823
-8.522463e-06
0.0098184806
-3.8872544e-06
0.010474212
-4.5884184e-07
0.010979497
1.351731e-06
0.011266078
1.3890217e-06
0.011172155
0.010118517
-9.2512144e-07
0.00057289668
-3.6316692e-06
0.0017178984
-7.8461696e-06
0.0028596893
-1.2927921e-05
0.0039936134
-1.7625752e-05
0.0051100407
-2.0261665e-05
0.0061920025
-1.986431e-05
0.0072184727
-1.6844848e-05
0.0081723058
-1.2314847e-05
0.0090414523
-7.4081082e-06
0.0098135739
-3.0453627e-06
0.010469849
1.2056529e-07
0.010976331
1.680918e-06
0.011264518
1.522893e-06
0.011172313
0.01012004
-9.1419059e-07
0.00057381088
-3.5816567e-06
0.0017205658
-7.7049526e-06
0.0028638126
-1.2595594e-05
0.003998504
-1.6958483e-05
0.0051144035
-1.919076e-05
0.0061942348
-1.8516353e-05
0.0072177983
-1.5437605e-05
0.008169227
-1.1025531e-05
0.0090370403
-6.3405341e-06
0.0098088889
-2.238936e-06
0.010465748
6.7792523e-07
0.010973414
1.9957139e-06
0.0112632
1.650393e-06
0.011172658
0.01012169
-9.0252413e-07
0.0005747134
-3.5281784e-06
0.0017231915
-7.5538279e-06
0.0028678382
-1.2242389e-05
0.0040031926
-1.6264839e-05
0.005118426
-1.811221e-05
0.0061960821
-1.7192402e-05
0.0072168785
-1.4074916e-05
0.0081661095
-9.7860631e-06
0.0090327514
-5.3177167e-06
0.0098044205
-1.467558e-06
0.010461898
1.2051473e-06
0.010970742
2.2962032e-06
0.011262109
1.7722008e-06
0.011173182
0.010123462
-8.9003338e-07
0.00057560343