/*--------------------------------*- C++ -*----------------------------------*\
| =========                 |                                                 |
| \\      /  F ield         | OpenFOAM: The Open Source CFD Toolbox           |
|  \\    /   O peration     | Version:  2506                                  |
|   \\  /    A nd           | Website:  www.openfoam.com                      |
|    \\/     M anipulation  |                                                 |
\*---------------------------------------------------------------------------*/
FoamFile
{
    version     2.0;
    format      ascii;
    arch        "LSB;label=32;scalar=64";
    class       volScalarField;
    location    "15000/water";
    object      T;
}
// * * * * * * * * * * * * * * * * * * * * * * * * * * * * * * * * * * * * * //

dimensions      [0 0 0 1 0 0 0];

internalField   nonuniform List<scalar> 
6000
(
333.15
333.15
333.15
333.15
333.15
333.15
333.15
333.15
333.15
333.15
333.15
333.14998
333.14989
333.14924
333.14256
333.15
333.15
333.15
333.15
333.15
333.15
333.15
333.15
333.15
333.15
333.14999
333.14994
333.14968
333.14816
333.13666
333.15
333.15
333.15
333.15
333.15
333.15
333.15
333.15
333.15
333.14999
333.14997
333.14987
333.14939
333.14689
333.13171
333.15
333.15
333.15
333.15
333.15
333.15
333.15
333.15
333.15
333.14999
333.14994
333.14976
333.14903
333.14547
333.12739
333.15
333.15
333.15
333.15
333.15
333.15
333.15
333.15
333.14999
333.14997
333.1499
333.14963
333.1486
333.14395
333.12351
333.15
333.15
333.15
333.15
333.15
333.15
333.15
333.15
333.14999
333.14996
333.14985
333.14947
333.14812
333.14237
333.11998
333.15
333.15
333.15
333.15
333.15
333.15
333.15
333.14999
333.14998
333.14994
333.14978
333.14929
333.1476
333.14073
333.11673
333.15
333.15
333.15
333.15
333.15
333.15
333.15
333.14999
333.14997
333.14991
333.1497
333.14909
333.14703
333.13906
333.11372
333.15
333.15
333.15
333.15
333.15
333.15
333.15
333.14999
333.14996
333.14987
333.14961
333.14886
333.14643
333.13736
333.11091
333.15
333.15
333.15
333.15
333.15
333.15
333.14999
333.14998
333.14994
333.14983
333.14951
333.14862
333.14578
333.13566
333.1083
333.15
333.15
333.15
333.15
333.15
333.15
333.14999
333.14998
333.14993
333.14978
333.1494
333.14835
333.14509
333.13396
333.10585
333.15
333.15
333.15
333.15
333.15
333.15
333.14999
333.14997
333.1499
333.14973
333.14928
333.14807
333.14437
333.13226
333.10356
333.15
333.15
333.15
333.15
333.15
333.14999
333.14998
333.14996
333.14988
333.14967
333.14915
333.14777
333.14361
333.13058
333.10142
333.15
333.15
333.15
333.15
333.15
333.14999
333.14998
333.14994
333.14985
333.14961
333.14901
333.14745
333.1428
333.12893
333.09942
333.15
333.15
333.15
333.15
333.15
333.14999
333.14997
333.14993
333.14982
333.14954
333.14886
333.1471
333.14195
333.1273
333.09756
333.15
333.15
333.15
333.15
333.15
333.14999
333.14997
333.14991
333.14978
333.14946
333.1487
333.14673
333.14106
333.12571
333.09585
333.15
333.15
333.15
333.15
333.14999
333.14998
333.14996
333.1499
333.14974
333.14938
333.14852
333.14633
333.14013
333.12415
333.09426
333.15
333.15
333.15
333.15
333.14999
333.14998
333.14995
333.14988
333.1497
333.14929
333.14834
333.14591
333.13915
333.12265
333.0928
333.15
333.15
333.15
333.15
333.14999
333.14998
333.14994
333.14985
333.14965
333.1492
333.14814
333.14546
333.13814
333.12119
333.09147
333.15
333.15
333.15
333.14999
333.14999
333.14997
333.14993
333.14983
333.1496
333.14909
333.14793
333.14497
333.13709
333.11979
333.09026
333.15
333.15
333.15
333.14999
333.14999
333.14997
333.14992
333.1498
333.14955
333.14899
333.1477
333.14444
333.13601
333.11845
333.08916
333.15
333.15
333.15
333.14999
333.14998
333.14996
333.1499
333.14977
333.14949
333.14887
333.14745
333.14388
333.1349
333.11718
333.08816
333.15
333.15
333.15
333.14999
333.14998
333.14995
333.14989
333.14974
333.14943
333.14875
333.14718
333.14327
333.13378
333.11596
333.08726
333.15
333.15
333.14999
333.14999
333.14998
333.14994
333.14987
333.14971
333.14936
333.14861
333.1469
333.14263
333.13265
333.11481
333.08645
333.15
333.15
333.14999
333.14999
333.14997
333.14993
333.14985
333.14967
333.14929
333.14847
333.14659
333.14194
333.13153
333.11373
333.08571
333.15
333.15
333.14999
333.14998
333.14997
333.14992
333.14983
333.14963
333.14921
333.14831
333.14625
333.14122
333.13041
333.11271
333.08505
333.15
333.15
333.14999
333.14998
333.14996
333.14991
333.14981
333.14959
333.14913
333.14815
333.14588
333.14046
333.12931
333.11174
333.08446
333.15
333.14999
333.14999
333.14998
333.14996
333.1499
333.14979
333.14954
333.14904
333.14797
333.14549
333.13967
333.12824
333.11083
333.08392
333.15
333.14999
333.14999
333.14998
333.14995
333.14989
333.14976
333.14949
333.14895
333.14777
333.14506
333.13885
333.12719
333.10998
333.08343
333.14999
333.14999
333.14999
333.14997
333.14994
333.14987
333.14973
333.14944
333.14884
333.14756
333.1446
333.138
333.12618
333.10918
333.08299
333.14999
333.14999
333.14998
333.14997
333.14993
333.14986
333.1497
333.14939
333.14873
333.14733
333.14411
333.13714
333.1252
333.10842
333.08259
333.14999
333.14999
333.14998
333.14996
333.14992
333.14984
333.14967
333.14932
333.14862
333.14708
333.14359
333.13628
333.12426
333.1077
333.08222
333.14999
333.14999
333.14998
333.14996
333.14991
333.14982
333.14964
333.14926
333.14849
333.14681
333.14303
333.13541
333.12336
333.10703
333.08188
333.14999
333.14999
333.14998
333.14995
333.1499
333.1498
333.1496
333.14919
333.14835
333.14652
333.14244
333.13454
333.1225
333.10639
333.08157
333.14999
333.14998
333.14997
333.14995
333.14989
333.14978
333.14956
333.14911
333.1482
333.1462
333.14183
333.13368
333.12168
333.10579
333.08129
333.14999
333.14998
333.14997
333.14994
333.14988
333.14976
333.14952
333.14903
333.14803
333.14586
333.14119
333.13284
333.12089
333.10522
333.08102
333.14999
333.14998
333.14997
333.14993
333.14987
333.14974
333.14947
333.14894
333.14786
333.14549
333.14053
333.13201
333.12014
333.10468
333.08078
333.14998
333.14998
333.14996
333.14993
333.14985
333.14971
333.14942
333.14885
333.14766
333.14509
333.13986
333.13119
333.11942
333.10417
333.08055
333.14998
333.14998
333.14996
333.14992
333.14984
333.14968
333.14937
333.14875
333.14745
333.14467
333.13917
333.1304
333.11873
333.10368
333.08034
333.14998
333.14997
333.14995
333.14991
333.14982
333.14965
333.14931
333.14864
333.14723
333.14422
333.13847
333.12963
333.11807
333.10322
333.08015
333.14998
333.14997
333.14995
333.1499
333.1498
333.14962
333.14925
333.14852
333.14698
333.14375
333.13778
333.12889
333.11743
333.10278
333.07996
333.14997
333.14996
333.14994
333.14989
333.14978
333.14958
333.14918
333.14838
333.14671
333.14325
333.13708
333.12816
333.11683
333.10236
333.07979
333.14997
333.14996
333.14993
333.14988
333.14976
333.14954
333.14911
333.14824
333.14643
333.14274
333.13638
333.12746
333.11625
333.10196
333.07964
333.14997
333.14996
333.14993
333.14986
333.14974
333.1495
333.14903
333.14809
333.14612
333.14221
333.1357
333.12679
333.11569
333.10158
333.07949
333.14996
333.14995
333.14992
333.14985
333.14972
333.14946
333.14895
333.14792
333.14579
333.14166
333.13502
333.12613
333.11516
333.10121
333.07935
333.14996
333.14995
333.14991
333.14984
333.14969
333.14941
333.14886
333.14774
333.14544
333.1411
333.13435
333.12549
333.11464
333.10086
333.07922
333.14995
333.14994
333.1499
333.14982
333.14966
333.14936
333.14876
333.14754
333.14507
333.14053
333.13369
333.12488
333.11415
333.10053
333.07909
333.14995
333.14993
333.14989
333.1498
333.14963
333.1493
333.14865
333.14733
333.14467
333.13995
333.13304
333.12429
333.11367
333.1002
333.07898
333.14994
333.14993
333.14988
333.14979
333.1496
333.14924
333.14853
333.1471
333.14426
333.13937
333.13241
333.12371
333.11322
333.0999
333.07887
333.14994
333.14992
333.14987
333.14977
333.14957
333.14918
333.14841
333.14685
333.14383
333.13879
333.13179
333.12316
333.11278
333.0996
333.07877
333.14993
333.14991
333.14986
333.14974
333.14953
333.1491
333.14827
333.14659
333.14339
333.13821
333.13119
333.12262
333.11235
333.09932
333.07867
333.14993
333.1499
333.14984
333.14972
333.14949
333.14903
333.14812
333.14631
333.14293
333.13763
333.1306
333.1221
333.11194
333.09904
333.07858
333.14992
333.14989
333.14983
333.1497
333.14944
333.14894
333.14796
333.14601
333.14246
333.13705
333.13002
333.12159
333.11155
333.09878
333.0785
333.14991
333.14988
333.14981
333.14967
333.14939
333.14885
333.14778
333.14569
333.14198
333.13648
333.12946
333.1211
333.11116
333.09853
333.07842
333.1499
333.14987
333.1498
333.14964
333.14934
333.14875
333.1476
333.14535
333.14149
333.13592
333.12891
333.12063
333.11079
333.09828
333.07835
333.14989
333.14986
333.14978
333.14961
333.14928
333.14865
333.14739
333.145
333.14099
333.13536
333.12838
333.12017
333.11043
333.09805
333.07828
333.14988
333.14985
333.14976
333.14958
333.14922
333.14853
333.14718
333.14463
333.14049
333.13481
333.12786
333.11972
333.11009
333.09782
333.07821
333.14987
333.14983
333.14974
333.14954
333.14915
333.14841
333.14694
333.14425
333.13999
333.13427
333.12735
333.11929
333.10975
333.0976
333.07815
333.14986
333.14982
333.14971
333.1495
333.14908
333.14827
333.14669
333.14386
333.13949
333.13374
333.12685
333.11886
333.10943
333.09739
333.07809
333.14985
333.1498
333.14969
333.14945
333.149
333.14812
333.14643
333.14345
333.13898
333.13321
333.12637
333.11845
333.10911
333.09718
333.07804
333.14983
333.14978
333.14966
333.14941
333.14892
333.14796
333.14615
333.14303
333.13848
333.1327
333.1259
333.11806
333.1088
333.09698
333.07799
333.14982
333.14976
333.14963
333.14936
333.14882
333.14779
333.14585
333.14261
333.13798
333.1322
333.12544
333.11767
333.10851
333.09679
333.07794
333.1498
333.14974
333.1496
333.1493
333.14872
333.14761
333.14554
333.14217
333.13748
333.1317
333.12499
333.11729
333.10822
333.0966
333.0779
333.14978
333.14972
333.14956
333.14924
333.14861
333.14741
333.14522
333.14173
333.13699
333.13122
333.12455
333.11693
333.10794
333.09642
333.07786
333.14976
333.1497
333.14952
333.14917
333.14849
333.1472
333.14488
333.14129
333.1365
333.13074
333.12412
333.11657
333.10766
333.09625
333.07782
333.14974
333.14967
333.14948
333.1491
333.14837
333.14697
333.14453
333.14084
333.13602
333.13027
333.12371
333.11622
333.1074
333.09608
333.07778
333.14972
333.14964
333.14944
333.14902
333.14823
333.14673
333.14417
333.14039
333.13554
333.12982
333.1233
333.11588
333.10714
333.09591
333.07775
333.14969
333.14961
333.14939
333.14894
333.14808
333.14648
333.1438
333.13994
333.13507
333.12937
333.1229
333.11555
333.10689
333.09575
333.07771
333.14967
333.14957
333.14933
333.14885
333.14791
333.14621
333.14342
333.13949
333.1346
333.12893
333.12251
333.11523
333.10664
333.09559
333.07768
333.14964
333.14954
333.14928
333.14875
333.14774
333.14592
333.14303
333.13904
333.13414
333.1285
333.12213
333.11492
333.1064
333.09544
333.07765
333.14961
333.1495
333.14921
333.14864
333.14755
333.14563
333.14263
333.13859
333.13369
333.12807
333.12176
333.11461
333.10617
333.0953
333.07763
333.14957
333.14945
333.14914
333.14852
333.14735
333.14532
333.14223
333.13815
333.13324
333.12766
333.1214
333.11431
333.10594
333.09515
333.0776
333.14953
333.1494
333.14907
333.14839
333.14714
333.145
333.14183
333.1377
333.1328
333.12725
333.12104
333.11401
333.10572
333.09501
333.07758
333.14949
333.14935
333.14898
333.14826
333.14691
333.14467
333.14142
333.13726
333.13237
333.12685
333.1207
333.11373
333.1055
333.09488
333.07755
333.14944
333.14929
333.14889
333.14811
333.14667
333.14433
333.141
333.13682
333.13194
333.12646
333.12035
333.11345
333.10529
333.09474
333.07753
333.14939
333.14923
333.1488
333.14795
333.14642
333.14398
333.14059
333.13639
333.13152
333.12608
333.12002
333.11317
333.10508
333.09461
333.07751
333.14934
333.14916
333.14869
333.14777
333.14615
333.14362
333.14017
333.13596
333.13111
333.1257
333.11969
333.1129
333.10488
333.09449
333.07749
333.14928
333.14908
333.14857
333.14759
333.14588
333.14326
333.13976
333.13553
333.1307
333.12533
333.11937
333.11264
333.10468
333.09436
333.07747
333.14921
333.149
333.14845
333.14739
333.14559
333.14289
333.13934
333.13511
333.1303
333.12497
333.11906
333.11238
333.10448
333.09424
333.07745
333.14914
333.14891
333.14831
333.14718
333.14528
333.14251
333.13893
333.13469
333.12991
333.12461
333.11875
333.11213
333.10429
333.09412
333.07744
333.14906
333.14881
333.14817
333.14696
333.14497
333.14213
333.13851
333.13428
333.12952
333.12426
333.11845
333.11188
333.10411
333.094
333.07742
333.14897
333.1487
333.14801
333.14672
333.14465
333.14174
333.1381
333.13387
333.12913
333.12392
333.11815
333.11164
333.10392
333.09389
333.0774
333.14887
333.14858
333.14783
333.14647
333.14431
333.14135
333.13769
333.13346
333.12876
333.12358
333.11786
333.1114
333.10374
333.09378
333.07739
333.14877
333.14845
333.14765
333.14621
333.14397
333.14096
333.13728
333.13306
333.12838
333.12324
333.11757
333.11117
333.10357
333.09367
333.07737
333.14865
333.14831
333.14745
333.14593
333.14362
333.14056
333.13687
333.13267
333.12802
333.12292
333.11729
333.11094
333.1034
333.09356
333.07736
333.14853
333.14815
333.14724
333.14564
333.14327
333.14017
333.13647
333.13228
333.12765
333.1226
333.11702
333.11071
333.10323
333.09345
333.07734
333.14839
333.14799
333.14701
333.14534
333.1429
333.13977
333.13607
333.13189
333.1273
333.12228
333.11675
333.11049
333.10306
333.09335
333.07733
333.14823
333.14781
333.14677
333.14503
333.14253
333.13937
333.13567
333.13151
333.12695
333.12197
333.11648
333.11027
333.10289
333.09325
333.07731
333.14807
333.14761
333.14652
333.1447
333.14216
333.13898
333.13527
333.13113
333.1266
333.12166
333.11622
333.11006
333.10273
333.09315
333.0773
333.14789
333.1474
333.14625
333.14437
333.14178
333.13858
333.13488
333.13076
333.12626
333.12136
333.11596
333.10985
333.10257
333.09305
333.07728
333.14769
333.14717
333.14597
333.14403
333.1414
333.13818
333.13449
333.13039
333.12593
333.12106
333.11571
333.10964
333.10242
333.09295
333.07727
333.14747
333.14693
333.14567
333.14368
333.14101
333.13778
333.1341
333.13003
333.1256
333.12077
333.11546
333.10944
333.10226
333.09285
333.07725
333.14724
333.14667
333.14536
333.14332
333.14062
333.13739
333.13372
333.12967
333.12527
333.12048
333.11521
333.10923
333.10211
333.09276
333.07723
333.14699
333.14639
333.14503
333.14295
333.14023
333.13699
333.13334
333.12932
333.12495
333.1202
333.11497
333.10904
333.10196
333.09266
333.07722
333.14672
333.1461
333.1447
333.14258
333.13984
333.1366
333.13296
333.12896
333.12463
333.11992
333.11473
333.10884
333.10181
333.09257
333.0772
333.14643
333.14579
333.14435
333.1422
333.13944
333.13621
333.13258
333.12862
333.12432
333.11964
333.11449
333.10865
333.10166
333.09247
333.07719
333.14613
333.14546
333.14399
333.14181
333.13905
333.13582
333.13221
333.12827
333.12401
333.11937
333.11426
333.10846
333.10152
333.09238
333.07717
333.1458
333.14511
333.14362
333.14142
333.13865
333.13543
333.13184
333.12793
333.1237
333.1191
333.11403
333.10827
333.10138
333.09229
333.07715
333.14545
333.14475
333.14323
333.14102
333.13825
333.13504
333.13148
333.1276
333.1234
333.11884
333.1138
333.10808
333.10123
333.0922
333.07713
333.14509
333.14438
333.14284
333.14061
333.13785
333.13466
333.13112
333.12727
333.1231
333.11857
333.11358
333.1079
333.10109
333.09211
333.07711
333.14471
333.14398
333.14244
333.14021
333.13745
333.13427
333.13076
333.12694
333.12281
333.11831
333.11336
333.10772
333.10096
333.09202
333.0771
333.14431
333.14358
333.14202
333.1398
333.13705
333.13389
333.1304
333.12661
333.12251
333.11806
333.11314
333.10754
333.10082
333.09193
333.07708
333.14389
333.14316
333.1416
333.13938
333.13664
333.13351
333.13005
333.12629
333.12222
333.11781
333.11292
333.10736
333.10068
333.09184
333.07705
333.14346
333.14273
333.14118
333.13896
333.13624
333.13313
333.1297
333.12597
333.12194
333.11756
333.11271
333.10719
333.10055
333.09176
333.07703
333.14302
333.14229
333.14074
333.13854
333.13584
333.13275
333.12935
333.12565
333.12166
333.11731
333.1125
333.10701
333.10041
333.09167
333.07701
333.14256
333.14184
333.1403
333.13812
333.13544
333.13238
333.129
333.12534
333.12138
333.11706
333.11229
333.10684
333.10028
333.09158
333.07699
333.1421
333.14138
333.13985
333.13769
333.13504
333.132
333.12866
333.12503
333.1211
333.11682
333.11208
333.10667
333.10015
333.09149
333.07696
333.14162
333.14091
333.1394
333.13726
333.13463
333.13163
333.12832
333.12472
333.12082
333.11658
333.11187
333.1065
333.10002
333.09141
333.07694
333.14114
333.14044
333.13895
333.13683
333.13423
333.13126
333.12798
333.12441
333.12055
333.11634
333.11167
333.10633
333.09989
333.09132
333.07691
333.14065
333.13995
333.13849
333.1364
333.13383
333.13089
333.12764
333.12411
333.12028
333.1161
333.11147
333.10616
333.09976
333.09123
333.07689
333.14015
333.13947
333.13802
333.13596
333.13343
333.13052
333.12731
333.12381
333.12001
333.11587
333.11127
333.106
333.09963
333.09115
333.07686
333.13965
333.13898
333.13756
333.13553
333.13303
333.13015
333.12697
333.12351
333.11975
333.11564
333.11107
333.10583
333.0995
333.09106
333.07683
333.13914
333.13849
333.13709
333.13509
333.13263
333.12979
333.12664
333.12321
333.11948
333.1154
333.11087
333.10567
333.09937
333.09097
333.0768
333.13864
333.13799
333.13662
333.13466
333.13223
333.12942
333.12631
333.12291
333.11922
333.11517
333.11067
333.10551
333.09924
333.09088
333.07677
333.13813
333.1375
333.13615
333.13422
333.13183
333.12906
333.12598
333.12262
333.11896
333.11495
333.11048
333.10534
333.09912
333.09079
333.07673
333.13762
333.137
333.13568
333.13379
333.13143
333.1287
333.12566
333.12233
333.1187
333.11472
333.11028
333.10518
333.09899
333.09071
333.0767
333.13711
333.1365
333.13521
333.13335
333.13103
333.12834
333.12533
333.12203
333.11844
333.11449
333.11009
333.10502
333.09886
333.09062
333.07666
333.1366
333.13601
333.13474
333.13292
333.13063
333.12798
333.12501
333.12174
333.11818
333.11427
333.1099
333.10486
333.09873
333.09053
333.07663
333.13609
333.13551
333.13427
333.13248
333.13024
333.12762
333.12468
333.12146
333.11793
333.11405
333.10971
333.1047
333.09861
333.09044
333.07659
333.13559
333.13502
333.13381
333.13205
333.12984
333.12726
333.12436
333.12117
333.11767
333.11382
333.10951
333.10454
333.09848
333.09035
333.07655
333.13508
333.13453
333.13334
333.13162
333.12945
333.1269
333.12404
333.12088
333.11742
333.1136
333.10932
333.10438
333.09835
333.09025
333.07651
333.13458
333.13404
333.13288
333.13119
333.12906
333.12655
333.12372
333.1206
333.11717
333.11338
333.10913
333.10422
333.09822
333.09016
333.07646
333.13408
333.13356
333.13242
333.13076
333.12866
333.12619
333.1234
333.12032
333.11692
333.11316
333.10894
333.10406
333.0981
333.09007
333.07642
333.13359
333.13308
333.13196
333.13034
333.12828
333.12584
333.12309
333.12003
333.11667
333.11294
333.10876
333.1039
333.09797
333.08997
333.07637
333.1331
333.1326
333.13151
333.12992
333.12789
333.12549
333.12277
333.11975
333.11642
333.11272
333.10857
333.10374
333.09784
333.08988
333.07632
333.13262
333.13212
333.13106
333.1295
333.12751
333.12514
333.12246
333.11947
333.11617
333.11251
333.10838
333.10358
333.09771
333.08978
333.07627
333.13213
333.13165
333.13061
333.12908
333.12712
333.1248
333.12215
333.11919
333.11592
333.11229
333.10819
333.10342
333.09758
333.08969
333.07622
333.13166
333.13119
333.13017
333.12867
333.12674
333.12445
333.12184
333.11891
333.11567
333.11207
333.108
333.10326
333.09745
333.08959
333.07617
333.13119
333.13073
333.12973
333.12826
333.12636
333.12411
333.12153
333.11864
333.11543
333.11185
333.10781
333.1031
333.09732
333.08949
333.07611
333.13072
333.13027
333.12929
333.12785
333.12599
333.12377
333.12122
333.11836
333.11518
333.11164
333.10763
333.10294
333.09719
333.08939
333.07605
333.13026
333.12982
333.12886
333.12744
333.12562
333.12343
333.12091
333.11809
333.11494
333.11142
333.10744
333.10278
333.09705
333.08929
333.07599
333.1298
333.12937
333.12843
333.12704
333.12524
333.12309
333.12061
333.11781
333.11469
333.11121
333.10725
333.10262
333.09692
333.08918
333.07593
333.12935
333.12892
333.12801
333.12664
333.12488
333.12275
333.1203
333.11754
333.11445
333.11099
333.10706
333.10246
333.09679
333.08908
333.07587
333.1289
333.12849
333.12759
333.12625
333.12451
333.12242
333.12
333.11727
333.11421
333.11078
333.10687
333.1023
333.09665
333.08897
333.0758
333.12846
333.12805
333.12717
333.12586
333.12415
333.12209
333.1197
333.11699
333.11397
333.11056
333.10668
333.10214
333.09651
333.08886
333.07573
333.12802
333.12762
333.12676
333.12547
333.12379
333.12176
333.1194
333.11672
333.11372
333.11035
333.1065
333.10197
333.09638
333.08875
333.07566
333.12759
333.1272
333.12635
333.12508
333.12343
333.12143
333.1191
333.11646
333.11348
333.11013
333.10631
333.10181
333.09624
333.08864
333.07559
333.12716
333.12678
333.12595
333.1247
333.12308
333.1211
333.1188
333.11619
333.11324
333.10992
333.10612
333.10164
333.0961
333.08853
333.07551
333.12674
333.12637
333.12555
333.12433
333.12273
333.12078
333.11851
333.11592
333.113
333.1097
333.10593
333.10148
333.09596
333.08842
333.07543
333.12633
333.12596
333.12516
333.12395
333.12238
333.12046
333.11822
333.11566
333.11276
333.10949
333.10574
333.10131
333.09582
333.0883
333.07535
333.12592
333.12556
333.12477
333.12359
333.12203
333.12014
333.11792
333.11539
333.11252
333.10928
333.10555
333.10115
333.09567
333.08819
333.07527
333.12551
333.12516
333.12438
333.12322
333.12169
333.11982
333.11763
333.11513
333.11229
333.10906
333.10536
333.10098
333.09553
333.08807
333.07519
333.12511
333.12476
333.124
333.12286
333.12135
333.11951
333.11735
333.11486
333.11205
333.10885
333.10517
333.10081
333.09539
333.08795
333.0751
333.12471
333.12437
333.12362
333.1225
333.12102
333.1192
333.11706
333.1146
333.11181
333.10864
333.10498
333.10065
333.09524
333.08783
333.07501
333.12432
333.12399
333.12325
333.12214
333.12068
333.11889
333.11677
333.11434
333.11158
333.10842
333.10479
333.10048
333.09509
333.0877
333.07492
333.12394
333.12361
333.12288
333.12179
333.12035
333.11858
333.11649
333.11408
333.11134
333.10821
333.1046
333.10031
333.09495
333.08758
333.07482
333.12355
333.12323
333.12252
333.12144
333.12003
333.11828
333.11621
333.11383
333.1111
333.108
333.10441
333.10014
333.0948
333.08745
333.07473
333.12318
333.12286
333.12216
333.1211
333.1197
333.11797
333.11593
333.11357
333.11087
333.10779
333.10421
333.09997
333.09465
333.08732
333.07463
333.12281
333.12249
333.1218
333.12076
333.11938
333.11767
333.11565
333.11331
333.11064
333.10757
333.10402
333.09979
333.09449
333.08719
333.07453
333.12244
333.12213
333.12145
333.12042
333.11906
333.11737
333.11537
333.11306
333.1104
333.10736
333.10383
333.09962
333.09434
333.08706
333.07443
333.12207
333.12177
333.1211
333.12009
333.11874
333.11708
333.1151
333.1128
333.11017
333.10715
333.10364
333.09945
333.09419
333.08693
333.07432
333.12172
333.12142
333.12076
333.11976
333.11843
333.11678
333.11483
333.11255
333.10994
333.10694
333.10344
333.09927
333.09403
333.08679
333.07421
333.12136
333.12107
333.12042
333.11943
333.11812
333.11649
333.11455
333.1123
333.10971
333.10672
333.10325
333.0991
333.09388
333.08666
333.0741
333.12101
333.12072
333.12008
333.11911
333.11781
333.1162
333.11428
333.11205
333.10948
333.10651
333.10306
333.09892
333.09372
333.08652
333.07399
333.12066
333.12038
333.11974
333.11879
333.11751
333.11592
333.11402
333.1118
333.10925
333.1063
333.10286
333.09875
333.09356
333.08638
333.07388
333.12032
333.12004
333.11941
333.11847
333.1172
333.11563
333.11375
333.11155
333.10902
333.10609
333.10267
333.09857
333.0934
333.08624
333.07376
333.11998
333.1197
333.11909
333.11815
333.1169
333.11535
333.11348
333.1113
333.10879
333.10588
333.10248
333.09839
333.09324
333.0861
333.07365
333.11965
333.11937
333.11877
333.11784
333.11661
333.11507
333.11322
333.11106
333.10856
333.10567
333.10228
333.09822
333.09308
333.08595
333.07353
333.11932
333.11905
333.11845
333.11753
333.11631
333.11479
333.11296
333.11081
333.10833
333.10545
333.10209
333.09804
333.09292
333.08581
333.0734
333.11899
333.11872
333.11813
333.11723
333.11602
333.11451
333.1127
333.11057
333.1081
333.10524
333.10189
333.09786
333.09275
333.08566
333.07328
333.11867
333.1184
333.11782
333.11693
333.11573
333.11424
333.11244
333.11033
333.10788
333.10503
333.1017
333.09768
333.09259
333.08551
333.07315
333.11835
333.11809
333.11751
333.11663
333.11544
333.11396
333.11218
333.11008
333.10765
333.10482
333.1015
333.0975
333.09242
333.08536
333.07303
333.11803
333.11777
333.1172
333.11633
333.11516
333.11369
333.11192
333.10984
333.10742
333.10461
333.10131
333.09731
333.09225
333.08521
333.0729
333.11772
333.11746
333.1169
333.11603
333.11488
333.11342
333.11167
333.1096
333.1072
333.1044
333.10111
333.09713
333.09209
333.08506
333.07277
333.11741
333.11716
333.1166
333.11574
333.1146
333.11315
333.11142
333.10936
333.10697
333.10419
333.10091
333.09695
333.09192
333.08491
333.07263
333.1171
333.11685
333.1163
333.11545
333.11432
333.11289
333.11116
333.10913
333.10675
333.10398
333.10072
333.09677
333.09175
333.08475
333.0725
333.1168
333.11655
333.116
333.11517
333.11404
333.11262
333.11091
333.10889
333.10653
333.10377
333.10052
333.09658
333.09158
333.0846
333.07236
333.1165
333.11625
333.11571
333.11488
333.11377
333.11236
333.11066
333.10865
333.1063
333.10356
333.10032
333.0964
333.09141
333.08444
333.07222
333.1162
333.11596
333.11542
333.1146
333.1135
333.1121
333.11041
333.10842
333.10608
333.10335
333.10013
333.09621
333.09123
333.08428
333.07209
333.11591
333.11567
333.11513
333.11432
333.11323
333.11184
333.11017
333.10818
333.10586
333.10314
333.09993
333.09603
333.09106
333.08412
333.07194
333.11562
333.11538
333.11485
333.11404
333.11296
333.11159
333.10992
333.10795
333.10564
333.10293
333.09973
333.09584
333.09089
333.08396
333.0718
333.11533
333.11509
333.11457
333.11377
333.11269
333.11133
333.10968
333.10772
333.10542
333.10272
333.09953
333.09566
333.09071
333.0838
333.07166
333.11504
333.11481
333.11429
333.1135
333.11243
333.11108
333.10943
333.10748
333.1052
333.10251
333.09933
333.09547
333.09054
333.08364
333.07151
333.11476
333.11452
333.11401
333.11323
333.11217
333.11082
333.10919
333.10725
333.10498
333.10231
333.09914
333.09528
333.09036
333.08347
333.07137
333.11448
333.11425
333.11374
333.11296
333.11191
333.11057
333.10895
333.10702
333.10476
333.1021
333.09894
333.09509
333.09018
333.08331
333.07122
333.1142
333.11397
333.11346
333.11269
333.11165
333.11032
333.10871
333.10679
333.10454
333.10189
333.09874
333.09491
333.09001
333.08314
333.07107
333.11392
333.11369
333.11319
333.11243
333.11139
333.11008
333.10847
333.10657
333.10432
333.10168
333.09854
333.09472
333.08983
333.08298
333.07092
333.11365
333.11342
333.11293
333.11217
333.11113
333.10983
333.10824
333.10634
333.1041
333.10147
333.09834
333.09453
333.08965
333.08281
333.07076
333.11338
333.11315
333.11266
333.1119
333.11088
333.10958
333.108
333.10611
333.10388
333.10126
333.09814
333.09434
333.08947
333.08264
333.07061
333.11311
333.11289
333.1124
333.11165
333.11063
333.10934
333.10776
333.10588
333.10367
333.10105
333.09794
333.09415
333.08929
333.08247
333.07046
333.11284
333.11262
333.11213
333.11139
333.11038
333.1091
333.10753
333.10566
333.10345
333.10085
333.09774
333.09396
333.08911
333.0823
333.0703
333.11257
333.11236
333.11187
333.11113
333.11013
333.10885
333.1073
333.10543
333.10323
333.10064
333.09755
333.09377
333.08893
333.08213
333.07014
333.11231
333.11209
333.11162
333.11088
333.10988
333.10861
333.10706
333.10521
333.10302
333.10043
333.09735
333.09358
333.08874
333.08196
333.06999
333.11205
333.11184
333.11136
333.11063
333.10964
333.10838
333.10683
333.10498
333.1028
333.10022
333.09715
333.09338
333.08856
333.08179
333.06983
333.11179
333.11158
333.1111
333.11038
333.10939
333.10814
333.1066
333.10476
333.10258
333.10001
333.09695
333.09319
333.08838
333.08161
333.06967
333.11153
333.11132
333.11085
333.11013
333.10915
333.1079
333.10637
333.10454
333.10237
333.09981
333.09675
333.093
333.08819
333.08144
333.06951
333.11128
333.11107
333.1106
333.10988
333.10891
333.10766
333.10614
333.10432
333.10215
333.0996
333.09655
333.09281
333.08801
333.08126
333.06934
333.11102
333.11082
333.11035
333.10964
333.10867
333.10743
333.10591
333.10409
333.10194
333.09939
333.09635
333.09262
333.08783
333.08109
333.06918
333.11077
333.11056
333.1101
333.10939
333.10843
333.1072
333.10568
333.10387
333.10173
333.09918
333.09615
333.09242
333.08764
333.08091
333.06902
333.11052
333.11032
333.10986
333.10915
333.10819
333.10696
333.10546
333.10365
333.10151
333.09898
333.09595
333.09223
333.08746
333.08073
333.06885
333.11027
333.11007
333.10961
333.10891
333.10795
333.10673
333.10523
333.10343
333.1013
333.09877
333.09575
333.09204
333.08727
333.08056
333.06869
333.11003
333.10982
333.10937
333.10867
333.10772
333.1065
333.10501
333.10321
333.10109
333.09856
333.09555
333.09184
333.08708
333.08038
333.06852
333.10978
333.10958
333.10913
333.10843
333.10748
333.10627
333.10478
333.103
333.10087
333.09836
333.09535
333.09165
333.0869
333.0802
333.06835
333.10954
333.10933
333.10888
333.10819
333.10725
333.10604
333.10456
333.10278
333.10066
333.09815
333.09514
333.09146
333.08671
333.08002
333.06819
333.10929
333.10909
333.10864
333.10795
333.10701
333.10581
333.10434
333.10256
333.10045
333.09794
333.09494
333.09126
333.08652
333.07984
333.06802
333.10905
333.10885
333.10841
333.10772
333.10678
333.10559
333.10411
333.10234
333.10024
333.09774
333.09474
333.09107
333.08633
333.07966
333.06785
333.10881
333.10861
333.10817
333.10748
333.10655
333.10536
333.10389
333.10212
333.10002
333.09753
333.09454
333.09087
333.08615
333.07948
333.06768
333.10857
333.10837
333.10793
333.10725
333.10632
333.10513
333.10367
333.10191
333.09981
333.09733
333.09434
333.09068
333.08596
333.0793
333.06751
333.10834
333.10814
333.1077
333.10702
333.10609
333.10491
333.10345
333.10169
333.0996
333.09712
333.09414
333.09048
333.08577