/*--------------------------------*- C++ -*----------------------------------*\
| =========                 |                                                 |
| \\      /  F ield         | OpenFOAM: The Open Source CFD Toolbox           |
|  \\    /   O peration     | Version:  2506                                  |
|   \\  /    A nd           | Website:  www.openfoam.com                      |
|    \\/     M anipulation  |                                                 |
\*---------------------------------------------------------------------------*/
FoamFile
{
    version     2.0;
    format      ascii;
    arch        "LSB;label=32;scalar=64";
    class       volVectorField;
    location    "15000/water";
    object      U;
}
// * * * * * * * * * * * * * * * * * * * * * * * * * * * * * * * * * * * * * //

dimensions      [0 1 -1 0 0 0 0];

internalField   nonuniform List<vector> 
6000
(
(0.25028648 -3.4193493e-05 -2.1164722e-18)
(0.25028875 -7.4648812e-05 -5.063164e-18)
(0.25029344 -0.00011804414 -3.5244596e-19)
(0.25030059 -0.00016540046 -1.0005141e-19)
(0.25031046 -0.00021487336 1.7609827e-19)
(0.25032332 -0.00026685039 1.7279129e-19)
(0.25033948 -0.00032192175 2.8232447e-19)
(0.25035939 -0.00038078672 -3.0572945e-19)
(0.25038356 -0.00044434477 3.2763554e-20)
(0.25041254 -0.00051362452 4.25494e-21)
(0.25044587 -0.0005867756 9.7544859e-20)
(0.25047643 -0.00065822056 9.4475465e-20)
(0.25046276 -0.00078466513 -1.4051363e-19)
(0.25013031 -0.0015987837 -1.3623479e-19)
(0.24584996 0.0019968142 1.4155054e-20)
(0.25104035 -3.7261304e-05 -2.1307618e-18)
(0.25104514 -8.989598e-05 -3.6645012e-18)
(0.2510558 -0.00014352114 -1.28149e-18)
(0.25107219 -0.00020025424 -2.6046679e-19)
(0.2510947 -0.0002571822 1.2118579e-18)
(0.25112368 -0.00031440571 4.2068219e-19)
(0.25115965 -0.00037188242 1.9712884e-19)
(0.25120324 -0.00042947839 -1.5435633e-19)
(0.2512551 -0.00048709454 4.0054726e-20)
(0.25131538 -0.00054561245 2.2195666e-19)
(0.25138039 -0.00060405492 6.8780563e-20)
(0.25142587 -0.00063755822 2.0297383e-20)
(0.25133175 -0.00059164843 -1.3435659e-19)
(0.25037931 -0.0014370973 -1.3412114e-19)
(0.24194277 0.00099520264 -6.2258153e-20)
(0.25195051 -3.6589029e-05 -1.4184524e-18)
(0.25195563 -9.0250613e-05 2.4910604e-18)
(0.25196731 -0.00014313025 1.3389696e-20)
(0.25198528 -0.00019912656 -1.4905622e-18)
(0.25200977 -0.00025508716 2.5824214e-19)
(0.25204101 -0.0003112558 -2.1312199e-19)
(0.25207932 -0.00036762123 -7.9896302e-19)
(0.25212505 -0.00042413945 -5.1065139e-19)
(0.25217823 -0.00048056787 -6.1559284e-19)
(0.25223708 -0.00053775721 1.5336142e-19)
(0.25229114 -0.00060007155 -4.2484612e-19)
(0.25229033 -0.00065419843 -5.5062481e-19)
(0.25200573 -0.00054460881 -4.0916699e-19)
(0.25014357 -0.0012195308 -2.6550296e-19)
(0.23758495 0.00043820543 -1.8528181e-19)
(0.25283353 -3.7446604e-05 2.0293936e-18)
(0.25283867 -9.3611088e-05 7.4467789e-19)
(0.25285018 -0.00014906892 4.5270481e-19)
(0.25286783 -0.00020791578 -6.2187569e-19)
(0.25289182 -0.00026672308 3.6250005e-19)
(0.25292238 -0.00032582165 -2.8741403e-19)
(0.25295982 -0.00038519269 -7.9048425e-19)
(0.25300432 -0.00044485276 -7.3956872e-19)
(0.25305525 -0.00050441426 -4.0715115e-19)
(0.25310809 -0.00056332944 2.0930922e-19)
(0.25314261 -0.00062607506 -2.3956556e-19)
(0.25307635 -0.00069910336 -3.475435e-19)
(0.25255493 -0.0005845712 -3.9883806e-19)
(0.24963188 -0.001063787 -3.4828197e-19)
(0.23320285 0.0001058672 -1.7586943e-19)
(0.25372643 -3.8342944e-05 1.1225255e-17)
(0.2537317 -9.6368692e-05 3.2237283e-18)
(0.25374347 -0.00015372841 2.1195427e-18)
(0.25376156 -0.00021453144 1.637289e-18)
(0.25378616 -0.00027516439 1.1687257e-18)
(0.25381749 -0.00033599427 4.5301178e-19)
(0.25385581 -0.00039694563 -1.0887401e-19)
(0.25390101 -0.00045805575 -1.0709784e-19)
(0.25395133 -0.00051907431 3.3013089e-19)
(0.25399821 -0.00057855465 2.2091212e-19)
(0.25400834 -0.00063773998 1.6727007e-19)
(0.25386022 -0.0007177221 -1.7069754e-21)
(0.25305737 -0.00062191548 4.1145731e-20)
(0.24895451 -0.00093835859 -1.7379116e-19)
(0.22897365 -8.3792338e-05 -7.1289556e-20)
(0.25464474 -3.866162e-05 8.2376925e-19)
(0.25465014 -9.7320119e-05 -1.206341e-18)
(0.2546622 -0.00015516462 1.6240851e-18)
(0.25468073 -0.00021648309 1.7642194e-18)
(0.2547059 -0.00027758564 -3.8643226e-19)
(0.25473792 -0.000338881 2.4492315e-19)
(0.25477689 -0.00040025681 1.4053155e-19)
(0.25482222 -0.000461728 2.7069953e-19)
(0.25487049 -0.00052322808 3.2688643e-19)
(0.2549078 -0.000583188 3.4888491e-19)
(0.25488519 -0.00063896641 1.6917072e-19)
(0.25463685 -0.00071821651 -7.4525387e-20)
(0.25350729 -0.0006469875 -2.4753769e-20)
(0.248129 -0.00083894719 -7.6437797e-20)
(0.2249409 -0.00018589273 -5.021903e-20)
(0.25557031 -3.8595293e-05 -4.4737283e-18)
(0.25557581 -9.7309347e-05 -3.7115515e-18)
(0.25558805 -0.00015511983 -1.0911213e-18)
(0.25560682 -0.00021642526 2.700441e-19)
(0.2556323 -0.0002774936 -1.6022791e-18)
(0.25566463 -0.00033876345 3.2890775e-19)
(0.25570371 -0.00040009735 4.2950217e-19)
(0.25574825 -0.00046144626 3.2867389e-19)
(0.25579256 -0.00052279714 2.595652e-19)
(0.25581623 -0.0005828814 5.7427124e-20)
(0.25575267 -0.00063600478 1.2444266e-19)
(0.25538743 -0.00071016268 1.0143538e-19)
(0.25388915 -0.00066107344 -1.258089e-19)
(0.24716598 -0.00076077854 -1.9272444e-20)
(0.22112141 -0.00023459296 -2.9335864e-20)
(0.25649134 -3.8297107e-05 4.4838544e-18)
(0.25649692 -9.6712129e-05 2.0775981e-18)
(0.25650928 -0.00015419069 1.4738788e-18)
(0.25652824 -0.00021515485 1.5418953e-19)
(0.25655393 -0.00027585718 -1.0283355e-18)
(0.25658641 -0.0003367553 4.0534422e-19)
(0.25662528 -0.00039769653 4.8995439e-19)
(0.2566683 -0.00045856441 5.4539888e-20)
(0.25670691 -0.00051927104 8.0185992e-21)
(0.25671305 -0.00057893859 -4.7931324e-19)
(0.25660095 -0.00063003278 -5.2070425e-20)
(0.25610359 -0.00069722485 1.0476157e-19)
(0.25419746 -0.0006651972 -1.7874438e-20)
(0.24608527 -0.00069788903 -2.406842e-20)
(0.21752738 -0.00025081848 -1.3825997e-19)
(0.25740382 -3.7852859e-05 -1.2096421e-18)
(0.25740947 -9.5689494e-05 -9.3825535e-19)
(0.25742193 -0.00015257331 1.4624056e-18)
(0.25744104 -0.00021291359 1.1426668e-18)
(0.25746687 -0.00027297291 3.7818699e-19)
(0.25749936 -0.0003332193 3.5980862e-21)
(0.2575377 -0.00039348924 2.3441663e-19)
(0.2575784 -0.00045361302 1.7058314e-19)
(0.25760945 -0.00051335259 -1.6021478e-19)
(0.25759421 -0.00057212214 2.953693e-19)
(0.25742635 -0.00062159363 -3.7035298e-20)
(0.25678237 -0.00068144217 7.6503283e-20)
(0.25443121 -0.00066103686 6.9644223e-20)
(0.24490935 -0.00064561644 -2.888042e-20)
(0.21416513 -0.00024776584 -2.0184072e-19)
(0.25830515 -3.7308639e-05 9.2611852e-19)
(0.25831084 -9.437277e-05 -1.1012796e-18)
(0.25832339 -0.00015047649 -9.5568121e-20)
(0.2583426 -0.00020999612 1.2508249e-19)
(0.25836849 -0.00026922145 -2.1981561e-19)
(0.25840083 -0.00032862339 -5.0713647e-20)
(0.25843826 -0.00038802595 1.9766977e-19)
(0.25847573 -0.00044722018 2.1673706e-19)
(0.25849727 -0.00050579279 -2.5631223e-20)
(0.25845683 -0.00056328987 3.6078213e-19)
(0.25822634 -0.00061131676 7.2727442e-20)
(0.25742154 -0.00066417743 8.2130405e-20)
(0.2545896 -0.00065044234 1.2530387e-20)
(0.24365871 -0.00060064453 -1.1736363e-19)
(0.21103455 -0.00023378679 -1.2405795e-19)
(0.259193 -3.6693881e-05 6.3025141e-18)
(0.25919873 -9.2857461e-05 4.2857592e-18)
(0.25921134 -0.00014806165 -2.0151042e-18)
(0.25923061 -0.00020663289 -2.097971e-19)
(0.25925648 -0.0002648995 1.0304499e-18)
(0.25928848 -0.00032332972 4.3649707e-19)
(0.25932457 -0.00038173097 4.6179433e-19)
(0.25935785 -0.00043986308 1.0069258e-20)
(0.25936788 -0.00049714489 1.0258554e-19)
(0.25929853 -0.00055310431 -2.7911588e-19)
(0.2589988 -0.00059970361 1.6466519e-19)
(0.25801896 -0.00064623362 7.9469989e-20)
(0.25467145 -0.00063499349 -1.3845287e-20)
(0.24235144 -0.00056062195 -1.2724082e-19)
(0.20813123 -0.0002141088 -4.3951128e-20)
(0.26006576 -3.6034055e-05 3.4638922e-18)
(0.26007152 -9.1214286e-05 4.5849949e-18)
(0.26008417 -0.00014544281 -1.5969933e-18)
(0.26010346 -0.00020298347 -1.3532469e-20)
(0.26012923 -0.00026021093 8.1462362e-19)
(0.2601607 -0.0003175869 4.0532516e-19)
(0.26019497 -0.00037489796 1.8800865e-19)
(0.26022303 -0.0004318747 -4.6094224e-20)
(0.26021952 -0.00048779067 -2.4843027e-20)
(0.26011767 -0.00054204301 -3.4334372e-19)
(0.25974224 -0.00058714002 1.8951697e-19)
(0.25857279 -0.00062806078 1.5465751e-19)
(0.25467557 -0.00061594005 2.223438e-21)
(0.24100379 -0.00052390611 -9.0815839e-20)
(0.20544863 -0.00019196317 -1.8454687e-20)
(0.2609225 -3.5349634e-05 3.5378038e-18)
(0.26092828 -8.9497287e-05 4.5407732e-18)
(0.26094096 -0.00014270541 2.8370765e-19)
(0.26096023 -0.00019916671 -2.4591413e-19)
(0.2609858 -0.00025530722 9.3088313e-20)
(0.2610165 -0.00031157922 1.9689516e-19)
(0.26104844 -0.00036774517 2.5357112e-19)
(0.2610702 -0.00042350434 1.3950923e-19)
(0.26105114 -0.00047801113 6.6567929e-20)
(0.26091327 -0.00053046086 1.6620548e-20)
(0.2604557 -0.00057393662 2.4155544e-19)
(0.2590814 -0.00060990566 1.3346009e-19)
(0.2546009 -0.00059424331 4.8287539e-20)
(0.23963056 -0.00048937354 -1.396782e-19)
(0.20297926 -0.00016931833 -1.0685084e-19)
(0.26176274 -3.4655539e-05 1.9231869e-18)
(0.26176854 -8.7746857e-05 3.2594166e-18)
(0.26178122 -0.00013991377 -1.0055978e-19)
(0.26180042 -0.00019527247 4.3549853e-19)
(0.26182568 -0.00025030306 5.9946531e-21)
(0.26185536 -0.00030544608 6.1499215e-19)
(0.26188442 -0.00036043768 5.6086672e-19)
(0.26189878 -0.00041494196 4.7699397e-19)
(0.26186213 -0.00046801763 4.0356144e-19)
(0.2616848 -0.00051862213 2.0856664e-19)
(0.26113855 -0.00056034346 7.863057e-20)
(0.25954316 -0.00059189153 7.683593e-20)
(0.25444651 -0.0005706321 2.4222074e-20)
(0.23824529 -0.00045627776 -5.3858663e-20)
(0.20071509 -0.00014735259 -3.7037224e-20)
(0.26258633 -3.3963061e-05 2.8920748e-18)
(0.26259213 -8.5993782e-05 7.7669366e-19)
(0.26260479 -0.00013711719 3.1461641e-18)
(0.26262388 -0.00019136968 1.0926043e-18)
(0.2626487 -0.00024528656 -1.3144807e-18)
(0.26267708 -0.00029929459 4.423884e-19)
(0.26270267 -0.00035310243 2.594714e-19)
(0.26270848 -0.00040633486 5.4290502e-19)
(0.26265224 -0.00045797299 3.4677593e-19)
(0.26243199 -0.00050672606 -1.3175748e-20)
(0.26179026 -0.00054656345 1.4374382e-20)
(0.25995633 -0.0005740675 1.5098159e-19)
(0.25421177 -0.00054566294 4.1201668e-20)
(0.23686046 -0.00042415214 5.1384205e-20)
(0.19864765 -0.0001267576 5.4251562e-20)
(0.26339335 -3.3281401e-05 3.3045168e-18)
(0.26339915 -8.4262742e-05 3.8353653e-18)
(0.26341177 -0.0001343551 1.7950464e-18)
(0.26343068 -0.0001875135 1.5505805e-19)
(0.26345493 -0.00024032822 7.5467757e-19)
(0.26348171 -0.00029321054 6.029771e-21)
(0.2635032 -0.00034584107 -6.1290205e-21)
(0.2634993 -0.00039780175 2.8680639e-19)
(0.26342146 -0.0004480083 -4.0954105e-20)
(0.26315482 -0.00049492779 1.3640607e-19)
(0.26241041 -0.00053276479 2.8042958e-19)
(0.26031893 -0.00055643964 1.5449052e-19)
(0.2538966 -0.000519773 7.6765566e-20)
(0.23548766 -0.00039274464 7.6630724e-20)
(0.19676807 -0.00010792878 1.4552137e-20)
(0.26418413 -3.2618313e-05 2.9756421e-18)
(0.26418991 -8.2574227e-05 3.7368046e-18)
(0.26420246 -0.00013166021 -7.1233157e-20)
(0.26422112 -0.0001837496 3.2134997e-19)
(0.26424465 -0.00023548649 1.1279387e-18)
(0.2642695 -0.00028726512 1.8517455e-19)
(0.26428624 -0.00033873796 9.3737981e-20)
(0.26427145 -0.00038944152 1.0768937e-19)
(0.26416998 -0.0004382328 -7.5536293e-20)
(0.26385341 -0.00048335173 3.2386972e-19)
(0.26299854 -0.00051908846 3.5733406e-19)
(0.26062878 -0.00053898816 2.5787672e-19)
(0.25350187 -0.00049331965 1.4533053e-19)
(0.2341376 -0.00036197184 6.9569439e-20)
(0.19506692 -9.1079356e-05 -3.3611852e-20)
(0.26495914 -3.1980325e-05 4.8291906e-18)
(0.2649649 -8.094539e-05 3.1465033e-18)
(0.26497734 -0.00012905989 7.9426697e-19)
(0.26499568 -0.00018011622 7.1858273e-19)
(0.26501831 -0.00023081031 1.0775269e-18)
(0.26504088 -0.00028151807 3.088364e-19)
(0.2650522 -0.00033186392 1.6955097e-19)
(0.2650253 -0.00038133727 -2.6126622e-20)
(0.26489816 -0.00042873842 -2.0097519e-20)
(0.26452796 -0.00047209828 1.4353982e-19)
(0.26355413 -0.00050565096 1.8409998e-19)
(0.2608835 -0.00052167636 2.8785947e-19)
(0.25302971 -0.00046660631 1.4471639e-19)
(0.23282016 -0.00033188327 4.476354e-20)
(0.19353413 -7.6303786e-05 -5.6148379e-20)
(0.26571903 -3.1372765e-05 1.5030214e-18)
(0.26572475 -7.9390279e-05 2.0822224e-18)
(0.26573705 -0.00012657658 -1.4226957e-19)
(0.26575498 -0.00017664472 -3.8254926e-20)
(0.26577653 -0.00022633987 7.8982779e-19)
(0.26579644 -0.0002760185 3.330741e-19)
(0.26580163 -0.0003252772 1.7776616e-19)
(0.26576141 -0.00037355728 -8.1276463e-20)
(0.26560652 -0.00041960061 1.8589732e-19)
(0.26517878 -0.00046124612 3.370704e-20)
(0.26407657 -0.00049254343 1.8532283e-19)
(0.26108058 -0.00050445572 1.8106419e-19)
(0.25248384 -0.00043989699 9.7609477e-20)
(0.23154421 -0.00030262987 2.6080026e-20)
(0.19215888 -6.3609732e-05 9.8999441e-20)
(0.26646455 -3.0799673e-05 5.3249908e-18)
(0.26647021 -7.7919711e-05 5.9084872e-19)
(0.26648233 -0.00012422759 3.3076073e-18)
(0.26649975 -0.0001733593 1.4553387e-18)
(0.26652002 -0.00022210618 -4.9821853e-19)
(0.26653688 -0.0002708044 1.3229131e-18)
(0.26653522 -0.00031902283 1.1214411e-18)
(0.26648042 -0.00036615421 8.3073665e-19)
(0.26629564 -0.00041087723 9.3575357e-19)
(0.26580617 -0.00045085191 -2.6264094e-19)
(0.26456508 -0.00047982866 4.6066556e-19)
(0.26121753 -0.00048726982 3.1029728e-19)
(0.25186982 -0.00041342264 3.6762306e-19)
(0.23031742 -0.00027443217 2.7167141e-19)
(0.1909297 -5.2932834e-05 3.3081087e-19)
(0.26719653 -3.0263688e-05 4.6979798e-18)
(0.26720212 -7.6541024e-05 -7.6936656e-19)
(0.26721401 -0.00012202465 3.0597029e-18)
(0.26723083 -0.00017027641 1.970288e-18)
(0.2672496 -0.00021813034 1.0029075e-18)
(0.26726299 -0.00026590165 1.2374318e-18)
(0.26725373 -0.0003131315 1.4040801e-18)
(0.26718309 -0.00035916374 1.1659586e-18)
(0.26696618 -0.00040260692 7.5188915e-19)
(0.26641044 -0.00044094906 -4.6485945e-20)
(0.26501868 -0.00046753759 3.0605565e-19)
(0.26129202 -0.00047005901 3.7243696e-19)
(0.25119506 -0.00038738325 3.08619e-19)
(0.2291461 -0.00024754677 2.340559e-19)
(0.18983455 -4.41451e-05 2.0451963e-19)
(0.26791589 -2.9765992e-05 -3.413792e-19)
(0.26792138 -7.5257933e-05 1.2381282e-18)
(0.26793299 -0.00011997377 1.4035314e-18)
(0.26794908 -0.00016740448 1.1744883e-18)
(0.26796613 -0.00021442313 1.5155891e-18)
(0.26797562 -0.00026132352 3.5058254e-19)
(0.267958 -0.00030761887 5.3940606e-19)
(0.26787018 -0.00035260382 2.8294757e-19)
(0.2676188 -0.00039480805 1.3630119e-19)
(0.2669918 -0.00043154706 9.5182214e-20)
(0.26543617 -0.00045566687 5.9896418e-21)
(0.2613021 -0.00045276643 1.4208569e-19)
(0.2504687 -0.00036194908 -4.769313e-21)
(0.22803501 -0.00022223217 -4.8508946e-20)
(0.18886112 -3.7064086e-05 -5.3901077e-20)
(0.26862352 -2.9306383e-05 5.9720536e-18)
(0.2686289 -7.4070662e-05 2.652906e-18)
(0.26864017 -0.00011807533 2.604678e-18)
(0.26865542 -0.00016474413 3.0408035e-18)
(0.26867049 -0.00021098533 1.6182734e-18)
(0.26867563 -0.000257071 1.2732869e-18)
(0.26864885 -0.00030248606 1.1631098e-18)
(0.26854251 -0.00034647515 7.4198884e-19)
(0.26825414 -0.00038747924 5.2380974e-19)
(0.26755035 -0.00042263245 -2.4044415e-19)
(0.2658161 -0.00044417905 3.6011056e-19)
(0.26124652 -0.00043534493 3.6271508e-19)
(0.24970133 -0.00033726333 3.3301526e-19)
(0.22698727 -0.00019871676 3.7486362e-19)
(0.18799711 -3.1466399e-05 2.1240017e-19)
(0.26932033 -2.8883461e-05 1.2789599e-18)
(0.26932558 -7.2976356e-05 -3.8588302e-19)
(0.26933645 -0.00011632481 1.1436969e-18)
(0.26935072 -0.00016228909 2.7470812e-18)
(0.26936357 -0.0002078089 1.8678834e-18)
(0.26936389 -0.00025313433 1.5101525e-18)
(0.26932713 -0.0002977213 1.2101551e-18)
(0.26920083 -0.00034076322 1.0771995e-18)
(0.2688728 -0.00038060159 4.9836984e-19)
(0.26808605 -0.00041417146 4.104268e-19)
(0.26615679 -0.00043300583 3.0739682e-19)
(0.26112496 -0.00041776402 4.5555959e-19)
(0.24890441 -0.00031344658 3.8248258e-19)
(0.22600436 -0.0001771726 4.955804e-19)
(0.18723056 -2.7105586e-05 2.635675e-19)
(0.27000719 -2.8494911e-05 8.5001243e-19)
(0.27001228 -7.1969744e-05 3.9087333e-18)
(0.27002267 -0.00011471384 4.0407087e-18)
(0.27003582 -0.00016002771 2.1085242e-18)
(0.27004618 -0.00020487885 8.6254648e-19)
(0.27004119 -0.00024949516 1.4260816e-18)
(0.2699936 -0.00029330262 9.9519456e-19)
(0.26984584 -0.00033544136 1.1349965e-18)
(0.26947524 -0.00037414209 7.6148058e-19)
(0.2685986 -0.00040611399 6.3821874e-19)
(0.26645635 -0.00042205446 4.0458344e-19)
(0.2609383 -0.00040001524 4.607524e-19)
(0.24808975 -0.00029060213 4.0165475e-19)
(0.22508629 -0.00015769827 3.7659557e-19)
(0.18655015 -2.3732129e-05 1.4074327e-19)
(0.27068489 -2.8137826e-05 9.1866442e-18)
(0.2706898 -7.1043907e-05 3.7854198e-18)
(0.27069965 -0.00011323138 5.7094416e-18)
(0.27071153 -0.00015794462 3.3103794e-18)
(0.2707191 -0.00020217545 1.1064734e-18)
(0.27070829 -0.00024612933 2.0193469e-18)
(0.27064898 -0.00028920108 1.6560143e-18)
(0.27047818 -0.00033047455 1.5126707e-18)
(0.27006181 -0.00036805784 1.1908649e-18)
(0.26908753 -0.00039839812 2.2442999e-19)
(0.26671278 -0.00041121649 6.8443552e-19)
(0.26068881 -0.00038211515 6.2206588e-19)
(0.24726882 -0.00026882041 7.6156809e-19)
(0.22423175 -0.00014031231 5.9324089e-19)
(0.18594537 -2.1112146e-05 3.7959666e-19)
(0.27135418 -2.7809012e-05 3.20041e-18)
(0.27135887 -7.0191041e-05 3.0415393e-18)
(0.2713681 -0.00011186497 2.9787335e-18)
(0.27137855 -0.00015602247 2.0588456e-18)
(0.27138303 -0.00019967637 1.9826955e-18)
(0.27136587 -0.00024300948 1.4226434e-18)
(0.27129391 -0.00028538386 9.4039384e-19)
(0.27109836 -0.000325823 7.5094959e-19)
(0.27063272 -0.00036230005 3.2872874e-19)
(0.26955206 -0.00039095432 1.3765397e-19)
(0.26692403 -0.00040037784 2.4172163e-19)
(0.26038022 -0.00036410564 2.9231428e-19)
(0.24645221 -0.00024818088 3.377501e-19)
(0.22343841 -0.00012495718 2.7874367e-19)
(0.18540672 -1.9041831e-05 2.4761085e-19)
(0.27201571 -2.7505236e-05 3.1485585e-18)
(0.27202015 -6.94031e-05 3.6178719e-18)
(0.27202866 -0.00011060176 2.7693631e-18)
(0.27203751 -0.00015424331 2.1816729e-18)
(0.2720386 -0.00019735858 2.4590539e-18)
(0.27201452 -0.00024010733 1.7036885e-18)
(0.27192892 -0.00028181693 1.3431529e-18)
(0.2717068 -0.00032144525 8.6932177e-19)
(0.27118802 -0.00035681747 3.0468539e-19)
(0.2699912 -0.00038370884 5.8822405e-20)
(0.26708822 -0.000389429 1.7854723e-19)
(0.26001771 -0.00034605163 3.6825541e-19)
(0.24564917 -0.00022875086 2.4777782e-19)
(0.22270325 -0.00011151162 2.3092933e-19)
(0.18492573 -1.7355844e-05 2.9499138e-19)
(0.27267005 -2.7223403e-05 1.929711e-19)
(0.27267421 -6.8672269e-05 -3.3124036e-20)
(0.27268192 -0.00010942927 8.5089959e-19)
(0.27268898 -0.00015258973 2.0868727e-18)
(0.27268634 -0.00019519966 2.4567868e-18)
(0.27265476 -0.00023739527 1.3912894e-18)
(0.27255447 -0.00027846699 1.3538574e-18)
(0.2723038 -0.00031730047 1.0645133e-18)
(0.27172756 -0.00035155884 6.2445041e-19)
(0.27040369 -0.00037658611 4.4719709e-19)
(0.26720375 -0.00037827411 1.1291823e-19)
(0.25960771 -0.00032803713 4.0895767e-19)
(0.24486735 -0.00021058184 3.9388576e-19)
(0.22202277 -9.9808139e-05 1.6350334e-19)
(0.18449494 -1.5929485e-05 3.2368571e-19)
(0.27331772 -2.6960667e-05 4.3867557e-19)
(0.27332155 -6.7991274e-05 3.20724e-18)
(0.27332837 -0.00010833587 2.3205674e-18)
(0.27333345 -0.00015104547 2.2264275e-18)
(0.27332673 -0.00019317869 1.3314416e-18)
(0.27328702 -0.00023484751 1.0053096e-18)
(0.27317093 -0.0002753027 9.9787967e-19)
(0.27288957 -0.0003133499 9.3623204e-19)
(0.27225107 -0.00034647443 8.51373e-19)
(0.27078808 -0.00036951039 6.3940735e-19)
(0.26726952 -0.00036683813 2.7828394e-19)
(0.25915765 -0.0003101602 4.2251199e-19)
(0.24411266 -0.00019370463 3.6258045e-19)
(0.22139331 -8.9652402e-05 2.0324825e-19)
(0.1841079 -1.4675689e-05 2.1453177e-19)
(0.27395916 -2.6714475e-05 6.2215915e-18)
(0.27396262 -6.7353542e-05 4.6397638e-18)
(0.27396843 -0.00010731104 3.7690595e-18)
(0.27397134 -0.00014959583 3.4995342e-18)
(0.27396016 -0.00019127671 1.5103369e-18)
(0.27391168 -0.00023244055 1.8817575e-18)
(0.2737786 -0.00027229533 2.0029406e-18)
(0.27346419 -0.00030955757 1.4179259e-18)
(0.27275806 -0.00034151677 1.2280503e-18)
(0.27114274 -0.00036240704 4.8134173e-19)
(0.26728512 -0.00035507155 6.2791387e-19)
(0.25867552 -0.00029252748 7.9294042e-19)
(0.24338933 -0.00017812521 6.5952534e-19)
(0.22081116 -8.0841193e-05 7.2118693e-19)
(0.18375901 -1.3538668e-05 3.6487757e-19)
(0.27459475 -2.648259e-05 9.478269e-19)
(0.2745978 -6.675326e-05 3.7951545e-18)
(0.27460249 -0.0001063455 2.8467412e-18)
(0.274603 -0.0001482278 1.8582542e-18)
(0.27458699 -0.00018947691 2.0222587e-18)
(0.27452902 -0.00023015345 1.4365794e-18)
(0.27437767 -0.00026941895 1.3075032e-18)
(0.27402763 -0.00030589064 6.4623452e-19)
(0.27324789 -0.00033664079 5.6974235e-19)
(0.27146593 -0.00035520381 3.835312e-19)
(0.26725094 -0.00034295249 3.9611542e-19)
(0.25816956 -0.0002752486 4.5326604e-19)
(0.24270004 -0.00016382254 3.9285449e-19)
(0.22027275 -7.317711e-05 3.2130275e-19)
(0.18344349 -1.2486089e-05 2.0671682e-19)
(0.27522481 -2.6263072e-05 2.9842652e-18)
(0.27522741 -6.6185368e-05 4.1953788e-18)
(0.27523087 -0.00010543114 2.9400673e-18)
(0.27522875 -0.00014693 2.0070311e-18)
(0.27520748 -0.00018776456 2.2650273e-18)
(0.2751393 -0.00022796774 1.7334862e-18)
(0.27496829 -0.00026665041 1.2656152e-18)
(0.27457978 -0.00030231921 5.7036066e-19)
(0.27371976 -0.0003318036 7.4654658e-19)
(0.27175586 -0.00034783257 4.8162211e-19)
(0.26716832 -0.00033048644 6.1094901e-19)
(0.25764777 -0.0002584306 3.8914102e-19)
(0.24204621 -0.0001507494 5.0460881e-19)
(0.21977469 -6.6478885e-05 2.4444381e-19)
(0.18315725 -1.1501422e-05 2.5800368e-19)
(0.27584964 -2.6054262e-05 2.7299631e-18)
(0.27585173 -6.5645512e-05 2.0773311e-18)
(0.27585383 -0.00010456099 1.192022e-18)
(0.27584885 -0.00014569263 2.0106804e-18)
(0.27582189 -0.00018612688 2.5191203e-18)
(0.2757427 -0.00022586725 1.4924588e-18)
(0.27555052 -0.00026396905 1.3010885e-18)
(0.27512041 -0.00029881616 9.2018932e-19)
(0.27417268 -0.00032696406 8.5144256e-19)
(0.27201082 -0.00034023145 9.570132e-19)
(0.26703956 -0.00031770398 4.8978148e-19)
(0.25711762 -0.00024217267 3.9247102e-19)
(0.24142819 -0.00013883591 5.5213829e-19)
(0.21931381 -6.0587305e-05 3.9218435e-19)
(0.18289682 -1.057747e-05 3.208493e-19)
(0.27646948 -2.585475e-05 2.9320648e-18)
(0.27647102 -6.5129982e-05 4.7594286e-18)
(0.27647162 -0.00010372909 4.0081883e-18)
(0.27646352 -0.00014450731 2.3262437e-18)
(0.2764304 -0.00018455289 1.4518212e-18)
(0.27633935 -0.00022383792 1.5166955e-18)
(0.27612438 -0.00026135649 1.2211289e-18)
(0.27564919 -0.00029535665 1.014262e-18)
(0.27460555 -0.00032208226 7.7276261e-19)
(0.27222923 -0.0003323472 8.0197439e-19)
(0.26686787 -0.00030465719 4.9533178e-19)
(0.25658579 -0.00022656126 4.4914104e-19)
(0.2408456 -0.00012799526 3.4610048e-19)
(0.21888719 -5.5367367e-05 3.8710519e-19)
(0.18265925 -9.7115804e-06 3.1330494e-19)
(0.27708455 -2.5663345e-05 5.7415384e-18)
(0.27708548 -6.4635632e-05 4.7922508e-18)
(0.27708444 -0.0001029304 5.0900688e-18)
(0.27707294 -0.00014336686 4.1429356e-18)
(0.27703318 -0.00018303314 1.8075775e-18)
(0.27692935 -0.00022186743 2.6830045e-18)
(0.2766898 -0.00025879623 1.998138e-18)
(0.27616569 -0.00029191777 1.5521818e-18)
(0.27501711 -0.00031711916 1.2628521e-18)
(0.27240981 -0.00032413774 4.5425188e-19)
(0.26665728 -0.00029141517 7.8564438e-19)
(0.256058 -0.00021166603 7.9127808e-19)
(0.24029748 -0.00011813047 7.602953e-19)
(0.21849214 -5.0707644e-05 7.1528922e-19)
(0.18244204 -8.9025339e-06 4.8591434e-19)
(0.27769504 -2.5479045e-05 1.5890621e-18)
(0.27769529 -6.4159808e-05 3.9264536e-18)
(0.27769247 -0.00010216065 2.3975185e-18)
(0.27767729 -0.00014226521 2.8879504e-18)
(0.27763035 -0.0001815595 2.9378672e-18)
(0.27751275 -0.00021994503 1.7606539e-18)
(0.27724666 -0.00025627339 1.2755642e-18)
(0.27666938 -0.00028847797 1.1617109e-18)
(0.275406 -0.00031203634 7.6665997e-19)
(0.27255164 -0.00031557421 4.0464287e-19)
(0.26641246 -0.00027805925 4.4827521e-19)
(0.25553894 -0.0001975371 4.5398614e-19)
(0.23978254 -0.00010914113 4.1468012e-19)
(0.21812621 -4.6517862e-05 4.2747823e-19)
(0.18224308 -8.148855e-06 3.2859404e-19)
(0.27830111 -2.5301006e-05 2.9850529e-18)
(0.27830062 -6.370027e-05 3.882027e-18)
(0.27829586 -0.0001014162 3.1218964e-18)
(0.27827669 -0.00014119716 2.3998283e-18)
(0.278222 -0.00018012494 2.459843e-18)
(0.27808956 -0.00021806116 1.7737255e-18)
(0.2777948 -0.00025377436 1.3428797e-18)
(0.27715962 -0.0002850166 1.1011352e-18)
(0.27577079 -0.00030679609 5.3002882e-19)
(0.27265429 -0.00030664249 4.0987074e-19)
(0.26613848 -0.00026467813 6.7642551e-19)
(0.2550323 -0.00018420368 4.3606084e-19)
(0.23929925 -0.00010092916 3.4948337e-19)
(0.21778713 -4.2725645e-05 4.4443023e-19)
(0.18206056 -7.4481432e-06 3.3231381e-19)
(0.27890291 -2.5128517e-05 1.8612674e-18)
(0.27890162 -6.3255129e-05 1.7160571e-18)
(0.27889474 -0.00010069401 1.3591552e-18)
(0.27887126 -0.00014015827 1.8995752e-18)
(0.27880821 -0.00017872332 2.055972e-18)
(0.27865976 -0.00021620724 1.7337067e-18)
(0.27833397 -0.00025128651 1.3011151e-18)
(0.27763569 -0.00028151345 9.356383e-19)
(0.27611001 -0.00030136189 5.7640486e-19)
(0.2727179 -0.00029734386 7.9359845e-19)
(0.26584062 -0.00025136317 5.0651983e-19)
(0.25454084 -0.00017167439 3.8081021e-19)
(0.23884602 -9.3403159e-05 4.1298804e-19)
(0.21747286 -3.9273088e-05 4.0636952e-19)
(0.18189296 -6.7970338e-06 3.4056818e-19)
(0.27950056 -2.4960973e-05 -2.4143896e-18)
(0.2794984 -6.2822776e-05 4.0511701e-18)
(0.27948922 -9.9991434e-05 1.7268926e-18)
(0.27946108 -0.00013914467 1.3180534e-18)
(0.279389 -0.00017734922 2.1872116e-18)
(0.27922329 -0.00021437542 8.7935874e-19)
(0.27886389 -0.00024879793 5.0175487e-19)
(0.27809674 -0.00027794829 4.2123692e-19)
(0.27642222 -0.00029569921 3.3581937e-19)
(0.27274323 -0.00028769474 7.9182736e-19)
(0.2655241 -0.00023820407 1.6957157e-19)
(0.25406651 -0.00015993912 -1.3761084e-20)
(0.23842119 -8.6481051e-05 4.5106405e-21)
(0.21718151 -3.6113612e-05 1.2884945e-19)
(0.18173897 -6.1914742e-06 1.3343019e-19)
(0.28009418 -2.4797858e-05 1.1149576e-18)
(0.28009107 -6.2401836e-05 2.8046727e-18)
(0.28007941 -9.9306216e-05 3.6281451e-18)
(0.28004623 -0.00013815299 1.9648091e-18)
(0.27996442 -0.00017599777 2.3006163e-18)
(0.27978006 -0.00021255838 1.2036364e-18)
(0.2793842 -0.00024629716 7.0085071e-19)
(0.27854186 -0.00027430051 4.4958062e-19)
(0.27670605 -0.00028977676 3.9332494e-19)
(0.27273166 -0.0002777256 7.226539e-19)
(0.26519392 -0.00022528491 2.8560251e-19)
(0.25361059 -0.00014897206 5.0318586e-22)
(0.23802316 -8.009123e-05 4.4141091e-20)
(0.21691137 -3.3209339e-05 1.2687283e-19)
(0.18159747 -5.6270991e-06 1.4975376e-19)
(0.28068388 -2.4638723e-05 2.2912894e-18)
(0.28067974 -6.1991117e-05 3.11672e-18)
(0.28066539 -9.8636373e-05 3.3410833e-18)
(0.28062676 -0.00013718023 1.8937424e-18)
(0.28053445 -0.00017466448 1.8073994e-18)
(0.28032993 -0.00021074911 9.0796875e-19)
(0.27989449 -0.00024377295 6.6045383e-19)
(0.27897002 -0.00027054891 5.071895e-19)
(0.27696025 -0.00028356786 4.4238718e-19)
(0.27268518 -0.00026747915 5.1663778e-19)
(0.26485469 -0.00021268092 1.7012142e-19)
(0.25317379 -0.00013873548 1.6772318e-19)
(0.23765034 -7.4172516e-05 2.9093031e-19)
(0.2166609 -3.052903e-05 4.3871651e-20)
(0.18146749 -5.0995663e-06 1.1169637e-19)
(0.28126974 -2.4483173e-05 5.1704844e-18)
(0.28126448 -6.1589568e-05 6.436085e-18)
(0.28124722 -9.7980138e-05 4.137953e-18)
(0.28120271 -0.00013622364 9.76609e-19)
(0.28109906 -0.00017334515 5.7655626e-19)
(0.28087275 -0.00020894083 -3.733033e-20)
(0.28039427 -0.00024121406 -1.4567041e-19)
(0.27938014 -0.00026667151 3.256766e-20)
(0.27718382 -0.00027705191 -3.5531093e-20)
(0.27260633 -0.00025700811 -4.2863684e-20)
(0.26451052 -0.00020045586 -1.7870475e-19)
(0.25275643 -0.00012918378 -1.158055e-19)
(0.23730122 -6.8673276e-05 -2.7081729e-20)
(0.21642866 -2.8046562e-05 -1.71184e-19)
(0.18134818 -4.6048152e-06 -6.1298613e-20)
(0.28185185 -2.4330857e-05 5.0208767e-18)
(0.28184539 -6.1196252e-05 5.2600281e-18)
(0.28182498 -9.733591e-05 3.3239111e-18)
(0.28177412 -0.00013528068 1.4056696e-18)
(0.28165822 -0.00017203574 6.9407662e-19)
(0.2814083 -0.00020712677 4.141541e-19)
(0.28088299 -0.00023860899 5.0356623e-20)
(0.27977106 -0.0002626457 -1.1040234e-19)
(0.27737601 -0.00027021574 1.4136465e-19)
(0.27249806 -0.00024637257 2.413038e-20)
(0.26416497 -0.00018866041 -1.2289206e-19)
(0.2523585 -0.00012026722 -1.6549856e-19)
(0.23697438 -6.355013e-05 -1.7831268e-19)
(0.21621337 -2.573982e-05 -5.5141645e-21)
(0.18123881 -4.1392075e-06 -3.8292562e-20)
(0.28243029 -2.418145e-05 1.5973938e-18)
(0.28242252 -6.081031e-05 5.1574866e-18)
(0.28239871 -9.6702201e-05 3.2973259e-18)
(0.28234099 -0.00013434892 2.5740283e-18)
(0.28221186 -0.00017073227 1.6139471e-18)
(0.28193636 -0.00020530013 1.1167798e-18)
(0.28136003 -0.00023594579 6.4089174e-19)
(0.2801416 -0.00025844846 3.5186574e-19)
(0.27753642 -0.00026305462 7.0778139e-19)
(0.27236366 -0.00023563726 8.9220783e-21)
(0.26382105 -0.00017733136 1.8589957e-19)
(0.25197976 -0.0001119352 1.1506339e-19)
(0.23666845 -5.8766496e-05 1.4631715e-19)
(0.21601387 -2.3589926e-05 2.5963497e-19)
(0.1811387 -3.6996024e-06 1.4372479e-19)
(0.28300512 -2.4034649e-05 1.5006789e-18)
(0.28299594 -6.043094e-05 2.8653319e-18)
(0.28296845 -9.6077599e-05 3.2297092e-18)
(0.28290332 -0.00013342602 2.2721018e-18)
(0.28275987 -0.00016943078 2.0720432e-18)
(0.28245663 -0.00020345398 1.0330948e-18)
(0.28182471 -0.00023321187 5.8256558e-19)
(0.28049056 -0.00025405691 5.0927437e-19)
(0.27766504 -0.00025557285 5.1922125e-19)
(0.27220658 -0.0002248688 4.0907887e-19)
(0.26348123 -0.00016649192 3.9882818e-20)
(0.25161982 -0.00010413864 8.7256595e-20)
(0.23638216 -5.4291238e-05 2.0082009e-19)
(0.21582908 -2.1580665e-05 1.4278794e-19)
(0.18104728 -3.2833461e-06 1.3125158e-19)
(0.2835764 -2.3890168e-05 2.3779598e-18)
(0.28356569 -6.005738e-05 2.7000234e-18)
(0.28353424 -9.546074e-05 3.0212492e-18)
(0.2834611 -0.00013250962 2.6815574e-18)
(0.28330215 -0.00016812719 1.9244507e-18)