/*--------------------------------*- C++ -*----------------------------------*\
| =========                 |                                                 |
| \\      /  F ield         | OpenFOAM: The Open Source CFD Toolbox           |
|  \\    /   O peration     | Version:  2506                                  |
|   \\  /    A nd           | Website:  www.openfoam.com                      |
|    \\/     M anipulation  |                                                 |
\*---------------------------------------------------------------------------*/
FoamFile
{
    version     2.0;
    format      ascii;
    arch        "LSB;label=32;scalar=64";
    class       volScalarField;
    location    "2000/water";
    object      T;
}
// * * * * * * * * * * * * * * * * * * * * * * * * * * * * * * * * * * * * * //

dimensions      [0 0 0 1 0 0 0];

internalField   nonuniform List<scalar> 
6000
(
333.15
333.15
333.15
333.15
333.15
333.15
333.15
333.15
333.15
333.15
333.15
333.14998
333.14989
333.14923
333.14246
333.15
333.15
333.15
333.15
333.15
333.15
333.15
333.15
333.15
333.15
333.14999
333.14994
333.14968
333.14813
333.13646
333.15
333.15
333.15
333.15
333.15
333.15
333.15
333.15
333.15
333.14999
333.14997
333.14986
333.14938
333.14684
333.13139
333.15
333.15
333.15
333.15
333.15
333.15
333.15
333.15
333.15
333.14999
333.14994
333.14976
333.14901
333.14539
333.12692
333.15
333.15
333.15
333.15
333.15
333.15
333.15
333.15
333.14999
333.14997
333.1499
333.14962
333.14858
333.14383
333.1229
333.15
333.15
333.15
333.15
333.15
333.15
333.15
333.15
333.14999
333.14996
333.14984
333.14946
333.14809
333.1422
333.11921
333.15
333.15
333.15
333.15
333.15
333.15
333.15
333.14999
333.14998
333.14993
333.14978
333.14928
333.14755
333.14051
333.11578
333.15
333.15
333.15
333.15
333.15
333.15
333.15
333.14999
333.14997
333.1499
333.1497
333.14907
333.14697
333.13878
333.11259
333.15
333.15
333.15
333.15
333.15
333.15
333.15
333.14999
333.14996
333.14987
333.14961
333.14884
333.14634
333.13702
333.10959
333.15
333.15
333.15
333.15
333.15
333.15
333.14999
333.14998
333.14994
333.14983
333.1495
333.14859
333.14567
333.13524
333.10676
333.15
333.15
333.15
333.15
333.15
333.15
333.14999
333.14997
333.14992
333.14978
333.14939
333.14832
333.14496
333.13345
333.10409
333.15
333.15
333.15
333.15
333.15
333.15
333.14999
333.14997
333.1499
333.14973
333.14927
333.14802
333.14421
333.13166
333.10157
333.15
333.15
333.15
333.15
333.15
333.14999
333.14998
333.14996
333.14988
333.14967
333.14913
333.14771
333.14341
333.12989
333.09919
333.15
333.15
333.15
333.15
333.15
333.14999
333.14998
333.14994
333.14985
333.1496
333.14899
333.14738
333.14257
333.12812
333.09695
333.15
333.15
333.15
333.15
333.15
333.14999
333.14997
333.14993
333.14981
333.14953
333.14883
333.14702
333.14168
333.12638
333.09484
333.15
333.15
333.15
333.15
333.15
333.14999
333.14997
333.14991
333.14978
333.14945
333.14866
333.14663
333.14074
333.12466
333.09286
333.15
333.15
333.15
333.15
333.14999
333.14998
333.14996
333.14989
333.14974
333.14936
333.14848
333.14622
333.13976
333.12298
333.09101
333.15
333.15
333.15
333.15
333.14999
333.14998
333.14995
333.14987
333.14969
333.14927
333.14829
333.14577
333.13872
333.12133
333.08928
333.15
333.15
333.15
333.15
333.14999
333.14998
333.14994
333.14985
333.14964
333.14917
333.14808
333.1453
333.13764
333.11973
333.08767
333.15
333.15
333.15
333.14999
333.14999
333.14997
333.14993
333.14983
333.14959
333.14907
333.14786
333.14478
333.13652
333.11818
333.08618
333.15
333.15
333.15
333.14999
333.14999
333.14996
333.14991
333.1498
333.14954
333.14896
333.14762
333.14423
333.13536
333.11668
333.0848
333.15
333.15
333.15
333.14999
333.14998
333.14996
333.1499
333.14977
333.14948
333.14883
333.14736
333.14363
333.13417
333.11524
333.08352
333.15
333.15
333.15
333.14999
333.14998
333.14995
333.14988
333.14973
333.14941
333.1487
333.14708
333.14299
333.13296
333.11386
333.08234
333.15
333.15
333.14999
333.14999
333.14998
333.14994
333.14987
333.1497
333.14934
333.14856
333.14678
333.1423
333.13173
333.11254
333.08124
333.15
333.15
333.14999
333.14999
333.14997
333.14993
333.14985
333.14966
333.14927
333.14841
333.14645
333.14157
333.1305
333.11128
333.08022
333.15
333.15
333.14999
333.14998
333.14997
333.14992
333.14983
333.14962
333.14919
333.14825
333.14609
333.14079
333.12927
333.11008
333.07928
333.15
333.15
333.14999
333.14998
333.14996
333.14991
333.1498
333.14958
333.1491
333.14808
333.1457
333.13997
333.12805
333.10893
333.0784
333.15
333.14999
333.14999
333.14998
333.14995
333.1499
333.14978
333.14953
333.14901
333.14789
333.14528
333.13911
333.12685
333.10784
333.07757
333.15
333.14999
333.14999
333.14998
333.14995
333.14988
333.14975
333.14948
333.14891
333.14768
333.14483
333.13822
333.12568
333.1068
333.0768
333.14999
333.14999
333.14999
333.14997
333.14994
333.14987
333.14972
333.14942
333.1488
333.14746
333.14434
333.1373
333.12453
333.1058
333.07606
333.14999
333.14999
333.14998
333.14997
333.14993
333.14985
333.14969
333.14936
333.14868
333.14721
333.14381
333.13636
333.12342
333.10485
333.07537
333.14999
333.14999
333.14998
333.14996
333.14992
333.14984
333.14966
333.1493
333.14856
333.14695
333.14324
333.13541
333.12234
333.10394
333.07471
333.14999
333.14999
333.14998
333.14996
333.14991
333.14982
333.14962
333.14923
333.14842
333.14666
333.14264
333.13444
333.1213
333.10307
333.07408
333.14999
333.14999
333.14998
333.14995
333.1499
333.1498
333.14959
333.14916
333.14827
333.14634
333.142
333.13348
333.12029
333.10224
333.07348
333.14999
333.14998
333.14997
333.14995
333.14989
333.14978
333.14954
333.14908
333.14811
333.146
333.14133
333.13252
333.11932
333.10144
333.0729
333.14999
333.14998
333.14997
333.14994
333.14988
333.14975
333.1495
333.14899
333.14794
333.14563
333.14063
333.13156
333.11838
333.10067
333.07234
333.14999
333.14998
333.14996
333.14993
333.14986
333.14973
333.14945
333.1489
333.14775
333.14523
333.1399
333.13062
333.11747
333.09992
333.0718
333.14998
333.14998
333.14996
333.14992
333.14985
333.1497
333.1494
333.1488
333.14754
333.1448
333.13916
333.1297
333.1166
333.09921
333.07127
333.14998
333.14997
333.14996
333.14992
333.14983
333.14967
333.14934
333.14869
333.14732
333.14434
333.13839
333.12879
333.11575
333.09851
333.07076
333.14998
333.14997
333.14995
333.14991
333.14982
333.14964
333.14928
333.14857
333.14707
333.14385
333.13762
333.1279
333.11493
333.09784
333.07027
333.14998
333.14997
333.14994
333.1499
333.1498
333.1496
333.14922
333.14844
333.1468
333.14333
333.13684
333.12703
333.11414
333.09719
333.06978
333.14997
333.14996
333.14994
333.14988
333.14978
333.14956
333.14915
333.1483
333.14652
333.14279
333.13605
333.12618
333.11337
333.09656
333.06931
333.14997
333.14996
333.14993
333.14987
333.14976
333.14952
333.14907
333.14815
333.1462
333.14222
333.13527
333.12535
333.11263
333.09595
333.06884
333.14997
333.14995
333.14992
333.14986
333.14973
333.14948
333.14899
333.14798
333.14587
333.14163
333.13448
333.12454
333.1119
333.09535
333.06839
333.14996
333.14995
333.14992
333.14985
333.14971
333.14943
333.14889
333.1478
333.14551
333.14102
333.1337
333.12375
333.1112
333.09477
333.06794
333.14996
333.14994
333.14991
333.14983
333.14968
333.14938
333.1488
333.1476
333.14512
333.14039
333.13293
333.12299
333.11052
333.09421
333.06751
333.14995
333.14994
333.1499
333.14981
333.14965
333.14933
333.14869
333.14739
333.14471
333.13975
333.13217
333.12224
333.10986
333.09366
333.06708
333.14995
333.14993
333.14989
333.1498
333.14962
333.14927
333.14857
333.14716
333.14428
333.1391
333.13142
333.1215
333.10921
333.09312
333.06665
333.14994
333.14992
333.14988
333.14978
333.14958
333.1492
333.14845
333.1469
333.14382
333.13844
333.13067
333.12079
333.10858
333.09259
333.06624
333.14994
333.14992
333.14986
333.14976
333.14954
333.14913
333.14831
333.14663
333.14334
333.13778
333.12994
333.12009
333.10797
333.09207
333.06583
333.14993
333.14991
333.14985
333.14973
333.1495
333.14905
333.14816
333.14634
333.14285
333.13711
333.12922
333.11941
333.10736
333.09157
333.06542
333.14992
333.1499
333.14984
333.14971
333.14946
333.14897
333.148
333.14603
333.14233
333.13644
333.12852
333.11874
333.10678
333.09107
333.06502
333.14991
333.14989
333.14982
333.14968
333.14941
333.14888
333.14782
333.1457
333.1418
333.13578
333.12782
333.11809
333.1062
333.09058
333.06463
333.14991
333.14988
333.1498
333.14965
333.14936
333.14878
333.14763
333.14534
333.14125
333.13511
333.12714
333.11746
333.10564
333.09011
333.06424
333.1499
333.14987
333.14979
333.14962
333.1493
333.14867
333.14742
333.14497
333.1407
333.13445
333.12647
333.11683
333.10509
333.08964
333.06385
333.14989
333.14985
333.14977
333.14959
333.14924
333.14856
333.1472
333.14458
333.14013
333.1338
333.12581
333.11622
333.10455
333.08917
333.06347
333.14988
333.14984
333.14975
333.14955
333.14917
333.14843
333.14696
333.14416
333.13956
333.13315
333.12516
333.11562
333.10402
333.08872
333.06309
333.14987
333.14983
333.14972
333.14951
333.1491
333.14829
333.1467
333.14373
333.13898
333.1325
333.12453
333.11504
333.1035
333.08827
333.06272
333.14985
333.14981
333.1497
333.14947
333.14902
333.14814
333.14642
333.14328
333.13839
333.13186
333.1239
333.11446
333.10299
333.08783
333.06235
333.14984
333.14979
333.14967
333.14942
333.14894
333.14798
333.14612
333.14282
333.13781
333.13123
333.12329
333.1139
333.10249
333.08739
333.06199
333.14982
333.14977
333.14964
333.14937
333.14884
333.1478
333.14581
333.14234
333.13722
333.13061
333.12269
333.11334
333.102
333.08697
333.06162
333.14981
333.14975
333.14961
333.14932
333.14874
333.14761
333.14548
333.14186
333.13663
333.13
333.12209
333.1128
333.10151
333.08654
333.06126
333.14979
333.14973
333.14957
333.14925
333.14863
333.14741
333.14513
333.14136
333.13604
333.12939
333.12151
333.11226
333.10104
333.08612
333.06091
333.14977
333.14971
333.14954
333.14919
333.14851
333.14719
333.14476
333.14085
333.13546
333.12879
333.12093
333.11174
333.10057
333.08571
333.06056
333.14975
333.14968
333.14949
333.14912
333.14838
333.14695
333.14437
333.14033
333.13487
333.12819
333.12037
333.11122
333.1001
333.0853
333.06021
333.14973
333.14965
333.14945
333.14904
333.14823
333.14669
333.14397
333.13981
333.13429
333.12761
333.11981
333.11071
333.09965
333.0849
333.05986
333.1497
333.14962
333.1494
333.14895
333.14808
333.14642
333.14356
333.13929
333.13372
333.12703
333.11927
333.1102
333.09919
333.0845
333.05952
333.14968
333.14959
333.14935
333.14886
333.14791
333.14614
333.14313
333.13876
333.13314
333.12646
333.11873
333.10971
333.09875
333.08411
333.05917
333.14965
333.14955
333.14929
333.14876
333.14773
333.14583
333.14269
333.13822
333.13257
333.1259
333.11819
333.10922
333.09831
333.08372
333.05883
333.14962
333.14951
333.14922
333.14865
333.14753
333.14551
333.14224
333.13769
333.13201
333.12534
333.11767
333.10874
333.09788
333.08333
333.0585
333.14958
333.14946
333.14915
333.14853
333.14732
333.14517
333.14178
333.13715
333.13145
333.12479
333.11715
333.10827
333.09745
333.08295
333.05816
333.14954
333.14941
333.14908
333.14839
333.1471
333.14482
333.14131
333.13662
333.13089
333.12425
333.11664
333.1078
333.09702
333.08257
333.05783
333.1495
333.14936
333.14899
333.14825
333.14686
333.14445
333.14084
333.13608
333.13034
333.12372
333.11614
333.10734
333.09661
333.0822
333.0575
333.14945
333.1493
333.1489
333.1481
333.1466
333.14407
333.14035
333.13554
333.1298
333.12319
333.11564
333.10688
333.09619
333.08182
333.05717
333.1494
333.14924
333.1488
333.14793
333.14632
333.14367
333.13987
333.13501
333.12926
333.12266
333.11515
333.10643
333.09578
333.08146
333.05684
333.14935
333.14917
333.14869
333.14775
333.14603
333.14327
333.13937
333.13448
333.12872
333.12215
333.11467
333.10598
333.09538
333.08109
333.05652
333.14929
333.14909
333.14857
333.14755
333.14573
333.14285
333.13888
333.13395
333.12819
333.12164
333.11419
333.10554
333.09498
333.08073
333.05619
333.14922
333.149
333.14844
333.14734
333.14541
333.14242
333.13838
333.13342
333.12766
333.12113
333.11372
333.1051
333.09458
333.08037
333.05587
333.14915
333.14891
333.1483
333.14712
333.14507
333.14198
333.13788
333.13289
333.12714
333.12063
333.11325
333.10467
333.09418
333.08001
333.05555
333.14907
333.14881
333.14815
333.14688
333.14472
333.14154
333.13737
333.13237
333.12663
333.12014
333.11279
333.10425
333.09379
333.07966
333.05523
333.14898
333.1487
333.14798
333.14662
333.14436
333.14108
333.13687
333.13185
333.12611
333.11965
333.11233
333.10382
333.09341
333.0793
333.05491
333.14888
333.14858
333.1478
333.14635
333.14398
333.14062
333.13636
333.13133
333.12561
333.11917
333.11188
333.1034
333.09302
333.07895
333.0546
333.14877
333.14844
333.1476
333.14606
333.14359
333.14015
333.13586
333.13082
333.1251
333.11869
333.11143
333.10299
333.09264
333.07861
333.05428
333.14865
333.1483
333.14739
333.14575
333.14319
333.13968
333.13535
333.13031
333.1246
333.11821
333.11098
333.10258
333.09227
333.07826
333.05397
333.14852
333.14814
333.14717
333.14543
333.14277
333.13921
333.13485
333.1298
333.12411
333.11774
333.11054
333.10217
333.09189
333.07792
333.05366
333.14838
333.14796
333.14692
333.14509
333.14235
333.13873
333.13434
333.12929
333.12362
333.11728
333.11011
333.10177
333.09152
333.07757
333.05334
333.14822
333.14777
333.14666
333.14474
333.14192
333.13824
333.13384
333.12879
333.12313
333.11682
333.10968
333.10137
333.09115
333.07723
333.05303
333.14805
333.14756
333.14638
333.14438
333.14148
333.13776
333.13333
333.12829
333.12265
333.11636
333.10925
333.10097
333.09079
333.0769
333.05272
333.14786
333.14734
333.14609
333.144
333.14103
333.13727
333.13283
333.12779
333.12217
333.11591
333.10883
333.10058
333.09042
333.07656
333.05241
333.14765
333.1471
333.14578
333.1436
333.14057
333.13678
333.13233
333.1273
333.1217
333.11546
333.10841
333.10019
333.09006
333.07622
333.05211
333.14743
333.14683
333.14545
333.1432
333.14011
333.13629
333.13183
333.12681
333.12123
333.11501
333.10799
333.0998
333.0897
333.07589
333.0518
333.14718
333.14655
333.1451
333.14278
333.13964
333.13579
333.13133
333.12632
333.12076
333.11457
333.10758
333.09942
333.08934
333.07556
333.05149
333.14691
333.14625
333.14473
333.14235
333.13917
333.1353
333.13084
333.12584
333.1203
333.11414
333.10717
333.09903
333.08899
333.07523
333.05119
333.14662
333.14593
333.14435
333.14191
333.13869
333.1348
333.13034
333.12536
333.11984
333.1137
333.10676
333.09866
333.08863
333.0749
333.05088
333.14631
333.14558
333.14395
333.14146
333.1382
333.1343
333.12985
333.12488
333.11938
333.11327
333.10636
333.09828
333.08828
333.07457
333.05058
333.14597
333.14522
333.14354
333.141
333.13771
333.13381
333.12936
333.12441
333.11893
333.11284
333.10596
333.0979
333.08793
333.07424
333.05027
333.14561
333.14483
333.14311
333.14053
333.13722
333.13331
333.12887
333.12393
333.11848
333.11242
333.10556
333.09753
333.08758
333.07392
333.04997
333.14523
333.14443
333.14266
333.14005
333.13673
333.13281
333.12838
333.12346
333.11803
333.11199
333.10516
333.09716
333.08724
333.07359
333.04967
333.14482
333.144
333.1422
333.13956
333.13623
333.13231
333.12789
333.123
333.11759
333.11157
333.10477
333.09679
333.08689
333.07327
333.04936
333.14439
333.14355
333.14173
333.13907
333.13572
333.13181
333.12741
333.12253
333.11715
333.11116
333.10437
333.09642
333.08655
333.07295
333.04906
333.14394
333.14309
333.14124
333.13857
333.13522
333.13131
333.12693
333.12207
333.11671
333.11074
333.10398
333.09606
333.0862
333.07263
333.04876
333.14347
333.1426
333.14074
333.13806
333.13471
333.13082
333.12644
333.12161
333.11627
333.11033
333.1036
333.09569
333.08586
333.0723
333.04846
333.14297
333.1421
333.14023
333.13754
333.1342
333.13032
333.12596
333.12115
333.11583
333.10992
333.10321
333.09533
333.08552
333.07198
333.04816
333.14246
333.14158
333.13971
333.13702
333.13369
333.12982
333.12548
333.12069
333.1154
333.10951
333.10283
333.09497
333.08518
333.07166
333.04786
333.14192
333.14104
333.13917
333.13649
333.13317
333.12932
333.12501
333.12024
333.11497
333.10911
333.10244
333.09461
333.08484
333.07134
333.04755
333.14137
333.1405
333.13863
333.13596
333.13265
333.12882
333.12453
333.11978
333.11454
333.1087
333.10206
333.09425
333.0845
333.07103
333.04725
333.14081
333.13993
333.13808
333.13542
333.13213
333.12832
333.12405
333.11933
333.11411
333.1083
333.10168
333.09389
333.08417
333.07071
333.04695
333.14023
333.13936
333.13752
333.13488
333.13161
333.12782
333.12358
333.11888
333.11369
333.1079
333.10131
333.09354
333.08383
333.07039
333.04665
333.13964
333.13878
333.13695
333.13433
333.13109
333.12732
333.1231
333.11843
333.11326
333.1075
333.10093
333.09318
333.0835
333.07007
333.04635
333.13903
333.13818
333.13637
333.13378
333.13056
333.12682
333.12263
333.11798
333.11284
333.1071
333.10055
333.09283
333.08316
333.06975
333.04605
333.13842
333.13758
333.13579
333.13323
333.13003
333.12632
333.12216
333.11754
333.11242
333.1067
333.10018
333.09247
333.08283
333.06944
333.04575
333.1378
333.13697
333.13521
333.13267
333.1295
333.12582
333.12168
333.11709
333.112
333.10631
333.09981
333.09212
333.08249
333.06912
333.04545
333.13717
333.13636
333.13461
333.13211
333.12897
333.12532
333.12121
333.11665
333.11158
333.10591
333.09943
333.09177
333.08216
333.0688
333.04515
333.13654
333.13574
333.13402
333.13154
333.12844
333.12482
333.12074
333.1162
333.11116
333.10552
333.09906
333.09142
333.08183
333.06848
333.04484
333.1359
333.13511
333.13342
333.13097
333.12791
333.12432
333.12027
333.11576
333.11075
333.10512
333.09869
333.09107
333.08149
333.06817
333.04454
333.13526
333.13448
333.13282
333.1304
333.12737
333.12382
333.1198
333.11532
333.11033
333.10473
333.09832
333.09072
333.08116
333.06785
333.04424
333.13461
333.13385
333.13221
333.12983
333.12684
333.12332
333.11933
333.11487
333.10991
333.10434
333.09795
333.09037
333.08083
333.06753
333.04393
333.13397
333.13322
333.13161
333.12926
333.1263
333.12281
333.11886
333.11443
333.1095
333.10395
333.09758
333.09002
333.08049
333.06721
333.04363
333.13332
333.13258
333.131
333.12869
333.12576
333.12231
333.11838
333.11399
333.10908
333.10356
333.09721
333.08967
333.08016
333.06689
333.04332
333.13267
333.13195
333.13039
333.12811
333.12523
333.12181
333.11791
333.11355
333.10867
333.10317
333.09684
333.08932
333.07983
333.06657
333.04302
333.13202
333.13131
333.12978
333.12754
333.12469
333.12131
333.11744
333.11311
333.10825
333.10278
333.09647
333.08897
333.07949
333.06625
333.04271
333.13137
333.13068
333.12917
333.12696
333.12415
333.1208
333.11697
333.11267
333.10784
333.10238
333.0961
333.08861
333.07916
333.06593
333.0424
333.13073
333.13004
333.12856
333.12639
333.12361
333.1203
333.1165
333.11223
333.10742
333.10199
333.09573
333.08826
333.07883
333.06561
333.04209
333.13008
333.12941
333.12796
333.12582
333.12307
333.1198
333.11603
333.11179
333.10701
333.1016
333.09536
333.08791
333.07849
333.06529
333.04178
333.12944
333.12878
333.12735
333.12524
333.12253
333.11929
333.11556
333.11134
333.1066
333.10121
333.095
333.08756
333.07815
333.06497
333.04147
333.1288
333.12815
333.12675
333.12467
333.122
333.11879
333.11509
333.1109
333.10618
333.10082
333.09463
333.08721
333.07782
333.06464
333.04115
333.12816
333.12753
333.12614
333.1241
333.12146
333.11829
333.11462
333.11046
333.10577
333.10043
333.09426
333.08686
333.07748
333.06432
333.04084
333.12753
333.1269
333.12554
333.12353
333.12093
333.11779
333.11415
333.11002
333.10536
333.10004
333.09389
333.08651
333.07714
333.06399
333.04052
333.1269
333.12628
333.12495
333.12296
333.12039
333.11729
333.11369
333.10958
333.10494
333.09965
333.09351
333.08615
333.0768
333.06366
333.04021
333.12627
333.12567
333.12435
333.1224
333.11986
333.11679
333.11322
333.10915
333.10453
333.09926
333.09314
333.0858
333.07646
333.06333
333.03989
333.12564
333.12505
333.12376
333.12183
333.11933
333.11629
333.11275
333.10871
333.10411
333.09887
333.09277
333.08544
333.07612
333.063
333.03956
333.12502
333.12444
333.12317
333.12127
333.1188
333.11579
333.11228
333.10827
333.1037
333.09848
333.0924
333.08509
333.07578
333.06267
333.03924
333.12441
333.12383
333.12258
333.12071
333.11827
333.11529
333.11181
333.10783
333.10329
333.09809
333.09203
333.08473
333.07544
333.06234
333.03891
333.1238
333.12323
333.122
333.12015
333.11774
333.1148
333.11135
333.10739
333.10287
333.09769
333.09165
333.08437
333.07509
333.062
333.03859
333.12319
333.12263
333.12142
333.1196
333.11721
333.1143
333.11088
333.10695
333.10246
333.0973
333.09128
333.08401
333.07474
333.06167
333.03826
333.12258
333.12204
333.12084
333.11905
333.11669
333.11381
333.11042
333.10651
333.10204
333.09691
333.0909
333.08365
333.0744
333.06133
333.03793
333.12199
333.12145
333.12027
333.1185
333.11617
333.11331
333.10995
333.10607
333.10163
333.09651
333.09053
333.08329
333.07405
333.06099
333.03759
333.12139
333.12086
333.1197
333.11795
333.11565
333.11282
333.10949
333.10563
333.10121
333.09612
333.09015
333.08293
333.0737
333.06065
333.03726
333.1208
333.12028
333.11913
333.11741
333.11513
333.11233
333.10903
333.1052
333.1008
333.09573
333.08978
333.08257
333.07335
333.0603
333.03692
333.12021
333.1197
333.11857
333.11686
333.11462
333.11184
333.10856
333.10476
333.10038
333.09533
333.0894
333.08221
333.07299
333.05996
333.03658
333.11963
333.11912
333.11801
333.11633
333.1141
333.11136
333.1081
333.10432
333.09997
333.09494
333.08902
333.08184
333.07264
333.05961
333.03624
333.11905
333.11855
333.11745
333.11579
333.11359
333.11087
333.10764
333.10389
333.09956
333.09454
333.08864
333.08147
333.07228
333.05926
333.03589
333.11848
333.11799
333.1169
333.11526
333.11308
333.11039
333.10718
333.10345
333.09914
333.09414
333.08826
333.08111
333.07193
333.05891
333.03554
333.11791
333.11742
333.11635
333.11473
333.11258
333.10991
333.10672
333.10302
333.09873
333.09375
333.08788
333.08074
333.07157
333.05855
333.03519
333.11735
333.11687
333.11581
333.1142
333.11207
333.10942
333.10627
333.10258
333.09831
333.09335
333.0875
333.08037
333.0712
333.0582
333.03484
333.11679
333.11631
333.11527
333.11368
333.11157
333.10895
333.10581
333.10215
333.0979
333.09295
333.08711
333.08
333.07084
333.05784
333.03449
333.11623
333.11576
333.11473
333.11316
333.11107
333.10847
333.10536
333.10171
333.09748
333.09255
333.08673
333.07962
333.07048
333.05748
333.03413
333.11568
333.11522
333.11419
333.11264
333.11057
333.10799
333.1049
333.10128
333.09707
333.09216
333.08634
333.07925
333.07011
333.05712
333.03377
333.11513
333.11468
333.11366
333.11213
333.11008
333.10752
333.10445
333.10084
333.09665
333.09176
333.08596
333.07888
333.06974
333.05676
333.03341
333.11459
333.11414
333.11314
333.11162
333.10958
333.10705
333.104
333.10041
333.09624
333.09136
333.08557
333.0785
333.06938
333.05639
333.03305
333.11405
333.1136
333.11261
333.11111
333.10909
333.10657
333.10355
333.09998
333.09582
333.09096
333.08519
333.07812
333.06901
333.05603
333.03268
333.11352
333.11307
333.11209
333.1106
333.10861
333.10611
333.1031
333.09955
333.09541
333.09056
333.0848
333.07774
333.06863
333.05566
333.03231
333.11299
333.11255
333.11158
333.1101
333.10812
333.10564
333.10265
333.09912
333.09499
333.09016
333.08441
333.07736
333.06826
333.05529
333.03194
333.11246
333.11203
333.11106
333.1096
333.10764
333.10517
333.1022
333.09869
333.09458
333.08976
333.08402
333.07698
333.06788
333.05491
333.03157
333.11194
333.11151
333.11055
333.1091
333.10716
333.10471
333.10175
333.09826
333.09416
333.08936
333.08363
333.0766
333.06751
333.05454
333.0312
333.11142
333.11099
333.11005
333.10861
333.10668
333.10425
333.10131
333.09783
333.09375
333.08896
333.08324
333.07622
333.06713
333.05416
333.03082
333.1109
333.11048
333.10955
333.10812
333.1062
333.10379
333.10086
333.0974
333.09334
333.08855
333.08285
333.07583
333.06675
333.05379
333.03044
333.11039
333.10997
333.10905
333.10763
333.10573
333.10333
333.10042
333.09697
333.09292
333.08815
333.08245
333.07545
333.06637
333.05341
333.03006
333.10988
333.10947
333.10855
333.10715
333.10525
333.10287
333.09998
333.09655
333.09251
333.08775
333.08206
333.07506
333.06598
333.05302
333.02968
333.10938
333.10897
333.10805
333.10666
333.10478
333.10242
333.09954
333.09612
333.09209
333.08734
333.08166
333.07467
333.0656
333.05264
333.02929
333.10888
333.10847
333.10756
333.10618
333.10432
333.10196
333.0991
333.09569
333.09168
333.08694
333.08127
333.07428
333.06521
333.05225
333.0289
333.10838
333.10797
333.10708
333.1057
333.10385
333.10151
333.09866
333.09527
333.09127
333.08654
333.08087
333.07389
333.06482
333.05187
333.02852
333.10788
333.10748
333.10659
333.10523
333.10339
333.10106
333.09822
333.09484
333.09085
333.08613
333.08048
333.0735
333.06444
333.05148
333.02812
333.10739
333.10699
333.10611
333.10476
333.10293
333.10061
333.09779
333.09442
333.09044
333.08573
333.08008
333.07311
333.06405
333.05109
333.02773
333.1069
333.10651
333.10563
333.10429
333.10247
333.10016
333.09735
333.09399
333.09002
333.08532
333.07968
333.07271
333.06365
333.0507
333.02734
333.10642
333.10603
333.10515
333.10382
333.10201
333.09972
333.09692
333.09357
333.08961
333.08492
333.07928
333.07232
333.06326
333.0503
333.02694
333.10594
333.10555
333.10468
333.10335
333.10155
333.09927
333.09648
333.09315
333.0892
333.08451
333.07888
333.07192
333.06287
333.04991
333.02655
333.10546
333.10507
333.10421
333.10289
333.1011
333.09883
333.09605
333.09272
333.08878
333.08411
333.07848
333.07153
333.06247
333.04951
333.02615
333.10498
333.1046
333.10374
333.10243
333.10065
333.09839
333.09562
333.0923
333.08837
333.0837
333.07808
333.07113
333.06207
333.04911
333.02575
333.10451
333.10412
333.10327
333.10197
333.1002
333.09794
333.09519
333.09188
333.08796
333.08329
333.07768
333.07073
333.06168
333.04872
333.02534
333.10404
333.10365
333.10281
333.10151
333.09975
333.09751
333.09476
333.09146
333.08754
333.08289
333.07728
333.07033
333.06128
333.04831
333.02494
333.10357
333.10319
333.10235
333.10106
333.0993
333.09707
333.09433
333.09104
333.08713
333.08248
333.07687
333.06993
333.06088
333.04791
333.02454
333.1031
333.10272
333.10189
333.1006
333.09886
333.09663
333.0939
333.09062
333.08672
333.08207
333.07647
333.06953
333.06047
333.04751
333.02413
333.10264
333.10226
333.10143
333.10015
333.09841
333.09619
333.09347
333.0902
333.0863
333.08166
333.07606
333.06912
333.06007
333.04711
333.02372
333.10218
333.1018
333.10098
333.0997
333.09797
333.09576
333.09304
333.08978
333.08589
333.08126
333.07566
333.06872
333.05967
333.0467
333.02331
333.10172
333.10135
333.10052
333.09925
333.09753
333.09533
333.09262
333.08936
333.08548
333.08085
333.07525
333.06832
333.05926
333.04629
333.02291
333.10126
333.10089
333.10007
333.09881
333.09709
333.09489
333.09219
333.08894
333.08506
333.08044
333.07485
333.06791
333.05886
333.04589
333.02249
333.10081
333.10044
333.09962
333.09836
333.09665
333.09446
333.09177
333.08852
333.08465
333.08003
333.07444
333.0675
333.05845
333.04548
333.02208
333.10036
333.09999
333.09918
333.09792
333.09621
333.09403
333.09134
333.0881
333.08424
333.07962
333.07403
333.0671
333.05804
333.04507
333.02167
333.09991
333.09954
333.09873
333.09748
333.09578
333.0936
333.09092
333.08769
333.08382
333.07921
333.07362
333.06669
333.05764
333.04466
333.02126
333.09946
333.09909
333.09829
333.09704
333.09535
333.09317
333.0905
333.08727
333.08341
333.0788
333.07322
333.06628
333.05723
333.04425
333.02084
333.09901
333.09865
333.09785
333.0966
333.09491
333.09275
333.09008
333.08685
333.083
333.07839
333.07281
333.06587
333.05682
333.04384
333.02043
333.09857
333.09821
333.0974
333.09617
333.09448
333.09232
333.08965
333.08643
333.08258
333.07798
333.0724
333.06546
333.05641
333.04342
333.02001
333.09813
333.09777
333.09697
333.09573
333.09405
333.09189
333.08923
333.08602
333.08217
333.07756
333.07199
333.06505
333.05599
333.04301
333.01959
333.09768
333.09733
333.09653
333.0953
333.09362
333.09147
333.08881
333.0856
333.08176
333.07715
333.07158
333.06464
333.05558
333.04259
333.01917
333.09725
333.09689
333.09609
333.09487
333.09319
333.09105
333.08839
333.08518
333.08134
333.07674
333.07116
333.06423
333.05517
333.04218
333.01875
333.09681
333.09645
333.09566
333.09444
333.09277
333.09062
333.08797
333.08477
333.08093
333.07633
333.07075
333.06382
333.05475
333.04176
333.01834
333.09637
333.09602
333.09523
333.09401
333.09234
333.0902
333.08755
333.08435
333.08051
333.07592
333.07034
333.0634
333.05434
333.04135
333.01791
333.09594
333.09558
333.0948
333.09358
333.09191
333.08978
333.08713
333.08394
333.0801
333.0755
333.06993
333.06299
333.05392
333.04093
333.01749
333.0955
333.09515
333.09436
333.09315
333.09149
333.08936
333.08672
333.08352
333.07969
333.07509
333.06952
333.06258
333.05351
333.04051
333.01707
333.09507
333.09472
333.09394
333.09272
333.09107
333.08894
333.0863
333.0831
333.07927
333.07468
333.0691
333.06216
333.05309
333.04009
333.01665
333.09464
333.09429
333.09351
333.0923
333.09064
333.08851
333.08588
333.08269
333.07886
333.07426
333.06869
333.06175
333.05268
333.03967
333.01623
333.09421
333.09386
333.09308
333.09187
333.09022
333.0881
333.08546
333.08227
333.07844
333.07385
333.06827
333.06133
333.05226
333.03925
333.0158
333.09379
333.09344
333.09266
333.09145
333.0898
333.08768
333.08505
333.08186
333.07803
333.07343
333.06786
333.06092
333.05184
333.03883
333.01538
333.09336
333.09301
333.09223
333.09103
333.08938
333.08726
333.08463
333.08144
333.07761
333.07302
333.06744
333.0605
333.05142
333.03841
333.01496
333.09293
333.09259
333.09181
333.0906
333.08896
333.08684
333.08421
333.08103
333.0772
333.07261
333.06703
333.06008
333.051
333.03799
333.01453
333.09251
333.09216
333.09138
333.09018
333.08854
333.08642
333.0838
333.08061
333.07679
333.07219
333.06661
333.05967
333.05058
333.03757
333.01411
333.09209
333.09174
333.09096
333.08976
333.08812
333.086
333.08338
333.0802
333.07637
333.07178
333.0662
333.05925
333.05017
333.03715
333.01368
333.09166
333.09132
333.09054
333.08934
333.0877
333.08559
333.08296
333.07978
333.07596
333.07136
333.06578
333.05883
333.04975
333.03672
333.01326