/*--------------------------------*- C++ -*----------------------------------*\
| =========                 |                                                 |
| \\      /  F ield         | OpenFOAM: The Open Source CFD Toolbox           |
|  \\    /   O peration     | Version:  2506                                  |
|   \\  /    A nd           | Website:  www.openfoam.com                      |
|    \\/     M anipulation  |                                                 |
\*---------------------------------------------------------------------------*/
FoamFile
{
    version     2.0;
    format      ascii;
    arch        "LSB;label=32;scalar=64";
    class       volVectorField;
    location    "2000/water";
    object      U;
}
// * * * * * * * * * * * * * * * * * * * * * * * * * * * * * * * * * * * * * //

dimensions      [0 1 -1 0 0 0 0];

internalField   nonuniform List<vector> 
6000
(
(0.25028648 -3.4193492e-05 -8.3147497e-19)
(0.25028875 -7.4648811e-05 -3.4087081e-18)
(0.25029344 -0.00011804414 -2.1198696e-19)
(0.25030059 -0.00016540046 9.8292346e-19)
(0.25031046 -0.00021487336 5.644225e-19)
(0.25032332 -0.00026685039 -4.4481314e-20)
(0.25033948 -0.00032192175 -2.8432178e-19)
(0.25035939 -0.00038078672 -2.7945349e-19)
(0.25038356 -0.00044434477 3.0366454e-20)
(0.25041254 -0.00051362452 4.0683187e-20)
(0.25044587 -0.00058677559 -9.4215517e-20)
(0.25047643 -0.00065822056 1.8301643e-19)
(0.25046276 -0.00078466513 -2.1685813e-19)
(0.25013031 -0.0015987837 -3.5782483e-20)
(0.24584996 0.0019968142 -6.8253663e-20)
(0.25104035 -3.7261303e-05 1.1921865e-18)
(0.25104514 -8.9895978e-05 -9.2660524e-19)
(0.2510558 -0.00014352114 -4.5101483e-20)
(0.25107219 -0.00020025424 1.4661889e-18)
(0.2510947 -0.0002571822 1.682719e-18)
(0.25112368 -0.00031440571 -2.698906e-19)
(0.25115965 -0.00037188242 -2.430129e-19)
(0.25120324 -0.00042947839 -1.4890725e-19)
(0.2512551 -0.00048709454 -1.9215566e-20)
(0.25131538 -0.00054561245 -6.5958291e-20)
(0.25138039 -0.00060405492 -1.0881396e-19)
(0.25142587 -0.00063755821 1.6723486e-20)
(0.25133175 -0.00059164843 -2.5568231e-19)
(0.25037931 -0.0014370973 -3.9349593e-20)
(0.24194277 0.00099520264 -1.16973e-19)
(0.25195051 -3.6589028e-05 -1.4184524e-18)
(0.25195563 -9.0250612e-05 4.2131347e-18)
(0.25196731 -0.00014313025 1.4451731e-18)
(0.25198528 -0.00019912655 1.6982036e-19)
(0.25200977 -0.00025508716 9.0914996e-19)
(0.25204101 -0.0003112558 -8.5958354e-19)
(0.25207932 -0.00036762123 -5.0638268e-19)
(0.25212505 -0.00042413945 -6.215273e-19)
(0.25217823 -0.00048056786 -6.5166318e-19)
(0.25223708 -0.0005377572 -3.1768495e-19)
(0.25229114 -0.00060007155 -2.6695135e-19)
(0.25229033 -0.00065419842 -4.7134697e-19)
(0.25200573 -0.00054460881 -3.213215e-19)
(0.25014357 -0.0012195308 -2.3899879e-19)
(0.23758495 0.00043820543 -3.4123599e-19)
(0.25283353 -3.7446603e-05 1.5007242e-18)
(0.25283867 -9.3611087e-05 6.1915542e-19)
(0.25285018 -0.00014906892 1.6401441e-18)
(0.25286783 -0.00020791578 3.3592919e-19)
(0.25289182 -0.00026672308 7.3404044e-19)
(0.25292238 -0.00032582165 -3.0475148e-19)
(0.25295982 -0.00038519269 -4.968903e-19)
(0.25300432 -0.00044485276 -6.6505916e-19)
(0.25305525 -0.00050441426 -5.1454348e-19)
(0.25310809 -0.00056332944 3.0684034e-19)
(0.25314261 -0.00062607506 -6.244538e-20)
(0.25307635 -0.00069910336 -2.4035603e-19)
(0.25255493 -0.0005845712 -4.1705019e-19)
(0.24963188 -0.001063787 -2.0072636e-19)
(0.23320285 0.0001058672 -3.2597669e-19)
(0.25372643 -3.8342943e-05 1.0309779e-17)
(0.2537317 -9.636869e-05 2.4114924e-18)
(0.25374347 -0.00015372841 2.1781208e-18)
(0.25376156 -0.00021453144 1.2279497e-18)
(0.25378616 -0.00027516439 7.9424499e-19)
(0.25381749 -0.00033599427 6.9071482e-19)
(0.25385581 -0.00039694563 -1.6632336e-20)
(0.25390101 -0.00045805575 1.8175569e-19)
(0.25395133 -0.00051907431 2.5801657e-19)
(0.25399821 -0.00057855465 4.2180302e-19)
(0.25400834 -0.00063773998 1.1894531e-19)
(0.25386022 -0.0007177221 -6.5246306e-20)
(0.25305737 -0.00062191547 -8.6439817e-20)
(0.24895451 -0.00093835859 -3.4490117e-21)
(0.22897365 -8.3792337e-05 -6.187334e-20)
(0.25464474 -3.8661619e-05 8.1518815e-19)
(0.25465014 -9.7320118e-05 2.5032466e-20)
(0.2546622 -0.00015516461 1.0117571e-18)
(0.25468073 -0.00021648308 5.0952172e-19)
(0.2547059 -0.00027758564 -5.6153132e-19)
(0.25473792 -0.000338881 5.0976036e-19)
(0.25477689 -0.00040025681 -4.5973573e-20)
(0.25482222 -0.00046172799 2.2166642e-19)
(0.25487049 -0.00052322807 2.1952922e-19)
(0.2549078 -0.000583188 2.0528206e-19)
(0.25488519 -0.00063896641 1.540989e-19)
(0.25463685 -0.00071821651 -9.486789e-20)
(0.25350729 -0.0006469875 5.5573204e-20)
(0.248129 -0.00083894719 -6.1725474e-20)
(0.2249409 -0.00018589273 -1.6623691e-20)
(0.25557031 -3.8595292e-05 -1.5830273e-18)
(0.25557581 -9.7309345e-05 -2.396206e-18)
(0.25558805 -0.00015511982 -6.333467e-19)
(0.25560682 -0.00021642526 2.700441e-19)
(0.2556323 -0.00027749359 -1.0410309e-18)
(0.25566463 -0.00033876345 -4.7116172e-20)
(0.25570371 -0.00040009734 3.1011543e-19)
(0.25574825 -0.00046144626 2.57878e-19)
(0.25579256 -0.00052279714 7.5311524e-20)
(0.25581623 -0.0005828814 1.9685933e-19)
(0.25575267 -0.00063600478 1.8627687e-19)
(0.25538743 -0.00071016267 6.2261962e-20)
(0.25388915 -0.00066107344 -9.5881383e-20)
(0.24716598 -0.00076077854 -8.5704667e-20)
(0.22112141 -0.00023459296 -1.2301412e-19)
(0.25649134 -3.8297106e-05 2.7679098e-18)
(0.25649692 -9.6712127e-05 3.1918467e-18)
(0.25650928 -0.00015419069 2.1229863e-18)
(0.25652824 -0.00021515485 6.6327656e-19)
(0.25655393 -0.00027585718 -5.8503964e-19)
(0.25658641 -0.0003367553 -9.1589357e-20)
(0.25662528 -0.00039769653 5.6321876e-19)
(0.2566683 -0.0004585644 1.8880871e-19)
(0.25670691 -0.00051927104 -7.3691246e-20)
(0.25671305 -0.00057893859 -4.0519614e-19)
(0.25660095 -0.00063003278 7.7386798e-20)
(0.25610359 -0.00069722485 1.6996171e-19)
(0.25419746 -0.00066519719 -1.7882439e-19)
(0.24608527 -0.00069788903 -4.4884434e-20)
(0.21752738 -0.00025081847 -1.0070274e-19)
(0.25740382 -3.7852859e-05 -2.6957484e-18)
(0.25740947 -9.5689492e-05 -4.1980055e-20)
(0.25742193 -0.00015257331 5.8235447e-19)
(0.25744104 -0.00021291358 3.7376824e-19)
(0.25746687 -0.00027297291 2.0340421e-19)
(0.25749936 -0.0003332193 1.7406786e-19)
(0.2575377 -0.00039348924 3.139093e-19)
(0.2575784 -0.00045361301 -5.7022127e-20)
(0.25760945 -0.00051335259 1.4260586e-19)
(0.25759421 -0.00057212213 3.0194264e-20)
(0.25742635 -0.00062159363 1.0557048e-19)
(0.25678237 -0.00068144217 1.8516384e-19)
(0.25443121 -0.00066103685 -4.7243641e-20)
(0.24490935 -0.00064561644 -5.6964915e-20)
(0.21416513 -0.00024776584 -7.382446e-20)
(0.25830515 -3.7308637e-05 2.1638597e-18)
(0.25831084 -9.4372767e-05 -1.1808327e-18)
(0.25832339 -0.00015047648 -1.6844589e-18)
(0.2583426 -0.00020999612 3.600072e-19)
(0.25836849 -0.00026922145 -3.779014e-19)
(0.25840083 -0.00032862339 2.4429584e-19)
(0.25843826 -0.00038802594 3.7117943e-19)
(0.25847573 -0.00044722017 3.1099977e-19)
(0.25849727 -0.00050579278 3.7978445e-19)
(0.25845683 -0.00056328987 3.8171154e-19)
(0.25822634 -0.00061131675 6.4067998e-20)
(0.25742154 -0.00066417742 1.1330582e-19)
(0.2545896 -0.00065044234 6.1990361e-20)
(0.24365871 -0.00060064453 -1.2109415e-19)
(0.21103455 -0.00023378679 -1.2232514e-19)
(0.259193 -3.669388e-05 6.9527067e-18)
(0.25919873 -9.2857459e-05 4.7419684e-18)
(0.25921134 -0.00014806165 -1.4150616e-18)
(0.25923061 -0.00020663289 4.8093231e-19)
(0.25925648 -0.0002648995 6.1224744e-19)
(0.25928848 -0.00032332972 3.6866251e-19)
(0.25932457 -0.00038173097 2.9885259e-19)
(0.25935785 -0.00043986308 4.0688367e-19)
(0.25936788 -0.00049714489 2.3000654e-19)
(0.25929853 -0.00055310431 -5.2842131e-20)
(0.2589988 -0.00059970361 2.4761316e-19)
(0.25801896 -0.00064623361 7.8829624e-20)
(0.25467145 -0.00063499349 -8.8074315e-21)
(0.24235144 -0.00056062195 -6.3879191e-20)
(0.20813123 -0.0002141088 6.4171239e-21)
(0.26006576 -3.6034054e-05 2.0314484e-18)
(0.26007152 -9.1214284e-05 4.1038951e-18)
(0.26008417 -0.00014544281 -3.3684259e-19)
(0.26010346 -0.00020298347 5.6702209e-19)
(0.26012923 -0.00026021093 6.2975367e-19)
(0.2601607 -0.00031758689 6.5178979e-19)
(0.26019497 -0.00037489796 3.6440208e-19)
(0.26022303 -0.0004318747 1.3593003e-19)
(0.26021952 -0.00048779066 1.8358091e-19)
(0.26011767 -0.00054204301 -7.466181e-20)
(0.25974224 -0.00058714002 1.2973381e-19)
(0.25857279 -0.00062806077 8.2513976e-20)
(0.25467557 -0.00061594005 -3.7008496e-20)
(0.24100379 -0.00052390611 4.0092747e-20)
(0.20544863 -0.00019196316 -4.4999653e-20)
(0.2609225 -3.5349632e-05 2.5816353e-18)
(0.26092828 -8.9497285e-05 3.5205417e-18)
(0.26094096 -0.0001427054 5.3552605e-19)
(0.26096023 -0.00019916671 5.1849289e-19)
(0.2609858 -0.00025530722 1.0676543e-18)
(0.2610165 -0.00031157921 9.5904885e-19)
(0.26104844 -0.00036774517 4.8094499e-19)
(0.2610702 -0.00042350433 3.0426497e-19)
(0.26105114 -0.00047801113 7.2248129e-21)
(0.26091327 -0.00053046085 -1.3284418e-19)
(0.2604557 -0.00057393662 8.306135e-20)
(0.2590814 -0.00060990566 1.2374675e-19)
(0.2546009 -0.00059424331 6.7027378e-20)
(0.23963056 -0.00048937354 6.8247353e-20)
(0.20297926 -0.00016931833 -1.5826312e-19)
(0.26176274 -3.4655538e-05 3.1066971e-18)
(0.26176854 -8.7746854e-05 2.9376447e-18)
(0.26178122 -0.00013991377 -5.7462259e-19)
(0.26180042 -0.00019527246 4.9114428e-19)
(0.26182568 -0.00025030305 6.9460648e-19)
(0.26185536 -0.00030544607 2.9391113e-19)
(0.26188442 -0.00036043768 1.7627253e-19)
(0.26189878 -0.00041494196 2.552821e-19)
(0.26186213 -0.00046801762 -7.3001512e-20)
(0.2616848 -0.00051862213 -1.9343341e-19)
(0.26113855 -0.00056034346 1.0909931e-19)
(0.25954316 -0.00059189152 1.5491027e-19)
(0.25444651 -0.0005706321 1.0100454e-19)
(0.23824529 -0.00045627776 -7.1786974e-21)
(0.20071509 -0.00014735259 -7.3723358e-20)
(0.26258633 -3.396306e-05 4.4513665e-18)
(0.26259213 -8.599378e-05 7.4328361e-19)
(0.26260479 -0.00013711719 3.25465e-18)
(0.26262388 -0.00019136968 5.4051518e-19)
(0.2626487 -0.00024528655 -1.2335443e-18)
(0.26267708 -0.00029929459 1.3425343e-20)
(0.26270267 -0.00035310243 1.3761142e-19)
(0.26270848 -0.00040633486 2.1902967e-19)
(0.26265224 -0.00045797299 3.2115389e-20)
(0.26243199 -0.00050672605 -1.0262316e-20)
(0.26179026 -0.00054656345 2.9326193e-20)
(0.25995633 -0.0005740675 2.3068803e-19)
(0.25421177 -0.00054566294 1.3380671e-19)
(0.23686047 -0.00042415213 3.2585414e-20)
(0.19864765 -0.0001267576 4.0183311e-20)
(0.26339335 -3.32814e-05 5.7720197e-18)
(0.26339915 -8.426274e-05 3.8937944e-18)
(0.26341177 -0.0001343551 3.4499041e-18)
(0.26343068 -0.0001875135 6.7022098e-19)
(0.26345493 -0.00024032822 1.0990769e-18)
(0.26348171 -0.00029321054 4.8742467e-19)
(0.2635032 -0.00034584107 1.5832317e-19)
(0.2634993 -0.00039780175 2.7414408e-19)
(0.26342146 -0.00044800829 2.0722232e-19)
(0.26315483 -0.00049492779 7.1454927e-20)
(0.26241041 -0.00053276478 2.0199209e-19)
(0.26031893 -0.00055643964 1.5547406e-19)
(0.2538966 -0.000519773 1.8774384e-19)
(0.23548766 -0.00039274464 1.1863894e-19)
(0.19676807 -0.00010792878 8.5463019e-20)
(0.26418413 -3.2618312e-05 4.4416556e-18)
(0.26418991 -8.2574225e-05 4.5292257e-18)
(0.26420246 -0.00013166021 1.5820611e-18)
(0.26422112 -0.0001837496 1.643379e-18)
(0.26424465 -0.00023548648 1.4450797e-18)
(0.2642695 -0.00028726512 3.336396e-19)
(0.26428624 -0.00033873796 2.4768137e-19)
(0.26427145 -0.00038944152 1.6104058e-19)
(0.26416998 -0.0004382328 4.0343991e-19)
(0.26385341 -0.00048335173 2.7999617e-19)
(0.26299854 -0.00051908846 1.7597214e-19)
(0.26062878 -0.00053898815 1.0331841e-19)
(0.25350187 -0.00049331965 1.6389595e-19)
(0.2341376 -0.00036197184 1.2541737e-19)
(0.19506692 -9.1079355e-05 5.1093435e-20)
(0.26495914 -3.1980324e-05 2.3403578e-18)
(0.2649649 -8.0945388e-05 4.2967794e-18)
(0.26497734 -0.00012905989 1.3641864e-18)
(0.26499568 -0.00018011622 1.5041294e-18)
(0.26501831 -0.00023081031 1.1896149e-18)
(0.26504088 -0.00028151806 7.906273e-19)
(0.2650522 -0.00033186392 4.3670334e-19)
(0.2650253 -0.00038133727 1.953772e-19)
(0.26489816 -0.00042873842 1.8657509e-19)
(0.26452796 -0.00047209827 3.6553708e-19)
(0.26355413 -0.00050565096 1.4633838e-19)
(0.2608835 -0.00052167636 1.0654214e-19)
(0.25302971 -0.00046660631 1.2454685e-19)
(0.23282016 -0.00033188327 8.6736645e-20)
(0.19353413 -7.6303787e-05 1.1847588e-19)
(0.26571903 -3.1372765e-05 1.3719426e-18)
(0.26572475 -7.9390278e-05 2.8943218e-18)
(0.26573705 -0.00012657658 2.7157656e-19)
(0.26575498 -0.00017664472 8.6870673e-19)
(0.26577653 -0.00022633987 9.7198222e-19)
(0.26579644 -0.0002760185 1.0288127e-18)
(0.26580163 -0.0003252772 5.4448808e-19)
(0.26576141 -0.00037355728 5.7681082e-19)
(0.26560652 -0.00041960061 4.9094707e-20)
(0.26517878 -0.00046124612 1.2179871e-19)
(0.26407657 -0.00049254343 1.8945456e-19)
(0.26108058 -0.00050445572 1.4473094e-19)
(0.25248384 -0.00043989699 9.4089419e-20)
(0.23154421 -0.00030262987 1.0188938e-19)
(0.19215888 -6.3609731e-05 1.2346595e-19)
(0.26646455 -3.0799673e-05 7.4060287e-18)
(0.26647021 -7.791971e-05 8.0308454e-19)
(0.26648233 -0.00012422759 3.7473837e-18)
(0.26649975 -0.0001733593 2.325148e-18)
(0.26652002 -0.00022210618 -3.4905482e-19)
(0.26653688 -0.0002708044 1.2213321e-18)
(0.26653522 -0.00031902283 1.4962542e-18)
(0.26648042 -0.00036615421 1.2067425e-18)
(0.26629564 -0.00041087723 7.7550086e-19)
(0.26580617 -0.00045085191 -3.1706937e-19)
(0.26456508 -0.00047982866 4.5376046e-19)
(0.26121754 -0.00048726982 3.3841068e-19)
(0.25186982 -0.00041342264 2.7587906e-19)
(0.23031742 -0.00027443217 3.3112199e-19)
(0.1909297 -5.2932834e-05 2.1916458e-19)
(0.26719653 -3.0263687e-05 3.0269967e-18)
(0.26720212 -7.6541023e-05 -5.0323536e-19)
(0.26721401 -0.00012202465 2.8439766e-18)
(0.26723083 -0.00017027641 2.1856163e-18)
(0.2672496 -0.00021813033 6.1098157e-19)
(0.26726299 -0.00026590165 1.1053632e-18)
(0.26725373 -0.0003131315 1.4206829e-18)
(0.26718309 -0.00035916374 8.5325213e-19)
(0.26696618 -0.00040260692 7.4060688e-19)
(0.26641044 -0.00044094906 -1.2587442e-20)
(0.26501868 -0.00046753759 4.2234873e-19)
(0.26129202 -0.00047005901 3.1848492e-19)
(0.25119506 -0.00038738325 3.6127762e-19)
(0.2291461 -0.00024754677 2.427027e-19)
(0.18983455 -4.4145099e-05 2.761438e-19)
(0.26791589 -2.9765992e-05 -1.7155799e-18)
(0.26792138 -7.5257932e-05 8.0600189e-19)
(0.26793299 -0.00011997376 1.3641082e-18)
(0.26794908 -0.00016740448 1.1059572e-18)
(0.26796613 -0.00021442312 1.7537965e-18)
(0.26797562 -0.00026132351 5.0942461e-19)
(0.267958 -0.00030761887 3.8902604e-19)
(0.26787018 -0.00035260381 2.7119935e-19)
(0.2676188 -0.00039480804 2.0646477e-19)
(0.2669918 -0.00043154706 1.8451697e-19)
(0.26543617 -0.00045566686 1.4661284e-20)
(0.2613021 -0.00045276642 1.1394696e-19)
(0.2504687 -0.00036194908 1.8391296e-19)
(0.22803501 -0.00022223217 -1.0605207e-20)
(0.18886112 -3.7064087e-05 1.0630513e-19)
(0.26862352 -2.9306383e-05 6.5062124e-18)
(0.2686289 -7.4070661e-05 2.4204066e-18)
(0.26864017 -0.00011807533 3.3477261e-18)
(0.26865542 -0.00016474413 2.3523772e-18)
(0.26867049 -0.00021098533 1.7640375e-18)
(0.26867563 -0.000257071 1.6102497e-18)
(0.26864885 -0.00030248606 1.3144457e-18)
(0.26854251 -0.00034647515 1.1395985e-18)
(0.26825414 -0.00038747924 8.2566254e-19)
(0.26755035 -0.00042263245 -2.2987388e-20)
(0.2658161 -0.00044417905 4.0910925e-19)
(0.26124652 -0.00043534493 3.3094925e-19)
(0.24970133 -0.00033726333 3.3714411e-19)
(0.22698727 -0.00019871676 2.4377118e-19)
(0.18799711 -3.1466398e-05 2.1363043e-19)
(0.26932033 -2.8883461e-05 3.0660264e-18)
(0.26932558 -7.2976356e-05 1.6516182e-20)
(0.26933645 -0.00011632481 6.6631007e-19)
(0.26935072 -0.00016228909 2.1619366e-18)
(0.26936357 -0.0002078089 1.7415743e-18)
(0.26936389 -0.00025313433 1.7651134e-18)
(0.26932713 -0.0002977213 1.5499646e-18)
(0.26920083 -0.00034076321 9.7599401e-19)
(0.2688728 -0.00038060158 7.6087902e-19)
(0.26808605 -0.00041417146 5.0230418e-19)
(0.26615679 -0.00043300583 4.9846252e-19)
(0.26112496 -0.00041776402 3.9143369e-19)
(0.24890441 -0.00031344658 3.4227201e-19)
(0.22600436 -0.00017717261 3.9406332e-19)
(0.18723056 -2.7105587e-05 2.0271647e-19)
(0.27000719 -2.849491e-05 1.8051997e-18)
(0.27001228 -7.1969743e-05 3.7263498e-18)
(0.27002267 -0.00011471384 2.2457398e-18)
(0.27003583 -0.00016002771 2.4615362e-18)
(0.27004618 -0.00020487885 9.6349918e-19)
(0.27004119 -0.00024949516 1.4565553e-18)
(0.2699936 -0.00029330262 1.2374949e-18)
(0.26984584 -0.00033544136 7.997634e-19)
(0.26947524 -0.00037414208 7.0732051e-19)
(0.2685986 -0.00040611399 4.3560328e-19)
(0.26645635 -0.00042205446 4.5475319e-19)
(0.2609383 -0.00040001524 4.416122e-19)
(0.24808975 -0.00029060213 3.9376693e-19)
(0.22508629 -0.00015769827 4.6835262e-19)
(0.18655015 -2.3732129e-05 1.3503746e-19)
(0.27068489 -2.8137825e-05 6.2062384e-18)
(0.2706898 -7.1043906e-05 4.3072715e-18)
(0.27069965 -0.00011323138 5.1806505e-18)
(0.27071153 -0.00015794462 3.6175333e-18)
(0.2707191 -0.00020217544 1.6923434e-18)
(0.27070829 -0.00024612933 1.990115e-18)
(0.27064898 -0.00028920108 1.8381649e-18)
(0.27047818 -0.00033047455 1.5126707e-18)
(0.27006181 -0.00036805783 1.089739e-18)
(0.26908753 -0.00039839812 1.7834335e-19)
(0.26671278 -0.00041121648 6.8652726e-19)
(0.26068881 -0.00038211515 7.0405502e-19)
(0.24726882 -0.00026882041 7.8136931e-19)
(0.22423175 -0.00014031231 6.3584012e-19)
(0.18594537 -2.1112148e-05 3.1088419e-19)
(0.27135418 -2.7809012e-05 1.5870433e-18)
(0.27135887 -7.0191041e-05 3.4677791e-18)
(0.2713681 -0.00011186497 3.4311564e-18)
(0.27137855 -0.00015602247 2.4603979e-18)
(0.27138303 -0.00019967637 3.0140555e-18)
(0.27136587 -0.00024300948 1.227915e-18)
(0.27129391 -0.00028538386 1.0976269e-18)
(0.27109836 -0.000325823 9.1449606e-19)
(0.27063272 -0.00036230005 6.1292001e-19)
(0.26955206 -0.00039095432 2.2772377e-19)
(0.26692403 -0.00040037784 2.3091263e-19)
(0.26038022 -0.00036410564 4.0888416e-19)
(0.24645221 -0.00024818088 4.6186055e-19)
(0.22343841 -0.00012495718 3.1585886e-19)
(0.18540672 -1.9041831e-05 2.066054e-19)
(0.27201571 -2.7505235e-05 3.1924105e-18)
(0.27202015 -6.94031e-05 3.4442105e-18)
(0.27202866 -0.00011060176 2.6622487e-18)
(0.27203751 -0.00015424331 2.1987029e-18)
(0.2720386 -0.00019735858 2.2266202e-18)
(0.27201452 -0.00024010733 1.3035874e-18)
(0.27192892 -0.00028181693 9.8335055e-19)
(0.2717068 -0.00032144525 9.7955815e-19)
(0.27118802 -0.00035681747 5.2347111e-19)
(0.2699912 -0.00038370884 2.5893316e-19)
(0.26708822 -0.000389429 2.7753676e-19)
(0.26001771 -0.00034605163 3.4043557e-19)
(0.24564917 -0.00022875086 3.8210399e-19)
(0.22270325 -0.00011151162 2.431654e-19)
(0.18492573 -1.7355845e-05 2.5183518e-19)
(0.27267005 -2.7223403e-05 1.5088071e-18)
(0.27267421 -6.8672269e-05 8.633714e-19)
(0.27268192 -0.00010942927 1.3050269e-18)
(0.27268898 -0.00015258973 2.2551125e-18)
(0.27268634 -0.00019519966 1.9450168e-18)
(0.27265476 -0.00023739527 1.6999444e-18)
(0.27255447 -0.00027846699 1.352824e-18)
(0.2723038 -0.00031730047 9.7234677e-19)
(0.27172757 -0.00035155884 3.7142877e-19)
(0.27040369 -0.00037658611 6.7548601e-19)
(0.26720375 -0.00037827411 3.4067128e-19)
(0.25960771 -0.00032803713 3.2385429e-19)
(0.24486735 -0.00021058184 3.5680931e-19)
(0.22202277 -9.980814e-05 2.1902091e-19)
(0.18449494 -1.5929485e-05 2.6562049e-19)
(0.27331772 -2.6960666e-05 3.6849922e-18)
(0.27332155 -6.7991274e-05 5.0193511e-18)
(0.27332837 -0.00010833587 3.399994e-18)
(0.27333345 -0.00015104547 2.4133841e-18)
(0.27332673 -0.00019317869 1.3609965e-18)
(0.27328702 -0.00023484751 1.9609191e-18)
(0.27317093 -0.0002753027 1.3769534e-18)
(0.27288957 -0.00031334989 1.0771971e-18)
(0.27225107 -0.00034647442 6.6795168e-19)
(0.27078808 -0.00036951039 4.8822102e-19)
(0.26726952 -0.00036683813 2.9671458e-19)
(0.25915765 -0.0003101602 5.2804107e-19)
(0.24411266 -0.00019370464 4.1570029e-19)
(0.22139331 -8.9652404e-05 3.123641e-19)
(0.1841079 -1.4675691e-05 3.2527351e-19)
(0.27395916 -2.6714475e-05 7.9152031e-18)
(0.27396262 -6.7353543e-05 4.1448479e-18)
(0.27396843 -0.00010731104 4.373349e-18)
(0.27397134 -0.00014959583 3.2882382e-18)
(0.27396016 -0.00019127672 1.939965e-18)
(0.27391168 -0.00023244055 2.6097435e-18)
(0.2737786 -0.00027229533 2.1030829e-18)
(0.27346419 -0.00030955758 1.5561863e-18)
(0.27275806 -0.00034151677 1.3247019e-18)
(0.27114274 -0.00036240704 1.8144945e-19)
(0.26728512 -0.00035507155 6.771962e-19)
(0.25867552 -0.00029252748 7.6061801e-19)
(0.24338933 -0.00017812521 8.7977479e-19)
(0.22081116 -8.0841193e-05 6.654654e-19)
(0.18375901 -1.3538668e-05 5.4235815e-19)
(0.27459475 -2.648259e-05 -6.1436162e-19)
(0.2745978 -6.675326e-05 2.4888714e-18)
(0.27460249 -0.0001063455 2.2352516e-18)
(0.274603 -0.0001482278 2.1296503e-18)
(0.27458699 -0.00018947691 2.9264509e-18)
(0.27452902 -0.00023015345 1.5650912e-18)
(0.27437767 -0.00026941895 1.5045948e-18)
(0.27402763 -0.00030589064 6.8870912e-19)
(0.27324789 -0.00033664079 6.9815657e-19)
(0.27146593 -0.0003552038 3.9660373e-19)
(0.26725094 -0.00034295249 4.1100122e-19)
(0.25816956 -0.00027524859 4.1306077e-19)
(0.24270004 -0.00016382254 5.3451229e-19)
(0.22027275 -7.317711e-05 4.8917695e-19)
(0.18344349 -1.2486089e-05 3.3397633e-19)
(0.27522481 -2.6263071e-05 2.5366231e-18)
(0.27522741 -6.6185368e-05 3.2566521e-18)
(0.27523087 -0.00010543114 2.7866983e-18)
(0.27522875 -0.00014693 2.4381973e-18)
(0.27520748 -0.00018776456 2.2930271e-18)
(0.2751393 -0.00022796774 1.1786474e-18)
(0.27496829 -0.00026665041 1.0737758e-18)
(0.27457978 -0.00030231921 8.2341796e-19)
(0.27371976 -0.0003318036 6.8880759e-19)
(0.27175586 -0.00034783257 5.1634758e-19)
(0.26716832 -0.00033048644 3.4313446e-19)
(0.25764777 -0.0002584306 5.0497275e-19)
(0.24204621 -0.0001507494 4.7552641e-19)
(0.21977469 -6.6478885e-05 5.4168575e-19)
(0.18315725 -1.1501422e-05 3.2352803e-19)
(0.27584964 -2.6054261e-05 3.0371957e-18)
(0.27585173 -6.5645512e-05 1.398576e-18)
(0.27585383 -0.00010456099 1.5919392e-18)
(0.27584885 -0.00014569263 2.0106804e-18)
(0.27582189 -0.00018612688 2.2496873e-18)
(0.2757427 -0.00022586725 1.4670384e-18)
(0.27555053 -0.00026396905 1.1505771e-18)
(0.27512041 -0.00029881615 9.5815071e-19)
(0.27417268 -0.00032696406 7.8716783e-19)
(0.27201082 -0.00034023144 8.9694001e-19)
(0.26703956 -0.00031770398 3.1336607e-19)
(0.25711762 -0.00024217267 3.5173543e-19)
(0.24142819 -0.00013883591 2.8463545e-19)
(0.21931381 -6.0587303e-05 4.0028068e-19)
(0.18289682 -1.057747e-05 2.6867656e-19)
(0.27646948 -2.5854749e-05 3.5465726e-18)
(0.27647102 -6.5129981e-05 4.2867668e-18)
(0.27647162 -0.00010372909 2.9419481e-18)
(0.27646352 -0.00014450731 1.9316374e-18)
(0.2764304 -0.00018455289 1.3562096e-18)
(0.27633935 -0.00022383791 1.6243455e-18)
(0.27612438 -0.00026135649 1.4591531e-18)
(0.27564919 -0.00029535665 1.1606951e-18)
(0.27460555 -0.00032208226 6.7754139e-19)
(0.27222923 -0.0003323472 7.106655e-19)
(0.26686787 -0.00030465719 4.4601228e-19)
(0.25658579 -0.00022656125 3.9312618e-19)
(0.2408456 -0.00012799526 2.2329287e-19)
(0.21888719 -5.5367365e-05 3.7700557e-19)
(0.18265925 -9.7115798e-06 2.4239614e-19)
(0.27708455 -2.5663344e-05 7.9802184e-18)
(0.27708548 -6.4635631e-05 5.7203266e-18)
(0.27708444 -0.0001029304 5.0667439e-18)
(0.27707295 -0.00014336686 3.2944393e-18)
(0.27703318 -0.00018303314 1.4240174e-18)
(0.27692935 -0.00022186743 2.3373455e-18)
(0.2766898 -0.00025879623 1.7818547e-18)
(0.27616569 -0.00029191777 1.5693571e-18)
(0.27501711 -0.00031711916 1.1602941e-18)
(0.27240981 -0.00032413774 2.752834e-19)
(0.26665728 -0.00029141517 7.9075873e-19)
(0.256058 -0.00021166603 8.2919428e-19)
(0.24029748 -0.00011813047 7.2214567e-19)
(0.21849214 -5.0707641e-05 7.3823995e-19)
(0.18244204 -8.9025327e-06 4.7145476e-19)
(0.27769504 -2.5479044e-05 5.3552877e-19)
(0.27769529 -6.4159806e-05 5.9779285e-18)
(0.27769247 -0.00010216064 4.0260298e-18)
(0.27767729 -0.00014226521 1.957788e-18)
(0.27763035 -0.0001815595 2.4034417e-18)
(0.27751275 -0.00021994503 1.3259042e-18)
(0.27724666 -0.00025627339 9.842335e-19)
(0.27666938 -0.00028847796 9.0497611e-19)
(0.275406 -0.00031203634 6.1446852e-19)
(0.27255164 -0.0003155742 4.9672031e-19)
(0.26641246 -0.00027805925 3.1595421e-19)
(0.25553894 -0.0001975371 3.8109711e-19)
(0.23978254 -0.00010914112 5.1846076e-19)
(0.21812621 -4.6517859e-05 2.4650262e-19)
(0.18224308 -8.148854e-06 3.6049589e-19)
(0.27830111 -2.5301005e-05 2.4758354e-18)
(0.27830062 -6.3700268e-05 3.5171838e-18)
(0.27829586 -0.0001014162 2.8632522e-18)
(0.2782767 -0.00014119716 2.8850507e-18)
(0.278222 -0.00018012493 2.737071e-18)
(0.27808956 -0.00021806116 1.3562176e-18)
(0.2777948 -0.00025377436 1.1267988e-18)
(0.27715962 -0.0002850166 1.03876e-18)
(0.27577079 -0.00030679609 6.7443267e-19)
(0.27265429 -0.00030664248 6.3538377e-19)
(0.26613848 -0.00026467813 4.6143926e-19)
(0.2550323 -0.00018420368 3.1757184e-19)
(0.23929925 -0.00010092916 4.602678e-19)
(0.21778713 -4.2725643e-05 1.3605188e-19)
(0.18206056 -7.4481426e-06 3.5088088e-19)
(0.27890291 -2.5128515e-05 2.4670629e-18)
(0.27890162 -6.3255127e-05 2.2110259e-19)
(0.27889474 -0.00010069401 6.9769405e-19)
(0.27887126 -0.00014015826 2.8709124e-18)
(0.27880821 -0.00017872332 2.7110123e-18)
(0.27865976 -0.00021620724 1.6336341e-18)
(0.27833397 -0.00025128651 1.0470811e-18)
(0.27763569 -0.00028151345 9.7360316e-19)
(0.27611001 -0.00030136188 8.2802059e-19)
(0.2727179 -0.00029734386 9.7410769e-19)
(0.26584062 -0.00025136317 6.0787519e-19)
(0.25454084 -0.00017167439 3.789552e-19)
(0.23884602 -9.3403157e-05 4.0616679e-19)
(0.21747286 -3.9273085e-05 3.1005378e-19)
(0.18189296 -6.7970321e-06 3.3569288e-19)
(0.27950056 -2.4960972e-05 -1.4574193e-18)
(0.2794984 -6.2822773e-05 3.3350421e-18)
(0.27948922 -9.9991431e-05 1.4790956e-18)
(0.27946108 -0.00013914466 1.3386196e-18)
(0.279389 -0.00017734922 1.8285315e-18)
(0.27922329 -0.00021437542 7.3720307e-19)
(0.27886389 -0.00024879793 6.0352654e-19)
(0.27809674 -0.00027794828 4.1897746e-19)
(0.27642222 -0.0002956992 2.9927373e-19)
(0.27274323 -0.00028769474 8.2198716e-19)
(0.2655241 -0.00023820406 3.3205866e-19)
(0.25406651 -0.00015993912 1.6235359e-19)
(0.23842119 -8.6481049e-05 1.7391386e-19)
(0.21718151 -3.6113609e-05 7.0225522e-20)
(0.18173897 -6.1914728e-06 1.6182358e-19)
(0.28009418 -2.4797856e-05 -8.4282886e-19)
(0.28009107 -6.2401833e-05 3.7205063e-18)
(0.28007941 -9.9306212e-05 3.6745598e-18)
(0.28004623 -0.00013815299 1.944264e-18)
(0.27996442 -0.00017599776 1.9393618e-18)
(0.27978006 -0.00021255837 9.8094914e-19)
(0.2793842 -0.00024629715 6.7824552e-19)
(0.27854186 -0.00027430051 3.5922772e-19)
(0.27670605 -0.00028977675 3.6210268e-19)
(0.27273166 -0.0002777256 7.1935722e-19)
(0.26519392 -0.00022528491 3.0549975e-19)
(0.25361059 -0.00014897206 3.0225076e-19)
(0.23802316 -8.0091228e-05 1.8846293e-19)
(0.21691137 -3.3209336e-05 2.6080183e-19)
(0.18159747 -5.6270967e-06 1.8163948e-19)
(0.28068388 -2.4638721e-05 7.8131108e-19)
(0.28067974 -6.1991113e-05 4.2850047e-18)
(0.28066539 -9.8636368e-05 3.4801853e-18)
(0.28062676 -0.00013718022 2.3825848e-18)
(0.28053445 -0.00017466447 2.2048237e-18)
(0.28032993 -0.00021074911 1.3217013e-18)
(0.27989449 -0.00024377295 5.4851028e-19)
(0.27897002 -0.0002705489 5.3247751e-19)
(0.27696025 -0.00028356785 4.8609917e-19)
(0.27268518 -0.00026747915 6.5191745e-19)
(0.26485469 -0.00021268091 2.4492809e-19)
(0.25317379 -0.00013873548 1.0437908e-19)
(0.23765034 -7.4172512e-05 1.0265225e-20)
(0.2166609 -3.0529027e-05 2.1062825e-19)
(0.18146749 -5.0995641e-06 1.4517492e-19)
(0.28126974 -2.4483172e-05 3.6342579e-18)
(0.28126449 -6.1589566e-05 5.9014395e-18)
(0.28124722 -9.7980135e-05 3.2810385e-18)
(0.28120271 -0.00013622363 7.939507e-19)
(0.28109907 -0.00017334514 1.0553207e-18)
(0.28087275 -0.00020894082 8.4351344e-19)
(0.28039427 -0.00024121406 2.1051684e-19)
(0.27938014 -0.00026667151 -2.610088e-20)
(0.27718382 -0.00027705191 -3.1089015e-20)
(0.27260633 -0.00025700811 1.3455963e-19)
(0.26451052 -0.00020045586 -1.4334162e-19)
(0.25275643 -0.00012918377 -3.2681166e-19)
(0.23730122 -6.8673272e-05 -5.965787e-19)
(0.21642866 -2.8046556e-05 -2.8416678e-19)
(0.18134818 -4.6048099e-06 -1.0297517e-19)
(0.28185185 -2.4330856e-05 4.687321e-18)
(0.28184539 -6.119625e-05 4.6443116e-18)
(0.28182498 -9.7335907e-05 3.7557807e-18)
(0.28177412 -0.00013528067 8.4151803e-19)
(0.28165823 -0.00017203573 1.1490206e-18)
(0.2814083 -0.00020712676 7.0471647e-19)
(0.28088299 -0.00023860899 1.201184e-19)
(0.27977106 -0.00026264569 -2.2313329e-19)
(0.27737601 -0.00027021574 -1.8117473e-20)
(0.27249806 -0.00024637257 -2.2785671e-20)
(0.26416497 -0.0001886604 -1.8860447e-19)
(0.2523585 -0.00012026722 -2.1701697e-19)
(0.23697438 -6.3550124e-05 -4.8322206e-19)
(0.21621337 -2.5739814e-05 -1.2135416e-19)
(0.18123881 -4.1392028e-06 -1.2886757e-19)
(0.28243029 -2.4181448e-05 5.4417067e-18)
(0.28242252 -6.0810307e-05 4.5178848e-18)
(0.28239871 -9.6702197e-05 3.6157536e-18)
(0.28234099 -0.00013434892 2.7228192e-18)
(0.28221186 -0.00017073227 2.1893179e-18)
(0.28193636 -0.00020530013 1.1839591e-18)
(0.28136003 -0.00023594579 8.4184765e-19)
(0.2801416 -0.00025844846 5.5681503e-19)
(0.27753642 -0.00026305461 4.6128427e-19)
(0.27236366 -0.00023563725 2.1040764e-21)
(0.26382105 -0.00017733135 2.2403422e-19)
(0.25197976 -0.00011193519 1.7884733e-19)
(0.23666845 -5.8766489e-05 2.3701858e-19)
(0.21601387 -2.3589919e-05 1.8666897e-19)
(0.1811387 -3.6995972e-06 2.565752e-20)
(0.28300512 -2.4034647e-05 1.5708868e-18)
(0.28299594 -6.0430937e-05 1.656492e-18)
(0.28296845 -9.6077595e-05 2.8910961e-18)
(0.28290332 -0.00013342601 2.7662908e-18)
(0.28275987 -0.00016943078 1.7155462e-18)
(0.28245663 -0.00020345397 1.35671e-18)
(0.28182471 -0.00023321186 9.3194961e-19)
(0.28049057 -0.0002540569 8.2505101e-19)
(0.27766504 -0.00025557284 4.2721844e-19)
(0.27220658 -0.00022486879 5.1466013e-19)
(0.26348123 -0.0001664919 3.0923951e-19)
(0.25161982 -0.00010413863 2.3419772e-19)
(0.23638216 -5.429123e-05 3.0090207e-19)
(0.21582908 -2.158066e-05 6.5287102e-20)
(0.18104728 -3.2833427e-06 2.8167404e-20)
(0.2835764 -2.3890166e-05 5.8789785e-19)
(0.28356569 -6.0057379e-05 3.1107298e-18)
(0.28353424 -9.5460738e-05 3.1365619e-18)
(0.2834611 -0.00013250962 2.3976221e-18)
(0.28330215 -0.00016812719 1.4636861e-18)
(0.28296879 -0.00020158114 1.1375453e-18)