/*--------------------------------*- C++ -*----------------------------------*\
| =========                 |                                                 |
| \\      /  F ield         | OpenFOAM: The Open Source CFD Toolbox           |
|  \\    /   O peration     | Version:  2506                                  |
|   \\  /    A nd           | Website:  www.openfoam.com                      |
|    \\/     M anipulation  |                                                 |
\*---------------------------------------------------------------------------*/
FoamFile
{
    version     2.0;
    format      ascii;
    arch        "LSB;label=32;scalar=64";
    class       volScalarField;
    location    "16000/water";
    object      alphat;
}
// * * * * * * * * * * * * * * * * * * * * * * * * * * * * * * * * * * * * * //

dimensions      [1 -1 -1 0 0 0 0];

internalField   nonuniform List<scalar> 
2600
(
0.040489031
0.04048893
0.040488932
0.040488969
0.04048893
0.040488424
0.040485257
0.04046703
0.040362559
0.039762099
0.036475623
0.024118064
0.014862723
0.039376404
0.039376463
0.039376584
0.03937667
0.03937627
0.039373342
0.039357935
0.03928206
0.038918252
0.037247647
0.030707814
0.017504579
0.016810247
0.03845331
0.038453299
0.038453385
0.038453188
0.038451259
0.038441479
0.038397507
0.038208927
0.037432867
0.034484227
0.025768479
0.01464355
0.017680736
0.037674097
0.037673994
0.037673876
0.037672833
0.03766736
0.037643826
0.037549741
0.037190974
0.035896577
0.031717985
0.022022178
0.013507107
0.017935556
0.037006829
0.037006634
0.03700605
0.037003229
0.036991211
0.03694503
0.036777672
0.036201229
0.034343725
0.029136321
0.019390213
0.01332192
0.01787019
0.036428097
0.036427705
0.036426239
0.036420305
0.036397905
0.036319194
0.03605724
0.035231095
0.03281421
0.026833154
0.017684561
0.01376901
0.017658004
0.035920433
0.035919673
0.03591673
0.035905979
0.035868817
0.035747845
0.035374204
0.034281783
0.031338745
0.024847734
0.016751764
0.014701365
0.017395975
0.035470606
0.03546924
0.035464057
0.035446499
0.035390052
0.035218253
0.034721129
0.033357857
0.029935921
0.02320089
0.016491475
0.016024754
0.017137191
0.035068412
0.03506614
0.035057811
0.035031314
0.034951338
0.034722033
0.034094772
0.032463227
0.028616047
0.021918168
0.016839593
0.01764423
0.016909598
0.034705855
0.034702323
0.034689851
0.034652315
0.034545228
0.034254009
0.03349406
0.031599319
0.027389013
0.021039007
0.017742707
0.01944683
0.016725717
0.034376582
0.0343714
0.034353768
0.03430331
0.034166516
0.033811296
0.032918607
0.030765036
0.026274288
0.020612421
0.019134169
0.021310298
0.0165878
0.034075484
0.034068256
0.034044512
0.033979658
0.033811775
0.033392551
0.032367695
0.029958513
0.025310237
0.020682514
0.02092045
0.023125093
0.01649134
0.03379842
0.033788771
0.033758129
0.033677993
0.033478994
0.032997353
0.031839672
0.029180919
0.024557973
0.021270679
0.022983308
0.024813262
0.016428198
0.033542011
0.033529635
0.033491576
0.033396025
0.033167279
0.032625685
0.031331905
0.02844226
0.024095308
0.02236241
0.02519592
0.026333969
0.016389375
0.033303501
0.033288203
0.033242589
0.033132389
0.0328766
0.032277488
0.030841496
0.027768047
0.024001078
0.023903802
0.027443847
0.027676786
0.016366908
0.033080659
0.033062404
0.03300959
0.032886524
0.032607559
0.031952311
0.030367144
0.027204004
0.02433601
0.025808536
0.029640409
0.028850257
0.01635471
0.032871707
0.032850677
0.032791627
0.032658586
0.032361164
0.031649138
0.029912405
0.026815113
0.025128026
0.027972561
0.031731261
0.029871995
0.016348606
0.032675278
0.032651931
0.032588332
0.032449362
0.032138606
0.031366538
0.029490156
0.026676984
0.02636662
0.030291378
0.033689748
0.030762439
0.016345973
0.032490392
0.032465523
0.0323999
0.032260198
0.031941021
0.031103392
0.02912715
0.026861559
0.028006318
0.032674378
0.035508202
0.031541613
0.016345289
0.03231644
0.032291251
0.032227075
0.032092906
0.0317693
0.030860474
0.028866522
0.027422392
0.02997661
0.035052626
0.037189756
0.032227633
0.016345749
0.032153193
0.032129365
0.032071151
0.03194966
0.031623986
0.030643052
0.028765901
0.028384666
0.032194874
0.037379728
0.038742713
0.032836119
0.016346971
0.032000817
0.031980587
0.031933965
0.031832869
0.031505423
0.030464306
0.028890209
0.029742269
0.034578896
0.039628039
0.040177388
0.03338011
0.016348812
0.031859898
0.031846136
0.031817892
0.031745018
0.031414332
0.030348688
0.029300796
0.031461309
0.037056244
0.041783221
0.041504536
0.033870256
0.016351246
0.031731488
0.031727775
0.031725824
0.031688525
0.031353059
0.030333689
0.030044463
0.033487925
0.039569151
0.043839375
0.042734578
0.034315152
0.016354289
0.031617156
0.031627852
0.031661123
0.031665646
0.031327616
0.030468391
0.031145812
0.035757862
0.042075207
0.045795594
0.043877213
0.034721702
0.016357969
0.031519059
0.031549348
0.031627545
0.031678558
0.031350386
0.030808116
0.032604584
0.038205563
0.044545297
0.047653852
0.044941233
0.035095454
0.016362308
0.03144002
0.031495925
0.031629136
0.031729781
0.031442847
0.031406233
0.034397782
0.040771061
0.046960465
0.04941777
0.045934484
0.035440885
0.01636731
0.031383622
0.031471952
0.031670108
0.031823119
0.03163718
0.032305488
0.03648515
0.043403916
0.049308923
0.051091864
0.046863895
0.035761637
0.016372969
0.03135431
0.031482518
0.031754744
0.031965285
0.031975484
0.033531428
0.038816233
0.046064361
0.051583768
0.052681066
0.047735561
0.036060692
0.016379266
0.031357497
0.031533412
0.031887427
0.032168112
0.032505945
0.035089409
0.041337344
0.04872249
0.053781403
0.054190403
0.048554836
0.036340517
0.016386174
0.03139966
0.031631057
0.032072921
0.032450915
0.033276474
0.036965351
0.043997167
0.051356522
0.055900493
0.055624809
0.04932644
0.036603249
0.016393659
0.031488426
0.031782428
0.03231711
0.032842099
0.03432751
0.039129415
0.046750331
0.0539509
0.057941207
0.056988872
0.050054079
0.036848496
0.016401672
0.031632621
0.031994973
0.032628308
0.033378943
0.035685987
0.041541299
0.049558965
0.056494684
0.059904719
0.058286905
0.050741228
0.037078062
0.016410157
0.031842264
0.03227662
0.033019162
0.034104839
0.037361928
0.044155835
0.052392715
0.058980326
0.061792816
0.059522758
0.051390027
0.037293993
0.01641906
0.03212853
0.032636021
0.033508771
0.03506418
0.03934811
0.046927806
0.05522786
0.061402783
0.063607642
0.060699937
0.052002677
0.037497696
0.016428334
0.03250367
0.033083204
0.034124296
0.036296099
0.041622403
0.049815358
0.058046135
0.063758861
0.065351546
0.061821638
0.05258258
0.037690193
0.016437945
0.032981001
0.033630796
0.034901058
0.037828732
0.044151815
0.05278187
0.060833585
0.066046679
0.067026701
0.0628895
0.053132468
0.03787253
0.016447871
0.033575094
0.034295804
0.035880365
0.039675449
0.046897155
0.055796505
0.063579599
0.068265331
0.068635568
0.063907354
0.053654301
0.038045473
0.016458088
0.034302368
0.035101605
0.037105068
0.041833721
0.049817346
0.058833933
0.066276153
0.070414392
0.070179107
0.064878397
0.054149994
0.038209783
0.016468569
0.035182279
0.036079355
0.038613763
0.044286505
0.052872735
0.061873597
0.068917175
0.072494024
0.071660187
0.065805208
0.054621164
0.038366084
0.016479288
0.036239045
0.037267814
0.040435158
0.047005438
0.056027177
0.064898916
0.071498026
0.074503819
0.073081481
0.066690098
0.055069325
0.038514917
0.016490218
0.037503422
0.038710794
0.04258405
0.049954867
0.05924894
0.067896465
0.074015183
0.076444641
0.074445475
0.067535118
0.055495818
0.038656742
0.016501334
0.039013507
0.040452275
0.045059725
0.053095838
0.062510851
0.070855337
0.076465325
0.078317611
0.075754304
0.068342166
0.055901826
0.038791953
0.01651261
0.040813313
0.042530169
0.047846819
0.056389306
0.065789814
0.073766511
0.078846467
0.080124253
0.077009867
0.069112938
0.056288384
0.038920881
0.016524019
0.042948327
0.044970332
0.050918064
0.059798387
0.069066327
0.076621972
0.081156919
0.081865795
0.078213925
0.069848942
0.056656394
0.039043804
0.016535536
0.045458385
0.0477823
0.054237953
0.063289394
0.072323494
0.07941521
0.083396344
0.083543328
0.079368019
0.070551491
0.057006628
0.039160949
0.016547136
0.048369501
0.050957569
0.057766466
0.066832244
0.075546559
0.082140746
0.085564135
0.085157809
0.080473485
0.071221709
0.057339735
0.039272496
0.016558794
0.051686928
0.054470418
0.061462117
0.070399927
0.078721993
0.084794913
0.087659696
0.086709992
0.081531431
0.071860534
0.057656248
0.039378584
0.016570485
0.055391496
0.058280556
0.06528368
0.073967549
0.081839614
0.08737411
0.089682328
0.088200398
0.08254273
0.072468717
0.057956588
0.039479309
0.016582185
0.05944006
0.062336518
0.069190811
0.077514013
0.084890578
0.089874884
0.091631149
0.089629284
0.083508006
0.073046822
0.058241063
0.039574724
0.016593867
0.063769502
0.066579745
0.073146312
0.081021484
0.087866743
0.092293812
0.093505053
0.090996625
0.084427628
0.073595227
0.058509874
0.039664846
0.016605507
0.068304194
0.070949154
0.077116137
0.084473724
0.090760493
0.09462744
0.095302679
0.092302096
0.08530171
0.074114123
0.058763115
0.039749651
0.016617076
0.072963988
0.075384362
0.081068543
0.087855789
0.09356463
0.096872254
0.097022415
0.093545089
0.086130113
0.074603519
0.059000774
0.039829075
0.016628545
0.07767124
0.079828376
0.084974049
0.091153829
0.096272331
0.099024711
0.098662435
0.094724731
0.086912466
0.075063253
0.059222742
0.039903019
0.016639885
0.082355865
0.084229591
0.088805539
0.094355003
0.098877159
0.1010813
0.10022076
0.095839936
0.087648193
0.075493011
0.059428819
0.03997135
0.016651062
0.08695822
0.088543089
0.092538489
0.097447496
0.10137312
0.10303863
0.10169536
0.096889474
0.088336562
0.075892351
0.059618728
0.040033909
0.016662041
0.091430094
0.092731272
0.096151246
0.10042061
0.10375478
0.10489358
0.10308425
0.097872059
0.088976742
0.076260744
0.059792138
0.040090514
0.016672786
0.095734371
0.096763938
0.09962528
0.10326492
0.10601733
0.10664339
0.10438564
0.098786452
0.089567884
0.076597617
0.059948687
0.040140974
0.016683256
0.09984391
0.10061791
0.10294534
0.10597237
0.10815677
0.10828579
0.10559802
0.099631566
0.090109192
0.076902412
0.060088014
0.040185102
0.016693412
0.10374008
0.1042764
0.10609946
0.10853647
0.11016993
0.10981912
0.1067203
0.10040657
0.090600013
0.07717464
0.060209791
0.040222726
0.016703211
0.10741123
0.10772816
0.1090789
0.11095231
0.11205462
0.1112424
0.10775189
0.10111098
0.091039914
0.07741394
0.060313761
0.040253708
0.016712613
0.11085132
0.11096669
0.1118779
0.11321661
0.11380961
0.11255536
0.10869278
0.10174473
0.091428748
0.077620131
0.06039977
0.040277955
0.016721579
0.11405869
0.11398936
0.1144934
0.11532765
0.11543468
0.11375849
0.10954354
0.10230822
0.091766708
0.077793258
0.060467793
0.040295434
0.01673007
0.11703505
0.11679669
0.11692475
0.11728524
0.1169306
0.11485304
0.11030537
0.10280236
0.092054363
0.077933625
0.060517965
0.040306182
0.016738054
0.11978465
0.11939167
0.11917331
0.11909053
0.11829903
0.11584096
0.11098007
0.10322855
0.092292674
0.078041814
0.060550589
0.040310313
0.016745503
0.12231367
0.12177924
0.12124217
0.12074594
0.11954252
0.11672485
0.11157
0.10358868
0.092482991
0.078118692
0.060566144
0.04030802
0.016752392
0.12462968
0.12396579
0.12313581
0.12225491
0.12066434
0.11750791
0.11207803
0.10388508
0.092627036
0.0781654
0.060565288
0.040299575
0.016758707
0.12674123
0.12595883
0.12485982
0.12362182
0.12166845
0.11819388
0.11250749
0.10412048
0.092726867
0.078183342
0.060548841
0.040285322
0.016764435
0.12865756
0.12776661
0.12642066
0.12485176
0.12255936
0.11878691
0.11286208
0.10429796
0.092784839
0.078174147
0.060517772
0.040265672
0.016769575
0.13038837
0.12939796
0.12782541
0.12595042
0.12334202
0.1192915
0.11314581
0.10442089
0.092803555
0.078139641
0.060473174
0.040241089
0.01677413
0.13194357
0.13086202
0.12908163
0.12692396
0.12402175
0.11971244
0.11336291
0.10449281
0.09278581
0.078081804
0.060416243
0.040212081
0.016778109
0.1333332
0.13216812
0.13019718
0.12777882
0.12460411
0.12005472
0.1135178
0.10451747
0.092734537
0.078002731
0.060348247
0.040179183
0.016781528
0.13456725
0.13332563
0.13118009
0.12852167
0.12509484
0.12032341
0.11361496
0.10449868
0.092652759
0.077904587
0.060270497
0.040142948
0.016784407
0.13565561
0.13434387
0.13203844
0.12915931
0.12549977
0.12052368
0.11365895
0.10444027
0.092543535
0.077789571
0.060184324
0.04010393
0.016786771
0.13660798
0.13523202
0.13278028
0.12969854
0.12582475
0.12066069
0.11365427
0.1043461
0.09240992
0.077659878
0.060091054
0.040062679
0.016788648
0.13743381
0.13599909
0.13341357
0.13014613
0.12607561
0.12073953
0.11360541
0.10421995
0.092254922
0.077517668
0.059991983
0.040019724
0.016790069
0.13814228
0.13665382
0.1339461
0.13050877
0.12625809
0.12076523
0.11351673
0.1040655
0.092081472
0.077365039
0.059888363
0.039975571
0.016791065
0.13874221
0.13720464
0.13438544
0.13079297
0.12637781
0.12074266
0.11339247
0.10388632
0.091892396
0.077204002
0.059781383
0.039930691
0.016791671
0.13924211
0.13765971
0.13473892
0.13100508
0.12644021
0.12067657
0.11323671
0.10368585
0.09169039
0.077036466
0.059672159
0.039885523
0.016791921
0.13965009
0.13802683
0.13501361
0.13115122
0.12645057
0.1205715
0.11305338
0.10346734
0.091478004
0.076864219
0.059561726
0.039840463
0.01679185
0.1399739
0.13831343
0.13521626
0.1312373
0.12641395
0.12043182
0.11284618
0.10323387
0.09125763
0.076688924
0.05945103
0.039795865
0.016791489
0.14022091
0.1385266
0.13535332
0.13126893
0.12633519
0.12026166
0.11261864
0.10298833
0.091031492
0.076512105
0.059340927
0.039752043
0.016790873
0.14039808
0.13867306
0.13543093
0.13125148
0.1262189
0.12006497
0.11237407
0.10273342
0.090801637
0.076335149
0.059232176
0.039709268
0.016790032
0.14051201
0.13875916
0.13545488
0.13119005
0.12606943
0.11984543
0.11211557
0.10247162
0.090569942
0.076159303
0.059125448
0.039667768
0.016788996
0.14056889
0.13879088
0.13543068
0.13108945
0.12589091
0.11960653
0.111846
0.10220523
0.090338106
0.075985679
0.059021321
0.039627735
0.016787793
0.14057456
0.13877386
0.13536348
0.13095421
0.12568722
0.11935152
0.11156805
0.10193636
0.090107654
0.075815236
0.058920243
0.039589107
0.016786449
0.1405345
0.13871337
0.13525815
0.13078859
0.12546197
0.11908343
0.11128417
0.10166691
0.089879936
0.075648798
0.058822567
0.039551836
0.016784984
0.14045381
0.13861437
0.13511922
0.1305966
0.12521857
0.11880507
0.11099661
0.10139857
0.089656125
0.075487002
0.058728316
0.039516212
0.016783417
0.14033727
0.13848146
0.13495094
0.13038195
0.12496017
0.11851902
0.11070743
0.10113289
0.089437249
0.07533043
0.058637829
0.039482361
0.016781769
0.14018935
0.13831895
0.13475728
0.13014813
0.12468969
0.11822766
0.11041846
0.10087118
0.0892241
0.07517921
0.058551545
0.039450376
0.016780059
0.14001416
0.13813084
0.13454191
0.12989836
0.12440984
0.11793317
0.11013137
0.1006146
0.089017314
0.07503404
0.058469612
0.039420309
0.016778307
0.13981555
0.13792084
0.13430826
0.12963561
0.1241231
0.11763752
0.10984761
0.10036413
0.088817439
0.074895384
0.058392159
0.039392196
0.01677653
0.13959706
0.13769237
0.13405945
0.12936262
0.12383173
0.11734246
0.10956844
0.10012041
0.088625274
0.074763491
0.058319268
0.039366047
0.016774744
0.13936195
0.13744859
0.1337984
0.12908192
0.12353778
0.11704954
0.10929487
0.099884412
0.088441284
0.074638535
0.058250972
0.039341853
0.016772961
0.13911323
0.1371924
0.13352776
0.12879578
0.12324308
0.1167601
0.1090279
0.099656899
0.088265809
0.074520626
0.058187268
0.039319586
0.016771194
0.13885365
0.13692644
0.13324994
0.12850626
0.12294923
0.11647529
0.1087686
0.099438417
0.088099094
0.074409815
0.058128112
0.039299201
0.016769452
0.13858572
0.13665314
0.13296712
0.12821517
0.12265763
0.11619643
0.10851776
0.099229398
0.087941302
0.074306097
0.058073436
0.039280643
0.016767744
0.13831171
0.13637466
0.13268124
0.12792414
0.12236979
0.11592456
0.10827603
0.09903017
0.087792525
0.074209422
0.058023142
0.039263848
0.016766078
0.13803364
0.13609293
0.13239409
0.12763485
0.122087
0.11566058
0.10804395
0.098840972
0.087652788
0.074119697
0.057977116
0.039248748
0.01676446
0.13775337
0.13580979
0.13210739
0.12734875
0.12181039
0.11540526
0.10782195
0.098661963
0.087522061
0.0740368
0.057935225
0.039235268
0.016762895
0.13747264
0.13552692
0.1318227
0.12706714
0.12154092
0.11515924
0.10761036
0.098493228
0.087400265
0.073960574
0.057897327
0.039223334
0.016761388
0.13719302
0.13524586
0.1315414
0.12679117
0.12127946
0.11492304
0.10740943
0.098334783
0.087287272
0.07389084
0.057863266
0.039212868
0.016759941
0.13691593
0.13496797
0.13126473
0.12652187
0.12102673
0.1146971
0.10721932
0.098186581
0.087182912
0.073827391
0.057832877
0.03920379
0.016758558
0.13664266
0.13469449
0.13099379
0.12626009
0.12078333
0.11448174
0.10704009
0.098048516
0.087086978
0.073770001
0.057805985
0.039196019
0.016757241
0.13637435
0.13442651
0.13072953
0.12600659
0.12054975
0.11427718
0.10687175
0.097920424
0.086999224
0.073718422
0.057782408
0.03918947
0.016755992
0.136112
0.13416498
0.13047278
0.125762
0.12032637
0.11408356
0.10671423
0.097802095
0.086919374
0.073672392
0.057761957
0.03918406
0.01675481
0.13585647
0.13391071
0.13022424
0.12552683
0.12011349
0.11390094
0.1065674
0.097693275
0.086847128
0.073631636
0.057744441
0.039179702
0.016753697
0.13560852
0.13366441
0.12998449
0.12530148
0.11991129
0.11372932
0.10643108
0.09759368
0.086782168
0.073595875
0.05772967
0.039176315
0.016752651
0.13536879
0.13342668
0.12975403
0.1250863
0.1197199
0.11356861
0.10630506
0.097502998
0.086724166
0.073564828
0.057717457
0.039173819
0.016751672
0.13513782
0.13319801
0.12953326
0.1248815
0.11953939
0.11341871
0.10618906
0.097420899
0.086672786
0.073538217
0.057707621
0.039172139
0.016750759
0.13491605
0.13297882
0.12932248
0.12468727
0.11936974
0.11327945
0.10608282
0.097347041
0.086627693
0.073515769
0.057699988
0.039171204
0.016749911
0.13470386
0.13276943
0.12912193
0.1245037
0.1192109
0.11315063
0.10598602
0.097281075
0.086588553
0.073497218
0.057694394
0.039170949
0.016749126
0.13450153
0.13257009
0.12893179
0.12433084
0.11906277
0.113032
0.10589835
0.097222639
0.086555032
0.073482304
0.057690678
0.039171314
0.016748403
0.13430926
0.13238098
0.12875215
0.12416867
0.11892519
0.11292331
0.10581944
0.097171368
0.086526797
0.073470772
0.057688687
0.039172238
0.016747739
0.1341272
0.13220221
0.12858304
0.1240171
0.11879797
0.11282424
0.10574894
0.097126886
0.086503514
0.07346237
0.057688269
0.039173667
0.016747134
0.13395541
0.13203381
0.12842444
0.12387602
0.11868086
0.11273448
0.10568647
0.097088811
0.086484848
0.073456849
0.057689277
0.039175542
0.016746586
0.1337939
0.13187577
0.12827626
0.12374524
0.11857359
0.11265365
0.10563163
0.097056754
0.086470468
0.073453963
0.057691567
0.03917781
0.016746091
0.13364262
0.13172801
0.12813836
0.12362455
0.11847585
0.11258138
0.10558401
0.097030324
0.086460042
0.073453473
0.057694997
0.039180417
0.016745649
0.13350145
0.13159039
0.12801056
0.12351367
0.1183873
0.11251727
0.10554319
0.097009136
0.086453248
0.073455145
0.057699434
0.039183312
0.016745255
0.13337025
0.13146274
0.12789263
0.12341232
0.11830757
0.11246093
0.10550877
0.096992806
0.086449773
0.073458759
0.057704752
0.039186447
0.016744908
0.13324882
0.13134484
0.12778433
0.12332018
0.11823629
0.11241193
0.10548033
0.096980967
0.086449319
0.073464105
0.057710834
0.039189782
0.016744605
0.13313694
0.13123647
0.12768535
0.12323691
0.11817308
0.11236987
0.10545747
0.096973262
0.086451603
0.07347099
0.057717573
0.039193277
0.016744343
0.13303435
0.13113734
0.12759542
0.12316217
0.11811756
0.11233435
0.10543981
0.096969351
0.086456358
0.073479233
0.057724871
0.0391969
0.01674412
0.13294078
0.13104717
0.12751419
0.1230956
0.11806932
0.11230496
0.10542697
0.096968907
0.08646333
0.073488664
0.057732639
0.039200622
0.016743934
0.13285594
0.13096565
0.12744133
0.12303683
0.11802798
0.11228131
0.10541857
0.096971616
0.08647228
0.073499124
0.057740795
0.039204415
0.016743782
0.1327795
0.13089244
0.1273765
0.12298547
0.11799314
0.11226302
0.10541427
0.096977174
0.086482977
0.073510464
0.057749259
0.039208255
0.016743663
0.13271112
0.1308272
0.12731932
0.12294114
0.11796439
0.11224968
0.1054137
0.096985289
0.086495201
0.073522538
0.057757957
0.039212116
0.016743573
0.13265046
0.13076958
0.12726941
0.12290343
0.11794135
0.11224091
0.10541652
0.096995673
0.086508738
0.07353521
0.057766817
0.039215974
0.016743511
0.13259715
0.13071919
0.12722639
0.12287196
0.1179236
0.11223634
0.1054224
0.097008051
0.086523384
0.073548346
0.057775771
0.039219805
0.016743475
0.1325508
0.13067564
0.12718986
0.12284632
0.11791075
0.1122356
0.10543101
0.09702216
0.086538946
0.073561824
0.057784753
0.039223588
0.016743462
0.13251104
0.13063856
0.12715942
0.12282611
0.11790242
0.11223832
0.10544203
0.097037751
0.086555243
0.073575529
0.057793708
0.039227304
0.01674347
0.13247749
0.13060756
0.12713468
0.12281093
0.11789822
0.11224417
0.10545518
0.097054592
0.08657211
0.07358936
0.057802584
0.039230935
0.016743497
0.13244976
0.13058224
0.12711526
0.12280041
0.1178978
0.11225281
0.10547018
0.09707247
0.086589398
0.073603227
0.057811339
0.039234469
0.016743541
0.13242748
0.13056224
0.12710078
0.12279419
0.11790081
0.11226394
0.10548678
0.09709119
0.086606973
0.073617051
0.057819937
0.039237897
0.016743599
0.13241027
0.13054718
0.12709088
0.12279189
0.11790693
0.11227729
0.10550474
0.097110578
0.086624718
0.073630765
0.05782835
0.039241213
0.016743671
0.1323978
0.13053671
0.12708519
0.1227932
0.11791584
0.11229256
0.10552385
0.097130469
0.086642524
0.073644309
0.057836553
0.039244412
0.016743755
0.13238969
0.13053048
0.12708337
0.12279777
0.11792725
0.11230952
0.1055439
0.097150715
0.086660295
0.07365763
0.057844526
0.03924749
0.016743849
0.1323856
0.13052814
0.12708509
0.12280529
0.11794086
0.11232791
0.10556469
0.097171175
0.086677937
0.073670677
0.057852243
0.039250426
0.016743953
0.1323852
0.13052935
0.12709002
0.12281545
0.1179564
0.11234751
0.10558605
0.097191715
0.086695365
0.073683401
0.057859683
0.039253203
0.016744064
0.13238814
0.13053377
0.12709783
0.12282795
0.1179736
0.11236808
0.10560779
0.097212206
0.086712495
0.073695751
0.057866804
0.039255832
0.016744181
0.1323941
0.13054109
0.1271082
0.12284248
0.1179922
0.1123894
0.10562975
0.097232527
0.086729247
0.073707683
0.057873589
0.039258313
0.016744303
0.13240275
0.13055097
0.12712083
0.12285877
0.11801195
0.11241129
0.10565176
0.097252567
0.086745545
0.073719137
0.057880041
0.039260645
0.016744428
0.13241378
0.13056312
0.12713542
0.12287655
0.11803263
0.11243354
0.10567369
0.097272225
0.086761327
0.07373009
0.05788615
0.039262827
0.016744556
0.1324269
0.13057725
0.1271517
0.12289558
0.11805401
0.11245598
0.10569541
0.097291407
0.086776519
0.073740537
0.05789191
0.03926486
0.016744684
0.13244184
0.13059309
0.12716942
0.12291561
0.1180759
0.11247847
0.10571681
0.097310035
0.086791104
0.073750463
0.057897321
0.039266746
0.016744813
0.13245834
0.13061038
0.12718834
0.12293644
0.11809813
0.11250087
0.10573778
0.097328048
0.086805064
0.073759859
0.057902386
0.03926849
0.016744942
0.13247616
0.1306289
0.12720823
0.12295788
0.11812054
0.11252305
0.10575823
0.09734542
0.086818381
0.073768728
0.057907111
0.039270098
0.016745069
0.1324951
0.13064843
0.12722892
0.12297976
0.118143
0.1125449
0.10577812
0.097362121
0.086831048
0.073777073
0.057911507
0.039271575
0.016745195
0.13251495
0.13066879
0.12725021
0.12300193
0.11816537
0.11256635
0.1057974
0.097378129
0.086843061
0.073784905
0.057915586
0.039272929
0.016745319
0.13253553
0.13068979
0.12727193
0.12302422
0.11818753
0.11258733
0.10581603
0.097393428
0.086854423
0.073792232
0.057919359
0.039274167
0.016745441
0.13255665
0.13071125
0.12729393
0.1230465
0.1182094
0.11260777
0.10583397
0.097408003
0.086865133
0.073799066
0.057922838
0.039275296
0.01674556
0.13257815
0.13073301
0.12731605
0.12306866
0.11823088
0.1126276
0.10585119
0.097421841
0.086875195
0.073805416
0.057926031
0.039276319
0.016745677
0.13259986
0.13075492
0.12733815
0.12309058
0.11825189
0.11264678
0.10586765
0.09743493
0.086884611
0.07381129
0.057928946
0.039277242
0.01674579
0.13262163
0.13077682
0.12736011
0.12311216
0.11827234
0.11266524
0.10588333
0.097447261
0.086893383
0.073816695
0.057931591
0.039278066
0.016745899
0.13264333
0.13079859
0.1273818
0.12313329
0.11829217
0.11268294
0.1058982
0.097458827
0.086901515
0.07382164
0.057933972
0.039278794
0.016746005
0.13266481
0.1308201
0.12740312
0.12315389
0.11831131
0.11269985
0.10591224
0.097469627
0.086909015
0.073826136
0.057936096
0.039279429
0.016746106
0.13268598
0.13084125
0.12742398
0.12317388
0.1183297
0.11271593
0.10592545
0.097479665
0.086915894
0.073830193
0.057937974
0.039279973
0.016746203
0.13270672
0.13086193
0.12744428
0.1231932
0.11834731
0.11273116
0.10593782
0.097488951
0.086922169
0.07383383
0.057939616
0.039280433
0.016746295
0.13272696
0.13088208
0.12746396
0.12321179
0.1183641
0.11274553
0.10594936
0.097497505
0.086927861
0.073837066
0.057941036
0.039280813
0.016746382
0.13274663
0.13090161
0.12748296
0.12322962
0.11838006
0.11275905
0.10596008
0.097505346
0.086932996
0.073839922
0.057942248
0.03928112
0.016746464
0.13276566
0.13092049
0.12750125
0.12324666
0.11839518
0.11277172
0.10597001
0.097512502
0.086937599
0.073842421
0.057943269
0.03928136
0.016746541
0.13278402
0.13093866
0.12751878
0.12326288
0.11840944
0.11278354
0.10597916
0.097518998
0.086941698
0.073844584
0.057944111
0.039281541
0.016746613
0.13280166
0.1309561
0.12753552
0.12327828
0.11842286
0.11279454
0.10598756
0.09752486
0.086945316
0.073846433
0.057944789
0.039281667
0.016746681
0.13281855
0.13097276
0.12755146
0.12329284
0.11843542
0.11280472
0.10599522
0.097530112
0.086948477
0.073847984
0.057945313
0.039281743
0.016746744
0.13283467
0.13098864
0.12756659
0.12330656
0.11844715
0.1128141
0.10600217
0.097534779
0.086951203
0.073849254
0.057945691
0.039281772
0.016746803
0.13285001
0.13100372
0.12758089
0.12331943
0.11845805
0.1128227
0.10600843
0.097538884
0.086953513
0.073850257
0.057945932
0.039281754
0.016746856
0.13286457
0.13101801
0.12759437
0.12333148
0.11846813
0.11283055
0.10601403
0.097542455
0.086955431
0.073851009
0.057946044
0.039281693
0.016746906
0.13287835
0.13103149
0.12760705
0.12334272
0.11847743
0.11283768
0.10601901
0.097545522
0.086956983
0.073851528
0.057946036
0.03928159
0.016746951
0.13289136
0.1310442
0.12761893
0.12335317
0.11848598
0.11284412
0.1060234
0.097548124
0.086958199
0.073851836
0.057945922
0.03928145
0.016746991
0.13290362
0.13105616
0.12763006
0.12336287
0.11849382
0.11284992
0.10602725
0.097550303
0.086959116
0.073851961
0.057945716
0.03928128
0.016747027
0.13291515
0.13106738
0.12764045
0.12337186
0.118501
0.11285513
0.10603061
0.097552107
0.086959773
0.073851931
0.057945438
0.039281088
0.016747059
0.13292598
0.1310779
0.12765014
0.12338018
0.11850756
0.11285981
0.10603353
0.097553583
0.086960211
0.073851776
0.057945107
0.039280882
0.016747088
0.13293611
0.13108772
0.12765915
0.12338786
0.11851353
0.11286399
0.10603606
0.097554771
0.086960463
0.073851523
0.057944739
0.039280673
0.016747114
0.13294553
0.13109684
0.12766749
0.12339491
0.11851895
0.1128677
0.10603822
0.097555703
0.086960558
0.073851193
0.05794435
0.039280467
0.016747138
0.13295423
0.13110526
0.12767515
0.12340133
0.11852381
0.11287096
0.10604004
0.097556395
0.086960511
0.073850799
0.057943947
0.03928027
0.01674716
0.13296216
0.13111294
0.12768211
0.1234071
0.11852812
0.11287376
0.10604151
0.09755685
0.086960324
0.07385034
0.057943531
0.039280082
0.01674718
0.1329693
0.13111983
0.12768833
0.1234122
0.11853184
0.11287608
0.10604262
0.097557052
0.086959982
0.073849807
0.057943092
0.039279897
0.016747198
0.13297559
0.13112591
0.12769377
0.12341659
0.11853494
0.11287789
0.10604333
0.097556978
0.086959466
0.073849179
0.057942617
0.039279706
0.016747214
0.13298101
0.13113113
0.1276984
0.12342025
0.1185374
0.11287917
0.10604363
0.097556599
0.086958749
0.073848436
0.057942088
0.039279499
0.016747228
0.13298555
0.13113548
0.12770221
0.12342315
0.11853921
0.1128799
0.10604349
0.097555898
0.086957811
0.073847559
0.057941488
0.039279264
0.016747238
0.13298923
0.131139
0.12770521
0.12342532
0.11854036
0.11288009
0.10604292
0.097554871
0.086956646
0.073846539
0.057940811
0.039278993
0.016747244
0.13299215
0.13114175
0.12770748
0.12342681
0.11854092
0.11287977
0.10604195
0.097553537
0.086955264
0.073845378
0.057940051
0.039278681
0.016747246
0.13299442
0.13114384
0.12770912
0.12342771
0.11854097
0.11287903
0.10604063
0.097551945
0.086953701
0.073844102
0.057939222
0.039278331
0.016747244
0.1329962
0.13114543
0.12771026
0.12342816
0.11854062
0.11287796
0.10603906
0.09755017
0.086952015
0.073842748
0.057938349
0.039277953
0.016747237
0.13299766
0.13114669
0.12771107
0.12342831
0.11854002
0.11287669
0.10603736
0.097548308
0.086950281
0.073841374
0.057937466
0.039277565
0.016747227
0.13299899
0.1311478
0.12771173
0.12342832
0.11853932
0.11287538
0.10603564
0.097546465
0.086948586
0.073840043
0.057936617
0.03927719
0.016747215
0.13300035
0.13114891
0.12771238
0.12342834
0.11853866
0.11287413
0.10603403
0.097544743
0.086947011
0.073838815
0.05793584
0.039276848
0.016747203
0.13300185
0.13115015
0.12771316
0.12342849
0.11853815
0.11287307
0.10603261
0.097543223
0.086945624
0.073837744
0.057935172
0.03927656
0.016747191
0.13300352
0.13115157
0.12771411
0.12342883
0.11853785
0.11287224
0.10603144
0.097541954
0.086944467
0.073836858
0.057934634
0.039276339
0.016747183
0.13300535
0.13115315
0.12771522
0.12342935
0.11853776
0.11287165
0.10603054
0.097540947
0.08694355
0.073836171
0.057934239
0.0392762
0.016747177
0.13300723
0.1311548
0.12771643
0.12342999
0.11853782
0.11287124
0.10602985
0.097540162
0.086942843
0.073835664
0.057933982
0.039276148
0.016747176
0.13300898
0.13115636
0.12771759
0.12343062
0.11853792
0.11287092
0.10602928
0.097539517
0.086942279
0.073835286
0.057933832
0.039276169
0.016747179
0.13301041
0.13115764
0.12771851
0.12343107
0.11853791
0.11287054
0.10602869
0.097538896
0.086941757
0.073834953
0.057933719
0.039276218
0.016747185
0.13301131
0.13115844
0.12771901
0.12343117
0.11853761
0.11286995
0.10602796
0.097538172
0.086941162
0.07383457
0.057933565
0.039276239
0.016747191
0.13301149
0.13115857
0.12771892
0.12343075
0.11853688
0.11286901
0.10602695
0.097537228
0.086940402