/*--------------------------------*- C++ -*----------------------------------*\
| =========                 |                                                 |
| \\      /  F ield         | OpenFOAM: The Open Source CFD Toolbox           |
|  \\    /   O peration     | Version:  2506                                  |
|   \\  /    A nd           | Website:  www.openfoam.com                      |
|    \\/     M anipulation  |                                                 |
\*---------------------------------------------------------------------------*/
FoamFile
{
    version     2.0;
    format      ascii;
    arch        "LSB;label=32;scalar=64";
    class       volScalarField;
    location    "16000/water";
    object      epsilon;
}
// * * * * * * * * * * * * * * * * * * * * * * * * * * * * * * * * * * * * * //

dimensions      [0 2 -3 0 0 0 0];

internalField   nonuniform List<scalar> 
2600
(
8.8079773e-05
8.8079245e-05
8.8079271e-05
8.807949e-05
8.8079744e-05
8.8080245e-05
8.8082926e-05
8.8104349e-05
8.8272771e-05
8.9512908e-05
9.8428186e-05
0.00017145296
0.0010138716
6.7789348e-05
6.7791881e-05
6.7793339e-05
6.7794963e-05
6.7796901e-05
6.7799886e-05
6.7810178e-05
6.7875511e-05
6.8312468e-05
7.1039872e-05
8.7857083e-05
0.00021159534
0.0014669324
5.3500886e-05
5.3503148e-05
5.3504846e-05
5.3506859e-05
5.3509287e-05
5.3513643e-05
5.3532992e-05
5.3656306e-05
5.4399641e-05
5.8506995e-05
8.1500797e-05
0.00023956052
0.0017068244
4.3127504e-05
4.3128883e-05
4.3130503e-05
4.3132598e-05
4.3135149e-05
4.3140834e-05
4.3171684e-05
4.3362646e-05
4.4413342e-05
4.9710824e-05
7.7552644e-05
0.00025818579
0.0017816909
3.539909e-05
3.5400132e-05
3.5401605e-05
3.5403513e-05
3.5405834e-05
3.5412916e-05
3.5457613e-05
3.5722605e-05
3.7073304e-05
4.3450503e-05
7.5629285e-05
0.00027290618
0.0017622817
2.9510599e-05
2.9511446e-05
2.95127e-05
2.9514227e-05
2.9516143e-05
2.9525119e-05
2.9586798e-05
2.9933924e-05
3.159515e-05
3.9095388e-05
7.5939385e-05
0.00028837858
0.0017002497
2.4935213e-05
2.4935877e-05
2.4936847e-05
2.4937875e-05
2.4939416e-05
2.4951342e-05
2.503458e-05
2.5477125e-05
2.7489448e-05
3.6318413e-05
7.8818158e-05
0.0003073199
0.0016256765
2.1318423e-05
2.1318913e-05
2.1319549e-05
2.132003e-05
2.1321464e-05
2.1338095e-05
2.144948e-05
2.2008273e-05
2.4447975e-05
3.4968795e-05
8.4593389e-05
0.00033066897
0.0015541994
1.8415642e-05
1.8415958e-05
1.8416233e-05
1.8416208e-05
1.8418091e-05
1.8442025e-05
1.8590687e-05
1.9295945e-05
2.2279378e-05
3.5010665e-05
9.3512814e-05
0.00035786641
0.0014930959
1.6054297e-05
1.6054439e-05
1.6054351e-05
1.6053968e-05
1.6057197e-05
1.6092028e-05
1.6290179e-05
1.7183376e-05
2.0872546e-05
3.6486908e-05
0.00010564207
0.00038720676
0.0014449141
1.411016e-05
1.4110129e-05
1.4109712e-05
1.4109249e-05
1.4115119e-05
1.4165612e-05
1.4429188e-05
1.5565379e-05
2.0175367e-05
3.9486471e-05
0.00012074249
0.00041640751
0.0014094648
1.249217e-05
1.2491978e-05
1.249131e-05
1.24912e-05
1.2501471e-05
1.2573786e-05
1.2923263e-05
1.4374121e-05
2.0181311e-05
4.4103574e-05
0.00013819401
0.0004433175
0.0013850187
1.1132483e-05
1.1132152e-05
1.1131368e-05
1.1132227e-05
1.1149209e-05
1.1251189e-05
1.1712642e-05
1.3570321e-05
2.0918928e-05
5.0386672e-05
0.00015703479
0.00046647967
0.0013691707
9.9797899e-06
9.9793621e-06
9.9786681e-06
9.9813266e-06
1.0007987e-05
1.0149541e-05
1.0756002e-05
1.3137755e-05
2.2440689e-05
5.8285038e-05
0.00017613324
0.00048532287
0.0013594869
8.994766e-06
8.994305e-06
8.9939894e-06
8.9995396e-06
9.0396464e-06
9.2332357e-06
1.0026406e-05
1.3079617e-05
2.4808572e-05
6.7609618e-05
0.00019442665
0.00050000486
0.0013539038
8.1468971e-06
8.1464947e-06
8.1469469e-06
8.1567947e-06
8.2150975e-06
8.4763588e-06
9.5087285e-06
1.3415553e-05
2.807526e-05
7.8026841e-05
0.0002111215
0.00051110137
0.0013508788
7.4122408e-06
7.412023e-06
7.4137548e-06
7.4296903e-06
7.5121568e-06
7.8606834e-06
9.1980663e-06
1.4178291e-05
3.2262331e-05
8.9094589e-05
0.00022578146
0.00051932558
0.0013493668
6.7718206e-06
6.7719549e-06
6.7756276e-06
6.7999151e-06
6.9140283e-06
7.3743439e-06
9.0987625e-06
1.5408888e-05
3.7339829e-05
0.00010033156
0.00023829849
0.00052535583
0.0013487149
6.2104575e-06
6.2111621e-06
6.2176208e-06
6.2531142e-06
6.4082476e-06
7.0110033e-06
9.2236697e-06
1.7149875e-05
4.3213605e-05
0.00011129559
0.0002487951
0.00052976262
0.0013485457
5.7159095e-06
5.7174657e-06
5.7277834e-06
5.7780724e-06
5.9859581e-06
6.7693776e-06
9.5932706e-06
1.9436233e-05
4.9726067e-05
0.00012164394
0.00025751549
0.00053299526
0.0013486594
5.2782322e-06
5.2809984e-06
5.2965329e-06
5.3661281e-06
5.6414368e-06
6.6530083e-06
1.0234238e-05
2.228513e-05
5.6672016e-05
0.00013115952
0.00026474159
0.0005353945
0.0013489619
4.889296e-06
4.893728e-06
4.9161934e-06
5.0107595e-06
5.3718124e-06
6.6701645e-06
1.1177042e-05
2.5686553e-05
6.3825678e-05
0.00013974422
0.00027074338
0.00053721257
0.0013494179
4.5424222e-06
4.549097e-06
4.5806559e-06
4.707302e-06
5.1769356e-06
6.8337316e-06
1.2452335e-05
2.9597477e-05
7.097079e-05
0.00014739148
0.0002757568
0.0005386328
0.0013500205
4.2321037e-06
4.2417515e-06
4.2851315e-06
4.4527719e-06
5.0593678e-06
7.1609028e-06
1.4086152e-05
3.394183e-05
7.7925113e-05
0.00015415333
0.00027997823
0.00053978641
0.0013507744
3.9537926e-06
3.9673375e-06
4.0259782e-06
4.2457763e-06
5.0244498e-06
7.6724685e-06
1.6094424e-05
3.8616919e-05
8.4553952e-05
0.00016011197
0.00028356674
0.00054076616
0.0013516866
3.7037376e-06
3.7223496e-06
3.8005873e-06
4.0864974e-06
5.0804009e-06
8.3914976e-06
1.8477844e-05
4.3504911e-05
9.0772061e-05
0.00016536002
0.00028664926
0.00054163685
0.0013527623
3.4788613e-06
3.504022e-06
3.6073203e-06
3.9767408e-06
5.2383695e-06
9.3412706e-06
2.1218352e-05
4.8486363e-05
9.6537094e-05
0.00016998886
0.00028932618
0.00054244334
0.0013540034
3.2766694e-06
3.3102566e-06
3.4454921e-06
3.9200366e-06
5.5123349e-06
1.0542478e-05
2.4278371e-05
5.3452376e-05
0.00010183911
0.00017408281
0.00029167656
0.00054321637
0.0013554084
3.0951868e-06
3.1395803e-06
3.315394e-06
3.9217755e-06
5.9187331e-06
1.2009945e-05
2.7603266e-05
5.8312862e-05
0.0001066899
0.00017771679
0.00029376257
0.00054397675
0.0013569728
2.9329181e-06
2.991133e-06
3.2183574e-06
3.9893517e-06
6.4756801e-06
1.3749403e-05
3.112658e-05
6.3000085e-05
0.00011111418
0.0001809559
0.00029563313
0.00054473837
0.0013586903
2.7888292e-06
2.8646819e-06
3.1568533e-06
4.132263e-06
7.2016968e-06
1.5755029e-05
3.4776808e-05
6.7468124e-05
0.00011514328
0.00018385585
0.00029732665
0.00054550992
0.0013605531
2.6623516e-06
2.7606642e-06
3.1346229e-06
4.362102e-06
8.1139276e-06
1.8008404e-05
3.8484156e-05
7.1689805e-05
0.00011881108
0.00018646428
0.00029887505
0.00054629402
0.0013625491
2.5534088e-06
2.680258e-06
3.1568304e-06
4.6923497e-06
9.2259801e-06
2.0479255e-05
4.21859e-05
7.5652556e-05
0.00012215122
0.00018882083
0.00030030032
0.00054708344
0.001364665
2.4624667e-06
2.6254827e-06
3.2302147e-06
5.1378784e-06
1.0545685e-05
2.3127918e-05
4.5829653e-05
7.935444e-05
0.00012519597
0.00019095973
0.00030162122
0.00054787013
0.0013668874
2.3906118e-06
2.5993266e-06
3.3632046e-06
5.7140892e-06
1.2073206e-05
2.5908985e-05
4.9374528e-05
8.2800768e-05
0.00012797522
0.0001929092
0.00030285018
0.00054865287
0.0013692048
2.3396576e-06
2.6059009e-06
3.5659451e-06
6.4356567e-06
1.3799941e-05
2.8775319e-05
5.2790669e-05
8.6001444e-05
0.00013051585
0.0001946916
0.00030399376
0.00054944273
0.0013716092
2.3122834e-06
2.6506068e-06
3.8501618e-06
7.3149533e-06
1.5708513e-05
3.1681693e-05
5.6057927e-05
8.8969442e-05
0.00013284315
0.00019632773
0.00030505437
0.00055025018
0.0013740956
2.312204e-06
2.7402971e-06
4.2287856e-06
8.3603382e-06
1.7773921e-05
3.4587408e-05
5.9163895e-05
9.1718485e-05
0.000134977
0.0001978295
0.00030604752
0.00055107622
0.0013766577
2.3443665e-06
2.8833943e-06
4.7152661e-06
9.5746047e-06
1.9965609e-05
3.7457895e-05
6.2102576e-05
9.4263948e-05
0.00013693775
0.00019920349
0.00030698675
0.00055192215
0.0013792894
2.4151613e-06
3.08991e-06
5.3225445e-06
1.0953905e-05
2.2249994e-05
4.0265061e-05
6.4872079e-05
9.6618924e-05
0.00013873802
0.00020046565
0.00030788006
0.00055278756
0.0013819844
2.5326205e-06
3.3712892e-06
6.061731e-06
1.2487422e-05
2.4593018e-05
4.2987258e-05
6.7474462e-05
9.8797813e-05
0.00014038632
0.00020163083
0.00030873382
0.00055367121
0.0013847362
2.7065545e-06
3.7399971e-06
6.9406292e-06
1.4157864e-05
2.6962173e-05
4.560817e-05
6.9912765e-05
0.00010081055
0.00014189658
0.00020271014
0.00030955281
0.00055457138
0.0013875385
2.9485502e-06
4.2087763e-06
7.9623506e-06
1.5942735e-05
2.9328092e-05
4.8116705e-05
7.2192973e-05
0.00010266311
0.00014328329
0.00020371267
0.00031034059
0.00055548596
0.0013903847
3.2717207e-06
4.7895536e-06
9.1242825e-06
1.7815987e-05
3.1665001e-05
5.0504533e-05
7.431848e-05
0.00010436656
0.0001445581
0.0002046458
0.00031109971
0.0005564126
0.0013932687
3.6900858e-06
5.4920731e-06
1.0417684e-05
1.9750012e-05
3.3951699e-05
5.2768184e-05
7.6289669e-05
0.00010593299
0.00014573089
0.00020551555
0.00031183197
0.00055734878
0.0013961839
4.2174848e-06
6.3224281e-06
1.1827952e-05
2.1717141e-05
3.6170246e-05
5.490116e-05
7.8113758e-05
0.00010737249
0.00014680994
0.00020632674
0.00031253851
0.00055829181
0.0013991244
4.8660262e-06
7.2817748e-06
1.3335593e-05
2.3691123e-05
3.8306688e-05
5.6898168e-05
7.9798305e-05
0.0001086939
0.00014780214
0.00020708321
0.00031321994
0.00055923891
0.0014020837
5.6442495e-06
8.3655568e-06
1.4917866e-05
2.5648781e-05
4.0344258e-05
5.8760207e-05
8.13501e-05
0.00010990478
0.00014871322
0.00020778792
0.00031387636
0.00056018713
0.0014050556
6.5553594e-06
9.5634601e-06
1.6550686e-05
2.7565321e-05
4.2272541e-05
6.0488808e-05
8.2775228e-05
0.00011101156
0.00014954783
0.00020844308
0.00031450745
0.00056113341
0.0014080338
7.5961535e-06
1.0860441e-05
1.8207369e-05
2.9419102e-05
4.408453e-05
6.2085814e-05
8.4079034e-05
0.0001120196
0.00015030969
0.00020905022
0.00031511249
0.00056207453
0.0014110119
8.7563153e-06
1.2235551e-05
1.9861232e-05
3.1193216e-05
4.5774965e-05
6.355318e-05
8.5266112e-05
0.00011293328
0.00015100165
0.00020961023
0.00031569038
0.00056300711
0.0014139832
1.0017521e-05
1.3664334e-05
2.1488448e-05
3.2873858e-05
4.7340054e-05
6.4892867e-05
8.6340347e-05
0.00011375612
0.0001516258
0.00021012347
0.00031623966
0.00056392755
0.0014169405
1.13559e-05
1.5121211e-05
2.3068171e-05
3.4450178e-05
4.8777289e-05
6.6106812e-05
8.7304984e-05
0.00011449085
0.00015218355
0.00021058975
0.00031675852
0.00056483204
0.0014198766
1.2744264e-05
1.658108e-05
2.4582902e-05
3.5914123e-05
5.0085354e-05
6.719697e-05
8.8162738e-05
0.00011513953
0.00015267569
0.00021100843
0.00031724482
0.00056571653
0.0014227834
1.4154481e-05
1.8020637e-05
2.6018604e-05
3.7260264e-05
5.1264092e-05
6.8165413e-05
8.8915932e-05
0.0001157037
0.00015310253
0.00021137848
0.00031769616
0.00056657675
0.0014256524
1.5559579e-05
1.9419301e-05
2.7364606e-05
3.8485597e-05
5.2314489e-05
6.9014449e-05
8.9566665e-05
0.0001161845
0.00015346401
0.00021169859
0.00031810989
0.00056740823
0.0014284744
1.6935337e-05
2.0759786e-05
2.8613377e-05
3.9589303e-05
5.3238669e-05
6.9746757e-05
9.0116988e-05
0.00011658289
0.00015375983
0.00021196724
0.00031848323
0.00056820634
0.0014312396
1.8261267e-05
2.2028324e-05
2.9760206e-05
4.0572478e-05
5.4039842e-05
7.0365496e-05
9.0569077e-05
0.00011689975
0.00015398961
0.00021218284
0.00031881337
0.0005689664
0.0014339377
1.9521046e-05
2.3214634e-05
3.0802834e-05
4.1437841e-05
5.4722227e-05
7.0874392e-05
9.0925391e-05
0.00011713613
0.00015415307
0.0002123439
0.00031909759
0.00056968379
0.0014365579
2.0702514e-05
2.4311687e-05
3.1741085e-05
4.2189435e-05
5.5290937e-05
7.1277772e-05
9.1188791e-05
0.00011729337
0.00015425016
0.00021244916
0.00031933341
0.00057035412
0.0014390892
2.1797368e-05
2.5315352e-05
3.2576489e-05
4.2832332e-05
5.5751828e-05
7.1580558e-05
9.1362626e-05
0.00011737319
0.0001542812
0.00021249774
0.00031951874
0.00057097332
0.0014415208
2.2800692e-05
2.6223982e-05
3.3311941e-05
4.3372362e-05
5.6111337e-05
7.1788219e-05
9.1450777e-05
0.00011737787
0.00015424704
0.00021248927
0.00031965202
0.0005715379
0.0014438419
2.3710402e-05
2.7037976e-05
3.3951387e-05
4.3815873e-05
5.6376315e-05
7.1906691e-05
9.1457656e-05
0.00011731022
0.00015414911
0.00021242401
0.00031973234
0.00057204499
0.0014460427
2.45267e-05
2.775936e-05
3.4499554e-05
4.4169528e-05
5.6553869e-05
7.1942283e-05
9.1388169e-05
0.00011717368
0.00015398951
0.00021230291
0.00031975954
0.00057249257
0.001448114
2.5251561e-05
2.8391402e-05
3.4961706e-05
4.444013e-05
5.6651212e-05
7.1901558e-05
9.1247655e-05
0.00011697222
0.00015377099
0.00021212768
0.00031973427
0.00057287945
0.0014500481
2.5888277e-05
2.8938285e-05
3.5343455e-05
4.4634485e-05
5.6675545e-05
7.1791234e-05
9.1041802e-05
0.00011671034
0.00015349694
0.00021190076
0.00031965799
0.00057320541
0.0014518386
2.6441081e-05
2.9404816e-05
3.5650591e-05
4.4759302e-05
5.6633948e-05
7.1618067e-05
9.0776554e-05
0.00011639299
0.00015317136
0.00021162526
0.00031953294
0.00057347115
0.0014534809
2.6914834e-05
2.9796196e-05
3.5888957e-05
4.4821107e-05
5.6533305e-05
7.1388766e-05
9.0458012e-05
0.00011602548
0.00015279874
0.00021130498
0.00031936212
0.00057367824
0.0014549719
2.731477e-05
3.0117836e-05
3.6064345e-05
4.4826183e-05
5.6380236e-05
7.1109904e-05
9.0092342e-05
0.00011561335
0.00015238399
0.00021094419
0.00031914913
0.00057382909
0.0014563106
2.7646311e-05
3.037521e-05
3.6182416e-05
4.4780537e-05
5.6181059e-05
7.0787857e-05
8.9685678e-05
0.00011516232
0.00015193234
0.00021054764
0.00031889812
0.00057392678
0.0014574976
2.7914911e-05
3.0573746e-05
3.6248644e-05
4.4689864e-05
5.5941754e-05
7.0428742e-05
8.9244048e-05
0.00011467816
0.0001514492
0.00021012035
0.00031861363
0.00057397499
0.0014585351
2.8125956e-05
3.071874e-05
3.6268274e-05
4.4559536e-05
5.5667947e-05
7.0038381e-05
8.87733e-05
0.00011416656
0.00015094006
0.00020966751
0.00031830045
0.00057397784
0.0014594269
2.8284674e-05
3.0815302e-05
3.6246294e-05
4.4394595e-05
5.5364899e-05
6.9622266e-05
8.8279043e-05
0.00011363314
0.00015041038
0.00020919438
0.0003179635
0.00057393973
0.0014601782
2.8396093e-05
3.0868313e-05
3.6187414e-05
4.4199747e-05
5.5037505e-05
6.9185541e-05
8.7766603e-05
0.00011308327
0.00014986552
0.00020870617
0.00031760771
0.00057386523
0.0014607953
2.8464992e-05
3.0882399e-05
3.6096061e-05
4.3979368e-05
5.4690294e-05
6.8732986e-05
8.7240984e-05
0.0001125221
0.00014931061
0.0002082079
0.00031723789
0.00057375898
0.0014612853
2.8495889e-05
3.0861916e-05
3.5976374e-05
4.3737514e-05
5.4327439e-05
6.8269016e-05
8.6706843e-05
0.00011195443
0.00014875053
0.00020770439
0.00031685867
0.00057362552
0.0014616562
2.8493022e-05
3.0810943e-05
3.5832202e-05
4.3477923e-05
5.3952764e-05
6.7797677e-05
8.6168472e-05
0.00011138475
0.00014818983
0.00020720012
0.00031647439
0.00057346927
0.0014619165
2.8460351e-05
3.073328e-05
3.5667117e-05
4.3204031e-05
5.3569758e-05
6.7322653e-05
8.5629789e-05
0.00011081716
0.00014763269
0.00020669924
0.00031608905
0.00057329441
0.0014620748
2.8401556e-05
3.0632455e-05
3.5484411e-05
4.2918983e-05
5.3181586e-05
6.6847272e-05
8.5094337e-05
0.00011025537
0.0001470829
0.00020620548
0.00031570629
0.00057310484
0.0014621402
2.8320042e-05
3.0511725e-05
3.5287116e-05
4.2625648e-05
5.2791106e-05
6.6374523e-05
8.4565288e-05
0.00010970271
0.00014654385
0.00020572217
0.00031532933
0.00057290415
0.0014621214
2.8218951e-05
3.0374092e-05
3.5078007e-05
4.2326626e-05
5.2400885e-05
6.5907063e-05
8.4045453e-05
0.00010916211
0.0001460185
0.00020525221
0.00031496101
0.00057269559
0.0014620273
2.8101172e-05
3.022231e-05
3.4859619e-05
4.2024269e-05
5.2013211e-05
6.544724e-05
8.353729e-05
0.00010863613
0.00014550942
0.00020479809
0.00031460373
0.00057248207
0.0014618664
2.796935e-05
3.0058896e-05
3.4634255e-05
4.1720695e-05
5.1630114e-05
6.4997102e-05
8.3042925e-05
0.00010812695
0.00014501877
0.00020436187
0.0003142595
0.00057226617
0.0014616467
2.7825902e-05
2.9886143e-05
3.4404002e-05
4.1417794e-05
5.1253378e-05
6.4558423e-05
8.2564167e-05
0.00010763639
0.00014454835
0.00020394523
0.00031392996
0.0005720501
0.0014613762
2.7673027e-05
2.9706137e-05
3.4170742e-05
4.1117251e-05
5.088456e-05
6.4132715e-05
8.2102529e-05
0.00010716596
0.00014409957
0.00020354948
0.00031361637
0.00057183575
0.0014610621
2.7512721e-05
2.952076e-05
3.3936164e-05
4.0820554e-05
5.0525005e-05
6.3721249e-05
8.1659245e-05
0.00010671685
0.00014367354
0.0002031756
0.00031331978
0.00057162448
0.001460711
2.7346788e-05
2.9331712e-05
3.3701776e-05
4.0529011e-05
5.017586e-05
6.3325072e-05
8.1235296e-05
0.00010628995
0.00014327103
0.00020282423
0.00031304069
0.00057141638
0.0014603285
2.7176855e-05
2.9140519e-05
3.346892e-05
4.0243758e-05
4.9838092e-05
6.2945027e-05
8.0831429e-05
0.00010588593
0.00014289261
0.00020249588
0.00031277952
0.00057120925
0.0014599197
2.700438e-05
2.8948543e-05
3.3238781e-05
3.9965777e-05
4.9512498e-05
6.2581766e-05
8.0448177e-05
0.00010550517
0.00014253849
0.00020219043
0.00031253534
0.00057100467
0.0014594896
2.683067e-05
2.8756997e-05
3.3012397e-05
3.9695903e-05
4.9199725e-05
6.2235779e-05
8.0085897e-05
0.00010514794
0.00014220886
0.00020190801
0.00031230612
0.00057080572
0.0014590437
2.6656885e-05
2.8566954e-05
3.2790674e-05
3.943484e-05
4.8900279e-05
6.1907401e-05
7.9744773e-05
0.00010481424
0.00014190344
0.00020164699
0.00031209277
0.00057061395
0.0014585869
2.6484056e-05
2.8379359e-05
3.2574394e-05
3.918317e-05
4.8614543e-05
6.1596828e-05
7.9424821e-05
0.00010450389
0.00014162171
0.0002014064
0.00031189577
0.0005704305
0.0014581236
2.6313088e-05
2.8195038e-05
3.2364225e-05
3.8941367e-05
4.8342789e-05
6.1304151e-05
7.9125976e-05
0.00010421667
0.00014136221
0.00020118622
0.00031171523
0.00057025612
0.0014576578
2.6144778e-05
2.8014707e-05
3.2160734e-05
3.8709804e-05
4.808519e-05
6.1029344e-05
7.8847991e-05
0.00010395153
0.00014112446
0.00020098613
0.00031155097
0.0005700913
0.0014571931
2.5979817e-05
2.7838986e-05
3.1964391e-05
3.8488765e-05
4.7841825e-05
6.0772277e-05
7.8590337e-05
0.00010370764
0.00014090797
0.00020080565
0.00031140264
0.00056993628
0.0014567324
2.5818803e-05
2.76684e-05
3.1775585e-05
3.8278457e-05
4.7612705e-05
6.0532704e-05
7.8352153e-05
0.00010348449
0.00014071215
0.00020064412
0.00031126975
0.00056979118
0.0014562785
2.566225e-05
2.7503398e-05
3.1594631e-05
3.8079033e-05
4.7397755e-05
6.0309955e-05
7.8132957e-05
0.00010328146
0.00014053627
0.00020050083
0.00031115169
0.00056965596
0.0014558335
2.5510598e-05
2.7344359e-05
3.1421798e-05
3.7890532e-05
4.7196571e-05
6.0103638e-05
7.7932201e-05
0.00010309787
0.00014037955
0.00020037494
0.00031104781
0.00056953049
0.0014553995
2.5364226e-05
2.7191603e-05
3.1257211e-05
3.7712808e-05
4.7008895e-05
5.9913322e-05
7.7749284e-05
0.00010293297
0.00014024112
0.00020026558
0.00031095737
0.00056941459
0.0014549781
2.5223415e-05
2.704532e-05
3.1100914e-05
3.7545747e-05
4.6834436e-05
5.9738532e-05
7.7583563e-05
0.00010278596
0.00014012009
0.00020017184
0.0003108796
0.00056930797
0.0014545707
2.5088366e-05
2.6905645e-05
3.0952916e-05
3.7389202e-05
4.6672868e-05
5.9578761e-05
7.7434353e-05
0.00010265602
0.00014001553
0.00020009278
0.00031081372
0.00056921032
0.0014541784
2.495923e-05
2.6772668e-05
3.081319e-05
3.7242993e-05
4.6523836e-05
5.943347e-05
7.7300942e-05
0.00010254228
0.00013992649
0.00020002744
0.00031075894
0.00056912129
0.0014538021
2.4836111e-05
2.6646438e-05
3.0681675e-05
3.7106908e-05
4.6386956e-05
5.9302094e-05
7.7182594e-05
0.00010244386
0.00013985199
0.00019997488
0.00031071445
0.00056904048
0.0014534425
2.4719072e-05
2.6526967e-05
3.0558278e-05
3.6980711e-05
4.6261821e-05
5.918405e-05
7.7078558e-05
0.00010235988
0.00013979109
0.00019993414
0.00031067948
0.00056896751
0.0014531
2.4608143e-05
2.6414235e-05
3.0442878e-05
3.6864138e-05
4.6148003e-05
5.9078735e-05
7.6988072e-05
0.00010228945
0.00013974282
0.0001999043
0.00031065326
0.00056890197
0.001452775
2.4503322e-05
2.6308192e-05
3.0335324e-05
3.6756905e-05
4.6045056e-05
5.8985538e-05
7.691037e-05
0.00010223168
0.00013970626
0.00019988447
0.00031063505
0.00056884346
0.0014524677
2.4404576e-05
2.6208761e-05
3.0235447e-05
3.6658708e-05
4.5952523e-05
5.8903838e-05
7.6844685e-05
0.00010218571
0.00013968047
0.00019987377
0.00031062415
0.00056879162
0.001452178
2.4311849e-05
2.611584e-05
3.0143054e-05
3.6569229e-05
4.5869933e-05
5.8833013e-05
7.6790257e-05
0.00010215067
0.00013966457
0.00019987135
0.00031061989
0.00056874605
0.0014519059
2.422506e-05
2.6029307e-05
3.0057934e-05
3.6488133e-05
4.579681e-05
5.8772439e-05
7.6746334e-05
0.00010212573
0.0001396577
0.00019987643
0.00031062162
0.00056870642
0.0014516512
2.4144107e-05
2.594902e-05
2.9979861e-05
3.6415077e-05
4.5732671e-05
5.8721493e-05
7.6712174e-05
0.00010211006
0.00013965901
0.00019988823
0.00031062873
0.00056867235
0.0014514137
2.4068872e-05
2.587482e-05
2.9908595e-05
3.6349708e-05
4.5677034e-05
5.8679562e-05
7.6687053e-05
0.00010210288
0.00013966773
0.00019990602
0.00031064065
0.00056864349
0.0014511932
2.3999217e-05
2.5806533e-05
2.9843885e-05
3.6291665e-05
4.5629412e-05
5.8646037e-05
7.6670263e-05
0.00010210341
0.00013968307
0.0001999291
0.00031065681
0.0005686195
0.0014509892
2.3934993e-05
2.5743973e-05
2.9785468e-05
3.6240585e-05
4.5589325e-05
5.8620322e-05
7.6661114e-05
0.00010211093
0.0001397043
0.00019995683
0.00031067671
0.00056860002
0.0014508013
2.3876034e-05
2.5686942e-05
2.9733076e-05
3.6196101e-05
4.5556294e-05
5.8601832e-05
7.665894e-05
0.00010212471
0.00013973074
0.00019998857
0.00031069984
0.0005685847
0.0014506292
2.3822167e-05
2.5635232e-05
2.9686433e-05
3.6157846e-05
4.5529848e-05
5.8589998e-05
7.6663096e-05
0.00010214409
0.00013976173
0.00020002375
0.00031072574
0.00056857321
0.0014504722
2.3773209e-05
2.5588628e-05
2.9645262e-05
3.6125452e-05
4.5509524e-05
5.8584265e-05
7.6672964e-05
0.00010216841
0.00013979664
0.00020006183
0.00031075399
0.00056856522
0.0014503298
2.3728967e-05
2.5546909e-05
2.960928e-05
3.6098557e-05
4.5494866e-05
5.8584097e-05
7.6687952e-05
0.00010219708
0.0001398349
0.00020010229
0.00031078418
0.00056856044
0.0014502014
2.3689245e-05
2.5509851e-05
2.9578205e-05
3.6076802e-05
4.5485434e-05
5.858898e-05
7.6707495e-05
0.00010222952
0.00013987597
0.00020014469
0.00031081596
0.00056855858
0.0014500863
2.365384e-05
2.5477225e-05
2.9551755e-05
3.6059832e-05
4.5480797e-05
5.8598415e-05
7.6731055e-05
0.00010226518
0.00013991935
0.00020018858
0.000310849
0.00056855939
0.0014499839
2.3622547e-05
2.5448799e-05
2.9529648e-05
3.6047302e-05
4.5480538e-05
5.8611928e-05
7.6758124e-05
0.00010230356
0.00013996456
0.00020023358
0.00031088298
0.00056856263
0.0014498936
2.3595157e-05
2.5424343e-05
2.9511608e-05
3.6038872e-05
4.5484255e-05
5.8629065e-05
7.6788221e-05
0.00010234419
0.00014001118
0.00020027933
0.00031091765
0.00056856807
0.0014498147
2.3571462e-05
2.5403627e-05
2.949736e-05
3.6034211e-05
4.5491561e-05
5.8649393e-05
7.6820894e-05
0.00010238661
0.00014005881
0.00020032549
0.00031095273
0.00056857547
0.0014497466
2.3551251e-05
2.538642e-05
2.9486635e-05
3.6033001e-05
4.5502084e-05
5.8672503e-05
7.6855717e-05
0.00010243043
0.00014010708
0.00020037178
0.000310988
0.00056858463
0.0014496888
2.3534317e-05
2.5372495e-05
2.9479168e-05
3.6034929e-05
4.5515469e-05
5.8698007e-05
7.6892292e-05
0.00010247526
0.00014015566
0.0002004179
0.00031102324
0.00056859533
0.0014496405
2.3520452e-05
2.536163e-05
2.9474703e-05
3.6039698e-05
4.5531376e-05
5.8725538e-05
7.6930249e-05
0.00010252076
0.00014020424
0.00020046362
0.00031105825
0.00056860735
0.0014496012
2.3509451e-05
2.5353602e-05
2.9472989e-05
3.604702e-05
4.5549484e-05
5.8754754e-05
7.6969244e-05
0.00010256659
0.00014025255
0.00020050871
0.00031109286
0.0005686205
0.0014495703
2.3501115e-05
2.5348198e-05
2.9473783e-05
3.6056618e-05
4.5569488e-05
5.8785334e-05
7.7008959e-05
0.00010261248
0.00014030033
0.00020055299
0.0003111269
0.00056863459
0.0014495471
2.3495244e-05
2.5345207e-05
2.9476851e-05
3.6068231e-05
4.5591101e-05
5.8816977e-05
7.7049101e-05
0.00010265815
0.00014034737
0.00020059626
0.00031116024
0.00056864945
0.0014495311
2.3491647e-05
2.5344425e-05
2.9481968e-05
3.6081607e-05
4.5614051e-05
5.8849407e-05
7.7089405e-05
0.00010270336
0.00014039347
0.00020063839
0.00031119275
0.00056866493
0.0014495216
2.3490135e-05
2.5345655e-05
2.9488917e-05
3.609651e-05
4.5638088e-05
5.8882367e-05
7.7129626e-05
0.00010274791
0.00014043845
0.00020067926
0.00031122435
0.0005686809
0.0014495181
2.3490528e-05
2.5348706e-05
2.9497492e-05
3.6112716e-05
4.5662974e-05
5.8915623e-05
7.7169547e-05
0.00010279161
0.00014048218
0.00020071874
0.00031125494
0.00056869724
0.00144952
2.3492649e-05
2.5353394e-05
2.9507495e-05
3.6130014e-05
4.5688491e-05
5.894896e-05
7.7208968e-05
0.00010283428
0.00014052453
0.00020075676
0.00031128447
0.00056871384
0.0014495268
2.3496328e-05
2.5359544e-05
2.9518741e-05
3.6148206e-05
4.5714438e-05
5.8982181e-05
7.7247715e-05
0.00010287579
0.00014056538
0.00020079324
0.00031131286
0.0005687306
0.0014495381
2.3501403e-05
2.5366988e-05
2.9531052e-05
3.6167108e-05
4.5740628e-05
5.901511e-05
7.7285632e-05
0.00010291601
0.00014060465
0.00020082812
0.00031134008
0.00056874742
0.0014495533
2.3507718e-05
2.5375565e-05
2.954426e-05
3.6186547e-05
4.576689e-05
5.9047586e-05
7.732258e-05
0.00010295483
0.00014064226
0.00020086136
0.00031136607
0.00056876421
0.0014495721
2.3515125e-05
2.5385125e-05
2.955821e-05
3.6206364e-05
4.5793068e-05
5.9079468e-05
7.735844e-05
0.00010299216
0.00014067816
0.00020089292
0.00031139081
0.00056878086
0.0014495941
2.3523481e-05
2.5395523e-05
2.9572754e-05
3.6226412e-05
4.5819021e-05
5.9110629e-05
7.739311e-05
0.00010302794
0.00014071231
0.00020092278
0.00031141427
0.00056879729
0.0014496189
2.3532653e-05
2.5406623e-05
2.9587755e-05
3.6246556e-05
4.5844623e-05
5.9140959e-05
7.7426502e-05
0.00010306209
0.00014074466
0.00020095093
0.00031143644
0.00056881338
0.0014496459
2.3542515e-05
2.5418299e-05
2.9603086e-05
3.6266671e-05
4.586976e-05
5.9170361e-05
7.7458545e-05
0.00010309458
0.00014077521
0.00020097736
0.00031145729
0.00056882897
0.0014496749
2.3552948e-05
2.5430432e-05
2.961863e-05
3.6286647e-05
4.5894332e-05
5.9198754e-05
7.7489183e-05
0.00010312538
0.00014080396
0.0002010021
0.00031147683
0.00056884377
0.0014497053
2.356384e-05
2.544291e-05
2.9634279e-05
3.6306382e-05
4.591825e-05
5.9226071e-05
7.751837e-05
0.00010315447
0.0001408309
0.00020102515
0.00031149501
0.00056885777
0.0014497369
2.3575088e-05
2.5455633e-05
2.9649935e-05
3.6325787e-05
4.5941441e-05
5.9252255e-05
7.7546079e-05
0.00010318185
0.00014085606
0.00020104654
0.0003115117
0.00056887109
0.0014497692
2.3586596e-05
2.5468505e-05
2.9665508e-05
3.6344782e-05
4.5963838e-05
5.9277264e-05
7.757229e-05
0.00010320752
0.00014087946
0.00020106627
0.00031152698
0.00056888381
0.001449802
2.3598276e-05
2.5481441e-05
2.9680918e-05
3.6363297e-05
4.598539e-05
5.9301066e-05
7.7596997e-05
0.00010323151
0.00014090114
0.00020108427
0.00031154096
0.00056889598
0.0014498352
2.3610044e-05
2.549436e-05
2.9696093e-05
3.6381272e-05
4.6006052e-05
5.9323639e-05
7.7620202e-05
0.00010325383
0.00014092107
0.00020110064
0.00031155371
0.00056890761
0.0014498685
2.3621827e-05
2.5507192e-05
2.9710968e-05
3.6398654e-05
4.602579e-05
5.9344971e-05
7.7641914e-05
0.00010327451
0.00014093927
0.00020111547
0.0003115653
0.00056891873
0.0014499019
2.3633557e-05
2.5519871e-05
2.9725486e-05
3.6415401e-05
4.604458e-05
5.9365061e-05
7.7662156e-05
0.00010329352
0.00014095582
0.00020112884
0.00031157581
0.00056892934
0.001449935
2.3645172e-05
2.5532341e-05
2.9739599e-05
3.6431477e-05
4.6062405e-05
5.9383912e-05
7.7680913e-05
0.00010331091
0.00014097079
0.00020114081
0.00031158527
0.00056893943
0.0014499678
2.3656616e-05
2.554455e-05
2.9753265e-05
3.6446855e-05
4.6079257e-05
5.9401516e-05
7.7698203e-05
0.00010332675
0.00014098424
0.00020115145
0.00031159375
0.00056894901
0.0014500002
2.3667842e-05
2.5556453e-05
2.9766449e-05
3.6461515e-05
4.6095123e-05
5.9417872e-05
7.7714064e-05
0.00010334109
0.00014099625
0.00020116085
0.00031160128
0.00056895805
0.0014500321
2.3678806e-05
2.5568013e-05
2.9779124e-05
3.6475436e-05
4.610999e-05
5.9433001e-05
7.772854e-05
0.00010335399
0.00014100688
0.00020116905
0.00031160792
0.00056896655
0.0014500633
2.3689472e-05
2.5579197e-05
2.979126e-05
3.6488598e-05
4.6123863e-05
5.944693e-05
7.7741678e-05
0.00010336551
0.0001410162
0.00020117613
0.0003116137
0.0005689745
0.0014500937
2.3699805e-05
2.5589973e-05
2.9802834e-05
3.6500995e-05
4.6136754e-05
5.9459688e-05
7.7753528e-05
0.00010337572
0.0001410243
0.00020118216
0.00031161869
0.0005689819
0.0014501231
2.3709776e-05
2.5600316e-05
2.9813829e-05
3.6512624e-05
4.6148678e-05
5.9471314e-05
7.7764144e-05
0.00010338468
0.00014103123
0.0002011872
0.00031162291
0.00056898877
0.0014501516
2.3719359e-05
2.5610203e-05
2.9824235e-05
3.6523488e-05
4.6159657e-05
5.9481845e-05
7.7773581e-05
0.00010339247
0.00014103708
0.00020119131
0.00031162643
0.00056899511
0.0014501789
2.3728534e-05
2.5619619e-05
2.9834044e-05
3.6533595e-05
4.6169715e-05
5.9491324e-05
7.7781898e-05
0.00010339914
0.0001410419
0.00020119458
0.00031162929
0.00056900094
0.0014502051
2.3737285e-05
2.5628553e-05
2.9843256e-05
3.6542957e-05
4.6178881e-05
5.9499797e-05
7.7789152e-05
0.00010340477
0.00014104578
0.00020119705
0.00031163155
0.00056900629
0.0014502301
2.3745599e-05
2.5636997e-05
2.9851872e-05
3.6551589e-05
4.6187185e-05
5.9507309e-05
7.7795403e-05
0.00010340942
0.00014104878
0.00020119879
0.00031163324
0.00056901119
0.0014502538
2.375347e-05
2.5644947e-05
2.9859897e-05
3.6559511e-05
4.6194662e-05
5.9513908e-05
7.7800711e-05
0.00010341317
0.00014105097
0.00020119986
0.00031163442
0.00056901564
0.0014502763
2.3760893e-05
2.5652405e-05
2.9867341e-05
3.6566742e-05
4.6201345e-05
5.9519642e-05
7.7805135e-05
0.00010341607
0.00014105241
0.00020120032
0.00031163513
0.00056901966
0.0014502976
2.3767866e-05
2.5659371e-05
2.9874215e-05
3.6573306e-05
4.6207271e-05
5.9524561e-05
7.7808732e-05
0.00010341819
0.00014105316
0.00020120023
0.00031163541
0.00056902328
0.0014503176
2.3774391e-05
2.5665853e-05
2.9880532e-05
3.6579228e-05
4.6212477e-05
5.9528712e-05
7.781156e-05
0.00010341959
0.00014105329
0.00020119963