/*--------------------------------*- C++ -*----------------------------------*\
| =========                 |                                                 |
| \\      /  F ield         | OpenFOAM: The Open Source CFD Toolbox           |
|  \\    /   O peration     | Version:  2506                                  |
|   \\  /    A nd           | Website:  www.openfoam.com                      |
|    \\/     M anipulation  |                                                 |
\*---------------------------------------------------------------------------*/
FoamFile
{
    version     2.0;
    format      ascii;
    arch        "LSB;label=32;scalar=64";
    class       volScalarField;
    location    "16000/water";
    object      k;
}
// * * * * * * * * * * * * * * * * * * * * * * * * * * * * * * * * * * * * * //

dimensions      [0 2 -2 0 0 0 0];

internalField   nonuniform List<scalar> 
2600
(
0.0001992401
0.00019923925
0.00019923929
0.00019923963
0.00019923982
0.00019923914
0.00019923438
0.00019921375
0.00019914651
0.00019904325
0.00019990841
0.00021454267
0.00040955349
0.00017237279
0.00017237614
0.00017237826
0.00017238051
0.0001723821
0.00017237949
0.00017235884
0.00017227555
0.000172027
0.00017162102
0.00017329371
0.00020304806
0.00052391648
0.00015132731
0.00015133049
0.00015133306
0.00015133552
0.00015133516
0.00015132207
0.00015126283
0.00015106462
0.00015055477
0.00014985944
0.0001528957
0.00019760629
0.00057958156
0.00013448336
0.00013448533
0.00013448764
0.00013448905
0.00013448325
0.00013445009
0.00013432997
0.00013398205
0.00013321503
0.00013247936
0.00013787909
0.00019702317
0.00059640815
0.00012075551
0.00012075697
0.00012075853
0.00012075718
0.00012074152
0.0001206782
0.00012048052
0.00011997843
0.0001190486
0.00011870929
0.00012776334
0.00020116854
0.00059206885
0.0001093899
0.00010939088
0.000109391
0.00010938492
0.00010935483
0.00010925313
0.00010897207
0.00010834649
0.00010742643
0.0001080609
0.00012226457
0.00021023394
0.00057809221
9.984982e-05
9.9850093e-05
9.9847944e-05
9.9835056e-05
9.9786463e-05
9.9641865e-05
9.9284958e-05
9.859999e-05
9.7925044e-05
0.00010022517
0.00012123091
0.00022425603
0.00056106272
9.1744874e-05
9.174416e-05
9.1738826e-05
9.1717148e-05
9.1647174e-05
9.1460104e-05
9.1049018e-05
9.0398665e-05
9.0258419e-05
9.5030413e-05
0.00012461431
0.00024286356
0.00054449405
8.4785472e-05
8.4783454e-05
8.4774018e-05
8.4741918e-05
8.4649457e-05
8.4426122e-05
8.3996574e-05
8.3502376e-05
8.4241543e-05
9.2421343e-05
0.00013239492
0.00026511347
0.00053012765
7.8752977e-05
7.8749319e-05
7.8734951e-05
7.8691403e-05
7.8577619e-05
7.8330528e-05
7.7932172e-05
7.7743318e-05
7.9771153e-05
9.2438123e-05
0.00014444361
0.00028951151
0.0005186607
7.3479682e-05
7.3474066e-05
7.3454131e-05
7.3398964e-05
7.3267704e-05
7.3016085e-05
7.2712929e-05
7.3009357e-05
7.6815021e-05
9.5182833e-05
0.00016036324
0.00031428525
0.00051014247
6.8835097e-05
6.8827266e-05
6.8801436e-05
6.8735571e-05
6.8593744e-05
6.836405e-05
6.8235745e-05
6.9234209e-05
7.5403716e-05
0.00010076472
0.00017939076
0.00033780739
0.0005042266
6.4716374e-05
6.4706175e-05
6.4674551e-05
6.4600233e-05
6.4458202e-05
6.4284863e-05
6.4429045e-05
6.6391811e-05
7.5619872e-05
0.0001092241
0.00020043528
0.00035894529
0.00050037283
6.1041501e-05
6.1028932e-05
6.0992164e-05
6.091321e-05
6.0785257e-05
6.0711783e-05
6.1247563e-05
6.4493003e-05
7.7580807e-05
0.00012045028
0.00022225715
0.00037717552
0.0004980107
5.7744396e-05
5.7729653e-05
5.7689074e-05
5.7611142e-05
5.751606e-05
5.7596592e-05
5.8669223e-05
6.3582872e-05
8.1411587e-05
0.00013412437
0.00024370832
0.00039247762
0.00049664628
5.4771313e-05
5.4754847e-05
5.4712615e-05
5.4643526e-05
5.4605384e-05
5.4906753e-05
5.6693486e-05
6.3736861e-05
8.7208044e-05
0.00014971788
0.00026392364
0.00040513366
0.00049590625
5.2078186e-05
5.206076e-05
5.2020025e-05
5.1970154e-05
5.2019282e-05
5.2623661e-05
5.5340605e-05
6.5053658e-05
9.4994185e-05
0.00016655656
0.0002823955
0.00041554871
0.00049553614
4.9628636e-05
4.9611393e-05
4.9576492e-05
4.9559258e-05
4.9733503e-05
5.0741693e-05
5.4651195e-05
6.7643172e-05
0.00010468473
0.00018392817
0.00029893687
0.00042413794
0.00049537652
4.7392458e-05
4.7377004e-05
4.7353699e-05
4.7386176e-05
4.773248e-05
4.9267886e-05
5.4685329e-05
7.1608743e-05
0.00011606686
0.00020119288
0.00031358495
0.0004312733
0.0004953351
4.5344476e-05
4.5332971e-05
4.5328746e-05
4.5432431e-05
4.600877e-05
4.8222045e-05
5.5520138e-05
7.7024462e-05
0.0001288111
0.00021785898
0.00032650009
0.00043726613
0.00049536294
4.3463657e-05
4.3458933e-05
4.3483358e-05
4.3685127e-05
4.4562868e-05
4.7637066e-05
5.7244888e-05
8.3911106e-05
0.00014251076
0.00023360813
0.00033789056
0.00044236711
0.00049543702
4.1732429e-05
4.173814e-05
4.1803329e-05
4.2136614e-05
4.3403329e-05
4.7559127e-05
5.9952699e-05
9.2216774e-05
0.00015673762
0.00024827797
0.00034796834
0.00044677301
0.00049554866
4.0136167e-05
4.015697e-05
4.0278148e-05
4.0784372e-05
4.2547129e-05
4.8047288e-05
6.3728702e-05
0.00010180889
0.00017109624
0.00026182259
0.0003569282
0.00045063571
0.00049569617
3.8662802e-05
3.8704582e-05
3.8900797e-05
3.9631107e-05
4.2020194e-05
4.9171841e-05
6.8635431e-05
0.00011248166
0.0001852623
0.00027427018
0.00036494028
0.00045407114
0.00049588069
3.7302531e-05
3.7372692e-05
3.7667676e-05
3.8685008e-05
4.1857944e-05
5.1010817e-05
7.4697747e-05
0.00012397798
0.00019899861
0.00028568912
0.00037214923
0.00045716736
0.00049610392
3.6047628e-05
3.6155447e-05
3.6578682e-05
3.7960181e-05
4.2105652e-05
5.3644138e-05
8.1890767e-05
0.00013601989
0.00021215193
0.00029616534
0.00037867608
0.00045999117
0.00049636709
3.4892327e-05
3.5049398e-05
3.5637397e-05
3.7477201e-05
4.2818254e-05
5.7145346e-05
9.013449e-05
0.00014833915
0.00022463802
0.00030578893
0.00038462123
0.0004625934
0.00049667064
3.383279e-05
3.4053569e-05
3.4851411e-05
3.7263736e-05
4.4059203e-05
6.1571463e-05
9.9297382e-05
0.00016070076
0.00023642316
0.00031464714
0.00039006764
0.00046501299
0.00049701416
3.2867148e-05
3.316962e-05
3.4232754e-05
3.7355161e-05
4.589791e-05
6.6952452e-05
0.00010920861
0.00017291579
0.00024750737
0.00032282077
0.00039508379
0.00046727996
0.00049739654
3.1995627e-05
3.2402111e-05
3.3798454e-05
3.7794962e-05
4.8405427e-05
7.3282437e-05
0.00011967597
0.00018484396
0.00025791153
0.00033038288
0.00039972633
0.00046941774
0.00049781615
3.1220754e-05
3.1758868e-05
3.3571166e-05
3.8634688e-05
5.16483e-05
8.0515035e-05
0.00013050501
0.00019638896
0.00026766839
0.00033739835
0.00040404224
0.00047144508
0.00049827105
3.0547674e-05
3.1251458e-05
3.3579859e-05
3.9933128e-05
5.5680955e-05
8.8564413e-05
0.00014151526
0.0002074904
0.00027681665
0.00034392427
0.00040806987
0.00047336165
0.00049875826
2.9984563e-05
3.0895778e-05
3.3860461e-05
4.1754322e-05
6.0537583e-05
9.7312151e-05
0.00015255089
0.00021811501
0.00028539698
0.00035000997
0.00041183983
0.00047517683
0.00049927448
2.9543172e-05
3.071274e-05
3.4456303e-05
4.416415e-05
6.6225004e-05
0.00010661843
0.0001634853
0.00022824915
0.00029345001
0.00035569879
0.00041537498
0.00047690098
0.00049981638
2.9239498e-05
3.072904e-05
3.5418148e-05
4.7225364e-05
7.2718215e-05
0.00011633497
0.00017422102
0.00023789273
0.00030101459
0.00036102773
0.000418694
0.00047854313
0.00050038114
2.9094595e-05
3.0977951e-05
3.6803502e-05
5.0991334e-05
7.9959883e-05
0.00012631696
0.00018468652
0.00024705469
0.00030812684
0.00036602759
0.00042181619
0.00048011509
0.00050096676
2.9135496e-05
3.1500046e-05
3.867486e-05
5.5499189e-05
8.7864165e-05
0.00013643209
0.00019483195
0.00025575014
0.00031482084
0.00037072328
0.00042475508
0.00048162854
0.000501572
2.9396231e-05
3.2343669e-05
4.1096631e-05
6.0763504e-05
9.6324073e-05
0.00014656574
0.00020462431
0.0002639967
0.00032112526
0.00037513787
0.00042753007
0.00048308916
0.00050219529
2.9918841e-05
3.3564909e-05
4.4130585e-05
6.6771885e-05
0.00010522079
0.00015662302
0.00021404417
0.00027181505
0.00032706606
0.00037928746
0.00043015897
0.00048450265
0.00050283511
3.0754241e-05
3.5226724e-05
4.7830032e-05
7.3483554e-05
0.00011443287
0.00016652783
0.00022308101
0.00027922363
0.00033266467
0.00038319522
0.00043265449
0.00048587307
0.00050348988
3.1962695e-05
3.7396842e-05
5.2233348e-05
8.0831456e-05
0.00012384408
0.00017622136
0.00023173237
0.00028624169
0.00033793722
0.00038688252
0.00043502773
0.00048720352
0.00050415803
3.3613505e-05
4.0144092e-05
5.735785e-05
8.8727396e-05
0.00013334837
0.00018565851
0.00023999855
0.00029288457
0.00034290599
0.00039036649
0.00043728791
0.00048849634
0.00050483797
3.578341e-05
4.3533076e-05
6.3195314e-05
9.7069236e-05
0.00014285307
0.00019480683
0.00024788469
0.00029916231
0.0003475933
0.00039366187
0.00043944269
0.00048975325
0.00050552812
3.8553073e-05
4.761744e-05
6.9710124e-05
0.00010574827
0.00015227866
0.00020364079
0.0002553933
0.00030509328
0.00035201758
0.00039678117
0.00044149842
0.00049097544
0.00050622692
4.2001163e-05
5.2432572e-05
7.6840731e-05
0.00011465642
0.00016156002
0.00021214495
0.00026252194
0.00031069682
0.00035619499
0.00039973504
0.0004434603
0.00049216367
0.00050693283
4.6195932e-05
5.7988976e-05
8.4503828e-05
0.00012369062
0.00017064179
0.00022029902
0.00026928194
0.00031598929
0.00036013925
0.00040253238
0.00044533252
0.00049331826
0.00050764432
5.1185033e-05
6.4267726e-05
9.260065e-05
0.0001327565
0.0001794794
0.00022808589
0.00027568471
0.00032098503
0.00036386202
0.00040518056
0.00044711836
0.00049443921
0.00050835989
5.6985377e-05
7.1219307e-05
0.00010102458
0.00014177166
0.00018802209
0.00023550304
0.00028174031
0.0003256963
0.00036737304
0.00040768556
0.00044882026
0.00049552615
0.000509078
6.3575497e-05
7.8766098e-05
0.00010966809
0.00015065103
0.00019623701
0.00024254865
0.00028745747
0.00033013331
0.00037068024
0.00041005205
0.00045043988
0.00049657837
0.00050979713
7.0893505e-05
8.6809044e-05
0.00011841801
0.00015932164
0.00020409991
0.0002492214
0.00029284336
0.00033430428
0.00037378985
0.00041228349
0.00045197812
0.00049759484
0.00051051571
7.8838285e-05
9.5225396e-05
0.00012716549
0.0001677259
0.00021159053
0.00025552
0.00029790359
0.00033821555
0.00037670649
0.00041438214
0.00045343519
0.00049857419
0.00051123214
8.7271771e-05
0.0001038814
0.00013581418
0.00017581508
0.00021869193
0.00026144298
0.00030264215
0.00034187168
0.00037943325
0.0004163492
0.00045481055
0.0004995147
0.00051194473
9.6036215e-05
0.00011264291
0.00014427887
0.00018354852
0.00022539
0.00026698863
0.00030706161
0.00034527556
0.00038197182
0.00041818479
0.00045610304
0.00050041432
0.00051265169
0.00010496813
0.0001213822
0.0001524859
0.00019089302
0.00023167335
0.00027215518
0.00031116333
0.00034842867
0.00038432262
0.00041988809
0.00045731083
0.00050127064
0.00051335113
0.00011391062
0.00012998324
0.00016037327
0.00019782237
0.00023753334
0.00027694109
0.00031494782
0.0003513313
0.00038648499
0.00042145744
0.00045843155
0.00050208095
0.000514041
0.0001227225
0.0001383452
0.00016789036
0.00020431696
0.00024296425
0.00028134553
0.00031841516
0.00035398296
0.00038845747
0.00042289052
0.00045946232
0.00050284227
0.00051471912
0.0001312839
0.0001463843
0.00017499756
0.00021036347
0.00024796342
0.00028536876
0.00032156551
0.00035638279
0.00039023809
0.00042418455
0.00046039997
0.0005035514
0.00051538316
0.00013949844
0.00015403431
0.0001816656
0.00021595443
0.00025253143
0.00028901262
0.0003243996
0.00035852996
0.00039182472
0.00042533657
0.00046124117
0.00050420509
0.00051603067
0.00014729306
0.00016124585
0.00018787485
0.00022108784
0.00025667212
0.00029228086
0.00032691921
0.00036042415
0.00039321548
0.00042634369
0.00046198263
0.0005048001
0.0005166591
0.00015461612
0.000167985
0.0001936143
0.00022576659
0.0002603925
0.00029517938
0.00032912753
0.00036206601
0.00039440907
0.00042720348
0.00046262138
0.0005053334
0.00051726585
0.00016143468
0.00017423146
0.00019888062
0.00022999797
0.00026370259
0.00029771634
0.0003310295
0.00036345745
0.00039540521
0.00042791421
0.00046315498
0.00050580232
0.00051784835
0.00016773142
0.00017997642
0.00020367704
0.00023379303
0.0002666151
0.00029990219
0.00033263198
0.00036460198
0.00039620483
0.00042847516
0.00046358175
0.00050620471
0.0005184041
0.00017350165
0.00018522057
0.00020801227
0.000237166
0.00026914509
0.00030174948
0.00033394379
0.00036550487
0.00039681041
0.00042888686
0.00046390099
0.0005065391
0.00051893074
0.0001787506
0.00018997215
0.0002118995
0.00024013365
0.00027130963
0.0003032727
0.00033497568
0.00036617319
0.00039722605
0.00042915125
0.00046411315
0.0005068048
0.00051942617
0.00018349096
0.00019424524
0.0002153554
0.00024271479
0.00027312733
0.000304488
0.00033574017
0.00036661585
0.00039745758
0.00042927176
0.00046421989
0.000507002
0.00051988856
0.00018774096
0.00019805827
0.00021839934
0.00024492972
0.00027461801
0.00030541287
0.0003362514
0.00036684345
0.00039751248
0.00042925335
0.00046422413
0.00050713179
0.00052031644
0.00019152272
0.00020143277
0.00022105255
0.00024679978
0.00027580228
0.00030606581
0.00033652478
0.00036686811
0.00039739978
0.00042910245
0.00046413004
0.00050719619
0.00052070874
0.00019486093
0.00020439237
0.00022333755
0.00024834694
0.00027670126
0.00030646607
0.00033657682
0.00036670322
0.00039712994
0.00042882682
0.00046394295
0.00050719805
0.0005210648
0.00019778183
0.00020696196
0.0002252776
0.00024959344
0.00027733626
0.00030663329
0.00033642474
0.00036636323
0.00039671456
0.00042843538
0.00046366921
0.00050714099
0.00052138437
0.00020031247
0.00020916708
0.00022689626
0.00025056155
0.0002777285
0.00030658725
0.00033608625
0.00036586331
0.00039616617
0.00042793801
0.00046331603
0.00050702932
0.00052166763
0.00020248004
0.00021103335
0.00022821704
0.00025127326
0.00027789897
0.00030634767
0.00033557925
0.00036521914
0.00039549795
0.0004273453
0.00046289128
0.00050686782
0.00052191516
0.00020431147
0.00021258617
0.00022926312
0.00025175014
0.00027786814
0.00030593391
0.00033492157
0.00036444658
0.00039472349
0.00042666836
0.00046240329
0.0005066617
0.00052212789
0.00020583311
0.00021385036
0.00023005714
0.00025201315
0.0002776559
0.00030536489
0.00033413082
0.00036356148
0.00039385653
0.00042591848
0.00046186067
0.00050641637
0.00052230707
0.00020707045
0.00021484999
0.00023062104
0.00025208251
0.00027728143
0.00030465887
0.00033322411
0.00036257942
0.00039291071
0.00042510703
0.00046127209
0.00050613735
0.0005224542
0.00020804799
0.00021560819
0.0002309759
0.00025197764
0.00027676306
0.00030383337
0.00033221797
0.00036151556
0.0003918994
0.00042424518
0.0004606461
0.00050583014
0.00052257103
0.00020878912
0.0002161471
0.00023114189
0.00025171706
0.00027611826
0.00030290506
0.00033112819
0.00036038444
0.0003908355
0.00042334375
0.00045999104
0.00050550009
0.00052265946
0.00020931605
0.00021648776
0.00023113821
0.00025131835
0.00027536353
0.00030188972
0.00032996972
0.0003591999
0.00038973131
0.00042241306
0.00045931483
0.00050515235
0.0005227215
0.00020964977
0.00021665007
0.00023098303
0.00025079813
0.00027451445
0.00030080216
0.00032875661
0.00035797496
0.00038859841
0.00042146286
0.00045862494
0.00050479173
0.00052275925
0.00020981006
0.00021665279
0.00023069347
0.00025017202
0.00027358558
0.00029965621
0.00032750197
0.00035672174
0.0003874476
0.00042050217
0.00045792827
0.00050442273
0.00052277483
0.00020981547
0.00021651356
0.00023028562
0.00024945467
0.00027259051
0.00029846472
0.00032621791
0.00035545144
0.00038628879
0.00041953927
0.00045723112
0.00050404943
0.00052277035
0.00020968334
0.00021624884
0.00022977453
0.00024865971
0.00027154185
0.00029723953
0.00032491556
0.00035417429
0.00038513102
0.00041858167
0.00045653918
0.00050367553
0.00052274792
0.00020942984
0.00021587402
0.00022917421
0.00024779984
0.00027045123
0.0002959915
0.00032360506
0.00035289956
0.00038398242
0.00041763605
0.00045585745
0.00050330429
0.00052270955
0.00020907001
0.00021540339
0.00022849769
0.00024688678
0.00026932936
0.00029473052
0.00032229558
0.00035163557
0.00038285023
0.00041670832
0.00045519031
0.00050293856
0.00052265719
0.00020861778
0.00021485019
0.00022775703
0.00024593135
0.000268186
0.00029346557
0.00032099534
0.00035038969
0.00038174079
0.00041580358
0.00045454153
0.00050258078
0.0005225927
0.00020808602
0.00021422666
0.00022696333
0.00024494347
0.00026703007
0.00029220472
0.00031971165
0.00034916843
0.00038065961
0.00041492618
0.00045391422
0.00050223299
0.00052251782
0.00020748663
0.00021354409
0.00022612683
0.0002439322
0.00026586961
0.00029095518
0.00031845096
0.00034797739
0.00037961136
0.00041407974
0.00045331087
0.00050189541
0.00052243411
0.00020683051
0.00021281284
0.00022525688
0.00024290581
0.00026471188
0.00028972334
0.00031721889
0.00034682139
0.00037859994
0.00041326716
0.00045273321
0.00050156778
0.00052234291
0.00020612768
0.00021204241
0.00022436204
0.00024187176
0.00026356336
0.00028851484
0.00031602028
0.00034570447
0.00037762856
0.00041249068
0.0004521816
0.00050125098
0.00052224542
0.0002053873
0.00021124144
0.00022345005
0.00024083679
0.00026242982
0.00028733458
0.00031485924
0.00034462996
0.00037669969
0.00041175178
0.00045165671
0.0005009465
0.00052214285
0.00020461771
0.00021041785
0.00022252797
0.00023980695
0.00026131635
0.00028618679
0.00031373923
0.00034360058
0.00037581523
0.00041105091
0.00045115876
0.00050065631
0.00052203649
0.0002038265
0.00020957876
0.00022160213
0.00023878763
0.00026022739
0.00028507507
0.00031266307
0.00034261834
0.00037497617
0.00041038833
0.00045068896
0.00050038141
0.00052192751
0.00020302053
0.00020873064
0.00022067823
0.0002377836
0.00025916681
0.00028400244
0.00031163297
0.00034168464
0.00037418296
0.0004097643
0.00045024819
0.00050012254
0.00052181698
0.00020220599
0.0002078793
0.00021976134
0.00023679906
0.00025813791
0.00028297137
0.00031065063
0.00034080022
0.00037343535
0.00040917949
0.00044983682
0.00049988009
0.00052170585
0.00020138845
0.00020702994
0.00021885597
0.00023583766
0.00025714349
0.0002819838
0.00030971709
0.00033996504
0.00037273367
0.00040863406
0.00044945488
0.00049965424
0.00052159496
0.00020057289
0.00020618719
0.0002179661
0.00023490257
0.00025618583
0.00028104117
0.00030883276
0.00033917906
0.00037207801
0.00040812779
0.0004491021
0.0004994449
0.00052148503
0.00019976375
0.00020535517
0.00021709521
0.00023399647
0.00025526678
0.00028014437
0.00030799751
0.00033844235
0.00037146806
0.00040766018
0.00044877797
0.00049925185
0.00052137669
0.00019896495
0.0002045375
0.00021624633
0.00023312165
0.00025438771
0.00027929351
0.00030721152
0.00033775464
0.00037090323
0.00040723047
0.00044848178
0.00049907473
0.0005212705
0.00019817996
0.00020373736
0.00021542209
0.00023227987
0.00025354923
0.00027848902
0.00030647467
0.00033711539
0.00037038266
0.00040683769
0.0004482127
0.00049891308
0.0005211669
0.00019741186
0.00020295752
0.00021462454
0.0002314723
0.00025275206
0.00027773099
0.00030578655
0.00033652375
0.00036990527
0.00040648071
0.00044796975
0.00049876637
0.0005210663
0.00019666316
0.00020220019
0.00021385534
0.00023070004
0.00025199665
0.00027701931
0.00030514651
0.0003359787
0.00036946979
0.00040615825
0.00044775189
0.00049863402
0.00052096901
0.00019593602
0.00020146725
0.00021311589
0.00022996391
0.00025128321
0.00027635357
0.00030455368
0.00033547901
0.00036907484
0.00040586893
0.00044755799
0.00049851542
0.00052087533
0.00019523225
0.00020076027
0.00021240734
0.00022926447
0.00025061171
0.0002757332
0.00030400699
0.00033502331
0.00036871889
0.00040561131
0.00044738689
0.00049840992
0.00052078545
0.00019455337
0.00020008056
0.00021173055
0.00022860206
0.00024998189
0.0002751574
0.00030350522
0.00033461006
0.0003684003
0.00040538385
0.00044723737
0.00049831685
0.00052069956
0.00019390062
0.00019942917
0.00021108616
0.00022797679
0.00024939333
0.00027462521
0.000303047
0.00033423764
0.00036811738
0.00040518498
0.00044710822
0.00049823551
0.00052061776
0.00019327503
0.0001988069
0.00021047459
0.00022738857
0.00024884538
0.00027413552
0.00030263081
0.0003339043
0.00036786834
0.00040501308
0.00044699816
0.00049816519
0.00052054013
0.00019267734
0.00019821433
0.00020989604
0.00022683713
0.00024833726
0.00027368706
0.00030225506
0.00033360826
0.00036765137
0.00040486653
0.00044690595
0.00049810518
0.00052046671
0.00019210814
0.00019765184
0.00020935054
0.00022632202
0.00024786804
0.00027327847
0.00030191804
0.00033334764
0.00036746462
0.00040474369
0.00044683035
0.00049805479
0.00052039752
0.00019156777
0.00019711962
0.00020883792
0.00022584265
0.00024743666
0.00027290829
0.00030161801
0.00033312055
0.00036730626
0.00040464295
0.00044677013
0.00049801331
0.00052033252
0.00019105643
0.00019661769
0.0002083579
0.00022539831
0.00024704197
0.00027257497
0.00030135316
0.00033292509
0.00036717446
0.00040456273
0.00044672411
0.00049798009
0.00052027168
0.00019057415
0.00019614593
0.00020791002
0.00022498814
0.00024668274
0.00027227694
0.00030112167
0.00033275937
0.00036706741
0.00040450148
0.00044669116
0.0004979545
0.00052021495
0.00019012081
0.00019570407
0.00020749373
0.00022461124
0.00024635764
0.00027201256
0.00030092171
0.00033262151
0.00036698336
0.00040445774
0.00044667019
0.00049793592
0.00052016224
0.00018969615
0.00019529173
0.00020710837
0.00022426657
0.0002460653
0.00027178018
0.00030075146
0.00033250966
0.00036692059
0.00040443005
0.00044666016
0.0004979238
0.00052011349
0.00018929983
0.00019490839
0.00020675317
0.00022395306
0.00024580433
0.00027157812
0.00030060909
0.00033242201
0.00036687745
0.00040441705
0.00044666007
0.00049791759
0.00052006859
0.00018893135
0.00019455346
0.00020642729
0.00022366955
0.00024557326
0.0002714047
0.00030049282
0.00033235678
0.00036685231
0.00040441742
0.00044666899
0.00049791676
0.00052002744
0.00018859016
0.00019422626
0.00020612982
0.00022341484
0.00024537062
0.00027125823
0.00030040085
0.00033231222
0.00036684362
0.00040442986
0.00044668599
0.0004979208
0.00051998991
0.00018827558
0.000193926
0.00020585975
0.00022318769
0.00024519491
0.00027113703
0.00030033144
0.00033228664
0.00036684985
0.00040445315
0.0004467102
0.00049792922
0.00051995587
0.00018798688
0.00019365185
0.00020561606
0.00022298679
0.00024504461
0.00027103942
0.00030028285
0.00033227839
0.00036686954
0.00040448611
0.00044674076
0.00049794154
0.00051992518
0.00018772325
0.0001934029
0.00020539764
0.00022281085
0.0002449182
0.00027096376
0.0003002534
0.00033228587
0.0003669013
0.00040452761
0.00044677689
0.00049795729
0.00051989768
0.00018748382
0.00019317819
0.00020520337
0.00022265852
0.00024481417
0.00027090842
0.00030024146
0.00033230753
0.00036694376
0.00040457657
0.00044681781
0.00049797605
0.00051987321
0.00018726767
0.00019297673
0.0002050321
0.00022252848
0.00024473102
0.0002708718
0.00030024543
0.0003323419
0.00036699567
0.00040463199
0.00044686283
0.00049799739
0.00051985163
0.00018707385
0.00019279748
0.00020488266
0.00022241938
0.00024466729
0.00027085237
0.00030026382
0.00033238759
0.00036705582
0.00040469294
0.00044691129
0.00049802096
0.00051983279
0.00018690138
0.00019263939
0.00020475385
0.0002223299
0.00024462152
0.00027084864
0.00030029515
0.00033244327
0.0003671231
0.00040475854
0.00044696259
0.00049804641
0.00051981652
0.00018674924
0.00019250139
0.00020464451
0.00022225874
0.00024459233
0.00027085918
0.00030033805
0.0003325077
0.00036719645
0.000404828
0.0004470162
0.00049807344
0.00051980268
0.00018661643
0.00019238242
0.00020455346
0.00022220461
0.00024457835
0.0002708826
0.00030039121
0.00033257969
0.00036727491
0.00040490057
0.00044707161
0.00049810177
0.00051979114
0.00018650191
0.00019228138
0.00020447953
0.00022216626
0.00024457825
0.00027091759
0.00030045338
0.00033265816
0.00036735757
0.00040497557
0.00044712835
0.00049813113
0.00051978174
0.00018640464
0.00019219721
0.00020442156
0.00022214244
0.00024459077
0.00027096289
0.00030052339
0.00033274205
0.00036744357
0.00040505236
0.00044718599
0.00049816129
0.00051977434
0.00018632359
0.00019212883
0.00020437843
0.00022213197
0.00024461468
0.00027101729
0.0003006001
0.00033283039
0.00036753213
0.00040513035
0.00044724413
0.00049819198
0.00051976879
0.00018625774
0.00019207518
0.000204349
0.00022213367
0.00024464877
0.00027107964
0.00030068246
0.00033292227
0.0003676225
0.00040520897
0.0004473024
0.000498223
0.00051976496
0.00018620605
0.0001920352
0.00020433219
0.00022214641
0.00024469193
0.00027114885
0.00030076948
0.00033301683
0.000367714
0.00040528772
0.00044736044
0.00049825412
0.0005197627
0.00018616752
0.00019200788
0.00020432693
0.0002221691
0.00024474306
0.00027122387
0.00030086021
0.00033311327
0.00036780598
0.00040536612
0.00044741792
0.00049828515
0.00051976187
0.00018614115
0.00019199219
0.00020433218
0.00022220068
0.00024480113
0.00027130374
0.00030095379
0.00033321087
0.00036789787
0.00040544376
0.00044747458
0.00049831591
0.00051976233
0.00018612598
0.00019198715
0.00020434695
0.00022224016
0.00024486516
0.00027138755
0.00030104942
0.00033330895
0.00036798916
0.00040552027
0.00044753017
0.00049834624
0.00051976397
0.00018612107
0.00019199182
0.00020437028
0.00022228659
0.00024493424
0.00027147446
0.00030114637
0.00033340691
0.00036807939
0.00040559532
0.00044758447
0.00049837603
0.00051976667
0.00018612551
0.00019200529
0.00020440124
0.00022233906
0.00024500753
0.0002715637
0.00030124397
0.00033350423
0.00036816816
0.00040566864
0.00044763732
0.00049840518
0.00051977031
0.00018613843
0.00019202668
0.00020443898
0.00022239672
0.00024508421
0.00027165455
0.00030134163
0.00033360043
0.00036825512
0.00040573999
0.00044768857
0.00049843359
0.0005197748
0.00018615898
0.00019205515
0.00020448266
0.00022245879
0.00024516355
0.00027174637
0.00030143879
0.00033369508
0.00036833997
0.00040580919
0.00044773811
0.0004984612
0.00051978005
0.00018618635
0.00019208989
0.0002045315
0.00022252452
0.00024524488
0.00027183855
0.00030153497
0.00033378781
0.00036842245
0.00040587605
0.00044778583
0.00049848795
0.00051978595
0.00018621977
0.00019213014
0.00020458476
0.00022259319
0.00024532754
0.00027193054
0.00030162972
0.00033387828
0.00036850231
0.00040594043
0.00044783164
0.00049851364
0.00051979241
0.0001862585
0.00019217517
0.00020464172
0.00022266416
0.00024541096
0.00027202185
0.00030172264
0.00033396619
0.00036857935
0.00040600218
0.00044787543
0.00049853811
0.00051979933
0.00018630184
0.00019222429
0.00020470173
0.0002227368
0.00024549458
0.00027211202
0.00030181337
0.00033405128
0.00036865339
0.00040606119
0.00044791704
0.0004985613
0.0005198066
0.00018634911
0.00019227684
0.00020476415
0.00022281054
0.0002455779
0.00027220062
0.00030190159
0.00033413331
0.00036872427
0.00040611734
0.00044795637
0.00049858318
0.00051981414
0.00018639967
0.00019233219
0.00020482841
0.00022288486
0.00024566046
0.00027228729
0.00030198701
0.00033421209
0.00036879185
0.00040617051
0.00044799334
0.00049860383
0.00051982188
0.00018645292
0.00019238976
0.00020489395
0.00022295926
0.00024574186
0.0002723717
0.00030206939
0.00033428744
0.00036885603
0.00040622061
0.00044802797
0.00049862326
0.00051982975
0.00018650832
0.00019244902
0.00020496029
0.0002230333
0.00024582173
0.00027245357
0.00030214853
0.00033435925
0.00036891671
0.00040626757
0.00044806031
0.0004986415
0.00051983769
0.00018656534
0.00019250948
0.00020502696
0.0002231066
0.00024589974
0.00027253266
0.00030222429
0.00033442741
0.00036897381
0.00040631146
0.00044809042
0.00049865858
0.00051984567
0.00018662351
0.00019257066
0.00020509355
0.0002231788
0.00024597564
0.00027260879
0.00030229653
0.00033449184
0.00036902731
0.00040635232
0.00044811836
0.00049867452
0.00051985364
0.0001866824
0.00019263218
0.0002051597
0.0002232496
0.00024604919
0.0002726818
0.00030236518
0.00033455248
0.00036907728
0.00040639025
0.0004481442
0.00049868938
0.00051986156
0.00018674161
0.00019269364
0.00020522508
0.00022331874
0.0002461202
0.00027275158
0.00030243012
0.00033460935
0.0003691238
0.00040642533
0.00044816801
0.00049870318
0.0005198694
0.00018680079
0.00019275472
0.0002052894
0.000223386
0.00024618852
0.000272818
0.00030249134
0.00033466251
0.00036916695
0.00040645766
0.00044818989
0.00049871597
0.00051987713
0.00018685961
0.00019281512
0.00020535241
0.00022345116
0.00024625399
0.00027288098
0.00030254885
0.00033471202
0.00036920681
0.00040648733
0.00044820991
0.0004987278
0.00051988474
0.00018691778
0.00019287456
0.00020541387
0.00022351406
0.00024631648
0.00027294049
0.00030260268
0.00033475795
0.0003692435
0.00040651444
0.00044822814
0.00049873869
0.00051989218
0.00018697504
0.00019293279
0.00020547357
0.00022357451
0.00024637592
0.00027299651
0.00030265287
0.00033480039
0.00036927709
0.00040653908
0.00044824466
0.00049874867
0.00051989943
0.00018703112
0.0001929896
0.00020553132
0.0002236324
0.00024643224
0.00027304905
0.00030269947
0.00033483941
0.00036930771
0.00040656135
0.00044825952
0.00049875778
0.00051990647
0.00018708582
0.00019304476
0.00020558695
0.00022368763
0.0002464854
0.00027309812
0.00030274254
0.00033487512
0.00036933543
0.00040658133
0.00044827279
0.00049876602
0.00051991327
0.00018713893
0.0001930981
0.00020564034
0.0002237401
0.00024653538
0.00027314375
0.00030278217
0.0003349076
0.00036936036
0.00040659911
0.00044828453
0.00049877342
0.00051991981
0.00018719028
0.00019314948
0.00020569137
0.00022378977
0.00024658218
0.00027318601
0.00030281843
0.00033493696
0.00036938262
0.00040661478
0.00044829481
0.00049878001
0.00051992608
0.00018723972
0.00019319876
0.00020573996
0.00022383661
0.00024662582
0.00027322495
0.00030285143
0.00033496333
0.00036940232
0.00040662845
0.0004483037
0.00049878581
0.00051993206
0.00018728715
0.00019324586
0.00020578604
0.0002238806
0.00024666635
0.00027326065
0.00030288129
0.00033498682
0.00036941958
0.00040664023
0.00044831127
0.00049879087
0.00051993774
0.00018733248
0.0001932907
0.00020582959
0.00022392175
0.00024670381
0.00027329323
0.00030290812
0.00033500758
0.00036943454
0.00040665023
0.00044831761
0.00049879524
0.00051994313
0.00018737562
0.00019333323
0.00020587059
0.0002239601
0.00024673829
0.00027332278
0.00030293206
0.00033502576
0.00036944734
0.00040665856
0.00044832281
0.00049879895
0.00051994821
0.00018741655
0.00019337342
0.00020590905
0.00022399568
0.00024676987
0.00027334942
0.00030295325
0.00033504148
0.00036945811
0.00040666534
0.00044832696
0.00049880206
0.000519953
0.00018745523