/*--------------------------------*- C++ -*----------------------------------*\
| =========                 |                                                 |
| \\      /  F ield         | OpenFOAM: The Open Source CFD Toolbox           |
|  \\    /   O peration     | Version:  2506                                  |
|   \\  /    A nd           | Website:  www.openfoam.com                      |
|    \\/     M anipulation  |                                                 |
\*---------------------------------------------------------------------------*/
FoamFile
{
    version     2.0;
    format      ascii;
    arch        "LSB;label=32;scalar=64";
    class       volScalarField;
    location    "16000/water";
    object      nut;
}
// * * * * * * * * * * * * * * * * * * * * * * * * * * * * * * * * * * * * * //

dimensions      [0 2 -1 0 0 0 0];

internalField   nonuniform List<scalar> 
2600
(
4.0562043e-05
4.0561942e-05
4.0561944e-05
4.0561981e-05
4.0561942e-05
4.0561434e-05
4.0558261e-05
4.0540002e-05
4.0435343e-05
3.98338e-05
3.6541397e-05
2.4161555e-05
1.4889524e-05
3.944741e-05
3.9447468e-05
3.944759e-05
3.9447676e-05
3.9447275e-05
3.9444342e-05
3.9428907e-05
3.9352895e-05
3.8988431e-05
3.7314814e-05
3.0763187e-05
1.7536145e-05
1.684056e-05
3.852265e-05
3.852264e-05
3.8522725e-05
3.8522528e-05
3.8520597e-05
3.8510798e-05
3.8466747e-05
3.8277827e-05
3.7500368e-05
3.454641e-05
2.5814945e-05
1.4669956e-05
1.7712619e-05
3.7742032e-05
3.774193e-05
3.7741811e-05
3.7740766e-05
3.7735283e-05
3.7711707e-05
3.7617453e-05
3.7258039e-05
3.5961308e-05
3.177518e-05
2.2061889e-05
1.3531464e-05
1.7967898e-05
3.7073562e-05
3.7073366e-05
3.7072781e-05
3.7069955e-05
3.7057916e-05
3.7011651e-05
3.6843992e-05
3.6266509e-05
3.4405655e-05
2.9188861e-05
1.9425178e-05
1.3345943e-05
1.7902414e-05
3.6493786e-05
3.6493393e-05
3.6491924e-05
3.648598e-05
3.646354e-05
3.6384687e-05
3.612226e-05
3.5294625e-05
3.2873382e-05
2.6881541e-05
1.771645e-05
1.3793839e-05
1.7689846e-05
3.5985207e-05
3.5984445e-05
3.5981496e-05
3.5970726e-05
3.5933497e-05
3.5812307e-05
3.5437992e-05
3.4343601e-05
3.1395257e-05
2.4892541e-05
1.6781972e-05
1.4727875e-05
1.7427344e-05
3.5534568e-05
3.55332e-05
3.5528007e-05
3.5510417e-05
3.5453869e-05
3.5281761e-05
3.478374e-05
3.3418009e-05
2.9989903e-05
2.3242727e-05
1.6521213e-05
1.605365e-05
1.7168093e-05
3.5131649e-05
3.5129373e-05
3.5121029e-05
3.5094485e-05
3.5014364e-05
3.4784646e-05
3.4156253e-05
3.2521766e-05
2.8667649e-05
2.1957692e-05
1.6869959e-05
1.7676047e-05
1.694009e-05
3.4768438e-05
3.47649e-05
3.4752406e-05
3.4714802e-05
3.4607522e-05
3.4315777e-05
3.3554458e-05
3.16563e-05
2.7438403e-05
2.1076946e-05
1.7774701e-05
1.9481897e-05
1.6755877e-05
3.4438571e-05
3.443338e-05
3.4415717e-05
3.4365168e-05
3.4228127e-05
3.3872266e-05
3.2977968e-05
3.0820513e-05
2.6321667e-05
2.0649591e-05
1.9168673e-05
2.1348725e-05
1.6617712e-05
3.4136931e-05
3.4129689e-05
3.4105903e-05
3.4040932e-05
3.3872746e-05
3.3452766e-05
3.2426062e-05
3.0012536e-05
2.5355877e-05
2.0719809e-05
2.0958175e-05
2.3166793e-05
1.6521078e-05
3.3859367e-05
3.3849701e-05
3.3819003e-05
3.3738723e-05
3.3539365e-05
3.3056856e-05
3.1897087e-05
2.923354e-05
2.4602257e-05
2.1309035e-05
2.3024752e-05
2.4858007e-05
1.6457822e-05
3.3602495e-05
3.3590098e-05
3.355197e-05
3.3456247e-05
3.3227088e-05
3.2684517e-05
3.1388405e-05
2.8493549e-05
2.4138757e-05
2.2402735e-05
2.5241354e-05
2.6381455e-05
1.6418929e-05
3.3363555e-05
3.334823e-05
3.3302533e-05
3.3192135e-05
3.2935885e-05
3.2335692e-05
3.0897111e-05
2.781812e-05
2.4044358e-05
2.3946906e-05
2.7493335e-05
2.7726694e-05
1.6396422e-05
3.3140311e-05
3.3122024e-05
3.3069114e-05
3.2945826e-05
3.2666358e-05
3.2009929e-05
3.0421904e-05
2.725306e-05
2.4379894e-05
2.5855075e-05
2.9693858e-05
2.8902281e-05
1.6384202e-05
3.2930983e-05
3.2909915e-05
3.2850758e-05
3.2717477e-05
3.2419519e-05
3.1706209e-05
2.9966345e-05
2.6863467e-05
2.5173338e-05
2.8023003e-05
3.1788481e-05
2.9925862e-05
1.6378087e-05
3.27342e-05
3.2710811e-05
3.2647097e-05
3.2507877e-05
3.219656e-05
3.1423099e-05
2.9543334e-05
2.6725089e-05
2.6414165e-05
3.0346001e-05
3.3750499e-05
3.0817911e-05
1.6375449e-05
3.254898e-05
3.2524066e-05
3.2458325e-05
3.2318371e-05
3.1998619e-05
3.1159479e-05
2.9179673e-05
2.6909997e-05
2.8056821e-05
3.2733298e-05
3.5572232e-05
3.159849e-05
1.6374764e-05
3.2374714e-05
3.234948e-05
3.2285189e-05
3.2150777e-05
3.1826588e-05
3.0916123e-05
2.8918576e-05
2.7471841e-05
3.0030665e-05
3.5115834e-05
3.7256818e-05
3.2285747e-05
1.6375224e-05
3.2211173e-05
3.2187303e-05
3.2128983e-05
3.2007273e-05
3.1681012e-05
3.0698309e-05
2.8817773e-05
2.8435851e-05
3.2252929e-05
3.7447133e-05
3.8812576e-05
3.2895331e-05
1.6376448e-05
3.2058522e-05
3.2038256e-05
3.199155e-05
3.1890271e-05
3.1562235e-05
3.051924e-05
2.8942305e-05
2.9795901e-05
3.464125e-05
3.9699498e-05
4.0249838e-05
3.3440303e-05
1.6378293e-05
3.1917349e-05
3.1903563e-05
3.1875268e-05
3.1802262e-05
3.147098e-05
3.0403414e-05
2.9353632e-05
3.1518042e-05
3.7123065e-05
4.1858566e-05
4.1579379e-05
3.3931332e-05
1.6380731e-05
3.1788707e-05
3.1784988e-05
3.1783034e-05
3.1745667e-05
3.1409596e-05
3.0388388e-05
3.0098641e-05
3.3548312e-05
3.9640504e-05
4.3918428e-05
4.2811639e-05
3.4377031e-05
1.638378e-05
3.167417e-05
3.1684884e-05
3.1718215e-05
3.1722747e-05
3.1384107e-05
3.0523333e-05
3.1201975e-05
3.5822342e-05
4.2151079e-05
4.5878174e-05
4.3956334e-05
3.4784314e-05
1.6387467e-05
3.1575896e-05
3.1606239e-05
3.1684577e-05
3.1735683e-05
3.1406918e-05
3.0863671e-05
3.2663378e-05
3.8274457e-05
4.4625624e-05
4.7739783e-05
4.5022273e-05
3.5158739e-05
1.6391813e-05
3.1496714e-05
3.155272e-05
3.1686171e-05
3.1786997e-05
3.1499546e-05
3.1462866e-05
3.445981e-05
4.0844581e-05
4.7045146e-05
4.9506882e-05
4.6017315e-05
3.5504794e-05
1.6396824e-05
3.1440215e-05
3.1528703e-05
3.1727217e-05
3.1880504e-05
3.1694229e-05
3.2363742e-05
3.6550942e-05
4.3482184e-05
4.9397839e-05
5.1183995e-05
4.6948402e-05
3.5826124e-05
1.6402494e-05
3.141085e-05
3.1539289e-05
3.1812006e-05
3.2022926e-05
3.2033144e-05
3.3591893e-05
3.8886228e-05
4.6147426e-05
5.1676787e-05
5.2776063e-05
4.782164e-05
3.6125718e-05
1.6408802e-05
3.1414042e-05
3.1590274e-05
3.1944928e-05
3.2226119e-05
3.2564562e-05
3.5152684e-05
4.1411886e-05
4.8810348e-05
5.3878384e-05
5.4288121e-05
4.8642393e-05
3.6406048e-05
1.6415722e-05
3.1456281e-05
3.1688095e-05
3.2130757e-05
3.2509432e-05
3.333648e-05
3.7032008e-05
4.4076505e-05
5.144913e-05
5.6001295e-05
5.5725114e-05
4.9415388e-05
3.6669254e-05
1.642322e-05
3.1545208e-05
3.183974e-05
3.2375386e-05
3.2901321e-05
3.4389411e-05
3.9199974e-05
4.6834633e-05
5.4048187e-05
5.8045689e-05
5.7091637e-05
5.0144339e-05
3.6914943e-05
1.6431248e-05
3.1689662e-05
3.2052668e-05
3.2687145e-05
3.3439134e-05
3.5750338e-05
4.1616208e-05
4.9648332e-05
5.6596557e-05
6.0012742e-05
5.839201e-05
5.0832726e-05
3.7144922e-05
1.6439749e-05
3.1899684e-05
3.2334823e-05
3.3078704e-05
3.4166338e-05
3.7429301e-05
4.4235459e-05
5.2487192e-05
5.9086682e-05
6.1904243e-05
5.9630092e-05
5.1482696e-05
3.7361243e-05
1.6448668e-05
3.2186465e-05
3.2694872e-05
3.3569196e-05
3.5127409e-05
3.9419064e-05
4.7012428e-05
5.5327449e-05
6.1513507e-05
6.3722343e-05
6.0809394e-05
5.2096451e-05
3.7565313e-05
1.6457958e-05
3.2562282e-05
3.3142861e-05
3.4185831e-05
3.636155e-05
4.1697459e-05
4.9905188e-05
5.8150807e-05
6.3873834e-05
6.5469391e-05
6.1933118e-05
5.26774e-05
3.7758158e-05
1.6467586e-05
3.3040474e-05
3.3691441e-05
3.4963993e-05
3.7896947e-05
4.4231432e-05
5.2877048e-05
6.0943283e-05
6.6165778e-05
6.7147566e-05
6.3002905e-05
5.3228279e-05
3.7940823e-05
1.6477531e-05
3.3635638e-05
3.4357648e-05
3.5945066e-05
3.9746993e-05
4.6981722e-05
5.589712e-05
6.3694249e-05
6.838843e-05
6.8759335e-05
6.4022595e-05
5.3751053e-05
3.8114079e-05
1.6487766e-05
3.4364224e-05
3.5164902e-05
3.7171978e-05
4.1909157e-05
4.9907179e-05
5.8940026e-05
6.6395665e-05
7.0541367e-05
7.0305658e-05
6.4995388e-05
5.424764e-05
3.8278685e-05
1.6498266e-05
3.5245721e-05
3.6144415e-05
3.8683393e-05
4.4366365e-05
5.2968078e-05
6.198517e-05
6.9041449e-05
7.2624749e-05
7.1789408e-05
6.5923871e-05
5.4719659e-05
3.8435268e-05
1.6509004e-05
3.6304392e-05
3.7335017e-05
4.0508072e-05
4.70902e-05
5.6128208e-05
6.5015944e-05
7.1626954e-05
7.4638167e-05
7.3213265e-05
6.6810357e-05
5.5168629e-05
3.8584369e-05
1.6519954e-05
3.7571049e-05
3.8780599e-05
4.2660839e-05
5.0044948e-05
5.9355781e-05
6.8018899e-05
7.414865e-05
7.658249e-05
7.4579719e-05
6.76569e-05
5.5595891e-05
3.8726449e-05
1.653109e-05
3.9083858e-05
4.0525221e-05
4.5140979e-05
5.3191583e-05
6.2623573e-05
7.0983107e-05
7.6603211e-05
7.8458837e-05
7.5890908e-05
6.8465404e-05
5.6002631e-05
3.8861904e-05
1.6542386e-05
4.088691e-05
4.2606862e-05
4.7933098e-05
5.649099e-05
6.5908449e-05
7.389953e-05
7.8988647e-05
8.0268736e-05
7.7148735e-05
6.9237566e-05
5.6389886e-05
3.8991065e-05
1.6553816e-05
4.3025773e-05
4.5051425e-05
5.1009882e-05
5.9906218e-05
6.919087e-05
7.676014e-05
8.1303264e-05
8.2013419e-05
7.8354964e-05
6.9974897e-05
5.675856e-05
3.911421e-05
1.6565353e-05
4.5540358e-05
4.7868464e-05
5.4335757e-05
6.340352e-05
7.2453911e-05
7.9558415e-05
8.3546728e-05
8.3693977e-05
7.9511139e-05
7.0678712e-05
5.7109425e-05
3.9231566e-05
1.6576974e-05
4.8456723e-05
5.1049458e-05
5.7870633e-05
6.6952759e-05
7.5682788e-05
8.2288866e-05
8.5718428e-05
8.5311369e-05
8.0618599e-05
7.1350139e-05
5.7443133e-05
3.9343314e-05
1.6588653e-05
5.1780132e-05
5.4568641e-05
6.1572948e-05
7.0526875e-05
7.8863948e-05
8.494782e-05
8.7817768e-05
8.6866351e-05
8.1678453e-05
7.1990116e-05
5.7760217e-05
3.9449594e-05
1.6600366e-05
5.549138e-05
5.838565e-05
6.5401403e-05
7.4100931e-05
8.198719e-05
8.7531667e-05
8.9844047e-05
8.8359445e-05
8.2691575e-05
7.2599396e-05
5.8061098e-05
3.95505e-05
1.6612087e-05
5.9547245e-05
6.2448926e-05
6.9315579e-05
7.765379e-05
8.5043656e-05
9.003695e-05
9.1796383e-05
8.9790908e-05
8.3658591e-05
7.3178544e-05
5.8346086e-05
3.9646087e-05
1.662379e-05
6.3884494e-05
6.6699804e-05
7.3278213e-05
8.1167586e-05
8.8025188e-05
9.246024e-05
9.3673666e-05
9.1160714e-05
8.4579872e-05
7.3727938e-05
5.8615382e-05
3.9736372e-05
1.6635451e-05
6.8427363e-05
7.1077093e-05
7.7255196e-05
8.4626051e-05
9.0924156e-05
9.4798076e-05
9.5474533e-05
9.246854e-05
8.545553e-05
7.4247769e-05
5.8869079e-05
3.9821329e-05
1.664704e-05
7.309556e-05
7.5520299e-05
8.121473e-05
8.8014214e-05
9.373335e-05
9.7046939e-05
9.7197371e-05
9.3713774e-05
8.6285427e-05
7.4738047e-05
5.9107167e-05
3.9900896e-05
1.6658531e-05
7.78113e-05
7.9972326e-05
8.5127279e-05
9.1318201e-05
9.6445934e-05
9.9203277e-05
9.8840348e-05
9.4895543e-05
8.7069191e-05
7.5198611e-05
5.9329535e-05
3.9974974e-05
1.6669891e-05
8.2504373e-05
8.4381477e-05
8.8965678e-05
9.4525148e-05
9.9055459e-05
0.00010126357
0.00010040148
9.6012759e-05
8.7806245e-05
7.5629144e-05
5.9535983e-05
4.0043428e-05
1.6681088e-05
8.7115027e-05
8.8702754e-05
9.2705358e-05
9.7623218e-05
0.00010155592
0.00010322444
0.00010187874
9.7064189e-05
8.8495854e-05
7.6029204e-05
5.9726235e-05
4.01061e-05
1.6692087e-05
9.1594965e-05
9.2898489e-05
9.632463e-05
0.0001006017
0.00010394187
0.00010508273
0.00010327014
9.8048546e-05
8.9137189e-05
7.6398261e-05
5.9899957e-05
4.0162807e-05
1.6702851e-05
9.5907004e-05
9.6938427e-05
9.9804928e-05
0.00010345113
0.00010620851
0.00010683569
0.00010457387
9.8964588e-05
8.9729397e-05
7.6735741e-05
6.0056789e-05
4.0213358e-05
1.671334e-05
0.00010002395
0.00010079935
0.00010313097
0.00010616346
0.0001083518
0.00010848106
0.00010578844
9.9811227e-05
9.0271681e-05
7.7041086e-05
6.0196367e-05
4.0257565e-05
1.6723514e-05
0.00010392714
0.00010446443
0.00010629078
0.00010873219
0.0001103686
0.00011001715
0.00010691274
0.00010058763
9.0763387e-05
7.7313805e-05
6.0318364e-05
4.0295257e-05
1.6733331e-05
0.00010760492
0.00010792242
0.00010927559
0.00011115239
0.00011225668
0.00011144299
0.0001079462
0.00010129331
9.1204081e-05
7.7553536e-05
6.0422522e-05
4.0326295e-05
1.674275e-05
0.00011105122
0.00011116679
0.00011207964
0.00011342077
0.00011401484
0.00011275832
0.00010888878
0.0001019282
9.1593616e-05
7.7760099e-05
6.0508685e-05
4.0350586e-05
1.6751732e-05
0.00011426437
0.00011419491
0.00011469986
0.00011553562
0.00011564284
0.00011396363
0.00010974107
0.00010249271
9.1932186e-05
7.7933538e-05
6.0576831e-05
4.0368096e-05
1.6760238e-05
0.00011724609
0.0001170073
0.00011713559
0.00011749673
0.00011714145
0.00011506015
0.00011050428
0.00010298774
9.222036e-05
7.8074158e-05
6.0627094e-05
4.0378864e-05
1.6768237e-05
0.00012000065
0.00011960696
0.00011938821
0.00011930528
0.00011851236
0.00011604985
0.00011118019
0.0001034147
9.2459101e-05
7.8182543e-05
6.0659776e-05
4.0383003e-05
1.6775699e-05
0.00012253423
0.00012199883
0.0001214608
0.00012096367
0.00011975808
0.00011693533
0.00011177119
0.00010377548
9.2649761e-05
7.8259559e-05
6.067536e-05
4.0380706e-05
1.6782601e-05
0.00012485442
0.00012418933
0.00012335786
0.00012247537
0.00012088193
0.00011771981
0.00011228013
0.00010407241
9.2794065e-05
7.8306352e-05
6.0674503e-05
4.0372245e-05
1.6788927e-05
0.00012696977
0.00012618596
0.00012508498
0.00012384474
0.00012188785
0.00011840701
0.00011271037
0.00010430824
9.2894076e-05
7.8324326e-05
6.0658026e-05
4.0357966e-05
1.6794666e-05
0.00012888956
0.00012799701
0.00012664862
0.00012507689
0.00012278036
0.00011900111
0.0001130656
0.00010448604
9.2952153e-05
7.8315114e-05
6.06269e-05
4.0338281e-05
1.6799815e-05
0.00013062349
0.0001296313
0.00012805591
0.00012617754
0.00012356444
0.00011950661
0.00011334984
0.00010460918
9.2970903e-05
7.8280546e-05
6.0582222e-05
4.0313654e-05
1.6804378e-05
0.0001321815
0.000131098
0.00012931439
0.00012715283
0.00012424539
0.00011992832
0.00011356734
0.00010468124
9.2953125e-05
7.8222605e-05
6.0525189e-05
4.0284593e-05
1.6808364e-05
0.00013357363
0.00013240645
0.00013043196
0.00012800923
0.0001248288
0.0001202712
0.0001137225
0.00010470594
9.290176e-05
7.8143389e-05
6.0457069e-05
4.0251636e-05
1.6811789e-05
0.00013480991
0.00013356605
0.00013141664
0.00012875343
0.00012532041
0.00012054038
0.00011381984
0.00010468711
9.2819835e-05
7.8045068e-05
6.0379179e-05
4.0215335e-05
1.6814674e-05
0.00013590023
0.00013458612
0.00013227653
0.00012939222
0.00012572607
0.00012074102
0.0001138639
0.0001046286
9.2710414e-05
7.7929844e-05
6.0292851e-05
4.0176248e-05
1.6817042e-05
0.00013685432
0.00013547588
0.00013301972
0.00012993242
0.00012605164
0.00012087827
0.00011385922
0.00010453426
9.2576557e-05
7.7799917e-05
6.0199413e-05
4.0134922e-05
1.6818922e-05
0.00013768164
0.00013624433
0.00013365415
0.00013038082
0.00012630296
0.00012095725
0.00011381027
0.00010440788
9.242128e-05
7.7657451e-05
6.0100164e-05
4.009189e-05
1.6820345e-05
0.00013839138
0.00013690024
0.00013418764
0.00013074411
0.00012648577
0.000120983
0.00011372143
0.00010425315
9.2247518e-05
7.7504547e-05
5.9996356e-05
4.0047656e-05
1.6821344e-05
0.0001389924
0.00013745206
0.00013462777
0.00013102882
0.0001266057
0.00012096039
0.00011359694
0.00010407366
9.2058101e-05
7.734322e-05
5.9889183e-05
4.0002696e-05
1.6821951e-05
0.00013949319
0.00013790795
0.00013498189
0.00013124131
0.00012666821
0.00012089418
0.00011344091
0.00010387282
9.185573e-05
7.7175381e-05
5.9779762e-05
3.9957447e-05
1.6822201e-05
0.00013990191
0.00013827572
0.00013525707
0.00013138772
0.00012667859
0.00012078892
0.00011325724
0.00010365392
9.1642962e-05
7.7002825e-05
5.9669131e-05
3.9912305e-05
1.6822129e-05
0.00014022631
0.00013856284
0.00013546009
0.00013147395
0.0001266419
0.00012064899
0.00011304967
0.00010342003
9.142219e-05
7.6827213e-05
5.9558235e-05
3.9867627e-05
1.6821768e-05
0.00014047376
0.0001387764
0.0001355974
0.00013150564
0.000126563
0.00012047853
0.00011282172
0.00010317405
9.1195644e-05
7.6650075e-05
5.9447933e-05
3.9823726e-05
1.6821151e-05
0.00014065125
0.00013892313
0.00013567514
0.00013148816
0.0001264465
0.00012028147
0.00011257671
0.00010291867
9.0965375e-05
7.64728e-05
5.9338986e-05
3.9780873e-05
1.6820308e-05
0.00014076539
0.00013900938
0.00013569914
0.00013142662
0.00012629677
0.00012006154
0.00011231774
0.0001026564
9.0733262e-05
7.6296637e-05
5.9232065e-05
3.9739299e-05
1.6819271e-05
0.00014082237
0.00013904116
0.0001356749
0.00013132584
0.00012611793
0.00011982221
0.00011204769
0.00010238954
9.0501008e-05
7.6122699e-05
5.9127751e-05
3.9699193e-05
1.6818066e-05
0.00014082805
0.0001390241
0.00013560758
0.00013119035
0.00012591386
0.00011956674
0.00011176924
0.00010212018
9.027014e-05
7.5951949e-05
5.9026491e-05
3.9660496e-05
1.6816719e-05
0.00014078792
0.00013896351
0.00013550205
0.00013102444
0.00012568821
0.00011929817
0.00011148484
0.00010185024
9.0042012e-05
7.5785212e-05
5.8928639e-05
3.9623158e-05
1.6815251e-05
0.00014070708
0.00013886432
0.00013536287
0.0001308321
0.00012544437
0.0001190193
0.00011119677
0.00010158142
8.9817797e-05
7.5623124e-05
5.8834217e-05
3.958747e-05
1.6813682e-05
0.00014059034
0.00013873117
0.00013519429
0.00013061706
0.0001251855
0.00011873273
0.00011090706
0.00010131525
8.9598526e-05
7.5466269e-05
5.8743568e-05
3.9553557e-05
1.6812031e-05
0.00014044214
0.00013856837
0.00013500028
0.00013038282
0.00012491454
0.00011844085
0.00011061757
0.00010105307
8.9384993e-05
7.5314776e-05
5.8657128e-05
3.9521515e-05
1.6810318e-05
0.00014026664
0.00013837993
0.00013478453
0.0001301326
0.00012463419
0.00011814583
0.00011032996
0.00010079603
8.9177834e-05
7.5169345e-05
5.8575047e-05
3.9491394e-05
1.6808563e-05
0.00014006767
0.00013816955
0.00013455045
0.00012986937
0.00012434693
0.00011784965
0.00011004569
0.00010054511
8.8977598e-05
7.5030439e-05
5.8497455e-05
3.9463229e-05
1.6806783e-05
0.00013984879
0.00013794067
0.00013430119
0.0001295959
0.00012405503
0.00011755405
0.00010976602
0.00010030096
8.8785087e-05
7.4898308e-05
5.8424432e-05
3.9437033e-05
1.6804993e-05
0.00013961326
0.00013769645
0.00013403967
0.00012931469
0.00012376055
0.00011726061
0.00010949195
0.00010006453
8.8600766e-05
7.4773126e-05
5.8356013e-05
3.9412796e-05
1.6803207e-05
0.00013936409
0.00013743979
0.00013376854
0.00012902803
0.00012346532
0.00011697064
0.0001092245
9.9836605e-05
8.8424974e-05
7.4655005e-05
5.8292193e-05
3.9390488e-05
1.6801436e-05
0.00013910404
0.00013717335
0.00013349022
0.00012873798
0.00012317094
0.00011668532
0.00010896474
9.9617729e-05
8.8257958e-05
7.4543994e-05
5.8232932e-05
3.9370067e-05
1.6799691e-05
0.00013883562
0.00013689956
0.00013320689
0.00012844637
0.00012287881
0.00011640596
0.00010871344
9.9408333e-05
8.8099882e-05
7.4440089e-05
5.8178157e-05
3.9351476e-05
1.6797981e-05
0.00013856112
0.00013662058
0.00013292049
0.00012815482
0.00012259046
0.0001161336
0.00010847128
9.9208746e-05
8.7950836e-05
7.4343239e-05
5.8127772e-05
3.9334651e-05
1.6796312e-05
0.00013828254
0.00013633834
0.00013263283
0.00012786501
0.00012230716
0.00011586915
0.00010823878
9.9019207e-05
8.7810847e-05
7.4253353e-05
5.8081663e-05
3.9319523e-05
1.6794691e-05
0.00013800177
0.00013605469
0.00013234561
0.00012757839
0.00012203004
0.00011561336
0.00010801638
9.8839875e-05
8.7679885e-05
7.4170306e-05
5.8039697e-05
3.9306019e-05
1.6793123e-05
0.00013772054
0.00013577131
0.00013206041
0.00012729627
0.00012176009
0.0001153669
0.00010780441
9.8670835e-05
8.7557869e-05
7.4093943e-05
5.800173e-05
3.9294063e-05
1.6791612e-05
0.00013744041
0.00013548974
0.0001317786
0.00012701981
0.00012149816
0.00011513028
0.00010760312
9.8512105e-05
8.7444672e-05
7.4024083e-05
5.7967608e-05
3.9283578e-05
1.6790163e-05
0.00013716283
0.00013521135
0.00013150143
0.00012675002
0.00012124497
0.00011490393
0.00010741266
9.8363636e-05
8.7340125e-05
7.396052e-05
5.7937164e-05
3.9274484e-05
1.6788778e-05
0.00013688906
0.00013493738
0.00013123001
0.00012648777
0.00012100113
0.00011468818
0.00010723311
9.8225321e-05
8.7244017e-05
7.3903026e-05
5.7910223e-05
3.9266699e-05
1.6787459e-05
0.00013662027
0.00013466892
0.00013096527
0.00012623382
0.00012076713
0.00011448325
0.00010706446
9.8096998e-05
8.7156105e-05
7.3851354e-05
5.7886604e-05
3.9260138e-05
1.6786207e-05
0.00013635744
0.00013440691
0.00013070806
0.00012598878
0.00012054335
0.00011428928
0.00010690666
9.7978456e-05
8.7076111e-05
7.3805241e-05
5.7866116e-05
3.9254718e-05
1.6785023e-05
0.00013610145
0.00013415218
0.00013045907
0.00012575318
0.00012033008
0.00011410633
0.00010675957
9.786944e-05
8.7003735e-05
7.3764412e-05
5.7848568e-05
3.9250353e-05
1.6783908e-05
0.00013585306
0.00013390544
0.00013021889
0.00012552743
0.00012012752
0.0001139344
0.00010662301
9.7769666e-05
8.6938658e-05
7.3728587e-05
5.7833771e-05
3.924696e-05
1.678286e-05
0.00013561289
0.00013366728
0.00012998801
0.00012531186
0.00011993579
0.00011377341
0.00010649675
9.7678819e-05
8.6880551e-05
7.3697484e-05
5.7821536e-05
3.9244459e-05
1.678188e-05
0.00013538151
0.0001334382
0.00012976684
0.00012510669
0.00011975494
0.00011362323
0.00010638055
9.7596572e-05
8.6829078e-05
7.3670824e-05
5.7811682e-05
3.9242776e-05
1.6780965e-05
0.00013515934
0.00013321861
0.00012955568
0.00012491211
0.00011958499
0.00011348372
0.00010627411
9.7522582e-05
8.6783904e-05
7.3648336e-05
5.7804036e-05
3.9241839e-05
1.6780115e-05
0.00013494677
0.00013300885
0.00012935477
0.00012472821
0.00011942587
0.00011335466
0.00010617714
9.7456496e-05
8.6744694e-05
7.3629751e-05
5.7798431e-05
3.9241584e-05
1.6779329e-05
0.00013474407
0.00013280915
0.00012916429
0.00012455504
0.00011927747
0.00011323583
0.00010608931
9.7397956e-05
8.6711112e-05
7.3614811e-05
5.7794708e-05
3.9241949e-05
1.6778604e-05
0.00013455145
0.0001326197
0.00012898432
0.00012439257
0.00011913964
0.00011312694
0.00010601026
9.7346592e-05
8.6682826e-05
7.3603258e-05
5.7792713e-05
3.9242876e-05
1.677794e-05
0.00013436906
0.0001324406
0.00012881491
0.00012424074
0.00011901219
0.00011302769
0.00010593964
9.730203e-05
8.6659501e-05
7.3594841e-05
5.7792295e-05
3.9244306e-05
1.6777334e-05
0.00013419696
0.0001322719
0.00012865602
0.0001240994
0.00011889487
0.00011293776
0.00010587705
9.7263886e-05
8.6640802e-05
7.358931e-05
5.7793305e-05
3.9246186e-05
1.6776784e-05
0.00013403516
0.00013211358
0.00012850757
0.00012396839
0.00011878741
0.00011285679
0.00010582211
9.7231771e-05
8.6626395e-05
7.3586419e-05
5.7795599e-05
3.9248458e-05
1.6776289e-05
0.00013388361
0.00013196554
0.00012836942
0.00012384747
0.00011868949
0.00011278439
0.0001057744
9.7205294e-05
8.6615951e-05
7.3585927e-05
5.7799035e-05
3.9251069e-05
1.6775845e-05
0.00013374219
0.00013182768
0.00012824139
0.00012373639
0.00011860078
0.00011272017
0.00010573351
9.7184067e-05
8.6609144e-05
7.3587603e-05
5.780348e-05
3.9253969e-05
1.6775451e-05
0.00013361075
0.0001316998
0.00012812326
0.00012363486
0.00011852091
0.00011266372
0.00010569902
9.7167708e-05
8.6605663e-05
7.3591223e-05
5.7808808e-05
3.925711e-05
1.6775103e-05
0.0001334891
0.00013158169
0.00012801475
0.00012354255
0.0001184495
0.00011261463
0.00010567053
9.7155847e-05
8.6605209e-05
7.3596579e-05
5.7814901e-05
3.9260451e-05
1.67748e-05
0.00013337702
0.00013147312
0.0001279156
0.00012345914
0.00011838618
0.0001125725
0.00010564764
9.7148129e-05
8.6607497e-05
7.3603477e-05
5.7821652e-05
3.9263952e-05
1.6774537e-05
0.00013327425
0.00013137381
0.0001278255
0.00012338426
0.00011833055
0.00011253691
0.00010562994
9.714421e-05
8.661226e-05
7.3611734e-05
5.7828963e-05
3.9267582e-05
1.6774314e-05
0.00013318051
0.00013128348
0.00012774413
0.00012331757
0.00011828223
0.00011250747
0.00010561708
9.7143765e-05
8.6619245e-05
7.3621182e-05
5.7836745e-05
3.927131e-05
1.6774128e-05
0.00013309551
0.00013120181
0.00012767114
0.00012325869
0.00011824081
0.00011248378
0.00010560867
9.7146479e-05
8.6628211e-05
7.3631661e-05
5.7844916e-05
3.9275111e-05
1.6773975e-05
0.00013301893
0.00013112847
0.00012760619
0.00012320724
0.00011820591
0.00011246545
0.00010560436
9.7152048e-05
8.6638928e-05
7.3643021e-05
5.7853395e-05
3.9278957e-05
1.6773856e-05
0.00013295043
0.00013106312
0.0001275489
0.00012316283
0.00011817711
0.00011245209
0.00010560379
9.7160177e-05
8.6651173e-05
7.3655118e-05
5.7862109e-05
3.9282825e-05
1.6773766e-05
0.00013288966
0.00013100539
0.00012749891
0.00012312506
0.00011815402
0.00011244331
0.00010560662
9.717058e-05
8.6664735e-05
7.3667812e-05
5.7870985e-05
3.928669e-05
1.6773704e-05
0.00013283625
0.0001309549
0.00012745581
0.00012309353
0.00011813624
0.00011243873
0.0001056125
9.7182981e-05
8.6679407e-05
7.3680972e-05
5.7879954e-05
3.9290528e-05
1.6773668e-05
0.00013278982
0.00013091128
0.00012741921
0.00012306784
0.00011812337
0.00011243799
0.00010562113
9.7197115e-05
8.6694997e-05
7.3694474e-05
5.7888953e-05
3.9294318e-05
1.6773655e-05
0.00013274999
0.00013087414
0.00012738872
0.00012304759
0.00011811503
0.00011244072
0.00010563217
9.7212734e-05
8.6711323e-05
7.3708204e-05
5.7897924e-05
3.929804e-05
1.6773663e-05
0.00013271638
0.00013084307
0.00012736394
0.00012303239
0.00011811082
0.00011244657
0.00010564534
9.7229605e-05
8.6728221e-05
7.372206e-05
5.7906816e-05
3.9301678e-05
1.677369e-05
0.0001326886
0.00013081771
0.00012734448
0.00012302185
0.0001181104
0.00011245523
0.00010566037
9.7247515e-05
8.674554e-05
7.3735952e-05
5.7915587e-05
3.9305218e-05
1.6773733e-05
0.00013266628
0.00013079767
0.00012732998
0.00012301561
0.00011811342
0.00011246638
0.000105677
9.726627e-05
8.6763147e-05
7.3749801e-05
5.7924201e-05
3.9308653e-05
1.6773792e-05
0.00013264904
0.00013078259
0.00012732005
0.00012301332
0.00011811955
0.00011247975
0.000105695
9.7285692e-05
8.6780924e-05
7.3763539e-05
5.7932629e-05
3.9311974e-05
1.6773864e-05
0.00013263654
0.0001307721
0.00012731435
0.00012301463
0.00011812847
0.00011249505
0.00010571414
9.7305619e-05
8.6798762e-05
7.3777108e-05
5.7940847e-05
3.9315179e-05
1.6773948e-05
0.00013262842
0.00013076586
0.00012731254
0.00012301921
0.0001181399
0.00011251204
0.00010573422
9.7325902e-05
8.6816564e-05
7.3790453e-05
5.7948834e-05
3.9318263e-05
1.6774043e-05
0.00013262433
0.00013076351
0.00012731426
0.00012302674
0.00011815353
0.00011253047
0.00010575505
9.7346399e-05
8.6834239e-05
7.3803524e-05
5.7956565e-05
3.9321204e-05
1.6774146e-05
0.00013262392
0.00013076472
0.0001273192
0.00012303692
0.0001181691
0.0001125501
0.00010577645
9.7366975e-05
8.6851698e-05
7.3816271e-05
5.7964018e-05
3.9323986e-05
1.6774258e-05
0.00013262687
0.00013076916
0.00012732702
0.00012304944
0.00011818633
0.0001125707
0.00010579823
9.7387503e-05
8.6868859e-05
7.3828643e-05
5.7971152e-05
3.932662e-05
1.6774375e-05
0.00013263284
0.00013077648
0.00012733741
0.000123064
0.00011820497
0.00011259207
0.00010582022
9.7407862e-05
8.6885641e-05
7.3840596e-05
5.797795e-05
3.9329106e-05
1.6774497e-05
0.00013264151
0.00013078639
0.00012735006
0.00012308032
0.00011822476
0.00011261399
0.00010584228
9.7427937e-05
8.6901968e-05
7.385207e-05
5.7984413e-05
3.9331441e-05
1.6774622e-05
0.00013265256
0.00013079856
0.00012736468
0.00012309813
0.00011824547
0.00011263628
0.00010586425
9.744763e-05
8.6917779e-05
7.3863043e-05
5.7990533e-05
3.9333627e-05
1.677475e-05
0.0001326657
0.00013081272
0.00012738099
0.00012311719
0.00011826689
0.00011265877
0.00010588601
9.7466847e-05
8.6932999e-05
7.387351e-05
5.7996304e-05
3.9335664e-05
1.6774879e-05
0.00013268067
0.00013082858
0.00012739874
0.00012313725
0.00011828882
0.0001126813
0.00010590744
9.7485509e-05
8.694761e-05
7.3883453e-05
5.8001724e-05
3.9337554e-05
1.6775008e-05
0.00013269719
0.0001308459
0.00012741769
0.00012315812
0.00011831109
0.00011270373
0.00010592845
9.7503554e-05
8.6961595e-05
7.3892867e-05
5.8006798e-05
3.9339301e-05
1.6775137e-05
0.00013271505
0.00013086445
0.00012743762
0.00012317961
0.00011833354
0.00011272595
0.00010594894
9.7520957e-05
8.6974936e-05
7.3901751e-05
5.8011532e-05
3.9340911e-05
1.6775265e-05
0.00013273402
0.00013088403
0.00012745834
0.00012320153
0.00011835604
0.00011274785
0.00010596887
9.7537689e-05
8.6987626e-05
7.3910112e-05
5.8015936e-05
3.9342391e-05
1.6775391e-05
0.00013275391
0.00013090442
0.00012747967
0.00012322373
0.00011837845
0.00011276934
0.00010598818
9.7553726e-05
8.6999661e-05
7.3917957e-05
5.8020022e-05
3.9343748e-05
1.6775515e-05
0.00013277452
0.00013092546
0.00012750144
0.00012324606
0.00011840065
0.00011279035
0.00010600684
9.7569052e-05
8.7011042e-05
7.3925298e-05
5.8023802e-05
3.9344988e-05
1.6775637e-05
0.00013279568
0.00013094696
0.00012752347
0.00012326838
0.00011842256
0.00011281082
0.00010602482
9.7583653e-05
8.7021772e-05
7.3932144e-05
5.8027287e-05
3.9346119e-05
1.6775757e-05
0.00013281722
0.00013096876
0.00012754563
0.00012329058
0.00011844408
0.0001128307
0.00010604207
9.7597516e-05
8.7031853e-05
7.3938505e-05
5.8030486e-05
3.9347144e-05
1.6775873e-05
0.00013283897
0.0001309907
0.00012756777
0.00012331255
0.00011846513
0.00011284991
0.00010605856
9.7610629e-05
8.7041286e-05
7.394439e-05
5.8033406e-05
3.9348068e-05
1.6775987e-05
0.00013286078
0.00013101264
0.00012758977
0.00012333416
0.00011848562
0.0001128684
0.00010607426
9.7622982e-05
8.7050073e-05
7.3949805e-05
5.8036056e-05
3.9348894e-05
1.6776096e-05
0.00013288251
0.00013103445
0.0001276115
0.00012335533
0.00011850548
0.00011288614
0.00010608916
9.7634569e-05
8.705822e-05
7.3954759e-05
5.8038441e-05
3.9349623e-05
1.6776202e-05
0.00013290404
0.000131056
0.00012763286
0.00012337597
0.00011852465
0.00011290308
0.00010610323
9.7645389e-05
8.7065733e-05
7.3959262e-05
5.8040569e-05
3.9350259e-05
1.6776304e-05
0.00013292524
0.00013107719
0.00012765375
0.000123396
0.00011854308
0.00011291918
0.00010611646
9.7655445e-05
8.7072624e-05
7.3963327e-05
5.804245e-05
3.9350805e-05
1.6776401e-05
0.00013294602
0.00013109791
0.00012767409
0.00012341535
0.00011856072
0.00011293444
0.00010612885
9.7664748e-05
8.7078911e-05
7.3966971e-05
5.8044095e-05
3.9351265e-05
1.6776493e-05
0.0001329663
0.00013111809
0.00012769381
0.00012343397
0.00011857754
0.00011294884
0.00010614041
9.7673317e-05
8.7084614e-05
7.3970212e-05
5.8045518e-05
3.9351646e-05
1.677658e-05
0.000132986
0.00013113766
0.00012771285
0.00012345184
0.00011859353
0.00011296238
0.00010615116
9.7681172e-05
8.7089758e-05
7.3973074e-05
5.8046732e-05
3.9351953e-05
1.6776662e-05
0.00013300507
0.00013115657
0.00012773116
0.0001234689
0.00011860867
0.00011297507
0.0001061611
9.7688341e-05
8.7094369e-05
7.3975577e-05
5.8047755e-05
3.9352194e-05
1.6776739e-05
0.00013302346