/*--------------------------------*- C++ -*----------------------------------*\
| =========                 |                                                 |
| \\      /  F ield         | OpenFOAM: The Open Source CFD Toolbox           |
|  \\    /   O peration     | Version:  2506                                  |
|   \\  /    A nd           | Website:  www.openfoam.com                      |
|    \\/     M anipulation  |                                                 |
\*---------------------------------------------------------------------------*/
FoamFile
{
    version     2.0;
    format      ascii;
    arch        "LSB;label=32;scalar=64";
    class       volVectorField;
    location    "16000/water";
    object      U;
}
// * * * * * * * * * * * * * * * * * * * * * * * * * * * * * * * * * * * * * //

dimensions      [0 1 -1 0 0 0 0];

internalField   nonuniform List<vector> 
2600
(
(0.2509291 -6.6886033e-05 1.0728242e-18)
(0.25093316 -0.00014739222 -2.3770944e-18)
(0.25094167 -0.00023143146 -3.729058e-19)
(0.2509543 -0.00031980044 -7.2585901e-19)
(0.25097092 -0.0004082391 -7.0976425e-20)
(0.25099124 -0.00049673666 -2.0447431e-19)
(0.25101467 -0.0005856609 -2.4506398e-19)
(0.25103908 -0.00067482201 1.7773336e-19)
(0.25105541 -0.00075972197 -4.046525e-20)
(0.25102652 -0.00083857781 -9.8300605e-20)
(0.25079811 -0.00098580402 -2.1502488e-19)
(0.24954942 -0.001485464 -2.1315134e-19)
(0.2411817 0.0014904344 -4.961771e-19)
(0.25290631 -5.2391824e-05 1.8484308e-18)
(0.25291356 -0.00012867936 -2.1428206e-18)
(0.25292967 -0.00020232594 -4.1751612e-19)
(0.25295369 -0.00027812692 -4.3022665e-19)
(0.25298503 -0.00035187867 -1.7728992e-20)
(0.25302278 -0.00042368282 -9.2586917e-20)
(0.25306456 -0.0004936843 -2.9618704e-19)
(0.25310219 -0.00056251339 3.8848255e-20)
(0.25310631 -0.00062550536 -7.1726532e-20)
(0.25297401 -0.00066089399 -9.6321361e-20)
(0.25231856 -0.00068576655 -2.6212864e-19)
(0.24919071 -0.0011507908 -4.4860584e-19)
(0.23317376 0.00055016191 -6.1950334e-19)
(0.25485703 -5.0201261e-05 1.0253001e-18)
(0.25486389 -0.00012463928 -9.3143289e-19)
(0.2548791 -0.00019574884 -1.2202341e-18)
(0.2549016 -0.00026956178 3.5074648e-19)
(0.25493052 -0.00034177627 -3.2250059e-20)
(0.25496396 -0.00041257844 4.4576626e-24)
(0.25499618 -0.00048173979 -3.101001e-20)
(0.25500857 -0.00054996705 3.2962154e-19)
(0.25494172 -0.0006163767 4.6336648e-19)
(0.2546073 -0.0006602417 1.8008038e-19)
(0.25332071 -0.00063871076 -9.4259107e-20)
(0.2478214 -0.00092597142 -5.4103823e-19)
(0.22526486 0.00012340436 -4.9283954e-19)
(0.25664521 -4.974385e-05 1.5137764e-18)
(0.25665224 -0.00012488064 5.0438594e-19)
(0.2566674 -0.00019721364 2.1899003e-19)
(0.2566896 -0.0002720698 -1.5760572e-19)
(0.25671747 -0.00034495172 -1.005929e-19)
(0.25674738 -0.00041609227 -2.1935322e-19)
(0.25676826 -0.0004848948 5.4544096e-20)
(0.25674667 -0.00055096518 2.9696963e-19)
(0.25658539 -0.00061444887 7.9849654e-20)
(0.2559957 -0.0006636637 1.8855988e-19)
(0.2539403 -0.00063277351 -6.1503996e-20)
(0.24583249 -0.00077044467 -4.3946583e-19)
(0.21800982 -5.9385922e-05 -4.8076222e-19)
(0.25841323 -4.8556775e-05 3.7175888e-19)
(0.2584204 -0.00012219546 1.6093701e-18)
(0.25843571 -0.00019301892 9.8637342e-19)
(0.25845781 -0.00026625064 -1.0234824e-18)
(0.25848442 -0.00033744492 -3.3463642e-19)
(0.25850914 -0.00040689654 -1.3246199e-19)
(0.25851346 -0.00047389151 -3.9019702e-20)
(0.25844542 -0.00053705871 -3.1044476e-19)
(0.25816424 -0.00059536594 -2.0356973e-20)
(0.25726648 -0.00064373127 -9.2335617e-21)
(0.25431322 -0.00061442321 -9.5383124e-21)
(0.24352458 -0.00065114415 -2.5606654e-19)
(0.21163262 -0.00012321892 -4.9837533e-19)
(0.26015467 -4.709344e-05 3.7384585e-19)
(0.26016187 -0.0001185153 1.5924554e-18)
(0.26017704 -0.0001870764 9.0159879e-19)
(0.2601984 -0.00025799462 3.7899853e-19)
(0.26022227 -0.00032687702 -3.493449e-19)
(0.26023853 -0.00039398781 -9.6484399e-20)
(0.26021927 -0.00045855461 -1.984756e-19)
(0.26009115 -0.00051865148 -4.4990926e-19)
(0.25966515 -0.00057157394 -9.3987145e-20)
(0.2584067 -0.00061480871 -6.2626871e-21)
(0.25443266 -0.00058544056 -1.9788664e-20)
(0.24102793 -0.0005571206 -1.8460576e-20)
(0.20612335 -0.00013293671 -3.8987702e-19)
(0.26183846 -4.5390268e-05 -3.749836e-20)
(0.26184561 -0.00011435405 9.7483424e-19)
(0.26186042 -0.00018050108 1.0357109e-18)
(0.26188043 -0.00024892327 1.0649546e-18)
(0.26190007 -0.00031528561 1.8048745e-20)
(0.26190445 -0.00037977027 5.8878577e-20)
(0.26185458 -0.00044151446 -1.6235178e-19)
(0.2616533 -0.00049832849 -3.1198983e-19)
(0.26105826 -0.00054618084 -4.3688998e-19)
(0.25938354 -0.00058222647 -1.0669311e-19)
(0.25426994 -0.00054801504 -1.1859415e-19)
(0.23842933 -0.00047868139 -8.5372952e-20)
(0.20141646 -0.00011963306 -4.1684974e-19)
(0.26345768 -4.3664882e-05 -2.2054885e-18)
(0.26346469 -0.00011008558 -1.134408e-18)
(0.26347885 -0.00017377013 -6.4560138e-19)
(0.26349678 -0.00023963045 -2.684335e-19)
(0.26351051 -0.00030340685 7.9363993e-20)
(0.26349932 -0.00036518044 1.3753504e-19)
(0.26341166 -0.00042394823 -7.0882388e-20)
(0.2631242 -0.00047735794 -1.7467453e-19)
(0.26233468 -0.00052050214 -1.2376432e-19)
(0.26018092 -0.00054846095 -1.8363988e-19)
(0.25381559 -0.00050481858 -8.8337869e-20)
(0.23581666 -0.00040978299 9.878385e-21)
(0.19745226 -9.8494616e-05 -2.7268876e-19)
(0.26501552 -4.2046877e-05 2.5628972e-18)
(0.26502225 -0.00010599907 6.0003791e-19)
(0.26503542 -0.0001673021 8.8586453e-19)
(0.26505044 -0.00023067618 6.9241737e-19)
(0.26505633 -0.00029193976 2.0554119e-19)
(0.26502564 -0.00035106733 -7.8665355e-20)
(0.26489279 -0.0004068816 -6.4528006e-20)
(0.26450568 -0.00045685738 -2.5169854e-19)
(0.26349313 -0.00049549056 -4.8299042e-19)
(0.26078727 -0.00051473411 -1.7553154e-19)
(0.25307513 -0.00045847926 -4.1246928e-20)
(0.23327192 -0.00034737981 1.268319e-19)
(0.19416843 -7.6932879e-05 -1.5792718e-19)
(0.2665165 -4.057706e-05 2.257252e-18)
(0.26652283 -0.00010224007 1.1575502e-18)
(0.26653459 -0.00016134013 1.0982488e-18)
(0.26654572 -0.0002224043 9.1076256e-19)
(0.26654166 -0.00028132047 1.8570997e-19)
(0.26648729 -0.00033795568 -1.07507e-19)
(0.26630156 -0.0003909415 -8.975489e-20)
(0.26580019 -0.00043752442 -1.7077326e-19)
(0.26453091 -0.00047164498 -3.2974357e-19)
(0.26118849 -0.00048140525 -1.5574668e-19)
(0.25206937 -0.00041120618 -1.026582e-19)
(0.23086314 -0.00029047959 -1.9198028e-19)
(0.19149027 -5.8333256e-05 -3.08466e-19)
(0.26796591 -3.9276698e-05 -2.3862833e-18)
(0.26797166 -9.8886216e-05 -3.9344748e-19)
(0.26798155 -0.00015601486 -4.5573604e-20)
(0.26798768 -0.00021499986 8.8318232e-19)
(0.26797137 -0.00027178437 3.2810626e-19)
(0.26788889 -0.00032612646 7.1229013e-20)
(0.26764202 -0.00037645613 -1.9986033e-19)
(0.26700984 -0.00041972353 -1.7051587e-19)
(0.26544297 -0.00044912486 -1.9956055e-19)
(0.26137042 -0.00044842588 -1.2910509e-19)
(0.25083979 -0.00036475941 -2.2119454e-19)
(0.22864123 -0.00023936528 -5.6832675e-19)
(0.18933265 -4.3854024e-05 -2.6621942e-19)
(0.26936985 -3.8151202e-05 -2.3813331e-19)
(0.26937484 -9.5961772e-05 -3.6512106e-19)
(0.26938229 -0.00015136516 4.8614466e-20)
(0.2693822 -0.00020851724 6.3040231e-19)
(0.26935114 -0.00026339986 5.5689278e-19)
(0.26923575 -0.00031565718 -2.1248096e-20)
(0.26891866 -0.00036350366 -2.7599226e-19)
(0.26813622 -0.00040351927 -1.472844e-19)
(0.26622207 -0.00042777198 -1.2088837e-19)
(0.26132397 -0.00041560855 -9.7072351e-20)
(0.24944814 -0.00032041762 -1.8803608e-19)
(0.22663743 -0.00019477817 -4.9465459e-19)
(0.18760708 -3.3365972e-05 -3.4029055e-19)
(0.27073452 -3.7186892e-05 4.0092675e-19)
(0.27073851 -9.3441595e-05 3.2770012e-20)
(0.27074291 -0.00014735094 -1.1829938e-19)
(0.27073523 -0.00020290124 5.5790391e-19)
(0.27068668 -0.00025609589 2.7566697e-19)
(0.27053315 -0.00030645578 -1.8204588e-20)
(0.27013553 -0.00035195662 -5.7165362e-20)
(0.26917943 -0.00038871662 -1.4187915e-19)
(0.26685881 -0.00040716162 -1.3214734e-19)
(0.26105041 -0.00038281108 -1.6804566e-19)
(0.24796793 -0.00027903903 -1.1445575e-19)
(0.2248628 -0.00015723519 -2.9668555e-19)
(0.18622942 -2.608962e-05 -3.3426979e-19)
(0.27206549 -3.6358597e-05 -2.1982181e-19)
(0.27206822 -9.1270025e-05 1.7763363e-19)
(0.27206885 -0.00014388431 9.3971802e-20)
(0.27205207 -0.00019803069 9.0575253e-19)
(0.27198302 -0.00024971698 -3.1327887e-19)
(0.27178551 -0.0002983267 1.9733136e-19)
(0.27129541 -0.00034156266 3.093114e-19)
(0.27013718 -0.00037494839 -1.9599943e-19)
(0.26734241 -0.00038673535 -7.9040719e-20)
(0.2605654 -0.00035005845 -1.4170011e-19)
(0.24647172 -0.00024119444 -1.960571e-19)
(0.22331131 -0.00012666963 -2.6077781e-19)
(0.18512583 -2.107637e-05 -4.0047963e-19)
(0.27336737 -3.5638788e-05 5.7439528e-19)
(0.27336856 -8.938186e-05 -7.0015759e-20)
(0.27336463 -0.00014086217 1.0292034e-18)
(0.27333706 -0.00019376295 1.1903099e-19)
(0.27324415 -0.00024407934 9.1817962e-20)
(0.27299604 -0.00029103799 2.6727091e-19)
(0.27239931 -0.00033202383 2.6718848e-19)
(0.27100443 -0.00036176734 -3.028714e-23)
(0.26766283 -0.00036596046 2.1512964e-19)
(0.25989992 -0.00031757793 -3.3652023e-20)
(0.24502002 -0.00020725745 -4.2801964e-19)
(0.22196569 -0.00010242448 -2.0750414e-19)
(0.18423545 -1.7507117e-05 -1.9718508e-19)
(0.27464382 -3.5002894e-05 7.1880716e-19)
(0.27464313 -8.7716018e-05 -1.3970693e-20)
(0.27463375 -0.00013818758 9.7953825e-19)
(0.2745935 -0.00018996324 2.22051e-19)
(0.27447297 -0.0002390078 5.7732614e-19)
(0.27416661 -0.00028436529 2.506316e-19)
(0.27344636 -0.00032304577 -6.8223344e-20)
(0.27177364 -0.00034871442 7.4530475e-20)
(0.26781391 -0.00034445792 -1.0175763e-19)
(0.25909705 -0.00028576382 -2.171443e-19)
(0.2436552 -0.00017740821 -3.9369647e-19)
(0.22080343 -8.347306e-05 -3.6410069e-19)
(0.18351045 -1.4804615e-05 1.8142757e-20)
(0.27589768 -3.4431105e-05 3.0701799e-19)
(0.27589473 -8.6221417e-05 6.5235345e-19)
(0.27587888 -0.00013577914 1.0871472e-19)
(0.27582384 -0.00018651757 -9.6299671e-20)
(0.27567139 -0.00023435206 1.6535965e-19)
(0.27529788 -0.00027811161 3.1896549e-20)
(0.27443375 -0.00031435606 -1.8759725e-19)
(0.27243556 -0.00033536392 3.7837413e-20)
(0.26779662 -0.00032206948 -6.657018e-20)
(0.25820551 -0.00025510598 -2.3651589e-19)
(0.24240122 -0.00015160162 -1.9281086e-19)
(0.21980119 -6.8691002e-05 -2.7708949e-19)
(0.18291435 -1.2618553e-05 -2.8040184e-19)
(0.27713109 -3.3908296e-05 8.9291509e-19)
(0.27712546 -8.4858001e-05 9.3102546e-20)
(0.27710201 -0.00013357264 -2.5925841e-19)
(0.27702977 -0.00018333501 5.3718025e-20)
(0.27684047 -0.00022998947 1.3109663e-19)
(0.2763893 -0.00027211088 2.583085e-20)
(0.27535691 -0.00030570399 -1.6066074e-20)
(0.2729805 -0.00032135787 -4.2955013e-21)
(0.26762111 -0.00029886295 -8.7585577e-20)
(0.25727242 -0.00022610441 -6.4723436e-20)
(0.24126718 -0.00012956886 -1.0107451e-19)
(0.21893722 -5.7057435e-05 -3.1212191e-19)
(0.18241982 -1.0759083e-05 -2.2046974e-19)
(0.27834572 -3.3423243e-05 1.7005308e-18)
(0.27833694 -8.3595438e-05 -4.41552e-19)
(0.2783046 -0.00013151911 -2.8295685e-19)
(0.27821241 -0.00018034488 7.5515102e-19)
(0.27798052 -0.00022582105 4.1282592e-20)
(0.27743925 -0.00026622306 1.0937028e-19)
(0.27620962 -0.00029685485 3.058056e-19)
(0.27340008 -0.00030643644 -3.4011657e-20)
(0.26730692 -0.00027509383 -2.3436229e-19)
(0.25633756 -0.0001991843 -2.6013182e-20)
(0.24025214 -0.0001108758 1.4436701e-20)
(0.21819234 -4.7749367e-05 -2.1226675e-19)
(0.18200662 -9.1303522e-06 -3.4746679e-19)
(0.27954284 -3.2967675e-05 1.7495133e-18)
(0.27953036 -8.2411064e-05 4.9207456e-19)
(0.27948767 -0.00012958149 1.1932919e-18)
(0.27937237 -0.00017749197 2.0105934e-20)
(0.27909121 -0.00022176546 2.8693888e-20)
(0.27844503 -0.00026032527 -1.5182227e-20)
(0.27698441 -0.00028758731 2.0226893e-19)
(0.27368915 -0.00029046172 3.791119e-20)
(0.26688073 -0.00025114512 1.1960549e-19)
(0.25543062 -0.00017462896 2.800926e-19)
(0.2393495 -9.5013855e-05 1.0369227e-19)
(0.21755 -4.0152308e-05 1.5115431e-19)
(0.18165972 -7.6839569e-06 -1.2755465e-19)
(0.28072346 -3.253541e-05 -8.558091e-19)
(0.28070667 -8.1287793e-05 1.0522731e-18)
(0.28065194 -0.00012773124 1.2813183e-18)
(0.28050986 -0.0001747318 2.6726355e-19)
(0.28017156 -0.00021775303 -1.3238941e-19)
(0.27940289 -0.00025430188 6.9801438e-20)
(0.27767312 -0.00027769789 2.8051642e-19)
(0.27384765 -0.00027342827 2.9938235e-19)
(0.26637281 -0.00022746053 1.0486837e-19)
(0.2545711 -0.0001525485 -1.8551633e-19)
(0.23855012 -8.1484031e-05 -3.6669116e-19)
(0.21699614 -3.3827435e-05 5.0416217e-20)
(0.18136794 -6.3925384e-06 1.5354719e-19)
(0.28188837 -3.2121656e-05 -2.32772e-18)
(0.28186655 -8.0212343e-05 2.5040716e-18)
(0.28179785 -0.00012594549 -2.9704932e-21)
(0.28162471 -0.00017202641 4.66869e-19)
(0.28121999 -0.00021372065 2.7338592e-19)
(0.28030804 -0.00024803604 3.0760722e-19)
(0.27826773 -0.00026701328 7.7133577e-20)
(0.27388156 -0.00025545692 1.5612683e-19)
(0.26581311 -0.00020447967 -1.0995946e-19)
(0.25377001 -0.00013289057 -5.836396e-19)
(0.23784411 -6.9849922e-05 -5.2462001e-19)
(0.21651887 -2.8467155e-05 -1.9384774e-19)
(0.18112283 -5.2370934e-06 -1.8306355e-20)
(0.28303819 -3.1722486e-05 1.5103707e-18)
(0.28301052 -7.9173849e-05 1.4048636e-18)
(0.28292559 -0.00012420469 3.8889548e-20)
(0.28271638 -0.00016934096 -2.684419e-19)
(0.2822343 -0.00020960734 6.8319351e-19)
(0.28115476 -0.00024140493 2.7669787e-19)
(0.27876144 -0.00025540748 -1.5781813e-19)
(0.27380291 -0.00023677356 1.5974907e-19)
(0.26522808 -0.00018258167 9.5921332e-20)
(0.25303215 -0.00011548282 -4.6400539e-20)
(0.23722187 -5.9756962e-05 1.1198e-19)
(0.21610816 -2.3855674e-05 -7.10131e-20)
(0.18091788 -4.2018434e-06 6.9659835e-20)
(0.28417339 -3.1334452e-05 3.4245174e-18)
(0.28413893 -7.8162818e-05 -3.5058901e-19)
(0.28403512 -0.00012249081 3.6101929e-19)
(0.28378396 -0.00016664114 3.5426617e-19)
(0.28321158 -0.0002053501 -6.5852629e-20)
(0.28193659 -0.00023428041 1.3413423e-19)
(0.27914984 -0.00024281874 4.3936608e-19)
(0.27362851 -0.00021767781 6.9080904e-19)
(0.26463906 -0.00016204558 2.3366579e-19)
(0.25235823 -0.00010008753 -2.4143937e-19)
(0.23667446 -5.0928433e-05 -1.7895059e-19)
(0.21575559 -1.9839553e-05 -1.0862353e-19)
(0.18074793 -3.2726373e-06 -2.0638846e-20)
(0.28529433 -3.0954305e-05 1.7314674e-19)
(0.28525196 -7.7170336e-05 -5.2031681e-19)
(0.28512619 -0.000120786 1.1609601e-18)
(0.28482614 -0.00016389138 5.2132619e-19)
(0.28414822 -0.00020087986 1.2256661e-19)
(0.28264669 -0.00022653515 5.8511747e-20)
(0.27943202 -0.00022926076 3.7181952e-19)
(0.27337791 -0.00019850622 2.7820346e-19)
(0.26406181 -0.0001430334 1.5510005e-19)
(0.25174654 -8.644968e-05 2.0195312e-20)
(0.23619383 -4.3151082e-05 -3.3550262e-19)
(0.21545404 -1.6307482e-05 -2.5441067e-19)
(0.18060883 -2.4367075e-06 -3.8763642e-20)
(0.28640123 -3.0578784e-05 -2.2011209e-18)
(0.28634965 -7.6187464e-05 -5.9279894e-19)
(0.28619826 -0.00011907139 6.4144229e-19)
(0.28584114 -0.00016105348 -1.6522674e-19)
(0.28503985 -0.00019611847 5.2592979e-19)
(0.2832784 -0.00021805401 1.2525368e-19)
(0.27961117 -0.00021482471 -4.0904366e-20)
(0.27307114 -0.00017959427 9.1629436e-20)
(0.26350715 -0.00012559658 2.1785923e-19)
(0.25119402 -7.4328967e-05 4.0325496e-19)
(0.23577276 -3.6259373e-05 2.2732396e-19)
(0.21519748 -1.3176837e-05 -1.2315711e-19)
(0.18049716 -1.6827583e-06 1.0743653e-19)
(0.28749419 -3.0204452e-05 -5.5702858e-19)
(0.28743185 -7.520472e-05 1.939625e-18)
(0.28725056 -0.00011732616 -4.8272683e-19)
(0.28682673 -0.0001580853 -1.1422392e-19)
(0.28588145 -0.00019097762 4.5516158e-19)
(0.28382593 -0.00020874813 1.3611104e-19)
(0.27969464 -0.00019967158 1.5152246e-20)
(0.27272685 -0.00016124193 5.430436e-21)
(0.26298189 -0.00010969946 4.4011069e-20)
(0.25069697 -6.3515019e-05 -2.4791101e-20)
(0.23540492 -3.0122543e-05 2.5764013e-19)
(0.21498079 -1.0384802e-05 -6.0355277e-20)
(0.18041 -1.0010027e-06 -6.0288261e-20)
(0.28857317 -2.9827535e-05 2.4273623e-18)
(0.28849825 -7.4211612e-05 1.2945082e-18)
(0.28828196 -0.00011552671 -1.2991173e-19)
(0.28778008 -0.00015493915 3.0881811e-19)
(0.28666738 -0.00018536089 3.9858587e-19)
(0.28428521 -0.00019856896 2.9304286e-19)
(0.27969326 -0.00018401637 7.8788465e-20)
(0.27236107 -0.00014368791 3.0810803e-19)
(0.26248991 -9.5249866e-05 1.4064219e-19)
(0.25025143 -5.3830553e-05 8.1069405e-20)
(0.23508472 -2.4635272e-05 1.4415863e-19)
(0.21479959 -7.8824897e-06 2.7619975e-20)
(0.18034487 -3.830797e-07 -6.6212448e-20)
(0.28963798 -2.944375e-05 1.839364e-18)
(0.28954832 -7.3196105e-05 5.2918427e-19)
(0.28929102 -0.00011364593 7.2123407e-19)
(0.2886978 -0.00015155982 9.7320245e-19)
(0.28739174 -0.00017916927 6.8085754e-20)
(0.28465455 -0.00018751865 5.3012352e-19)
(0.27962017 -0.00016810641 6.8811942e-19)
(0.2719867 -0.00012709648 8.1243081e-19)
(0.26203302 -8.2127518e-05 1.3989471e-19)
(0.24985346 -4.512813e-05 -2.4136787e-19)
(0.23480728 -1.9711265e-05 -4.1992137e-19)
(0.21465012 -5.6309918e-06 -2.7408093e-20)
(0.18029962 1.7812818e-07 -5.1792398e-20)
(0.29068824 -2.9047996e-05 7.2667125e-19)
(0.29058125 -7.214382e-05 7.5498083e-19)
(0.29027586 -0.0001116522 1.3405922e-18)
(0.28957586 -0.00014788248 8.0391992e-19)
(0.28804865 -0.00017230926 4.6263341e-19)
(0.28493523 -0.00017565385 4.1592015e-19)
(0.2794894 -0.00015219579 5.5348425e-19)
(0.2716136 -0.00011155661 1.3238771e-19)
(0.26161163 -7.020356e-05 9.1166418e-20)
(0.24949925 -3.7283206e-05 3.7281419e-20)
(0.23456828 -1.527706e-05 -3.3165412e-19)
(0.21452909 -3.5978753e-06 1.7671802e-21)
(0.18027234 6.8891561e-07 -3.544848e-21)
(0.29172336 -2.863428e-05 -8.2010444e-19)
(0.291596 -7.1037634e-05 3.1748072e-20)
(0.29123415 -0.00010950892 7.7143488e-19)
(0.29040962 -0.00014383257 3.6767143e-20)
(0.28863287 -0.00016470429 8.3890661e-19)
(0.28513156 -0.00016308395 4.3438655e-19)
(0.27931466 -0.00013652205 2.3506237e-20)
(0.27124896 -9.7093554e-05 3.0455587e-19)
(0.26122524 -5.9353646e-05 3.9556288e-19)
(0.24918522 -3.0190174e-05 4.5005688e-19)
(0.23436395 -1.1270299e-05 3.1534288e-19)
(0.2144337 -1.7305506e-06 1.5073877e-19)
(0.18026136 1.1761556e-06 1.2617447e-19)
(0.29274252 -2.8196034e-05 -9.5054778e-19)
(0.29259116 -6.9858459e-05 1.0836885e-18)
(0.29216305 -0.00010717576 -7.2708742e-20)
(0.29119393 -0.00013933085 1.3324041e-19)
(0.28914031 -0.00015631032 4.96192e-19)
(0.28525057 -0.00014996782 4.48095e-19)
(0.27910837 -0.00012129297 1.9808725e-19)
(0.2708978 -8.3692842e-05 2.8152641e-19)
(0.26087272 -4.94716e-05 2.2622281e-19)
(0.24890802 -2.3766772e-05 5.3341218e-20)
(0.23419085 -7.6476562e-06 2.2297668e-19)
(0.21436056 -1.6258114e-08 2.4214525e-20)
(0.18026627 1.6403964e-06 -3.1926789e-20)
(0.2937446 -2.7725099e-05 1.4296712e-18)
(0.29356496 -6.858319e-05 1.7129797e-18)
(0.29305914 -0.00010460504 4.1400282e-19)
(0.29192334 -0.00013429445 2.1121615e-19)
(0.28956868 -0.00014712078 4.2301648e-19)
(0.2853013 -0.00013649478 4.8996808e-20)
(0.27888121 -0.00010666836 7.7937133e-20)
(0.27056351 -7.1310468e-05 -9.1230204e-20)
(0.26055265 -4.0462888e-05 5.0286821e-21)
(0.24866458 -1.794025e-05 1.5534309e-19)
(0.23404606 -4.3539031e-06 1.4482158e-19)
(0.21430781 1.5374075e-06 6.8024887e-20)
(0.18028522 2.0563881e-06 1.583194e-20)
(0.29472815 -2.7211025e-05 1.9972858e-18)
(0.29451518 -6.7183246e-05 1.2617616e-18)
(0.29391842 -0.00010173906 5.6135946e-19)
(0.29259237 -0.00012864185 9.0953418e-19)
(0.28991788 -0.00013716949 -1.0179926e-19)
(0.28529395 -0.00012286451 5.4107195e-20)
(0.27864192 -9.2752917e-05 5.7861854e-19)
(0.27024822 -5.9882433e-05 3.8119774e-19)
(0.26026336 -3.2238655e-05 -5.188153e-21)
(0.24845204 -1.2642371e-05 -4.425581e-19)
(0.23392646 -1.3358776e-06 -3.3372601e-19)
(0.21427448 2.9561787e-06 -2.4829567e-20)
(0.18031663 2.4263121e-06 -2.7432678e-20)
(0.29569132 -2.6641403e-05 -4.6780529e-20)
(0.2954391 -6.5625548e-05 3.3375981e-19)
(0.29473631 -9.8512685e-05 7.8364359e-19)
(0.29319592 -0.00012230569 7.7901281e-19)
(0.29019018 -0.00012653596 2.4638819e-21)
(0.2852389 -0.00010927515 3.7479026e-19)
(0.27839743 -7.9607253e-05 5.8435573e-19)
(0.26995312 -4.9342216e-05 1.0147681e-19)
(0.26000309 -2.4722169e-05 9.4607019e-20)
(0.24826773 -7.8150849e-06 6.8651441e-20)
(0.23382955 1.4151537e-06 -7.4030103e-20)
(0.21425921 4.239083e-06 -2.1518936e-20)
(0.18035932 2.7544352e-06 4.7093981e-21)
(0.29663173 -2.6001182e-05 -1.8499988e-18)
(0.29633339 -6.3871157e-05 -5.7470497e-20)
(0.29550768 -9.4853895e-05 1.3085006e-18)
(0.29372976 -0.00011524119 3.7270569e-20)
(0.29039011 -0.00011533897 6.6516248e-19)
(0.28514604 -9.5905376e-05 2.3449677e-19)
(0.27815305 -6.7254129e-05 -8.2577294e-20)
(0.26967872 -3.9623323e-05 2.3637085e-19)
(0.25977003 -1.7841846e-05 3.8291241e-19)
(0.24810923 -3.3839599e-06 8.1607807e-19)
(0.23375398 3.9312105e-06 6.2788365e-19)
(0.21425996 5.3906128e-06 3.5206927e-19)
(0.18041214 3.0443404e-06 2.4202012e-19)
(0.29754645 -2.527239e-05 8.2032837e-19)
(0.29719411 -6.1874452e-05 1.3436992e-18)
(0.29622706 -9.0687762e-05 1.1394661e-18)
(0.29419101 -0.00010743479 3.1458557e-19)
(0.290524 -0.00010372737 4.0850292e-19)
(0.28502427 -8.2903361e-05 1.3225896e-19)
(0.27791277 -5.5688931e-05 3.559183e-20)
(0.26942499 -3.0662227e-05 2.2550165e-19)
(0.25956226 -1.1539677e-05 3.9758123e-19)
(0.24797362 6.7589998e-07 3.3369942e-19)
(0.23369893 6.2277226e-06 3.4832032e-19)
(0.21427538 6.4296379e-06 2.2516143e-19)
(0.18047413 3.3030872e-06 3.5193229e-20)
(0.29843186 -2.4434089e-05 1.5601115e-18)
(0.29801658 -5.958298e-05 1.7161417e-18)
(0.29688883 -8.5943396e-05 1.1696417e-18)
(0.29457851 -9.8910844e-05 6.3899745e-19)
(0.29059935 -9.1868428e-05 3.3057195e-19)
(0.28488126 -7.0382618e-05 2.5621326e-19)
(0.27767954 -4.4890676e-05 3.5092247e-19)
(0.26919163 -2.2395838e-05 3.9822174e-19)
(0.25937815 -5.736413e-06 3.5141918e-19)
(0.24785972 4.3904863e-06 2.4827277e-19)
(0.2336621 8.3015978e-06 2.2458622e-19)
(0.21430404 7.3666984e-06 2.0144353e-20)
(0.18054443 3.5354647e-06 9.5218591e-21)
(0.29928359 -2.3462152e-05 1.7309018e-18)
(0.29879547 -5.693759e-05 4.7486025e-20)
(0.29748763 -8.056162e-05 2.2035958e-20)
(0.29489309 -8.9732425e-05 1.2572388e-18)
(0.29062422 -7.9932334e-05 -1.6585199e-19)
(0.28472341 -5.8420096e-05 2.3697372e-19)
(0.27745536 -3.4827525e-05 1.0998703e-18)
(0.26897782 -1.4770402e-05 1.1243967e-18)
(0.25921519 -3.9179387e-07 3.2105102e-19)
(0.24776702 7.7920481e-06 -3.0282511e-19)
(0.23364198 1.0181104e-05 -4.2593338e-20)
(0.21434474 8.2147634e-06 -3.5443041e-20)
(0.18062225 3.7449979e-06 4.8902957e-20)
(0.30009637 -2.2329729e-05 3.9121391e-19)
(0.29952479 -5.3875495e-05 1.1227706e-18)
(0.29801875 -7.4505251e-05 -3.5026343e-19)
(0.29513749 -7.9999945e-05 8.7629974e-19)
(0.29060659 -6.8080573e-05 4.8170843e-19)
(0.28455591 -4.7062472e-05 5.624444e-19)
(0.27724164 -2.5459218e-05 6.772096e-19)
(0.2687829 -7.7156635e-06 2.5778829e-19)
(0.25907248 4.5153965e-06 2.7807187e-20)
(0.24769347 1.0881387e-05 -1.3837836e-19)
(0.23363709 1.1884864e-05 -2.6829029e-19)
(0.21439637 8.9837426e-06 -5.1416408e-20)
(0.1807069 3.9343476e-06 -7.1245798e-20)
(0.30086402 -2.1007836e-05 2.4931943e-18)
(0.30019808 -5.0335136e-05 3.8242512e-18)
(0.29847858 -6.7767495e-05 1.92295e-18)
(0.29531607 -6.9843614e-05 -4.1130547e-19)
(0.29055391 -5.6454415e-05 7.9415683e-19)
(0.28438287 -3.6332015e-05 7.314549e-19)
(0.27703906 -1.6748254e-05 -4.1229059e-19)
(0.2686053 -1.1875178e-06 -6.8117511e-19)
(0.25894976 9.0213436e-06 -6.8368921e-21)
(0.24763751 1.36898e-05 3.6967832e-19)
(0.23364609 1.3431091e-05 4.9210828e-20)
(0.21445793 9.6806824e-06 -1.0019485e-19)
(0.18079772 4.1050203e-06 -5.6121027e-20)
(0.30157943 -1.946719e-05 1.8760352e-18)
(0.30080863 -4.6264335e-05 2.959522e-18)
(0.29886499 -6.0378821e-05 1.8040224e-18)
(0.29543444 -5.9413945e-05 -6.2648724e-20)
(0.29047287 -4.5169357e-05 5.9155539e-20)
(0.28420752 -2.6229141e-05 1.7062442e-19)
(0.27684812 -8.6362586e-06 -3.6313538e-19)
(0.26844451 4.8386555e-06 -3.3051052e-19)
(0.25884557 1.3135776e-05 1.4720041e-19)
(0.2475977 1.6244104e-05 5.6673107e-20)
(0.23366777 1.4835361e-05 2.0598984e-19)
(0.21452852 1.0311987e-05 -8.396047e-20)
(0.18089414 4.2585317e-06 -1.0482933e-19)
(0.30223466 -1.7681567e-05 -1.6131839e-18)
(0.3013499 -4.1630423e-05 -2.0649691e-19)
(0.29917751 -5.240953e-05 -5.5505543e-19)
(0.29549883 -4.8869411e-05 7.2685697e-19)
(0.29036918 -3.4313641e-05 3.3444341e-19)
(0.28403214 -1.6747501e-05 2.1947704e-19)
(0.27666826 -1.0890952e-06 6.3120356e-19)
(0.26830088 1.039099e-05 2.0802926e-19)
(0.25875851 1.6888496e-05 -1.291232e-19)
(0.24757272 1.8568194e-05 -2.727061e-19)
(0.23370102 1.611003e-05 8.5504434e-20)
(0.21460732 1.0882768e-05 -6.2368323e-20)
(0.18099561 4.3960774e-06 -9.0126021e-20)
(0.30282117 -1.5633387e-05 1.6473687e-18)
(0.30181594 -3.6431479e-05 5.0988796e-19)
(0.29941741 -4.3968546e-05 -3.7835335e-19)
(0.29551566 -3.8365455e-05 5.2684427e-19)
(0.2902477 -2.3945211e-05 7.205972e-19)
(0.28385859 -7.8477118e-06 3.5169443e-19)
(0.27649982 5.9141374e-06 4.0274372e-19)
(0.26817344 1.5479827e-05 -6.1937886e-20)
(0.25868728 2.0310854e-05 -1.7350323e-19)
(0.24756135 2.0682648e-05 -1.8762831e-19)
(0.23374484 1.7265712e-05 -1.7859858e-20)
(0.21469357 1.1397593e-05 -7.3855194e-20)
(0.18110164 4.5187632e-06 -6.9165786e-20)
(0.30333026 -1.3320785e-05 1.3940805e-18)
(0.30220188 -3.0705578e-05 2.7393761e-18)
(0.29958744 -3.5196361e-05 1.7372199e-18)
(0.29549103 -2.8043633e-05 1.8056491e-19)
(0.29011218 -1.4099827e-05 4.4566888e-19)
(0.28368733 4.8518694e-07 1.3488188e-19)
(0.276344 1.2388914e-05 -2.9105412e-19)
(0.26806118 2.0135142e-05 -1.6536066e-19)
(0.2586307 2.3431367e-05 2.4488439e-19)
(0.24756246 2.260458e-05 2.6752417e-19)
(0.23379832 1.8311484e-05 -9.0047853e-20)
(0.21478659 1.1860475e-05 7.7057007e-20)
(0.18121176 4.627553e-06 -9.2722469e-20)
(0.30375373 -1.0764898e-05 1.805208e-18)
(0.30250438 -2.4536343e-05 3.8087082e-18)
(0.29969147 -2.6255579e-05 2.6217956e-18)
(0.29543051 -1.8024182e-05 -6.6649131e-19)
(0.28996561 -4.7857966e-06 1.6473551e-19)
(0.28352015 8.2431365e-06 4.0924316e-20)
(0.27620025 1.8335901e-05 -1.3021873e-19)
(0.26796311 2.4389485e-05 2.1949043e-19)
(0.25858763 2.6274674e-05 2.7648238e-19)
(0.24757502 2.4348929e-05 2.3490346e-19)
(0.2338606 1.9255549e-05 -3.3375028e-20)
(0.21488574 1.2275095e-05 -1.5024857e-19)
(0.18132555 4.7233476e-06 -8.9746328e-20)
(0.30408466 -8.0145679e-06 1.7662221e-18)
(0.30272185 -1.8051778e-05 2.1952808e-18)
(0.29973407 -1.7315869e-05 1.8999667e-18)
(0.29533886 -8.3895674e-06 8.2471099e-19)
(0.28980995 3.9789787e-06 5.635356e-19)
(0.28335875 1.5424517e-05 2.7203926e-19)
(0.27606809 2.3784752e-05 -2.8518735e-19)
(0.26787825 2.8272301e-05 1.5997131e-20)
(0.25855702 2.8860185e-05 -1.6614983e-19)
(0.24759809 2.5927633e-05 -7.0466484e-20)
(0.23393092 2.0104427e-05 1.1747211e-19)
(0.21499043 1.2644243e-05 -6.6351961e-20)
(0.1814426 4.8067304e-06 -2.0713551e-21)
(0.30431819 -5.1449372e-06 1.5862613e-18)
(0.3028546 -1.1412626e-05 -4.8815685e-19)
(0.29971994 -8.5331468e-06 4.6513898e-19)
(0.29521955 7.820982e-07 2.058297e-18)
(0.28964857 1.2143096e-05 7.1069999e-19)
(0.28320331 2.2022633e-05 4.2697628e-19)
(0.27594691 2.8765135e-05 7.9803339e-19)
(0.26780566 3.1808708e-05 3.0711529e-20)
(0.25853789 3.1205186e-05 -3.985498e-19)
(0.24763076 2.7351726e-05 -3.3849745e-19)
(0.23400854 2.0864212e-05 -2.5242737e-20)
(0.2151001 1.2970561e-05 2.3959182e-20)
(0.18156252 4.8782919e-06 -1.7330456e-20)
(0.30445221 -2.2472277e-06 3.19022e-18)
(0.30290466 -4.7892271e-06 1.8376663e-19)
(0.2996534 -5.7432836e-08 -8.4699793e-19)
(0.29507686 9.3868821e-06 6.5512342e-19)
(0.28948321 1.9670559e-05 9.0370567e-19)
(0.28305385 2.8057806e-05 7.5512856e-19)
(0.27583605 3.3302681e-05 9.0620151e-19)
(0.26774441 3.5018195e-05 1.8303551e-19)
(0.25852929 3.3323437e-05 -1.0679975e-20)
(0.24767222 2.8629913e-05 2.998096e-20)
(0.23409279 2.1539495e-05 1.1398592e-19)
(0.21521426 1.3255896e-05 1.018538e-19)
(0.18168496 4.9383583e-06 -1.5964786e-20)
(0.30448759 5.814332e-07 -1.1742931e-19)
(0.30287533 1.6331991e-06 1.0198061e-18)
(0.29953939 7.9403874e-06 -4.818976e-19)
(0.29491435 1.7334243e-05 3.6860609e-19)
(0.28931491 2.6550382e-05 3.9532143e-19)
(0.28291026 3.3548712e-05 5.3771745e-19)
(0.2757348 3.7416514e-05 -9.4917979e-21)
(0.26769361 3.7916263e-05 9.8895493e-20)
(0.25853035 3.5226102e-05 3.5331026e-19)
(0.24772169 2.9769068e-05 4.9516137e-19)
(0.23418305 2.2133726e-05 3.5799344e-19)
(0.2153324 1.3501523e-05 3.3589373e-19)
(0.18180955 4.9870828e-06 4.8422505e-20)
(0.30442824 3.2381376e-06 -1.5529169e-18)
(0.30277199 7.6569818e-06 1.7197717e-18)
(0.29938292 1.5303998e-05 1.1018972e-18)
(0.29473444 2.4565361e-05 -8.6618448e-19)
(0.28914434 3.2781683e-05 -1.3059621e-19)
(0.28277222 3.8508109e-05 -1.490192e-19)
(0.27564244 4.1120433e-05 -2.1803563e-19)
(0.26765239 4.0514571e-05 1.6604106e-19)
(0.25854021 3.6921344e-05 2.0967507e-19)
(0.24777843 3.0773885e-05 2.7948649e-19)
(0.23427872 2.2648988e-05 1.3876774e-20)
(0.21545406 1.3708009e-05 -5.195904e-20)
(0.18193595 5.0243893e-06 -1.8731427e-20)
(0.30428147 5.6355857e-06 -2.8037146e-19)
(0.30260141 1.3122373e-05 2.1156719e-18)
(0.29918843 2.1930409e-05 1.812403e-18)
(0.29453912 3.1047505e-05 -2.3961736e-19)
(0.28897192 3.8362667e-05 8.4138927e-20)
(0.28263933 4.2943526e-05 4.3791551e-19)
(0.2755582 4.4423817e-05 1.3585937e-19)
(0.26761989 4.2820963e-05 2.854187e-19)
(0.25855808 3.8414232e-05 1.1263894e-19)
(0.24784174 3.1646832e-05 7.3424533e-21)
(0.23437921 2.3085946e-05 -5.2043877e-20)
(0.21557877 1.3875162e-05 2.1277431e-20)
(0.18206381 5.0499491e-06 2.2875142e-20)
(0.30405678 7.7205384e-06 1.7907781e-18)
(0.30237113 1.79267e-05 3.7488377e-18)
(0.29896016 2.7756802e-05 1.7335921e-18)
(0.29433004 3.6759502e-05 7.0740012e-19)
(0.28879784 4.3290984e-05 1.418161e-19)
(0.2825111 4.6859595e-05 3.2974786e-19)
(0.2754813 4.7332588e-05 4.9873407e-19)
(0.26759529 4.4839931e-05 4.2532025e-19)
(0.25858316 3.9707086e-05 2.5079309e-19)
(0.24791094 3.2388389e-05 1.3621837e-19)
(0.23448396 2.3443992e-05 6.362566e-20)
(0.21570609 1.4002107e-05 5.1605079e-20)
(0.18219278 5.0632072e-06 1.1765986e-20)
(0.30376497 9.4676882e-06 1.5684069e-18)
(0.30208913 2.2015472e-05 3.0379119e-18)
(0.29870222 3.2751916e-05 6.7175776e-19)
(0.29410866 4.1691443e-05 7.575035e-19)
(0.2886222 4.7566309e-05 6.9316123e-19)
(0.28238699 5.0259479e-05 2.767879e-19)