/*--------------------------------*- C++ -*----------------------------------*\
| =========                 |                                                 |
| \\      /  F ield         | OpenFOAM: The Open Source CFD Toolbox           |
|  \\    /   O peration     | Version:  2506                                  |
|   \\  /    A nd           | Website:  www.openfoam.com                      |
|    \\/     M anipulation  |                                                 |
\*---------------------------------------------------------------------------*/
FoamFile
{
    version     2.0;
    format      ascii;
    arch        "LSB;label=32;scalar=64";
    class       volScalarField;
    location    "21000/water";
    object      epsilon;
}
// * * * * * * * * * * * * * * * * * * * * * * * * * * * * * * * * * * * * * //

dimensions      [0 2 -3 0 0 0 0];

internalField   nonuniform List<scalar> 
1000
(
7.2399316e-05
7.2397808e-05
7.2397502e-05
7.2398682e-05
7.2424146e-05
7.2686938e-05
7.4736184e-05
8.8973295e-05
0.00019794853
0.0013048048
4.7739543e-05
4.7745807e-05
4.7746167e-05
4.7748745e-05
4.7810065e-05
4.8371229e-05
5.2145896e-05
7.5319319e-05
0.00023607338
0.0016574915
3.3261229e-05
3.326441e-05
3.3263962e-05
3.3272039e-05
3.3396639e-05
3.4348945e-05
3.9973166e-05
7.1502215e-05
0.00026550025
0.0016622
2.4212884e-05
2.4213778e-05
2.421353e-05
2.4236018e-05
2.4468827e-05
2.5979959e-05
3.408666e-05
7.6375076e-05
0.00030233531
0.0015600257
1.8263229e-05
1.8263302e-05
1.8265922e-05
1.8318446e-05
1.873072e-05
2.1090699e-05
3.2935452e-05
9.0422558e-05
0.00035053409
0.0014605589
1.4183053e-05
1.4183388e-05
1.4193787e-05
1.4301413e-05
1.5003316e-05
1.8678135e-05
3.616785e-05
0.00011337666
0.00040230408
0.0013944152
1.1285033e-05
1.1287109e-05
1.1313191e-05
1.1514088e-05
1.2672053e-05
1.8360645e-05
4.3854108e-05
0.0001425506
0.00044702334
0.001359313
9.1651308e-06
9.1712238e-06
9.2251474e-06
9.5765186e-06
1.1437677e-05
2.010722e-05
5.5828217e-05
0.00017322859
0.00047957543
0.0013440707
7.5754963e-06
7.5890768e-06
7.6892457e-06
8.2761063e-06
1.1198225e-05
2.4041236e-05
7.1186917e-05
0.00020099012
0.00050080696
0.0013390502
6.3585386e-06
6.3848728e-06
6.5589464e-06
7.5064268e-06
1.198454e-05
3.0236108e-05
8.827725e-05
0.00022355883
0.00051393
0.0013385658
5.4111025e-06
5.4581717e-06
5.747495e-06
7.2369366e-06
1.3906694e-05
3.8515435e-05
0.00010524302
0.0002407828
0.00052197883
0.0013399579
4.6642398e-06
4.7441303e-06
5.2100545e-06
7.4969552e-06
1.7087026e-05
4.8355559e-05
0.0001206823
0.00025359529
0.00052708051
0.0013422097
4.0714679e-06
4.2024405e-06
4.9349834e-06
8.3622755e-06
2.1575482e-05
5.8975495e-05
0.00013393054
0.00026313404
0.00053055266
0.0013450164
3.6019037e-06
3.8114136e-06
4.9402473e-06
9.9351261e-06
2.7272231e-05
6.9567063e-05
0.00014492622
0.00027035424
0.00053316265
0.001348315
3.2363933e-06
3.5653609e-06
5.2715548e-06
1.2311461e-05
3.3901699e-05
7.9510673e-05
0.0001539244
0.00027595618
0.00053534064
0.0013520942
2.9656642e-06
3.474224e-06
5.998411e-06
1.5537504e-05
4.1062735e-05
8.8460959e-05
0.00016127352
0.00028042527
0.00053731649
0.0013563334
2.7900129e-06
3.5645531e-06
7.2040687e-06
1.9569972e-05
4.8330063e-05
9.6307001e-05
0.00016730373
0.00028408908
0.00053917755
0.0013609717
2.7202648e-06
3.8804149e-06
8.9663882e-06
2.4261433e-05
5.5350019e-05
0.00010308379
0.0001722923
0.00028715788
0.00054093696
0.0013659393
2.7797378e-06
4.481961e-06
1.1330799e-05
2.9383058e-05
6.1887492e-05
0.00010889375
0.00017645201
0.00028975391
0.00054267263
0.0013711898
3.0065667e-06
5.4386955e-06
1.4283609e-05
3.467506e-05
6.7820876e-05
0.00011385664
0.00017993857
0.00029198043
0.00054443454
0.0013766839
3.4547938e-06
6.8148594e-06
1.7738636e-05
3.9899755e-05
7.3111882e-05
0.00011808675
0.00018285394
0.00029394164
0.00054623669
0.0013823795
4.1911601e-06
8.6476146e-06
2.1546255e-05
4.4874748e-05
7.7769191e-05
0.00012165883
0.00018531793
0.00029569752
0.00054807403
0.0013882303
5.2836037e-06
1.0924875e-05
2.5521749e-05
4.947805e-05
8.1803677e-05
0.00012466941
0.00018741282
0.000297284
0.00054993269
0.0013941877
6.7799356e-06
1.3574421e-05
2.9480253e-05
5.3622552e-05
8.5253104e-05
0.00012719928
0.00018919515
0.00029872097
0.00055179388
0.0014002015
8.6832385e-06
1.6474049e-05
3.3249977e-05
5.7259506e-05
8.8167024e-05
0.00012930768
0.00019070225
0.00030001673
0.00055363513
0.0014062194
1.0937809e-05
1.9464201e-05
3.6694098e-05
6.0377156e-05
9.0586589e-05
0.00013103651
0.00019195674
0.00030117067
0.00055543053
0.0014121857
1.3423244e-05
2.2384298e-05
3.9726944e-05
6.2977848e-05
9.2544758e-05
0.0001324142
0.00019297024
0.00030217531
0.00055715094
0.0014180389
1.5988079e-05
2.5103476e-05
4.2303136e-05
6.5074389e-05
9.4068652e-05
0.00013345985
0.0001937468
0.00030301862
0.00055876501
0.001423711
1.8484491e-05
2.7531362e-05
4.4410679e-05
6.6689227e-05
9.5183129e-05
0.00013418757
0.00019428667
0.0003036868
0.00056024104
0.0014291289
2.0793607e-05
2.9617709e-05
4.6063515e-05
6.785426e-05
9.5914415e-05
0.00013461087
0.00019459018
0.00030416749
0.00056154974
0.0014342174
2.2836409e-05
3.1345667e-05
4.7294004e-05
6.860992e-05
9.6292781e-05
0.00013474622
0.00019466113
0.00030445281
0.00056266712
0.0014389047
2.4572681e-05
3.272299e-05
4.8145958e-05
6.9003208e-05
9.6353689e-05
0.0001346154
0.0001945094
0.00030454191
0.00056357708
0.001443128
2.5993421e-05
3.3773699e-05
4.8668804e-05
6.9085004e-05
9.6137436e-05
0.00013424628
0.00019415217
0.00030444229
0.00056427318
0.0014468394
2.7111437e-05
3.4531259e-05
4.8913191e-05
6.8907253e-05
9.5687693e-05
0.00013367229
0.00019361381
0.00030416997
0.00056475928
0.0014500093
2.7952847e-05
3.5033496e-05
4.8928006e-05
6.8520513e-05
9.5049494e-05
0.00013293081
0.00019292452
0.00030374832
0.0005650489
0.0014526284
2.8550523e-05
3.5319068e-05
4.8758558e-05
6.7972097e-05
9.426717e-05
0.00013206108
0.00019211832
0.00030320605
0.00056516339
0.0014547079
2.8939551e-05
3.5425182e-05
4.8445618e-05
6.7304854e-05
9.3382565e-05
0.00013110201
0.00019123057
0.00030257461
0.00056512937
0.0014562767
2.9154341e-05
3.5386239e-05
4.8025046e-05
6.6556515e-05
9.2433689e-05
0.00013009025
0.00019029568
0.00030188564
0.00056497588
0.0014573778
2.9226953e-05
3.5233135e-05
4.7527785e-05
6.5759477e-05
9.145387e-05
0.00012905881
0.00018934525
0.00030116875
0.0005647318
0.0014580637
2.9186246e-05
3.4992995e-05
4.6980083e-05
6.4940904e-05
9.0471351e-05
0.00012803607
0.00018840675
0.00030044997
0.00056442387
0.0014583918
2.905757e-05
3.4689196e-05
4.6403841e-05
6.4123035e-05
8.9509261e-05
0.00012704538
0.00018750279
0.00029975084
0.00056407553
0.0014584204
2.8862761e-05
3.4341559e-05
4.581703e-05
6.3323621e-05
8.8585855e-05
0.00012610507
0.00018665097
0.00029908818
0.0005637064
0.0014582059
2.8620341e-05
3.3966637e-05
4.5234127e-05
6.2556421e-05
8.7714926e-05
0.00012522872
0.00018586408
0.00029847421
0.00056333228
0.0014578003
2.8345796e-05
3.3578044e-05
4.4666552e-05
6.1831712e-05
8.6906306e-05
0.0001244256
0.00018515045
0.00029791693
0.00056296518
0.0014572511
2.8051905e-05
3.3186801e-05
4.4123076e-05
6.1156777e-05
8.6166392e-05
0.00012370119
0.00018451455
0.00029742047
0.00056260946
0.0014565961
2.7749063e-05
3.2801667e-05
4.3610204e-05
6.0536379e-05
8.5498716e-05
0.00012305795
0.00018395782
0.00029698498
0.00056226337
0.0014558684
2.7445603e-05
3.242945e-05
4.3132524e-05
5.9973199e-05
8.4904492e-05
0.00012249578
0.00018347852
0.0002966044
0.00056193993
0.0014551002
2.7148081e-05
3.2075299e-05
4.269303e-05
5.946823e-05
8.4383042e-05
0.00012201227
0.00018306996
0.00029628012
0.00056164594
0.0014543189
2.6861551e-05
3.1742963e-05
4.2293405e-05
5.9021114e-05
8.3932053e-05
0.00012160119
0.00018272933
0.00029601088
0.00056138425
0.0014535463
2.6589803e-05
3.1435048e-05
4.1934336e-05
5.8630261e-05
8.3546411e-05
0.00012125849
0.00018245254
0.00029579342
0.00056115538
0.001452799
2.6335606e-05
3.1153235e-05
4.16153e-05
5.8292271e-05
8.3222229e-05
0.00012097933
0.00018223439
0.00029562336
0.00056095839
0.0014520893
2.6100757e-05
3.0898081e-05
4.1334792e-05
5.8004158e-05
8.2955064e-05
0.00012075823
0.00018206904
0.00029549574
0.0005607915
0.0014514259
2.5886149e-05
3.0669472e-05
4.109113e-05
5.7762577e-05
8.274011e-05
0.00012058939
0.00018195046
0.00029540544
0.00056065245
0.0014508144
2.5692135e-05
3.0466885e-05
4.0882317e-05
5.7563922e-05
8.2572361e-05
0.0001204669
0.00018187263
0.00029534741
0.00056053884
0.0014502579
2.5518642e-05
3.0289452e-05
4.0706111e-05
5.7404429e-05
8.2446757e-05
0.00012038495
0.00018182971
0.00029531682
0.00056044816
0.0014497581
2.5365253e-05
3.0136034e-05
4.0560089e-05
5.7280262e-05
8.2358293e-05
0.00012033788
0.0001818162
0.00029530919
0.00056037799
0.0014493148
2.5231276e-05
3.000527e-05
4.044171e-05
5.7187591e-05
8.2302108e-05
0.00012032037
0.00018182697
0.00029532038
0.00056032592
0.0014489268
2.5115801e-05
2.989564e-05
4.0348373e-05
5.7122655e-05
8.2273561e-05
0.00012032741
0.00018185734
0.00029534664
0.00056028964
0.0014485923
2.5017748e-05
2.9805508e-05
4.0277468e-05
5.7081816e-05
8.2268276e-05
0.0001203544
0.00018190305
0.00029538458
0.00056026695
0.0014483083
2.4935916e-05
2.9733171e-05
4.0226416e-05
5.7061609e-05
8.2282191e-05
0.00012039717
0.00018196033
0.00029543122
0.00056025573
0.0014480715
2.4869018e-05
2.9676892e-05
4.0192714e-05
5.7058769e-05
8.2311578e-05
0.00012045198
0.00018202585
0.00029548394
0.00056025405
0.0014478781
2.4815716e-05
2.9634937e-05
4.0173962e-05
5.7070268e-05
8.2353064e-05
0.0001205155
0.00018209675
0.00029554052
0.00056026017
0.0014477242
2.4774655e-05
2.9605606e-05
4.016789e-05
5.7093326e-05
8.240364e-05
0.00012058487
0.00018217057
0.00029559909
0.00056027253
0.0014476055
2.4744485e-05
2.9587253e-05
4.017238e-05
5.7125427e-05
8.2460652e-05
0.00012065761
0.00018224528
0.00029565809
0.00056028979
0.0014475182
2.4723885e-05
2.9578309e-05
4.0185477e-05
5.7164319e-05
8.2521794e-05
0.00012073164
0.00018231921
0.00029571629
0.0005603108
0.0014474584
2.4711581e-05
2.9577296e-05
4.0205399e-05
5.7208011e-05
8.2585088e-05
0.00012080522
0.00018239101
0.00029577267
0.00056033451
0.0014474224
2.4706361e-05
2.9582838e-05
4.023054e-05
5.7254768e-05
8.2648866e-05
0.00012087694
0.00018245961
0.00029582645
0.00056036001
0.0014474068
2.4707085e-05
2.9593671e-05
4.0259469e-05
5.7303095e-05
8.2711741e-05
0.00012094568
0.00018252418
0.000295877
0.0005603865
0.0014474085
2.4712695e-05
2.9608644e-05
4.0290929e-05
5.7351728e-05
8.2772591e-05
0.00012101055
0.00018258415
0.00029592388
0.00056041323
0.0014474242
2.4722218e-05
2.9626723e-05
4.0323832e-05
5.7399619e-05
8.283053e-05
0.00012107093
0.00018263909
0.00029596678
0.00056043961
0.0014474512
2.4734772e-05
2.9646994e-05
4.035725e-05
5.7445918e-05
8.2884891e-05
0.00012112638
0.00018268879
0.00029600553
0.00056046515
0.001447487
2.474957e-05
2.9668657e-05
4.0390408e-05
5.748996e-05
8.2935197e-05
0.00012117665
0.00018273317
0.00029604006
0.00056048926
0.0014475289
2.4765915e-05
2.9691024e-05
4.0422674e-05
5.7531244e-05
8.298114e-05
0.00012122163
0.00018277227
0.00029607037
0.00056051126
0.0014475749
2.4783202e-05
2.9713514e-05
4.0453545e-05
5.7569415e-05
8.3022562e-05
0.00012126136
0.00018280622
0.00029609637
0.0005605311
0.0014476232
2.4800913e-05
2.9735647e-05
4.0482638e-05
5.7604247e-05
8.3059426e-05
0.00012129596
0.00018283513
0.00029611821
0.0005605491
0.0014476725
2.481861e-05
2.9757032e-05
4.0509675e-05
5.7635626e-05
8.3091796e-05
0.00012132557
0.0001828592
0.00029613637
0.00056056541
0.0014477218
2.4835936e-05
2.9777368e-05
4.0534469e-05
5.7663531e-05
8.3119765e-05
0.00012135037
0.00018287887
0.00029615121
0.00056058007
0.0014477702
2.4852603e-05
2.9796426e-05
4.0556922e-05
5.7687976e-05
8.314347e-05
0.00012137075
0.00018289458
0.00029616306
0.0005605931
0.0014478169
2.4868393e-05
2.981405e-05
4.0576962e-05
5.7709031e-05
8.3163191e-05
0.00012138709
0.00018290673
0.00029617224
0.00056060451
0.0014478613
2.4883132e-05
2.9830116e-05
4.0594586e-05
5.7726862e-05
8.3179238e-05
0.00012139979
0.00018291572
0.00029617904
0.00056061436
0.0014479028
2.4896693e-05
2.9844557e-05
4.0609851e-05
5.7741673e-05
8.3191944e-05
0.00012140925
0.00018292194
0.00029618375
0.0005606227
0.001447941
2.4908998e-05
2.9857356e-05
4.0622859e-05
5.7753703e-05
8.3201652e-05
0.00012141587
0.00018292578
0.00029618665
0.00056062965
0.0014479758
2.4920012e-05
2.9868538e-05
4.0633744e-05
5.7763203e-05
8.3208707e-05
0.00012142004
0.00018292759
0.00029618804
0.00056063533
0.0014480071
2.4929735e-05
2.9878159e-05
4.0642662e-05
5.7770436e-05
8.3213447e-05
0.00012142211
0.00018292772
0.00029618815
0.00056063988
0.0014480348
2.4938194e-05
2.98863e-05
4.0649782e-05
5.7775663e-05
8.3216196e-05
0.00012142243
0.00018292646
0.00029618724
0.00056064342
0.001448059
2.4945442e-05
2.9893057e-05
4.0655283e-05
5.7779139e-05
8.3217257e-05
0.00012142131
0.0001829241
0.0002961855
0.00056064606
0.00144808
2.4951545e-05
2.9898539e-05
4.0659341e-05
5.7781108e-05
8.3216915e-05
0.00012141902
0.00018292088
0.00029618311
0.00056064788
0.0014480979
2.4956583e-05
2.9902863e-05
4.0662134e-05
5.7781802e-05
8.3215427e-05
0.00012141584
0.00018291702
0.00029618022
0.00056064897
0.0014481128
2.4960643e-05
2.9906147e-05
4.0663831e-05
5.7781436e-05
8.3213032e-05
0.00012141197
0.0001829127
0.00029617697
0.00056064942
0.0014481249
2.4963819e-05
2.9908512e-05
4.0664596e-05
5.778021e-05
8.3209943e-05
0.00012140763
0.00018290809
0.00029617349
0.00056064933
0.0014481344
2.4966205e-05
2.9910076e-05
4.0664583e-05
5.7778307e-05
8.3206351e-05
0.00012140299
0.00018290336
0.0002961699
0.00056064882
0.0014481417
2.4967895e-05
2.9910952e-05
4.0663934e-05
5.777589e-05
8.3202426e-05
0.00012139821
0.00018289862
0.00029616632
0.000560648
0.0014481468
2.4968983e-05
2.9911249e-05
4.0662781e-05
5.7773105e-05
8.3198312e-05
0.00012139341
0.00018289399
0.00029616283
0.00056064696
0.0014481503
2.4969556e-05
2.9911068e-05
4.066124e-05
5.777008e-05
8.3194131e-05
0.00012138871
0.00018288954
0.00029615949
0.0005606458
0.0014481523
2.4969697e-05
2.9910499e-05
4.0659414e-05
5.776692e-05
8.3189982e-05
0.00012138418
0.00018288533
0.00029615634
0.00056064455
0.0014481531
2.4969484e-05
2.9909626e-05
4.0657394e-05
5.7763715e-05
8.3185945e-05
0.00012137988
0.00018288141
0.0002961534
0.00056064324
0.001448153
2.4968985e-05
2.9908524e-05
4.0655257e-05
5.7760541e-05
8.3182082e-05
0.00012137586
0.00018287779
0.00029615069
0.00056064188
0.001448152
2.4968263e-05
2.9907256e-05
4.0653068e-05
5.7757455e-05
8.317844e-05
0.00012137215
0.0001828745
0.00029614822
0.00056064051
0.0014481505
2.4967374e-05
2.990588e-05
4.0650883e-05
5.7754509e-05
8.3175056e-05
0.00012136877
0.00018287154
0.00029614599
0.00056063914
0.0014481483
2.496637e-05
2.990445e-05
4.0648758e-05
5.7751752e-05
8.3171967e-05
0.00012136574
0.00018286891
0.00029614398
0.00056063778
0.0014481458
)
;

boundaryField
{
    water_inlet
    {
        type            turbulentMixingLengthDissipationRateInlet;
        mixingLength    0.005;
        phi             phi;
        k               k;
        value           uniform 0.00011791765;
    }
    water_outlet
    {
        type            inletOutlet;
        inletValue      uniform 0.0001;
        value           nonuniform List<scalar> 10(2.496637e-05 2.990445e-05 4.0648758e-05 5.7751752e-05 8.3171967e-05 0.00012136574 0.00018286891 0.00029614398 0.00056063778 0.0014481458);
    }
    water_wedge1
    {
        type            wedge;
    }
    water_wedge2
    {
        type            wedge;
    }
    water_to_rock
    {
        type            epsilonWallFunction;
        blending        stepwise;
        value           nonuniform List<scalar> 
100
(
0.0013048048
0.0016574915
0.0016622
0.0015600257
0.0014605589
0.0013944152
0.001359313
0.0013440707
0.0013390502
0.0013385658
0.0013399579
0.0013422097
0.0013450164
0.001348315
0.0013520942
0.0013563334
0.0013609717
0.0013659393
0.0013711898
0.0013766839
0.0013823795
0.0013882303
0.0013941877
0.0014002015
0.0014062194
0.0014121857
0.0014180389
0.001423711
0.0014291289
0.0014342174
0.0014389047
0.001443128
0.0014468394
0.0014500093
0.0014526284
0.0014547079
0.0014562767
0.0014573778
0.0014580637
0.0014583918
0.0014584204
0.0014582059
0.0014578003
0.0014572511
0.0014565961
0.0014558684
0.0014551002
0.0014543189
0.0014535463
0.001452799
0.0014520893
0.0014514259
0.0014508144
0.0014502579
0.0014497581
0.0014493148
0.0014489268
0.0014485923
0.0014483083
0.0014480715
0.0014478781
0.0014477242
0.0014476055
0.0014475182
0.0014474584
0.0014474224
0.0014474068
0.0014474085
0.0014474242
0.0014474512
0.001447487
0.0014475289
0.0014475749
0.0014476232
0.0014476725
0.0014477218
0.0014477702
0.0014478169
0.0014478613
0.0014479028
0.001447941
0.0014479758
0.0014480071
0.0014480348
0.001448059
0.00144808
0.0014480979
0.0014481128
0.0014481249
0.0014481344
0.0014481417
0.0014481468
0.0014481503
0.0014481523
0.0014481531
0.001448153
0.001448152
0.0014481505
0.0014481483
0.0014481458
)
;
    }
}


// ************************************************************************* //
