/*--------------------------------*- C++ -*----------------------------------*\
| =========                 |                                                 |
| \\      /  F ield         | OpenFOAM: The Open Source CFD Toolbox           |
|  \\    /   O peration     | Version:  2506                                  |
|   \\  /    A nd           | Website:  www.openfoam.com                      |
|    \\/     M anipulation  |                                                 |
\*---------------------------------------------------------------------------*/
FoamFile
{
    version     2.0;
    format      ascii;
    arch        "LSB;label=32;scalar=64";
    class       volScalarField;
    location    "21000/water";
    object      k;
}
// * * * * * * * * * * * * * * * * * * * * * * * * * * * * * * * * * * * * * //

dimensions      [0 2 -2 0 0 0 0];

internalField   nonuniform List<scalar> 
1000
(
0.00017657855
0.00017657518
0.00017657131
0.00017655365
0.00017648098
0.00017625478
0.00017589507
0.00017764177
0.00020514192
0.00048657967
0.00013915035
0.00013915817
0.00013914641
0.00013908743
0.00013888206
0.0001383736
0.00013797747
0.00014325064
0.00019616754
0.00057072179
0.00011343696
0.00011343683
0.00011340783
0.00011329561
0.00011298241
0.0001124902
0.00011342551
0.00012641408
0.0002054843
0.00057180212
9.4956345e-05
9.4947216e-05
9.4898274e-05
9.4747991e-05
9.4461177e-05
9.4591087e-05
9.8882462e-05
0.0001246352
0.00023169872
0.00054812309
8.1180941e-05
8.1164581e-05
8.1102165e-05
8.0967048e-05
8.0960042e-05
8.2611595e-05
9.2929816e-05
0.00013695743
0.00027128487
0.0005245695
7.0599818e-05
7.0579371e-05
7.0523469e-05
7.0504796e-05
7.1168207e-05
7.5593774e-05
9.5291251e-05
0.00016203241
0.00031585949
0.00050861017
6.2267978e-05
6.2250532e-05
6.2239515e-05
6.249961e-05
6.4399372e-05
7.3303634e-05
0.00010610114
0.00019613482
0.00035649787
0.00050003824
5.5571434e-05
5.5570244e-05
5.5667647e-05
5.6450647e-05
6.038885e-05
7.5970974e-05
0.00012498692
0.00023351951
0.00038871397
0.00049629318
5.0098705e-05
5.0135844e-05
5.0440289e-05
5.2102991e-05
5.9190433e-05
8.3983921e-05
0.00015029884
0.00026896196
0.00041246983
0.0004950566
4.5567683e-05
4.5677872e-05
4.6337527e-05
4.9391667e-05
6.1095888e-05
9.7486397e-05
0.00017920224
0.00029964253
0.00042964078
0.00049493723
4.1782812e-05
4.2019049e-05
4.3252196e-05
4.841625e-05
6.6518046e-05
0.0001159789
0.00020865648
0.00032501718
0.00044223033
0.00049528028
3.8609689e-05
3.905146e-05
4.1174607e-05
4.9422807e-05
7.5808311e-05
0.00013818979
0.00023641988
0.00034572001
0.00045177484
0.00049583499
3.596037e-05
3.6725406e-05
4.0189481e-05
5.2767098e-05
8.902785e-05
0.00016237171
0.00026138209
0.00036268784
0.0004593152
0.00049652598
3.3785899e-05
3.5046526e-05
4.0478279e-05
5.883785e-05
0.00010576999
0.00018682805
0.00028330021
0.00037677338
0.00046551947
0.00049733748
3.2074365e-05
3.4079217e-05
4.2316056e-05
6.7933734e-05
0.00012516072
0.00021031394
0.00030238125
0.00038864921
0.00047080782
0.0004982664
3.0853779e-05
3.3954529e-05
4.6048187e-05
8.0118115e-05
0.00014606364
0.00023213598
0.00031898691
0.00039881716
0.00047543895
0.00049930732
3.0199544e-05
3.4878948e-05
5.2034309e-05
9.5115635e-05
0.00016736946
0.00025203044
0.00033348838
0.00040763762
0.00047952187
0.00050044496
3.0245963e-05
3.7136055e-05
6.0556193e-05
0.00011231913
0.00018821064
0.00026998808
0.00034621426
0.00041534833
0.00048317093
0.00050166197
3.1199932e-05
4.106895e-05
7.1707581e-05
0.00013091722
0.00020802775
0.00028611965
0.00035742596
0.00042213405
0.00048649169
0.00050294669
3.3351616e-05
4.7031247e-05
8.5310867e-05
0.00015007637
0.00022652156
0.00030057585
0.00036733078
0.00042814979
0.00048955807
0.00050428927
3.7070454e-05
5.5301828e-05
0.00010090967
0.00016908809
0.00024356808
0.00031350312
0.0003760887
0.00043353301
0.00049241572
0.00050567921
4.2767489e-05
6.5979313e-05
0.00011785036
0.00018743157
0.00025913426
0.00032501611
0.00038386956
0.00043837724
0.00049509087
0.00050710505
5.0805441e-05
7.8899183e-05
0.00013541237
0.00020475568
0.00027320772
0.00033526202
0.00039079719
0.00044274774
0.00049759766
0.0005085548
6.1362244e-05
9.3622607e-05
0.00015292632
0.00022080502
0.0002858332
0.00034436384
0.00039696113
0.00044668826
0.00049994151
0.00051001618
7.4303294e-05
0.00010951521
0.00016980509
0.00023542213
0.00029707764
0.00035241134
0.00040242266
0.00045022522
0.0005021207
0.00051147647
8.9143065e-05
0.00012582847
0.00018559523
0.00024853531
0.00030699155
0.00035946514
0.00040721941
0.00045337051
0.00050412724
0.00051292214
0.00010508548
0.00014184887
0.00019999894
0.00026010263
0.0003156094
0.00036556186
0.0004113698
0.00045612403
0.00050594768
0.00051433843
0.0001212387
0.00015699681
0.00021282889
0.00027010647
0.00032295531
0.00037072114
0.00041487828
0.00045847683
0.00050756445
0.00051570911
0.0001368
0.00017085485
0.00022398923
0.00027855537
0.00032905231
0.00037495462
0.00041774205
0.00046041544
0.00050895815
0.00051701668
0.00015116536
0.00018316357
0.00023346039
0.00028548756
0.00033393248
0.00037827585
0.00041995878
0.00046192729
0.00051011072
0.00051824326
0.00016395763
0.00019379993
0.00024128492
0.00029097239
0.00033764506
0.00038070922
0.00042153416
0.00046300624
0.00051100901
0.0005193718
0.00017500031
0.0002027487
0.00024755319
0.00029510812
0.00034026053
0.00038229597
0.00042248764
0.00046365722
0.00051164783
0.00052038753
0.00018426845
0.00021007326
0.00025238937
0.00029801629
0.0003418704
0.00038309646
0.00042285536
0.00046389875
0.00051203179
0.00052127927
0.00019183861
0.00021588928
0.00025593859
0.00029983422
0.00034258341
0.00038318881
0.00042268995
0.00046376324
0.00051217559
0.00052204028
0.00019784769
0.00022034314
0.00025835615
0.00030070719
0.00034251969
0.00038266492
0.00042205785
0.0004632951
0.00051210289
0.00052266871
0.00020246292
0.00022359549
0.00025979899
0.00030078145
0.0003418045
0.00038162511
0.00042103511
0.0004625476
0.00051184423
0.00052316746
0.00020586178
0.00022580961
0.00026041948
0.00030019865
0.00034056241
0.0003801726
0.00041970252
0.00046157895
0.00051143438
0.00052354362
0.00020821936
0.00022714359
0.00026036121
0.00029909178
0.00033891246
0.0003784085
0.00041814088
0.0004604484
0.0005109096
0.00052380758
0.00020970101
0.00022774549
0.00025975624
0.00029758249
0.00033696467
0.00037642761
0.00041642701
0.00045921277
0.0005103052
0.00052397194
0.00021045835
0.00022775059
0.00025872358
0.00029577945
0.00033481761
0.00037431554
0.00041463053
0.00045792369
0.00050965354
0.0005240505
0.00021062744
0.00022728005
0.00025736856
0.00029377763
0.00033255706
0.00037214669
0.0004128119
0.00045662578
0.00050898271
0.00052405728
0.0002103284
0.00022644061
0.00025578278
0.00029165833
0.00033025562
0.00036998354
0.00041102133
0.0004553557
0.00050831588
0.00052400579
0.00020966572
0.00022532488
0.00025404463
0.00028948965
0.00032797298
0.00036787658
0.00040929871
0.00045414208
0.00050767116
0.00052390859
0.00020872925
0.00022401215
0.00025222014
0.00028732747
0.00032575679
0.00036586506
0.00040767415
0.00045300591
0.0005070618
0.00052377699
0.00020759537
0.00022256944
0.00025036398
0.00028521656
0.00032364377
0.00036397794
0.00040616865
0.00045196027
0.00050648823
0.00052362008
0.00020632832
0.00022105267
0.0002485207
0.00028319182
0.00032166102
0.00036223522
0.00040479522
0.00045100899
0.00050595653
0.00052344573
0.00020498158
0.00021950789
0.00024672582
0.00028127957
0.00031982739
0.00036064904
0.00040355828
0.00045015505
0.00050547545
0.00052326163
0.00020359912
0.00021797247
0.00024500703
0.00027949872
0.00031815442
0.00035922375
0.00040245837
0.00044940252
0.00050504916
0.00052307431
0.00020221663
0.00021647614
0.00024338514
0.00027786166
0.00031664688
0.00035795841
0.0004014962
0.00044875142
0.00050467858
0.00052288901
0.0002008626
0.00021504204
0.00024187506
0.00027637472
0.00031530383
0.00035685171
0.00040066874
0.00044819854
0.00050436237
0.00052270974
0.00019955925
0.00021368756
0.00024048586
0.00027503904
0.00031412354
0.00035589888
0.00039996991
0.00044773844
0.0005040977
0.00052253947
0.00019832318
0.00021242445
0.00023922222
0.0002738541
0.00031310107
0.00035509233
0.00039939146
0.00044736419
0.00050388078
0.00052238029
0.00019716601
0.00021126044
0.00023808618
0.00027281648
0.00031222899
0.00035442254
0.00039892378
0.00044706799
0.00050370729
0.00052223355
0.00019609573
0.00021020013
0.00023707704
0.0002719205
0.00031149806
0.00035387866
0.00039855645
0.00044684165
0.0005035727
0.00052210004
0.00019511732
0.00020924542
0.00023619187
0.00027115868
0.00031089776
0.00035344913
0.00039827876
0.00044667694
0.00050347249
0.0005219801
0.00019423318
0.00020839596
0.00023542596
0.00027052228
0.00031041682
0.00035312207
0.00039808007
0.00044656588
0.00050340227
0.00052187372
0.00019344359
0.00020764951
0.00023477317
0.00027000166
0.00031004362
0.00035288567
0.00039795007
0.00044650086
0.00050335793
0.00052178061
0.00019274706
0.0002070024
0.00023422634
0.00026958668
0.00030976644
0.00035272844
0.00039787894
0.0004464748
0.00050333559
0.00052170028
0.0001921407
0.00020644972
0.00023377758
0.0002692669
0.00030957379
0.00035263934
0.00039785747
0.0004464811
0.0005033317
0.00052163208
0.00019162045
0.00020598571
0.00023341848
0.0002690319
0.00030945448
0.00035260796
0.0003978771
0.00044651374
0.00050334295
0.0005215752
0.00019118136
0.00020560389
0.00023314038
0.00026887137
0.00030939785
0.00035262454
0.00039792997
0.00044656724
0.00050336634
0.00052152874
0.0001908178
0.00020529737
0.00023293453
0.00026877532
0.00030939384
0.00035268009
0.00039800894
0.00044663667
0.00050339914
0.00052149176
0.00019052368
0.00020505897
0.00023279229
0.00026873421
0.00030943308
0.00035276642
0.00039810762
0.00044671766
0.00050343895
0.00052146328
0.00019029262
0.00020488143
0.00023270524
0.0002687391
0.000309507
0.00035287618
0.0003982204
0.00044680644
0.00050348366
0.00052144233
0.00019011811
0.00020475757
0.00023266535
0.00026878168
0.00030960789
0.00035300291
0.00039834241
0.00044689977
0.00050353149
0.00052142798
0.00018999369
0.00020468039
0.00023266509
0.00026885438
0.00030972886
0.00035314099
0.00039846952
0.00044699497
0.00050358091
0.00052141934
0.00018991304
0.00020464323
0.00023269745
0.00026895039
0.0003098639
0.00035328561
0.00039859827
0.0004470898
0.0005036307
0.0005214156
0.00018987011
0.0002046398
0.00023275603
0.00026906366
0.0003100078
0.0003534327
0.0003987258
0.00044718246
0.00050367983
0.00052141598
0.00018985915
0.00020466426
0.00023283503
0.00026918884
0.00031015609
0.00035357887
0.00039884979
0.00044727151
0.00050372745
0.00052141974
0.00018987478
0.00020471121
0.00023292927
0.00026932131
0.00031030499
0.00035372135
0.00039896837
0.0004473558
0.00050377287
0.00052142621
0.00018991204
0.00020477576
0.00023303414
0.00026945707
0.00031045136
0.00035385787
0.00039908008
0.00044743445
0.00050381557
0.00052143479
0.00018996636
0.00020485349
0.00023314562
0.00026959276
0.00031059264
0.0003539867
0.00039918384
0.0004475068
0.00050385476
0.00052144487
0.00019003364
0.00020494048
0.00023326024
0.0002697256
0.00031072683
0.00035410654
0.00039927889
0.00044757225
0.00050388998
0.00052145592
0.00019011021
0.00020503332
0.0002333751
0.00026985335
0.00031085242
0.0003542165
0.00039936469
0.00044763047
0.00050392133
0.00052146752
0.00019019286
0.00020512907
0.00023348779
0.00026997431
0.00031096836
0.00035431602
0.00039944095
0.00044768157
0.00050394907
0.00052147937
0.00019027882
0.00020522524
0.00023359639
0.00027008719
0.00031107395
0.00035440478
0.00039950778
0.00044772593
0.0005039734
0.0005214912
0.00019036577
0.00020531981
0.00023369942
0.00027019113
0.00031116879
0.00035448281
0.00039956561
0.00044776397
0.00050399453
0.00052150281
0.00019045174
0.00020541114
0.00023379576
0.00027028549
0.00031125275
0.00035455052
0.00039961496
0.0004477961
0.00050401263
0.00052151401
0.00019053517
0.00020549793
0.00023388455
0.00027036999
0.0003113261
0.0003546084
0.00039965637
0.00044782278
0.00050402792
0.00052152466
0.00019061477
0.00020557915
0.00023396527
0.00027044463
0.00031138924
0.00035465705
0.00039969044
0.00044784444
0.00050404058
0.00052153463
0.00019068952
0.00020565407
0.00023403765
0.00027050964
0.0003114427
0.00035469712
0.00039971778
0.00044786154
0.00050405082
0.00052154383
0.00019075871
0.00020572223
0.00023410168
0.00027056537
0.00031148709
0.00035472932
0.00039973904
0.00044787453
0.00050405885
0.0005215522
0.00019082186
0.0002057834
0.00023415749
0.00027061234
0.00031152313
0.00035475439
0.00039975486
0.00044788387
0.00050406489
0.00052155972
0.00019087871
0.00020583753
0.0002342054
0.00027065114
0.00031155157
0.00035477311
0.0003997659
0.00044789004
0.00050406918
0.00052156638
0.00019092921
0.00020588477
0.00023424583
0.00027068244
0.00031157321
0.00035478625
0.00039977281
0.00044789349
0.00050407196
0.00052157221
0.00019097342
0.00020592537
0.0002342793
0.00027070697
0.00031158885
0.00035479457
0.00039977623
0.00044789468
0.00050407346
0.00052157725
0.00019101158
0.00020595968
0.00023430638
0.00027072544
0.00031159926
0.00035479879
0.00039977672
0.00044789399
0.0005040739
0.00052158154
0.00019104398
0.00020598813
0.00023432766
0.00027073858
0.00031160519
0.00035479956
0.00039977481
0.00044789178
0.00050407344
0.00052158513
0.00019107097
0.00020601118
0.00023434374
0.00027074707
0.00031160729
0.00035479747
0.00039977095
0.00044788835
0.00050407226
0.00052158805
0.00019109297
0.00020602931
0.00023435521
0.00027075154
0.0003116062
0.00035479306
0.00039976555
0.00044788398
0.00050407049
0.00052159035
0.00019111041
0.00020604302
0.00023436264
0.00027075262
0.00031160249
0.00035478682
0.00039975897
0.00044787889
0.00050406824
0.0005215921
0.00019112373
0.00020605281
0.0002343666
0.00027075087
0.0003115967
0.00035477918
0.00039975155
0.00044787331
0.00050406566
0.00052159336
0.00019113339
0.00020605917
0.00023436763
0.00027074684
0.00031158931
0.00035477055
0.0003997436
0.00044786746
0.00050406285
0.00052159419
0.00019113987
0.00020606261
0.00023436624
0.00027074104
0.0003115808
0.00035476133
0.0003997354
0.00044786152
0.00050405994
0.00052159467
0.00019114362
0.0002060636
0.00023436292
0.00027073393
0.00031157155
0.00035475182
0.00039972719
0.00044785565
0.00050405702
0.00052159485
0.00019114508
0.00020606258
0.00023435811
0.00027072592
0.00031156192
0.00035474231
0.00039971915
0.00044784998
0.00050405416
0.0005215948
0.00019114467
0.00020605997
0.0002343522
0.00027071735
0.00031155219
0.00035473298
0.00039971144
0.00044784459
0.00050405141
0.00052159457
0.00019114276
0.00020605612
0.00023434552
0.0002707085
0.00031154258
0.000354724
0.00039970413
0.00044783953
0.00050404881
0.00052159417
0.00019113968
0.00020605136
0.00023433836
0.00027069962
0.00031153325
0.00035471548
0.00039969729
0.00044783482
0.00050404635
0.00052159365
0.00019113573
0.00020604598
0.00023433099
0.00027069091
0.00031152436
0.0003547075
0.00039969094
0.00044783046
0.00050404402
0.00052159304
)
;

boundaryField
{
    water_inlet
    {
        type            turbulentIntensityKineticEnergyInlet;
        intensity       0.05;
        value           uniform 0.000234375;
    }
    water_outlet
    {
        type            inletOutlet;
        inletValue      uniform 0.0001;
        value           nonuniform List<scalar> 10(0.00019113573 0.00020604598 0.00023433099 0.00027069091 0.00031152436 0.0003547075 0.00039969094 0.00044783046 0.00050404402 0.00052159304);
    }
    water_wedge1
    {
        type            wedge;
    }
    water_wedge2
    {
        type            wedge;
    }
    water_to_rock
    {
        type            kqRWallFunction;
        value           nonuniform List<scalar> 
100
(
0.00048657967
0.00057072179
0.00057180212
0.00054812309
0.0005245695
0.00050861017
0.00050003824
0.00049629318
0.0004950566
0.00049493723
0.00049528028
0.00049583499
0.00049652598
0.00049733748
0.0004982664
0.00049930732
0.00050044496
0.00050166197
0.00050294669
0.00050428927
0.00050567921
0.00050710505
0.0005085548
0.00051001618
0.00051147647
0.00051292214
0.00051433843
0.00051570911
0.00051701668
0.00051824326
0.0005193718
0.00052038753
0.00052127927
0.00052204028
0.00052266871
0.00052316746
0.00052354362
0.00052380758
0.00052397194
0.0005240505
0.00052405728
0.00052400579
0.00052390859
0.00052377699
0.00052362008
0.00052344573
0.00052326163
0.00052307431
0.00052288901
0.00052270974
0.00052253947
0.00052238029
0.00052223355
0.00052210004
0.0005219801
0.00052187372
0.00052178061
0.00052170028
0.00052163208
0.0005215752
0.00052152874
0.00052149176
0.00052146328
0.00052144233
0.00052142798
0.00052141934
0.0005214156
0.00052141598
0.00052141974
0.00052142621
0.00052143479
0.00052144487
0.00052145592
0.00052146752
0.00052147937
0.0005214912
0.00052150281
0.00052151401
0.00052152466
0.00052153463
0.00052154383
0.0005215522
0.00052155972
0.00052156638
0.00052157221
0.00052157725
0.00052158154
0.00052158513
0.00052158805
0.00052159035
0.0005215921
0.00052159336
0.00052159419
0.00052159467
0.00052159485
0.0005215948
0.00052159457
0.00052159417
0.00052159365
0.00052159304
)
;
    }
}


// ************************************************************************* //
