/*--------------------------------*- C++ -*----------------------------------*\
| =========                 |                                                 |
| \\      /  F ield         | OpenFOAM: The Open Source CFD Toolbox           |
|  \\    /   O peration     | Version:  2506                                  |
|   \\  /    A nd           | Website:  www.openfoam.com                      |
|    \\/     M anipulation  |                                                 |
\*---------------------------------------------------------------------------*/
FoamFile
{
    version     2.0;
    format      ascii;
    arch        "LSB;label=32;scalar=64";
    class       volScalarField;
    location    "21000/water";
    object      nut;
}
// * * * * * * * * * * * * * * * * * * * * * * * * * * * * * * * * * * * * * //

dimensions      [0 2 -1 0 0 0 0];

internalField   nonuniform List<scalar> 
1000
(
3.8760013e-05
3.8759344e-05
3.875781e-05
3.8749425e-05
3.8703919e-05
3.8465194e-05
3.7257946e-05
3.1920746e-05
1.9133704e-05
1.6330702e-05
3.6503362e-05
3.6502673e-05
3.6496233e-05
3.646333e-05
3.6309099e-05
3.5625574e-05
3.2857818e-05
2.4520497e-05
1.4670664e-05
1.7686427e-05
3.4818769e-05
3.4815355e-05
3.4798028e-05
3.4720761e-05
3.4400236e-05
3.3155723e-05
2.8966459e-05
2.0114715e-05
1.4313139e-05
1.7703159e-05
3.3515366e-05
3.3507685e-05
3.3473492e-05
3.3336596e-05
3.281981e-05
3.0995917e-05
2.5816455e-05
1.8305106e-05
1.5980888e-05
1.7332729e-05
3.2476791e-05
3.2463573e-05
3.2409013e-05
3.22085e-05
3.1494121e-05
2.9122829e-05
2.3598752e-05
1.8669681e-05
1.8895718e-05
1.6956238e-05
3.1628598e-05
3.1609534e-05
3.1536359e-05
3.1282459e-05
3.0382766e-05
2.7534745e-05
2.2595704e-05
2.0841196e-05
2.2319061e-05
1.669631e-05
3.0922114e-05
3.0899105e-05
3.0816958e-05
3.0532867e-05
2.9454984e-05
2.6339382e-05
2.3103211e-05
2.4287503e-05
2.5587402e-05
1.6555011e-05
3.0325436e-05
3.0303991e-05
3.0232561e-05
2.9948336e-05
2.8695791e-05
2.5833655e-05
2.5183603e-05
2.8331482e-05
2.8356059e-05
1.64929e-05
2.9818406e-05
2.9809194e-05
2.977926e-05
2.9521727e-05
2.8157646e-05
2.6404504e-05
2.8559698e-05
3.2392876e-05
3.05743e-05
1.6472342e-05
2.9389966e-05
2.9410472e-05
2.9462808e-05
2.9249377e-05
2.8031421e-05
2.8288158e-05
3.2740145e-05
3.614578e-05
3.2325818e-05
1.6470357e-05
2.9037022e-05
2.9113053e-05
2.9294105e-05
2.9152113e-05
2.8635026e-05
3.1431539e-05
3.7231708e-05
3.9484776e-05
3.3719931e-05
1.6476063e-05
2.8764329e-05
2.8930801e-05
2.928594e-05
2.9323271e-05
3.0269808e-05
3.5542504e-05
4.1683766e-05
4.2418018e-05
3.4850549e-05
1.6485286e-05
2.8585105e-05
2.8885117e-05
2.9456532e-05
2.9967082e-05
3.3062355e-05
4.0233856e-05
4.5910769e-05
4.4991603e-05
3.5787854e-05
1.6496769e-05
2.8522092e-05
2.9003231e-05
2.9849558e-05
3.1360481e-05
3.6918733e-05
4.5156783e-05
4.9841296e-05
4.7257392e-05
3.6581246e-05
1.6510246e-05
2.8608649e-05
2.9316912e-05
3.0571318e-05
3.3736801e-05
4.1586959e-05
5.0067187e-05
5.3461946e-05
4.9262671e-05
3.7264872e-05
1.6525658e-05
2.8889317e-05
2.9866209e-05
3.1814959e-05
3.7181139e-05
4.6760469e-05
5.4824641e-05
5.6783891e-05
5.104733e-05
3.7861852e-05
1.654291e-05
2.9419622e-05
3.0715966e-05
3.3825502e-05
4.1606015e-05
5.2164804e-05
5.9359558e-05
5.9827149e-05
5.2642496e-05
3.8381994e-05
1.6561744e-05
3.0266776e-05
3.1985702e-05
3.680799e-05
4.6798674e-05
5.7598754e-05
6.3641635e-05
6.2613293e-05
5.4068798e-05
3.8841629e-05
1.6581868e-05
3.151708e-05
3.3868943e-05
4.0842482e-05
5.2497555e-05
6.2933542e-05
6.7660457e-05
6.5161051e-05
5.5349534e-05
3.9251426e-05
1.6603087e-05
3.3297024e-05
3.6603343e-05
4.5857804e-05
5.8458802e-05
6.8092329e-05
7.1415474e-05
6.7488984e-05
5.6504137e-05
3.9619161e-05
1.6625233e-05
3.5799437e-05
4.0389138e-05
5.1663979e-05
6.4490885e-05
7.3028989e-05
7.4907462e-05
6.9617552e-05
5.7547405e-05
3.9950798e-05
1.6648129e-05
3.927677e-05
4.530663e-05
5.8013963e-05
7.0457299e-05
7.7711378e-05
7.8146344e-05
7.156364e-05
5.8491239e-05
4.025067e-05
1.6671583e-05
4.3967596e-05
5.1282721e-05
6.4661941e-05
7.6260887e-05
8.2121264e-05
8.1143047e-05
7.3340873e-05
5.9344937e-05
4.0521884e-05
1.6695398e-05
4.9982665e-05
5.8114252e-05
7.1396314e-05
8.1830072e-05
8.6249709e-05
8.3905987e-05
7.4959809e-05
6.0115419e-05
4.0766557e-05
1.6719369e-05
5.7223828e-05
6.5522589e-05
7.8046344e-05
8.7114307e-05
9.008993e-05
8.6440633e-05
7.6427834e-05
6.0807434e-05
4.0985961e-05
1.6743287e-05
6.5386384e-05
7.3208882e-05
8.4485059e-05
9.2075921e-05
9.3633542e-05
8.8749058e-05
7.7749226e-05
6.1423757e-05
4.118064e-05
1.6766932e-05
7.4040689e-05
8.0900422e-05
9.0617636e-05
9.6681674e-05
9.687028e-05
9.083008e-05
7.8925434e-05
6.1965426e-05
4.1350508e-05
1.6790063e-05
8.274252e-05
8.836704e-05
9.6367612e-05
0.0001009026
9.9788948e-05
9.2680121e-05
7.995569e-05
6.2432105e-05
4.1494994e-05
1.6812421e-05
9.1118639e-05
9.5426599e-05
0.00010167387
0.00010471524
0.00010237936
9.4294776e-05
8.0838059e-05
6.2822664e-05
4.161326e-05
1.6833724e-05
9.8904769e-05
0.00010194578
0.00010649074
0.00010810351
0.00010463476
9.5670846e-05
8.1570836e-05
6.3135984e-05
4.1704524e-05
1.6853684e-05
0.00010594439
0.0001078381
0.00011078903
0.00011106038
0.00010655396
9.6808325e-05
8.2154018e-05
6.3371823e-05
4.1768423e-05
1.6872025e-05
0.00011216765
0.00011305914
0.0001145565
0.00011358881
0.00010814273
9.7711845e-05
8.259047e-05
6.3531556e-05
4.1805311e-05
1.6888513e-05
0.00011756581
0.00011759949
0.00011779692
0.00011570143
0.00010941402
9.8391263e-05
8.2886526e-05
6.3618575e-05
4.181643e-05
1.6902972e-05
0.00012216928
0.00012147649
0.00012052803
0.00011741943
0.00011038729
9.8861402e-05
8.3051986e-05
6.3638336e-05
4.1803907e-05
1.6915302e-05
0.00012603131
0.00012472631
0.00012277858
0.00011877076
0.00011108714
9.9141193e-05
8.3099619e-05
6.3598085e-05
4.1770621e-05
1.6925479e-05
0.00012921694
0.00012739705
0.00012458523
0.00011978817
0.00011154179
9.9252516e-05
8.3044399e-05
6.3506402e-05
4.1719983e-05
1.6933555e-05
0.00013179598
0.0001295434
0.00012598967
0.00012050736
0.00011178155
9.9218991e-05
8.2902636e-05
6.3372671e-05
4.1655704e-05
1.6939647e-05
0.00013383863
0.00013122273
0.00012703614
0.00012096533
0.00011183746
9.9064831e-05
8.2691114e-05
6.3206536e-05
4.1581556e-05
1.6943921e-05
0.0001354129
0.00013249235
0.00012776942
0.00012119896
0.00011174013
9.8813843e-05
8.2426311e-05
6.3017405e-05
4.1501161e-05
1.6946581e-05
0.00013658298
0.00013340755
0.00012823328
0.00012124397
0.00011151878
9.8488582e-05
8.2123722e-05
6.2814018e-05
4.1417818e-05
1.6947849e-05
0.00013740835
0.0001340204
0.00012846936
0.00012113395
0.00011120054
9.8109703e-05
8.1797345e-05
6.2604124e-05
4.1334369e-05
1.6947954e-05
0.00013794325
0.00013437892
0.00012851629
0.00012089978
0.0001108099
9.7695543e-05
8.1459357e-05
6.2394284e-05
4.125313e-05
1.6947117e-05
0.00013823644
0.00013452663
0.00012840926
0.00012056929
0.0001103685
9.726192e-05
8.1119976e-05
6.2189803e-05
4.1175877e-05
1.6945543e-05
0.0001383313
0.00013450248
0.0001281798
0.00012016709
0.00010989506
9.6822135e-05
8.0787486e-05
6.199477e-05
4.1103874e-05
1.6943415e-05
0.00013826602
0.00013434088
0.0001278558
0.00011971467
0.00010940549
9.6387061e-05
8.0468274e-05
6.181191e-05
4.1036866e-05
1.6940879e-05
0.00013807399
0.00013407201
0.00012746165
0.00011923053
0.00010891302
9.5965293e-05
8.0166885e-05
6.164224e-05
4.0975959e-05
1.6938061e-05
0.0001377842
0.0001337221
0.00012701846
0.00011873033
0.00010842842
9.5563256e-05
7.9885839e-05
6.1487831e-05
4.0921614e-05
1.6935085e-05
0.00013742165
0.00013331379
0.00012654431
0.00011822713
0.00010796009
9.5185126e-05
7.9628286e-05
6.1349498e-05
4.0874006e-05
1.6932054e-05
0.00013700777
0.00013286638
0.00012605439
0.00011773141
0.00010751402
9.4835257e-05
7.9395728e-05
6.1227496e-05
4.0833069e-05
1.6929053e-05
0.00013656063
0.00013239608
0.00012556105
0.0001172512
0.00010709599
9.4516129e-05
7.9188755e-05
6.1121621e-05
4.079855e-05
1.6926149e-05
0.00013609523
0.00013191611
0.00012507444
0.00011679392
0.00010670975
9.4228997e-05
7.9007226e-05
6.1031286e-05
4.0770054e-05
1.6923391e-05
0.00013562394
0.00013143772
0.00012460337
0.00011636486
0.00010635764
9.397414e-05
7.8850409e-05
6.0955615e-05
4.0747097e-05
1.6920812e-05
0.00013515719
0.00013097023
0.00012415459
0.00011596773
0.00010604077
9.3751038e-05
7.8717118e-05
6.0893533e-05
4.0729141e-05
1.6918436e-05
0.00013470341
0.00013052101
0.00012373313
0.00011560485
0.00010575928
9.3558558e-05
7.8605846e-05
6.0843843e-05
4.071563e-05
1.6916274e-05
0.00013426926
0.00013009573
0.00012334251
0.00011527739
0.00010551255
9.3395115e-05
7.8514878e-05
6.0805293e-05
4.0706011e-05
1.6914333e-05
0.0001338598
0.00012969851
0.00012298505
0.00011498563
0.00010529935
9.3258809e-05
7.844239e-05
6.0776629e-05
4.0699754e-05
1.6912611e-05
0.0001334787
0.00012933224
0.00012266197
0.0001147291
0.00010511801
9.3147545e-05
7.8386519e-05
6.0756632e-05
4.0696366e-05
1.6911103e-05
0.0001331285
0.00012899872
0.00012237366
0.00011450672
0.00010496656
9.3059111e-05
7.8345416e-05
6.0744138e-05
4.0695389e-05
1.6909801e-05
0.00013281069
0.00012869883
0.00012211979
0.00011431696
0.00010484277
9.2991243e-05
7.8317273e-05
6.0738051e-05
4.0696407e-05
1.6908694e-05
0.00013252594
0.00012843265
0.00012189942
0.00011415792
0.00010474425
9.2941662e-05
7.8300345e-05
6.0737343e-05
4.0699042e-05
1.6907771e-05
0.00013227414
0.00012819963
0.00012171109
0.0001140274
0.00010466854
9.2908114e-05
7.8292962e-05
6.0741058e-05
4.0702946e-05
1.6907017e-05
0.00013205458
0.00012799862
0.00012155298
0.00011392299
0.0001046131
9.2888401e-05
7.8293548e-05
6.0748313e-05
4.0707807e-05
1.6906418e-05
0.000131866
0.00012782803
0.00012142292
0.00011384215
0.00010457541
9.2880419e-05
7.8300635e-05
6.0758308e-05
4.0713348e-05
1.6905956e-05
0.00013170674
0.00012768594
0.00012131856
0.00011378232
0.00010455305
9.2882199e-05
7.8312886e-05
6.0770328e-05
4.0719325e-05
1.6905618e-05
0.00013157482
0.00012757016
0.00012123745
0.00011374094
0.0001045437
9.2891932e-05
7.8329106e-05
6.0783755e-05
4.0725533e-05
1.6905386e-05
0.00013146809
0.00012747837
0.0001211771
0.00011371556
0.00010454523
9.2907991e-05
7.834825e-05
6.0798061e-05
4.0731806e-05
1.6905246e-05
0.00013138425
0.00012740822
0.00012113507
0.00011370386
0.00010455567
9.2928929e-05
7.8369414e-05
6.0812804e-05
4.0738006e-05
1.6905185e-05
0.00013132101
0.00012735731
0.00012110898
0.00011370368
0.00010457325
9.2953471e-05
7.8391826e-05
6.0827621e-05
4.0744029e-05
1.6905191e-05
0.00013127604
0.00012732334
0.00012109658
0.000113713
0.00010459636
9.29805e-05
7.8414826e-05
6.0842208e-05
4.0749789e-05
1.6905251e-05
0.00013124709
0.00012730403
0.00012109574
0.00011372997
0.00010462358
9.3009038e-05
7.8437853e-05
6.0856319e-05
4.075522e-05
1.6905355e-05
0.00013123195
0.00012729722
0.00012110444
0.00011375291
0.00010465362
9.3038237e-05
7.8460434e-05
6.0869751e-05
4.0760272e-05
1.6905493e-05
0.00013122853
0.00012730086
0.00012112082
0.00011378027
0.00010468536
9.3067373e-05
7.8482176e-05
6.0882335e-05
4.0764858e-05
1.6905657e-05
0.00013123483
0.00012731303
0.00012114317
0.00011381069
0.00010471783
9.3095839e-05
7.8502757e-05
6.089391e-05
4.0768957e-05
1.6905836e-05
0.00013124899
0.00012733195
0.00012116996
0.000113843
0.00010475021
9.3123147e-05
7.8521912e-05
6.0904405e-05
4.0772588e-05
1.6906025e-05
0.00013126933
0.00012735603
0.00012119984
0.00011387618
0.00010478183
9.3148902e-05
7.8539484e-05
6.0913818e-05
4.0775768e-05
1.6906217e-05
0.00013129433
0.00012738387
0.00012123165
0.00011390938
0.00010481216
9.3172833e-05
7.8555426e-05
6.0922156e-05
4.0778519e-05
1.6906408e-05
0.00013132266
0.00012741423
0.00012126439
0.0001139419
0.00010484078
9.3194817e-05
7.8569717e-05
6.0929454e-05
4.0780871e-05
1.6906596e-05
0.00013135316
0.00012744603
0.0001212972
0.00011397318
0.00010486746
9.3214769e-05
7.8582374e-05
6.093576e-05
4.0782853e-05
1.6906777e-05
0.00013138479
0.00012747834
0.0001213294
0.00011400284
0.00010489202
9.3232656e-05
7.8593441e-05
6.0941131e-05
4.0784496e-05
1.6906949e-05
0.0001314167
0.00012751042
0.00012136045
0.00011403057
0.00010491432
9.3248482e-05
7.8602978e-05
6.0945629e-05
4.0785829e-05
1.6907111e-05
0.00013144816
0.00012754164
0.00012138991
0.00011405613
0.00010493432
9.3262285e-05
7.8611059e-05
6.0949313e-05
4.0786879e-05
1.6907261e-05
0.00013147858
0.00012757148
0.00012141744
0.00011407937
0.00010495199
9.3274131e-05
7.8617771e-05
6.0952251e-05
4.0787673e-05
1.6907397e-05
0.0001315075
0.00012759957
0.0001214428
0.00011410021
0.00010496737
9.3284118e-05
7.8623214e-05
6.0954509e-05
4.0788238e-05
1.690752e-05
0.00013153455
0.0001276256
0.00012146585
0.00011411864
0.00010498056
9.329237e-05
7.8627503e-05
6.0956164e-05
4.0788601e-05
1.6907629e-05
0.00013155951
0.00012764941
0.0001214865
0.00011413471
0.00010499168
9.3299036e-05
7.8630762e-05
6.0957293e-05
4.0788794e-05
1.6907724e-05
0.00013158221
0.00012767089
0.00012150478
0.00011414853
0.00010500088
9.3304275e-05
7.8633119e-05
6.0957973e-05
4.0788845e-05
1.6907805e-05
0.0001316026
0.00012769002
0.00012152074
0.00011416022
0.00010500833
9.3308246e-05
7.8634697e-05
6.0958278e-05
4.0788782e-05
1.6907875e-05
0.00013162067
0.00012770683
0.00012153447
0.00011416993
0.0001050142
9.3311101e-05
7.8635607e-05
6.0958271e-05
4.078863e-05
1.6907933e-05
0.00013163645
0.00012772138
0.00012154607
0.00011417781
0.00010501864
9.3312976e-05
7.8635947e-05
6.0958008e-05
4.0788406e-05
1.6907981e-05
0.00013165002
0.00012773377
0.00012155568
0.000114184
0.0001050218
9.3313994e-05
7.8635802e-05
6.0957532e-05
4.0788125e-05
1.6908019e-05
0.00013166146
0.00012774409
0.00012156344
0.00011418867
0.00010502384
9.3314274e-05
7.863525e-05
6.0956885e-05
4.0787799e-05
1.6908048e-05
0.00013167089
0.00012775248
0.00012156948
0.00011419198
0.00010502488
9.331393e-05
7.8634368e-05
6.0956105e-05
4.0787441e-05
1.6908069e-05
0.00013167847
0.00012775911
0.00012157399
0.00011419408
0.0001050251
9.3313081e-05
7.8633232e-05
6.0955231e-05
4.0787062e-05
1.6908083e-05
0.00013168437
0.00012776415
0.00012157716
0.00011419517
0.00010502464
9.3311843e-05
7.8631918e-05
6.0954301e-05
4.0786675e-05
1.690809e-05
0.0001316888
0.0001277678
0.00012157917
0.00011419542
0.00010502364
9.3310325e-05
7.8630495e-05
6.0953352e-05
4.0786293e-05
1.6908093e-05
0.00013169194
0.00012777027
0.00012158022
0.000114195
0.00010502225
9.3308622e-05
7.8629021e-05
6.0952413e-05
4.0785926e-05
1.6908091e-05
0.00013169401
0.00012777174
0.00012158048
0.00011419404
0.00010502057
9.3306807e-05
7.862754e-05
6.0951503e-05
4.078558e-05
1.6908087e-05
0.00013169519
0.00012777238
0.0001215801
0.00011419268
0.00010501868
9.3304936e-05
7.862608e-05
6.0950635e-05
4.0785258e-05
1.690808e-05
0.00013169562
0.00012777235
0.00012157921
0.000114191
0.00010501666
9.330305e-05
7.8624662e-05
6.0949813e-05
4.078496e-05
1.6908071e-05
0.00013169547
0.00012777179
0.00012157792
0.00011418911
0.00010501457
9.3301181e-05
7.8623296e-05
6.0949039e-05
4.0784682e-05
1.6908061e-05
)
;

boundaryField
{
    water_inlet
    {
        type            calculated;
        value           uniform 4.1926275e-05;
    }
    water_outlet
    {
        type            calculated;
        value           nonuniform List<scalar> 10(0.00013169547 0.00012777179 0.00012157792 0.00011418911 0.00010501457 9.3301181e-05 7.8623296e-05 6.0949039e-05 4.0784682e-05 1.6908061e-05);
    }
    water_wedge1
    {
        type            wedge;
    }
    water_wedge2
    {
        type            wedge;
    }
    water_to_rock
    {
        type            nutkWallFunction;
        blending        stepwise;
        value           nonuniform List<scalar> 
100
(
1.7358471e-06
1.9240026e-06
1.9263124e-06
1.8751054e-06
1.8229108e-06
1.7867861e-06
1.7671176e-06
1.7584645e-06
1.7555992e-06
1.7553224e-06
1.7561178e-06
1.7574033e-06
1.7590035e-06
1.7608811e-06
1.7630283e-06
1.7654317e-06
1.7680552e-06
1.7708579e-06
1.7738124e-06
1.7768954e-06
1.7800823e-06
1.7833463e-06
1.7866597e-06
1.7899943e-06
1.793321e-06
1.7966091e-06
1.7998252e-06
1.8029331e-06
1.8058934e-06
1.8086666e-06
1.8112148e-06
1.8135056e-06
1.8155147e-06
1.8172277e-06
1.8186412e-06
1.8197624e-06
1.8206075e-06
1.8212004e-06
1.8215695e-06
1.8217459e-06
1.8217611e-06
1.8216455e-06
1.8214272e-06
1.8211317e-06
1.8207793e-06
1.8203876e-06
1.819974e-06
1.819553e-06
1.8191365e-06
1.8187335e-06
1.8183506e-06
1.8179926e-06
1.8176625e-06
1.8173622e-06
1.8170923e-06
1.8168529e-06
1.8166434e-06
1.8164626e-06
1.816309e-06
1.816181e-06
1.8160764e-06
1.8159932e-06
1.815929e-06
1.8158819e-06
1.8158496e-06
1.8158301e-06
1.8158217e-06
1.8158225e-06
1.815831e-06
1.8158456e-06
1.8158649e-06
1.8158876e-06
1.8159125e-06
1.8159386e-06
1.8159653e-06
1.8159919e-06
1.816018e-06
1.8160433e-06
1.8160672e-06
1.8160897e-06
1.8161104e-06
1.8161292e-06
1.8161462e-06
1.8161612e-06
1.8161743e-06
1.8161856e-06
1.8161953e-06
1.8162034e-06
1.8162099e-06
1.8162151e-06
1.8162191e-06
1.8162219e-06
1.8162238e-06
1.8162248e-06
1.8162252e-06
1.8162251e-06
1.8162246e-06
1.8162237e-06
1.8162225e-06
1.8162212e-06
)
;
    }
}


// ************************************************************************* //
