/*--------------------------------*- C++ -*----------------------------------*\
| =========                 |                                                 |
| \\      /  F ield         | OpenFOAM: The Open Source CFD Toolbox           |
|  \\    /   O peration     | Version:  2506                                  |
|   \\  /    A nd           | Website:  www.openfoam.com                      |
|    \\/     M anipulation  |                                                 |
\*---------------------------------------------------------------------------*/
FoamFile
{
    version     2.0;
    format      ascii;
    arch        "LSB;label=32;scalar=64";
    class       surfaceScalarField;
    location    "21000/water";
    object      phi;
}
// * * * * * * * * * * * * * * * * * * * * * * * * * * * * * * * * * * * * * //

dimensions      [1 0 -1 0 0 0 0];

oriented        oriented;

internalField   nonuniform List<scalar> 
1890
(
-4.1736246e-05
0.0022168351
-0.00015753622
0.0059586937
-0.00032930669
0.0087985477
-0.00054203243
0.010900937
-0.00078239504
0.012402155
-0.0010351826
0.013412336
-0.0012746193
0.014013996
-0.0014359745
0.014245356
-0.001284859
0.0140006
0.012745539
-3.1455821e-05
0.0022482909
-0.00011269722
0.0060399351
-0.00023219387
0.0089180443
-0.00037999425
0.011048737
-0.0005459426
0.012568103
-0.0007164991
0.013582893
-0.00086674524
0.014164242
-0.00093361971
0.01431223
-0.00073394525
0.013800926
0.012011594
-2.9138828e-05
0.0022774298
-0.00010672996
0.0061175262
-0.00022105544
0.0090323698
-0.00036160334
0.011189285
-0.00051700153
0.012723501
-0.00067116249
0.013737054
-0.00079396201
0.014287042
-0.00081139803
0.014329666
-0.0005672995
0.013556827
0.011444294
-2.7339935e-05
0.0023047697
-0.00010102597
0.0061912122
-0.00020924238
0.0091405862
-0.00034097899
0.011321022
-0.0004837467
0.012866269
-0.0006191149
0.013872422
-0.00071088181
0.014378809
-0.0006765993
0.014295384
-0.00042026137
0.013300489
0.011024033
-2.5625224e-05
0.0023303949
-9.438612e-05
0.0062599731
-0.00019506686
0.0092412669
-0.00031669853
0.011442653
-0.00044589488
0.012995465
-0.00056132386
0.013987851
-0.00061882777
0.014436313
-0.00053651367
0.01421307
-0.00029565599
0.013059632
0.010728377
-2.4159472e-05
0.0023545544
-8.8799426e-05
0.0063246131
-0.00018306034
0.0093355279
-0.00029574152
0.011555335
-0.00041210876
0.013111833
-0.00050662353
0.014082366
-0.00052703793
0.014456727
-0.00040878668
0.014094819
-0.00020043431
0.012851279
0.010527943
-2.296546e-05
0.0023775199
-8.4333388e-05
0.006385981
-0.00017335327
0.0094245478
-0.00027826846
0.01166025
-0.00038232695
0.013215891
-0.00045437933
0.014154418
-0.00043820637
0.014440554
-0.0003032172
0.013959829
-0.00013378872
0.012681851
0.010394154
-2.2023827e-05
0.0023995437
-8.076973e-05
0.006444727
-0.00016540566
0.0095091837
-0.0002632719
0.011758116
-0.0003547269
0.013307346
-0.00040244378
0.014202135
-0.00035545883
0.014393569
-0.00022236876
0.013826739
-8.9855012e-05
0.012549337
0.010304299
-2.126056e-05
0.0024208043
-7.7812576e-05
0.006501279
-0.00015855229
0.0095899234
-0.00024948528
0.011849049
-0.00032712238
0.013384983
-0.00034954591
0.014224559
-0.00028212875
0.014326152
-0.00016300172
0.013707612
-6.1425728e-05
0.012447761
0.010242873
-2.0607155e-05
0.0024414114
-7.5216662e-05
0.0065558885
-0.00015223236
0.0096669391
-0.00023577768
0.011932594
-0.00029784628
0.013447052
-0.00029644775
0.01422316
-0.00022023872
0.014249943
-0.00011980481
0.013607178
-4.2689134e-05
0.012370646
0.010200184
-2.0018283e-05
0.0024614297
-7.2804689e-05
0.0066086749
-0.00014600128
0.0097401357
-0.0002212056
0.012007799
-0.00026613499
0.013491981
-0.00024531949
0.014202345
-0.00016974782
0.014174371
-8.795121e-05
0.013525382
-2.9805748e-05
0.0123125
0.010170378
-1.9463544e-05
0.0024808933
-7.0441409e-05
0.0066596528
-0.00013947744
0.0098091717
-0.00020502175
0.012073343
-0.00023228075
0.01351924
-0.00019838473
0.014168449
-0.00012919718
0.014105184
-6.3918273e-05
0.013460103
-2.0485786e-05
0.012269068
0.010149892
-1.8918755e-05
0.002499812
-6.8008127e-05
0.0067087421
-0.00013229867
0.0098734622
-0.00018675553
0.0121278
-0.00019748153
0.013529966
-0.00015698
0.014127947
-9.6700166e-05
0.014044904
-4.5354748e-05
0.013408758
-1.3426549e-05
0.01223714
0.010136466
-1.8360415e-05
0.0025181724
-6.5381862e-05
0.0067557636
-0.00012410696
0.0099321873
-0.00016633452
0.012170028
-0.00016333305
0.013526965
-0.00012140694
0.014086021
-7.0530435e-05
0.013994028
-3.0719965e-05
0.013368947
-7.8896125e-06
0.012214309
0.010128576
-1.7761448e-05
0.0025359339
-6.2419723e-05
0.0068004218
-0.00011457702
0.0099843446
-0.00014416279
0.012199613
-0.00013124046
0.013514042
-9.1273782e-05
0.014046054
-4.9296631e-05
0.01395205
-1.8986579e-05
0.013338637
-3.4327495e-06
0.012198755
0.010125144
-1.7087943e-05
0.0025530218
-5.8952596e-05
0.0068422865
-0.00010349054
0.010028883
-0.0001210531
0.012217176
-0.00010208396
0.013495073
-6.5899923e-05
0.01400987
-3.193275e-05
0.013918083
-9.4513549e-06
0.013316156
2.8656535e-07
0.012189017
0.01012543
-1.6296483e-05
0.0025693183
-5.4793317e-05
0.0068807833
-9.0832438e-05
0.010064922
-9.7999133e-05
0.012224343
-7.621038e-05
0.013473285
-4.4572312e-05
0.013978232
-1.76273e-05
0.013891138
-1.5572671e-06
0.013300085
3.3717409e-06
0.012184088
0.010128802
-1.5331778e-05
0.0025846501
-4.976203e-05
0.0069152135
-7.6852755e-05
0.010092012
-7.5898724e-05
0.012223388
-5.3589013e-05
0.013450975
-2.663448e-05
0.013951278
-5.725225e-06
0.013870229
4.9981556e-06
0.013289362
5.8496352e-06
0.012183237
0.010134651
-1.4126754e-05
0.0025987768
-4.373277e-05
0.0069448196
-6.2044317e-05
0.010110324
-5.5379611e-05
0.012216724
-3.3985857e-05
0.013429581
-1.1511603e-05
0.013928803
4.2380167e-06
0.013854479
1.0368655e-05
0.013283231
7.8673041e-06
0.012185738
0.010142519
-1.2609157e-05
0.002611386
-3.6694777e-05
0.0069689052
-4.7031403e-05
0.01012066
-3.6775319e-05
0.012206468
-1.7080462e-05
0.013409886
1.3285349e-06
0.013910394
1.2527371e-05
0.01384328
1.4774284e-05
0.013280984
9.515955e-06
0.012190996
0.010152035
-1.0718615e-05
0.0026221046
-2.8800833e-05
0.0069869874
-3.2420195e-05
0.01012428
-2.0181483e-05
0.012194229
-2.4812142e-06
0.013392186
1.2171497e-05
0.013895742
1.9376288e-05
0.013836076
1.8389261e-05
0.013281971
1.0861255e-05
0.012198524
0.010162896
-8.436229e-06
0.0026305408
-2.0369171e-05
0.0069989203
-1.8684518e-05
0.010122595
-5.5177924e-06
0.012181062
1.003099e-05
0.013376637
2.119673e-05
0.013884576
2.5023182e-05
0.013832249
2.1344404e-05
0.01328565
1.1950804e-05
0.012207918
0.010174847
-5.8188567e-06
0.0026363596
-1.1825183e-05
0.0070049266
-6.1103117e-06
0.01011688
7.276993e-06
0.012167675
2.0570677e-05
0.013363343
2.8684314e-05
0.013876462
2.965384e-05
0.01383128
2.3737522e-05
0.013291567
1.2818754e-05
0.012218837
0.010187666
-3.0141649e-06
0.0026393738
-3.5959012e-06
0.0070055084
5.1027277e-06
0.010108182
1.8190703e-05
0.012154587
2.9354045e-05
0.01335218
3.4839337e-05
0.013870977
3.3406096e-05
0.013832713
2.5640108e-05
0.013299333
1.3489593e-05
0.012230987
0.010201155
-2.3414606e-07
0.002639608
3.9068722e-06
0.0070013674
1.473981e-05
0.010097349
2.728446e-05
0.012142042
3.6558825e-05
0.013342906
3.9811176e-05
0.013867724
3.6376321e-05
0.013836148
2.7100007e-05
0.013308609
1.3978486e-05
0.012244109
0.010215134
2.2769487e-06
0.002637331
1.0308457e-05
0.0069933358
2.2681216e-05
0.010084976
3.4655213e-05
0.012130068
4.2308036e-05
0.013335253
4.3696408e-05
0.013866336
3.8621522e-05
0.013841223
2.814144e-05
0.013319089
1.4290722e-05
0.012257959
0.010229424
4.3216789e-06
0.0026330093
1.5394964e-05
0.0069822625
2.892036e-05
0.010071451
4.0373218e-05
0.012118615
4.6677585e-05
0.013328948
4.6546224e-05
0.013866467
4.0164193e-05
0.013847605
2.8767232e-05
0.013330486
1.4422108e-05
0.012272305
0.010243846
5.8171652e-06
0.0026271922
1.9123565e-05
0.0069689562
3.3492974e-05
0.010057081
4.4499476e-05
0.012107609
4.9715609e-05
0.013323732
4.8383044e-05
0.0138678
4.1004634e-05
0.013854983
2.8966669e-05
0.013342524
1.4362942e-05
0.012286908
0.010258209
6.7754988e-06
0.0026204167
2.1561917e-05
0.0069541697
3.648626e-05
0.010042157
4.7107356e-05
0.012096988
5.1465923e-05
0.013319374
4.9221076e-05
0.013870045
4.1136727e-05
0.013863067
2.8725944e-05
0.013354935
1.4102814e-05
0.012301531
0.010272312
7.268985e-06
0.0026131477
2.2856673e-05
0.0069385821
3.8040491e-05
0.010026973
4.8299902e-05
0.012086728
5.198962e-05
0.013315684
4.9086664e-05
0.013872948
4.0564489e-05
0.01387159
2.803972e-05
0.013367459
1.3636744e-05
0.012315934
0.010285949
7.3943121e-06
0.0026057534
2.3198099e-05
0.0069227783
3.8339902e-05
0.010011831
4.8217025e-05
0.012076851
5.1378664e-05
0.013312522
4.8032761e-05
0.013876294
3.9314461e-05
0.013880308
2.6919783e-05
0.013379854
1.2969221e-05
0.012329885
0.010298918
7.2475312e-06
0.0025985059
2.278858e-05
0.0069072373
3.7595892e-05
0.0099970239
4.7032053e-05
0.012067415
4.9759679e-05
0.013309795
4.6145394e-05
0.013879908
3.7442055e-05
0.013889011
2.5399692e-05
0.013391897
1.211652e-05
0.012343168
0.010311035
6.9115513e-06
0.0025915943
2.1819832e-05
0.006892329
3.6027844e-05
0.0099828159
4.494043e-05
0.012058503
4.7288616e-05
0.013307447
4.3541695e-05
0.013883655
3.5031018e-05
0.013897522
2.3534516e-05
0.013403393
1.1106472e-05
0.012355596
0.010322141
6.4524551e-06
0.0025851418
2.0459885e-05
0.0068783215
3.3846469e-05
0.0099694293
4.2145347e-05
0.012050204
4.4139845e-05
0.013305452
4.0361862e-05
0.013887433
3.2187485e-05
0.013905696
2.1396528e-05
0.013414184
9.9757179e-06
0.012367017
0.010332117
5.9205086e-06
0.0025792213
1.884825e-05
0.0068653938
3.1242469e-05
0.0099570351
3.8844602e-05
0.012042602
4.0493931e-05
0.013303803
3.6758704e-05
0.013891168
2.9031583e-05
0.013913423
1.9069193e-05
0.013424146
8.7668182e-06
0.012377319
0.010340884
5.3527719e-06
0.0025738686
1.7096058e-05
0.0068536505
2.8380182e-05
0.009945751
3.5220172e-05
0.012035762
3.652586e-05
0.013302497
3.2886248e-05
0.013894808
2.5687533e-05
0.013920622
1.6639677e-05
0.013433194
7.5238957e-06
0.012386435
0.010348408
4.7759669e-06
0.0025690926
1.5288999e-05
0.0068431375
2.5395578e-05
0.0099356444
3.1431618e-05
0.012029726
3.2395955e-05
0.013301533
2.8889968e-05
0.013898314
2.2274637e-05
0.013927237
1.4191953e-05
0.013441277
6.2890866e-06
0.012394338
0.010354697
4.20895e-06
0.0025648836
1.3491194e-05
0.0068338552
2.2397017e-05
0.0099267386
2.7612717e-05
0.01202451
2.8243576e-05
0.013300902
2.4899141e-05
0.013901658
1.8899849e-05
0.013933237
1.1800978e-05
0.013448376
5.0994868e-06
0.01240104
0.010359796
3.6646384e-06
0.002561219
1.1749035e-05
0.0068257709
1.946751e-05
0.0099190201
2.3870569e-05
0.012020107
2.4183525e-05
0.013300589
2.1021719e-05
0.01390482
1.5652407e-05
0.013938606
9.5283754e-06
0.0134545
3.9847007e-06
0.012406583
0.010363781
3.1515379e-06
0.0025580675
1.0094783e-05
0.0068188276
1.6668005e-05
0.0099124469
2.0286933e-05
0.012016488
2.0305358e-05
0.013300571
1.7342344e-05
0.013907783
1.2601497e-05
0.013943347
7.4205953e-06
0.013459681
2.9661057e-06
0.012411038
0.010366747
2.6748855e-06
0.0025553926
8.5496283e-06
0.0068129529
1.4040889e-05
0.0099069557
1.6920756e-05
0.012013608
1.6674623e-05
0.013300817
1.3922638e-05
0.013910535
9.7961673e-06
0.013947473
5.50892e-06
0.013463968
2.0569895e-06
0.01241449
0.010368804
2.237514e-06
0.0025531551
7.1262573e-06
0.0068080641
1.161347e-05
0.0099024684
1.3811484e-05
0.01201141
1.333554e-05
0.013301293
1.0803331e-05
0.013913067
7.267116e-06
0.01395101
3.8109415e-06
0.013467424
1.2633766e-06
0.012417037
0.010370067
1.8405651e-06
0.0025513145
5.8310993e-06
0.0068040736
9.4014159e-06
0.0098988981
1.098292e-05
0.012009828
1.0314848e-05
0.013301961
8.0079725e-06
0.013915374
5.0302089e-06
0.013953987
2.3336821e-06
0.013470121
5.8629306e-07
0.012418785
0.010370654
1.4839424e-06
0.0025498306
4.6659103e-06
0.0068008916
7.4113661e-06
0.0098961526
8.4463236e-06
0.012008794
7.6249198e-06
0.013302782
5.5458415e-06
0.013917453
3.0891262e-06
0.013956444
1.0765938e-06
0.013472133
3.3190365e-08
0.012419828
0.010370687
1.1666533e-06
0.0025486639
3.6289091e-06
0.0067984293
5.6428212e-06
0.0098941387
6.2026491e-06
0.012008234
5.2660706e-06
0.013303719
3.414415e-06
0.013919305
1.4390513e-06
0.013958419
4.1217782e-08
0.013473531
-4.1064571e-07
0.01242028
0.010370276
8.8708335e-07
0.0025477768
2.7158199e-06
0.0067966006
4.0901211e-06
0.0098927644
4.2453604e-06
0.012008078
3.2302295e-06
0.013304734
1.6044571e-06
0.013920931
7.5184449e-08
0.013959949
-7.9545156e-07
0.013474402
-7.6998942e-07
0.012420254
0.010369506
6.4323208e-07
0.0025471336
1.9207955e-06
0.006795323
2.744315e-06
0.0098919409
2.5633465e-06
0.012008259
1.5051189e-06
0.013305792
1.0631138e-07
0.013922329
-1.0301487e-06
0.013961085
-1.4657748e-06
0.013474837
-1.0492281e-06
0.012419838
0.010368457
4.3287314e-07
0.0025467007
1.2369903e-06
0.0067945189
1.5943733e-06
0.0098915835
1.1430762e-06
0.012008711
7.770419e-08
0.013306857
-1.1098187e-06
0.013923517
-1.9134792e-06
0.013961889
-1.982711e-06
0.013474907
-1.2543143e-06
0.012419109
0.010367203
2.5366681e-07
0.0025464471
6.5713118e-07
0.0067941155
6.2890146e-07
0.0098916117
-2.9654824e-08
0.012009369
-1.0816629e-06
0.013307909
-2.0816419e-06
0.013924517
-2.5950354e-06
0.013962402
-2.3614361e-06
0.013474673
-1.3934499e-06
0.012418142
0.010365809
1.0334823e-07
0.0025463437
1.7415998e-07
0.0067940446
-1.6565776e-07
0.0098919516
-9.815785e-07
0.012010185
-2.0083936e-06
0.013308936
-2.8331337e-06
0.013925342
-3.0962205e-06
0.013962665
-2.6186231e-06
0.013474195
-1.4756215e-06
0.012416999
0.010364334
-2.0581138e-08
0.0025463643
-2.212353e-07
0.0067942453
-8.0939371e-07
0.0098925397
-1.7419321e-06
0.012011118
-2.7260972e-06
0.01330992
-3.3884255e-06
0.013926004
-3.4393975e-06
0.013962716
-2.7713971e-06
0.013473527
-1.5099234e-06
0.012415737
0.010362824
-1.2115894e-07
0.0025464854
-5.3995414e-07
0.0067946641
-1.3212129e-06
0.009893321
-2.3300884e-06
0.012012127
-3.2580213e-06
0.013310848
-3.7719743e-06
0.013926518
-3.6468096e-06
0.013962591
-2.8364467e-06
0.013472717
-1.505044e-06
0.012414406
0.010361319
-2.011809e-07
0.0025466866
-7.9078068e-07
0.0067952537
-1.7148986e-06
0.0098942451
-2.7654748e-06
0.012013177
-3.6271921e-06
0.01331171
-4.0075388e-06
0.013926898
-3.7396253e-06
0.013962323
-2.8292868e-06
0.013471807
-1.4688577e-06
0.012413045
0.01035985
-2.6290484e-07
0.0025469495
-9.8114817e-07
0.0067959719
-2.0039941e-06
0.0098952679
-3.0669745e-06
0.01201424
-3.8557103e-06
0.013312499
-4.1175204e-06
0.01392716
-3.7373922e-06
0.013961943
-2.7639039e-06
0.013470833
-1.4082804e-06
0.01241169
0.010358441
-3.0845801e-07
0.002547258
-1.1182158e-06
0.0067967817
-2.2015409e-06
0.0098963512
-3.2526093e-06
0.012015291
-3.9643974e-06
0.013313211
-4.1226648e-06
0.013927318
-3.6578433e-06
0.013961478
-2.6527117e-06
0.013469828
-1.3293477e-06
0.012410366
0.010357112
-3.3984062e-07
0.0025475978
-1.2087749e-06
0.0067976506
-2.3198845e-06
0.0098974624
-3.3392922e-06
0.012016311
-3.9725304e-06
0.013313844
-4.0418394e-06
0.013927388
-3.5167677e-06
0.013960953
-2.5064753e-06
0.013468818
-1.237074e-06
0.012409097
0.010355875
-3.5895094e-07
0.0025479568
-1.2592638e-06
0.0067985509
-2.3706726e-06
0.0098985738
-3.3428443e-06
0.012017283
-3.8979287e-06
0.013314399
-3.8922228e-06
0.013927382
-3.3282876e-06
0.013960389
-2.3346661e-06
0.013467824
-1.1358761e-06
0.012407898
0.010354739
-3.6756425e-07
0.0025483243
-1.2757023e-06
0.0067994591
-2.3647501e-06
0.0098996628
-3.2778639e-06
0.012018196
-3.7568199e-06
0.013314878
-3.689213e-06
0.013927314
-3.1048399e-06
0.013959805
-2.14544e-06
0.013466865
-1.0294016e-06
0.012406782
0.01035371
-3.6734776e-07
0.0025486917
-1.2637237e-06
0.0068003555
-2.3122034e-06
0.0099007113
-3.1578071e-06
0.012019042
-3.5639911e-06
0.013315284
-3.4466538e-06
0.013927197
-2.8574455e-06
0.013959216
-1.94594e-06
0.013465953
-9.208551e-07
0.012405757
0.010352789
-3.5984576e-07
0.0025490515
-1.2285338e-06
0.0068012241
-2.222294e-06
0.0099017051
-2.9949073e-06
0.012019814
-3.3327174e-06
0.013315622
-3.1767946e-06
0.013927041
-2.5957114e-06
0.013958635
-1.742297e-06
0.0134651
-8.1292108e-07
0.012404828
0.010351976
-3.4647755e-07
0.002549398
-1.1748996e-06
0.0068020526
-2.1034368e-06
0.0099026336
-2.8001536e-06
0.012020511
-3.074751e-06
0.013315896
-2.8903085e-06
0.013926857
-2.3278592e-06
0.013958072
-1.5396605e-06
0.013464312
-7.0782325e-07
0.012403996
0.010351268
-3.2853141e-07
0.0025497265
-1.1071308e-06
0.0068028312
-1.9631675e-06
0.0099034896
-2.5832526e-06
0.012021131
-2.8003005e-06
0.013316113
-2.5962765e-06
0.013926653
-2.0607267e-06
0.013957537
-1.3422017e-06
0.013463593
-6.0731283e-07
0.012403261
0.010350661
-3.0715992e-07
0.0025500337
-1.0290567e-06
0.0068035531
-1.808105e-06
0.0099042687
-2.3525904e-06
0.012021675
-2.5179967e-06
0.013316279
-2.3021827e-06
0.013926437
-1.7997706e-06
0.013957034
-1.1531278e-06
0.013462946
-5.1268071e-07
0.01240262
0.010350148
-2.8337624e-07
0.0025503171
-9.440255e-07
0.0068042137
-1.6439575e-06
0.0099049686
-2.1152628e-06
0.012022147
-2.2349695e-06
0.013316399
-2.0140093e-06
0.013926216
-1.5491617e-06
0.013956569
-9.7472707e-07
0.013462372
-4.2474782e-07
0.01240207
0.010349723
-2.5806679e-07
0.0025505752
-8.549313e-07
0.0068048106
-1.475584e-06
0.0099055893
-1.8771812e-06
0.012022548
-1.9569875e-06
0.013316478
-1.7364195e-06
0.013925995
-1.3119835e-06
0.013956145
-8.0856713e-07
0.013461869
-3.4402276e-07
0.012401606
0.010349379
-2.319898e-07
0.0025508071
-7.6422858e-07
0.0068053428
-1.3070366e-06
0.0099061321
-1.643167e-06
0.012022884
-1.688619e-06
0.013316524
-1.4729471e-06
0.01392578
-1.0904181e-06
0.013955762
-6.5561892e-07
0.013461434
-2.7071237e-07
0.012401221
0.010349109
-2.0579281e-07
0.0025510129
-6.739868e-07
0.006805811
-1.1416757e-06
0.0099065998
-1.4171261e-06
0.01202316
-1.4334463e-06
0.01331654
-1.2262421e-06
0.013925572
-8.8598577e-07
0.013955422
-5.1645989e-07
0.013461064
-2.0488251e-07
0.012400909
0.010348904
-1.8001844e-07
0.002551193
-5.8592108e-07
0.0068062169
-9.822384e-07
0.0099069961
-1.2021618e-06
0.01202338
-1.1942216e-06
0.013316532
-9.9823597e-07
0.013925376
-6.9968838e-07
0.013955124
-3.9137729e-07
0.013460756
-1.4649135e-07
0.012400664
0.010348757
-1.5511158e-07
0.0025513481
-5.0142479e-07
0.0068065632
-8.3090242e-07
0.0099073256
-1.0006701e-06
0.01202355
-9.7297245e-07
0.013316505
-7.9024135e-07
0.013925194
-5.3209871e-07
0.013954865
-2.8041834e-07
0.013460504
-9.5396739e-08
0.012400479
0.010348662
-1.3143018e-07
0.0025514795
-4.2159954e-07
0.0068068534
-6.8934452e-07
0.0099075933
-8.1441687e-07
0.012023675
-7.7108639e-07
0.013316461
-6.0302657e-07
0.013925026
-3.8339336e-07
0.013954646
-1.8341985e-07
0.013460304
-5.1418437e-08
0.012400347
0.010348611
-1.0924253e-07
0.0025515887
-3.4725897e-07
0.0068070914
-5.5874815e-07
0.0099078048
-6.4454352e-07
0.01202376
-5.8929764e-07
0.013316406
-4.3678048e-07
0.013924873
-2.5330847e-07
0.013954462
-9.9881784e-08
0.013460151
-1.371977e-08
0.012400261
0.010348597
-8.8744375e-08
0.0025516775
-2.7897568e-07
0.0068072816
-4.3988575e-07
0.0099079657
-4.9167913e-07
0.012023812
-4.2782861e-07
0.013316342
-2.912412e-07
0.013924737
-1.4118995e-07
0.013954312
-2.873311e-08
0.013460038
1.8019418e-08
0.012400215
0.010348615
-7.0059159e-08
0.0025517475
-2.170886e-07
0.0068074287
-3.331336e-07
0.0099080818
-3.5595816e-07
0.012023835
-2.863776e-07
0.013316273
-1.6562939e-07
0.013924616
-4.5757563e-08
0.013954192
3.0803959e-08
0.013459962
4.3417412e-08
0.012400202
0.010348658
-5.3249432e-08
0.0025518008
-1.6173296e-07
0.0068075372
-2.3852293e-07
0.0099081586
-2.370747e-07
0.012023834
-1.6415082e-07
0.0133162
-5.8589071e-08
0.01392451
3.4190619e-08
0.0139541
7.8897923e-08
0.013459917
6.2931035e-08
0.012400218
0.010348721
-3.8325352e-08
0.0025518391
-1.1287344e-07
0.0068076117
-1.5579127e-07
0.0099082015
-1.3434065e-07
0.012023812
-5.9875441e-08
0.013316125
3.1279341e-08
0.013924419
9.9218592e-08
0.013954032
1.1640998e-07
0.0134599
7.748253e-08
0.012400257
0.010348799
-2.5255279e-08
0.0025518644
-7.0335504e-08
0.0068076568
-8.4436425e-08
0.0099082156
-4.6710856e-08
0.012023774
2.7740876e-08
0.013316051
1.0468234e-07
0.013924342
1.5032756e-07
0.013953986
1.4468959e-07
0.013459906
8.781039e-08
0.012400314
0.010348886
-1.3971397e-08
0.0025518783
-3.3823953e-08
0.0068076766
-2.371553e-08
0.0099082055
2.6806234e-08
0.012023724
9.9381942e-08
0.013315978
1.6260803e-07
0.013924279
1.8909826e-07
0.01395396
1.6492855e-07
0.01345993
9.4532857e-08
0.012400384
0.010348981
-4.3710131e-09
0.0025518827
-2.9360673e-09
0.0068076752
2.6973925e-08
0.0099081756
8.6765831e-08
0.012023664
1.5595063e-07
0.013315909
2.0666699e-07
0.013924228
2.1696484e-07
0.013953949
1.7815993e-07
0.013459969
9.8146324e-08
0.012400464
0.010349079
3.6389822e-09
0.0025518791
2.258917e-08
0.0068076562
6.8032386e-08
0.0099081301
1.3398421e-07
0.012023598
1.9895928e-07
0.013315844
2.3839708e-07
0.013924189
2.3525738e-07
0.013953952
1.8531029e-07
0.013460018
9.909886e-08
0.01240055
0.010349178
1.0135445e-08
0.0025518689
4.3005307e-08
0.0068076234
1.0015353e-07
0.009908073
1.6974677e-07
0.012023529
2.2990608e-07
0.013315784
2.5929204e-07
0.013924159
2.4523971e-07
0.013953966
1.8724462e-07
0.013460076
9.7793238e-08
0.01240064
0.010349276
1.523516e-08
0.0025518537
5.8781149e-08
0.0068075798
1.2426856e-07
0.0099080075
1.9535057e-07
0.012023457
2.5028462e-07
0.013315729
2.7082072e-07
0.013924139
2.4814009e-07
0.013953989
1.8480452e-07
0.01346014
9.4617016e-08
0.01240073
0.010349371
1.9085401e-08
0.0025518346
7.0432725e-08
0.0068075285
1.4133867e-07
0.0099079366
2.1211664e-07
0.012023387
2.6160748e-07
0.013315679
2.7446632e-07
0.013924126
2.452089e-07
0.013954018
1.7885118e-07
0.013460206
8.9997099e-08
0.012400819
0.010349461
2.1831404e-08
0.0025518128
7.846794e-08
0.0068074718
1.5229787e-07
0.0099078627
2.2132759e-07
0.012023318
2.6531796e-07
0.013315635
2.7162835e-07
0.01392412
2.3761479e-07
0.013954052
1.7018506e-07
0.013460274
8.4286041e-08
0.012400905
0.010349545
2.3624e-08
0.0025517892
8.3401096e-08
0.0068074121
1.5807546e-07
0.009907788
2.2423617e-07
0.012023252
2.6282398e-07
0.013315597
2.6366825e-07
0.013924119
2.264854e-07
0.01395409
1.5958749e-07
0.01346034
7.7896518e-08
0.012400986
0.010349623
2.4598716e-08
0.0025517646
8.5699056e-08
0.006807351
1.5951323e-07
0.0099077142
2.2196343e-07
0.012023189
2.5535022e-07
0.013315563
2.5172742e-07
0.013924122
2.1274552e-07
0.013954128
1.476723e-07
0.013460406
7.1080832e-08
0.012401063
0.010349694
2.4887601e-08
0.0025517397
8.5804387e-08
0.00680729
1.5738984e-07
0.0099076426
2.1552312e-07
0.012023131
2.4398692e-07
0.013315535
2.3681034e-07
0.01392413
1.9718052e-07
0.013954168
1.3494613e-07
0.013460468
6.4098429e-08
0.012401134
0.010349758
2.4604967e-08
0.0025517151
8.4104524e-08
0.0068072305
1.5238021e-07
0.0099075744
2.0577952e-07
0.012023078
2.296297e-07
0.013315511
2.1970559e-07
0.01392414
1.803746e-07
0.013954207
1.2175509e-07
0.013460526
5.7056278e-08
0.012401198
0.010349815
2.3861513e-08
0.0025516912
8.0958449e-08
0.0068071734
1.4509616e-07
0.0099075102
1.934994e-07
0.012023029
2.1307065e-07
0.013315491
2.0109394e-07
0.013924152
1.6282561e-07
0.013954246
1.0839483e-07
0.013460581
5.0104971e-08
0.012401257
0.010349865
2.2751535e-08
0.0025516685
7.6679682e-08
0.0068071195
1.3607275e-07
0.0099074508
1.7935013e-07
0.012022986
1.9497692e-07
0.013315476
1.8154271e-07
0.013924165
1.44927e-07
0.013954282
9.5072601e-08
0.013460631
4.3280906e-08
0.012401309
0.010349908
2.1369024e-08
0.0025516471
7.1568928e-08
0.0068070693
1.2581721e-07
0.0099073966
1.6396367e-07
0.012022948
1.7600335e-07
0.013315464
1.6162643e-07
0.013924179
1.2711322e-07
0.013954317
8.2056242e-08
0.013460676
3.6729834e-08
0.012401354
0.010349945
1.9791581e-08
0.0025516273
6.5884845e-08
0.0068070232
1.1477191e-07
0.0099073477
1.4789809e-07
0.012022915
1.5671919e-07
0.013315455
1.4184597e-07
0.013924194
1.0975886e-07
0.013954349
6.9572888e-08
0.013460716
3.0503995e-08
0.012401393
0.010349976
1.8097917e-08
0.0025516092
5.9879273e-08
0.0068069815
1.0336521e-07
0.0099073042
1.3169243e-07
0.012022886
1.3769438e-07
0.013315449
1.2271871e-07
0.013924209
9.3279177e-08
0.013954378
5.791264e-08
0.013460751
2.4793556e-08
0.012401426
0.01035
1.6346134e-08
0.0025515929
5.3751137e-08
0.0068069441
9.1935311e-08
0.009907266
1.1576803e-07
0.012022862
1.1935625e-07
0.013315445
1.0461793e-07
0.013924224
7.7953972e-08
0.013954405
4.7246096e-08
0.013460782
1.9631679e-08
0.012401454
0.01035002
1.4589377e-08
0.0025515783
4.7671156e-08
0.006806911
8.0766549e-08
0.009907233
1.0046891e-07
0.012022843
1.0204278e-07
0.013315444
8.7824752e-08
0.013924238
6.3982887e-08
0.013954429
3.7691381e-08
0.013460808
1.5095076e-08
0.012401476
0.010350035
1.2864273e-08
0.0025515654
4.1760558e-08
0.0068068821
7.0052565e-08
0.0099072047
8.6010355e-08
0.012022827
8.5935127e-08
0.013315444
7.2454008e-08
0.013924252
5.1412545e-08
0.01395445
2.9246688e-08
0.013460831
1.1156222e-08
0.012401494
0.010350046
1.1198431e-08
0.0025515542
3.6105973e-08
0.0068068572
5.9920042e-08
0.0099071809
7.251597e-08
0.012022814
7.1112279e-08
0.013315445
5.8517945e-08
0.013924264
4.018796e-08
0.013954468
2.1826274e-08
0.013460849
7.7509674e-09
0.012401509
0.010350054
9.6138685e-09
0.0025515446
3.0767311e-08
0.006806836
5.045146e-08
0.0099071612
6.0050551e-08
0.012022805
5.759053e-08
0.013315448
4.5973654e-08
0.013924276
3.0225806e-08
0.013954484
1.5340888e-08
0.013460864
4.8338986e-09
0.012401519
0.010350059
8.1166006e-09
0.0025515365
2.5767863e-08
0.0068068184
4.167061e-08
0.0099071453
4.861595e-08
0.012022798
4.5328118e-08
0.013315451
3.472819e-08
0.013924286
2.1398395e-08
0.013954497
9.6535703e-09
0.013460876
2.2828689e-09
0.012401526
0.010350061
6.7300027e-09
0.0025515297
2.1153419e-08
0.006806804
3.3662693e-08
0.0099071328
3.8362493e-08
0.012022793
3.455472e-08
0.013315455
2.5081863e-08
0.013924296
1.4034514e-08
0.013954508
5.0697095e-09
0.013460884
3.2962929e-10
0.012401531
0.010350062
3.0615982e-09
9.5970709e-09
1.5159431e-08
1.7061529e-08
1.5097191e-08
1.0625215e-08
5.6404812e-09
1.7603118e-09
-6.9203633e-11
)
;

boundaryField
{
    water_inlet
    {
        type            calculated;
        value           nonuniform List<scalar> 10(-0.0021750989 -0.0058428937 -0.0086267772 -0.010688211 -0.012161792 -0.013159549 -0.01377456 -0.014084001 -0.014151716 -0.014030398);
    }
    water_outlet
    {
        type            calculated;
        value           nonuniform List<scalar> 10(0.0025515267 0.0068067974 0.0099071272 0.012022791 0.013315457 0.0139243 0.013954513 0.013460888 0.012401533 0.010350061);
    }
    water_wedge1
    {
        type            wedge;
        value           nonuniform List<scalar> 
1000
(
-1.1296289e-13
-1.4267632e-13
-1.1216033e-13
-1.0631724e-13
-9.9358822e-14
-9.3388771e-14
-8.8690775e-14
-8.4955641e-14
-8.1974827e-14
-7.9488036e-14
-7.7283594e-14
-7.523726e-14
-7.3263031e-14
-7.1278585e-14
-6.9184767e-14
-6.6859906e-14
-6.4137931e-14
-6.0817479e-14
-5.6668292e-14
-5.1410148e-14
-4.4793934e-14
-3.6658478e-14
-2.7079797e-14
-1.6558909e-14
-5.8638366e-15
4.0667397e-15
1.2376787e-14
1.8670187e-14
2.2896602e-14
2.529753e-14
2.6221623e-14
2.6005545e-14
2.5028001e-14
2.3515461e-14
2.1687236e-14
1.9701236e-14
1.7622897e-14
1.5583243e-14
1.360871e-14
1.1733017e-14
9.996244e-15
8.398305e-15
6.9382445e-15
5.6142181e-15
4.4409909e-15
3.4013212e-15
2.4975883e-15
1.7166245e-15
1.0385034e-15
4.7833286e-16
1.2665221e-17
-3.7071393e-16
-6.7041356e-16
-9.0713795e-16
-1.0864896e-15
-1.208111e-15
-1.2848582e-15
-1.3268774e-15
-1.3336857e-15
-1.313705e-15
-1.2669356e-15
-1.2033519e-15
-1.1307717e-15
-1.050123e-15
-9.5810279e-16
-8.6319419e-16
-7.6638501e-16
-6.7449388e-16
-5.8674225e-16
-4.92207e-16
-4.1433222e-16
-3.3900355e-16
-2.6722502e-16
-2.1162307e-16
-1.5615058e-16
-1.0353817e-16
-5.9795436e-17
-3.0703198e-17
2.678206e-18
3.2237357e-17
4.7129052e-17
5.7289375e-17
6.6301733e-17
8.0191239e-17
8.6832326e-17
8.6087803e-17
8.3134236e-17
8.1580452e-17
7.9923677e-17
7.7779394e-17
7.0812412e-17
6.460152e-17
5.6866925e-17
4.495085e-17
4.3748503e-17
4.0307733e-17
3.44861e-17
2.4426504e-17
1.5367202e-17
7.9913321e-18
-6.8081263e-13
-1.0335445e-12
-8.3929e-13
-7.9752936e-13
-7.493997e-13
-7.0313747e-13
-6.6536285e-13
-6.3522741e-13
-6.1093774e-13
-5.9053061e-13
-5.7244918e-13
-5.5560412e-13
-5.3912467e-13
-5.2220033e-13
-5.0397651e-13
-4.8343386e-13
-4.5934525e-13
-4.3019015e-13
-3.9436769e-13
-3.505532e-13
-2.981367e-13
-2.3765387e-13
-1.7103323e-13
-1.0155411e-13
-3.3369688e-14
2.8948266e-14
8.1487023e-14
1.2214597e-13
1.5063198e-13
1.6797198e-13
1.7589148e-13
1.7635092e-13
1.7126766e-13
1.6227546e-13
1.507361e-13
1.3769554e-13
1.2392417e-13
1.1003475e-13
9.643798e-14
8.3438029e-14
7.1224619e-14
5.9909456e-14
4.956265e-14
4.0202247e-14
3.1832569e-14
2.442177e-14
1.793382e-14
1.2314091e-14
7.5060424e-15
3.4657201e-15
1.1823297e-16
-2.6185478e-15
-4.8056891e-15
-6.5026335e-15
-7.7683434e-15
-8.6617303e-15
-9.2220494e-15
-9.4942319e-15
-9.5318947e-15
-9.3821495e-15
-9.0693236e-15
-8.6221146e-15
-8.0833523e-15
-7.4785684e-15
-6.8302003e-15
-6.1576722e-15
-5.4800231e-15
-4.8095862e-15
-4.1553678e-15
-3.5362938e-15
-2.9566942e-15
-2.4156381e-15
-1.9189897e-15
-1.4738412e-15
-1.0826282e-15
-7.3299396e-16
-4.263073e-16
-1.6765477e-16
4.6510556e-17
2.1910461e-16
3.576263e-16
4.6733903e-16
5.4214739e-16
5.9432437e-16
6.2618051e-16
6.3284089e-16
6.3037615e-16
6.203563e-16
5.9334357e-16
5.5387713e-16
5.126339e-16
4.7491972e-16
4.2978695e-16
3.7722741e-16
3.3548824e-16
2.9278791e-16
2.5199656e-16
2.1441067e-16
1.7459927e-16
1.0021519e-16
3.1339119e-12
4.8023025e-12
3.907235e-12
3.7113884e-12
3.4900555e-12
3.2689317e-12
3.0860156e-12
2.9387783e-12
2.817615e-12
2.7124752e-12
2.6152676e-12
2.5197156e-12
2.4205074e-12
2.3123568e-12
2.1894969e-12
2.0461179e-12
1.8774962e-12
1.6811025e-12
1.4574259e-12
1.210548e-12
9.4808783e-13
6.8016469e-13
4.1759649e-13
1.7019721e-13
-5.3299452e-14
-2.455353e-13
-4.0215824e-13
-5.2203221e-13
-6.0635501e-13
-6.5805142e-13
-6.8128195e-13
-6.8087389e-13
-6.6177492e-13
-6.2869058e-13
-5.8579807e-13
-5.366397e-13
-4.8411087e-13
-4.3047789e-13
-3.7747243e-13
-3.2635804e-13
-2.7802127e-13