/*--------------------------------*- C++ -*----------------------------------*\
| =========                 |                                                 |
| \\      /  F ield         | OpenFOAM: The Open Source CFD Toolbox           |
|  \\    /   O peration     | Version:  2506                                  |
|   \\  /    A nd           | Website:  www.openfoam.com                      |
|    \\/     M anipulation  |                                                 |
\*---------------------------------------------------------------------------*/
FoamFile
{
    version     2.0;
    format      ascii;
    arch        "LSB;label=32;scalar=64";
    class       volVectorField;
    location    "21000/water";
    object      U;
}
// * * * * * * * * * * * * * * * * * * * * * * * * * * * * * * * * * * * * * //

dimensions      [0 1 -1 0 0 0 0];

internalField   nonuniform List<vector> 
1000
(
(0.25225587 -0.00012859767 3.0489837e-18)
(0.25226258 -0.00027067837 7.9048625e-19)
(0.25227485 -0.0004145054 1.7756277e-18)
(0.25228819 -0.00055572717 5.0068156e-19)
(0.25229018 -0.0006857579 7.3544691e-19)
(0.25223998 -0.00079863173 5.5698301e-20)
(0.25200713 -0.00089615194 -1.3486925e-19)
(0.25115686 -0.0010460356 -2.5207159e-19)
(0.24780473 -0.0012820719 -8.4105378e-20)
(0.23308261 0.0010121611 -5.3053608e-19)
(0.25653043 -7.7330455e-05 1.626364e-18)
(0.25653977 -0.00018903832 1.0493775e-18)
(0.25655871 -0.00029096538 2.0147953e-18)
(0.25657276 -0.00039024489 5.6191745e-19)
(0.25654377 -0.00048175041 6.8037593e-19)
(0.25636039 -0.00055898445 8.6686796e-20)
(0.25570613 -0.00060536499 -1.6649868e-19)
(0.25355952 -0.00065441362 -4.2983807e-19)
(0.24574266 -0.00084724767 -2.7058469e-19)
(0.21968686 0.00025718808 -5.4184685e-19)
(0.26021787 -7.3910006e-05 -1.5007721e-18)
(0.26022468 -0.00018059837 7.5373591e-20)
(0.26023383 -0.00027741917 1.0475966e-18)
(0.26021807 -0.00037159749 3.5395911e-19)
(0.26010153 -0.00045735781 -1.0006416e-19)
(0.25968006 -0.00053044608 -3.2250057e-19)
(0.25840621 -0.00057093115 -2.0376075e-19)
(0.25452353 -0.00056554787 -4.4618375e-19)
(0.24186464 -0.00061987728 -4.5821833e-19)
(0.20839343 1.1252394e-05 -3.9339746e-19)
(0.26340527 -6.8945991e-05 8.3562488e-19)
(0.26340956 -0.00017058512 7.0580683e-19)
(0.26340597 -0.00026279234 1.0338903e-18)
(0.2633478 -0.00035138374 3.6484173e-19)
(0.26310913 -0.00042951146 6.3677695e-20)
(0.26237282 -0.00049395009 -2.8235386e-19)
(0.26030372 -0.0005275103 -2.9295871e-19)
(0.25430845 -0.00049290027 -4.4433128e-19)
(0.23723183 -0.00045934382 -3.9952987e-19)
(0.19958845 -4.8877307e-05 -4.1650027e-19)
(0.26641628 -6.438891e-05 -1.3763588e-19)
(0.26641556 -0.00015946866 1.3041467e-18)
(0.266392 -0.00024539848 9.8996246e-19)
(0.26627267 -0.00032748754 6.8345624e-19)
(0.26586989 -0.00039791738 1.0205433e-19)
(0.26472853 -0.0004525063 1.9496145e-19)
(0.26164541 -0.00047360905 -1.1045238e-19)
(0.25321246 -0.00041483918 -3.4947503e-19)
(0.23271016 -0.00033459439 -4.1678663e-19)
(0.19329517 -5.0634444e-05 -4.1225376e-19)
(0.26927574 -6.0867407e-05 -6.0340178e-23)
(0.26926716 -0.00015024304 1.0519093e-18)
(0.26921481 -0.0002307041 1.3683693e-18)
(0.26901237 -0.00030702694 7.7037427e-19)
(0.26839648 -0.00037049956 1.6368088e-19)
(0.26673519 -0.00041493209 2.233798e-19)
(0.2623679 -0.00041871842 -8.4518607e-20)
(0.25136279 -0.0003383505 -2.1648024e-19)
(0.22869801 -0.00023662967 -2.2561417e-19)
(0.18902127 -3.9495049e-05 -2.4458388e-19)
(0.27197991 -5.8057436e-05 2.206905e-18)
(0.27196007 -0.00014287112 2.1022881e-18)
(0.27186829 -0.00021894801 5.9518725e-19)
(0.2715565 -0.0002903031 4.0820007e-19)
(0.27066609 -0.00034728941 4.4784416e-19)
(0.26833155 -0.00038068232 1.776083e-19)
(0.26239853 -0.00036437213 -2.0511652e-19)
(0.24902641 -0.00026852421 -2.7491619e-19)
(0.22536097 -0.00016272691 -4.7831195e-20)
(0.18616821 -2.8773765e-05 -2.1238631e-19)
(0.27455816 -5.5861801e-05 2.2655726e-19)
(0.2745228 -0.00013703199 1.4694137e-18)
(0.27437848 -0.00020952 3.7721241e-19)
(0.27392442 -0.00027640483 7.873934e-19)
(0.27267858 -0.00032682066 5.3348178e-19)
(0.26947689 -0.00034738398 2.7610671e-19)
(0.2617847 -0.00031092635 1.3606218e-20)
(0.24657381 -0.00020816813 -1.7287504e-19)
(0.22271517 -0.0001105005 -2.4496129e-19)
(0.18425835 -2.0836187e-05 -2.8838544e-19)
(0.27704027 -5.4085729e-05 3.6675664e-19)
(0.27698407 -0.00013225436 9.3001199e-19)
(0.27677057 -0.00020162573 9.4946615e-19)
(0.27613171 -0.00026417287 9.3686912e-19)
(0.27442313 -0.00030720578 2.7214816e-19)
(0.27014174 -0.00031294768 1.8173849e-19)
(0.26069 -0.00025925793 -8.0641298e-20)
(0.24429832 -0.00015836458 -5.7895068e-20)
(0.22067581 -7.5408611e-05 -5.0174201e-20)
(0.18296197 -1.5153511e-05 -1.0254892e-19)
(0.2794434 -5.2555761e-05 2.5178844e-18)
(0.27935955 -0.00012814136 2.4521646e-18)
(0.27905543 -0.00019460752 6.6516263e-19)
(0.27817575 -0.00025259233 5.4107864e-19)
(0.27586797 -0.00028673443 5.5216057e-20)
(0.27032645 -0.00027659207 -1.484555e-19)
(0.25933503 -0.00021094048 -1.7515461e-19)
(0.24234215 -0.00011891239 -2.0769877e-19)
(0.21912381 -5.2172137e-05 -2.2539922e-19)
(0.18206598 -1.0945936e-05 -2.1121478e-19)
(0.28177654 -5.1166653e-05 2.2383234e-18)
(0.28165619 -0.0001244197 4.1209553e-19)
(0.2812333 -0.00018797294 4.841532e-19)
(0.28003901 -0.0002407744 9.0770787e-19)
(0.27697398 -0.00026417617 2.5741562e-19)
(0.27008764 -0.00023880381 -5.6979248e-20)
(0.25792269 -0.00016762299 -1.6316582e-19)
(0.2407318 -8.8481062e-05 -2.7963215e-19)
(0.2179502 -3.6445519e-05 -3.7592217e-19)
(0.18143935 -7.6992466e-06 -2.5488736e-19)
(0.28404476 -4.985477e-05 8.2979633e-19)
(0.28387625 -0.00012089422 9.9455213e-20)
(0.28329739 -0.00018132905 3.3800836e-19)
(0.28169343 -0.00022787692 5.4054167e-19)
(0.27771473 -0.00023897349 2.0985229e-19)
(0.26953511 -0.00020087511 6.6692657e-20)
(0.25659139 -0.00013036462 -1.2833883e-19)
(0.23943781 -6.5170714e-05 -1.6716486e-19)
(0.21706901 -2.5324897e-05 -1.5290304e-19)
(0.18100323 -5.1217521e-06 -1.8411878e-19)
(0.28625049 -4.8572116e-05 2.0913034e-19)
(0.28601827 -0.00011740097 5.3182488e-19)
(0.28523426 -0.00017430193 1.4269059e-19)
(0.28310493 -0.00021314183 6.7510395e-19)
(0.27809438 -0.00021129048 3.5644687e-19)
(0.26879943 -0.00016439806 -4.0759844e-20)
(0.25541094 -9.9329188e-05 1.2823074e-20)
(0.23841401 -4.7155391e-05 -4.8926339e-20)
(0.21641538 -1.7078547e-05 -1.9654471e-19)
(0.18070892 -3.0433363e-06 -1.8982327e-19)
(0.28839355 -4.7271019e-05 8.3351533e-19)
(0.28807682 -0.00011377587 1.0076581e-18)
(0.28702341 -0.00016645996 5.8208602e-19)
(0.28424076 -0.00019602611 7.7612682e-19)
(0.27815548 -0.00018188559 4.003652e-19)
(0.26799601 -0.00013079016 5.2143932e-20)
(0.25440308 -7.393749e-05 -4.0766448e-19)
(0.23761477 -3.3004033e-05 -2.2513128e-19)
(0.21594074 -1.0716052e-05 -2.1270589e-19)
(0.18052449 -1.3527683e-06 -2.6491333e-19)
(0.29047097 -4.5891501e-05 1.35532e-18)
(0.29004195 -0.00010982923 3.1493439e-18)
(0.28863778 -0.00015729323 4.6536179e-19)
(0.28508022 -0.00017633879 -3.0049982e-19)
(0.27797082 -0.00015188769 3.2614622e-20)
(0.26720627 -0.00010094742 1.6055786e-19)
(0.25356403 -5.3259377e-05 -2.7619826e-19)
(0.23700054 -2.1699028e-05 -2.7642279e-19)
(0.21560862 -5.6598414e-06 -1.2943733e-19)
(0.18042759 3.3875267e-08 -9.1568172e-20)
(0.29247638 -4.4351572e-05 2.4484982e-18)
(0.29189831 -0.0001053135 4.666582e-19)
(0.2900463 -0.00014628224 3.4729465e-19)
(0.28562469 -0.00015430686 4.8445221e-19)
(0.27762409 -0.00012254002 9.9610393e-20)
(0.26647734 -7.5148582e-05 1.0769904e-19)
(0.25287924 -3.6358359e-05 2.2477098e-19)
(0.23653862 -1.2544749e-05 4.1853279e-21)
(0.21539111 -1.527824e-06 -3.6433008e-20)
(0.18040203 1.205692e-06 8.4383419e-20)
(0.294399 -4.254268e-05 2.4880914e-18)
(0.2936244 -9.9894695e-05 8.3400712e-19)
(0.29121909 -0.00013303058 6.5614144e-19)
(0.28590172 -0.00013054576 4.7625857e-19)
(0.27719085 -9.4944581e-05 3.4129564e-19)
(0.26583135 -5.3198688e-05 1.0846975e-19)
(0.25233097 -2.2452905e-05 1.4624812e-19)
(0.23620235 -5.0203062e-06 -4.8751252e-21)
(0.21526449 1.8976328e-06 -1.1347906e-20)
(0.18043772 2.1937426e-06 -1.1223632e-19)
(0.29622248 -4.0322298e-05 1.1247695e-18)
(0.29519258 -9.3155502e-05 1.11719e-18)
(0.29213503 -0.00011739333 3.2082355e-19)
(0.28595988 -0.00010594389 9.0677847e-19)
(0.27672822 -6.9857604e-05 6.5060651e-19)
(0.26527517 -3.464949e-05 3.7447922e-19)
(0.25190111 -1.0910652e-05 2.1843674e-19)
(0.23596806 1.2321813e-06 8.6692538e-20)
(0.21521691 4.7063025e-06 4.3413741e-21)
(0.18052212 2.9888412e-06 -3.9334776e-20)
(0.29792335 -3.7501342e-05 1.0853502e-18)
(0.29657069 -8.4660554e-05 1.1894439e-18)
(0.29278918 -9.9552414e-05 2.3636099e-19)
(0.28585701 -8.1496452e-05 9.9447842e-19)
(0.27627358 -4.7619564e-05 6.5175945e-19)
(0.26480714 -1.8983881e-05 1.6393617e-19)
(0.25157194 -1.2536113e-06 -6.5856413e-20)
(0.23582161 6.4210035e-06 5.6675489e-20)
(0.21523436 6.9894758e-06 -1.2268187e-19)
(0.18064612 3.6205616e-06 -1.8489455e-19)
(0.29946983 -3.3841634e-05 -1.2467919e-18)
(0.29772605 -7.4080275e-05 1.2925523e-18)
(0.29319629 -8.0019795e-05 2.3308643e-19)
(0.28564803 -5.8125928e-05 -1.4007713e-18)
(0.27584861 -2.8225192e-05 -6.4769687e-19)
(0.2644212 -5.690114e-06 -8.5765386e-19)
(0.25132937 6.8565347e-06 -4.7638707e-19)
(0.23575038 1.0705191e-05 -2.6579785e-19)
(0.21530524 8.845336e-06 -1.2510835e-19)
(0.18080244 4.1236902e-06 -4.9000104e-20)
(0.30082185 -2.9094818e-05 -1.9162289e-19)
(0.29863176 -6.133211e-05 8.1172547e-19)
(0.29338823 -5.9566999e-05 -4.2799878e-20)
(0.28537718 -3.6522424e-05 -8.4747688e-19)
(0.27546383 -1.1417072e-05 -7.9950458e-19)
(0.26410765 5.6165229e-06 -8.8139263e-19)
(0.2511654 1.3623405e-05 -5.2649027e-19)
(0.23574182 1.4219773e-05 -1.9569648e-19)
(0.21542012 1.0355025e-05 -1.5597672e-20)
(0.1809852 4.52645e-06 1.3838202e-19)
(0.30193375 -2.3108617e-05 3.008987e-18)
(0.29927338 -4.6684514e-05 1.5120736e-18)
(0.29340603 -3.9091477e-05 -4.2614755e-19)
(0.28507546 -1.7047622e-05 6.4495662e-19)
(0.27512088 3.0836051e-06 1.38559e-18)
(0.26386444 1.513996e-05 5.9806721e-19)
(0.25106782 1.9209537e-05 1.7166667e-20)
(0.2357854 1.7094511e-05 -2.9183287e-20)
(0.2155712 1.1580767e-05 -7.1102924e-20)
(0.18118948 4.847789e-06 -2.9401433e-20)
(0.3027611 -1.5976792e-05 -1.0172319e-18)
(0.29965287 -3.0772983e-05 -4.0188692e-19)
(0.29329055 -1.9436233e-05 -7.9431038e-19)
(0.2847612 1.675469e-07 -8.5829988e-19)
(0.27482456 1.5440306e-05 6.2994549e-19)
(0.26368339 2.3071024e-05 1.9642349e-19)
(0.25102649 2.3801897e-05 4.1286601e-19)
(0.23587241 1.9433928e-05 3.7254083e-20)
(0.215752 1.2564704e-05 -2.2397134e-20)
(0.18141108 5.0989268e-06 9.6547858e-20)
(0.30327133 -8.1277874e-06 4.8902063e-19)
(0.29978734 -1.4486051e-05 1.8333414e-18)
(0.29307477 -1.3055624e-06 -4.4882395e-19)
(0.28444918 1.5039176e-05 -3.1127788e-19)
(0.27457433 2.5803588e-05 -8.8524689e-19)
(0.26355615 2.9613221e-05 -4.8199147e-19)
(0.25103262 2.7544274e-05 -1.6186322e-19)
(0.23599544 2.1310983e-05 -3.7511949e-20)
(0.21595698 1.3335756e-05 -6.8835933e-20)
(0.1816463 5.2872783e-06 3.2397095e-20)
(0.30345395 -2.4235065e-07 -3.7501804e-20)
(0.29970263 1.132857e-06 1.3039764e-18)
(0.29278637 1.4662144e-05 6.0460676e-20)
(0.28414893 2.7525503e-05 -5.0519706e-19)
(0.2743656 3.4336464e-05 -6.5205116e-19)
(0.26347496 3.4929692e-05 -1.2412736e-19)
(0.25107852 3.0535952e-05 -8.4450411e-20)
(0.23614811 2.27741e-05 2.6393556e-20)
(0.2161813 1.3912577e-05 -6.1700222e-20)
(0.18189181 5.417167e-06 2.2894904e-20)
(0.30332512 6.8808494e-06 -4.2400714e-18)
(0.29943294 1.4984694e-05 -1.9910011e-18)
(0.29244689 2.7993802e-05 -9.5841626e-19)
(0.28386232 3.7676516e-05 -2.1543621e-18)
(0.27419303 4.1187067e-05 -9.371768e-19)
(0.26343257 3.9127981e-05 -6.3175295e-19)
(0.2511573 3.2836283e-05 -3.9001184e-20)
(0.23632475 2.3849468e-05 6.3618339e-20)
(0.21642058 1.4303126e-05 1.1633557e-19)
(0.18214445 5.4892655e-06 1.6086166e-19)
(0.3029305 1.2606661e-05 6.3916056e-19)
(0.29901531 2.6252473e-05 -1.4745454e-18)
(0.29206923 3.8507618e-05 -1.1386636e-18)
(0.28358876 4.5589568e-05 3.2149161e-19)
(0.27405096 4.6451921e-05 2.7591303e-19)
(0.2634222 4.2267047e-05 1.9886782e-19)
(0.25126272 3.447259e-05 9.082618e-20)
(0.23652016 2.454419e-05 6.0239646e-20)
(0.21667065 1.4505457e-05 1.8181633e-19)
(0.18240108 5.5007318e-06 6.4377891e-20)
(0.30233163 1.6685716e-05 7.3812679e-19)
(0.29848532 3.460016e-05 -3.1404239e-19)
(0.29166293 4.6230804e-05 -2.9476057e-19)
(0.28332652 5.1359706e-05 3.3868205e-19)
(0.27393381 5.0194648e-05 6.2008712e-20)
(0.26343754 4.4378088e-05 4.72476e-19)
(0.25138894 3.5452467e-05 3.7716587e-19)
(0.23672934 2.4853233e-05 9.5467439e-20)
(0.21692739 1.451151e-05 1.5430447e-19)
(0.18265838 5.4467756e-06 9.3366305e-20)
(0.30159325 1.9181418e-05 1.9009248e-18)
(0.29787658 4.0083222e-05 2.8407304e-18)
(0.29123636 5.1325998e-05 3.7632034e-19)
(0.28307383 5.5101789e-05 -2.1287371e-20)
(0.27383648 5.2476778e-05 -4.5193864e-19)
(0.26347281 4.5485603e-05 9.9799914e-21)
(0.25153052 3.5777752e-05 -2.0312965e-19)
(0.23694749 2.476857e-05 -1.9742737e-20)
(0.21718659 1.4312379e-05 -1.5223026e-20)
(0.18291288 5.3227611e-06 -1.6649405e-20)
(0.30077409 2.0343257e-05 1.819551e-19)
(0.29721995 4.3028467e-05 3.1609816e-19)
(0.29079789 5.4061754e-05 -8.3441126e-19)
(0.28282962 5.6973277e-05 -4.3338683e-19)
(0.27375459 5.3380742e-05 -6.4771645e-19)
(0.2635228 4.5625632e-05 -6.0444512e-19)
(0.25168236 3.545824e-05 -3.6935141e-19)
(0.23716991 2.4288449e-05 -3.2441712e-20)
(0.21744401 1.3903647e-05 -3.0447375e-20)
(0.1831609 5.1262209e-06 -1.6325953e-22)
(0.29992227 2.0483315e-05 -3.1542998e-18)
(0.29654264 4.3897908e-05 -3.128497e-18)
(0.29035627 5.4779257e-05 -1.7074117e-18)
(0.28259385 5.7180233e-05 -1.9424156e-18)
(0.27368475 5.302256e-05 -1.0260051e-18)
(0.26358307 4.4858536e-05 -7.691802e-19)
(0.25183983 3.452209e-05 -1.5129989e-19)
(0.2373921 2.3424488e-05 -7.5393088e-20)
(0.21769542 1.328929e-05 1.1752656e-19)
(0.18339878 4.8581074e-06 1.3702784e-19)
(0.2990743 1.9896621e-05 3.0029121e-18)
(0.29586751 4.3178899e-05 -1.6683783e-19)
(0.28992025 5.3854385e-05 3.458504e-19)
(0.28236753 5.5968636e-05 4.4577834e-19)
(0.27362457 5.1553775e-05 1.0259269e-18)
(0.2636499 4.327438e-05 6.264294e-19)
(0.25199879 3.3021232e-05 1.9441479e-19)
(0.2376099 2.2205645e-05 -4.4729057e-20)
(0.21793685 1.2483988e-05 -4.8379746e-20)
(0.183623 4.5235329e-06 -3.1192973e-20)
(0.29825622 1.8826411e-05 9.2530075e-20)
(0.29521269 4.1316655e-05 7.1021681e-19)
(0.28949802 5.1661904e-05 -2.0776259e-19)
(0.28215239 5.3606609e-05 -4.5369169e-19)
(0.27357257 4.9154135e-05 3.3918153e-19)
(0.26372036 4.0990649e-05 -1.2554262e-19)
(0.25215571 3.1031054e-05 -1.0226844e-19)
(0.23781958 2.0678411e-05 -1.7569946e-19)
(0.21816469 1.1513269e-05 -1.3519984e-19)
(0.18383049 4.1317604e-06 -1.9131821e-20)
(0.29748549 1.7458316e-05 1.5019605e-18)
(0.29459171 3.8684344e-05 3.9799561e-18)
(0.28909673 4.8548498e-05 4.330779e-19)
(0.28195055 5.0364664e-05 -3.4962237e-20)
(0.273528 4.6019263e-05 -1.0687789e-18)
(0.26379223 3.8144743e-05 -4.85047e-19)
(0.25230768 2.8645791e-05 -6.8894495e-19)
(0.238018 1.8903986e-05 -2.6664098e-19)
(0.2183759 1.0411961e-05 -8.1715226e-20)
(0.18401872 3.6956657e-06 -1.0346325e-19)
(0.29677295 1.5927824e-05 1.3961861e-18)
(0.29401399 3.5577877e-05 2.4665242e-18)
(0.28872211 4.4816949e-05 9.119027e-19)
(0.28176413 4.6498954e-05 9.3763981e-19)
(0.27349054 4.2347292e-05 -4.8925007e-19)
(0.26386387 3.4884059e-05 -8.3343278e-20)
(0.2524524 2.5971386e-05 -4.5067372e-20)
(0.23820263 1.6953507e-05 4.9845545e-20)
(0.21856815 9.2215433e-06 -6.1577805e-20)
(0.18418592 3.2309276e-06 -6.4617514e-20)
(0.2961245 1.4330984e-05 -2.9028125e-18)
(0.29348541 3.2222775e-05 -1.9420692e-18)
(0.28837834 4.0719537e-05 2.2391016e-19)
(0.2815949 4.223913e-05 -1.1432292e-18)
(0.27346016 3.8326571e-05 5.8498222e-20)
(0.26393412 3.1355259e-05 -1.6170399e-19)
(0.25258814 2.3116813e-05 2.497214e-19)
(0.23837164 1.4901633e-05 1.0056542e-19)
(0.21873986 7.9860683e-06 1.5918123e-20)
(0.18433109 2.7543645e-06 4.8159067e-20)
(0.29554247 1.273457e-05 3.9380156e-18)
(0.29300905 2.878594e-05 9.2722377e-19)
(0.28806807 3.6458553e-05 9.6580952e-19)
(0.28144413 3.7781835e-05 1.5565471e-18)
(0.27343684 3.412679e-05 1.7331574e-18)
(0.26400214 2.769541e-05 1.0390165e-18)
(0.25271368 2.0186327e-05 3.0919754e-19)
(0.23852382 1.2820581e-05 1.681149e-19)
(0.2188902 6.7483621e-06 6.6329059e-20)
(0.18445401 2.2824192e-06 -8.2978623e-20)
(0.29502662 1.1183977e-05 2.7368584e-18)
(0.29258576 2.5387473e-05 1.4624927e-18)
(0.28779256 3.2190438e-05 4.809369e-19)
(0.28131251 3.3288271e-05 1.4470709e-18)
(0.2734205 2.9893176e-05 1.1554187e-18)
(0.26406732 2.4025135e-05 8.2030565e-19)
(0.25282825 1.7272947e-05 4.8411775e-19)
(0.23865857 1.0774819e-05 2.833655e-19)
(0.21901906 5.546405e-06 1.2304598e-19)
(0.18455518 1.8295436e-06 9.2095356e-20)
(0.29457494 9.7090968e-06 2.8543155e-18)
(0.29221473 2.2111099e-05 3.7620711e-18)
(0.28755189 2.8031774e-05 1.0495645e-18)
(0.28120013 2.8885007e-05 5.6565737e-19)
(0.2734109 2.5743948e-05 1.4186967e-19)
(0.2641292 2.0444586e-05 5.28435e-19)
(0.25293144 1.4454246e-05 5.8052555e-20)
(0.23877583 8.8175374e-06 1.3123533e-19)
(0.21912696 4.4108755e-06 7.2232081e-20)
(0.18463572 1.4070613e-06 8.5639382e-20)
(0.29418422 8.328728e-06 4.785657e-18)
(0.29189394 1.9012947e-05 3.2260004e-18)
(0.28734521 2.4066003e-05 2.3437931e-18)
(0.28110654 2.4667125e-05 2.1310218e-18)
(0.27340763 2.1770675e-05 1.8344016e-18)
(0.26418745 1.7032331e-05 1.1115251e-18)
(0.25302315 1.1790794e-05 4.9328511e-19)
(0.23887598 6.9893496e-06 1.7931401e-19)
(0.21921493 3.36436e-06 3.9982115e-20)
(0.18469718 1.0229071e-06 -1.1537497e-19)
(0.29385048 7.0536305e-06 2.1339861e-18)
(0.29162057 1.6128335e-05 1.2903963e-18)
(0.28717092 2.0349674e-05 4.8757794e-18)
(0.28103084 2.0702267e-05 3.1385109e-18)
(0.27341015 1.8040223e-05 1.9835601e-18)
(0.26424179 1.3846012e-05 1.3149999e-18)
(0.25310353 9.3262949e-06 1.203866e-18)
(0.23895976 5.3183712e-06 5.2853456e-19)
(0.21928435 2.4214606e-06 4.3668614e-19)
(0.18474142 6.8171388e-07 1.2472776e-19)
(0.29356933 5.888885e-06 -6.3478677e-19)
(0.29139122 1.3477268e-05 9.2530458e-19)
(0.28702694 1.6918279e-05 2.980644e-18)
(0.28097182 1.7035347e-05 3.4529489e-18)
(0.27341776 1.4598071e-05 2.0274644e-18)
(0.26429202 1.0924664e-05 1.3916584e-18)
(0.25317294 7.0893637e-06 1.117356e-18)
(0.23902819 3.8217134e-06 7.8992747e-19)
(0.21933689 1.5899703e-06 6.538206e-19)
(0.18477049 3.8545036e-07 3.2559245e-19)
(0.29333614 4.8356223e-06 -1.1490463e-18)
(0.29120222 1.1068723e-05 1.5072649e-19)
(0.28691085 1.3791342e-05 1.917646e-18)
(0.28092802 1.3693232e-05 4.0688178e-18)
(0.27342972 1.1472163e-05 3.7833454e-18)
(0.264338 8.2918586e-06 1.8080033e-18)
(0.2532319 5.0961529e-06 1.2483413e-18)
(0.23908247 2.5076789e-06 1.0408705e-18)
(0.21937436 8.7257899e-07 8.1675827e-19)
(0.18478646 1.3428862e-07 6.092013e-19)
(0.29314624 3.8921548e-06 1.5534328e-18)
(0.29104974 8.9036562e-06 1.6490489e-18)
(0.28682001 1.0976259e-05 2.7228779e-18)
(0.28089784 1.0688518e-05 3.3674897e-18)
(0.27344523 8.6761264e-06 3.6584828e-18)
(0.26437967 5.9582592e-06 2.6463066e-18)
(0.25328103 3.3521788e-06 1.8158463e-18)
(0.23912392 1.3767857e-06 1.339434e-18)
(0.21939864 2.7290451e-07 9.6221041e-19)
(0.1847914 -6.9035221e-08 6.8076457e-19)
(0.29299502 3.0547728e-06 1.2820499e-18)
(0.29092994 6.9770741e-06 1.8394577e-18)
(0.28675173 8.4709917e-06 9.3903331e-19)
(0.28087961 8.0221805e-06 7.4832949e-19)
(0.27346349 6.2114727e-06 2.0034964e-18)
(0.264417 3.9233934e-06 2.1726749e-18)
(0.25332108 1.8545722e-06 1.786159e-18)
(0.23915392 4.2913573e-07 1.3403611e-18)
(0.21941124 -2.1360561e-07 7.8278039e-19)
(0.18478766 -2.2834078e-07 5.9933524e-19)
(0.29287806 2.3183879e-06 2.281719e-18)
(0.29083904 5.2798315e-06 2.6774444e-18)
(0.2867033 6.2666944e-06 2.823505e-18)
(0.28087166 5.6865957e-06 6.7629533e-19)
(0.27348374 4.0707958e-06 3.1267695e-19)
(0.26445003 2.1795954e-06 1.8808117e-18)
(0.25335275 5.9919617e-07 1.6297383e-18)
(0.23917356 -3.4370926e-07 1.3183996e-18)
(0.21941461 -6.0473682e-07 1.1041316e-18)
(0.18477678 -3.5434534e-07 7.9763047e-19)
(0.29279111 1.6771188e-06 1.2832449e-18)
(0.29077345 3.8002233e-06 2.2124138e-18)
(0.28667209 4.3501341e-06 1.9306925e-18)
(0.28087236 3.6686336e-06 1.4700787e-18)
(0.27350524 2.2418633e-06 9.8462226e-19)
(0.26447878 7.1821452e-07 1.6749547e-18)
(0.2533766 -4.2785515e-07 1.6381916e-18)
(0.23918484 -9.6436501e-07 1.466219e-18)
(0.21941035 -9.1397985e-07 1.2671443e-18)
(0.18476024 -4.5162109e-07 9.0080609e-19)
(0.2927302 1.1246369e-06 1.6841035e-19)
(0.29072973 2.5249097e-06 2.141418e-18)
(0.28665558 2.70522e-06 3.1136829e-18)
(0.28088013 1.9522429e-06 4.1784418e-18)
(0.27352726 7.1176411e-07 3.3063831e-18)
(0.26450319 -4.7924761e-07 1.7439263e-18)
(0.25339401 -1.254215e-06 1.6030463e-18)
(0.23918903 -1.4520659e-06 1.4830791e-18)
(0.21939991 -1.1478587e-06 1.2578357e-18)
(0.18473941 -5.217781e-07 1.0647629e-18)
(0.29269161 6.5435834e-07 3.0440872e-18)
(0.29070465 1.4398048e-06 3.3965111e-18)
(0.28665138 1.315476e-06 3.8663322e-18)
(0.28089348 5.2164975e-07 3.8600188e-18)
(0.27354904 -5.4193776e-07 2.9738515e-18)
(0.26452391 -1.4442571e-06 2.0136374e-18)
(0.25340578 -1.9042873e-06 1.7543241e-18)
(0.23918731 -1.8199153e-06 1.4242094e-18)
(0.21938462 -1.3134461e-06 1.2744824e-18)
(0.18471555 -5.6740751e-07 1.0953702e-18)
(0.29267189 2.6013572e-07 1.7442974e-18)
(0.29069521 5.3182465e-07 1.789286e-18)
(0.28665722 1.635191e-07 -9.5922338e-20)
(0.28091095 -6.4880048e-07 1.0297653e-18)
(0.27357051 -1.5530148e-06 2.3336411e-18)
(0.26454119 -2.2047103e-06 2.1587333e-18)
(0.25341265 -2.3962145e-06 2.0762574e-18)
(0.23918075 -2.0809943e-06 1.7531691e-18)
(0.21936572 -1.4193211e-06 1.4005047e-18)
(0.18468977 -5.9188585e-07 1.0651388e-18)
(0.29266785 -6.4584969e-08 1.3510854e-18)
(0.29069859 -2.1500799e-07 8.1196319e-19)
(0.28667108 -7.7598366e-07 1.9219517e-18)
(0.28093165 -1.5921315e-06 8.7149275e-19)
(0.27359126 -2.3503424e-06 1.2875733e-18)
(0.26455525 -2.7820919e-06 2.5000612e-18)
(0.25341533 -2.7478856e-06 2.0959735e-18)
(0.23917036 -2.2493389e-06 1.8412541e-18)
(0.21934425 -1.4745365e-06 1.7184943e-18)
(0.18466298 -5.9877239e-07 1.1997272e-18)
(0.29267662 -3.2787879e-07 2.3469689e-18)
(0.29071238 -8.2004878e-07 2.5011276e-18)
(0.28669131 -1.529689e-06 2.7347414e-18)
(0.28095458 -2.3340241e-06 1.6358318e-18)
(0.27361098 -2.9563805e-06 1.2585354e-18)
(0.26456636 -3.1973927e-06 1.5886337e-18)
(0.25341451 -2.9776945e-06 1.5945671e-18)
(0.23915704 -2.3388669e-06 1.5725166e-18)
(0.21932115 -1.4877436e-06 1.5033998e-18)
(0.18463597 -5.9141039e-07 1.1955878e-18)
(0.29269571 -5.3718358e-07 6.8581903e-19)
(0.29073444 -1.2998392e-06 3.0649399e-18)
(0.28671637 -2.1178742e-06 2.3775269e-18)
(0.28097885 -2.8961419e-06 2.1255343e-18)
(0.27362942 -3.3932833e-06 1.4225151e-18)
(0.26457479 -3.4716091e-06 1.2352428e-18)
(0.25341079 -3.1034376e-06 1.5152277e-18)
(0.23914159 -2.3626016e-06 1.5384085e-18)
(0.21929721 -1.4668261e-06 1.4783625e-18)
(0.18460935 -5.7278662e-07 1.1824984e-18)
(0.29272287 -6.9843015e-07 7.0293269e-19)
(0.29076284 -1.6681358e-06 2.1405475e-18)
(0.28674488 -2.5589501e-06 2.1791758e-18)
(0.28100373 -3.2995924e-06 1.6391951e-18)
(0.27364641 -3.6827358e-06 9.4419268e-19)
(0.26458082 -3.6248224e-06 1.3293554e-18)
(0.25340478 -3.1417188e-06 1.6057267e-18)
(0.23912472 -2.3323985e-06 1.5701214e-18)
(0.21927309 -1.4187766e-06 1.3898244e-18)
(0.18458363 -5.4548692e-07 1.1942247e-18)
(0.29275614 -8.1722502e-07 1.6538444e-18)
(0.2907959 -1.9379342e-06 1.2236746e-18)
(0.28677566 -2.8706113e-06 3.1716206e-18)
(0.28102858 -3.564721e-06 1.8887537e-18)
(0.27366185 -3.8453824e-06 2.4235465e-18)
(0.26458474 -3.6758249e-06 1.0785118e-18)
(0.253397 -3.107779e-06 1.4792293e-18)
(0.23910704 -2.2589016e-06 1.4937132e-18)
(0.21924932 -1.3497129e-06 1.1083249e-18)
(0.18455917 -5.1171644e-07 1.0569785e-18)
(0.29279378 -8.9884305e-07 8.254744e-19)
(0.29083214 -2.1215361e-06 2.8300758e-18)
(0.28680767 -3.0696999e-06 3.8510781e-18)
(0.2810529 -3.7108121e-06 2.5202757e-18)
(0.27367568 -3.9005735e-06 2.2716284e-18)
(0.26458683 -3.6419652e-06 1.8388143e-18)
(0.25338791 -3.0154332e-06 1.6186683e-18)
(0.23908904 -2.1515525e-06 1.4865611e-18)
(0.21922634 -1.2649174e-06 1.5366052e-18)
(0.18453626 -4.7332726e-07 1.149189e-18)
(0.29283427 -9.4827952e-07 3.1777226e-19)
(0.29087026 -2.2306035e-06 2.9086793e-18)
(0.28684006 -3.1721723e-06 9.3975402e-19)
(0.28107627 -3.7560289e-06 2.4475297e-18)
(0.27368788 -3.8663508e-06 2.22733e-18)
(0.26458737 -3.539209e-06 2.2897021e-18)
(0.25337794 -2.8772034e-06 1.7843226e-18)
(0.23907117 -2.0187805e-06 1.6273976e-18)
(0.21920448 -1.169046e-06 1.6047221e-18)
(0.18451509 -4.3195401e-07 1.2191574e-18)
(0.2928763 -9.7020256e-07 1.4150744e-18)
(0.29090918 -2.2760648e-06 6.8085165e-19)
(0.28687209 -3.1929625e-06 1.3485865e-18)
(0.28109838 -3.7172635e-06 1.7787402e-18)
(0.2736985 -3.7593158e-06 1.7726253e-18)
(0.26458662 -3.3820468e-06 2.0221547e-18)
(0.25336745 -2.7042844e-06 1.8789913e-18)
(0.23905377 -1.8680031e-06 1.6941458e-18)
(0.21918399 -1.0661224e-06 1.4776368e-18)
(0.18449579 -3.8899346e-07 1.2169428e-18)
(0.29291876 -9.6899997e-07 1.7782794e-18)
(0.29094798 -2.2681704e-06 -1.8488692e-19)
(0.28690318 -3.1460148e-06 4.5613137e-19)
(0.28111899 -3.6101666e-06 9.3847149e-19)
(0.27370758 -3.5946874e-06 5.7404516e-19)
(0.26458481 -3.1835967e-06 1.8313778e-18)
(0.25335673 -2.5066772e-06 1.8669103e-18)
(0.23903712 -1.7057754e-06 1.7313871e-18)
(0.21916505 -9.5969197e-07 1.572027e-18)
(0.18447841 -3.4570098e-07 1.3225281e-18)
(0.29296074 -9.4872159e-07 2.3781747e-18)
(0.29098589 -2.2163947e-06 2.6886917e-18)
(0.28693286 -3.0441628e-06 3.6314535e-18)
(0.28113794 -3.4490161e-06 2.0694946e-18)
(0.2737152 -3.3861761e-06 2.0405263e-18)
(0.26458216 -2.9554991e-06 1.3343924e-18)
(0.25334606 -2.2931097e-06 1.6135236e-18)
(0.23902141 -1.5377215e-06 1.6614556e-18)
(0.21914777 -8.5274758e-07 1.5051312e-18)
(0.18446298 -3.0312312e-07 1.3178779e-18)
(0.29300148 -9.13091e-07 1.3656027e-18)
(0.29102232 -2.1294326e-06 4.1836098e-18)
(0.28696078 -2.8991082e-06 5.2539454e-18)
(0.28115514 -3.2466945e-06 2.8881195e-18)
(0.27372147 -3.1459779e-06 2.0930263e-18)
(0.26457888 -2.7079293e-06 1.6947828e-18)
(0.25333564 -2.071062e-06 1.5914418e-18)
(0.23900682 -1.3685574e-06 1.6993622e-18)
(0.21913221 -7.4774747e-07 1.6032773e-18)
(0.18444945 -2.6210386e-07 1.2834814e-18)
(0.29304039 -8.6548126e-07 5.9372581e-19)
(0.29105678 -2.0151535e-06 2.2017472e-18)
(0.28698668 -2.7213616e-06 -7.1101978e-20)
(0.28117053 -3.0146265e-06 1.8420522e-18)
(0.27372649 -2.8847253e-06 2.2679835e-18)
(0.26457515 -2.4495732e-06 2.5251275e-18)
(0.25332565 -1.8467536e-06 1.8725404e-18)
(0.23899343 -1.2020769e-06 1.8367163e-18)
(0.21911838 -6.465918e-07 1.5484277e-18)
(0.18443775 -2.2325935e-07 1.3283143e-18)
(0.293077 -8.0890327e-07 1.3293597e-18)
(0.29108895 -1.8805695e-06 1.4736073e-18)
(0.28701039 -2.5202043e-06 1.2775059e-19)
(0.28118414 -2.7627572e-06 1.312513e-18)
(0.27373039 -2.6114932e-06 2.1917392e-18)
(0.26457113 -2.1876554e-06 2.5395258e-18)
(0.2533162 -1.6251872e-06 2.1011187e-18)
(0.23898131 -1.0411943e-06 1.8603155e-18)
(0.21910625 -5.5064392e-07 1.7235687e-18)
(0.1844278 -1.8697964e-07 1.4485818e-18)
(0.293111 -7.4601817e-07 2.5707652e-18)
(0.29111856 -1.7318594e-06 1.428121e-18)
(0.28703183 -2.3037256e-06 1.2997967e-18)
(0.28119601 -2.4996136e-06 1.3661431e-18)
(0.27373329 -2.3338962e-06 1.0128218e-18)
(0.26456695 -1.9280702e-06 1.5609853e-18)
(0.25330741 -1.4102921e-06 1.8855051e-18)
(0.23897048 -8.8807183e-07 1.7003398e-18)
(0.21909576 -4.6082324e-07 1.5937411e-18)
(0.18441948 -1.5348038e-07 1.3777904e-18)
(0.29314214 -6.7914548e-07 1.985355e-18)
(0.29114548 -1.5743903e-06 1.6200405e-18)
(0.28705096 -2.0788731e-06 3.418644e-18)
(0.28120619 -2.2323955e-06 2.2890762e-18)
(0.27373531 -2.0582157e-06 2.1796328e-18)
(0.26456274 -1.6755345e-06 1.0968409e-18)
(0.25329933 -1.2050842e-06 1.4339461e-18)
(0.23896092 -7.4426674e-07 1.4209089e-18)
(0.21908682 -3.7771287e-07 1.153025e-18)
(0.18441267 -1.2285525e-07 1.1376355e-18)
(0.29317032 -6.1028308e-07 1.570309e-18)
(0.29116964 -1.4127675e-06 1.6802714e-18)
(0.2870678 -1.851534e-06 4.1120025e-18)
(0.28121479 -1.9670965e-06 2.8777138e-18)
(0.27373657 -1.7895598e-06 2.3324721e-18)
(0.26455857 -1.4337654e-06 2.1655884e-18)
(0.253292 -1.0118383e-06 1.6533091e-18)
(0.2389526 -6.1087519e-07 1.5955479e-18)
(0.21907934 -3.0166653e-07 1.5637336e-18)
(0.18440722 -9.513509e-08 1.2183071e-18)
(0.29319547 -5.4113945e-07 8.1213528e-19)
(0.29119103 -1.2509108e-06 2.2250884e-18)
(0.28708242 -1.6266514e-06 3.8726248e-19)
(0.28122192 -1.7086563e-06 2.2294047e-18)
(0.27373718 -1.5320369e-06 2.1421227e-18)
(0.26455454 -1.2056605e-06 2.2818987e-18)
(0.25328544 -8.3225475e-07 2.0039402e-18)
(0.23894548 -4.8866874e-07 1.8178421e-18)
(0.21907322 -2.3290302e-07 1.7445513e-18)
(0.18440302 -7.0330918e-08 1.3532885e-18)
(0.29321763 -4.7314426e-07 1.3979903e-18)
(0.2912097 -1.092091e-06 2.3527443e-18)
(0.28709491 -1.4082977e-06 1.1296348e-18)
(0.28122768 -1.4610599e-06 1.6134451e-18)
(0.27373724 -1.2888658e-06 1.9688049e-18)
(0.2645507 -9.9340003e-07 2.0407238e-18)
(0.25327965 -6.6753796e-07 1.8833606e-18)
(0.23893949 -3.7813851e-07 1.8106514e-18)
(0.21906834 -1.7152797e-07 1.6607039e-18)
(0.18439992 -4.8439578e-08 1.3288587e-18)
(0.29323685 -4.0747256e-07 2.4512686e-18)
(0.29122576 -9.3898832e-07 8.693322e-19)
(0.28710539 -1.1997537e-06 8.2250393e-19)
(0.2812322 -1.227436e-06 6.7766062e-19)
(0.27373686 -1.0624782e-06 1.012868e-18)
(0.2645471 -7.9853262e-07 1.4538227e-18)
(0.25327461 -5.1845391e-07 1.6969181e-18)
(0.23893454 -2.7952264e-07 1.6004221e-18)
(0.21906457 -1.1753574e-07 1.5448176e-18)
(0.1843978 -2.9431352e-08 1.3035533e-18)
(0.29325328 -3.4506194e-07 -3.7737767e-19)
(0.29123934 -7.9373053e-07 1.3302127e-18)
(0.28711401 -1.003567e-06 2.3352387e-18)
(0.28123562 -1.0101203e-06 1.5538592e-18)
(0.27373611 -8.5457324e-07 1.5713244e-18)
(0.26454376 -6.2201211e-07 4.4973466e-19)
(0.25327028 -3.8533917e-07 1.3494038e-18)
(0.23893055 -1.9279263e-07 1.4310404e-18)
(0.2190618 -7.079386e-08 1.2423609e-18)
(0.18439652 -1.3236275e-08 1.1921126e-18)