/*--------------------------------*- C++ -*----------------------------------*\
| =========                 |                                                 |
| \\      /  F ield         | OpenFOAM: The Open Source CFD Toolbox           |
|  \\    /   O peration     | Version:  2506                                  |
|   \\  /    A nd           | Website:  www.openfoam.com                      |
|    \\/     M anipulation  |                                                 |
\*---------------------------------------------------------------------------*/
FoamFile
{
    version     2.0;
    format      ascii;
    arch        "LSB;label=32;scalar=64";
    class       volScalarField;
    location    "4000/rock";
    object      T;
}
// * * * * * * * * * * * * * * * * * * * * * * * * * * * * * * * * * * * * * //

dimensions      [0 0 0 1 0 0 0];

internalField   nonuniform List<scalar> 
6000
(
315.48714
304.40733
298.7135
295.31035
293.07477
291.5088
290.35976
289.4865
288.80434
288.25956
287.81653
287.45078
287.14499
286.88656
286.66614
286.47668
286.31273
286.17005
286.04527
285.9357
285.83915
285.75383
285.67823
285.61109
285.5513
285.49785
285.44979
285.40611
285.3656
285.32648
319.10021
308.31031
302.14114
298.23504
295.58301
293.68737
292.2779
291.19688
290.34682
289.66457
289.10763
288.64646
288.25994
287.93265
287.65306
287.4124
287.20392
287.0223
286.86335
286.72368
286.60055
286.4917
286.39524
286.30958
286.23333
286.16527
286.10424
286.04911
285.99868
285.95159
320.90233
310.8574
304.71658
300.62495
297.74443
295.63218
294.03268
292.78939
291.80185
291.00313
290.34716
289.80136
289.34214
288.95204
288.6179
288.32965
288.07947
287.8612
287.66991
287.50165
287.35319
287.22187
287.10546
287.00209
286.91015
286.82822
286.75503
286.6894
286.63019
286.57638
321.99513
312.62489
306.67795
302.56923
299.58753
297.34785
295.61978
294.25681
293.16178
292.26805
291.52871
290.9099
290.38671
289.94049
289.557
289.22525
288.93662
288.6843
288.4628
288.26769
288.09535
287.94277
287.80746
287.68731
287.58051
287.48551
287.40095
287.3256
287.2584
287.19844
322.75117
313.93046
308.21305
304.16561
301.1595
298.85523
297.04682
295.60034
294.42477
293.45621
292.64871
291.96849
291.39028
290.8949
290.46754
290.09664
289.77307
289.48953
289.24013
289.02009
288.82546
288.65298
288.49992
288.36398
288.24321
288.13595
288.04074
287.95634
287.8817
287.81597
323.32018
314.94597
309.45034
305.49625
302.50877
300.18133
298.32796
296.82667
295.5933
294.56775
293.70607
292.97542
292.35087
291.81322
291.34751
290.94191
290.587
290.2752
290.00034
289.75738
289.54216
289.3512
289.1816
289.03093
288.8971
288.77836
288.67319
288.58033
288.4987
288.42745
323.77279
315.7682
310.4747
306.62392
303.67781
301.35325
299.47977
297.94546
296.67262
295.60519
294.70162
293.9305
293.26768
292.69434
292.19562
291.75969
291.37705
291.03997
290.74214
290.47834
290.24426
290.0363
289.85142
289.68707
289.5411
289.41166
289.29719
289.19638
289.10815
289.03161
324.1469
316.4548
311.34243
307.59494
304.70126
302.39543
300.51875
298.96747
297.66948
296.57252
295.63754
294.83473
294.14093
293.53795
293.01126
292.54921
292.14233
291.7829
291.46454
291.18196
290.93078
290.7073
290.50839
290.33145
290.17423
290.03485
289.9117
289.80345
289.70896
289.62734
324.46496
317.04204
312.09171
308.44322
305.60654
303.32872
301.46008
299.90338
298.59119
297.4746
296.51689
295.68989
294.97156
294.34439
293.79436
293.3101
292.8823
292.50332
292.16682
291.8675
291.60093
291.36338
291.1517
290.96321
290.79564
290.64706
290.51584
290.40059
290.30019
290.21368
324.7412
317.55389
312.74909
309.19375
306.41508
304.17041
302.31713
300.76318
299.445
298.31654
297.34321
296.49835
295.76101
295.1145
294.5453
294.04242
293.59678
293.2009
292.84851
292.53438
292.25409
292.0039
291.78065
291.58164
291.40459
291.24752
291.1088
290.98701
290.881
290.78981
324.98518
318.00685
313.3335
309.86515
307.14361
304.93464
303.10135
301.55586
300.23778
299.10347
298.1202
297.26272
296.51112
295.84945
295.26479
294.74651
294.28585
293.87551
293.50936
293.18225
292.88981
292.62834
292.39469
292.18615
292.00044
291.83558
291.68991
291.56201
291.45071
291.355
325.20353
318.41267
313.85883
310.47148
307.80522
305.63294
303.82246
302.28932
300.97579
299.84025
298.85159
297.98578
297.22387
296.55065
295.95375
295.42296
294.94983
294.52726
294.14931
293.81092
293.50782
293.23635
292.99339
292.77627
292.58269
292.41069
292.25861
292.12501
292.00869
291.90867
325.40104
318.77996
314.33543
311.02356
308.41028
306.27469
304.48859
302.97044
301.66467
300.53142
299.54093
298.67026
297.90135
297.21964
296.6133
296.07253
295.58918
295.15641
294.76844
294.42035
294.10796
293.82769
293.57646
293.35163
293.15094
292.97242
292.81442
292.67551
292.55448
292.4503
325.58126
319.11518
314.77124
311.52979
308.96702
306.86753
305.10661
303.60514
302.30943
301.1811
300.19156
299.31885
298.54564
297.85802
297.24463
296.69608
296.20452
295.76334
295.36696
295.0106
294.69019
294.40222
294.14369
293.91199
293.70488
293.52044
293.357
293.21314
293.08765
292.97951
325.74689
319.4233
315.1724
311.9968
309.48209
307.41778
305.68223
304.19849
302.91446
301.79301
300.80659
299.93406
299.15878
298.4674
297.849
297.29456
296.79654
296.34855
295.9452
295.58187
295.25458
294.95993
294.69498
294.45717
294.2443
294.05448
293.88605
293.73759
293.60791
293.49597
325.90002
319.70823
315.54378
312.42992
309.96086
307.93062
306.22031
304.75487
303.48359
302.37047
301.38883
300.51825
299.74271
299.04934
298.42766
297.86896
297.36599
296.9126
296.50356
296.13441
295.80129
295.50088
295.23032
294.98711
294.76909
294.57438
294.40138
294.24866
294.11503
293.99944
326.04232
319.97304
315.88927
312.83344
310.40775
308.41037
306.72492
305.27801
304.02021
302.91645
301.94084
301.0736
300.29926
299.60538
298.98184
298.42028
297.91367
297.4561
297.0425
296.66855
296.33052
296.02519
295.74976
295.50179
295.27917
295.08007
294.90287
294.74619
294.60884
294.48978
326.17515
320.22026
316.21205
313.21088
310.82641
308.86065
307.19951
305.77116
304.52724
303.43357
302.46493
301.60213
300.83014
300.13695
299.51277
298.9495
298.44039
297.97968
297.56251
297.18468
296.84257
296.53306
296.25343
296.00129
295.77458
295.5715
295.39047
295.23012
295.08927
294.96688
326.2996
320.45192
316.51472
313.56517
311.2199
309.28451
307.64706
306.23708
305.00726
303.92416
302.96319
302.10565
301.33695
300.64542
300.02159
299.45761
298.94693
298.48401
298.06412
297.68321
297.33776
297.02474
296.74149
296.48571
296.25537
296.04871
295.86418
295.70043
295.55628
295.43071
326.41659
320.66972
316.79944
313.89872
311.59077
309.68455
308.07008
306.6782
305.46252
304.39029
303.43748
302.58584
301.82115
301.13208
300.5094
299.94553
299.4341
298.96975
298.54789
298.16459
297.81644
297.5005
297.21418
296.95523
296.72168
296.5118
296.32407
296.15716
296.0099
295.88128
326.52689
320.87509
317.06803
314.2136
311.94121
310.06297
308.47076
307.09662
305.895
304.83381
303.88949
303.04421
302.2841
301.59811
300.97726
300.41417
299.90268
299.43756
299.01437
298.62928
298.279
297.96066
297.67174
297.41005
297.17366
296.96088
296.77023
296.60038
296.4502
296.31867
326.63115
321.06923
317.32202
314.51155
312.27307
310.42168
308.85099
307.49417
306.30646
305.25634
304.32072
303.48215
302.72705
302.04462
301.42614
300.86441
300.35341
299.88809
299.46411
299.07777
298.72585
298.40556
298.11446
297.8504
297.61151
297.39613
297.20281
297.03024
296.8773
296.74298
326.72991
321.25314
317.56272
314.79406
312.58795
310.76231
309.21241
307.87245
306.69842
305.65934
304.73254
303.9009
303.15113
302.47266
301.85698
301.29705
300.78703
300.32197
299.89768
299.51052
299.15739
298.83556
298.54264
298.27656
298.03547
297.81776
297.62198
297.44688
297.29134
297.15436
326.82366
321.42772
317.79127
315.06242
312.88724
311.08631
309.55646
308.23289
307.07227
306.04413
305.12618
304.30161
303.55739
302.88318
302.27064
301.71289
301.20423
300.73984
300.31561
299.92803
299.57406
299.25103
298.95662
298.68881
298.44579
298.22597
298.02796
297.8505
297.6925
297.55297
326.91279
321.59372
318.00864
315.31775
313.17214
311.39493
309.88441
308.57674
307.42923
306.41187
305.50274
304.68532
303.94681
303.27708
302.66793
302.11266
301.60568
301.14228
300.71846
300.33078
299.97627
299.65235
299.35674
299.08745
298.84274
298.62104
298.42097
298.24132
298.08099
297.93902
326.99767
321.7518
318.21568
315.56103
313.4437
311.68926
310.19738
308.90512
307.77039
306.76362
305.86324
305.05299
304.32028
303.65517
303.04962
302.49706
301.99201
301.52987
301.10674
300.71924
300.36447
300.03991
299.74334
299.47281
299.22661
299.00321
298.80127
298.61956
298.45704
298.31272
327.0786
321.90253
318.41313
315.79311
313.70288
311.97029
310.49638
309.21902
308.09672
307.10033
306.20859
305.40548
304.67862
304.01823
303.41643
302.86675
302.36384
301.90319
301.48096
301.09387
300.73907
300.4141
300.11678
299.84521
299.59771
299.37279
299.16911
298.98549
298.82088
298.67433
327.15587
322.04643
318.60166
316.01476
313.95048
312.23889
310.78228
309.51934
308.40913
307.42287
306.53962
305.74359
305.02258
304.36698
303.76902
303.22236
302.72175
302.26275
301.84162
301.45513
301.1005
300.7753
300.47742
300.20499
299.95636
299.73006
299.52479
299.33938
299.17279
299.02409
327.22971
322.18394
318.78185
316.22665
314.18725
312.49583
311.05588
309.80689
308.7084
307.73203
306.85711
306.06806
305.35288
304.70207
304.10802
303.56449
303.06629
302.60909
302.18921
301.80347
301.44917
301.12391
300.82563
300.55248
300.30286
300.07532
299.86858
299.68149
299.51303
299.36226
327.30034
322.31547
318.95422
316.42938
314.41385
312.74181
311.31792
310.08239
308.99526
308.02852
307.16174
306.37957
305.67015
305.02415
304.43403
303.89368
303.39799
302.94269
302.52417
302.13933
301.78549
301.46031
301.16175
300.88803
300.63754
300.40888
300.20078
300.01212
299.84188
299.68914
327.36795
322.44139
319.11924
316.62351
314.63087
312.97745
311.56903
310.3465
309.27038
308.313
307.45417
306.67874
305.97502
305.33378
304.74761
304.21047
303.71734
303.26403
302.84698
302.46313
302.10986
301.78487
301.48616
301.21197
300.96073
300.73106
300.5217
300.33156
300.15962
300.00498
327.43272
322.56201
319.27734
316.80951
314.83885
313.20335
311.80981
310.59983
309.53437
308.58607
307.735
306.96617
306.26804
305.63151
305.04927
304.51536
304.02484
303.57357
303.15805
302.77528
302.42267
302.09797
301.79921
301.52465
301.27276
301.04216
300.83164
300.6401
300.46655
300.31009
327.49481
322.67762
319.42889
316.98784
315.03829
313.42
312.04081
310.84294
309.78779
308.8483
308.00477
307.24238
306.54974
305.91786
305.33952
304.80883
304.32093
303.87174
303.45781
303.07618
302.72431
302.39997
302.10124
301.8264
301.57393
301.3425
301.1309
300.93804
300.76295
300.60475
327.55436
322.78851
319.57425
317.15889
315.22963
313.6279
312.26252
311.07633
310.03115
309.1002
308.26399
307.50789
306.82063
306.19331
305.61881
305.09133
304.60605
304.15896
303.74665
303.36622
303.01514
302.69123
302.3926
302.11755
301.86459
301.6324
301.41978
301.22568
301.04913
300.88925
327.6115
322.89491
319.71373
317.32305
315.41327
313.82747
312.4754
311.30048
310.26492
309.34224
308.51315
307.76317
307.08115
306.45831
305.8876
305.36329
304.88062
304.43564
304.02498
303.64576
303.29552
302.9721
302.67362
302.39842
302.14504
301.91215
301.6986
301.50332
301.32537
301.16388
327.66635
322.99704
319.84763
317.48065
315.5896
314.01912
312.67986
311.51581
310.48955
309.57487
308.75268
308.00866
307.33175
306.71329
306.1463
305.62511
305.14504
304.70216
304.29315
303.91519
303.56582
303.24292
302.94465
302.66935
302.41559
302.18207
301.96764
301.77124
301.59196
301.42892
327.71903
323.09512
319.97622
317.63201
315.75897
314.20322
312.8763
311.72273
310.70545
309.79852
308.98301
308.24477
307.57284
306.95866
306.39531
305.8772
305.39968
304.95889
304.55154
304.17483
303.82636
303.50402
303.20599
302.93065
302.67656
302.44246
302.2272
302.02975
301.84919
301.68466
327.76962
323.18933
320.09974
317.77742
315.92169
314.38013
313.06509
311.92162
310.91301
310.01356
309.20453
308.47189
307.80481
307.19479
306.63501
306.11991
305.64492
305.20619
304.80049
304.42505
304.07748
303.75573
303.45797
303.18261
302.92825
302.69361
302.47757
302.27912
302.09734
301.93139
327.81824
323.27985
320.21843
317.91715
316.07807
314.55016
313.24656
312.11283
311.11259
310.22036
309.41761
308.6904
308.02803
307.42207
306.86576
306.35361
305.88109
305.4444
305.04033
304.66615
304.31951
303.99835
303.70089
303.42556
303.17095
302.93582
302.71905
302.51965
302.3367
302.16937
327.86497
323.36685
320.3325
318.05145
316.22838
314.71361
313.42103
312.29668
311.30452
310.41928
309.62258
308.90064
308.24283
307.64082
307.0879
306.57863
306.10853
305.67384
305.27139
304.89847
304.55275
304.2322
303.93506
303.65977
303.40495
303.16936
302.95191
302.7516
302.56753
302.39889
327.90989
323.45048
320.44216
318.18056
316.3729
314.87076
313.5888
312.4735
311.48912
310.61062
309.81979
309.10294
308.44956
307.85138
307.30175
306.7953
306.32757
305.89484
305.49398
305.1223
304.7775
304.45757
304.16076
303.88554
303.63054
303.39453
303.17643
302.97526
302.79012
302.6202
327.95307
323.53088
320.54759
318.3047
316.51186
315.02189
313.75015
312.64356
311.66669
310.79471
310.00953
309.29762
308.64853
308.05406
307.50764
307.00392
306.53851
306.1077
305.7084
305.33794
304.99405
304.67474
304.37828
304.10315
303.84798
303.61159
303.39288
303.19088
303.00471
302.83357
327.9946
323.60819
320.64898
318.42408
316.6455
315.16724
313.90534
312.80715
311.83752
310.97182
310.19211
309.48497
308.84003
308.24916
307.70585
307.2048
306.74164
306.31271
305.91493
305.54568
305.20269
304.88401
304.5879
304.31286
304.05756
303.8208
303.60151
303.39873
303.21158
303.03927
328.03453
323.68255
320.74648
318.53889
316.77403
315.30704
314.05462
312.96452
312.00187
311.14223
310.36781
309.66527
309.02435
308.43697
307.89668
307.39821
306.93724
306.51014
306.11386
305.7458
305.4037
305.08562
304.78987
304.51495
304.25953
304.02243
303.80259
303.59906
303.41096
303.23752
328.07294
323.75406
320.84026
318.64932
316.89766
315.44152
314.19822
313.11592
312.16
311.3062
310.53688
309.8388
309.20176
308.61776
308.08039
307.58444
307.1256
306.70028
306.30546
305.93855
305.59732
305.27986
304.98447
304.70967
304.45415
304.21673
303.99637
303.79212
303.60312
303.42859
328.10989
323.82284
320.93046
318.75554
317.01659
315.57089
314.33638
313.26159
312.31215
311.46399
310.69959
310.0058
309.37252
308.79179
308.25725
307.76373
307.30696
306.88338
306.48998
306.1242
305.78383
305.46697
305.17194
304.89727
304.64165
304.40394
304.18308
303.97815
303.78828
303.61271
328.14542
323.88901
321.01723
318.85772
317.131
315.69535
314.4693
313.40174
312.45855
311.61583
310.85617
310.16654
309.53688
308.95931
308.42751
307.93635
307.48158
307.05969
306.66767
306.30299
305.96346
305.64719
305.35252
305.07798
304.82229
304.5843
304.36297
304.15738
303.96668
303.7901
328.1796
323.95265
321.1007
318.95602
317.24106
315.81509
314.59718
313.53659
312.59942
311.76194
311.00686
310.32123
309.69507
309.12056
308.59141
308.10253
307.64971
307.22945
306.83877
306.47517
306.13646
305.82077
305.52645
305.25205
304.9963
304.75805
304.53627
304.33005
304.13855
303.961
328.21249
324.01388
321.181
319.05059
317.34695
315.93029
314.72022
313.66634
312.73497
311.90254
311.15187
310.47011
309.84733
309.27577
308.74918
308.26251
307.81157
307.39289
307.00353
306.64097
306.30306
305.98793
305.69396
305.41971
305.16389
304.9254
304.70319
304.49637
304.3041
304.12562
328.24412
324.07278
321.25825
319.14157
317.44882
316.04112
314.8386
313.79118
312.8654
312.03783
311.29142
310.61338
309.99387
309.42515
308.90104
308.4165
307.96739
307.55025
307.16215
306.8006
306.46347
306.1489
305.85527
305.58116
305.3253
305.08657
304.86396
304.65656
304.46355
304.28418
328.27454
324.12944
321.33256
319.22909
317.54682
316.14775
314.9525
313.91129
312.9909
312.16801
311.42571
310.75126
310.1349
309.56893
309.04721
308.56474
308.11739
307.70173
307.31485
306.95429
306.61792
306.30389
306.0106
305.73663
305.48073
305.24178
305.01878
304.81082
304.6171
304.43687
328.30381
324.18394
321.40405
319.31329
317.64111
316.25034
315.06208
314.02686
313.11165
312.29328
311.55492
310.88394
310.27061
309.7073
309.18789
308.70741
308.26177
307.84754
307.46186
307.10225
306.76661
306.45311
306.16015
305.88632
305.63038
305.39122
305.16785
304.95937
304.76497
304.58391
328.33196
324.23637
321.47282
319.39428
317.73181
316.34903
315.1675
314.13805
313.22782
312.41381
311.67926
311.01161
310.40121
309.84046
309.32327
308.84472
308.40072
307.98789
307.60335
307.24467
306.90974
306.59676
306.30412
306.03043
305.77446
305.53511
305.31138
305.10239
304.90733
304.72548
328.35903
324.2868
321.53897
319.4722
317.81906
316.44397
315.26892
314.24502
313.33959
312.52977
311.79889
311.13446
310.52688
309.96859
309.45355
308.97686
308.53445
308.12296
307.73954
307.38175
307.04752
306.73503
306.4427
306.16916
305.91316
305.67362
305.44955
305.24007
305.04439
304.86177
328.38507
324.33531
321.6026
319.54714
317.90299
316.53529
315.36648
314.34792
313.44712
312.64133
311.91398
311.25265
310.64779
310.09188
309.57892
309.10401
308.66314
308.25295
307.8706
307.51368
307.18011
306.86811
306.57609
306.30268
306.04666
305.80694
305.58255
305.37261
305.17632
304.99296
328.41011
324.38196
321.6638
319.61923
317.98373
316.62314
315.46033
314.44691
313.55056
312.74865
312.0247
311.36636
310.76412
310.2105
309.69953
309.22636
308.78697
308.37803
307.99672
307.64063
307.30772
306.99618
306.70446
306.43119
306.17515
305.93526
305.71056
305.50017
305.3033
305.11923
328.43419
324.42683
321.72266
319.68856
318.06137
316.70764
315.5506
314.54212
313.65006
312.85189
312.13121
311.47574
310.87602
310.32462
309.81558
309.34407
308.90611
308.49838
308.11807
307.76279
307.4305
307.11941
306.82798
306.55485
306.29879
306.05874
305.83374
305.62292
305.42549
305.24075
328.45734
324.46998
321.77926
319.75524
318.13605
316.7889
315.63741
314.6337
313.74576
312.95118
312.23366
311.58096
310.98367
310.43439
309.92721
309.4573
309.02072
308.61416
308.23481
307.88032
307.54863
307.23799
306.94684
306.67383
306.41776
306.17756
305.95228
305.74104
305.54308
305.35768
328.47959
324.51146
321.83369
319.81936
318.20786
316.86705
315.7209
314.72176
313.83779
313.04668
312.33219
311.68216
311.08721
310.53998
310.03458
309.56623
309.13097
308.72553
308.34712
307.99338
307.66228
307.35206
307.06118
306.7883
306.53222
306.29188
306.06632
305.85469
305.65621
305.47018
328.50098
324.55135
321.88602
319.88101
318.27691
316.94219
315.80119
314.80645
313.9263
313.13852
312.42695
311.77948
311.18678
310.64153
310.13785
309.67099
309.23702
308.83265
308.45514
308.10213
307.7716
307.46179
307.17117
306.89842
306.64233
306.40184
306.17602
305.96401
305.76504
305.5784
328.52154
324.58969
321.93633
319.94029
318.3433
317.01444
315.87838
314.88789
314.0114
313.22683
312.51807
311.87307
311.28254
310.73918
310.23716
309.77174
309.339
308.93568
308.55904
308.20672
307.87673
307.56732
307.27696
307.00433
306.74823
306.50762
306.28154
306.06917
305.86972
305.6825
328.5413
324.62655
321.9847
319.99727
318.40713
317.0839
315.9526
314.96617
314.09322
313.31173
312.60568
311.96305
311.3746
310.83308
310.33265
309.86861
309.43706
309.03475
308.65894
308.30731
307.97784
307.66881
307.3787
307.10618
306.85008
306.60934
306.38303
306.1703
305.97039
305.78261
328.56028
324.66197
322.03119
320.05204
318.46848
317.15067
316.02394
315.04143
314.17188
313.39335
312.6899
312.04956
311.46312
310.92335
310.42446
309.96175
309.53134
309.13
308.755
308.40401
308.07506
307.7664
307.47653
307.20412
306.94801
306.70715
306.48061
306.26755
306.0672
305.87888
328.57851
324.69601
322.07586
320.10468
318.52744
317.21485
316.09251
315.11377
314.24748
313.47181
312.77086
312.13271
311.5482
311.01013
310.51272
310.05129
309.62198
309.22157
308.84734
308.49699
308.16852
307.86022
307.57058
307.29828
307.04217
306.80119
306.57443
306.36104
306.16028
305.97144
328.59602
324.72871
322.11879
320.15526
318.58411
317.27652
316.15841
315.18329
314.32014
313.54721
312.84866
312.21263
311.62998
311.09353
310.59755
310.13735
309.7091
309.30959
308.93611
308.58636
308.25836
307.9504
307.66098
307.3888
307.13268
306.8916
306.66462
306.45092
306.24975
306.06042
328.61283
324.76012
322.16003
320.20386
318.63856
317.33578
316.22173
315.2501
314.38997
313.61967
312.92343
312.28943
311.70857
311.17369
310.67907
310.22006
309.79283
309.39418
309.02142
308.67225
308.34471
308.03708
307.74788
307.47579
307.21967
306.97848
306.75131
306.53731
306.33575
306.14594
328.62897
324.7903
322.19965
320.25055
318.69086
317.39271
316.28256
315.31428
314.45705
313.68929
312.99527
312.36323
311.78408
311.25071
310.7574
310.29953
309.87328
309.47546
309.10339
308.75479
308.42768
308.12037
307.83138
307.5594
307.30327
307.06198
306.83461
306.62033
306.4184
306.22813
328.64447
324.81927
322.2377
320.2954
318.7411
317.4474
316.341
315.37593
314.52149
313.75616
313.06429
312.43412
311.85662
311.3247
310.83266
310.37588
309.95058
309.55356
309.18215
308.83409
308.5074
308.2004
307.9116
307.63972
307.3836
307.14221
306.91465
306.7001
306.49781
306.3071
328.65933
324.84709
322.27424
320.33846
318.78935
317.49992
316.39713
315.43515
314.58339
313.8204
313.13058
312.50221
311.9263
311.39577
310.90494
310.44922
310.02482
309.62857
309.25781
308.91026
308.58398
308.27727
307.98867
307.71688
307.46076
307.21928
306.99154
306.77673
306.57409
306.38296
328.67359
324.87379
322.30932
320.37981
318.83568
317.55035
316.45102
315.49201
314.64282
313.88208
313.19423
312.5676
311.99322
311.46402
310.97436
310.51966
310.09613
309.70062
309.33047
308.98342
308.65753
308.35111
308.06269
307.79099
307.53487
307.2933
307.0654
306.85033
306.64736
306.45582
328.68727
324.89942
322.34299
320.41951
318.88016
317.59877
316.50276
315.5466
314.69989
313.94131
313.25535
312.63039
312.05747
311.52955
311.04102
310.58729
310.1646
309.7698
309.40024
309.05367
308.72815
308.42201
308.13377
307.86216
307.60603
307.36439
307.13631
306.921
306.71772
306.52579
328.70039
324.92401
322.3753
320.4576
318.92285
317.64524
316.55243
315.59901
314.75467
313.99816
313.31402
312.69066
312.11914
311.59246
311.10501
310.65221
310.23033
309.83621
309.46722
309.12111
308.79595
308.49007
308.20201
307.93048
307.67436
307.43263
307.2044
306.98886
306.78527
306.59297
328.71296
324.9476
322.4063
320.49415
318.96381
317.68984
316.60009
315.6493
314.80724
314.05272
313.37033
312.7485
312.17834
311.65284
311.16642
310.71453
310.29341
309.89995
309.53151
309.18585
308.86103
308.5554
308.26751
307.99606
307.73994
307.49813
307.26975
307.05399
306.85011
306.65745
328.72501
324.97022
322.43604
320.52922
319.00311
317.73262
316.64581
315.69755
314.85767
314.10507
313.42436
312.80401
312.23514
311.71078
311.22535
310.77432
310.35395
309.96112
309.5932
309.24796
308.92348
308.6181
308.33036
308.05899
307.80287
307.56099
307.33247
307.11649
306.91233
306.71933
328.73655
324.9919
322.46456
320.56285
319.0408
317.77366
316.68968
315.74383
314.90606
314.15529
313.47619
312.85725
312.28963
311.76636
311.28189
310.83169
310.41202
310.0198
309.65238
309.30756
308.9834
308.67824
308.39066
308.11937
307.86325
307.6213
307.39264
307.17645
306.97203
306.77869
328.7476
325.01269
322.4919
320.59509
319.07694
317.81301
316.73174
315.78821
314.95246
314.20345
313.52589
312.90831
312.34188
311.81967
311.33611
310.8867
310.46772
310.07608
309.70915
309.36471
309.04086
308.73593
308.4485
308.17728
307.92116
307.67915
307.45035
307.23397
307.02928
306.83564
328.75818
325.03261
322.5181
320.626
319.11159
317.85074
316.77206
315.83077
314.99694
314.24962
313.57354
312.95727
312.39199
311.87077
311.3881
310.93945
310.52113
310.13004
309.76358
309.41952
309.09596
308.79125
308.50395
308.2328
307.97669
307.73461
307.50569
307.28912
307.08419
306.89024
328.7683
325.05168
322.5432
320.65562
319.14479
317.88689
316.8107
315.87155
315.03958
314.29387
313.61922
313.00419
312.44001
311.91976
311.43793
310.99001
310.57232
310.18177
309.81575
309.47205
309.14878
308.84427
308.55711
308.28603
308.02992
307.78778
307.55874
307.34199
307.13682
306.94258
328.77799
325.06995
322.56724
320.68399
319.17659
317.92153
316.84773
315.91062
315.08043
314.33628
313.66298
313.04916
312.48603
311.9667
311.48568
311.03847
310.62138
310.23134
309.86574
309.52239
309.19939
308.89509
308.60806
308.33704
308.08093
307.83873
307.60957
307.39265
307.18726
306.99274
328.78725
325.08744
322.59027
320.71115
319.20705
317.9547
316.88319
315.94804
315.11955
314.37689
313.70491
313.09223
312.53011
312.01167
311.53142
311.08488
310.66837
310.27882
309.91364
309.57062
309.24787
308.94376
308.65686
308.38591
308.1298
307.88755
307.65827
307.44119
307.23558
307.04079
328.7961
325.10417
322.6123
320.73716
319.23621
317.98646
316.91714
315.98388
315.15702
314.41578
313.74504
313.13347
312.57231
312.05473
311.57522
311.12932
310.71337
310.32429
309.9595
309.6168
309.2943
308.99038
308.70359
308.4327
308.17659
307.93429
307.70491
307.48767
307.28185
307.08681
328.80455
325.12017
322.63338
320.76204
319.26411
318.01685
316.94963
316.01817
315.19287
314.453
313.78346
313.17294
312.61271
312.09594
311.61714
311.17186
310.75644
310.36781
310.0034
309.66101
309.33875
309.035
308.74833
308.47749
308.22139
307.97904
307.74956
307.53217
307.32615
307.13086
328.81263
325.13547
322.65354
320.78584
319.2908
318.04592
316.98072
316.05098
315.22718
314.48861
313.82022
313.21071
312.65137
312.13537
311.65725
311.21257
310.79765
310.40946
310.0454
309.7033
309.38128
309.07769
308.79114
308.52036
308.26426
308.02185
307.79228
307.57474
307.36854
307.17302
328.82033
325.15008
322.67281
320.80859
319.31632
318.07372
317.01044
316.08235
315.25998
314.52267
313.85537
313.24682
312.68833
312.17308
311.69562
311.2515
310.83707
310.44929
310.08558
309.74376
309.42195
309.11853
308.83208
308.56135
308.30526
308.06281
307.83314
307.61547
307.40908
307.21334
328.82768
325.16404
322.69122
320.83033
319.34071
318.10029
317.03885
316.11234
315.29134
314.55522
313.88898
313.28135
312.72367
312.20913
311.73229
311.28871
310.87475
310.48736
310.12399
309.78244
309.46084
309.15757
308.87122
308.60055
308.34445
308.10196
307.8722
307.6544
307.44784
307.25188
328.83469
325.17737
322.7088
320.8511
319.36401
318.12567
317.06599
316.14099
315.32129
314.58632
313.92108
313.31433
312.75743
312.24358
311.76733
311.32427
310.91075
310.52375
310.16068
309.81939
309.49799
309.19487
308.90862
308.638
308.3819
308.13937
307.90953
307.6916
307.48487
307.28871
328.84136
325.19008
322.72557
320.87092
319.38624
318.1499
317.09189
316.16834
315.34989
314.61601
313.95173
313.34583
312.78967
312.27647
311.80079
311.35823
310.94514
310.55849
310.19573
309.85468
309.53347
309.2305
308.94434
308.67376
308.41767
308.1751
307.94518
307.72713
307.52024
307.32389
328.84771
325.2022
322.74157
320.88982
319.40746
318.17301
317.11662
316.19443
315.37719
314.64435
313.98098
313.37589
312.82044
312.30786
311.83272
311.39063
310.97795
310.59165
310.22917
309.88836
309.56734
309.2645
308.97843
308.70789
308.45181
308.2092
307.9792
307.76104
307.554
307.35746
328.85375
325.21374
322.75682
320.90784
319.42768
318.19505
317.14019
316.21932
315.40321
314.67137
314.00888
313.40455
312.84978
312.33779
311.86318
311.42154
311.00924
310.62327
310.26108
309.92049
309.59964
309.29693
309.01094
308.74045
308.48437
308.24172
308.01165
307.79338
307.5862
307.38949
328.85949
325.22473
322.77134
320.92501
319.44695
318.21605
317.16265
316.24304
315.42801
314.69712
314.03547
313.43187
312.87775
312.36633
311.89221
311.451
311.03907
310.65341
310.29148
309.9511
309.63043
309.32784
309.04193
308.77149
308.51541
308.27273
308.04259
307.82421
307.6169
307.42001
328.86494
325.23518
322.78516
320.94135
319.46529
318.23605
317.18404
316.26562
315.45163
314.72164
314.06078
313.45789
312.90438
312.3935
311.91985
311.47905
311.06748
310.68212
310.32044
309.98027
309.65975
309.35728
309.07145
308.80104
308.54497
308.30226
308.07205
307.85357
307.64613
307.44909
328.87011
325.24512
322.7983
320.95689
319.48274
318.25507
317.20438
316.2871
315.4741
314.74498
314.08487
313.48265
312.92972
312.41935
311.94616
311.50575
311.09451
310.70944
310.348
310.00802
309.68765
309.38529
309.09954
308.82917
308.5731
308.33036
308.10009
307.88152
307.67395
307.47676
328.87501
325.25455
322.81078
320.97166
319.49932
318.27314
317.22372
316.30752
315.49546
314.76716
314.10777
313.50618
312.95381
312.44393
311.97116
311.53113
311.12021
310.73541
310.3742
310.0344
309.71418
309.41193
309.12625
308.85592
308.59985
308.35708
308.12675
307.90809
307.70041
307.50306
328.87964
325.26349
322.82262
320.98567
319.51506
318.2903
317.24208
316.32691
315.51574
314.78822
314.12952
313.52853
312.97669
312.46728
311.99492
311.55523
311.14462
310.76008
310.39908
310.05947
309.73938
309.43723
309.15162
308.88132
308.62525
308.38246
308.15207
307.93333
307.72553
307.52805
328.88402
325.27196
322.83385
320.99896
319.52998
318.30658
317.25949
316.3453
315.53498
314.8082
314.15015
313.54973
312.99839
312.48943
312.01745
311.5781
311.16778
310.78349
310.42269
310.08324
309.76329
309.46124
309.17569
308.90542
308.64936
308.40654
308.1761
307.95728
307.74938
307.55177
328.88815
325.27997
322.84447
321.01154
319.54412
318.32199
317.27599
316.36272
315.55321
314.82713
314.1697
313.56982
313.01896
312.51041
312.03881
311.59978
311.18973
310.80567
310.44507
310.10578
309.78595
309.48399
309.1985
308.92827
308.67221
308.42936
308.19887
307.97997
307.77197
307.57424
328.89205
325.28754
322.85452
321.02344
319.55749
318.33657
317.29159
316.37921
315.57045
314.84504
314.18819
313.58883
313.03842
312.53027
312.05901
311.62029
311.2105
310.82666
310.46625
310.12711
309.8074
309.50552
309.22009
308.94989
308.69383
308.45096
308.22043
308.00146
307.79336
307.59551
328.8957
325.29468
322.864
321.03467
319.57011
318.35035
317.30633
316.39478
315.58675
314.86196
314.20567
313.60679
313.05682
312.54904
312.07811
311.63967
311.23013
310.8465
310.48626
310.14726
309.82766
309.52587
309.2405
308.97032
308.71427
308.47138
308.2408
308.02176
307.81358
307.61562
328.89914
325.30139
322.87293
321.04525
319.58202