/*--------------------------------*- C++ -*----------------------------------*\
| =========                 |                                                 |
| \\      /  F ield         | OpenFOAM: The Open Source CFD Toolbox           |
|  \\    /   O peration     | Version:  2506                                  |
|   \\  /    A nd           | Website:  www.openfoam.com                      |
|    \\/     M anipulation  |                                                 |
\*---------------------------------------------------------------------------*/
FoamFile
{
    version     2.0;
    format      ascii;
    arch        "LSB;label=32;scalar=64";
    class       volScalarField;
    location    "1000/water";
    object      alphat;
}
// * * * * * * * * * * * * * * * * * * * * * * * * * * * * * * * * * * * * * //

dimensions      [1 -1 -1 0 0 0 0];

internalField   nonuniform List<scalar> 
1000
(
0.038690245
0.038689577
0.038688046
0.038679676
0.038634252
0.038395956
0.037190881
0.031863289
0.019099264
0.016301307
0.036437656
0.036436968
0.036430539
0.036397696
0.036243742
0.035561449
0.032798675
0.024476366
0.014644262
0.017654592
0.034756095
0.034752687
0.034735392
0.034658264
0.034338316
0.033096043
0.028914324
0.02007852
0.014287388
0.017671293
0.033455039
0.033447371
0.03341324
0.033276591
0.032760734
0.030940111
0.0257699
0.018271993
0.015952006
0.01730153
0.032418332
0.032405139
0.032350678
0.032150529
0.031437447
0.029070423
0.023556208
0.018635932
0.018861602
0.016925716
0.031571667
0.031552637
0.031479597
0.031226168
0.030328143
0.027485346
0.022555249
0.020803835
0.022278939
0.01666626
0.030866455
0.030843488
0.030761494
0.03047794
0.029402091
0.026292279
0.023062
0.024244003
0.025541391
0.016525218
0.03027085
0.030249444
0.030178148
0.029894466
0.028644288
0.025787461
0.025138546
0.028280548
0.028304977
0.016463216
0.029764732
0.029755535
0.029725657
0.029468612
0.028107089
0.026357201
0.028508431
0.03233453
0.030519191
0.016442692
0.029337062
0.029357526
0.029409759
0.029196723
0.027981047
0.028237399
0.032681297
0.036080669
0.032267571
0.016440709
0.02898475
0.029060635
0.029241338
0.029099598
0.028583537
0.031375109
0.03716478
0.039413686
0.033659202
0.016446405
0.028712544
0.028878701
0.029233165
0.02927043
0.030215395
0.035478716
0.041608865
0.042341691
0.03478781
0.016455612
0.028533638
0.028833089
0.029403431
0.029913087
0.033002956
0.040161656
0.045828276
0.044910659
0.035723433
0.016467076
0.028470734
0.028950976
0.029795721
0.031303959
0.036852371
0.045075664
0.049751664
0.047172327
0.036515373
0.016480527
0.028557127
0.029264068
0.030516123
0.033675925
0.041512096
0.049977108
0.053365695
0.049173934
0.037197741
0.01649591
0.028837278
0.029812337
0.031757445
0.03711398
0.046676212
0.054725921
0.056681617
0.050955367
0.037793647
0.01651313
0.029366621
0.030660533
0.033764336
0.041530903
0.052070849
0.059252712
0.059719451
0.052547716
0.038312886
0.01653193
0.03021227
0.031928013
0.036741548
0.046714363
0.057495154
0.063527199
0.062500685
0.053971528
0.038771735
0.016552021
0.031460412
0.033808004
0.040768993
0.052403202
0.062820498
0.067538903
0.065043943
0.055250015
0.039180821
0.016573204
0.033237337
0.036537717
0.04577553
0.058353885
0.067970085
0.071287207
0.067367709
0.056402553
0.0395479
0.016595311
0.035735494
0.04031692
0.051571383
0.064375133
0.072897818
0.07477285
0.069492393
0.05744391
0.039878926
0.016618166
0.039206758
0.045225626
0.057909865
0.070330663
0.077571613
0.078005747
0.071434858
0.058385969
0.040178226
0.016641577
0.043889128
0.0511908
0.064545638
0.076123562
0.081973339
0.080996868
0.073208748
0.059238038
0.04044891
0.016665346
0.049893124
0.058009741
0.071267631
0.081682525
0.0860942
0.083754718
0.074824688
0.060007081
0.040693116
0.016689271
0.057120929
0.065404512
0.077905585
0.086957222
0.089927525
0.086284842
0.076290115
0.060697884
0.040912141
0.016713145
0.065268614
0.073076945
0.084332815
0.091910067
0.093464939
0.088589289
0.07760928
0.061313204
0.041106522
0.01673675
0.073907392
0.080754799
0.090454577
0.096507761
0.096696066
0.09066675
0.078783518
0.061853998
0.041276133
0.016759843
0.082593722
0.08820816
0.096194374
0.10072122
0.099609571
0.092513516
0.079811949
0.062319851
0.041420363
0.016782163
0.090954846
0.095255065
0.10149108
0.10452695
0.10219523
0.094125153
0.08069262
0.062709622
0.041538369
0.016803427
0.098726877
0.1017624
0.10629913
0.10790893
0.10444637
0.095498561
0.081423917
0.063022259
0.041629407
0.016823346
0.10575364
0.10764393
0.11058952
0.11086033
0.10636198
0.096633878
0.082005962
0.063257614
0.041693162
0.016841652
0.11196554
0.11285545
0.11435012
0.11338417
0.10794789
0.097535803
0.082441671
0.0634171
0.04173001
0.016858109
0.11735393
0.11738762
0.11758475
0.11549307
0.10921702
0.098214131
0.082737322
0.063504065
0.041741169
0.016872545
0.12194916
0.1212577
0.12031103
0.11720809
0.11018865
0.098683539
0.082902589
0.063523873
0.041728716
0.016884856
0.12580427
0.1245017
0.12255755
0.118557
0.11088725
0.09896283
0.082950138
0.063483696
0.04169549
0.016895016
0.12898414
0.12716758
0.12436088
0.11957249
0.11134098
0.099073843
0.082894918
0.063392102
0.041644899
0.016903077
0.13155844
0.12930996
0.12576267
0.12029025
0.11158016
0.099040235
0.082753283
0.063258513
0.041580678
0.016909154
0.13359734
0.13098619
0.12680717
0.1207473
0.11163589
0.098886279
0.082542077
0.063092623
0.04150663
0.016913418
0.13516879
0.13225354
0.12753915
0.12098056
0.11153878
0.098635791
0.082277789
0.062903856
0.04142639
0.016916072
0.13633692
0.13316724
0.12800233
0.12102564
0.11131799
0.098311256
0.08197586
0.062700918
0.041343242
0.01691734
0.13716104
0.1337792
0.12823819
0.12091601
0.11100049
0.097933214
0.081650197
0.062491494
0.041259994
0.016917448
0.13769521
0.13413728
0.1282852
0.1206824
0.11061066
0.097519884
0.081312885
0.062282083
0.041178933
0.016916615
0.13798801
0.13428483
0.12817842
0.12035251
0.11017005
0.097087021
0.080974095
0.062077959
0.041101817
0.016915045
0.13808271
0.1342607
0.12794932
0.11995094
0.10969735
0.096647924
0.080642117
0.061883218
0.041029915
0.016912919
0.13801746
0.13409929
0.12762578
0.11949921
0.10920853
0.096213513
0.080323382
0.061700618
0.040962988
0.016910386
0.13782566
0.1338308
0.12723224
0.11901585
0.10871687
0.095792444
0.080022488
0.061531217
0.040902169
0.016907571
0.13753634
0.13348149
0.12678984
0.11851657
0.10823318
0.095391166
0.079741981
0.061377107
0.04084793
0.016904599
0.13717449
0.13307398
0.12631664
0.1180144
0.10776582
0.095013836
0.079484988
0.061239087
0.040800438
0.016901575
0.13676148
0.13262752
0.12582776
0.11751974
0.1073207
0.094664736
0.079252955
0.061117375
0.040759609
0.016898583
0.13631528
0.1321582
0.12533544
0.11704051
0.10690353
0.094346263
0.079046414
0.061011728
0.04072517
0.016895686
0.13585078
0.13167915
0.12484974
0.11658406
0.10651799
0.094059631
0.078865191
0.060921541
0.040696719
0.016892933
0.13538025
0.13120153
0.12437942
0.11615566
0.10616639
0.093805119
0.078708566
0.060845948
0.040673777
0.016890358
0.13491412
0.13073467
0.12393123
0.11575904
0.1058499
0.093582263
0.078575398
0.060783903
0.04065582
0.016887983
0.13446084
0.13028598
0.12351027
0.11539659
0.10556875
0.093389998
0.078464234
0.060734246
0.040642307
0.016885824
0.13402714
0.12986117
0.12312015
0.11506958
0.10532236
0.093226788
0.078373396
0.060695748
0.040632697
0.016883884
0.13361815
0.12946446
0.1227632
0.11477829
0.10510953
0.093090748
0.078301067
0.060667158
0.040626462
0.016882165
0.13323757
0.12909874
0.12244067
0.11452225
0.10492859
0.092979756
0.078245359
0.060647239
0.040623098
0.01688066
0.13288792
0.12876579
0.12215291
0.11430033
0.10477748
0.092891552
0.078204386
0.060634804
0.04062214
0.016879362
0.13257066
0.12846642
0.12189951
0.11411094
0.10465394
0.092823831
0.07817631
0.060628738
0.040623162
0.016878258
0.13228638
0.12820069
0.1216795
0.11395215
0.10455557
0.092774299
0.078159378
0.060628009
0.040625783
0.016877337
0.13203497
0.12796801
0.12149142
0.11382177
0.10447989
0.092740722
0.078151939
0.060631674
0.040629661
0.016876583
0.13181571
0.12776725
0.12133347
0.11371742
0.10442443
0.092720944
0.078152451
0.060638871
0.040634494
0.016875983
0.13162739
0.12759688
0.12120354
0.11363663
0.10438673
0.092712912
0.078159481
0.060648822
0.040640013
0.016875521
0.1314684
0.12745502
0.12109935
0.11357688
0.10436439
0.092714687
0.078171714
0.060660825
0.040645981
0.016875183
0.13133683
0.12733953
0.12101847
0.11353565
0.10435514
0.092724467
0.078187955
0.060674259
0.040652192
0.016874952
0.13123052
0.12724812
0.1209584
0.11351047
0.10435679
0.092740602
0.07820714
0.060688586
0.040658473
0.016874814
0.13114719
0.12717838
0.12091668
0.11349899
0.10436736
0.092761611
0.07822834
0.060703346
0.040664681
0.016874755
0.13108446
0.12712791
0.12089089
0.11349898
0.10438503
0.092786189
0.07825076
0.060718161
0.040670703
0.016874762
0.13103997
0.12709432
0.12087874
0.11350842
0.10440818
0.092813206
0.078273732
0.060732726
0.040676454
0.016874822
0.13101144
0.12707533
0.12087807
0.11352546
0.10443538
0.092841695
0.078296707
0.0607468
0.04068187
0.016874927
0.13099665
0.12706877
0.12088689
0.11354841
0.10446539
0.092870837
0.078319234
0.060760196
0.040686907
0.016875065
0.1309935
0.12707262
0.12090337
0.1135758
0.10449711
0.092899939
0.078340944
0.060772759
0.040691484
0.016875228
0.13100004
0.12708497
0.12092583
0.11360628
0.10452959
0.092928413
0.078361528
0.060784334
0.040695583
0.016875407
0.13101443
0.12710408
0.12095276
0.11363867
0.10456204
0.092955767
0.078380714
0.060794847
0.040699222
0.016875596
0.13103497
0.12712834
0.12098278
0.11367195
0.10459374
0.092981582
0.078398329
0.060804287
0.040702415
0.01687579
0.13106011
0.12715631
0.1210147
0.11370524
0.10462413
0.09300556
0.078414305
0.060812648
0.040705179
0.016875982
0.13108848
0.1271867
0.12104747
0.11373777
0.10465276
0.093027548
0.078428601
0.060819952
0.040707536
0.016876171
0.13111886
0.12721841
0.12108019
0.11376898
0.10467938
0.093047448
0.078441223
0.060826241
0.040709514
0.016876352
0.1311502
0.12725049
0.12111219
0.11379847
0.10470379
0.093065231
0.078452219
0.060831573
0.040711143
0.016876523
0.13118164
0.12728217
0.12114293
0.11382595
0.10472591
0.09308092
0.078461665
0.060836019
0.040712456
0.016876683
0.13121252
0.1273129
0.12117201
0.11385124
0.1047457
0.093094582
0.078469656
0.060839654
0.040713485
0.016876831
0.13124228
0.12734221
0.12119915
0.1138742
0.10476319
0.093106307
0.078476296
0.060842553
0.040714263
0.016876965
0.13127054
0.12736976
0.12122413
0.11389479
0.10477842
0.093116204
0.078481692
0.06084479
0.040714819
0.016877086
0.13129697
0.12739529
0.12124684
0.11391301
0.10479148
0.093124391
0.078485951
0.060846434
0.040715179
0.016877194
0.13132136
0.12741865
0.12126719
0.11392889
0.10480249
0.093130998
0.078489183
0.060847554
0.040715369
0.016877288
0.13134357
0.12743972
0.12128519
0.11394252
0.10481157
0.093136165
0.078491501
0.060848217
0.040715415
0.016877369
0.13136353
0.12745849
0.12130087
0.11395402
0.10481889
0.093140043
0.078493021
0.060848492
0.040715341
0.016877438
0.13138125
0.12747498
0.12131435
0.11396354
0.10482461
0.093142791
0.07849386
0.060848445
0.040715171
0.016877495
0.13139677
0.12748929
0.12132575
0.11397125
0.10482892
0.093144565
0.07849413
0.06084814
0.040714928
0.016877541
0.13141021
0.12750153
0.12133524
0.11397734
0.10483199
0.093145515
0.078493938
0.060847636
0.040714633
0.016877578
0.1314217
0.12751186
0.12134297
0.11398199
0.10483401
0.09314578
0.078493375
0.060846981
0.040714302
0.016877607
0.13143137
0.12752043
0.12134914
0.11398538
0.10483512
0.09314548
0.078492522
0.060846216
0.040713948
0.016877628
0.13143939
0.1275274
0.12135391
0.11398767
0.10483546
0.093144724
0.078491447
0.060845376
0.040713583
0.016877642
0.13144591
0.12753293
0.12135743
0.11398901
0.10483518
0.093143608
0.078490211
0.06084449
0.040713214
0.016877651
0.13145106
0.12753718
0.12135987
0.11398955
0.10483438
0.093142222
0.078488869
0.060843585
0.040712851
0.016877656
0.13145501
0.12754029
0.12136137
0.11398943
0.10483319
0.093140645
0.07848747
0.060842685
0.040712501
0.016877656
0.1314579
0.12754242
0.12136209
0.11398878
0.1048317
0.09313895
0.078486057
0.060841809
0.040712169
0.016877653
0.13145985
0.1275437
0.12136215
0.11398771
0.10483
0.093137196
0.078484665
0.060840974
0.04071186
0.016877647
0.13146099
0.12754425
0.12136166
0.11398631
0.10482817
0.093135431
0.078483318
0.060840189
0.040711576
0.01687764
0.13146142
0.12754418
0.12136073
0.11398467
0.10482626
0.093133684
0.078482029
0.060839455
0.040711315
0.016877631
)
;

boundaryField
{
    water_inlet
    {
        type            calculated;
        value           uniform 0.041850807;
    }
    water_outlet
    {
        type            calculated;
        value           nonuniform List<scalar> 10(0.13146142 0.12754418 0.12136073 0.11398467 0.10482626 0.093133684 0.078482029 0.060839455 0.040711315 0.016877631);
    }
    water_wedge1
    {
        type            wedge;
    }
    water_wedge2
    {
        type            wedge;
    }
    water_to_rock
    {
        type            compressible::alphatWallFunction;
        value           nonuniform List<scalar> 
100
(
0.0020384971
0.0022594581
0.0022621707
0.0022020357
0.0021407413
0.0020983185
0.0020752205
0.0020650584
0.0020616934
0.0020613682
0.0020623024
0.0020638121
0.0020656912
0.002067896
0.0020704173
0.0020732398
0.0020763209
0.0020796126
0.0020830824
0.0020867028
0.0020904451
0.0020942778
0.0020981686
0.0021020845
0.0021059916
0.0021098534
0.0021136306
0.0021172801
0.0021207563
0.0021240125
0.0021270049
0.0021296953
0.002132055
0.0021340669
0.0021357268
0.0021370432
0.0021380355
0.0021387317
0.0021391653
0.0021393728
0.0021393908
0.0021392551
0.0021389986
0.0021386513
0.0021382373
0.0021377774
0.0021372919
0.0021367978
0.0021363088
0.0021358355
0.0021353856
0.0021349649
0.002134577
0.0021342241
0.0021339073
0.0021336263
0.0021333804
0.0021331681
0.0021329877
0.0021328372
0.0021327142
0.0021326163
0.0021325411
0.0021324858
0.0021324481
0.0021324255
0.0021324158
0.0021324169
0.0021324268
0.0021324439
0.0021324666
0.0021324933
0.0021325227
0.0021325535
0.002132585
0.0021326163
0.0021326469
0.0021326764
0.0021327042
0.0021327303
0.0021327544
0.0021327764
0.0021327962
0.0021328137
0.0021328291
0.0021328423
0.0021328535
0.0021328629
0.0021328706
0.0021328767
0.0021328815
0.002132885
0.0021328875
0.002132889
0.0021328898
0.0021328899
0.0021328894
0.0021328885
0.0021328873
0.0021328858
)
;
    }
}


// ************************************************************************* //
