/*--------------------------------*- C++ -*----------------------------------*\
| =========                 |                                                 |
| \\      /  F ield         | OpenFOAM: The Open Source CFD Toolbox           |
|  \\    /   O peration     | Version:  2506                                  |
|   \\  /    A nd           | Website:  www.openfoam.com                      |
|    \\/     M anipulation  |                                                 |
\*---------------------------------------------------------------------------*/
FoamFile
{
    version     2.0;
    format      ascii;
    arch        "LSB;label=32;scalar=64";
    class       volScalarField;
    location    "1000/water";
    object      epsilon;
}
// * * * * * * * * * * * * * * * * * * * * * * * * * * * * * * * * * * * * * //

dimensions      [0 2 -3 0 0 0 0];

internalField   nonuniform List<scalar> 
1000
(
7.2399316e-05
7.2397808e-05
7.2397502e-05
7.2398682e-05
7.2424146e-05
7.2686938e-05
7.4736184e-05
8.8973295e-05
0.00019794853
0.0013048048
4.7739543e-05
4.7745807e-05
4.7746167e-05
4.7748745e-05
4.7810065e-05
4.8371228e-05
5.2145894e-05
7.5319306e-05
0.00023607333
0.0016574915
3.3261229e-05
3.326441e-05
3.3263962e-05
3.3272039e-05
3.3396639e-05
3.4348945e-05
3.9973164e-05
7.1502205e-05
0.00026550022
0.0016622
2.4212884e-05
2.4213778e-05
2.421353e-05
2.4236018e-05
2.4468829e-05
2.5979975e-05
3.408678e-05
7.6375729e-05
0.00030233758
0.0015600261
1.8263229e-05
1.8263302e-05
1.8265922e-05
1.8318446e-05
1.8730724e-05
2.1090735e-05
3.2935697e-05
9.0423696e-05
0.00035053686
0.0014605605
1.4183053e-05
1.4183388e-05
1.4193787e-05
1.4301413e-05
1.5003317e-05
1.8678155e-05
3.6167987e-05
0.00011337711
0.00040230443
0.0013944169
1.1285033e-05
1.1287109e-05
1.1313191e-05
1.1514087e-05
1.2672048e-05
1.8360629e-05
4.3854088e-05
0.00014255056
0.00044702286
0.0013593139
9.1651308e-06
9.1712237e-06
9.2251469e-06
9.5765161e-06
1.1437665e-05
2.0107191e-05
5.5828225e-05
0.00017322877
0.00047957551
0.0013440713
7.5754962e-06
7.5890767e-06
7.6892449e-06
8.2761021e-06
1.1198208e-05
2.4041208e-05
7.1187006e-05
0.00020099046
0.00050080723
0.0013390508
6.3585386e-06
6.3848726e-06
6.5589453e-06
7.5064204e-06
1.1984515e-05
3.0236083e-05
8.8277375e-05
0.00022355912
0.00051393014
0.0013385663
5.4111025e-06
5.4581715e-06
5.7474936e-06
7.2369282e-06
1.3906667e-05
3.8515434e-05
0.00010524319
0.00024078308
0.00052197903
0.0013399584
4.6642398e-06
4.7441301e-06
5.2100528e-06
7.4969455e-06
1.7087003e-05
4.8355588e-05
0.00012068248
0.00025359556
0.00052708078
0.0013422104
4.0714679e-06
4.2024403e-06
4.9349813e-06
8.3622634e-06
2.1575456e-05
5.8975522e-05
0.00013393067
0.00026313419
0.00053055275
0.0013450169
3.6019037e-06
3.8114133e-06
4.9402441e-06
9.9351085e-06
2.7272195e-05
6.9567064e-05
0.00014492627
0.00027035424
0.00053316254
0.001348315
3.2363933e-06
3.5653606e-06
5.2715506e-06
1.2311439e-05
3.3901661e-05
7.951067e-05
0.00015392442
0.00027595618
0.00053534057
0.001352094
2.9656643e-06
3.4742241e-06
5.9984083e-06
1.5537489e-05
4.106272e-05
8.846099e-05
0.0001612736
0.00028042537
0.00053731663
0.0013563334
2.7900133e-06
3.5645548e-06
7.2040728e-06
1.9569976e-05
4.8330084e-05
9.6307075e-05
0.00016730386
0.00028408929
0.00053917788
0.0013609722
2.720266e-06
3.8804201e-06
8.9664031e-06
2.4261456e-05
5.5350065e-05
0.00010308388
0.00017229245
0.00028715811
0.00054093733
0.0013659402
2.7797402e-06
4.4819707e-06
1.1330822e-05
2.9383087e-05
6.1887535e-05
0.00010889382
0.00017645212
0.00028975407
0.0005426729
0.0013711908
3.0065699e-06
5.4387068e-06
1.4283629e-05
3.4675073e-05
6.782089e-05
0.00011385666
0.0001799386
0.00029198045
0.00054443457
0.0013766846
3.4547952e-06
6.8148653e-06
1.7738638e-05
3.9899739e-05
7.3111855e-05
0.0001180867
0.00018285387
0.0002939415
0.00054623643
0.0013823796
4.1911547e-06
8.6476073e-06
2.1546235e-05
4.4874708e-05
7.7769134e-05
0.00012165874
0.00018531779
0.00029569727
0.00054807357
0.0013882298
5.283587e-06
1.0924855e-05
2.5521719e-05
4.9478008e-05
8.1803623e-05
0.00012466933
0.0001874127
0.00029728379
0.00054993229
0.0013941868
6.7799089e-06
1.3574399e-05
2.9480234e-05
5.3622534e-05
8.5253086e-05
0.00012719926
0.00018919512
0.00029872093
0.0005517938
0.0014002007
8.6832107e-06
1.6474039e-05
3.3249983e-05
5.7259523e-05
8.8167054e-05
0.00012930773
0.00019070233
0.00030001689
0.00055363542
0.0014062194
1.093779e-05
1.9464207e-05
3.6694126e-05
6.0377198e-05
9.0586648e-05
0.0001310366
0.00019195688
0.00030117091
0.00055543097
0.0014121864
1.3423237e-05
2.2384315e-05
3.9726979e-05
6.2977891e-05
9.2544811e-05
0.00013241428
0.00019297034
0.00030217547
0.00055715123
0.0014180397
1.5988078e-05
2.5103492e-05
4.230316e-05
6.5074413e-05
9.4068675e-05
0.00013345987
0.00019374681
0.00030301862
0.00055876497
0.0014237115
1.8484489e-05
2.7531369e-05
4.4410688e-05
6.6689229e-05
9.5183121e-05
0.00013418754
0.00019428662
0.00030368668
0.00056024078
0.0014291287
2.0793598e-05
2.9617707e-05
4.6063512e-05
6.7854249e-05
9.5914393e-05
0.00013461083
0.00019459011
0.00030416735
0.00056154947
0.0014342167
2.2836395e-05
3.134566e-05
4.7293998e-05
6.860991e-05
9.6292764e-05
0.0001347462
0.00019466109
0.00030445275
0.00056266701
0.0014389039
2.4572665e-05
3.2722981e-05
4.8145953e-05
6.9003203e-05
9.6353682e-05
0.00013461539
0.0001945094
0.00030454192
0.0005635771
0.0014431277
2.5993405e-05
3.377369e-05
4.8668801e-05
6.9085002e-05
9.6137435e-05
0.00013424627
0.00019415218
0.00030444231
0.0005642732
0.0014468396
2.7111423e-05
3.4531251e-05
4.8913189e-05
6.8907251e-05
9.5687689e-05
0.00013367228
0.00019361379
0.00030416994
0.00056475921
0.0014500095
2.7952836e-05
3.503349e-05
4.8928004e-05
6.852051e-05
9.5049486e-05
0.0001329308
0.00019292449
0.00030374825
0.00056504874
0.0014526284
2.8550519e-05
3.5319066e-05
4.8758559e-05
6.7972098e-05
9.4267167e-05
0.00013206107
0.0001921183
0.000303206
0.00056516327
0.0014547076
2.8939555e-05
3.5425186e-05
4.8445624e-05
6.7304862e-05
9.3382574e-05
0.00013110202
0.00019123059
0.00030257464
0.00056512941
0.0014562762
2.9154353e-05
3.538625e-05
4.8025059e-05
6.6556531e-05
9.2433711e-05
0.00013009029
0.00019029574
0.00030188575
0.00056497611
0.0014573775
2.922697e-05
3.5233151e-05
4.7527801e-05
6.5759496e-05
9.1453897e-05
0.00012905886
0.00018934533
0.0003011689
0.00056473212
0.0014580638
2.9186266e-05
3.4993012e-05
4.6980098e-05
6.4940918e-05
9.0471369e-05
0.0001280361
0.0001884068
0.00030045007
0.00056442411
0.0014583923
2.9057587e-05
3.468921e-05
4.6403849e-05
6.4123037e-05
8.9509259e-05
0.00012704538
0.00018750278
0.00029975084
0.00056407556
0.0014584211
2.8862773e-05
3.4341566e-05
4.5817028e-05
6.3323609e-05
8.8585832e-05
0.00012610503
0.00018665091
0.00029908807
0.00056370621
0.0014582063
2.8620347e-05
3.3966637e-05
4.5234117e-05
6.25564e-05
8.7714889e-05
0.00012522866
0.00018586398
0.00029847404
0.00056333196
0.0014578004
2.8345798e-05
3.3578041e-05
4.466654e-05
6.183169e-05
8.6906271e-05
0.00012442554
0.00018515036
0.00029791678
0.00056296489
0.0014572507
2.8051906e-05
3.3186799e-05
4.4123069e-05
6.1156764e-05
8.6166373e-05
0.00012370117
0.00018451452
0.00029742042
0.00056260938
0.0014565957
2.7749067e-05
3.2801669e-05
4.3610204e-05
6.053638e-05
8.5498721e-05
0.00012305796
0.00018395786
0.00029698507
0.00056226358
0.0014558683
2.744561e-05
3.2429457e-05
4.3132532e-05
5.9973213e-05
8.4904516e-05
0.00012249583
0.00018347861
0.00029660459
0.00056194034
0.0014551006
2.7148091e-05
3.2075309e-05
4.2693041e-05
5.9468247e-05
8.4383071e-05
0.00012201232
0.00018307006
0.00029628032
0.00056164636
0.0014543197
2.6861559e-05
3.1742971e-05
4.2293414e-05
5.9021124e-05
8.3932068e-05
0.00012160122
0.00018272938
0.00029601098
0.00056138448
0.0014535472
2.6589805e-05
3.143505e-05
4.1934334e-05
5.8630254e-05
8.3546399e-05
0.00012125847
0.00018245251
0.00029579337
0.00056115531
0.0014527996
2.6335599e-05
3.1153227e-05
4.1615285e-05
5.8292246e-05
8.3222188e-05
0.00012097926
0.00018223428
0.00029562316
0.00056095804
0.0014520894
2.6100741e-05
3.0898063e-05
4.1334766e-05
5.800412e-05
8.2955007e-05
0.00012075814
0.0001820689
0.00029549548
0.00056079101
0.0014514254
2.5886125e-05
3.0669447e-05
4.1091098e-05
5.7762535e-05
8.2740053e-05
0.00012058931
0.00018195034
0.00029540522
0.00056065203
0.0014508135
2.5692107e-05
3.0466856e-05
4.0882287e-05
5.7563889e-05
8.2572323e-05
0.00012046685
0.00018187256
0.0002953473
0.00056053863
0.001450257
2.5518615e-05
3.0289426e-05
4.0706088e-05
5.740441e-05
8.2446743e-05
0.00012038494
0.00018182972
0.00029531685
0.0005604482
0.0014497574
2.536523e-05
3.0136012e-05
4.0560074e-05
5.7280256e-05
8.2358298e-05
0.0001203379
0.00018181625
0.0002953093
0.00056037817
0.0014493144
2.5231258e-05
3.0005253e-05
4.04417e-05
5.7187591e-05
8.2302118e-05
0.00012032039
0.00018182702
0.00029532048
0.00056032609
0.0014489268
2.5115787e-05
2.9895625e-05
4.0348364e-05
5.712265e-05
8.227356e-05
0.00012032741
0.00018185735
0.00029534666
0.00056028967
0.0014485923
2.5017737e-05
2.9805495e-05
4.0277455e-05
5.7081802e-05
8.2268256e-05
0.00012035437
0.000181903
0.00029538448
0.00056026676
0.0014483081
2.4935907e-05
2.9733157e-05
4.0226398e-05
5.7061583e-05
8.2282153e-05
0.00012039711
0.00018196023
0.00029543104
0.00056025539
0.0014480709
2.4869012e-05
2.9676879e-05
4.0192694e-05
5.7058739e-05
8.2311532e-05
0.00012045191
0.00018202574
0.00029548374
0.00056025368
0.0014478773
2.4815716e-05
2.9634929e-05
4.0173945e-05
5.7070242e-05
8.2353026e-05
0.00012051544
0.00018209666
0.00029554038
0.00056025991
0.0014477232
2.4774663e-05
2.9605606e-05
4.0167883e-05
5.7093313e-05
8.2403622e-05
0.00012058485
0.00018217054
0.00029559906
0.00056027248
0.0014476047
2.4744505e-05
2.9587264e-05
4.0172386e-05
5.7125432e-05
8.2460659e-05
0.00012065762
0.00018224532
0.00029565818
0.00056028998
0.0014475178
2.4723917e-05
2.9578334e-05
4.0185497e-05
5.7164339e-05
8.2521821e-05
0.00012073168
0.00018231929
0.00029571645
0.00056031114
0.0014474584
2.4711626e-05
2.9577333e-05
4.020543e-05
5.7208041e-05
8.2585125e-05
0.00012080527
0.0001823911
0.00029577285
0.00056033489
0.0014474228
2.4706416e-05
2.9582884e-05
4.0230576e-05
5.72548e-05
8.26489e-05
0.00012087699
0.00018245968
0.00029582659
0.00056036033
0.0014474075
2.4707147e-05
2.9593722e-05
4.0259506e-05
5.7303123e-05
8.2711764e-05
0.0001209457
0.00018252422
0.00029587707
0.00056038668
0.0014474092
2.4712758e-05
2.9608697e-05
4.0290965e-05
5.735175e-05
8.2772603e-05
0.00012101056
0.00018258415
0.00029592389
0.00056041331
0.0014474248
2.472228e-05
2.9626776e-05
4.0323866e-05
5.7399637e-05
8.2830538e-05
0.00012107093
0.00018263909
0.00029596678
0.00056043967
0.0014474517
2.4734833e-05
2.9647046e-05
4.0357284e-05
5.7445939e-05
8.2884904e-05
0.0001211264
0.00018268881
0.00029600557
0.00056046528
0.0014474875
2.4749627e-05
2.9668708e-05
4.0390444e-05
5.7489987e-05
8.2935222e-05
0.00012117669
0.00018273323
0.00029604017
0.00056048952
0.0014475296
2.4765967e-05
2.9691073e-05
4.0422712e-05
5.7531278e-05
8.2981179e-05
0.00012122169
0.00018277236
0.00029607055
0.00056051163
0.0014475759
2.4783247e-05
2.9713559e-05
4.0453584e-05
5.7569452e-05
8.3022608e-05
0.00012126143
0.00018280634
0.00029609658
0.00056053153
0.0014476244
2.4800946e-05
2.9735684e-05
4.0482672e-05
5.7604281e-05
8.305947e-05
0.00012129603
0.00018283525
0.00029611842
0.00056054951
0.0014476739
2.4818629e-05
2.9757058e-05
4.0509698e-05
5.7635649e-05
8.3091827e-05
0.00012132562
0.00018285928
0.00029613651
0.00056056569
0.0014477232
2.4835937e-05
2.9777376e-05
4.0534477e-05
5.7663538e-05
8.3119777e-05
0.0001213504
0.00018287891
0.00029615126
0.00056058016
0.0014477714
2.4852583e-05
2.9796415e-05
4.0556912e-05
5.7687966e-05
8.3143461e-05
0.00012137074
0.00018289456
0.00029616302
0.00056059299
0.0014478176
2.4868352e-05
2.9814019e-05
4.0576935e-05
5.7709006e-05
8.3163165e-05
0.00012138705
0.00018290667
0.00029617213
0.00056060425
0.0014478615
2.4883072e-05
2.9830067e-05
4.0594545e-05
5.7726826e-05
8.3179202e-05
0.00012139974
0.00018291565
0.0002961789
0.00056061403
0.0014479025
2.4896617e-05
2.9844494e-05
4.0609801e-05
5.7741633e-05
8.3191907e-05
0.00012140921
0.00018292188
0.00029618362
0.00056062238
0.0014479405
2.4908912e-05
2.9857283e-05
4.0622804e-05
5.7753663e-05
8.3201619e-05
0.00012141584
0.00018292573
0.00029618655
0.00056062938
0.0014479751
2.491992e-05
2.986846e-05
4.0633687e-05
5.7763165e-05
8.3208679e-05
0.00012142001
0.00018292756
0.00029618796
0.00056063511
0.0014480063
2.4929641e-05
2.9878079e-05
4.0642605e-05
5.7770399e-05
8.3213421e-05
0.00012142209
0.00018292768
0.00029618808
0.00056063967
0.0014480339
2.4938103e-05
2.9886221e-05
4.0649726e-05
5.7775625e-05
8.3216166e-05
0.0001214224
0.00018292642
0.00029618714
0.00056064316
0.0014480581
2.4945357e-05
2.9892981e-05
4.0655228e-05
5.77791e-05
8.3217222e-05
0.00012142126
0.00018292403
0.00029618536
0.00056064573
0.0014480789
2.495147e-05
2.989847e-05
4.065929e-05
5.778107e-05
8.3216876e-05
0.00012141897
0.0001829208
0.00029618294
0.0005606475
0.0014480965
2.4956522e-05
2.9902805e-05
4.066209e-05
5.7781769e-05
8.3215392e-05
0.00012141579
0.00018291693
0.00029618005
0.00056064861
0.0014481113
2.4960601e-05
2.9906104e-05
4.06638e-05
5.7781414e-05
8.3213009e-05
0.00012141193
0.00018291263
0.00029617685
0.00056064916
0.0014481234
2.4963798e-05
2.9908489e-05
4.0664583e-05
5.7780205e-05
8.3209939e-05
0.00012140762
0.00018290807
0.00029617345
0.00056064923
0.0014481332
2.4966208e-05
2.9910075e-05
4.066459e-05
5.7778322e-05
8.3206372e-05
0.00012140301
0.00018290339
0.00029616996
0.00056064891
0.0014481407
2.4967923e-05
2.9910975e-05
4.0663962e-05
5.7775925e-05
8.3202469e-05
0.00012139826
0.0001828987
0.00029616646
0.00056064826
0.0014481464
2.4969034e-05
2.9911295e-05
4.0662828e-05
5.7773158e-05
8.3198374e-05
0.00012139349
0.0001828941
0.00029616302
0.00056064735
0.0014481504
2.4969627e-05
2.9911132e-05
4.0661302e-05
5.7770145e-05
8.3194204e-05
0.0001213888
0.00018288966
0.0002961597
0.00056064625
0.0014481528
2.4969783e-05
2.9910578e-05
4.0659487e-05
5.7766993e-05
8.3190062e-05
0.00012138427
0.00018288547
0.00029615656
0.00056064502
0.001448154
2.4969577e-05
2.9909715e-05
4.0657474e-05
5.7763792e-05
8.3186028e-05
0.00012137998
0.00018288154
0.00029615362
0.00056064371
0.0014481542
2.496908e-05
2.9908616e-05
4.0655339e-05
5.7760619e-05
8.3182166e-05
0.00012137596
0.00018287793
0.00029615092
0.00056064237
0.0014481535
2.4968353e-05
2.9907346e-05
4.0653148e-05
5.7757532e-05
8.3178524e-05
0.00012137225
0.00018287465
0.00029614846
0.00056064102
0.0014481521
2.4967452e-05
2.9905962e-05
4.0650958e-05
5.7754581e-05
8.3175136e-05
0.00012136887
0.00018287169
0.00029614623
0.00056063966
0.0014481502
2.496643e-05
2.9904517e-05
4.0648819e-05
5.7751811e-05
8.3172035e-05
0.00012136583
0.00018286905
0.00029614421
0.00056063826
0.0014481478
)
;

boundaryField
{
    water_inlet
    {
        type            turbulentMixingLengthDissipationRateInlet;
        mixingLength    0.005;
        phi             phi;
        k               k;
        value           uniform 0.00011791765;
    }
    water_outlet
    {
        type            inletOutlet;
        inletValue      uniform 0.0001;
        value           nonuniform List<scalar> 10(2.496643e-05 2.9904517e-05 4.0648819e-05 5.7751811e-05 8.3172035e-05 0.00012136583 0.00018286905 0.00029614421 0.00056063826 0.0014481478);
    }
    water_wedge1
    {
        type            wedge;
    }
    water_wedge2
    {
        type            wedge;
    }
    water_to_rock
    {
        type            epsilonWallFunction;
        blending        stepwise;
        value           nonuniform List<scalar> 
100
(
0.0013048048
0.0016574915
0.0016622
0.0015600261
0.0014605605
0.0013944169
0.0013593139
0.0013440713
0.0013390508
0.0013385663
0.0013399584
0.0013422104
0.0013450169
0.001348315
0.001352094
0.0013563334
0.0013609722
0.0013659402
0.0013711908
0.0013766846
0.0013823796
0.0013882298
0.0013941868
0.0014002007
0.0014062194
0.0014121864
0.0014180397
0.0014237115
0.0014291287
0.0014342167
0.0014389039
0.0014431277
0.0014468396
0.0014500095
0.0014526284
0.0014547076
0.0014562762
0.0014573775
0.0014580638
0.0014583923
0.0014584211
0.0014582063
0.0014578004
0.0014572507
0.0014565957
0.0014558683
0.0014551006
0.0014543197
0.0014535472
0.0014527996
0.0014520894
0.0014514254
0.0014508135
0.001450257
0.0014497574
0.0014493144
0.0014489268
0.0014485923
0.0014483081
0.0014480709
0.0014478773
0.0014477232
0.0014476047
0.0014475178
0.0014474584
0.0014474228
0.0014474075
0.0014474092
0.0014474248
0.0014474517
0.0014474875
0.0014475296
0.0014475759
0.0014476244
0.0014476739
0.0014477232
0.0014477714
0.0014478176
0.0014478615
0.0014479025
0.0014479405
0.0014479751
0.0014480063
0.0014480339
0.0014480581
0.0014480789
0.0014480965
0.0014481113
0.0014481234
0.0014481332
0.0014481407
0.0014481464
0.0014481504
0.0014481528
0.001448154
0.0014481542
0.0014481535
0.0014481521
0.0014481502
0.0014481478
)
;
    }
}


// ************************************************************************* //
