/*--------------------------------*- C++ -*----------------------------------*\
| =========                 |                                                 |
| \\      /  F ield         | OpenFOAM: The Open Source CFD Toolbox           |
|  \\    /   O peration     | Version:  2506                                  |
|   \\  /    A nd           | Website:  www.openfoam.com                      |
|    \\/     M anipulation  |                                                 |
\*---------------------------------------------------------------------------*/
FoamFile
{
    version     2.0;
    format      ascii;
    arch        "LSB;label=32;scalar=64";
    class       volScalarField;
    location    "1000/water";
    object      k;
}
// * * * * * * * * * * * * * * * * * * * * * * * * * * * * * * * * * * * * * //

dimensions      [0 2 -2 0 0 0 0];

internalField   nonuniform List<scalar> 
1000
(
0.00017657855
0.00017657518
0.00017657131
0.00017655365
0.00017648098
0.00017625478
0.00017589507
0.00017764177
0.00020514192
0.00048657967
0.00013915035
0.00013915817
0.00013914641
0.00013908743
0.00013888206
0.0001383736
0.00013797747
0.00014325065
0.00019616755
0.00057072179
0.00011343696
0.00011343683
0.00011340783
0.00011329561
0.00011298241
0.0001124902
0.00011342551
0.0001264141
0.00020548439
0.00057180213
9.4956345e-05
9.4947216e-05
9.4898274e-05
9.4747991e-05
9.4461181e-05
9.4591098e-05
9.8882473e-05
0.00012463517
0.00023169875
0.00054812316
8.1180941e-05
8.1164581e-05
8.1102166e-05
8.0967055e-05
8.0960071e-05
8.2611687e-05
9.293003e-05
0.00013695776
0.0002712852
0.00052456977
7.0599818e-05
7.0579371e-05
7.0523473e-05
7.0504815e-05
7.1168288e-05
7.5594039e-05
9.529189e-05
0.00016203333
0.00031585999
0.00050861053
6.2267978e-05
6.2250533e-05
6.2239521e-05
6.249964e-05
6.4399497e-05
7.3304032e-05
0.00010610198
0.00019613567
0.00035649801
0.00050003851
5.5571434e-05
5.5570244e-05
5.5667651e-05
5.6450674e-05
6.0388977e-05
7.5971369e-05
0.00012498761
0.0002335199
0.00038871372
0.00049629335
5.0098705e-05
5.0135843e-05
5.0440286e-05
5.2102999e-05
5.919052e-05
8.398423e-05
0.00015029931
0.00026896202
0.00041246943
0.0004950567
4.5567681e-05
4.5677866e-05
4.6337511e-05
4.9391641e-05
6.1095916e-05
9.7486633e-05
0.0001792026
0.00029964253
0.00042964043
0.0004949373
4.1782808e-05
4.2019038e-05
4.3252163e-05
4.8416188e-05
6.6518044e-05
0.00011597917
0.0002086569
0.00032501729
0.0004422302
0.00049528037
3.8609683e-05
3.9051443e-05
4.1174558e-05
4.9422725e-05
7.5808351e-05
0.0001381902
0.00023642044
0.0003457203
0.0004517749
0.00049583513
3.5960361e-05
3.6725383e-05
4.0189418e-05
5.2767012e-05
8.9027952e-05
0.0001623722
0.00026138264
0.00036268811
0.00045931522
0.00049652609
3.3785888e-05
3.5046495e-05
4.0478193e-05
5.8837729e-05
0.00010577005
0.00018682839
0.00028330049
0.00037677338
0.00046551925
0.00049733749
3.207435e-05
3.4079172e-05
4.2315924e-05
6.7933524e-05
0.00012516064
0.00021031402
0.00030238122
0.00038864895
0.00047080745
0.00049826634
3.085376e-05
3.3954464e-05
4.6047998e-05
8.0117825e-05
0.00014606347
0.00023213595
0.0003189868
0.00039881693
0.00047543867
0.00049930728
3.0199523e-05
3.4878874e-05
5.2034108e-05
9.5115391e-05
0.0001673694
0.00025203054
0.00033348848
0.00040763767
0.00047952188
0.00050044502
3.0245957e-05
3.7136014e-05
6.0556089e-05
0.0001123191
0.00018821085
0.00026998846
0.00034621467
0.0004153487
0.00048317122
0.00050166213
3.1199976e-05
4.106901e-05
7.1707679e-05
0.00013091746
0.00020802821
0.00028612024
0.00035742657
0.00042213458
0.0004864921
0.0005029469
3.3351758e-05
4.7031463e-05
8.5311176e-05
0.00015007679
0.00022652212
0.00030057647
0.00036733137
0.00042815028
0.00048955842
0.00050428945
3.7070719e-05
5.5302183e-05
0.00010091006
0.0001690885
0.0002435685
0.00031350353
0.00037608904
0.00043353325
0.00049241585
0.00050567929
4.2767836e-05
6.5979685e-05
0.00011785064
0.00018743174
0.00025913436
0.00032501614
0.00038386951
0.00043837711
0.0004950907
0.00050710498
5.080575e-05
7.889941e-05
0.00013541238
0.00020475552
0.00027320745
0.00033526166
0.00039079676
0.00044274729
0.00049759726
0.00050855462
6.1362386e-05
9.3622608e-05
0.00015292609
0.00022080465
0.00028583273
0.00034436332
0.00039696059
0.00044668775
0.0004999411
0.00051001599
7.4303242e-05
0.00010951506
0.0001698048
0.00023542179
0.00029707728
0.000352411
0.00040242236
0.00045022498
0.00050212056
0.0005114764
8.9142938e-05
0.00012582835
0.00018559511
0.00024853524
0.00030699155
0.00035946522
0.00040721956
0.00045337073
0.00050412748
0.00051292224
0.00010508544
0.00014184892
0.00019999908
0.00026010287
0.00031560974
0.00036556229
0.0004113703
0.00045612456
0.00050594815
0.00051433863
0.00012123879
0.00015699702
0.0002128292
0.00027010684
0.00032295574
0.00037072161
0.00041487876
0.00045847728
0.00050756481
0.00051570926
0.00013680016
0.00017085509
0.00022398949
0.00027855563
0.00032905254
0.0003749548
0.00041774216
0.00046041549
0.00050895811
0.00051701668
0.00015116543
0.00018316368
0.00023346046
0.00028548756
0.00033393238
0.00037827564
0.00041995846
0.00046192689
0.0005101103
0.00051824311
0.00016395754
0.00019379986
0.00024128479
0.00029097218
0.00033764474
0.00038070881
0.00042153365
0.00046300568
0.00051100848
0.00051937161
0.00017500009
0.00020274851
0.00024755299
0.00029510787
0.00034026024
0.00038229564
0.00042248729
0.00046365686
0.00051164753
0.00052038741
0.00018426819
0.00021007306
0.00025238921
0.00029801616
0.00034187031
0.0003830964
0.00042285534
0.00046389878
0.00051203185
0.00052127926
0.00019183839
0.00021588913
0.00025593853
0.00029983423
0.00034258349
0.00038318897
0.00042269017
0.00046376353
0.00051217589
0.00052204034
0.00019784751
0.00022034302
0.00025835612
0.00030070723
0.00034251978
0.00038266507
0.00042205806
0.00046329537
0.00051210316
0.00052266875
0.00020246274
0.00022359535
0.00025979889
0.00030078138
0.00034180444
0.00038162505
0.00042103508
0.0004625476
0.00051184425
0.00052316742
0.00020586155
0.0002258094
0.00026041927
0.00030019841
0.00034056214
0.00038017231
0.00041970221
0.00046157865
0.00051143412
0.00052354351
0.0002082191
0.00022714333
0.00026036093
0.00029909146
0.0003389121
0.00037840809
0.00041814046
0.00046044797
0.00051090922
0.00052380746
0.00020970079
0.00022774526
0.000259756
0.00029758223
0.00033696439
0.00037642732
0.0004164267
0.00045921245
0.00051030491
0.00052397189
0.00021045826
0.00022775049
0.00025872349
0.00029577937
0.00033481755
0.00037431549
0.00041463049
0.00045792364
0.00050965349
0.00052405055
0.00021062753
0.00022728013
0.00025736865
0.00029377776
0.00033255723
0.00037214689
0.00041281212
0.00045662599
0.0005089829
0.00052405739
0.00021032863
0.00022644084
0.00025578301
0.00029165858
0.0003302559
0.00036998385
0.00041102165
0.00045535601
0.00050831616
0.00052400591
0.00020966604
0.00022532518
0.0002540449
0.0002894899
0.00032797322
0.00036787682
0.00040929895
0.0004541423
0.00050767136
0.00052390865
0.00020872956
0.00022401242
0.00025222034
0.00028732761
0.00032575688
0.00036586511
0.00040767418
0.00045300594
0.00050706184
0.00052377697
0.00020759561
0.00022256962
0.00025036408
0.00028521656
0.00032364369
0.0003639778
0.00040616849
0.00045196011
0.00050648812
0.00052362001
0.00020632849
0.00022105278
0.00024852072
0.00028319175
0.00032166088
0.00036223503
0.00040479502
0.00045100881
0.00050595641
0.00052344567
0.00020498172
0.00021950799
0.00024672586
0.00028127955
0.00031982733
0.00036064897
0.00040355822
0.00045015503
0.00050547548
0.00052326165
0.0002035993
0.00021797263
0.00024500717
0.00027949885
0.00031815455
0.00035922391
0.00040245857
0.00044940274
0.00050504939
0.00052307444
0.0002022169
0.00021647641
0.00024338542
0.00027786197
0.00031664722
0.00035795879
0.00040149661
0.00044875182
0.00050467892
0.0005228892
0.00020086294
0.0002150424
0.00024187544
0.00027637513
0.00031530427
0.00035685218
0.00040066921
0.00044819896
0.00050436269
0.00052270991
0.0001995596
0.00021368793
0.00024048623
0.00027503942
0.00031412392
0.00035589924
0.00039997024
0.0004477387
0.00050409786
0.00052253956
0.00019832344
0.00021242471
0.00023922246
0.0002738543
0.00031310124
0.00035509245
0.00039939152
0.00044736419
0.00050388071
0.00052238026
0.00019716607
0.00021126051
0.0002380862
0.00027281645
0.00031222889
0.00035442237
0.00039892356
0.00044706775
0.00050370705
0.00052223341
0.00019609555
0.00021019996
0.00023707682
0.00027192023
0.00031149773
0.0003538783
0.00039855607
0.00044684128
0.00050357239
0.00052209986
0.0001951169
0.00020924502
0.00023619147
0.00027115827
0.00031089733
0.00035344871
0.00039827837
0.00044667661
0.00050347224
0.00052197993
0.00019423258
0.0002083954
0.00023542546
0.00027052183
0.00031041643
0.00035312173
0.00039807981
0.00044656569
0.00050340215
0.00052187361
0.00019344289
0.00020764889
0.00023477266
0.00027000126
0.00031004332
0.00035288547
0.00039794997
0.00044650082
0.00050335792
0.00052178056
0.00019274632
0.00020700175
0.00023422585
0.00026958633
0.00030976624
0.00035272834
0.00039787893
0.00044647483
0.00050333562
0.00052170026
0.00019213995
0.00020644908
0.00023377709
0.00026926658
0.00030957359
0.00035263924
0.00039785743
0.00044648109
0.00050333167
0.00052163203
0.00019161968
0.00020598503
0.00023341795
0.00026903151
0.00030945419
0.00035260774
0.00039787692
0.00044651358
0.00050334279
0.00052157509
0.00019118055
0.00020560316
0.00023313975
0.00026887084
0.0003093974
0.00035262414
0.0003979296
0.00044656691
0.00050336605
0.00052152857
0.00019081695
0.00020529657
0.0002329338
0.00026877465
0.00030939322
0.00035267952
0.00039800841
0.00044663621
0.00050339879
0.00052149155
0.00019052281
0.00020505812
0.00023279149
0.00026873347
0.00030943238
0.00035276577
0.00039810705
0.00044671719
0.00050343862
0.00052146307
0.00019029178
0.0002048806
0.00023270445
0.00026873837
0.00030950633
0.00035287559
0.00039821991
0.00044680607
0.00050348344
0.00052144218
0.0001901174
0.00020475685
0.00023266468
0.00026878107
0.00030960736
0.00035300248
0.0003983421
0.00044689958
0.00050353142
0.00052142792
0.0001899932
0.00020467988
0.00023266462
0.00026885398
0.00030972855
0.00035314077
0.00039846941
0.00044699496
0.00050358099
0.00052141938
0.00018991284
0.00020464299
0.00023269722
0.00026895022
0.0003098638
0.00035328558
0.00039859833
0.00044708992
0.00050363086
0.00052141571
0.00018987022
0.00020463985
0.00023275605
0.00026906369
0.00031000787
0.0003534328
0.00039872594
0.00044718263
0.00050368
0.00052141611
0.00018985956
0.00020466457
0.00023283526
0.00026918902
0.00031015625
0.00035357902
0.00039884993
0.00044727164
0.00050372758
0.00052141986
0.00018987546
0.00020471175
0.00023292967
0.00026932159
0.00031030519
0.00035372149
0.00039896847
0.00044735588
0.00050377296
0.00052142633
0.00018991293
0.00020477649
0.00023303467
0.00026945743
0.00031045159
0.00035385802
0.00039908017
0.00044743452
0.00050381565
0.0005214349
0.00018996744
0.00020485439
0.00023314628
0.00026959322
0.00031059296
0.00035398692
0.000399184
0.00044750693
0.00050385489
0.00052144501
0.00019003488
0.00020494154
0.00023326105
0.0002697262
0.00031072729
0.0003541069
0.00039927919
0.0004475725
0.0005038902
0.00052145611
0.0001901116
0.00020503455
0.00023337609
0.00026985414
0.00031085307
0.00035421706
0.00039936518
0.00044763089
0.00050392168
0.00052146778
0.00019019438
0.00020513044
0.00023348895
0.00026997528
0.00031096921
0.00035431678
0.00039944163
0.00044768214
0.00050394952
0.00052147968
0.00019028043
0.00020522672
0.00023359768
0.00027008831
0.00031107496
0.00035440568
0.00039950858
0.0004477266
0.00050397391
0.00052149154
0.00019036737
0.00020532131
0.00023370075
0.0002701923
0.00031116984
0.00035448376
0.00039956644
0.00044776463
0.00050399501
0.00052150312
0.00019045322
0.00020541254
0.00023379701
0.0002702866
0.00031125374
0.00035455139
0.00039961569
0.00044779667
0.00050401302
0.00052151425
0.00019053639
0.00020549911
0.00023388561
0.00027037092
0.00031132692
0.0003546091
0.00039965693
0.00044782319
0.00050402817
0.00052152479
0.00019061562
0.00020558001
0.00023396604
0.00027044531
0.00031138982
0.00035465753
0.0003996908
0.00044784467
0.00050404069
0.00052153466
0.00019068993
0.00020565453
0.00023403809
0.00027051003
0.00031144303
0.00035469738
0.00039971796
0.00044786162
0.00050405081
0.00052154377
0.00019075865
0.00020572227
0.00023410177
0.00027056549
0.0003114872
0.0003547294
0.00039973908
0.00044787451
0.00050405877
0.00052155209
0.00019082133
0.00020578302
0.00023415726
0.00027061221
0.00031152306
0.00035475435
0.00039975482
0.00044788381
0.00050406479
0.00052155957
0.00019087776
0.00020583679
0.00023420488
0.0002706508
0.00031155135
0.00035477298
0.00039976581
0.00044788995
0.00050406907
0.00052156621
0.00019092789
0.0002058837
0.00023424506
0.00027068191
0.00031157285
0.00035478602
0.00039977265
0.00044789336
0.00050407182
0.00052157202
0.0001909718
0.00020592401
0.00023427829
0.00027070624
0.00031158833
0.0003547942
0.00039977595
0.00044789446
0.00050407325
0.00052157702
0.00019100971
0.00020595808
0.00023430514
0.00027072451
0.00031159856
0.00035479824
0.00039977628
0.00044789364
0.00050407359
0.00052158126
0.00019104192
0.00020598633
0.00023432623
0.00027073746
0.00031160428
0.00035479882
0.00039977419
0.00044789128
0.00050407304
0.0005215848
0.00019106882
0.00020600926
0.00023434216
0.00027074579
0.00031160623
0.00035479657
0.00039977019
0.00044788774
0.00050407178
0.0005215877
0.00019109083
0.00020602736
0.00023435358
0.00027075019
0.00031160505
0.00035479207
0.00039976472
0.00044788331
0.00050406999
0.00052159002
0.00019110841
0.00020604117
0.00023436107
0.0002707513
0.00031160136
0.00035478585
0.00039975816
0.00044787826
0.00050406779
0.00052159183
0.00019112201
0.0002060512
0.00023436522
0.0002707497
0.0003115957
0.00035477833
0.00039975086
0.0004478728
0.00050406531
0.00052159318
0.00019113209
0.00020605793
0.00023436655
0.00027074594
0.00031158855
0.00035476992
0.0003997431
0.0004478671
0.00050406264
0.00052159411
0.00019113909
0.00020606184
0.00023436556
0.00027074047
0.00031158032
0.00035476094
0.00039973511
0.00044786134
0.00050405987
0.0005215947
0.00019114344
0.00020606336
0.00023436268
0.00027073373
0.00031157138
0.00035475169
0.0003997271
0.00044785563
0.00050405706
0.00052159498
0.00019114553
0.0002060629
0.00023435833
0.00027072609
0.00031156205
0.00035474241
0.00039971925
0.0004478501
0.00050405431
0.00052159501
0.00019114572
0.00020606083
0.00023435287
0.00027071788
0.00031155261
0.00035473331
0.00039971171
0.00044784483
0.00050405165
0.00052159484
0.00019114435
0.00020605749
0.00023434661
0.00027070937
0.00031154326
0.00035472455
0.00039970457
0.0004478399
0.00050404913
0.00052159451
0.00019114173
0.00020605316
0.00023433983
0.00027070079
0.0003115342
0.00035471625
0.00039969791
0.00044783532
0.00050404676
0.00052159404
0.00019113814
0.00020604813
0.00023433277
0.00027069235
0.00031152554
0.00035470847
0.00039969174
0.00044783109
0.00050404451
0.00052159348
)
;

boundaryField
{
    water_inlet
    {
        type            turbulentIntensityKineticEnergyInlet;
        intensity       0.05;
        value           uniform 0.000234375;
    }
    water_outlet
    {
        type            inletOutlet;
        inletValue      uniform 0.0001;
        value           nonuniform List<scalar> 10(0.00019113814 0.00020604813 0.00023433277 0.00027069235 0.00031152554 0.00035470847 0.00039969174 0.00044783109 0.00050404451 0.00052159348);
    }
    water_wedge1
    {
        type            wedge;
    }
    water_wedge2
    {
        type            wedge;
    }
    water_to_rock
    {
        type            kqRWallFunction;
        value           nonuniform List<scalar> 
100
(
0.00048657967
0.00057072179
0.00057180213
0.00054812316
0.00052456977
0.00050861053
0.00050003851
0.00049629335
0.0004950567
0.0004949373
0.00049528037
0.00049583513
0.00049652609
0.00049733749
0.00049826634
0.00049930728
0.00050044502
0.00050166213
0.0005029469
0.00050428945
0.00050567929
0.00050710498
0.00050855462
0.00051001599
0.0005114764
0.00051292224
0.00051433863
0.00051570926
0.00051701668
0.00051824311
0.00051937161
0.00052038741
0.00052127926
0.00052204034
0.00052266875
0.00052316742
0.00052354351
0.00052380746
0.00052397189
0.00052405055
0.00052405739
0.00052400591
0.00052390865
0.00052377697
0.00052362001
0.00052344567
0.00052326165
0.00052307444
0.0005228892
0.00052270991
0.00052253956
0.00052238026
0.00052223341
0.00052209986
0.00052197993
0.00052187361
0.00052178056
0.00052170026
0.00052163203
0.00052157509
0.00052152857
0.00052149155
0.00052146307
0.00052144218
0.00052142792
0.00052141938
0.00052141571
0.00052141611
0.00052141986
0.00052142633
0.0005214349
0.00052144501
0.00052145611
0.00052146778
0.00052147968
0.00052149154
0.00052150312
0.00052151425
0.00052152479
0.00052153466
0.00052154377
0.00052155209
0.00052155957
0.00052156621
0.00052157202
0.00052157702
0.00052158126
0.0005215848
0.0005215877
0.00052159002
0.00052159183
0.00052159318
0.00052159411
0.0005215947
0.00052159498
0.00052159501
0.00052159484
0.00052159451
0.00052159404
0.00052159348
)
;
    }
}


// ************************************************************************* //
