/*--------------------------------*- C++ -*----------------------------------*\
| =========                 |                                                 |
| \\      /  F ield         | OpenFOAM: The Open Source CFD Toolbox           |
|  \\    /   O peration     | Version:  2506                                  |
|   \\  /    A nd           | Website:  www.openfoam.com                      |
|    \\/     M anipulation  |                                                 |
\*---------------------------------------------------------------------------*/
FoamFile
{
    version     2.0;
    format      ascii;
    arch        "LSB;label=32;scalar=64";
    class       volScalarField;
    location    "1000/water";
    object      nut;
}
// * * * * * * * * * * * * * * * * * * * * * * * * * * * * * * * * * * * * * //

dimensions      [0 2 -1 0 0 0 0];

internalField   nonuniform List<scalar> 
1000
(
3.8760013e-05
3.8759344e-05
3.875781e-05
3.8749425e-05
3.8703919e-05
3.8465194e-05
3.7257946e-05
3.1920746e-05
1.9133704e-05
1.6330702e-05
3.6503362e-05
3.6502673e-05
3.6496232e-05
3.646333e-05
3.6309099e-05
3.5625575e-05
3.2857819e-05
2.4520503e-05
1.4670669e-05
1.7686427e-05
3.4818769e-05
3.4815355e-05
3.4798028e-05
3.4720761e-05
3.4400236e-05
3.3155723e-05
2.8966463e-05
2.0114727e-05
1.4313152e-05
1.7703159e-05
3.3515366e-05
3.3507685e-05
3.3473492e-05
3.3336597e-05
3.281981e-05
3.0995904e-05
2.581637e-05
1.8304942e-05
1.5980772e-05
1.7332729e-05
3.247679e-05
3.2463573e-05
3.2409014e-05
3.2208505e-05
3.1494137e-05
2.9122844e-05
2.3598685e-05
1.8669538e-05
1.8895614e-05
1.6956237e-05
3.1628598e-05
3.1609534e-05
3.1536362e-05
3.1282476e-05
3.0382832e-05
2.7534909e-05
2.2595922e-05
2.084135e-05
2.2319113e-05
1.6696313e-05
3.0922115e-05
3.0899106e-05
3.0816964e-05
3.05329e-05
2.945511e-05
2.6339691e-05
2.3103587e-05
2.4287721e-05
2.5587449e-05
1.6555017e-05
3.0325436e-05
3.0303992e-05
3.0232566e-05
2.9948373e-05
2.8695941e-05
2.5833962e-05
2.5183877e-05
2.8331545e-05
2.8356018e-05
1.6492903e-05
2.9818405e-05
2.9809192e-05
2.977926e-05
2.9521751e-05
2.8157773e-05
2.640473e-05
2.8559838e-05
3.2392837e-05
3.0574224e-05
1.6472342e-05
2.9389964e-05
2.9410465e-05
2.9462793e-05
2.9249372e-05
2.8031504e-05
2.8288318e-05
3.2740229e-05
3.6145731e-05
3.2325757e-05
1.6470356e-05
2.9037017e-05
2.9113039e-05
2.9294067e-05
2.9152072e-05
2.863508e-05
3.1431686e-05
3.7231798e-05
3.9484759e-05
3.3719898e-05
1.6476062e-05
2.8764319e-05
2.8930776e-05
2.928588e-05
2.9323212e-05
3.026988e-05
3.5542693e-05
4.1683896e-05
4.2418044e-05
3.4850541e-05
1.6485286e-05
2.8585091e-05
2.8885083e-05
2.9456452e-05
2.9967028e-05
3.3062469e-05
4.0234078e-05
4.5910915e-05
4.4991644e-05
3.5787851e-05
1.649677e-05
2.8522073e-05
2.9003182e-05
2.984945e-05
3.1360408e-05
3.6918825e-05
4.5156946e-05
4.9841378e-05
4.7257391e-05
3.6581219e-05
1.6510246e-05
2.8608623e-05
2.9316838e-05
3.0571151e-05
3.3736651e-05
4.1586953e-05
5.0067229e-05
5.3461927e-05
4.9262607e-05
3.7264818e-05
1.6525656e-05
2.8889279e-05
2.9866096e-05
3.1814712e-05
3.7180906e-05
4.6760381e-05
5.4824606e-05
5.6783828e-05
5.1047252e-05
3.7861798e-05
1.6542907e-05
2.9419576e-05
3.0715821e-05
3.3825222e-05
4.1605794e-05
5.2164746e-05
5.935956e-05
5.9827139e-05
5.2642472e-05
3.8381974e-05
1.6561742e-05
3.026675e-05
3.1985587e-05
3.6807802e-05
4.6798601e-05
5.7598832e-05
6.3641754e-05
6.2613389e-05
5.4068852e-05
3.884165e-05
1.6581868e-05
3.1517142e-05
3.3868968e-05
4.084251e-05
5.2497698e-05
6.2933778e-05
6.7660692e-05
6.5161233e-05
5.5349644e-05
3.9251473e-05
1.6603089e-05
3.3297272e-05
3.6603604e-05
4.5858075e-05
5.8459111e-05
6.8092652e-05
7.1415755e-05
6.748919e-05
5.6504261e-05
3.9619214e-05
1.6625237e-05
3.5799934e-05
4.0389621e-05
5.1664379e-05
6.4491217e-05
7.3029271e-05
7.4907684e-05
6.9617705e-05
5.7547496e-05
3.9950838e-05
1.6648133e-05
3.9277458e-05
4.5307179e-05
5.8014291e-05
7.0457486e-05
7.7711493e-05
7.8146411e-05
7.1563672e-05
5.8491254e-05
4.0250677e-05
1.6671586e-05
4.396827e-05
5.128311e-05
6.4662029e-05
7.6260831e-05
8.2121157e-05
8.1142925e-05
7.3340761e-05
5.9344859e-05
4.0521849e-05
1.6695397e-05
4.9983093e-05
5.8114347e-05
7.1396144e-05
8.1829819e-05
8.6249449e-05
8.3905748e-05
7.4959615e-05
6.0115289e-05
4.0766496e-05
1.6719366e-05
5.7223932e-05
6.5522452e-05
7.8046067e-05
8.7114027e-05
9.0089686e-05
8.6440435e-05
7.6427685e-05
6.0807337e-05
4.0985916e-05
1.6743283e-05
6.538631e-05
7.320872e-05
8.4484888e-05
9.2075803e-05
9.3633479e-05
8.8749037e-05
7.7749228e-05
6.1423766e-05
4.1180647e-05
1.676693e-05
7.4040666e-05
8.090042e-05
9.0617689e-05
9.6681788e-05
9.6870433e-05
9.0830245e-05
7.8925584e-05
6.1965536e-05
4.1350564e-05
1.6790066e-05
8.2742659e-05
8.8367221e-05
9.6367836e-05
0.00010090285
9.9789191e-05
9.2680341e-05
7.995587e-05
6.2432229e-05
4.1495054e-05
1.6812426e-05
9.111886e-05
9.5426833e-05
0.00010167409
0.00010471543
0.00010237951
9.4294884e-05
8.0838129e-05
6.2822703e-05
4.1613273e-05
1.6833727e-05
9.8904906e-05
0.0001019459
0.00010649081
0.00010810352
0.00010463471
9.5670768e-05
8.1570745e-05
6.3135904e-05
4.1704475e-05
1.6853683e-05
0.00010594434
0.00010783804
0.00011078894
0.00011106024
0.00010655378
9.6808132e-05
8.2153839e-05
6.3371683e-05
4.1768345e-05
1.6872021e-05
0.00011216744
0.00011305896
0.00011455632
0.00011358863
0.00010814255
9.7711684e-05
8.2590333e-05
6.3531456e-05
4.180526e-05
1.6888509e-05
0.00011756555
0.0001175993
0.00011779679
0.00011570134
0.00010941397
9.8391235e-05
8.2886517e-05
6.3618578e-05
4.1816438e-05
1.690297e-05
0.00012216906
0.00012147636
0.00012052798
0.00011741944
0.00011038735
9.886149e-05
8.3052083e-05
6.3638422e-05
4.1803963e-05
1.6915303e-05
0.00012603113
0.00012472621
0.00012277855
0.00011877079
0.00011108721
9.9141284e-05
8.3099718e-05
6.3598173e-05
4.1770677e-05
1.6925482e-05
0.00012921673
0.00012739689
0.00012458513
0.00011978811
0.00011154175
9.9252497e-05
8.3044398e-05
6.3506414e-05
4.1719995e-05
1.6933557e-05
0.00013179567
0.00012954313
0.00012598945
0.00012050716
0.00011178136
9.9218828e-05
8.2902508e-05
6.3372584e-05
4.1655658e-05
1.6939646e-05
0.00013383825
0.00013122239
0.00012703583
0.00012096504
0.00011183719
9.9064595e-05
8.2690921e-05
6.3206395e-05
4.1581476e-05
1.6943917e-05
0.00013541253
0.00013249202
0.00012776914
0.00012119872
0.00011173991
9.8813655e-05
8.2426156e-05
6.3017287e-05
4.1501092e-05
1.6946576e-05
0.00013658277
0.00013340737
0.00012823315
0.00012124388
0.00011151872
9.8488536e-05
8.2123683e-05
6.2813983e-05
4.1417794e-05
1.6947846e-05
0.00013740838
0.00013402044
0.00012846943
0.00012113405
0.00011120065
9.8109812e-05
8.1797432e-05
6.2604182e-05
4.1334396e-05
1.6947954e-05
0.00013794351
0.00013437916
0.00012851653
0.00012090002
0.00011081012
9.7695737e-05
8.1459512e-05
6.2394393e-05
4.1253188e-05
1.694712e-05
0.00013823684
0.00013452698
0.00012840956
0.00012056953
0.00011036871
9.7262093e-05
8.1120112e-05
6.21899e-05
4.1175933e-05
1.6945547e-05
0.00013833171
0.00013450281
0.00012818004
0.00012016725
0.00010989516
9.6822204e-05
8.0787535e-05
6.1994809e-05
4.1103902e-05
1.6943418e-05
0.00013826634
0.00013434111
0.00012785592
0.0001197147
0.00010940546
9.638701e-05
8.0468225e-05
6.1811879e-05
4.1036855e-05
1.6940879e-05
0.0001380742
0.00013407213
0.00012746167
0.00011923047
0.00010891292
9.5965181e-05
8.0166788e-05
6.1642173e-05
4.0975925e-05
1.693806e-05
0.00013778435
0.00013372219
0.00012701847
0.00011873029
0.00010842835
9.556318e-05
7.9885775e-05
6.1487785e-05
4.0921589e-05
1.6935082e-05
0.00013742185
0.00013331395
0.00012654442
0.00011822721
0.00010796015
9.518517e-05
7.9628319e-05
6.1349516e-05
4.0874011e-05
1.6932053e-05
0.00013700809
0.00013286668
0.00012605466
0.00011773165
0.00010751423
9.483544e-05
7.9395868e-05
6.1227585e-05
4.0833109e-05
1.6929055e-05
0.00013656109
0.00013239652
0.00012556145
0.00011725156
0.0001070963
9.4516393e-05
7.9188954e-05
6.1121747e-05
4.0798607e-05
1.6926153e-05
0.00013609575
0.0001319166
0.00012507487
0.00011679429
0.00010671007
9.4229243e-05
7.9007404e-05
6.1031397e-05
4.0770106e-05
1.6923395e-05
0.00013562438
0.00013143812
0.0001246037
0.00011636512
0.00010635783
9.3974273e-05
7.8850497e-05
6.0955668e-05
4.0747122e-05
1.6920815e-05
0.0001351574
0.00013097041
0.00012415471
0.00011596778
0.00010604077
9.3751015e-05
7.8717089e-05
6.0893512e-05
4.0729133e-05
1.6918437e-05
0.00013470331
0.00013052091
0.00012373299
0.00011560468
0.00010575911
9.3558403e-05
7.8605724e-05
6.0843765e-05
4.0715596e-05
1.6916273e-05
0.00013426883
0.00013009534
0.00012334217
0.00011527708
0.00010551228
9.3394899e-05
7.8514723e-05
6.0805197e-05
4.0705968e-05
1.691433e-05
0.00013385909
0.00012969792
0.00012298457
0.00011498527
0.00010529907
9.3258614e-05
7.8442263e-05
6.0776555e-05
4.0699721e-05
1.6912607e-05
0.00013347783
0.00012933154
0.00012266146
0.00011472876
0.0001051178
9.3147421e-05
7.8386455e-05
6.0756601e-05
4.0696352e-05
1.69111e-05
0.00013312755
0.00012899798
0.00012237318
0.00011450644
0.00010496642
9.3059059e-05
7.8345407e-05
6.0744144e-05
4.0695392e-05
1.69098e-05
0.00013280971
0.00012869808
0.00012211933
0.00011431671
0.00010484266
9.2991215e-05
7.8317281e-05
6.0738066e-05
4.0696416e-05
1.6908694e-05
0.00013252493
0.00012843187
0.00012189892
0.00011415764
0.00010474411
9.2941594e-05
7.8300318e-05
6.0737337e-05
4.0699041e-05
1.6907771e-05
0.00013227306
0.00012819877
0.0001217105
0.00011402701
0.00010466829
9.2907956e-05
7.8292867e-05
6.0741008e-05
4.0702926e-05
1.6907016e-05
0.00013205341
0.00012799765
0.00012155226
0.00011392248
0.00010461273
9.2888143e-05
7.8293379e-05
6.0748218e-05
4.0707768e-05
1.6906415e-05
0.00013186475
0.00012782697
0.0001214221
0.00011384154
0.00010457496
9.2880096e-05
7.8300422e-05
6.0758186e-05
4.0713297e-05
1.6905952e-05
0.00013170547
0.00012768485
0.00012131772
0.00011378169
0.00010455259
9.2881875e-05
7.8312677e-05
6.0770211e-05
4.0719276e-05
1.6905613e-05
0.00013157366
0.00012756916
0.00012123669
0.00011374038
0.00010454331
9.2891672e-05
7.8328947e-05
6.078367e-05
4.0725498e-05
1.6905382e-05
0.00013146717
0.00012747758
0.00012117652
0.00011371516
0.00010454497
9.2907836e-05
7.8348167e-05
6.0798022e-05
4.073179e-05
1.6905243e-05
0.00013138368
0.00012740772
0.00012113472
0.00011370365
0.00010455556
9.2928883e-05
7.8369405e-05
6.0812809e-05
4.0738009e-05
1.6905184e-05
0.00013132083
0.00012735715
0.00012110889
0.00011370365
0.00010457326
9.2953506e-05
7.8391865e-05
6.0827651e-05
4.0744043e-05
1.6905191e-05
0.00013127627
0.0001273235
0.00012109671
0.00011371311
0.00010459645
9.2980571e-05
7.8414879e-05
6.0842242e-05
4.0749804e-05
1.6905252e-05
0.00013124769
0.00012730448
0.00012109604
0.00011373017
0.00010462371
9.3009112e-05
7.8437895e-05
6.0856341e-05
4.0755229e-05
1.6905356e-05
0.00013123287
0.00012729791
0.00012110488
0.00011375317
0.00010465376
9.3038306e-05
7.8460463e-05
6.0869761e-05
4.0760275e-05
1.6905495e-05
0.00013122972
0.00012730176
0.00012112139
0.0001137806
0.00010468554
9.306746e-05
7.8482212e-05
6.0882347e-05
4.0764861e-05
1.6905658e-05
0.00013123627
0.00012731414
0.00012114389
0.00011381114
0.00010471809
9.3095986e-05
7.8502833e-05
6.0893943e-05
4.0768967e-05
1.6905838e-05
0.00013125068
0.00012733328
0.00012117087
0.00011384359
0.00010475059
9.3123389e-05
7.8522054e-05
6.0904475e-05
4.0772613e-05
1.6906027e-05
0.00013127125
0.00012735758
0.00012120094
0.00011387693
0.00010478235
9.3149251e-05
7.85397e-05
6.0913932e-05
4.0775811e-05
1.6906221e-05
0.00013129644
0.0001273856
0.00012123292
0.00011391028
0.00010481279
9.3173271e-05
7.8555705e-05
6.0922308e-05
4.077858e-05
1.6906414e-05
0.00013132486
0.00012741605
0.00012126575
0.00011394287
0.00010484148
9.31953e-05
7.8570027e-05
6.0929625e-05
4.0780942e-05
1.6906603e-05
0.0001313553
0.00012744782
0.00012129853
0.00011397414
0.00010486814
9.3215236e-05
7.8582672e-05
6.0935925e-05
4.0782924e-05
1.6906784e-05
0.0001313867
0.00012747995
0.00012133058
0.00011400368
0.0001048926
9.323305e-05
7.8593688e-05
6.0941267e-05
4.0784556e-05
1.6906956e-05
0.0001314182
0.0001275117
0.00012136138
0.00011403121
0.00010491476
9.3248768e-05
7.8603151e-05
6.0945721e-05
4.0785871e-05
1.6907116e-05
0.00013144913
0.00012754248
0.00012139051
0.00011405654
0.00010493459
9.3262454e-05
7.8611157e-05
6.0949363e-05
4.0786902e-05
1.6907264e-05
0.00013147895
0.00012757184
0.0001214177
0.00011407954
0.0001049521
9.3274201e-05
7.8617808e-05
6.0952268e-05
4.0787681e-05
1.6907398e-05
0.00013150725
0.00012759944
0.00012144273
0.00011410017
0.00010496736
9.3284115e-05
7.8623214e-05
6.0954508e-05
4.0788237e-05
1.690752e-05
0.00013153373
0.00012762502
0.00012146548
0.00011411842
0.00010498045
9.3292317e-05
7.862748e-05
6.0956155e-05
4.0788598e-05
1.6907628e-05
0.00013155817
0.00012764841
0.00012148586
0.00011413434
0.00010499147
9.3298936e-05
7.8630718e-05
6.0957277e-05
4.0788789e-05
1.6907722e-05
0.00013158042
0.00012766952
0.00012150389
0.00011414799
0.00010500057
9.3304112e-05
7.8633041e-05
6.0957941e-05
4.0788835e-05
1.6907803e-05
0.00013160041
0.00012768832
0.00012151961
0.00011415951
0.0001050079
9.3307998e-05
7.8634563e-05
6.0958216e-05
4.0788761e-05
1.6907872e-05
0.00013161816
0.00012770485
0.00012153311
0.00011416904
0.00010501363
9.331075e-05
7.8635403e-05
6.0958169e-05
4.0788591e-05
1.6907929e-05
0.00013163371
0.00012771918
0.00012154453
0.00011417677
0.00010501795
9.3312527e-05
7.8635675e-05
6.0957864e-05
4.0788348e-05
1.6907976e-05
0.00013164718
0.00012773145
0.00012155403
0.00011418287
0.00010502103
9.3313479e-05
7.8635482e-05
6.0957359e-05
4.0788052e-05
1.6908013e-05
0.00013165868
0.0001277418
0.00012156179
0.00011418753
0.00010502305
9.3313744e-05
7.8634918e-05
6.0956703e-05
4.078772e-05
1.6908041e-05
0.00013166838
0.00012775038
0.00012156796
0.00011419092
0.00010502416
9.3313444e-05
7.8634063e-05
6.0955936e-05
4.0787366e-05
1.6908062e-05
0.00013167641
0.00012775737
0.00012157274
0.00011419321
0.00010502451
9.3312687e-05
7.8632986e-05
6.0955095e-05
4.0786999e-05
1.6908077e-05
0.00013168294
0.00012776291
0.00012157627
0.00011419456
0.00010502422
9.3311569e-05
7.8631748e-05
6.0954208e-05
4.078663e-05
1.6908086e-05
0.0001316881
0.00012776716
0.00012157871
0.0001141951
0.00010502342
9.331018e-05
7.8630404e-05
6.0953301e-05
4.0786267e-05
1.690809e-05
0.00013169206
0.00012777028
0.00012158022
0.00011419498
0.00010502223
9.3308601e-05
7.8629002e-05
6.0952399e-05
4.0785915e-05
1.6908091e-05
0.00013169495
0.00012777241
0.00012158094
0.00011419433
0.00010502074
9.3306902e-05
7.8627587e-05
6.0951522e-05
4.0785583e-05
1.6908088e-05
0.00013169691
0.00012777369
0.00012158099
0.00011419325
0.00010501904
9.3305145e-05
7.8626192e-05
6.0950685e-05
4.0785273e-05
1.6908082e-05
0.00013169805
0.00012777424
0.00012158051
0.00011419185
0.0001050172
9.3303377e-05
7.8624843e-05
6.0949899e-05
4.0784989e-05
1.6908075e-05
0.00013169848
0.00012777417
0.00012157958
0.00011419021
0.00010501528
9.3301627e-05
7.8623552e-05
6.0949164e-05
4.0784728e-05
1.6908066e-05
)
;

boundaryField
{
    water_inlet
    {
        type            calculated;
        value           uniform 4.1926275e-05;
    }
    water_outlet
    {
        type            calculated;
        value           nonuniform List<scalar> 10(0.00013169848 0.00012777417 0.00012157958 0.00011419021 0.00010501528 9.3301627e-05 7.8623552e-05 6.0949164e-05 4.0784728e-05 1.6908066e-05);
    }
    water_wedge1
    {
        type            wedge;
    }
    water_wedge2
    {
        type            wedge;
    }
    water_to_rock
    {
        type            nutkWallFunction;
        blending        stepwise;
        value           nonuniform List<scalar> 
100
(
1.7358471e-06
1.9240026e-06
1.9263124e-06
1.8751056e-06
1.8229114e-06
1.786787e-06
1.7671183e-06
1.7584649e-06
1.7555995e-06
1.7553226e-06
1.756118e-06
1.7574036e-06
1.7590038e-06
1.7608812e-06
1.7630282e-06
1.7654316e-06
1.7680553e-06
1.7708583e-06
1.7738129e-06
1.7768958e-06
1.7800825e-06
1.7833461e-06
1.7866593e-06
1.7899939e-06
1.7933208e-06
1.7966093e-06
1.7998257e-06
1.8029334e-06
1.8058934e-06
1.8086663e-06
1.8112144e-06
1.8135054e-06
1.8155147e-06
1.8172279e-06
1.8186413e-06
1.8197623e-06
1.8206073e-06
1.8212001e-06
1.8215694e-06
1.821746e-06
1.8217613e-06
1.8216458e-06
1.8214274e-06
1.8211317e-06
1.8207791e-06
1.8203875e-06
1.819974e-06
1.8195533e-06
1.8191369e-06
1.8187339e-06
1.8183508e-06
1.8179925e-06
1.8176622e-06
1.8173618e-06
1.8170919e-06
1.8168527e-06
1.8166433e-06
1.8164625e-06
1.8163089e-06
1.8161808e-06
1.816076e-06
1.8159927e-06
1.8159286e-06
1.8158815e-06
1.8158494e-06
1.8158302e-06
1.8158219e-06
1.8158228e-06
1.8158313e-06
1.8158458e-06
1.8158651e-06
1.8158879e-06
1.8159129e-06
1.8159392e-06
1.815966e-06
1.8159927e-06
1.8160187e-06
1.8160438e-06
1.8160675e-06
1.8160897e-06
1.8161103e-06
1.816129e-06
1.8161458e-06
1.8161608e-06
1.8161738e-06
1.8161851e-06
1.8161947e-06
1.8162026e-06
1.8162091e-06
1.8162144e-06
1.8162184e-06
1.8162215e-06
1.8162236e-06
1.8162249e-06
1.8162255e-06
1.8162256e-06
1.8162252e-06
1.8162245e-06
1.8162234e-06
1.8162221e-06
)
;
    }
}


// ************************************************************************* //
