/*--------------------------------*- C++ -*----------------------------------*\
| =========                 |                                                 |
| \\      /  F ield         | OpenFOAM: The Open Source CFD Toolbox           |
|  \\    /   O peration     | Version:  2506                                  |
|   \\  /    A nd           | Website:  www.openfoam.com                      |
|    \\/     M anipulation  |                                                 |
\*---------------------------------------------------------------------------*/
FoamFile
{
    version     2.0;
    format      ascii;
    arch        "LSB;label=32;scalar=64";
    class       volScalarField;
    location    "1000/water";
    object      T;
}
// * * * * * * * * * * * * * * * * * * * * * * * * * * * * * * * * * * * * * //

dimensions      [0 0 0 1 0 0 0];

internalField   nonuniform List<scalar> 
1000
(
333.15
333.15
333.15
333.14999
333.14998
333.14991
333.14966
333.14882
333.14551
333.13076
333.15
333.15
333.14999
333.14998
333.14992
333.14971
333.14908
333.1471
333.14009
333.1175
333.15
333.15
333.14999
333.14995
333.14981
333.14941
333.14827
333.14491
333.13427
333.10745
333.15
333.14999
333.14997
333.14989
333.14966
333.149
333.14722
333.14225
333.12848
333.09963
333.14999
333.14998
333.14995
333.14982
333.14945
333.14846
333.1459
333.1391
333.12305
333.09367
333.14999
333.14997
333.14991
333.14971
333.14917
333.14778
333.14424
333.13555
333.1182
333.08927
333.14998
333.14996
333.14986
333.14958
333.14882
333.14691
333.14219
333.13181
333.11406
333.08607
333.14997
333.14993
333.14979
333.1494
333.14836
333.14579
333.13976
333.12814
333.1106
333.08373
333.14996
333.1499
333.14971
333.14917
333.14777
333.14439
333.13708
333.12475
333.10772
333.08195
333.14993
333.14986
333.14959
333.14886
333.14702
333.14268
333.13429
333.12172
333.10531
333.08056
333.14991
333.1498
333.14944
333.14847
333.14605
333.14072
333.13155
333.11905
333.10327
333.07944
333.14987
333.14973
333.14925
333.14796
333.14485
333.13859
333.12897
333.11671
333.10153
333.0785
333.14982
333.14963
333.14899
333.1473
333.14342
333.13639
333.12658
333.11465
333.10001
333.07769
333.14976
333.1495
333.14865
333.14647
333.1418
333.13421
333.12439
333.11281
333.09867
333.07698
333.14967
333.14933
333.14821
333.14545
333.14005
333.1321
333.1224
333.11117
333.09747
333.07634
333.14956
333.1491
333.14764
333.14424
333.13822
333.1301
333.12057
333.10968
333.09639
333.07577
333.1494
333.14879
333.14692
333.14286
333.13638
333.12821
333.1189
333.10833
333.0954
333.07524
333.1492
333.14839
333.14603
333.14136
333.13457
333.12644
333.11736
333.10709
333.09449
333.07475
333.14892
333.14787
333.14497
333.13977
333.1328
333.12477
333.11592
333.10593
333.09364
333.07428
333.14854
333.14719
333.14375
333.13815
333.1311
333.12321
333.11459
333.10486
333.09285
333.07383
333.14803
333.14635
333.1424
333.13651
333.12947
333.12174
333.11334
333.10385
333.09209
333.07339
333.14735
333.14533
333.14095
333.13489
333.12791
333.12035
333.11216
333.1029
333.09137
333.07296
333.14648
333.14414
333.13942
333.13329
333.12641
333.11902
333.11104
333.10199
333.09067
333.07253
333.14539
333.14278
333.13785
333.13172
333.12497
333.11777
333.10997
333.10111
333.09
333.0721
333.14406
333.14128
333.13626
333.13019
333.12359
333.11656
333.10895
333.10027
333.08934
333.07166
333.14252
333.13967
333.13465
333.1287
333.12225
333.1154
333.10796
333.09945
333.08869
333.07122
333.14081
333.13797
333.13304
333.12723
333.12095
333.11427
333.107
333.09865
333.08804
333.07076
333.13896
333.13621
333.13143
333.12579
333.11969
333.11317
333.10606
333.09785
333.08739
333.07029
333.13704
333.13441
333.12983
333.12438
333.11845
333.1121
333.10513
333.09707
333.08674
333.06979
333.13508
333.1326
333.12823
333.12298
333.11723
333.11104
333.10422
333.09628
333.08608
333.06928
333.13311
333.13079
333.12664
333.1216
333.11603
333.10999
333.1033
333.09549
333.0854
333.06874
333.13117
333.12901
333.12507
333.12024
333.11484
333.10895
333.10239
333.09469
333.08471
333.06817
333.12927
333.12725
333.12353
333.11889
333.11366
333.10792
333.10148
333.09388
333.084
333.06757
333.12742
333.12553
333.12201
333.11755
333.11249
333.10688
333.10056
333.09306
333.08327
333.06694
333.12563
333.12386
333.12051
333.11624
333.11133
333.10585
333.09963
333.09223
333.08251
333.06627
333.1239
333.12223
333.11905
333.11494
333.11017
333.10481
333.09869
333.09137
333.08173
333.06557
333.12223
333.12065
333.11762
333.11366
333.10902
333.10377
333.09775
333.0905
333.08093
333.06484
333.12062
333.11912
333.11622
333.11239
333.10788
333.10273
333.09679
333.08961
333.0801
333.06407
333.11906
333.11763
333.11484
333.11114
333.10674
333.10169
333.09582
333.0887
333.07924
333.06327
333.11756
333.11619
333.1135
333.10991
333.10561
333.10064
333.09484
333.08778
333.07836
333.06244
333.1161
333.11478
333.11219
333.1087
333.10449
333.09959
333.09385
333.08684
333.07746
333.06158
333.11469
333.11342
333.11091
333.1075
333.10337
333.09853
333.09285
333.08588
333.07654
333.06069
333.11332
333.11209
333.10965
333.10632
333.10225
333.09748
333.09184
333.08491
333.0756
333.05978
333.11198
333.11079
333.10841
333.10515
333.10114
333.09642
333.09082
333.08392
333.07464
333.05885
333.11068
333.10952
333.10719
333.10399
333.10004
333.09536
333.08979
333.08292
333.07366
333.0579
333.10941
333.10827
333.10599
333.10284
333.09893
333.09429
333.08876
333.08191
333.07267
333.05692
333.10817
333.10705
333.10481
333.1017
333.09783
333.09322
333.08772
333.08089
333.07167
333.05594
333.10695
333.10585
333.10364
333.10057
333.09674
333.09215
333.08667
333.07986
333.07065
333.05493
333.10575
333.10467
333.10249
333.09944
333.09564
333.09108
333.08562
333.07882
333.06963
333.05392
333.10457
333.1035
333.10135
333.09833
333.09455
333.09001
333.08456
333.07778
333.06859
333.05289
333.10341
333.10235
333.10021
333.09722
333.09346
333.08893
333.0835
333.07672
333.06755
333.05186
333.10226
333.10121
333.09909
333.09611
333.09237
333.08786
333.08243
333.07567
333.0665
333.05081
333.10112
333.10008
333.09797
333.09501
333.09128
333.08678
333.08136
333.0746
333.06544
333.04976
333.09999
333.09896
333.09686
333.09391
333.09019
333.0857
333.08029
333.07354
333.06438
333.0487
333.09887
333.09784
333.09576
333.09281
333.0891
333.08461
333.07921
333.07246
333.06331
333.04764
333.09776
333.09674
333.09465
333.09171
333.08801
333.08353
333.07813
333.07139
333.06224
333.04657
333.09665
333.09563
333.09355
333.09062
333.08692
333.08245
333.07705
333.07031
333.06117
333.0455
333.09555
333.09453
333.09246
333.08953
333.08583
333.08136
333.07597
333.06923
333.06009
333.04442
333.09445
333.09344
333.09136
333.08844
333.08474
333.08027
333.07488
333.06815
333.05901
333.04334
333.09336
333.09234
333.09027
333.08734
333.08365
333.07919
333.0738
333.06707
333.05793
333.04225
333.09226
333.09125
333.08918
333.08625
333.08256
333.0781
333.07271
333.06598
333.05684
333.04117
333.09117
333.09016
333.08809
333.08516
333.08147
333.07701
333.07162
333.06489
333.05576
333.04008
333.09008
333.08907
333.087
333.08407
333.08038
333.07592
333.07053
333.0638
333.05467
333.03898
333.08899
333.08798
333.08591
333.08298
333.07929
333.07482
333.06944
333.06271
333.05357
333.03789
333.0879
333.08689
333.08482
333.08189
333.07819
333.07373
333.06835
333.06162
333.05248
333.03679
333.08681
333.0858
333.08372
333.08079
333.0771
333.07264
333.06725
333.06053
333.05139
333.03569
333.08572
333.08471
333.08263
333.0797
333.07601
333.07154
333.06616
333.05943
333.05029
333.03458
333.08463
333.08361
333.08154
333.07861
333.07491
333.07045
333.06506
333.05833
333.04919
333.03347
333.08354
333.08252
333.08044
333.07751
333.07381
333.06935
333.06396
333.05724
333.04809
333.03236
333.08245
333.08143
333.07935
333.07641
333.07272
333.06825
333.06287
333.05614
333.04698
333.03125
333.08135
333.08033
333.07825
333.07532
333.07162
333.06715
333.06177
333.05503
333.04588
333.03014
333.08026
333.07924
333.07716
333.07422
333.07052
333.06605
333.06066
333.05393
333.04477
333.02902
333.07916
333.07814
333.07606
333.07312
333.06942
333.06495
333.05956
333.05282
333.04366
333.02789
333.07806
333.07704
333.07496
333.07202
333.06832
333.06385
333.05846
333.05172
333.04255
333.02677
333.07696
333.07594
333.07386
333.07092
333.06722
333.06274
333.05735
333.05061
333.04143
333.02563
333.07586
333.07484
333.07276
333.06982
333.06611
333.06164
333.05624
333.0495
333.04031
333.0245
333.07476
333.07374
333.07165
333.06871
333.06501
333.06053
333.05513
333.04838
333.03919
333.02336
333.07366
333.07264
333.07055
333.06761
333.0639
333.05942
333.05402
333.04726
333.03806
333.02221
333.07256
333.07153
333.06944
333.0665
333.06279
333.05831
333.05291
333.04614
333.03693
333.02106
333.07145
333.07043
333.06834
333.06539
333.06168
333.0572
333.05179
333.04502
333.0358
333.0199
333.07034
333.06932
333.06723
333.06428
333.06057
333.05609
333.05067
333.04389
333.03466
333.01874
333.06924
333.06821
333.06612
333.06317
333.05946
333.05497
333.04955
333.04276
333.03351
333.01757
333.06813
333.0671
333.06501
333.06206
333.05834
333.05385
333.04842
333.04163
333.03237
333.01639
333.06702
333.06599
333.0639
333.06094
333.05722
333.05273
333.04729
333.04049
333.03121
333.0152
333.0659
333.06488
333.06278
333.05983
333.0561
333.0516
333.04616
333.03935
333.03005
333.014
333.06479
333.06376
333.06167
333.05871
333.05498
333.05048
333.04503
333.0382
333.02888
333.01279
333.06368
333.06265
333.06055
333.05759
333.05386
333.04934
333.04389
333.03705
333.02771
333.01157
333.06256
333.06153
333.05943
333.05647
333.05273
333.04821
333.04274
333.03589
333.02653
333.01034
333.06144
333.06041
333.05831
333.05534
333.0516
333.04707
333.0416
333.03473
333.02534
333.0091
333.06032
333.05929
333.05719
333.05421
333.05047
333.04593
333.04044
333.03355
333.02414
333.00784
333.0592
333.05817
333.05606
333.05308
333.04933
333.04478
333.03928
333.03238
333.02293
333.00656
333.05807
333.05704
333.05493
333.05195
333.04819
333.04363
333.03812
333.03119
333.02171
333.00527
333.05695
333.05591
333.0538
333.05081
333.04704
333.04248
333.03694
333.02999
333.02047
333.00395
333.05582
333.05478
333.05266
333.04967
333.04589
333.04131
333.03576
333.02879
333.01922
333.00261
333.05469
333.05365
333.05153
333.04853
333.04474
333.04014
333.03458
333.02757
333.01796
333.00124
333.05355
333.05251
333.05038
333.04738
333.04358
333.03897
333.03338
333.02634
333.01667
332.99984
333.05241
333.05137
333.04924
333.04622
333.04241
333.03779
333.03217
333.02509
333.01536
332.99839
333.05127
333.05023
333.04809
333.04506
333.04124
333.03659
333.03095
333.02383
333.01402
332.99689
333.05013
333.04908
333.04693
333.0439
333.04006
333.03539
333.02971
333.02254
333.01264
332.99529
333.04898
333.04793
333.04578
333.04273
333.03887
333.03417
333.02845
333.02121
333.01119
332.99352
)
;

boundaryField
{
    water_inlet
    {
        type            fixedValue;
        value           uniform 333.15;
    }
    water_outlet
    {
        type            zeroGradient;
    }
    water_wedge1
    {
        type            wedge;
    }
    water_wedge2
    {
        type            wedge;
    }
    water_to_rock
    {
        type            compressible::turbulentTemperatureRadCoupledMixed;
        refValue        nonuniform List<scalar> 
100
(
314.95179
319.14902
320.94786
321.99754
322.71834
323.2601
323.69045
324.04498
324.34448
324.60212
324.82675
325.02462
325.20026
325.3571
325.49779
325.62441
325.73866
325.84192
325.93535
326.01995
326.09658
326.16597
326.2288
326.28564
326.33703
326.38343
326.42527
326.46295
326.49682
326.5272
326.5544
326.57867
326.60027
326.61944
326.63637
326.65128
326.66433
326.6757
326.68553
326.69396
326.70113
326.70714
326.71211
326.71614
326.71931
326.72171
326.7234
326.72445
326.72493
326.72488
326.72435
326.72339
326.72202
326.72028
326.7182
326.7158
326.71309
326.7101
326.70682
326.70328
326.69947
326.6954
326.69105
326.68643
326.68152
326.67631
326.67078
326.66491
326.65868
326.65205
326.645
326.63748
326.62945
326.62087
326.61167
326.60181
326.59122
326.57982
326.56753
326.55426
326.53991
326.52438
326.50753
326.48923
326.46931
326.44761
326.42391
326.39798
326.36952
326.3382
326.3036
326.26519
326.22228
326.17393
326.1188
326.05485
325.97864
325.88349
325.75302
325.53021
)
;
        refGradient     uniform 0;
        valueFraction   nonuniform List<scalar> 
100
(
0.015817679
0.014384089
0.014368103
0.01473105
0.015120365
0.015402091
0.015559942
0.015630418
0.015653896
0.015656169
0.015649642
0.015639105
0.015626011
0.015610675
0.015593174
0.015573628
0.015552347
0.015529676
0.015505851
0.015481069
0.015455537
0.015429475
0.015403106
0.015376657
0.015350359
0.015324454
0.015299201
0.015274882
0.015251791
0.015230222
0.015210454
0.015192724
0.015177207
0.015164003
0.015153127
0.015144513
0.015138027
0.01513348
0.015130648
0.015129294
0.015129175
0.01513006
0.015131735
0.015134003
0.015136707
0.015139713
0.015142887
0.015146119
0.015149318
0.015152417
0.015155363
0.015158119
0.015160661
0.015162974
0.015165051
0.015166894
0.015168508
0.015169901
0.015171085
0.015172073
0.01517288
0.015173522
0.015174016
0.015174378
0.015174626
0.015174774
0.015174838
0.015174831
0.015174766
0.015174654
0.015174505
0.015174329
0.015174136
0.015173934
0.015173727
0.015173522
0.015173321
0.015173128
0.015172946
0.015172774
0.015172616
0.015172472
0.015172342
0.015172227
0.015172126
0.01517204
0.015171966
0.015171904
0.015171854
0.015171813
0.015171782
0.015171758
0.015171742
0.015171731
0.015171726
0.015171726
0.015171729
0.015171734
0.015171743
0.015171753
)
;
        source          uniform 0;
        value           nonuniform List<scalar> 
100
(
332.84321
332.91658
332.93274
332.93608
332.93679
332.93788
332.93988
332.94244
332.94517
332.94782
332.95028
332.95254
332.95459
332.95646
332.95816
332.95972
332.96113
332.96242
332.96358
332.96462
332.96555
332.96638
332.9671
332.96773
332.96827
332.96872
332.96907
332.96934
332.96953
332.96962
332.96963
332.96956
332.9694
332.96915
332.96882
332.96841
332.96793
332.96737
332.96675
332.96607
332.96533
332.96454
332.96371
332.96283
332.96192
332.96098
332.96002
332.95902
332.95801
332.95698
332.95593
332.95487
332.9538
332.95271
332.95162
332.95052
332.94941
332.94829
332.94717
332.94604
332.94491
332.94377
332.94262
332.94147
332.94031
332.93914
332.93797
332.93679
332.9356
332.93441
332.9332
332.93199
332.93076
332.92952
332.92827
332.927
332.92572
332.92441
332.92309
332.92175
332.92039
332.919
332.91758
332.91614
332.91466
332.91314
332.91158
332.90997
332.90831
332.9066
332.90482
332.90296
332.90101
332.89896
332.89677
332.89442
332.89184
332.88891
332.88536
332.88023
)
;
        logInterval     -1;
        writePrecision  8;
        updateHeader    1;
        writeToFile     0;
        useUserTime     1;
        kappaMethod     fluidThermo;
    }
}


// ************************************************************************* //
