/*--------------------------------*- C++ -*----------------------------------*\
| =========                 |                                                 |
| \\      /  F ield         | OpenFOAM: The Open Source CFD Toolbox           |
|  \\    /   O peration     | Version:  2506                                  |
|   \\  /    A nd           | Website:  www.openfoam.com                      |
|    \\/     M anipulation  |                                                 |
\*---------------------------------------------------------------------------*/
FoamFile
{
    version     2.0;
    format      ascii;
    arch        "LSB;label=32;scalar=64";
    class       volVectorField;
    location    "1000/water";
    object      U;
}
// * * * * * * * * * * * * * * * * * * * * * * * * * * * * * * * * * * * * * //

dimensions      [0 1 -1 0 0 0 0];

internalField   nonuniform List<vector> 
1000
(
(0.25225587 -0.00012859766 2.1407634e-18)
(0.25226258 -0.00027067835 1.0868046e-18)
(0.25227485 -0.00041450539 2.3563329e-18)
(0.25228819 -0.00055572715 3.5416267e-19)
(0.25229018 -0.00068575789 5.7836091e-19)
(0.25223998 -0.00079863171 1.7020566e-19)
(0.25200713 -0.00089615193 -9.2713448e-20)
(0.25115686 -0.0010460356 -3.7118541e-19)
(0.24780473 -0.0012820719 -1.1510175e-19)
(0.23308261 0.0010121611 -5.2495103e-19)
(0.25653043 -7.733044e-05 4.1488393e-19)
(0.25653977 -0.00018903828 1.8488417e-18)
(0.25655871 -0.00029096533 2.6996505e-18)
(0.25657276 -0.00039024483 5.5753015e-19)
(0.25654377 -0.00048175034 7.7914051e-19)
(0.25636039 -0.00055898436 2.3761326e-19)
(0.25570613 -0.00060536489 -1.2748523e-19)
(0.25355952 -0.00065441352 -4.5890275e-19)
(0.24574266 -0.00084724763 -1.8224802e-19)
(0.21968686 0.00025718811 -4.3790084e-19)
(0.26021787 -7.3909957e-05 -1.7705607e-18)
(0.26022468 -0.00018059827 -7.5409644e-20)
(0.26023383 -0.00027741902 1.0646767e-18)
(0.26021807 -0.00037159729 3.8492225e-19)
(0.26010153 -0.00045735754 3.1500857e-19)
(0.25968006 -0.00053044566 3.2769206e-21)
(0.25840621 -0.00057093035 -1.9592178e-19)
(0.25452353 -0.00056554644 -3.4792402e-19)
(0.24186464 -0.00061987584 -3.3101538e-19)
(0.20839343 1.1253188e-05 -3.2820015e-19)
(0.26340526 -6.8945977e-05 1.3637441e-19)
(0.26340956 -0.00017058505 -2.772844e-19)
(0.26340597 -0.00026279223 9.4249797e-19)
(0.2633478 -0.00035138358 7.8297913e-19)
(0.26310913 -0.0004295112 1.1235786e-20)
(0.26237282 -0.00049394952 -1.8487884e-19)
(0.26030372 -0.00052750887 -2.5734897e-19)
(0.25430845 -0.00049289731 -4.2289103e-19)
(0.23723184 -0.00045934044 -4.233851e-19)
(0.19958847 -4.8875398e-05 -4.0629717e-19)
(0.26641628 -6.4388967e-05 -1.926091e-18)
(0.26641555 -0.00015946875 1.4303559e-18)
(0.266392 -0.00024539861 1.1616251e-18)
(0.26627267 -0.00032748771 1.0229109e-18)
(0.26586988 -0.00039791757 1.0772408e-19)
(0.26472852 -0.00045250633 1.3510109e-19)
(0.26164539 -0.00047360848 -2.9602685e-20)
(0.25321243 -0.00041483753 -3.9233608e-19)
(0.23271017 -0.00033459192 -3.70027e-19)
(0.19329522 -5.0633247e-05 -4.341519e-19)
(0.26927574 -6.0867525e-05 3.4596423e-19)
(0.26926716 -0.00015024328 1.3632788e-18)
(0.2692148 -0.00023070445 1.2366886e-18)
(0.26901237 -0.00030702743 6.2258459e-19)
(0.26839647 -0.00037050021 1.389326e-19)
(0.26673517 -0.00041493292 2.8225763e-19)
(0.26236786 -0.00041871939 -3.3946244e-20)
(0.25136275 -0.00033835161 -3.0937612e-19)
(0.22869804 -0.00023663008 -1.7186739e-19)
(0.18902135 -3.9495646e-05 -3.0596623e-19)
(0.27197991 -5.8057523e-05 2.7803678e-18)
(0.27196007 -0.00014287132 2.2956998e-18)
(0.27186829 -0.00021894831 5.7538983e-21)
(0.2715565 -0.00029030353 2.3104641e-19)
(0.27066608 -0.00034729003 3.0620312e-20)
(0.26833152 -0.00038068322 -1.1151138e-19)
(0.26239847 -0.00036437342 -2.7406893e-19)
(0.24902638 -0.00026852595 -2.796017e-19)
(0.225361 -0.00016272825 -1.1691551e-19)
(0.18616828 -2.8774752e-05 -2.5159539e-19)
(0.27455816 -5.586182e-05 -1.20285e-18)
(0.27452281 -0.00013703207 1.6793318e-18)
(0.27437848 -0.00020952013 3.5149522e-19)
(0.27392442 -0.00027640504 2.4904139e-19)
(0.27267857 -0.00032682101 1.7846577e-19)
(0.26947686 -0.00034738451 1.1979719e-19)
(0.26178465 -0.00031092707 -3.9326557e-20)
(0.24657379 -0.00020816899 -2.6775434e-19)
(0.2227152 -0.0001105012 -3.5833135e-19)
(0.1842584 -2.0836582e-05 -2.4795276e-19)
(0.27704027 -5.4085723e-05 -3.4989155e-20)
(0.27698407 -0.00013225436 5.3621763e-19)
(0.27677058 -0.00020162576 1.3115659e-18)
(0.27613171 -0.00026417297 4.0571725e-19)
(0.27442313 -0.00030720603 3.8314976e-20)
(0.27014171 -0.00031294803 1.645893e-19)
(0.26068996 -0.00025925833 -2.090778e-20)
(0.2442983 -0.00015836506 -1.7981467e-19)
(0.22067582 -7.5409054e-05 -1.5301246e-19)
(0.182962 -1.5153671e-05 -9.4469149e-20)
(0.2794434 -5.2555727e-05 3.4970828e-18)
(0.27935955 -0.00012814131 1.9634004e-18)
(0.27905543 -0.00019460749 2.8142761e-19)
(0.27817575 -0.00025259237 5.768482e-19)
(0.27586797 -0.00028673458 1.9421191e-19)
(0.27032643 -0.00027659223 2.259055e-20)
(0.25933499 -0.00021094064 -1.3562451e-19)
(0.24234213 -0.00011891271 -3.5935147e-20)
(0.21912382 -5.2172545e-05 -1.195282e-19)
(0.182066 -1.0946116e-05 -2.0806055e-19)
(0.28177654 -5.1166622e-05 2.177118e-18)
(0.28165619 -0.00012441964 7.118106e-19)
(0.2812333 -0.00018797287 -2.4063079e-19)
(0.28003901 -0.00024077438 1.1057012e-18)
(0.27697398 -0.00026417616 4.6785891e-19)
(0.27008761 -0.00023880365 4.7109246e-20)
(0.25792266 -0.00016762278 -7.0162809e-20)
(0.24073178 -8.8481054e-05 -5.8987194e-20)
(0.21795021 -3.6445692e-05 -2.2855485e-19)
(0.18143937 -7.6993978e-06 -2.1109189e-19)
(0.28404476 -4.9854738e-05 1.7120564e-18)
(0.28387625 -0.00012089415 8.1233501e-19)
(0.28329739 -0.00018132898 8.7327256e-20)
(0.28169344 -0.00022787688 3.5964769e-19)
(0.27771472 -0.00023897338 2.1537477e-19)
(0.26953508 -0.00020087485 -1.3873941e-19)
(0.25659136 -0.00013036442 -2.4229307e-19)
(0.23943779 -6.5170778e-05 -2.3267776e-19)
(0.21706902 -2.5325084e-05 -1.3591058e-19)
(0.18100325 -5.1219662e-06 -1.7948548e-19)
(0.28625048 -4.8572101e-05 1.9435945e-18)
(0.28601827 -0.00011740093 4.2463308e-19)
(0.28523426 -0.00017430192 2.7417316e-19)
(0.28310493 -0.00021314189 8.4978411e-20)
(0.27809437 -0.00021129055 2.3106306e-19)
(0.2687994 -0.00016439818 1.2502387e-19)
(0.25541091 -9.9329586e-05 -1.2942229e-19)
(0.23841399 -4.7156117e-05 -1.405182e-19)
(0.21641539 -1.7079258e-05 -1.3964783e-19)
(0.18070894 -3.0438129e-06 -1.6807895e-19)
(0.28839354 -4.7270988e-05 1.024541e-18)
(0.28807682 -0.00011377582 4.5466682e-19)
(0.28702341 -0.00016645996 3.4094089e-19)
(0.28424077 -0.00019602625 2.6088812e-19)
(0.27815548 -0.00018188582 3.9863215e-19)
(0.26799599 -0.00013079057 3.4056672e-20)
(0.25440306 -7.393829e-05 -2.8322405e-19)
(0.23761476 -3.3005141e-05 -2.4547316e-19)
(0.21594075 -1.0717093e-05 -2.9355035e-19)
(0.1805245 -1.3533627e-06 -2.6779528e-19)
(0.29047097 -4.5891453e-05 2.7620409e-19)
(0.29004195 -0.00010982914 2.9461618e-18)
(0.28863779 -0.00015729317 7.993153e-19)
(0.28508023 -0.0001763388 -2.045508e-21)
(0.27797082 -0.00015188771 2.9822528e-19)
(0.26720625 -0.00010094754 7.9927547e-20)
(0.25356401 -5.3259789e-05 -2.4848977e-19)
(0.23700054 -2.1699683e-05 -3.1052781e-19)
(0.21560861 -5.6605297e-06 -2.925032e-19)
(0.18042758 3.348731e-08 -1.5693303e-19)
(0.29247637 -4.4351489e-05 -2.3976685e-19)
(0.29189831 -0.00010531332 5.6310832e-20)
(0.29004631 -0.00014628198 9.7994584e-19)
(0.28562471 -0.00015430646 1.1694981e-18)
(0.27762409 -0.00012253939 4.9243388e-19)
(0.26647733 -7.5147878e-05 1.4382427e-19)
(0.25287923 -3.635783e-05 1.6562084e-19)
(0.23653862 -1.2544443e-05 4.8819211e-21)
(0.2153911 -1.5277224e-06 -3.9155851e-20)
(0.18040202 1.205685e-06 6.5048336e-20)
(0.294399 -4.2542567e-05 1.1255392e-18)
(0.2936244 -9.9894403e-05 5.957156e-19)
(0.2912191 -0.00013303005 5.2175373e-19)
(0.28590173 -0.00013054487 9.5050352e-19)
(0.27719085 -9.4943294e-05 5.1348855e-19)
(0.26583134 -5.3197265e-05 9.394872e-20)
(0.25233097 -2.2451621e-05 1.5642259e-19)
(0.23620235 -5.0192648e-06 3.1055203e-20)
(0.21526449 1.8983534e-06 -6.1612234e-20)
(0.18043772 2.194017e-06 -1.5066285e-19)
(0.29622248 -4.0322183e-05 1.141433e-18)
(0.29519258 -9.3155135e-05 5.4687068e-19)
(0.29213503 -0.0001173926 1.798979e-20)
(0.28595988 -0.00010594274 9.1055642e-19)
(0.27672821 -6.985613e-05 1.0769076e-19)
(0.26527516 -3.4647979e-05 4.5812476e-19)
(0.2519011 -1.0909319e-05 2.6892004e-19)
(0.23596806 1.233271e-06 2.3495998e-21)
(0.21521692 4.7071034e-06 -6.1150524e-20)
(0.18052214 2.9891529e-06 -8.4391297e-20)
(0.29792334 -3.7501213e-05 1.0527047e-18)
(0.29657068 -8.4660166e-05 2.5240882e-19)
(0.29278917 -9.955173e-05 1.1694108e-19)
(0.285857 -8.1495521e-05 2.6365522e-19)
(0.27627356 -4.7618545e-05 2.267912e-19)
(0.26480713 -1.8982989e-05 1.9798677e-19)
(0.25157193 -1.252939e-06 -1.1478562e-19)
(0.23582162 6.4214919e-06 -4.6095755e-20)
(0.21523438 6.9898547e-06 -4.8470297e-21)
(0.18064614 3.6207003e-06 -1.7073809e-19)
(0.29946982 -3.3841572e-05 -6.1150389e-19)
(0.29772602 -7.408008e-05 1.2441247e-18)
(0.29319627 -8.0019553e-05 -7.9253211e-20)
(0.28564802 -5.812576e-05 -2.0163415e-18)
(0.2758486 -2.8225194e-05 -2.723507e-20)
(0.26442119 -5.690374e-06 -3.465664e-19)
(0.25132937 6.8560477e-06 -2.7944409e-19)
(0.23575039 1.0704621e-05 -3.2784747e-20)
(0.21530526 8.8448827e-06 -8.2476885e-20)
(0.18080247 4.1234254e-06 -4.8489159e-21)
(0.30082183 -2.9094892e-05 -1.6863228e-19)
(0.29863173 -6.1332297e-05 1.4935781e-18)
(0.29338821 -5.9567444e-05 -4.3733151e-19)
(0.28537717 -3.6523198e-05 -1.0200096e-18)
(0.27546382 -1.1418142e-05 -6.7357396e-19)
(0.26410765 5.6151775e-06 -4.3779639e-19)
(0.25116541 1.362188e-05 -4.1224217e-19)
(0.23574182 1.4218252e-05 -1.1610744e-19)
(0.21542014 1.0353783e-05 -6.0920967e-20)
(0.18098522 4.5257739e-06 1.7764994e-19)
(0.30193373 -2.3108886e-05 1.7570445e-18)
(0.29927336 -4.6685137e-05 9.9066792e-19)
(0.29340601 -3.9092512e-05 -6.3533021e-19)
(0.28507546 -1.7049001e-05 5.5531761e-19)
(0.27512088 3.082013e-06 5.9949412e-19)
(0.26386445 1.5138218e-05 -9.9461326e-20)
(0.25106783 1.9207721e-05 -1.6081188e-19)
(0.23578541 1.7092761e-05 -3.9497004e-20)
(0.21557121 1.1579301e-05 5.3978313e-20)
(0.18118949 4.8469894e-06 -2.220022e-20)
(0.30276109 -1.5977195e-05 -7.6466003e-19)
(0.29965286 -3.0773817e-05 -6.93706e-19)
(0.29329056 -1.9437365e-05 -7.9377559e-19)
(0.28476121 1.6631097e-07 -5.317873e-19)
(0.27482457 1.5439115e-05 4.6211768e-19)
(0.2636834 2.3069904e-05 -2.9006464e-19)
(0.2510265 2.3800852e-05 3.9260506e-19)
(0.23587241 1.943298e-05 1.4713212e-19)
(0.21575199 1.2563879e-05 1.3033675e-19)
(0.18141106 5.0984792e-06 1.3954909e-19)
(0.30327134 -8.1281086e-06 1.2890197e-18)
(0.29978734 -1.4486655e-05 1.6147442e-18)
(0.29307479 -1.3061723e-06 -5.6745615e-19)
(0.28444919 1.5038788e-05 -2.1962465e-19)
(0.27457434 2.5803507e-05 -5.8322272e-19)
(0.26355616 2.9613414e-05 -2.1255212e-19)
(0.25103263 2.7544671e-05 -1.7420847e-19)
(0.23599543 2.1311471e-05 1.4098731e-20)
(0.21595696 1.3336133e-05 1.6066232e-20)
(0.18164628 5.2874923e-06 1.0296962e-19)
(0.30345398 -2.4239801e-07 -7.4970548e-20)
(0.29970264 1.1328014e-06 9.507078e-19)
(0.29278638 1.466233e-05 -6.1344598e-19)
(0.28414894 2.7526088e-05 -1.0757931e-18)
(0.27436561 3.4337457e-05 -6.7626923e-19)
(0.26347497 3.4931021e-05 -1.6234562e-19)
(0.25107852 3.0537504e-05 -2.5374179e-19)
(0.2361481 2.2775692e-05 -6.7476251e-20)
(0.21618129 1.3913905e-05 -1.9084584e-20)
(0.1818918 5.4178852e-06 4.6032563e-20)
(0.30332514 6.8810518e-06 -3.3121349e-18)
(0.29943296 1.4985098e-05 -9.284585e-19)
(0.29244689 2.7994485e-05 -7.1833234e-19)
(0.28386232 3.7677529e-05 -1.9944594e-18)
(0.27419302 4.1188366e-05 -1.4706997e-18)
(0.26343257 3.9129488e-05 -8.1691983e-19)
(0.2511573 3.2837903e-05 -9.293653e-20)
(0.23632475 2.385106e-05 -5.7351339e-20)
(0.21642058 1.4304484e-05 6.784783e-21)
(0.18214446 5.4899666e-06 1.2676629e-19)
(0.30293052 1.2606912e-05 2.0111257e-18)
(0.29901531 2.6252939e-05 -9.24386e-19)
(0.29206923 3.8508205e-05 -7.9058159e-19)
(0.28358875 4.5590239e-05 4.2516344e-19)
(0.27405095 4.6452619e-05 5.1052514e-19)
(0.26342219 4.2267723e-05 5.4441779e-20)
(0.25126271 3.4473217e-05 4.1117058e-20)
(0.23652015 2.4544755e-05 -1.683487e-20)
(0.21667066 1.4505981e-05 -3.5097987e-20)
(0.1824011 5.5009734e-06 -1.2222372e-20)
(0.30233164 1.6685796e-05 5.2445022e-19)
(0.29848532 3.4600278e-05 -4.804536e-19)
(0.29166293 4.6230816e-05 -8.7350984e-19)
(0.28332651 5.1359548e-05 -1.060443e-19)
(0.2739338 5.0194288e-05 2.4127219e-19)
(0.26343753 4.4377528e-05 3.6086893e-20)
(0.25138894 3.545176e-05 1.8639762e-19)
(0.23672935 2.4852493e-05 9.2761938e-20)
(0.2169274 1.4510948e-05 6.016372e-20)
(0.18265841 5.4464737e-06 1.3789883e-20)
(0.30159325 1.9181303e-05 1.297731e-18)
(0.29787658 4.0082931e-05 2.8200117e-18)
(0.29123635 5.1325442e-05 4.0082421e-19)
(0.28307383 5.5100947e-05 2.7458036e-19)
(0.27383647 5.2475666e-05 -8.2892341e-19)
(0.2634728 4.5484271e-05 2.845286e-20)
(0.25153052 3.5776294e-05 -3.5276844e-19)
(0.2369475 2.4767147e-05 1.8001282e-21)
(0.2171866 1.4311237e-05 7.274104e-20)
(0.18291289 5.3222273e-06 1.4819075e-20)
(0.3007741 2.0343075e-05 6.6723277e-19)
(0.29721995 4.3028007e-05 7.4758531e-19)
(0.29079789 5.4061012e-05 2.7364342e-20)
(0.28282962 5.6972306e-05 -2.9589638e-19)
(0.27375459 5.3379603e-05 6.5770687e-20)
(0.26352281 4.562439e-05 3.6900302e-19)
(0.25168237 3.5456975e-05 -1.2847963e-19)
(0.23716991 2.428727e-05 -1.5047595e-19)
(0.217444 1.3902682e-05 -4.4895309e-20)
(0.18316089 5.1258368e-06 -2.3556417e-20)
(0.29992228 2.0483196e-05 -3.0880728e-18)
(0.29654265 4.3897568e-05 -2.4012837e-18)
(0.29035628 5.4778734e-05 -7.171434e-19)
(0.28259386 5.7179633e-05 -1.7450767e-18)
(0.27368476 5.3021959e-05 -6.1733843e-19)
(0.26358307 4.4857979e-05 -7.6967202e-19)
(0.25183983 3.4521602e-05 2.1933988e-19)
(0.2373921 2.3424068e-05 -2.8205711e-20)
(0.21769541 1.3288909e-05 -2.1842323e-20)
(0.18339875 4.8579921e-06 8.1736437e-20)
(0.29907432 1.9896632e-05 3.1542604e-18)
(0.29586752 4.3178838e-05 -7.150578e-20)
(0.28992025 5.3854272e-05 9.1402387e-19)
(0.28236753 5.5968576e-05 1.4990071e-18)
(0.27362458 5.1553826e-05 7.6971413e-19)
(0.2636499 4.3274553e-05 7.8543057e-20)
(0.25199879 3.3021488e-05 1.5052713e-19)
(0.23760989 2.2205901e-05 6.6025623e-20)
(0.21793684 1.2484129e-05 7.4021003e-20)
(0.18362298 4.5235721e-06 2.997009e-20)
(0.29825624 1.8826502e-05 7.6353078e-19)
(0.2952127 4.1316793e-05 2.9436265e-19)
(0.28949802 5.1662071e-05 -1.6231327e-19)
(0.28215239 5.3606863e-05 9.4561281e-20)
(0.27357257 4.91545e-05 6.9809611e-19)
(0.26372036 4.0991103e-05 7.0149835e-19)
(0.25215571 3.1031536e-05 1.8342726e-19)
(0.23781957 2.0678826e-05 5.3242858e-20)
(0.21816468 1.151352e-05 6.9305699e-20)
(0.18383048 4.1317207e-06 4.0915267e-20)
(0.2974855 1.7458433e-05 1.4118428e-18)
(0.29459173 3.8684559e-05 4.3706015e-18)
(0.28909673 4.8548747e-05 5.6941542e-19)
(0.28195056 5.0364949e-05 -6.7459404e-20)
(0.27352799 4.6019576e-05 -3.3362913e-19)
(0.26379222 3.8145059e-05 -1.6967296e-19)
(0.25230768 2.8646069e-05 -4.3969629e-19)
(0.23801799 1.8904181e-05 -1.4146632e-19)
(0.2183759 1.0412053e-05 -1.0052713e-19)
(0.18401873 3.6954947e-06 1.2714944e-20)
(0.29677296 1.5927929e-05 7.2012884e-19)
(0.294014 3.5578077e-05 2.0085859e-18)
(0.28872212 4.4817148e-05 9.0395952e-19)
(0.28176413 4.6499113e-05 8.9448627e-20)
(0.27349054 4.2347393e-05 -4.6124748e-19)
(0.26386387 3.4884095e-05 -5.2345959e-19)
(0.25245239 2.5971362e-05 -2.7456288e-19)
(0.23820263 1.6953444e-05 -6.657601e-20)
(0.21856815 9.2214785e-06 -4.3804032e-20)
(0.18418593 3.2307514e-06 3.7564761e-20)
(0.29612451 1.4331091e-05 -2.4623432e-18)
(0.29348542 3.222298e-05 -3.1037213e-18)
(0.28837835 4.0719726e-05 -1.1857407e-18)
(0.2815949 4.2239251e-05 -2.007167e-18)
(0.27346017 3.8326608e-05 -8.8486388e-19)
(0.26393412 3.1355227e-05 -7.7205665e-19)
(0.25258814 2.311675e-05 3.1114714e-20)
(0.23837164 1.4901595e-05 9.8408311e-20)
(0.21873985 7.9860871e-06 8.0862358e-20)
(0.18433108 2.7543951e-06 1.1770442e-19)
(0.29554248 1.2734708e-05 4.2442356e-18)
(0.29300906 2.8786217e-05 -4.4477779e-20)
(0.28806808 3.6458852e-05 2.1166771e-19)
(0.28144414 3.7782105e-05 9.6646549e-19)
(0.27343685 3.4127016e-05 9.9684269e-19)
(0.26400214 2.7695611e-05 5.0393898e-19)
(0.25271368 2.0186543e-05 1.6333951e-19)
(0.23852382 1.282085e-05 1.1203603e-19)
(0.21889019 6.7486713e-06 8.8703703e-20)
(0.18445399 2.2827572e-06 -4.0142703e-20)
(0.29502662 1.118414e-05 1.4069463e-20)
(0.29258576 2.5387832e-05 -5.3242725e-19)
(0.28779257 3.2190892e-05 -6.4014118e-20)
(0.28131252 3.3288769e-05 3.1169488e-19)
(0.27342051 2.9893693e-05 5.6613447e-19)
(0.26406732 2.4025671e-05 7.3310626e-19)
(0.25282826 1.7273512e-05 3.2259396e-19)
(0.23865857 1.0775408e-05 1.0201616e-19)
(0.21901905 5.5469633e-06 3.2294067e-20)
(0.18455516 1.8300684e-06 -3.735694e-20)
(0.29457493 9.7092565e-06 6.7775158e-19)
(0.29221472 2.2111482e-05 3.6917142e-18)
(0.28755189 2.8032312e-05 5.4347219e-19)
(0.28120013 2.8885641e-05 6.4119703e-19)
(0.2734109 2.5744634e-05 -7.5304628e-19)
(0.26412921 2.0445295e-05 -1.2930338e-19)
(0.25293145 1.4454949e-05 -3.6294401e-19)
(0.23877583 8.8181939e-06 -9.440442e-20)
(0.21912696 4.4114319e-06 -1.354747e-19)
(0.18463571 1.4075195e-06 -6.524951e-20)
(0.2941842 8.3288327e-06 6.2894306e-18)
(0.29189393 1.9013235e-05 5.4241553e-18)
(0.2873452 2.4066444e-05 3.0138908e-18)
(0.28110653 2.4667652e-05 3.003068e-18)
(0.27340763 2.1771231e-05 1.8011969e-18)
(0.26418745 1.7032865e-05 1.038085e-18)
(0.25302315 1.1791256e-05 2.0506847e-19)
(0.23887599 6.9896972e-06 -3.6980025e-20)
(0.21921493 3.3645939e-06 2.0726103e-20)
(0.18469718 1.0230534e-06 -1.259314e-19)
(0.29385046 7.0536434e-06 2.2412028e-18)
(0.29162055 1.6128425e-05 9.754498e-19)
(0.2871709 2.0349846e-05 4.3296209e-18)
(0.28103083 2.0702459e-05 3.1292899e-18)
(0.27341014 1.8040376e-05 2.5265686e-18)
(0.26424178 1.3846077e-05 1.9295012e-18)
(0.25310353 9.3262324e-06 1.294599e-18)
(0.23895977 5.3181702e-06 5.7670288e-19)
(0.21928436 2.4211928e-06 4.1540063e-19)
(0.18474144 6.814528e-07 6.4902773e-20)
(0.29356931 5.888817e-06 1.724709e-19)
(0.2913912 1.3477155e-05 7.2101431e-19)
(0.28702692 1.6918147e-05 2.7343261e-18)
(0.2809718 1.703515e-05 3.0222155e-18)
(0.27341775 1.4597772e-05 2.2285151e-18)
(0.26429201 1.0924237e-05 1.6511634e-18)
(0.25317294 7.0887959e-06 1.423117e-18)
(0.23902819 3.8210361e-06 1.0508933e-18)
(0.21933691 1.5893026e-06 6.0929579e-19)
(0.18477051 3.8490669e-07 2.8814044e-19)
(0.29333612 4.8355118e-06 1.6726971e-18)
(0.29120221 1.1068484e-05 1.6154528e-18)
(0.28691083 1.3791006e-05 2.9184544e-18)
(0.28092801 1.3692786e-05 3.8404418e-18)
(0.27342971 1.14716e-05 3.6388183e-18)
(0.264338 8.2911802e-06 1.8846229e-18)
(0.2532319 5.0953761e-06 1.4548147e-18)
(0.23908247 2.5068571e-06 1.1353861e-18)
(0.21937437 8.718182e-07 9.2510796e-19)
(0.18478647 1.3371153e-07 6.0209295e-19)
(0.29314622 3.8920686e-06 1.6670965e-18)
(0.29104973 8.9034435e-06 3.0576812e-18)
(0.28682001 1.0975948e-05 3.7409346e-18)
(0.28089784 1.0688125e-05 3.4681658e-18)
(0.27344523 8.6756745e-06 3.1691512e-18)
(0.26437967 5.9577698e-06 2.2134778e-18)
(0.25328104 3.3516791e-06 1.6568704e-18)
(0.23912393 1.3763131e-06 1.2465047e-18)
(0.21939864 2.724822e-07 9.3844664e-19)
(0.1847914 -6.9345409e-08 6.6043166e-19)
(0.29299502 3.0547568e-06 -5.1716116e-20)
(0.29092993 6.9770159e-06 2.5231697e-18)
(0.28675173 8.4709131e-06 1.1402531e-18)
(0.28087961 8.0221195e-06 1.7273801e-18)
(0.2734635 6.2114644e-06 2.3779783e-18)
(0.26441701 3.9234626e-06 2.433269e-18)
(0.25332108 1.8547316e-06 1.8938833e-18)
(0.23915392 4.2936771e-07 1.2994668e-18)
(0.21941123 -2.1339212e-07 7.2220148e-19)
(0.18478765 -2.2819522e-07 5.7162809e-19)
(0.29287805 2.3184409e-06 4.5719013e-19)
(0.29083904 5.2799581e-06 1.9806929e-18)
(0.2867033 6.2669185e-06 3.107359e-18)
(0.28087167 5.6869573e-06 1.9244057e-18)
(0.27348375 4.0713227e-06 1.4551976e-18)
(0.26445004 2.1802958e-06 2.256481e-18)
(0.25335275 6.0004723e-07 1.7825235e-18)
(0.23917356 -3.4278217e-07 1.3053943e-18)
(0.21941461 -6.039115e-07 1.0639784e-18)
(0.18477677 -3.5378932e-07 7.1143592e-19)
(0.2927911 1.6772102e-06 2.5137943e-18)
(0.29077345 3.8004738e-06 2.4483603e-18)
(0.28667209 4.3505747e-06 2.726498e-18)
(0.28087236 3.6692883e-06 2.0442072e-18)
(0.27350524 2.2427373e-06 1.8834803e-18)
(0.26447879 7.1928945e-07 1.6858929e-18)
(0.2533766 -4.2662838e-07 1.629446e-18)
(0.23918484 -9.6308339e-07 1.323654e-18)
(0.21941035 -9.1283195e-07 1.1204842e-18)
(0.18476023 -4.5086661e-07 8.0213788e-19)
(0.29273019 1.1246849e-06 2.7524481e-18)
(0.29072972 2.5251028e-06 2.4410502e-18)
(0.28665557 2.7056101e-06 2.290895e-18)
(0.28088013 1.9528305e-06 3.8168719e-18)
(0.27352725 7.1252971e-07 3.5356051e-18)
(0.26450319 -4.7833818e-07 2.1429259e-18)
(0.25339401 -1.2532093e-06 1.8905999e-18)
(0.23918904 -1.4510407e-06 1.6278064e-18)
(0.21939991 -1.1469211e-06 1.4260913e-18)
(0.18473942 -5.2117292e-07 1.0808332e-18)
(0.29269159 6.5430881e-07 1.2575053e-18)
(0.29070463 1.4397841e-06 2.6097711e-18)
(0.28665137 1.3155572e-06 2.0818824e-18)
(0.28089346 5.2181872e-07 2.5808824e-18)
(0.27354903 -5.4171058e-07 2.7935189e-18)
(0.2645239 -1.4440019e-06 2.3490454e-18)
(0.25340578 -1.9040273e-06 1.9169114e-18)
(0.23918731 -1.8196611e-06 1.756483e-18)
(0.21938464 -1.3131604e-06 1.4381257e-18)
(0.18471558 -5.6721395e-07 1.1303089e-18)
(0.29267188 2.5995924e-07 1.5596304e-19)
(0.29069519 5.3149361e-07 2.1434688e-18)
(0.2866572 1.6312332e-07 4.9385669e-19)
(0.28091093 -6.4926949e-07 7.2505936e-19)
(0.2735705 -1.5535703e-06 1.9856314e-18)
(0.26454118 -2.2053561e-06 1.8839845e-18)
(0.25341265 -2.396928e-06 1.7751541e-18)
(0.23918075 -2.0817034e-06 1.5573312e-18)
(0.21936573 -1.4198591e-06 1.1516547e-18)
(0.1846898 -5.9219607e-07 9.4617574e-19)
(0.29266785 -6.4864948e-08 2.3314664e-18)
(0.29069858 -2.1562217e-07 1.2785767e-18)
(0.28667107 -7.7683444e-07 2.8311573e-18)
(0.28093164 -1.5931924e-06 2.2398676e-18)
(0.27359125 -2.351584e-06 1.375529e-18)
(0.26455525 -2.7834764e-06 2.0757058e-18)
(0.25341533 -2.7493459e-06 1.9039634e-18)
(0.23917036 -2.2507493e-06 1.6007596e-18)
(0.21934426 -1.4756813e-06 1.5746006e-18)
(0.184663 -5.9944403e-07 1.0834734e-18)
(0.29267663 -3.281943e-07 2.1651245e-18)
(0.29071238 -8.2080319e-07 1.9200273e-18)
(0.28669131 -1.5307848e-06 1.9058972e-18)
(0.28095457 -2.3353804e-06 2.2134663e-18)
(0.27361098 -2.9579141e-06 1.8121618e-18)
(0.26456636 -3.1990251e-06 1.8978031e-18)
(0.2534145 -2.9793357e-06 1.9052581e-18)
(0.23915704 -2.3403938e-06 1.6687905e-18)
(0.21932116 -1.488996e-06 1.5452098e-18)
(0.18463598 -5.9213903e-07 1.1907432e-18)
(0.29269573 -5.3745921e-07 4.0758059e-19)
(0.29073445 -1.3005463e-06 1.9141094e-18)
(0.28671638 -2.1189239e-06 2.3138651e-18)
(0.28097886 -2.8974014e-06 1.0795733e-18)
(0.27362942 -3.3946252e-06 1.337393e-18)
(0.26457479 -3.472931e-06 1.8537266e-18)
(0.25341079 -3.1046578e-06 1.7182542e-18)
(0.23914159 -2.3636527e-06 1.6339212e-18)
(0.21929721 -1.4676783e-06 1.5545199e-18)
(0.18460934 -5.7327236e-07 1.3043884e-18)
(0.29272291 -6.9860568e-07 1.348298e-18)
(0.29076287 -1.6686331e-06 1.9442466e-19)
(0.2867449 -2.5596997e-06 1.2525709e-18)
(0.28100374 -3.3004342e-06 5.5294997e-19)
(0.27364642 -3.6835264e-06 -2.2279212e-19)
(0.26458082 -3.6254634e-06 1.10026e-18)
(0.25340478 -3.1421617e-06 1.3255607e-18)
(0.23912471 -2.3326524e-06 1.5462149e-18)
(0.21927307 -1.4189455e-06 1.4880082e-18)
(0.18458361 -5.4556192e-07 1.3103143e-18)
(0.29275619 -8.1727859e-07 1.2255096e-18)
(0.29079594 -1.9381485e-06 2.314898e-18)
(0.28677568 -2.870949e-06 3.0915156e-18)
(0.2810286 -3.5650308e-06 2.4336905e-18)
(0.27366186 -3.8455394e-06 1.3833685e-18)
(0.26458474 -3.6757581e-06 4.177934e-19)
(0.253397 -3.1074803e-06 1.253294e-18)
(0.23910702 -2.2584394e-06 1.4270861e-18)
(0.2192493 -1.349261e-06 1.1282954e-18)
(0.18455915 -5.1141618e-07 1.1116623e-18)
(0.29279382 -8.9880723e-07 1.9835614e-18)
(0.29083218 -2.1215213e-06 4.130457e-18)
(0.2868077 -3.0697047e-06 5.3947293e-18)
(0.28105292 -3.7107295e-06 3.1816022e-18)
(0.27367569 -3.9003241e-06 1.991222e-18)
(0.26458683 -3.6415149e-06 1.6621204e-18)
(0.25338791 -3.0147988e-06 1.4209065e-18)
(0.23908903 -2.1508157e-06 1.4462396e-18)
(0.21922632 -1.2642285e-06 1.4430608e-18)
(0.18453624 -4.7288353e-07 1.1378962e-18)
(0.29283431 -9.4819608e-07 2.7198209e-18)
(0.2908703 -2.2304626e-06 2.6322565e-18)
(0.28684009 -3.1720133e-06 8.5846353e-20)
(0.28107629 -3.7558079e-06 1.5160449e-18)
(0.27368789 -3.8660413e-06 2.4798478e-18)
(0.26458737 -3.5388069e-06 2.0687546e-18)
(0.25337793 -2.8767288e-06 1.5983996e-18)
(0.23907116 -2.0182773e-06 1.6393569e-18)
(0.21920446 -1.1685623e-06 1.5439223e-18)
(0.18451508 -4.3163259e-07 1.2438509e-18)
(0.29287633 -9.7012388e-07 1.5392527e-18)
(0.29090922 -2.2759265e-06 2.2070457e-18)
(0.28687211 -3.1928397e-06 1.002799e-18)
(0.28109839 -3.7171709e-06 1.3121786e-18)
(0.2736985 -3.7592677e-06 2.378742e-18)
(0.26458661 -3.3820531e-06 2.0722289e-18)
(0.25336744 -2.7043442e-06 1.8889342e-18)
(0.23905376 -1.8680954e-06 1.8023686e-18)
(0.21918398 -1.0661698e-06 1.6598536e-18)
(0.18449578 -3.8899537e-07 1.3384806e-18)
(0.29291879 -9.6894475e-07 -8.5030378e-19)
(0.29094801 -2.268096e-06 7.052891e-19)
(0.2869032 -3.1460253e-06 1.4083046e-18)
(0.281119 -3.6103143e-06 1.3775804e-18)
(0.27370758 -3.5950051e-06 1.1088679e-18)
(0.2645848 -3.1840901e-06 2.0476401e-18)
(0.25335672 -2.5073172e-06 1.8891227e-18)
(0.2390371 -1.7064834e-06 1.6065837e-18)
(0.21916504 -9.6030132e-07 1.5413902e-18)
(0.1844784 -3.4605342e-07 1.3601153e-18)
(0.29296077 -9.4867278e-07 -3.1548398e-19)
(0.29098592 -2.2163576e-06 2.0404678e-18)
(0.28693288 -3.0442634e-06 3.3233164e-18)
(0.28113795 -3.4493194e-06 2.49678e-18)
(0.2737152 -3.3867114e-06 2.2493747e-18)
(0.26458216 -2.9562589e-06 1.5751771e-18)
(0.25334605 -2.2940469e-06 1.6729468e-18)
(0.2390214 -1.5387345e-06 1.5101256e-18)
(0.21914776 -8.5365674e-07 1.2262398e-18)
(0.18446296 -3.0367572e-07 1.199518e-18)
(0.29300151 -9.1301197e-07 2.068699e-18)
(0.29102235 -2.1293435e-06 3.3998096e-18)
(0.2869608 -2.89915e-06 5.2127675e-18)
(0.28115515 -3.246927e-06 3.3311928e-18)
(0.27372148 -3.1464198e-06 1.8493783e-18)
(0.26457889 -2.7085649e-06 2.0972799e-18)
(0.25333564 -2.0718468e-06 1.7280905e-18)
(0.23900681 -1.3694131e-06 1.7032307e-18)
(0.2191322 -7.4855867e-07 1.599822e-18)
(0.18444942 -2.6262222e-07 1.2667338e-18)
(0.29304041 -8.6532279e-07 2.9272427e-18)
(0.29105682 -2.0148868e-06 7.8671906e-19)
(0.28698671 -2.7211418e-06 -2.8723574e-19)
(0.28117056 -3.0145089e-06 2.3105821e-18)
(0.27372651 -2.8847268e-06 2.2330575e-18)
(0.26457516 -2.4496848e-06 2.3478531e-18)
(0.25332564 -1.8469574e-06 1.9018435e-18)
(0.23899342 -1.2023534e-06 1.7204485e-18)
(0.21911836 -6.4693445e-07 1.6457912e-18)
(0.18443772 -2.2351891e-07 1.3250521e-18)
(0.29307702 -8.0864152e-07 2.6114218e-18)
(0.29108898 -1.8800474e-06 4.4009449e-19)
(0.28701042 -2.5195886e-06 3.9317527e-19)
(0.28118417 -2.7621129e-06 1.3795663e-18)
(0.27373041 -2.6108548e-06 2.4916519e-18)
(0.26457114 -2.1870404e-06 1.9868655e-18)
(0.2533162 -1.6246183e-06 2.052848e-18)
(0.2389813 -1.0407183e-06 1.8250119e-18)
(0.21910622 -5.5035623e-07 1.7002012e-18)
(0.18442777 -1.8687472e-07 1.3151368e-18)
(0.293111 -7.4566101e-07 5.9597434e-19)
(0.29111858 -1.7310791e-06 1.4909544e-18)
(0.28703186 -2.3026977e-06 1.3793127e-18)
(0.28119603 -2.4984337e-06 8.3214462e-19)
(0.27373331 -2.3326372e-06 6.4185767e-19)
(0.26456696 -1.9267874e-06 1.6988351e-18)
(0.25330741 -1.4090485e-06 1.8630134e-18)
(0.23897047 -8.8696292e-07 1.7932538e-18)
(0.21909573 -4.5999764e-07 1.6127299e-18)
(0.18441945 -1.5305781e-07 1.3290699e-18)
(0.29314214 -6.7872888e-07 3.1641529e-19)
(0.29114549 -1.5734266e-06 1.8151004e-18)
(0.28705098 -2.0775427e-06 3.5633687e-18)
(0.28120621 -2.230841e-06 2.7115324e-18)
(0.27373533 -2.0565585e-06 2.346324e-18)
(0.26456274 -1.6738676e-06 1.3648026e-18)
(0.25329933 -1.2034953e-06 1.5825064e-18)
(0.23896091 -7.4286341e-07 1.6189709e-18)
(0.21908681 -3.7663069e-07 1.2980269e-18)
(0.18441264 -1.2227353e-07 1.2688711e-18)
(0.29317029 -6.0987043e-07 4.372027e-19)
(0.29116963 -1.4117649e-06 1.9494187e-18)
(0.28706781 -1.8501136e-06 5.1593217e-18)
(0.2812148 -1.9654487e-06 3.5438017e-18)
(0.27373658 -1.7878493e-06 2.8265668e-18)
(0.26455858 -1.4321118e-06 1.7448142e-18)
(0.25329201 -1.0103323e-06 1.7540008e-18)
(0.2389526 -6.0959962e-07 1.687012e-18)
(0.21907934 -3.0068853e-07 1.6174779e-18)
(0.18440722 -9.4605904e-08 1.3056796e-18)
(0.29319543 -5.4078447e-07 3.5457034e-19)
(0.291191 -1.2500063e-06 1.5041687e-18)
(0.28708241 -1.62535e-06 -1.4386489e-19)
(0.28122191 -1.7071794e-06 2.1196002e-18)
(0.27373718 -1.5305737e-06 2.2059714e-18)
(0.26455454 -1.2043387e-06 2.2060382e-18)
(0.25328545 -8.3115045e-07 1.8015136e-18)
(0.23894549 -4.878181e-07 1.5595171e-18)
(0.21907323 -2.322861e-07 1.5125012e-18)
(0.18440303 -7.0008789e-08 1.2079843e-18)
(0.29321757 -4.7288077e-07 2.2108621e-18)
(0.29120966 -1.0913801e-06 2.1061833e-18)
(0.28709489 -1.4072575e-06 5.3545535e-19)
(0.28122767 -1.459915e-06 1.7393852e-18)
(0.27373724 -1.2878039e-06 1.7934787e-18)
(0.2645507 -9.9253888e-07 2.4133091e-18)
(0.25327966 -6.6693124e-07 1.957124e-18)
(0.2389395 -3.7777881e-07 1.6021535e-18)
(0.21906835 -1.7133206e-07 1.44863e-18)
(0.18439994 -4.8364144e-08 1.219898e-18)
(0.29323678 -4.0730965e-07 1.6308066e-18)
(0.29122571 -9.3850056e-07 2.5441703e-18)
(0.28710536 -1.1990105e-06 1.3883677e-18)
(0.28123219 -1.2266353e-06 9.5819522e-19)
(0.27373685 -1.0617829e-06 2.6471809e-19)
(0.2645471 -7.980408e-07 1.4184565e-18)
(0.25327462 -5.1820098e-07 1.7227497e-18)
(0.23893455 -2.7948426e-07 1.8096299e-18)
(0.21906459 -1.1761829e-07 1.6179593e-18)
(0.18439782 -2.9521865e-08 1.380254e-18)
(0.2932532 -3.449744e-07 1.6665464e-18)
(0.29123928 -7.9341828e-07 3.2729089e-18)
(0.28711397 -1.003044e-06 3.5677828e-18)
(0.2812356 -1.0095356e-06 1.7284622e-18)
(0.2737361 -8.540502e-07 2.3493376e-18)
(0.26454376 -6.2162687e-07 9.5295237e-19)
(0.25327029 -3.8512438e-07 1.4577609e-18)
(0.23893057 -1.9274058e-07 1.6329962e-18)
(0.21906182 -7.086104e-08 1.4843815e-18)
(0.18439654 -1.3319245e-08 1.3589409e-18)
(0.29326699 -2.8658289e-07 1.4366912e-18)