/*--------------------------------*- C++ -*----------------------------------*\
| =========                 |                                                 |
| \\      /  F ield         | OpenFOAM: The Open Source CFD Toolbox           |
|  \\    /   O peration     | Version:  2506                                  |
|   \\  /    A nd           | Website:  www.openfoam.com                      |
|    \\/     M anipulation  |                                                 |
\*---------------------------------------------------------------------------*/
FoamFile
{
    version     2.0;
    format      ascii;
    arch        "LSB;label=32;scalar=64";
    class       volScalarField;
    location    "22000/rock";
    object      T;
}
// * * * * * * * * * * * * * * * * * * * * * * * * * * * * * * * * * * * * * //

dimensions      [0 0 0 1 0 0 0];

internalField   nonuniform List<scalar> 
16000
(
317.74926
306.98318
301.16443
297.53958
295.07768
293.30587
291.97633
290.94659
290.12892
289.46643
288.92064
288.46464
288.07909
287.74972
287.46581
287.21917
287.00342
286.81352
286.64548
286.49606
286.36263
286.24302
286.13542
286.03835
285.95054
285.87091
285.79856
285.73269
285.67262
285.61776
285.56759
285.52163
285.47946
285.44068
285.40492
285.3718
285.34089
285.31171
285.2836
285.25548
320.43436
309.70952
303.49836
299.51298
296.76586
294.77188
293.26752
292.09805
291.16693
290.411
289.78726
289.26549
288.82388
288.44632
288.12065
287.83756
287.58979
287.37164
287.17852
287.00675
286.85331
286.71573
286.59195
286.48025
286.37919
286.28754
286.20425
286.12841
286.05925
285.99609
285.93832
285.8854
285.83686
285.79223
285.75109
285.71301
285.67753
285.64414
285.61217
285.58074
321.96938
311.71812
305.42396
301.24197
298.29834
296.13327
294.48529
293.19614
292.16503
291.325
290.62998
290.04733
289.55333
289.13035
288.76507
288.44722
288.1688
287.92347
287.70615
287.51274
287.33989
287.18484
287.04529
286.91932
286.80531
286.70189
286.60789
286.52228
286.44421
286.37289
286.30766
286.24792
286.19313
286.14277
286.09639
286.05351
286.01365
285.9763
285.94086
285.90663
322.95323
313.22927
307.00826
302.74456
299.67778
297.38801
295.62643
294.23764
293.12031
292.20592
291.44667
290.80835
290.26589
289.80051
289.39797
289.04722
288.73961
288.46829
288.22774
288.01349
287.82189
287.64992
287.49506
287.35521
287.2286
287.1137
287.00923
286.91407
286.82727
286.74797
286.67544
286.60902
286.54811
286.49217
286.44069
286.39317
286.34912
286.30804
286.26939
286.23263
323.64482
314.40086
308.32112
304.04867
300.91432
298.53889
296.69076
295.22123
294.03111
293.05207
292.23576
291.54715
290.96032
290.45572
290.01839
289.6367
289.30149
289.00545
288.74272
288.50849
288.29886
288.11057
287.94091
287.78761
287.64874
287.52268
287.40802
287.30355
287.20822
287.12113
287.04147
286.96853
286.90165
286.84027
286.78383
286.73183
286.68376
286.63915
286.5975
286.55838
324.16571
315.33721
309.42209
305.18409
302.02187
299.59192
297.68045
296.14725
294.89691
293.86258
292.99625
292.26272
291.63567
291.09509
290.62554
290.21496
289.8538
289.5344
289.25058
288.99729
288.77038
288.56641
288.38249
288.21619
288.06548
287.92858
287.80402
287.69049
287.58688
287.49219
287.40558
287.32628
287.2536
287.18692
287.12568
287.06935
287.01742
286.96943
286.92494
286.88356
324.57818
316.10622
310.35799
306.17837
303.01544
300.55486
298.59924
297.01726
295.71813
294.63726
293.72767
292.95446
292.29129
291.71797
291.2188
290.78142
290.396
290.05462
289.75087
289.47947
289.23609
289.01711
288.81949
288.64069
288.47853
288.33117
288.19702
288.0747
287.96303
287.86097
287.7676
287.68211
287.60379
287.53197
287.46608
287.40556
287.34992
287.2987
287.25148
287.20791
324.91694
316.75266
311.1644
307.05526
303.90961
301.43619
299.45186
297.83374
296.49591
295.37651
294.42996
293.62207
292.92678
292.32392
291.7977
291.33562
290.92766
290.56572
290.24321
289.95468
289.69565
289.46235
289.25163
289.06082
288.88766
288.73021
288.5868
288.45598
288.33651
288.22729
288.12736
288.03587
287.95207
287.87527
287.80486
287.7403
287.68108
287.62674
287.57689
287.53121
325.20283
317.30675
311.86812
307.83453
304.71763
302.24433
300.24343
298.5997
297.23194
296.08116
295.10347
294.2656
293.54198
292.91267
292.36193
291.87722
291.44843
291.06735
290.72726
290.42261
290.14876
289.90187
289.67865
289.47637
289.29266
289.1255
288.97316
288.83414
288.70713
288.59099
288.48471
288.3874
288.29829
288.21666
288.14189
288.07342
288.01073
287.95339
287.90099
287.85323
325.44921
317.78945
312.48933
308.5323
305.45119
302.98726
300.9792
299.31846
297.92826
296.75241
295.74881
294.8853
294.13694
293.48413
292.91131
292.40599
291.95806
291.55926
291.20278
290.88299
290.59519
290.33542
290.10034
289.88711
289.6933
289.51684
289.35593
289.20901
289.07473
288.9519
288.83948
288.73655
288.6423
288.556
288.47701
288.40476
288.33872
288.27846
288.22359
288.17379
325.66509
318.21568
313.04335
309.16164
306.12036
303.67228
301.66425
299.99346
298.58709
297.39166
296.36686
295.48166
294.71187
294.03835
293.44577
292.92181
292.45638
292.04124
291.66955
291.33563
291.03472
290.76281
290.51648
290.29284
290.08942
289.90406
289.73493
289.58043
289.43915
289.30988
289.19153
289.08317
288.98396
288.89315
288.81008
288.73416
288.66488
288.6018
288.54451
288.49272
325.85681
318.5964
313.54197
309.73313
306.73373
304.30594
302.30336
300.62806
299.21077
298.00049
296.95862
296.05531
295.26715
294.5755
293.96538
293.42463
292.9433
292.51317
292.12742
291.78036
291.46718
291.18385
290.92691
290.69341
290.48084
290.287
290.11001
289.94824
289.80025
289.66478
289.54073
289.42714
289.32313
289.22796
289.14094
289.06149
288.98907
288.92324
288.86361
288.80985
326.02899
318.93977
313.99433
310.25533
307.29857
304.89402
302.90092
301.22553
299.80165
298.58054
297.52521
296.60699
295.80324
295.09587
294.47027
293.91451
293.41879
292.97497
292.57629
292.21704
291.89244
291.59841
291.33148
291.08867
290.86742
290.66551
290.48103
290.31231
290.15788
290.01647
289.88694
289.76831
289.65969
289.56031
289.46948
289.38661
289.31115
289.24265
289.18072
289.12503
326.18508
319.25208
314.40767
310.73525
307.82103
305.4416
303.46095
301.78891
300.36199
299.13346
298.06784
297.13754
296.32071
295.59982
294.96066
294.39156
293.88289
293.42664
293.0161
292.64561
292.3104
292.00638
291.73007
291.47848
291.24903
291.03947
290.84787
290.67252
290.51194
290.36483
290.23004
290.10656
289.9935
289.89007
289.79556
289.70938
289.63097
289.55988
289.49571
289.43813
326.32774
319.53819
314.78773
311.17862
308.30631
305.95311
303.98706
302.32107
300.89399
299.66091
298.58771
297.64783
296.82017
296.08778
295.43683
294.85594
294.33569
293.86819
293.44683
293.06601
292.72098
292.40767
292.12259
291.86276
291.62557
291.40877
291.2104
291.02874
290.86229
290.70974
290.56991
290.44178
290.32445
290.21712
290.11907
290.02968
289.94842
289.87482
289.80846
289.74901
326.45903
319.80196
315.13914
311.59018
308.75882
306.43239
304.48247
302.82461
301.39972
300.16449
299.08605
298.13877
297.30231
296.56023
295.89911
295.30788
294.77733
294.29971
293.86852
293.47824
293.12415
292.80222
292.50897
292.24141
291.99694
291.77331
291.56853
291.38088
291.20885
291.05109
290.90645
290.77387
290.65244
290.54135
290.43988
290.34741
290.26338
290.18733
290.11883
290.05755
326.58061
320.0465
315.46571
311.97388
309.1823
306.88281
304.95006
303.30192
301.88111
300.64573
299.56403
298.61128
297.76779
297.01766
296.34787
295.74764
295.20797
294.72129
294.28122
293.88231
293.51989
293.18999
292.88914
292.61437
292.36308
292.13301
291.92217
291.72885
291.55151
291.3888
291.23956
291.10271
290.97735
290.86265
290.7579
290.66244
290.57574
290.4973
290.42672
290.36364
326.69379
320.27433
315.77054
312.333
309.57996
307.30729
305.3924
303.75518
302.33995
301.10608
300.02283
299.06626
298.21732
297.46062
296.78351
296.1755
295.62782
295.13308
294.68501
294.27825
293.90822
293.57098
293.26309
292.9816
292.72392
292.4878
292.27126
292.07257
291.89019
291.72278
291.56914
291.42823
291.2991
291.18094
291.07302
290.97469
290.88539
290.80464
290.73202
290.66716
326.79966
320.48753
316.05624
312.67034
309.95453
307.70838
305.81174
304.18634
302.7779
301.54691
300.46354
299.50459
298.65161
297.88965
297.20643
296.59176
296.0371
295.53523
295.07999
294.66614
294.28917
293.94518
293.63079
293.34305
293.07942
292.83763
292.61573
292.41197
292.22482
292.05294
291.89513
291.75033
291.6176
291.49612
291.38515
291.28405
291.19225
291.10925
291.03463
290.96804
326.89911
320.68781
316.32496
312.98825
310.30837
308.0883
306.21012
304.59719
303.19647
301.96949
300.88723
299.92714
299.07133
298.30528
297.61706
296.99677
296.43607
295.92792
295.4663
295.04607
294.66279
294.31262
293.99224
293.69873
293.42955
293.18246
292.95552
292.74699
292.55534
292.37922
292.21744
292.06894
291.93277
291.80811
291.69422
291.59044
291.49621
291.41103
291.33447
291.26616
326.99287
320.87662
316.57856
313.28875
310.64352
308.44901
306.58933
304.98931
303.59707
302.37502
301.29488
300.33474
299.47716
298.70806
298.01584
297.39085
296.82498
296.31134
295.84407
295.41812
295.02914
294.67335
294.34746
294.04861
293.77428
293.52226
293.2906
293.07759
292.88169
292.70156
292.53602
292.38399
292.24454
292.11683
292.00013
291.89378
291.7972
291.7099
291.63145
291.56146
327.08157
321.05518
316.81859
313.57356
310.96175
308.79222
306.95097
305.36417
303.98096
302.76459
301.68745
300.72816
299.86976
299.09853
298.4032
297.77436
297.2041
296.68572
296.21348
295.78243
295.38831
295.02741
294.69649
294.39273
294.11363
293.85701
293.62095
293.40372
293.20382
293.01992
292.8508
292.69542
292.55284
292.42223
292.30283
292.19399
292.09515
292.0058
291.92549
291.85384
327.16572
321.22453
317.0464
313.84419
311.2646
309.11943
307.29645
305.72305
304.34932
303.13924
302.0658
301.10815
300.24974
299.47721
298.77955
298.14762
297.57371
297.05126
296.57467
296.13911
295.74038
295.37486
295.03936
294.73108
294.44759
294.18671
293.94653
293.72537
293.52171
293.33423
293.16174
293.00318
292.85762
292.72422
292.60224
292.49102
292.38999
292.29864
292.21652
292.14326
327.24577
321.38556
317.26313
314.10194
311.55342
309.43199
307.62705
306.06715
304.7032
303.49989
302.43077
301.47542
300.61771
299.84459
299.14533
298.511
297.93409
297.4082
296.92784
296.4883
296.08547
295.71578
295.37611
295.06371
294.77617
294.51134
294.26734
294.0425
293.83532
293.64448
293.4688
293.30723
293.15883
293.02277
292.89832
292.78481
292.68166
292.58837
292.50449
292.42963
327.32209
321.53902
317.46979
314.34792
311.82939
309.73108
307.94392
306.39751
305.04358
303.84743
302.78311
301.83065
300.97425
300.20116
299.50093
298.86482
298.28551
297.75674
297.27316
296.83015
296.42368
296.05026
295.70682
295.39066
295.09939
294.83092
294.58338
294.35511
294.14463
293.95062
293.77193
293.60751
293.45641
293.31783
293.191
293.07529
292.9701
292.87493
292.78933
292.71291
327.39501
321.6856
317.66726
314.58315
312.09357
310.01774
308.24806
306.7151
305.37134
304.18264
303.12354
302.17445
301.31989
300.5474
299.84675
299.20943
298.62826
298.09713
297.61082
297.1648
296.75513
296.37838
296.03155
295.71197
295.4173
295.14548
294.89465
294.66318
294.44962
294.25265
294.07112
293.904
293.75035
293.60934
293.48025
293.36242
293.25526
293.15827
293.071
292.99304
327.46482
321.82586
317.85629
314.80848
312.34687
310.29292
308.54039
307.02079
305.68729
304.50628
303.45273
302.50741
301.65515
300.88375
300.18318
299.54514
298.9626
298.4296
297.94101
297.4924
297.07994
296.70024
296.35036
296.02769
295.72992
295.45502
295.20116
294.96673
294.75029
294.55054
294.36635
294.19667
294.04059
293.89729
293.76603
293.64616
293.53711
293.43835
293.34944
293.26998
327.53177
321.96032
318.03756
315.02469
312.59013
310.55746
308.82174
307.31538
305.99217
304.81902
303.77129
302.83008
301.98052
301.21062
300.51059
299.87228
299.28881
298.75436
298.26391
297.81312
297.39824
297.01595
296.66335
296.33789
296.03731
295.75958
295.50293
295.26575
295.04663
294.84429
294.65758
294.4855
294.32712
294.18163
294.0483
293.92648
293.8156
293.71513
293.62462
293.54369
327.59606
322.08943
318.21166
315.23247
312.82407
310.81209
309.09284
307.59956
306.28666
305.12149
304.0798
303.14299
302.29646
301.52844
300.82933
300.19114
299.60715
299.07164
298.57971
298.12711
297.71015
297.3256
296.97059
296.64264
296.3395
296.0592
295.79998
295.56027
295.33866
295.13388
294.94482
294.77047
294.60991
294.46235
294.32704
294.20335
294.0907
293.98857
293.89651
293.81412
327.65791
322.21358
318.37913
315.43243
313.04936
311.05751
309.35438
307.87401
306.57137
305.41426
304.37878
303.44662
302.6034
301.83758
301.13974
300.50203
299.91787
299.38167
298.8886
298.43453
298.01582
297.6293
297.27218
296.94199
296.63655
296.35392
296.09235
295.85029
295.62637
295.41933
295.22807
295.05158
294.88896
294.73942
294.60222
294.47674
294.36238
294.25864
294.16507
294.08126
327.71747
322.33313
318.54043
315.62511
313.26658
311.29432
309.60696
308.13931
306.84688
305.69788
304.66873
303.7414
302.90175
302.13841
301.44214
300.80523
300.22123
299.68465
299.19077
298.73553
298.31536
297.92716
297.56819
297.23603
296.92853
296.64377
296.38005
296.13585
295.90978
295.70064
295.50731
295.32881
295.16425
295.01283
294.87383
294.74662
294.63062
294.52533
294.43028
294.34508
327.77491
322.44841
318.69599
315.81101
313.47627
311.52307
309.85114
308.39601
307.1137
305.97283
304.95011
304.02778
303.19189
302.43128
301.73684
301.10101
300.51746
299.98079
299.48639
299.03026
298.60891
298.2193
297.85873
297.52483
297.21549
296.92882
296.66314
296.41696
296.18892
295.97782
295.78256
295.60217
295.43577
295.28256
295.14185
295.01299
294.89541
294.78861
294.69212
294.60555
327.83036
322.55969
318.84619
315.99056
313.6789
311.74425
310.08741
308.64459
307.37232
306.23956
305.22335
304.30614
303.47419
302.71651
302.02413
301.38964
300.80679
300.27031
299.77564
299.31888
298.89661
298.50582
298.14389
297.80847
297.49749
297.2091
296.94165
296.69366
296.4638
296.25088
296.05382
295.87165
295.70352
295.54863
295.40628
295.27583
295.15673
295.04846
294.95058
294.86267
327.88396
322.66722
318.99136
316.16417
313.87491
311.95834
310.31624
308.88552
307.62317
306.49851
305.48884
304.57686
303.74899
302.99442
302.30431
301.67136
301.08945
300.55339
300.0587
299.60155
299.17858
298.78684
298.42375
298.08702
297.7746
297.48468
297.21562
296.96598
296.73445
296.51984
296.3211
296.13728
295.96751
295.81101
295.6671
295.53514
295.41457
295.30489
295.20563
295.11641
327.93581
322.77125
319.13183
316.3322
314.0647
312.16572
310.53805
309.11921
307.86666
306.75005
305.74696
304.84027
304.01661
303.26529
302.57763
301.94643
301.36566
300.83022
300.33573
299.8784
299.45495
299.06247
298.69843
298.36057
298.04689
297.7556
297.48511
297.23397
297.0009
296.78473
296.58443
296.39905
296.22773
296.06972
295.92432
295.79091
295.66893
295.55787
295.45729
295.36677
327.98601
322.87199
319.26786
316.49497
314.24862
312.3668
310.75322
309.34605
308.10317
306.99456
305.99804
305.0967
304.27734
303.52941
302.84434
302.21506
301.63562
301.101
300.6069
300.14959
299.72585
299.33282
298.96801
298.62921
298.31444
298.02194
297.75015
297.49765
297.26317
297.04557
296.84382
296.65698
296.48421
296.32477
296.17795
296.04315
295.9198
295.80741
295.70553
295.61375
328.03468
322.96961
319.39972
316.65278
314.42701
312.5619
310.96211
309.56639
308.33304
307.23236
306.2424
305.34645
304.53146
303.78703
303.10469
302.47747
301.89953
301.3659
300.87237
300.41526
299.9914
299.59799
299.23259
298.893
298.5773
298.28375
298.01081
297.75708
297.52132
297.30239
297.09929
296.91109
296.73696
296.57615
296.42798
296.29185
296.16719
296.05351
295.95036
295.85735
328.08188
323.06431
319.52764
316.80592
314.60015
312.75134
311.16503
309.78054
308.55659
307.46377
306.48035
305.58981
304.77926
304.03841
303.35891
302.73389
302.15757
301.6251
301.13228
300.67554
300.25173
299.85811
299.49226
299.15204
298.83555
298.54109
298.26712
298.01229
297.77536
297.55522
297.35087
297.1614
296.98598
296.82388
296.67443
296.53702
296.41109
296.29617
296.19179
296.09756
328.12771
323.15623
319.65183
316.95462
314.76833
312.93542
311.36229
309.98882
308.77413
307.68907
306.71216
305.82705
305.02097
304.28377
303.60721
302.9845
302.40994
301.87875
301.38681
300.93057
300.50695
300.11326
299.74712
299.40641
299.08927
298.79402
298.51916
298.26334
298.02535
297.8041
297.59859
297.40793
297.23131
297.06799
296.91731
296.77867
296.65153
296.53539
296.42981
296.33439
328.17222
323.24553
319.77248
317.09911
314.93181
313.11441
311.55416
310.19151
308.98592
307.90854
306.9381
306.0584
305.25683
304.52334
303.8498
303.22949
302.65681
302.12702
301.63607
301.18048
300.75719
300.36357
299.99726
299.65619
299.33853
299.04261
298.76697
298.51027
298.27133
298.04905
297.84247
297.65071
297.47295
297.30848
297.15664
297.01683
296.88851
296.77119
296.66444
296.56785
328.2155
323.33233
319.88978
317.23962
315.0908
313.28854
311.7409
310.38885
309.19222
308.12243
307.1584
306.2841
305.48706
304.75733
304.08687
303.46905
302.89834
302.37007
301.88023
301.42539
301.00256
300.60913
300.24278
299.90147
299.58339
299.28692
299.0106
298.75313
298.51332
298.29012
298.08256
297.88976
297.71094
297.54538
297.39242
297.25149
297.12204
297.00359
296.89569
296.79796
328.2576
323.41677
320.00389
317.37632
315.24553
313.45805
311.92275
310.58109
309.39327
308.33097
307.3733
306.50438
305.71187
304.98594
304.31861
303.70336
303.1347
302.60803
302.11941
301.66544
301.24317
300.85004
300.48376
300.14232
299.82394
299.52702
299.25013
298.99197
298.75139
298.52734
298.31887
298.12512
297.9453
297.7787
297.6247
297.48269
297.35214
297.23259
297.12358
297.02472
328.29857
323.49895
320.11496
317.5094
315.39619
313.62315
312.09991
310.76845
309.5893
308.53438
307.583
306.71944
305.93147
305.20934
304.5452
303.93257
303.36604
302.84106
302.35374
301.90073
301.47913
301.0864
300.72029
300.37883
300.06024
299.76297
299.48559
299.22685
298.98558
298.76076
298.55145
298.35681
298.17605
298.00849
297.85347
297.71043
297.57883
297.45821
297.34811
297.24816
328.33847
323.57897
320.22313
317.63903
315.54297
313.78403
312.2726
310.95113
309.7805
308.73287
307.78772
306.92948
306.14602
305.42773
304.76681
304.15684
303.5925
303.06929
302.58335
302.1314
301.71055
301.31831
300.95247
300.61107
300.29237
299.99484
299.71706
299.4578
299.21593
298.99042
298.78034
298.58487
298.40324
298.23475
298.07878
297.93475
297.80213
297.68047
297.56931
297.46828
328.37735
323.65695
320.32853
317.76536
315.68603
313.94088
312.44101
311.12934
309.96708
308.92662
307.98763
307.13466
306.35572
305.64127
304.98358
304.37633
303.81423
303.29284
302.80837
302.35754
301.93753
301.54587
301.18037
300.83912
300.5204
300.22268
299.94459
299.6849
299.44249
299.21635
299.00558
298.80934
298.62688
298.45752
298.30064
298.15566
298.02207
297.89939
297.7872
297.68511
328.41525
323.73296
320.43128
317.88853
315.82555
314.09387
312.6053
311.30325
310.14921
309.11582
308.18291
307.33518
306.56073
305.85011
305.19568
304.59118
304.03137
303.51186
303.0289
302.57927
302.16017
301.76916
301.40409
301.06307
300.7444
300.44657
300.16824
299.90818
299.6653
299.43861
299.22719
299.03025
298.84702
298.67684
298.51908
298.37319
298.23865
298.115
298.0018
297.89868
328.45222
323.80709
320.5315
318.00867
315.96165
314.24314
312.76565
311.47302
310.32707
309.30064
308.37374
307.53119
306.7612
306.05441
305.40325
304.80152
304.24403
303.72645
303.24507
302.79669
302.37857
301.98828
301.62371
301.28298
300.96443
300.66657
300.38807
300.12771
299.88443
299.65723
299.44523
299.24763
299.06368
298.89272
298.73414
298.58738
298.45193
298.32732
298.21314
298.109
328.48829
323.87942
320.62929
318.12591
316.09449
314.38886
312.92221
311.63882
310.50081
309.48123
308.56026
307.72285
306.95729
306.25432
305.60643
305.00748
304.45235
303.93674
303.45698
303.00991
302.59282
302.20332
301.83931
301.49894
301.18058
300.88275
300.60413
300.34354
300.09991
299.87227
299.65974
299.46153
299.27691
299.10521
298.94584
298.79824
298.66191
298.53638
298.42124
298.3161
328.5235
323.95002
320.72474
318.24036
316.22418
314.53115
313.07512
311.8008
310.67058
309.65775
308.74263
307.91029
307.14913
306.44996
305.80535
305.2092
304.65645
304.14284
303.66473
303.21903
302.80302
302.41435
302.05096
301.71102
301.3929
301.09516
300.81648
300.55571
300.31179
300.08376
299.87075
299.67198
299.48673
299.31434
299.15422
299.00581
298.86863
298.7422
298.62612
298.52
328.55788
324.01895
320.81795
318.35213
316.35085
314.67015
313.22452
311.95909
310.83653
309.83034
308.92099
308.09366
307.33686
306.64147
306.00013
305.40679
304.85643
304.34485
303.86844
303.42413
303.00925
302.62148
302.25876
301.91929
301.60147
301.30386
301.02519
300.7643
300.52013
300.29176
300.07832
299.87903
299.69319
299.52014
299.3593
299.21013
299.07212
298.94482
298.82782
298.72075
328.59146
324.08629
320.909
318.46132
316.47462
314.80598
313.37054
312.11382
310.99879
309.99913
309.09546
308.27309
307.52061
306.82898
306.19089
305.60036
305.05241
304.54288
304.0682
303.62532
303.21161
302.82477
302.46276
302.12382
301.80635
301.50893
301.23031
300.96933
300.72498
300.49631
300.28248
300.08272
299.89632
299.72266
299.56113
299.41121
299.27241
299.14426
299.02637
298.91835
328.62428
324.15209
320.99797
318.56803
316.59557
314.93874
313.51328
312.26511
311.15747
310.16424
309.26617
308.4487
307.7005
307.01259
306.37774
305.79002
305.2445
304.73703
304.2641
303.82269
303.41018
303.0243
302.66306
302.32468
302.0076
301.71042
301.43189
301.17089
300.92638
300.69746
300.48328
300.28308
300.09617
299.92192
299.75974
299.6091
299.46953
299.34056
299.2218
299.11286
328.65636
324.2164
321.08493
318.67234
316.71383
315.06856
313.65287
312.41309
311.31271
310.32579
309.43325
308.62061
307.87663
307.19243
306.56081
305.97589
305.43278
304.92739
304.45623
304.01631
303.60504
303.22016
302.85971
302.52194
302.2053
301.9084
301.63
301.369
301.12439
300.89525
300.68075
300.48016
300.29277
300.11796
299.95516
299.80384
299.66352
299.53375
299.41413
299.30429
328.68773
324.27928
321.16997
318.77434
316.82947
315.19552
313.78942
312.55786
311.4646
310.4839
309.59679
308.78892
308.04913
307.36859
306.74018
306.15805
305.61737
305.11407
304.64469
304.20628
303.79626
303.41243
303.0528
302.71567
302.3995
302.10291
301.82469
301.56374
301.31905
301.08973
300.87496
300.674
300.48616
300.31083
300.14743
299.99545
299.85441
299.72386
299.60341
299.49267
328.71841
324.34078
321.25313
318.8741
316.94258
315.31972
313.92301
312.69952
311.61327
310.63867
309.75692
308.95375
308.2181
307.54119
306.91595
306.33661
305.79835
305.29714
304.82956
304.39267
303.98394
303.60116
303.2424
302.90594
302.59026
302.29403
302.01602
301.75514
301.51041
301.28095
301.06594
300.86464
300.67638
300.50055
300.33659
300.18397
300.04223
299.91093
299.78966
299.67805
328.74842
324.40094
321.33449
318.9717
317.05326
315.44125
314.05375
312.83818
311.7588
310.79021
309.91373
309.1152
308.38363
307.71031
307.08824
306.51166
305.97581
305.47669
305.01092
304.57557
304.16814
303.78645
303.42856
303.0928
302.77766
302.4818
302.20403
301.94327
301.69854
301.46896
301.25373
301.05212
300.86348
300.68718
300.52267
300.36944
300.22702
300.09498
299.97292
299.86046
328.77779
324.4598
321.4141
319.0672
317.16157
315.5602
314.18172
312.97392
311.90129
310.93861
310.06732
309.27336
308.54582
307.87606
307.25711
306.68328
306.14984
305.65281
305.18885
304.75505
304.34894
303.96834
303.61137
303.27633
302.96175
302.6663
302.38879
302.12817
301.88346
301.65379
301.43838
301.2365
301.04749
300.87074
300.70572
300.5519
300.40882
300.27606
300.15322
300.03992
328.80654
324.51742
321.49202
319.16069
317.26759
315.67664
314.30702
313.10683
312.04083
311.08395
310.21777
309.42832
308.70476
308.03851
307.42267
306.85157
306.32052
305.82558
305.36343
304.93119
304.52641
304.14693
303.79087
303.45658
303.14258
302.84757
302.57036
302.3099
302.06524
301.83551
301.61994
301.4178
301.22845
301.05129
300.88576
300.73138
300.58767
300.4542
300.3306
300.21648
328.83468
324.57382
321.56829
319.2522
317.37139
315.79066
314.42971
313.237
312.17751
311.22634
310.36518
309.58017
308.86054
308.19777
307.58499
307.0166
306.48793
305.99508
305.53473
305.10406
304.70061
304.32226
303.96715
303.63362
303.32022
303.02566
302.74877
302.4885
302.24391
302.01416
301.79845
301.59608
301.40641
301.22885
301.06285
300.90792
300.76359
300.62944
300.50509
300.39017
328.86224
324.62904
321.64298
319.34182
317.47304
315.90232
314.54988
313.3645
312.3114
311.36584
310.50964
309.729
309.01324
308.3539
307.74416
307.17845
306.65214
306.16137
305.70283
305.27372
304.87162
304.49441
304.14025
303.8075
303.49473
303.20064
302.92409
302.66403
302.41954
302.18977
301.97395
301.77138
301.58141
301.40347
301.23702
301.08155
300.93663
300.80182
300.67674
300.56102
328.88923
324.68313
321.71613
319.42959
317.5726
316.01169
314.66759
313.48942
312.44259
311.50255
310.65121
309.87488
309.16294
308.50699
307.90026
307.3372
306.81324
306.32453
305.8678
305.44026
305.0395
304.66344
304.31025
303.97829
303.66616
303.37256
303.09636
302.83654
302.59217
302.3624
302.14649
301.94373
301.75349
301.57519
301.4083
301.25233
301.10682
300.97136
300.84557
300.72908
328.91567
324.7361
321.78778
319.51556
317.67012
316.11884
314.78292
313.61182
312.57116
311.63653
310.78997
310.01789
309.30972
308.65711
308.05335
307.49293
306.9713
306.48463
306.0297
305.60372
305.20432
304.82942
304.47719
304.14604
303.83456
303.54147
303.26565
303.00607
302.76183
302.5321
302.31611
302.11318
301.92269
301.74405
301.57674
301.42028
301.2742
301.13811
301.01162
300.89437
328.94157
324.788
321.85797
319.59979
317.76568
316.22382
314.89594
313.73177
312.69716
311.76786
310.92601
310.1581
309.45364
308.80434
308.20351
307.6457
307.12638
306.64175
306.1886
305.76418
305.36613
304.99239
304.64114
304.31081
303.99999
303.70742
303.43199
303.17268
302.92859
302.6989
302.48286
302.27978
302.08905
301.91009
301.74238
301.58544
301.43882
301.30211
301.17493
301.05693
328.96695
324.83885
321.92675
319.68233
317.85932
316.32671
315.0067
313.84933
312.82067
311.8966
311.05939
310.29559
309.59479
308.94874
308.35081
307.79558
307.27854
306.79593
306.34456
305.9217
305.525
305.15242
304.80216
304.47265
304.1625
303.87047
303.59544
303.33641
303.09249
302.86286
302.64678
302.44357
302.25261
302.07335
301.90525
301.74785
301.6007
301.46339
301.33554
301.21681
328.99183
324.88869
321.99415
319.76321
317.95108
316.42755
315.11526
313.96458
312.94175
312.02283
311.19017
310.43041
309.73322
309.09039
308.49532
307.94264
307.42786
306.94726
306.49765
306.07634
305.68099
305.30957
304.9603
304.63162
304.32215
304.03066
303.75604
303.49731
303.25357
303.02402
302.80791
302.60458
302.41342
302.23387
302.0654
301.90755
301.75988
301.62198
301.49348
301.37403
329.01621
324.93753
322.06022
319.8425
318.04104
316.5264
315.22169
314.07756
313.06047
312.1466
311.31842
310.56265
309.869
309.22934
308.6371
308.08693
307.5744
307.09578
306.64793
306.22816
305.83415
305.46389
305.11561
304.78777
304.47899
304.18805
303.91386
303.65543
303.41188
303.18242
302.9663
302.76287
302.57151
302.39168
302.22286
302.06458
301.91641
301.77793
301.64879
301.52863
329.04011
324.98541
322.12498
319.92021
318.12922
316.62331
315.32603
314.18834
313.17689
312.26798
311.4442
310.69235
310.0022
309.36566
308.77621
308.22853
307.71821
307.24156
306.79545
306.37721
305.98454
305.61544
305.26815
304.94115
304.63306
304.34268
304.06892
303.81081
303.56747
303.3381
303.12198
302.91846
302.72693
302.54684
302.37768
302.21898
302.07031
301.93128
301.80151
301.68065
329.06354
325.03235
322.18847
319.99641
318.21568
316.71832
315.42835
314.29697
313.29105
312.38702
311.56757
310.81958
310.13287
309.49941
308.91271
308.36749
307.85936
307.38466
306.94028
306.52356
306.13221
305.76426
305.41797
305.09181
304.78442
304.4946
304.22128
303.9635
303.72037
303.49111
303.27501
303.07141
302.87971
302.69937
302.52988
302.37078
302.22163
302.08205
301.95167
301.83013
329.08652
325.07838
322.25072
320.07112
318.30045
316.8115
315.52868
314.40351
313.40302
312.50379
311.68859
310.94439
310.26108
309.63065
309.04666
308.50387
307.99791
307.52513
307.08246
306.66725
306.27723
305.91043
305.56512
305.2398
304.93311
304.64386
304.37099
304.11354
303.87063
303.6415
303.42542
303.22175
303.0299
302.84932
302.67951
302.52002
302.37041
302.23029
302.09931
301.9771
329.10905
325.12351
322.31176
320.14439
318.38359
316.90287
315.62709
314.508
313.51284
312.61832
311.80731
311.06685
310.38687
309.75943
309.17812
308.63772
308.1339
307.66303
307.22205
306.80833
306.41962
306.05397
305.70965
305.38517
305.07918
304.79051
304.51809
304.26097
304.0183
303.7893
303.57325
303.36953
303.17753
302.99673
302.82662
302.66674
302.51668
302.37604
302.24446
302.1216
329.13115
325.16778
322.37163
320.21624
318.46513
316.99249
315.72361
314.6105
313.62058
312.73069
311.92379
311.187
310.5103
309.8858
309.30714
308.7691
308.26739
307.79841
307.3591
306.94687
306.55946
306.19495
305.85161
305.52796
305.22268
304.93458
304.66262
304.40585
304.16342
303.93455
303.71855
303.51478
303.32265
303.14163
302.97122
302.81098
302.66048
302.51933
302.38717
302.26367
329.15283
325.21119
322.43035
320.28672
318.54511
317.0804
315.81828
314.71105
313.72627
312.84093
312.03808
311.30489
310.63143
310.00983
309.43376
308.89806
308.39843
307.93131
307.49366
307.0829
306.69679
306.3334
305.99105
305.66824
305.36366
305.07614
304.80464
304.54821
304.30603
304.0773
303.86136
303.65754
303.46529
303.28407
303.11338
302.95277
302.80184
302.66019
302.52747
302.40333
329.17409
325.25377
322.48795
320.35585
318.62356
317.16664
315.91117
314.80969
313.82997
312.9491
312.15022
311.42059
310.75031
310.13156
309.55805
309.02465
308.52708
308.0618
307.62579
307.21648
306.83165
306.46939
306.128
305.80603
305.50215
305.21521
304.94417
304.6881
304.44616
304.21759
304.0017
303.79786
303.60549
303.42407
303.25311
303.09216
302.94081
302.79867
302.66539
302.54063
329.19495
325.29555
322.54445
320.42367
318.70053
317.25124
316.00229
314.90647
313.93172
313.05523
312.26027
311.53413
310.86698
310.25104
309.68006
309.14891
308.65338
308.18992
307.75553
307.34766
306.9641