/*--------------------------------*- C++ -*----------------------------------*\
| =========                 |                                                 |
| \\      /  F ield         | OpenFOAM: The Open Source CFD Toolbox           |
|  \\    /   O peration     | Version:  2506                                  |
|   \\  /    A nd           | Website:  www.openfoam.com                      |
|    \\/     M anipulation  |                                                 |
\*---------------------------------------------------------------------------*/
FoamFile
{
    version     2.0;
    format      ascii;
    arch        "LSB;label=32;scalar=64";
    class       volScalarField;
    location    "30000/water";
    object      alphat;
}
// * * * * * * * * * * * * * * * * * * * * * * * * * * * * * * * * * * * * * //

dimensions      [1 -1 -1 0 0 0 0];

internalField   nonuniform List<scalar> 
2600
(
0.040489031
0.04048893
0.040488932
0.040488969
0.04048893
0.040488424
0.040485257
0.04046703
0.040362559
0.039762099
0.036475623
0.024118064
0.014862723
0.039376404
0.039376463
0.039376584
0.03937667
0.03937627
0.039373342
0.039357935
0.03928206
0.038918252
0.037247647
0.030707814
0.017504579
0.016810247
0.03845331
0.038453299
0.038453385
0.038453188
0.038451259
0.038441479
0.038397507
0.038208927
0.037432867
0.034484227
0.025768479
0.01464355
0.017680736
0.037674097
0.037673994
0.037673876
0.037672833
0.03766736
0.037643826
0.037549741
0.037190974
0.035896577
0.031717985
0.022022178
0.013507107
0.017935556
0.037006829
0.037006634
0.03700605
0.037003229
0.036991211
0.03694503
0.036777672
0.036201229
0.034343725
0.029136321
0.019390213
0.01332192
0.01787019
0.036428097
0.036427705
0.036426239
0.036420305
0.036397905
0.036319194
0.03605724
0.035231095
0.03281421
0.026833154
0.017684561
0.01376901
0.017658004
0.035920433
0.035919673
0.03591673
0.035905979
0.035868817
0.035747845
0.035374204
0.034281783
0.031338745
0.024847734
0.016751764
0.014701365
0.017395975
0.035470606
0.03546924
0.035464057
0.035446499
0.035390052
0.035218253
0.034721129
0.033357857
0.029935921
0.02320089
0.016491475
0.016024754
0.017137191
0.035068412
0.03506614
0.035057811
0.035031314
0.034951338
0.034722033
0.034094772
0.032463227
0.028616047
0.021918168
0.016839593
0.01764423
0.016909598
0.034705855
0.034702323
0.034689851
0.034652315
0.034545228
0.034254009
0.03349406
0.031599319
0.027389013
0.021039007
0.017742707
0.01944683
0.016725717
0.034376582
0.0343714
0.034353768
0.03430331
0.034166516
0.033811296
0.032918607
0.030765036
0.026274288
0.020612421
0.019134169
0.021310298
0.0165878
0.034075484
0.034068256
0.034044512
0.033979658
0.033811775
0.033392551
0.032367695
0.029958513
0.025310237
0.020682514
0.02092045
0.023125093
0.01649134
0.03379842
0.033788771
0.033758129
0.033677993
0.033478994
0.032997353
0.031839672
0.029180919
0.024557973
0.021270679
0.022983308
0.024813262
0.016428198
0.033542011
0.033529635
0.033491576
0.033396025
0.033167279
0.032625685
0.031331905
0.02844226
0.024095308
0.02236241
0.02519592
0.026333969
0.016389375
0.033303501
0.033288203
0.033242589
0.033132389
0.0328766
0.032277488
0.030841496
0.027768047
0.024001078
0.023903802
0.027443847
0.027676786
0.016366908
0.033080659
0.033062404
0.03300959
0.032886524
0.032607559
0.031952311
0.030367144
0.027204004
0.02433601
0.025808536
0.029640409
0.028850257
0.01635471
0.032871707
0.032850677
0.032791627
0.032658586
0.032361164
0.031649138
0.029912405
0.026815113
0.025128027
0.027972561
0.031731261
0.029871995
0.016348606
0.032675278
0.032651931
0.032588332
0.032449362
0.032138606
0.031366538
0.029490156
0.026676984
0.02636662
0.030291378
0.033689748
0.030762439
0.016345973
0.032490392
0.032465523
0.0323999
0.032260198
0.031941021
0.031103392
0.02912715
0.026861559
0.028006318
0.032674378
0.035508202
0.031541613
0.016345289
0.03231644
0.032291251
0.032227075
0.032092906
0.0317693
0.030860474
0.028866522
0.027422392
0.02997661
0.035052626
0.037189756
0.032227633
0.016345749
0.032153193
0.032129365
0.032071151
0.03194966
0.031623986
0.030643052
0.028765901
0.028384666
0.032194873
0.037379728
0.038742713
0.03283612
0.016346971
0.032000817
0.031980587
0.031933965
0.031832869
0.031505423
0.030464306
0.028890209
0.029742269
0.034578895
0.039628039
0.040177388
0.03338011
0.016348812
0.031859898
0.031846136
0.031817892
0.031745018
0.031414332
0.030348688
0.029300795
0.031461309
0.037056244
0.041783221
0.041504536
0.033870256
0.016351246
0.031731488
0.031727775
0.031725824
0.031688525
0.031353059
0.030333689
0.030044463
0.033487924
0.039569151
0.043839375
0.042734578
0.034315152
0.016354289
0.031617156
0.031627852
0.031661123
0.031665646
0.031327616
0.03046839
0.031145811
0.035757862
0.042075207
0.045795594
0.043877213
0.034721702
0.016357969
0.031519059
0.031549348
0.031627545
0.031678558
0.031350386
0.030808116
0.032604583
0.038205563
0.044545297
0.047653852
0.044941233
0.035095454
0.016362308
0.03144002
0.031495925
0.031629136
0.031729781
0.031442847
0.031406233
0.034397782
0.040771061
0.046960465
0.04941777
0.045934484
0.035440886
0.01636731
0.031383622
0.031471952
0.031670108
0.031823119
0.031637179
0.032305488
0.03648515
0.043403916
0.049308923
0.051091864
0.046863895
0.035761637
0.016372969
0.03135431
0.031482518
0.031754744
0.031965285
0.031975484
0.033531428
0.038816233
0.046064361
0.051583769
0.052681066
0.047735561
0.036060692
0.016379266
0.031357497
0.031533412
0.031887427
0.032168112
0.032505946
0.035089409
0.041337345
0.04872249
0.053781403
0.054190403
0.048554837
0.036340517
0.016386174
0.03139966
0.031631057
0.032072921
0.032450915
0.033276474
0.036965351
0.043997168
0.051356522
0.055900493
0.055624809
0.04932644
0.036603249
0.016393659
0.031488426
0.031782428
0.03231711
0.032842099
0.03432751
0.039129415
0.046750331
0.053950901
0.057941207
0.056988872
0.050054079
0.036848497
0.016401672
0.031632621
0.031994973
0.032628308
0.033378943
0.035685988
0.041541299
0.049558966
0.056494684
0.059904719
0.058286905
0.050741228
0.037078062
0.016410157
0.031842264
0.03227662
0.033019162
0.034104839
0.037361928
0.044155835
0.052392715
0.058980326
0.061792816
0.059522758
0.051390027
0.037293993
0.016419061
0.03212853
0.032636021
0.033508771
0.03506418
0.03934811
0.046927805
0.05522786
0.061402783
0.063607643
0.060699937
0.052002677
0.037497696
0.016428334
0.032503669
0.033083204
0.034124296
0.036296099
0.041622403
0.049815358
0.058046135
0.063758861
0.065351546
0.061821638
0.05258258
0.037690193
0.016437945
0.032981001
0.033630795
0.034901057
0.037828731
0.044151814
0.052781869
0.060833585
0.066046679
0.0670267
0.0628895
0.053132468
0.03787253
0.016447871
0.033575094
0.034295803
0.035880364
0.039675447
0.046897153
0.055796503
0.063579598
0.06826533
0.068635567
0.063907354
0.053654301
0.038045473
0.016458088
0.034302367
0.035101603
0.037105066
0.041833718
0.049817344
0.058833932
0.066276151
0.070414391
0.070179107
0.064878396
0.054149994
0.038209783
0.016468569
0.035182277
0.036079353
0.03861376
0.044286502
0.052872733
0.061873595
0.068917173
0.072494023
0.071660186
0.065805208
0.054621164
0.038366084
0.016479288
0.036239042
0.03726781
0.040435154
0.047005434
0.056027174
0.064898913
0.071498024
0.074503817
0.07308148
0.066690098
0.055069325
0.038514917
0.016490218
0.037503417
0.038710789
0.042584045
0.049954862
0.059248936
0.067896462
0.074015181
0.07644464
0.074445474
0.067535117
0.055495818
0.038656742
0.016501334
0.039013501
0.040452269
0.045059718
0.053095832
0.062510846
0.070855334
0.076465323
0.07831761
0.075754304
0.068342166
0.055901826
0.038791953
0.01651261
0.040813305
0.042530161
0.047846811
0.0563893
0.065789809
0.073766507
0.078846464
0.080124251
0.077009866
0.069112938
0.056288384
0.038920881
0.016524019
0.042948316
0.044970322
0.050918055
0.059798379
0.069066321
0.076621968
0.081156915
0.081865793
0.078213924
0.069848941
0.056656394
0.039043804
0.016535536
0.045458371
0.047782288
0.054237942
0.063289385
0.072323487
0.079415204
0.08339634
0.083543325
0.079368017
0.07055149
0.057006628
0.039160949
0.016547136
0.048369482
0.050957554
0.057766453
0.066832234
0.075546551
0.08214074
0.08556413
0.085157805
0.080473483
0.071221707
0.057339734
0.039272496
0.016558794
0.051686906
0.054470399
0.061462102
0.070399915
0.078721984
0.084794906
0.08765969
0.086709987
0.081531428
0.071860532
0.057656247
0.039378584
0.016570485
0.055391468
0.058280534
0.065283664
0.073967536
0.081839603
0.087374102
0.08968232
0.088200392
0.082542726
0.072468714
0.057956586
0.039479308
0.016582185
0.059440028
0.062336493
0.069190792
0.077513999
0.084890566
0.089874873
0.09163114
0.089629278
0.083508001
0.073046819
0.058241061
0.039574723
0.016593867
0.063769467
0.066579717
0.073146291
0.081021468
0.087866729
0.0922938
0.093505043
0.090996617
0.084427622
0.073595223
0.058509871
0.039664845
0.016605507
0.068304156
0.070949125
0.077116115
0.084473707
0.090760478
0.094627427
0.095302668
0.092302088
0.085301703
0.074114118
0.058763112
0.039749649
0.016617076
0.07296395
0.075384332
0.081068522
0.087855771
0.093564615
0.096872242
0.097022404
0.09354508
0.086130106
0.074603513
0.059000771
0.039829073
0.016628545
0.077671204
0.079828347
0.084974029
0.091153812
0.096272317
0.099024698
0.098662425
0.094724722
0.086912459
0.075063248
0.059222739
0.039903017
0.016639885
0.082355833
0.084229566
0.088805521
0.094354989
0.098877146
0.10108129
0.10022075
0.095839928
0.087648187
0.075493006
0.059428815
0.039971349
0.016651062
0.086958195
0.088543069
0.092538474
0.097447485
0.10137311
0.10303862
0.10169535
0.096889467
0.088336556
0.075892347
0.059618725
0.040033908
0.016662041
0.091430078
0.092731259
0.096151236
0.10042061
0.10375477
0.10489358
0.10308425
0.097872054
0.088976738
0.076260741
0.059792136
0.040090513
0.016672786
0.095734366
0.096763934
0.099625277
0.10326491
0.10601733
0.10664339
0.10438564
0.09878645
0.089567882
0.076597616
0.059948686
0.040140973
0.016683256
0.099843917
0.10061792
0.10294534
0.10597237
0.10815677
0.10828579
0.10559802
0.099631567
0.090109192
0.076902412
0.060088013
0.040185102
0.016693412
0.10374009
0.10427641
0.10609947
0.10853648
0.11016994
0.10981913
0.1067203
0.10040657
0.090600015
0.077174642
0.060209792
0.040222726
0.016703211
0.10741126
0.10772819
0.10907892
0.11095233
0.11205463
0.11124241
0.1077519
0.10111099
0.091039918
0.077413943
0.060313763
0.040253709
0.016712613
0.11085136
0.11096672
0.11187792
0.11321663
0.11380962
0.11255537
0.10869279
0.10174474
0.091428754
0.077620135
0.060399772
0.040277956
0.016721579
0.11405874
0.1139894
0.11449343
0.11532767
0.1154347
0.11375851
0.10954355
0.10230823
0.091766715
0.077793263
0.060467796
0.040295435
0.01673007
0.1170351
0.11679673
0.11692478
0.11728526
0.11693062
0.11485306
0.11030538
0.10280237
0.092054371
0.077933631
0.060517969
0.040306184
0.016738054
0.1197847
0.11939171
0.11917334
0.11909056
0.11829905
0.11584098
0.11098008
0.10322856
0.092292682
0.07804182
0.060550592
0.040310315
0.016745503
0.12231372
0.12177928
0.12124221
0.12074596
0.11954254
0.11672486
0.11157001
0.10358869
0.092482999
0.078118697
0.060566148
0.040308022
0.016752393
0.12462972
0.12396583
0.12313585
0.12225493
0.12066436
0.11750793
0.11207804
0.10388509
0.092627043
0.078165406
0.060565292
0.040299577
0.016758707
0.12674126
0.12595886
0.12485985
0.12362183
0.12166847
0.11819389
0.1125075
0.10412049
0.092726873
0.078183346
0.060548844
0.040285324
0.016764435
0.12865759
0.12776664
0.12642067
0.12485177
0.12255937
0.11878691
0.11286209
0.10429797
0.092784843
0.07817415
0.060517774
0.040265673
0.016769575
0.13038838
0.12939797
0.12782541
0.12595043
0.12334202
0.1192915
0.11314581
0.10442089
0.092803557
0.078139642
0.060473175
0.04024109
0.01677413
0.13194357
0.13086202
0.12908163
0.12692395
0.12402175
0.11971244
0.11336291
0.10449281
0.092785808
0.078081803
0.060416243
0.040212081
0.016778109
0.13333319
0.13216811
0.13019717
0.12777881
0.1246041
0.1200547
0.11351779
0.10451747
0.092734531
0.078002727
0.060348244
0.040179182
0.016781528
0.13456723
0.1333256
0.13118007
0.12852165
0.12509482
0.12032339
0.11361495
0.10449866
0.092652749
0.07790458
0.060270493
0.040142946
0.016784407
0.13565558
0.13434384
0.13203841
0.12915929
0.12549974
0.12052366
0.11365893
0.10444026
0.092543523
0.077789562
0.060184318
0.040103927
0.016786771
0.13660795
0.13523199
0.13278025
0.12969851
0.12582473
0.12066066
0.11365425
0.10434609
0.092409906
0.077659867
0.060091047
0.040062675
0.016788648
0.13743378
0.13599906
0.13341354
0.13014611
0.12607559
0.12073951
0.11360539
0.10421993
0.092254909
0.077517658
0.059991977
0.04001972
0.016790068
0.13814225
0.13665379
0.13394608
0.13050875
0.12625808
0.12076521
0.11351671
0.10406548
0.092081462
0.077365031
0.059888358
0.039975568
0.016791065
0.1387422
0.13720463
0.13438542
0.13079295
0.12637779
0.12074265
0.11339246
0.10388632
0.09189239
0.077203998
0.05978138
0.03993069
0.016791671
0.1392421
0.13765971
0.13473892
0.13100507
0.1264402
0.12067657
0.11323671
0.10368585
0.091690389
0.077036466
0.059672159
0.039885524
0.016791921
0.13965009
0.13802683
0.13501361
0.13115122
0.12645057
0.1205715
0.11305338
0.10346734
0.091478007
0.076864222
0.059561729
0.039840465
0.01679185
0.13997391
0.13831344
0.13521627
0.1312373
0.12641395
0.12043182
0.11284618
0.10323388
0.091257634
0.076688928
0.059451035
0.039795868
0.016791489
0.14022093
0.13852662
0.13535333
0.13126893
0.12633519
0.12026167
0.11261865
0.10298833
0.091031494
0.076512107
0.05934093
0.039752046
0.016790873
0.1403981
0.13867308
0.13543094
0.13125149
0.1262189
0.12006497
0.11237407
0.10273341
0.090801635
0.076335148
0.059232176
0.039709269
0.016790032
0.14051203
0.13875918
0.13545489
0.13119006
0.12606943
0.11984542
0.11211556
0.10247161
0.090569934
0.076159297
0.059125444
0.039667767
0.016788996
0.14056892
0.1387909
0.13543069
0.13108945
0.12589091
0.11960652
0.11184599
0.10220522
0.090338093
0.075985667
0.059021313
0.03962773
0.016787793
0.14057459
0.13877388
0.1353635
0.13095421
0.12568722
0.11935152
0.11156804
0.10193635
0.090107638
0.075815222
0.058920233
0.039589101
0.016786448
0.14053454
0.13871341
0.13525817
0.13078861
0.12546198
0.11908343
0.11128416
0.10166689
0.089879924
0.075648787
0.058822558
0.039551831
0.016784983
0.14045386
0.13861441
0.13511925
0.13059663
0.12521859
0.11880508
0.11099662
0.10139857
0.089656122
0.075486997
0.058728311
0.039516209
0.016783417
0.14033734
0.13848152
0.13495099
0.130382
0.1249602
0.11851904
0.11070744
0.1011329
0.089437257
0.075330435
0.058637833
0.039482363
0.016781769
0.14018942
0.13831902
0.13475734
0.13014819
0.12468974
0.1182277
0.11041849
0.10087121
0.089224121
0.075179226
0.058551557
0.039450383
0.016780059
0.14001424
0.13813092
0.13454199
0.12989842
0.1244099
0.11793322
0.11013141
0.10061463
0.089017344
0.075034064
0.05846963
0.039420321
0.016778308
0.13981563
0.13792092
0.13430832
0.12963567
0.12412316
0.11763757
0.10984766
0.10036416
0.088817469
0.074895409
0.058392178
0.039392208
0.016776531
0.13959712
0.13769244
0.13405951
0.12936268
0.12383178
0.1173425
0.10956847
0.10012044
0.088625296
0.074763508
0.058319281
0.039366056
0.016774745
0.13936199
0.13744863
0.13379844
0.12908195
0.12353781
0.11704956
0.10929488
0.099884422
0.08844129
0.074638537
0.058250974
0.039341855
0.016772961
0.13911325
0.13719241
0.13352777
0.12879578
0.12324308
0.11676009
0.10902789
0.099656886
0.088265794
0.074520612
0.058187256
0.039319579
0.016771194
0.13885365
0.13692643
0.13324993
0.12850624
0.12294921
0.11647526
0.10876857
0.099438385
0.088099062
0.074409786
0.058128089
0.039299186
0.016769451
0.1385857
0.13665312
0.1329671
0.12821514
0.1226576
0.11619639
0.10851772
0.099229356
0.087941262
0.074306061
0.058073408
0.039280625
0.016767743
0.13831169
0.13637464
0.13268121
0.12792412
0.12236976
0.11592453
0.10827599
0.099030133
0.087792489
0.07420939
0.058023117
0.039263832
0.016766077
0.13803363
0.13609293
0.13239408
0.12763484
0.12208699
0.11566057
0.10804393
0.098840954
0.08765277
0.074119682
0.057977103
0.039248739
0.016764459
0.1377534
0.13580981
0.13210741
0.12734877
0.1218104
0.11540528
0.10782196
0.098661975
0.087522071
0.074036808
0.057935231
0.03923527
0.016762895
0.1374727
0.13552698
0.13182275
0.12706719
0.12154098
0.11515929
0.10761041
0.098493273
0.087400304
0.073960607
0.057897352
0.039223348
0.016761388
0.1371931
0.13524594
0.13154148
0.12679125
0.12127954
0.11492312
0.10740951
0.098334853
0.087287334
0.073890891
0.057863305
0.039212891
0.016759942
0.13691603
0.13496806
0.13126483
0.12652196
0.12102683
0.11469719
0.1072194
0.098186662
0.087182983
0.073827449
0.05783292
0.039203817
0.01675856
0.13664275
0.13469458
0.13099388
0.12626018
0.12078342
0.11448182
0.10704017
0.098048587
0.087087039
0.07377005
0.057806021
0.039196041
0.016757243
0.13637441
0.13442658
0.1307296
0.12600665
0.12054981
0.11427723
0.1068718
0.097920467
0.086999259
0.073718449
0.057782426
0.039189482
0.016755993
0.13611202
0.134165
0.13047281
0.12576202
0.12032639
0.11408357
0.10671424
0.097802097
0.086919373
0.073672388
0.057761952
0.039184057
0.016754811
0.13585644
0.13391068
0.13022422
0.1255268
0.12011345
0.11390091
0.10656736
0.097693237
0.08684709
0.073631602
0.057744413
0.039179686
0.016753697
0.13560845
0.13366434
0.12998443
0.12530142
0.11991122
0.11372924
0.10643101
0.097593609
0.086782103
0.073595819
0.057729627
0.039176289
0.01675265
0.13536869
0.13342658
0.12975394
0.1250862
0.11971981
0.11356852
0.10630497
0.097502913
0.08672409
0.073564765
0.057717409
0.03917379
0.016751671
0.13513771
0.13319791
0.12953316
0.12488141
0.11953929
0.11341862
0.10618898
0.097420822
0.08667272
0.073538163
0.057707581
0.039172114
0.016750758
0.13491596
0.13297873
0.1293224
0.12468719
0.11936967
0.11327939
0.10608277
0.097346993
0.086627654
0.073515739
0.057699968
0.039171191
0.01674991
0.1347038
0.13276937
0.12912189
0.12450366
0.11921087
0.1131506
0.10598601
0.097281066
0.08658855
0.073497219
0.057694397
0.039170951
0.016749125
0.13450151
0.13257008
0.12893178
0.12433085
0.11906278
0.11303202
0.10589837
0.097222671
0.086555065
0.073482335
0.057690704
0.039171329
0.016748403
0.13430928
0.13238101
0.12875218
0.12416871
0.11892524
0.11292337
0.1058195
0.09717143
0.086526856
0.073470824
0.057688727
0.039172263
0.01674774
0.13412725
0.13220226
0.1285831
0.12401717
0.11879804
0.11282432
0.10574902
0.097126961
0.086503581
0.073462427
0.057688312
0.039173694
0.016747136
0.13395547
0.13203388
0.12842451
0.12387609
0.11868093
0.11273455
0.10568655
0.097088878
0.086484907
0.073456897
0.057689312
0.039175564
0.016746587
0.13379396
0.13187583
0.12827631
0.1237453
0.11857365
0.1126537
0.10563168
0.097056796
0.086470503
0.073453989
0.057691584
0.039177821
0.016746093
0.13364265
0.13172804
0.12813839
0.12362457
0.11847588
0.1125814
0.10558402
0.097030333
0.086460046
0.073453472
0.057694994
0.039180414
0.016745649
0.13350146
0.13159039
0.12801056
0.12351366
0.11838729
0.11251726
0.10554317
0.097009112
0.086453223
0.07345512
0.057699413
0.039183298
0.016745255
0.13337023
0.13146271
0.12789261
0.12341228
0.11830753
0.11246088
0.10550872
0.096992761
0.086449729
0.07345872
0.057704721
0.039186428
0.016744907
0.13324878
0.1313448
0.12778428
0.12332013
0.11823624
0.11241187
0.10548027
0.096980914
0.086449272
0.073464065
0.057710803
0.039189762
0.016744604
0.13313689
0.13123642
0.1276853
0.12323686
0.11817303
0.11236982
0.10545742
0.096973219
0.086451566
0.073470961
0.057717551
0.039193264
0.016744342
0.1330343
0.13113729
0.12759537
0.12316213
0.11811752
0.11233431
0.10543978
0.096969328
0.086456341
0.073479222
0.057724865
0.039196897
0.01674412
0.13294075
0.13104714
0.12751416
0.12309558
0.11806931
0.11230495
0.10542696
0.096968909
0.086463337
0.073488673
0.057732649
0.039200629
0.016743934
0.13285592
0.13096563
0.12744132
0.12303682
0.11802798
0.11228132
0.10541859
0.096971638
0.086472305
0.073499149
0.057740816
0.03920443
0.016743783
0.13277949
0.13089243
0.1273765
0.12298547
0.11799315
0.11226304
0.1054143
0.096977205
0.086483009
0.073510493
0.057749284
0.039208271
0.016743663
0.13271111
0.1308272
0.12731932
0.12294114
0.1179644
0.11224969
0.10541372
0.096985312
0.086495225
0.073522561
0.057757976
0.039212128
0.016743574
0.13265045
0.13076957
0.1272694
0.12290343
0.11794134
0.11224091
0.10541652
0.096995676
0.086508743
0.073535215
0.057766822
0.039215977
0.016743512
0.13259712
0.13071916
0.12722636
0.12287194
0.11792357
0.11223632
0.10542238
0.097008028
0.086523363
0.073548329
0.057775757
0.039219798
0.016743475
0.13255077
0.1306756
0.12718982
0.12284628
0.1179107
0.11223555
0.10543096
0.097022113
0.086538902
0.073561786
0.057784724
0.039223571
0.016743462
0.132511
0.13063852
0.12715937
0.12282605
0.11790236
0.11223826
0.10544197
0.09703769
0.086555187
0.073575481
0.05779367
0.03922728
0.016743469
0.13247746
0.13060752
0.12713464
0.12281089
0.11789817
0.11224411
0.10545512
0.097054535
0.086572057
0.073589315
0.057802549
0.039230911
0.016743496
0.13244976
0.13058223
0.12711525
0.12280039
0.11789777
0.11225278
0.10547015
0.097072437
0.086589367
0.0736032
0.057811317
0.039234453
0.016743539
0.13242752
0.13056227
0.12710081
0.12279421
0.11790083
0.11226396
0.10548679
0.097091197
0.086606978
0.073617054
0.057819938
0.039237895
0.016743598
0.13241036
0.13054726
0.12709095
0.12279196
0.117907
0.11227735
0.1055048
0.097110631
0.086624765
0.073630803
0.057828377
0.039241227
0.016743671
0.13239792
0.13053684
0.12708531
0.12279331
0.11791595
0.11229267
0.10552396
0.097130565
0.086642609
0.073644379
0.057836604
0.039244441
0.016743756
0.13238984
0.13053063
0.12708352
0.12279792
0.11792739
0.11230966
0.10554403
0.097150837
0.086660402
0.073657719
0.057844591
0.039247529
0.016743851
0.13238575
0.13052828
0.12708524
0.12280544
0.117941
0.11232805
0.10556482
0.097171295
0.086678043
0.073670765
0.05785231
0.039250469
0.016743955
0.13238531
0.13052946
0.12709013
0.12281556
0.1179565
0.1123476
0.10558614
0.097191802
0.086695443
0.073683466
0.057859733
0.03925324
0.016744067
0.13238819
0.13053382
0.12709787
0.12282799
0.11797363
0.11236811
0.10560782
0.097212232
0.086712518
0.073695772
0.057866824
0.039255854
0.016744183
0.13239406
0.13054105
0.12710816
0.12284243
0.11799215
0.11238935
0.10562969
0.097232476
0.086729202
0.073707649
0.057873572
0.039258314
0.016744304
0.13240262
0.13055085
0.1271207
0.12285864
0.11801181
0.11241115
0.10565162
0.097252437
0.086745431
0.073719046
0.057879984
0.039260622
0.016744428
0.13241359
0.13056293
0.12713523
0.12287635
0.11803242
0.11243333
0.10567349
0.097272033
0.086761158
0.073729955
0.057886058
0.039262782
0.016744554
0.13242669
0.13057704
0.12715148
0.12289535
0.11805377
0.11245575
0.10569518
0.097291189
0.086776324
0.073740379
0.057891799
0.039264799
0.016744681
0.13244166
0.1305929
0.12716922
0.1229154
0.11807569
0.11247826
0.1057166
0.097309834
0.08679092
0.07375031
0.057897209
0.03926668
0.016744809
0.13245824
0.13061027
0.12718822
0.12293632
0.11809801
0.11250073
0.10573764
0.097327911
0.086804932
0.073759745
0.057902297
0.039268433
0.016744938
0.1324762
0.13062892
0.12720825
0.12295789
0.11812055
0.11252304
0.10575821
0.097345387
0.086818337
0.073768681
0.057907067
0.039270062
0.016745066
0.13249529
0.13064861
0.12722909
0.12297993
0.11814316
0.11254505
0.10577825
0.097362217
0.086831116
0.073777114
0.057911525
0.039271572
0.016745193
0.13251528
0.13066912
0.12725053
0.12300224
0.11816567
0.11256664
0.10579767
0.097378356
0.086843243
0.073785038
0.05791567
0.039272965
0.01674532
0.13253595
0.13069021
0.12727236
0.12302464
0.11818794
0.11258773
0.1058164
0.097393758
0.086854697
0.073792442
0.057919501
0.039274239
0.016745444
0.13255709
0.1307117
0.12729438
0.12304695
0.11820985
0.11260821
0.10583439
0.097408382
0.086865457
0.073799321
0.057923016
0.039275394
0.016745565
0.1325785
0.13073338
0.12731643
0.12306906
0.11823128
0.112628
0.10585158
0.097422198
0.086875507
0.073805667
0.057926212
0.039276426
0.016745683
0.13260003
0.13075512
0.12733837
0.12309082
0.11825214
0.11264704
0.10586792
0.097435187
0.086884844
0.073811484
0.057929094
0.039277337
0.016745797
0.13262155
0.13077677
0.12736009
0.12311217
0.11827237
0.11266529
0.1058834
0.097447349
0.086893476
0.073816784
0.057931669
0.039278128
0.016745905
0.13264296
0.13079826
0.1273815
0.12313302
0.11829193
0.11268274
0.10589803
0.097458703
0.086901428
0.073821589
0.057933953
0.039278804
0.016746008
0.1326642
0.13081951
0.12740256
0.12315336
0.11831081
0.1126994
0.10591184
0.097469283
0.086908739
0.073825933
0.057935971
0.039279378
0.016746106
0.1326852
0.13084048
0.12742323
0.12317316
0.118329
0.11271528
0.10592485
0.09747914
0.086915458
0.07382986
0.057937752
0.039279863
0.016746199
0.13270593
0.13086112
0.12744347
0.1231924
0.11834653
0.11273041
0.10593712
0.097488327
0.086921639
0.073833417
0.05793933
0.039280279
0.016746287
0.13272632
0.13088139
0.12746325
0.12321107
0.11836338
0.11274483
0.10594869
0.097496892
0.086927332
0.073836644
0.057940735
0.03928064
0.016746372
0.1327463
0.13090122
0.12748252
0.12322914
0.11837956
0.11275854
0.10595958
0.097504869
0.086932571
0.073839574
0.057941991
0.039280961
0.016746453
0.13276578
0.13092053
0.12750121
0.12324656
0.11839503
0.11277153
0.10596979
0.097512272
0.086937377
0.073842224
0.05794311
0.039281248
0.016746532
0.13278466
0.13093921
0.12751923
0.12326325
0.11840973
0.11278376
0.10597931
0.097519092
0.086941745
0.073844595
0.057944093
0.039281502
0.016746607
0.13280279
0.13095715
0.12753647
0.12327913
0.1184236
0.11279519
0.1059881
0.097525303
0.086945657
0.073846673
0.057944931
0.039281717
0.01674668
0.13282007
0.13097421
0.12755282
0.12329408
0.11843656
0.11280574
0.10599611
0.097530866
0.086949083
0.073848433
0.057945603
0.03928188
0.016746749
0.13283638
0.13099031
0.12756818
0.12330804
0.11844853
0.11281536
0.10600329
0.097535745
0.086951994
0.073849853
0.057946092
0.039281978
0.016746813
0.13285165
0.13100536
0.12758248
0.12332095
0.11845947
0.11282402
0.10600962
0.097539919
0.08695437
0.073850913
0.057946381
0.039281998
0.016746871
0.13286586
0.13101934
0.12759571
0.12333278
0.11846937
0.11283171
0.10601509
0.097543393
0.086956216
0.073851616
0.057946467
0.039281934
0.016746922
0.13287904
0.13103228
0.12760789
0.12334357
0.11847828
0.11283849
0.10601977
0.097546207
0.086957563
0.073851983
0.057946361
0.039281787
0.016746966
0.13289128
0.13104427
0.1276191
0.12335341
0.11848627
0.11284443
0.10602372
0.097548434
0.086958474
0.07385206
0.057946091
0.039281568
0.016747003
0.13290271
0.13105541
0.12762947
0.12336242
0.11849347
0.11284966
0.10602706
0.097550177
0.086959033
0.073851912
0.0579457
0.039281299
0.016747033
0.13291347
0.13106587
0.12763913
0.12337073
0.11850003
0.11285431
0.10602992
0.097551549
0.086959336
0.073851611
0.057945236
0.039281004
0.016747059
0.13292369
0.13107577
0.12764823
0.12337849
0.11850607
0.11285852
0.10603243
0.097552665
0.086959479
0.073851233
0.057944751
0.03928071
0.016747081
0.13293347
0.13108522
0.12765686
0.1233858
0.11851171
0.11286239
0.10603468
0.097553619
0.086959542
0.073850836
0.057944283
0.039280439
0.016747102
0.13294287
0.13109427
0.12766511
0.12339275
0.11851702
0.112866
0.10603676
0.097554473
0.086959575
0.073850462
0.057943863
0.03928021
0.016747122
0.13295188
0.13110294
0.12767297
0.12339933
0.11852202
0.11286937
0.10603867
0.097555248
0.086959598
0.073850123
0.057943497
0.039280026
0.016747142
0.13296041
0.13111115
0.12768039
0.12340551
0.11852668
0.11287248
0.1060404
0.097555923
0.086959591
0.073849803
0.057943175
0.039279883
0.016747164
0.13296836
0.1311188
0.12768728
0.1234112
0.11853092
0.11287525
0.10604189
0.097556446
0.086959508
0.073849465
0.057942867
0.039279765
0.016747186
0.13297558
0.13112575
0.12769351
0.1234163
0.11853464
0.11287759
0.10604305
0.097556742
0.086959285
0.073849056
0.057942537
0.03927965
0.016747207
0.13298193
0.13113186
0.12769896
0.12342067
0.11853773
0.11287941
0.10604381
0.097556735
0.086958858
0.073848526
0.057942148
0.039279516
0.016747225
0.1329873
0.13113703
0.12770352
0.12342424
0.11854011
0.11288063
0.10604408
0.097556366
0.086958175
0.073847829
0.057941664
0.039279341
0.016747241
0.13299165
0.1311412
0.12770713
0.12342696
0.11854174
0.11288122
0.10604384
0.097555603
0.086957208
0.073846946
0.057941071
0.039279114
0.016747251
0.13299499
0.13114439
0.12770982
0.12342882
0.11854263
0.11288119
0.1060431
0.097554453
0.08695596
0.073845873
0.057940363
0.039278829
0.016747256
0.13299742
0.13114668
0.12771166
0.12342992
0.11854285
0.1128806
0.10604192
0.097552961
0.086954467
0.073844639
0.057939558
0.039278492
0.016747255
0.1329991
0.13114822
0.12771279
0.12343037
0.11854252
0.11287956
0.10604038
0.097551209
0.086952795
0.073843291
0.057938685
0.039278118
0.016747249
0.13300022
0.13114919
0.12771337
0.12343035
0.11854178
0.1128782
0.1060386
0.097549299
0.086951026
0.07384189
0.057937786
0.039277726
0.016747239
0.13300101
0.13114982
0.12771362
0.12343003
0.11854082
0.11287667
0.10603673
0.097547343
0.086949251
0.073840505
0.057936906
0.039277341
0.016747226
0.13300167
0.13115029
0.12771372
0.12342958
0.11853978
0.11287513
0.10603488
0.097545448
0.086947553
0.073839197
0.057936084
0.039276984
0.016747213
0.13300235
0.13115078
0.12771383
0.12342917
0.1185388
0.11287368
0.10603316
0.097543698
0.086946001
0.073838015
0.057935353
0.039276673
0.0167472
0.13300317
0.13115138
0.12771405
0.12342887
0.11853796
0.1128724
0.10603164
0.09754215
0.086944637
0.073836988
0.057934731
0.039276417
0.01674719
0.13300415
0.13115215
0.12771444
0.12342875
0.11853731
0.11287133
0.10603034
0.097540824
0.086943478
0.07383613
0.057934228
0.039276226
0.016747181
0.13300526
0.13115305
0.12771495
0.12342877
0.11853684
0.11287046
0.10602925
0.09753971
0.086942512
0.073835432
0.05793384
0.039276097
0.016747176
0.13300639
0.13115399
0.12771552
0.12342887
0.11853646
0.11286972
0.10602831
0.097538758
0.086941702
0.073834866
0.05793355
0.039276031
0.016747174
0.13300739
0.13115483
0.12771603
0.12342893
0.1185361
0.11286903
0.10602745
0.097537897
0.086940985
0.073834384
0.057933329
0.039276008
0.016747175
0.1330081
0.13115542
0.12771632
0.12342883
0.11853561
0.11286826
0.10602656
0.097537038
0.086940284
0.073833921
0.057933124
0.039275995
0.016747176
0.13300836
0.13115559
0.12771625
0.12342843
0.11853489
0.11286732
0.10602554
0.09753609