/*--------------------------------*- C++ -*----------------------------------*\
| =========                 |                                                 |
| \\      /  F ield         | OpenFOAM: The Open Source CFD Toolbox           |
|  \\    /   O peration     | Version:  2506                                  |
|   \\  /    A nd           | Website:  www.openfoam.com                      |
|    \\/     M anipulation  |                                                 |
\*---------------------------------------------------------------------------*/
FoamFile
{
    version     2.0;
    format      ascii;
    arch        "LSB;label=32;scalar=64";
    class       volScalarField;
    location    "30000/water";
    object      epsilon;
}
// * * * * * * * * * * * * * * * * * * * * * * * * * * * * * * * * * * * * * //

dimensions      [0 2 -3 0 0 0 0];

internalField   nonuniform List<scalar> 
2600
(
8.8079773e-05
8.8079245e-05
8.8079271e-05
8.807949e-05
8.8079744e-05
8.8080245e-05
8.8082926e-05
8.8104349e-05
8.8272771e-05
8.9512908e-05
9.8428186e-05
0.00017145296
0.0010138716
6.7789348e-05
6.7791881e-05
6.7793339e-05
6.7794963e-05
6.7796901e-05
6.7799886e-05
6.7810178e-05
6.7875511e-05
6.8312468e-05
7.1039872e-05
8.7857083e-05
0.00021159534
0.0014669324
5.3500886e-05
5.3503148e-05
5.3504846e-05
5.3506859e-05
5.3509287e-05
5.3513643e-05
5.3532992e-05
5.3656306e-05
5.4399641e-05
5.8506995e-05
8.1500797e-05
0.00023956052
0.0017068244
4.3127504e-05
4.3128883e-05
4.3130503e-05
4.3132598e-05
4.3135149e-05
4.3140834e-05
4.3171684e-05
4.3362646e-05
4.4413342e-05
4.9710824e-05
7.7552644e-05
0.00025818579
0.0017816909
3.539909e-05
3.5400132e-05
3.5401605e-05
3.5403513e-05
3.5405834e-05
3.5412916e-05
3.5457613e-05
3.5722605e-05
3.7073304e-05
4.3450503e-05
7.5629285e-05
0.00027290618
0.0017622817
2.9510599e-05
2.9511446e-05
2.95127e-05
2.9514227e-05
2.9516143e-05
2.9525119e-05
2.9586798e-05
2.9933924e-05
3.159515e-05
3.9095388e-05
7.5939385e-05
0.00028837858
0.0017002497
2.4935213e-05
2.4935877e-05
2.4936847e-05
2.4937875e-05
2.4939416e-05
2.4951342e-05
2.503458e-05
2.5477125e-05
2.7489448e-05
3.6318413e-05
7.8818158e-05
0.0003073199
0.0016256765
2.1318423e-05
2.1318913e-05
2.1319549e-05
2.132003e-05
2.1321464e-05
2.1338095e-05
2.144948e-05
2.2008273e-05
2.4447975e-05
3.4968795e-05
8.4593389e-05
0.00033066897
0.0015541994
1.8415642e-05
1.8415958e-05
1.8416233e-05
1.8416208e-05
1.8418091e-05
1.8442025e-05
1.8590687e-05
1.9295945e-05
2.2279378e-05
3.5010665e-05
9.3512814e-05
0.00035786641
0.0014930959
1.6054297e-05
1.6054439e-05
1.6054351e-05
1.6053968e-05
1.6057197e-05
1.6092028e-05
1.6290179e-05
1.7183376e-05
2.0872546e-05
3.6486908e-05
0.00010564207
0.00038720676
0.0014449141
1.411016e-05
1.4110129e-05
1.4109712e-05
1.4109249e-05
1.4115119e-05
1.4165612e-05
1.4429188e-05
1.5565379e-05
2.0175367e-05
3.9486471e-05
0.00012074249
0.00041640751
0.0014094648
1.249217e-05
1.2491978e-05
1.249131e-05
1.24912e-05
1.2501471e-05
1.2573786e-05
1.2923263e-05
1.4374121e-05
2.0181311e-05
4.4103574e-05
0.00013819401
0.0004433175
0.0013850187
1.1132483e-05
1.1132152e-05
1.1131368e-05
1.1132227e-05
1.1149209e-05
1.1251189e-05
1.1712642e-05
1.3570321e-05
2.0918928e-05
5.0386672e-05
0.00015703479
0.00046647967
0.0013691707
9.9797899e-06
9.9793621e-06
9.9786681e-06
9.9813266e-06
1.0007987e-05
1.0149541e-05
1.0756002e-05
1.3137755e-05
2.2440689e-05
5.8285038e-05
0.00017613324
0.00048532286
0.0013594869
8.994766e-06
8.994305e-06
8.9939894e-06
8.9995396e-06
9.0396464e-06
9.2332357e-06
1.0026406e-05
1.3079617e-05
2.4808572e-05
6.7609618e-05
0.00019442665
0.00050000486
0.0013539038
8.1468971e-06
8.1464947e-06
8.1469469e-06
8.1567947e-06
8.2150975e-06
8.4763588e-06
9.5087285e-06
1.3415553e-05
2.807526e-05
7.8026841e-05
0.0002111215
0.00051110137
0.0013508788
7.4122408e-06
7.412023e-06
7.4137548e-06
7.4296903e-06
7.5121568e-06
7.8606834e-06
9.1980663e-06
1.4178291e-05
3.2262331e-05
8.9094588e-05
0.00022578146
0.00051932558
0.0013493668
6.7718206e-06
6.7719549e-06
6.7756276e-06
6.7999151e-06
6.9140283e-06
7.3743439e-06
9.0987625e-06
1.5408888e-05
3.7339829e-05
0.00010033156
0.00023829849
0.00052535583
0.0013487149
6.2104575e-06
6.2111621e-06
6.2176208e-06
6.2531142e-06
6.4082476e-06
7.0110033e-06
9.2236697e-06
1.7149875e-05
4.3213605e-05
0.00011129559
0.0002487951
0.00052976262
0.0013485457
5.7159095e-06
5.7174657e-06
5.7277834e-06
5.7780724e-06
5.9859581e-06
6.7693776e-06
9.5932706e-06
1.9436232e-05
4.9726067e-05
0.00012164394
0.00025751549
0.00053299526
0.0013486594
5.2782322e-06
5.2809984e-06
5.2965329e-06
5.3661281e-06
5.6414368e-06
6.6530083e-06
1.0234238e-05
2.228513e-05
5.6672016e-05
0.00013115952
0.00026474159
0.0005353945
0.0013489619
4.889296e-06
4.893728e-06
4.9161934e-06
5.0107595e-06
5.3718124e-06
6.6701645e-06
1.1177042e-05
2.5686553e-05
6.3825678e-05
0.00013974422
0.00027074337
0.00053721257
0.0013494179
4.5424222e-06
4.549097e-06
4.5806559e-06
4.707302e-06
5.1769356e-06
6.8337316e-06
1.2452335e-05
2.9597477e-05
7.0970789e-05
0.00014739148
0.0002757568
0.0005386328
0.0013500205
4.2321037e-06
4.2417515e-06
4.2851315e-06
4.4527719e-06
5.0593678e-06
7.1609028e-06
1.4086152e-05
3.394183e-05
7.7925113e-05
0.00015415333
0.00027997823
0.00053978641
0.0013507744
3.9537926e-06
3.9673375e-06
4.0259782e-06
4.2457763e-06
5.0244498e-06
7.6724685e-06
1.6094424e-05
3.8616919e-05
8.4553951e-05
0.00016011197
0.00028356674
0.00054076616
0.0013516866
3.7037376e-06
3.7223496e-06
3.8005873e-06
4.0864974e-06
5.0804009e-06
8.3914976e-06
1.8477844e-05
4.3504911e-05
9.077206e-05
0.00016536002
0.00028664926
0.00054163685
0.0013527623
3.4788613e-06
3.504022e-06
3.6073203e-06
3.9767408e-06
5.2383695e-06
9.3412706e-06
2.1218352e-05
4.8486363e-05
9.6537094e-05
0.00016998886
0.00028932618
0.00054244334
0.0013540034
3.2766694e-06
3.3102566e-06
3.4454921e-06
3.9200366e-06
5.5123349e-06
1.0542478e-05
2.4278371e-05
5.3452376e-05
0.00010183911
0.00017408281
0.00029167656
0.00054321637
0.0013554084
3.0951868e-06
3.1395803e-06
3.315394e-06
3.9217755e-06
5.9187331e-06
1.2009945e-05
2.7603266e-05
5.8312862e-05
0.0001066899
0.00017771679
0.00029376257
0.00054397675
0.0013569728
2.9329181e-06
2.991133e-06
3.2183574e-06
3.9893517e-06
6.4756801e-06
1.3749403e-05
3.112658e-05
6.3000084e-05
0.00011111418
0.0001809559
0.00029563313
0.00054473837
0.0013586903
2.7888292e-06
2.8646819e-06
3.1568532e-06
4.132263e-06
7.2016967e-06
1.5755029e-05
3.4776807e-05
6.7468124e-05
0.00011514328
0.00018385585
0.00029732665
0.00054550992
0.0013605531
2.6623516e-06
2.7606642e-06
3.1346228e-06
4.362102e-06
8.1139275e-06
1.8008404e-05
3.8484156e-05
7.1689805e-05
0.00011881108
0.00018646428
0.00029887505
0.00054629402
0.0013625491
2.5534088e-06
2.680258e-06
3.1568304e-06
4.6923497e-06
9.22598e-06
2.0479254e-05
4.21859e-05
7.5652556e-05
0.00012215122
0.00018882083
0.00030030031
0.00054708344
0.001364665
2.4624667e-06
2.6254827e-06
3.2302147e-06
5.1378784e-06
1.0545685e-05
2.3127918e-05
4.5829653e-05
7.9354439e-05
0.00012519597
0.00019095973
0.00030162122
0.00054787012
0.0013668874
2.3906118e-06
2.5993266e-06
3.3632046e-06
5.7140891e-06
1.2073206e-05
2.5908984e-05
4.9374527e-05
8.2800767e-05
0.00012797522
0.0001929092
0.00030285018
0.00054865287
0.0013692048
2.3396576e-06
2.6059009e-06
3.565945e-06
6.4356566e-06
1.3799941e-05
2.8775319e-05
5.2790669e-05
8.6001443e-05
0.00013051585
0.00019469159
0.00030399376
0.00054944273
0.0013716092
2.3122834e-06
2.6506068e-06
3.8501618e-06
7.3149531e-06
1.5708513e-05
3.1681692e-05
5.6057927e-05
8.8969441e-05
0.00013284315
0.00019632773
0.00030505437
0.00055025018
0.0013740956
2.312204e-06
2.7402971e-06
4.2287855e-06
8.3603381e-06
1.7773921e-05
3.4587408e-05
5.9163895e-05
9.1718485e-05
0.000134977
0.0001978295
0.00030604752
0.00055107622
0.0013766577
2.3443664e-06
2.8833943e-06
4.715266e-06
9.5746045e-06
1.9965609e-05
3.7457895e-05
6.2102575e-05
9.4263947e-05
0.00013693775
0.00019920349
0.00030698675
0.00055192215
0.0013792894
2.4151613e-06
3.08991e-06
5.3225444e-06
1.0953905e-05
2.2249993e-05
4.026506e-05
6.4872079e-05
9.6618924e-05
0.00013873802
0.00020046565
0.00030788006
0.00055278756
0.0013819844
2.5326205e-06
3.3712892e-06
6.0617309e-06
1.2487422e-05
2.4593018e-05
4.2987257e-05
6.7474462e-05
9.8797812e-05
0.00014038632
0.00020163083
0.00030873382
0.00055367121
0.0013847362
2.7065545e-06
3.7399971e-06
6.9406291e-06
1.4157864e-05
2.6962172e-05
4.5608169e-05
6.9912765e-05
0.00010081055
0.00014189658
0.00020271014
0.00030955281
0.00055457138
0.0013875385
2.9485502e-06
4.2087762e-06
7.9623505e-06
1.5942735e-05
2.9328091e-05
4.8116704e-05
7.2192973e-05
0.0001026631
0.00014328329
0.00020371267
0.00031034058
0.00055548595
0.0013903847
3.2717207e-06
4.7895536e-06
9.1242823e-06
1.7815987e-05
3.1665001e-05
5.0504533e-05
7.431848e-05
0.00010436656
0.00014455809
0.0002046458
0.00031109971
0.0005564126
0.0013932686
3.6900858e-06
5.492073e-06
1.0417684e-05
1.9750012e-05
3.3951699e-05
5.2768184e-05
7.6289669e-05
0.00010593299
0.00014573089
0.00020551555
0.00031183197
0.00055734877
0.0013961839
4.2174848e-06
6.3224281e-06
1.1827952e-05
2.171714e-05
3.6170246e-05
5.4901159e-05
7.8113757e-05
0.00010737249
0.00014680993
0.00020632674
0.00031253851
0.00055829181
0.0013991243
4.8660262e-06
7.2817748e-06
1.3335593e-05
2.3691123e-05
3.8306688e-05
5.6898168e-05
7.9798305e-05
0.0001086939
0.00014780214
0.00020708321
0.00031321994
0.0005592389
0.0014020836
5.6442496e-06
8.3655568e-06
1.4917866e-05
2.564878e-05
4.0344257e-05
5.8760207e-05
8.1350099e-05
0.00010990478
0.00014871321
0.00020778792
0.00031387635
0.00056018712
0.0014050556
6.5553596e-06
9.5634602e-06
1.6550686e-05
2.7565321e-05
4.2272541e-05
6.0488808e-05
8.2775228e-05
0.00011101156
0.00014954783
0.00020844308
0.00031450744
0.00056113341
0.0014080338
7.5961539e-06
1.0860442e-05
1.8207369e-05
2.9419102e-05
4.408453e-05
6.2085814e-05
8.4079033e-05
0.0001120196
0.00015030968
0.00020905022
0.00031511249
0.00056207453
0.0014110119
8.7563158e-06
1.2235551e-05
1.9861232e-05
3.1193216e-05
4.5774965e-05
6.355318e-05
8.5266112e-05
0.00011293328
0.00015100165
0.00020961023
0.00031569038
0.00056300711
0.0014139831
1.0017522e-05
1.3664335e-05
2.1488449e-05
3.2873859e-05
4.7340054e-05
6.4892867e-05
8.6340347e-05
0.00011375612
0.0001516258
0.00021012347
0.00031623966
0.00056392755
0.0014169405
1.1355902e-05
1.5121211e-05
2.3068172e-05
3.4450179e-05
4.8777289e-05
6.6106812e-05
8.7304985e-05
0.00011449085
0.00015218355
0.00021058975
0.00031675852
0.00056483204
0.0014198766
1.2744265e-05
1.6581081e-05
2.4582903e-05
3.5914123e-05
5.0085355e-05
6.7196971e-05
8.8162738e-05
0.00011513953
0.00015267569
0.00021100843
0.00031724482
0.00056571653
0.0014227834
1.4154482e-05
1.8020638e-05
2.6018604e-05
3.7260265e-05
5.1264092e-05
6.8165414e-05
8.8915932e-05
0.0001157037
0.00015310253
0.00021137849
0.00031769616
0.00056657676
0.0014256524
1.5559581e-05
1.9419302e-05
2.7364607e-05
3.8485598e-05
5.231449e-05
6.901445e-05
8.9566666e-05
0.0001161845
0.00015346401
0.0002116986
0.00031810989
0.00056740824
0.0014284744
1.6935339e-05
2.0759787e-05
2.8613378e-05
3.9589304e-05
5.323867e-05
6.9746757e-05
9.0116989e-05
0.00011658289
0.00015375983
0.00021196724
0.00031848324
0.00056820635
0.0014312396
1.8261269e-05
2.2028326e-05
2.9760207e-05
4.0572478e-05
5.4039843e-05
7.0365497e-05
9.0569079e-05
0.00011689975
0.00015398961
0.00021218284
0.00031881338
0.00056896641
0.0014339377
1.9521048e-05
2.3214636e-05
3.0802835e-05
4.1437842e-05
5.4722228e-05
7.0874393e-05
9.0925392e-05
0.00011713614
0.00015415307
0.0002123439
0.0003190976
0.0005696838
0.0014365579
2.0702516e-05
2.4311688e-05
3.1741086e-05
4.2189436e-05
5.5290938e-05
7.1277773e-05
9.1188792e-05
0.00011729337
0.00015425016
0.00021244916
0.00031933341
0.00057035413
0.0014390893
2.179737e-05
2.5315353e-05
3.257649e-05
4.2832332e-05
5.5751829e-05
7.1580559e-05
9.1362627e-05
0.00011737319
0.0001542812
0.00021249774
0.00031951874
0.00057097333
0.0014415208
2.2800693e-05
2.6223984e-05
3.3311941e-05
4.3372362e-05
5.6111337e-05
7.1788219e-05
9.1450778e-05
0.00011737787
0.00015424704
0.00021248927
0.00031965202
0.0005715379
0.001443842
2.3710403e-05
2.7037977e-05
3.3951388e-05
4.3815874e-05
5.6376316e-05
7.1906692e-05
9.1457657e-05
0.00011731022
0.00015414911
0.00021242401
0.00031973234
0.000572045
0.0014460427
2.4526701e-05
2.775936e-05
3.4499554e-05
4.4169529e-05
5.6553869e-05
7.1942283e-05
9.138817e-05
0.00011717368
0.00015398951
0.00021230291
0.00031975954
0.00057249257
0.001448114
2.5251561e-05
2.8391403e-05
3.4961707e-05
4.444013e-05
5.6651212e-05
7.1901559e-05
9.1247655e-05
0.00011697222
0.00015377099
0.00021212768
0.00031973427
0.00057287945
0.0014500481
2.5888277e-05
2.8938285e-05
3.5343455e-05
4.4634485e-05
5.6675545e-05
7.1791234e-05
9.1041802e-05
0.00011671034
0.00015349694
0.00021190076
0.00031965799
0.00057320541
0.0014518386
2.6441081e-05
2.9404816e-05
3.5650591e-05
4.4759302e-05
5.6633948e-05
7.1618067e-05
9.0776553e-05
0.00011639299
0.00015317136
0.00021162526
0.00031953294
0.00057347114
0.0014534809
2.6914833e-05
2.9796195e-05
3.5888957e-05
4.4821106e-05
5.6533304e-05
7.1388765e-05
9.0458012e-05
0.00011602548
0.00015279873
0.00021130497
0.00031936211
0.00057367823
0.0014549719
2.731477e-05
3.0117835e-05
3.6064344e-05
4.4826183e-05
5.6380236e-05
7.1109904e-05
9.0092342e-05
0.00011561335
0.00015238399
0.00021094419
0.00031914913
0.00057382907
0.0014563106
2.764631e-05
3.037521e-05
3.6182415e-05
4.4780537e-05
5.6181059e-05
7.0787857e-05
8.9685678e-05
0.00011516232
0.00015193234
0.00021054764
0.00031889812
0.00057392677
0.0014574976
2.7914911e-05
3.0573745e-05
3.6248643e-05
4.4689864e-05
5.5941754e-05
7.0428742e-05
8.9244048e-05
0.00011467816
0.0001514492
0.00021012034
0.00031861363
0.00057397498
0.0014585351
2.8125955e-05
3.0718739e-05
3.6268274e-05
4.4559536e-05
5.5667947e-05
7.0038381e-05
8.8773299e-05
0.00011416656
0.00015094006
0.00020966751
0.00031830045
0.00057397783
0.0014594269
2.8284675e-05
3.0815302e-05
3.6246294e-05
4.4394595e-05
5.5364899e-05
6.9622266e-05
8.8279043e-05
0.00011363314
0.00015041038
0.00020919438
0.0003179635
0.00057393972
0.0014601782
2.8396093e-05
3.0868313e-05
3.6187414e-05
4.4199747e-05
5.5037505e-05
6.9185541e-05
8.7766603e-05
0.00011308327
0.00014986552
0.00020870617
0.00031760771
0.00057386523
0.0014607952
2.8464993e-05
3.08824e-05
3.6096062e-05
4.3979369e-05
5.4690294e-05
6.8732987e-05
8.7240985e-05
0.0001125221
0.00014931061
0.0002082079
0.0003172379
0.00057375898
0.0014612853
2.8495889e-05
3.0861917e-05
3.5976374e-05
4.3737515e-05
5.432744e-05
6.8269017e-05
8.6706844e-05
0.00011195443
0.00014875053
0.00020770439
0.00031685868
0.00057362553
0.0014616562
2.8493023e-05
3.0810944e-05
3.5832203e-05
4.3477924e-05
5.3952765e-05
6.7797679e-05
8.6168473e-05
0.00011138475
0.00014818984
0.00020720013
0.00031647439
0.00057346929
0.0014619165
2.8460353e-05
3.0733281e-05
3.5667118e-05
4.3204032e-05
5.3569759e-05
6.7322654e-05
8.562979e-05
0.00011081716
0.0001476327
0.00020669924
0.00031608905
0.00057329442
0.0014620748
2.8401557e-05
3.0632456e-05
3.5484412e-05
4.2918985e-05
5.3181587e-05
6.6847274e-05
8.5094338e-05
0.00011025537
0.00014708291
0.00020620548
0.00031570629
0.00057310485
0.0014621402
2.8320043e-05
3.0511726e-05
3.5287117e-05
4.2625649e-05
5.2791107e-05
6.6374524e-05
8.4565289e-05
0.00010970271
0.00014654385
0.00020572217
0.00031532933
0.00057290415
0.0014621215
2.8218952e-05
3.0374093e-05
3.5078008e-05
4.2326627e-05
5.2400886e-05
6.5907064e-05
8.4045454e-05
0.00010916211
0.0001460185
0.00020525221
0.000314961
0.00057269558
0.0014620273
2.8101173e-05
3.0222311e-05
3.485962e-05
4.2024271e-05
5.2013212e-05
6.5447241e-05
8.3537291e-05
0.00010863613
0.00014550942
0.00020479808
0.00031460372
0.00057248206
0.0014618664
2.7969352e-05
3.0058897e-05
3.4634256e-05
4.1720696e-05
5.1630115e-05
6.4997103e-05
8.3042926e-05
0.00010812695
0.00014501877
0.00020436186
0.00031425949
0.00057226615
0.0014616467
2.7825904e-05
2.9886145e-05
3.4404004e-05
4.1417795e-05
5.1253379e-05
6.4558425e-05
8.2564169e-05
0.00010763639
0.00014454835
0.00020394523
0.00031392996
0.00057205009
0.0014613761
2.7673029e-05
2.9706138e-05
3.4170744e-05
4.1117252e-05
5.0884562e-05
6.4132717e-05
8.2102531e-05
0.00010716596
0.00014409957
0.00020354948
0.00031361638
0.00057183575
0.001461062
2.7512722e-05
2.9520761e-05
3.3936165e-05
4.0820556e-05
5.0525007e-05
6.3721252e-05
8.1659248e-05
0.00010671685
0.00014367354
0.00020317561
0.00031331979
0.0005716245
0.001460711
2.7346789e-05
2.9331714e-05
3.3701778e-05
4.0529013e-05
5.0175863e-05
6.3325075e-05
8.1235299e-05
0.00010628996
0.00014327104
0.00020282424
0.00031304071
0.00057141642
0.0014603285
2.7176855e-05
2.914052e-05
3.3468922e-05
4.024376e-05
4.9838094e-05
6.2945029e-05
8.0831433e-05
0.00010588593
0.00014289262
0.00020249589
0.00031277953
0.00057120929
0.0014599198
2.700438e-05
2.8948543e-05
3.3238782e-05
3.9965778e-05
4.95125e-05
6.2581769e-05
8.044818e-05
0.00010550518
0.0001425385
0.00020219044
0.00031253535
0.0005710047
0.0014594897
2.683067e-05
2.8756997e-05
3.3012397e-05
3.9695903e-05
4.9199726e-05
6.223578e-05
8.0085899e-05
0.00010514794
0.00014220886
0.00020190801
0.00031230612
0.00057080572
0.0014590438
2.6656885e-05
2.8566954e-05
3.2790674e-05
3.943484e-05
4.890028e-05
6.1907402e-05
7.9744773e-05
0.00010481424
0.00014190344
0.00020164699
0.00031209276
0.00057061392
0.0014585869
2.6484055e-05
2.8379359e-05
3.2574394e-05
3.918317e-05
4.8614543e-05
6.1596828e-05
7.942482e-05
0.00010450389
0.00014162171
0.00020140639
0.00031189575
0.00057043044
0.0014581236
2.6313088e-05
2.8195037e-05
3.2364225e-05
3.8941366e-05
4.8342789e-05
6.130415e-05
7.9125975e-05
0.00010421666
0.0001413622
0.00020118621
0.0003117152
0.00057025605
0.0014576578
2.6144778e-05
2.8014707e-05
3.2160733e-05
3.8709804e-05
4.8085189e-05
6.1029343e-05
7.884799e-05
0.00010395153
0.00014112445
0.00020098612
0.00031155094
0.00057009124
0.001457193
2.5979817e-05
2.7838986e-05
3.1964391e-05
3.8488765e-05
4.7841825e-05
6.0772277e-05
7.8590336e-05
0.00010370764
0.00014090797
0.00020080564
0.00031140263
0.00056993626
0.0014567323
2.5818803e-05
2.76684e-05
3.1775585e-05
3.8278457e-05
4.7612706e-05
6.0532705e-05
7.8352155e-05
0.00010348449
0.00014071215
0.00020064413
0.00031126976
0.0005697912
0.0014562784
2.566225e-05
2.7503398e-05
3.1594632e-05
3.8079034e-05
4.7397757e-05
6.0309957e-05
7.813296e-05
0.00010328147
0.00014053628
0.00020050084
0.00031115172
0.00056965602
0.0014558335
2.5510598e-05
2.734436e-05
3.1421799e-05
3.7890534e-05
4.7196573e-05
6.0103642e-05
7.7932206e-05
0.00010309788
0.00014037956
0.00020037496
0.00031104785
0.00056953059
0.0014553995
2.5364226e-05
2.7191604e-05
3.1257212e-05
3.771281e-05
4.7008898e-05
5.9913326e-05
7.774929e-05
0.00010293298
0.00014024113
0.0002002656
0.00031095741
0.00056941469
0.0014549782
2.5223415e-05
2.704532e-05
3.1100915e-05
3.7545749e-05
4.6834438e-05
5.9738535e-05
7.7583567e-05
0.00010278597
0.0001401201
0.00020017186
0.00031087963
0.00056930805
0.0014545709
2.5088366e-05
2.6905645e-05
3.0952916e-05
3.7389203e-05
4.6672869e-05
5.9578763e-05
7.7434355e-05
0.00010265602
0.00014001554
0.00020009279
0.00031081374
0.00056921035
0.0014541786
2.4959229e-05
2.6772668e-05
3.0813189e-05
3.7242992e-05
4.6523836e-05
5.9433469e-05
7.7300941e-05
0.00010254228
0.00013992649
0.00020002744
0.00031075892
0.00056912126
0.0014538023
2.4836109e-05
2.6646437e-05
3.0681674e-05
3.7106907e-05
4.6386954e-05
5.9302092e-05
7.7182591e-05
0.00010244385
0.00013985199
0.00019997486
0.00031071441
0.00056904039
0.0014534426
2.471907e-05
2.6526966e-05
3.0558277e-05
3.6980708e-05
4.6261818e-05
5.9184046e-05
7.7078553e-05
0.00010235987
0.00013979108
0.00019993411
0.00031067943
0.00056896738
0.0014531001
2.4608142e-05
2.6414233e-05
3.0442875e-05
3.6864135e-05
4.6147999e-05
5.907873e-05
7.6988066e-05
0.00010228944
0.00013974281
0.00019990428
0.0003106532
0.00056890184
0.001452775
2.450332e-05
2.630819e-05
3.0335322e-05
3.6756902e-05
4.6045053e-05
5.8985534e-05
7.6910364e-05
0.00010223167
0.00013970624
0.00019988445
0.00031063501
0.00056884336
0.0014524675
2.4404575e-05
2.6208759e-05
3.0235445e-05
3.6658706e-05
4.595252e-05
5.8903836e-05
7.6844682e-05
0.0001021857
0.00013968046
0.00019987376
0.00031062414
0.00056879157
0.0014521778
2.4311848e-05
2.6115839e-05
3.0143053e-05
3.6569228e-05
4.5869932e-05
5.8833013e-05
7.6790257e-05
0.00010215067
0.00013966457
0.00019987136
0.0003106199
0.00056874608
0.0014519056
2.4225059e-05
2.6029306e-05
3.0057934e-05
3.6488133e-05
4.579681e-05
5.877244e-05
7.6746337e-05
0.00010212573
0.0001396577
0.00019987645
0.00031062166
0.0005687065
0.001451651
2.4144107e-05
2.594902e-05
2.9979862e-05
3.6415078e-05
4.5732673e-05
5.8721497e-05
7.671218e-05
0.00010211007
0.00013965903
0.00019988825
0.00031062879
0.00056867247
0.0014514136
2.4068872e-05
2.5874821e-05
2.9908597e-05
3.634971e-05
4.5677036e-05
5.8679566e-05
7.668706e-05
0.00010210289
0.00013966774
0.00019990604
0.0003106407
0.00056864362
0.0014511932
2.3999218e-05
2.5806534e-05
2.9843886e-05
3.6291667e-05
4.5629415e-05
5.8646041e-05
7.6670269e-05
0.00010210342
0.00013968308
0.00019992912
0.00031065685
0.0005686196
0.0014509893
2.3934993e-05
2.5743974e-05
2.9785469e-05
3.6240587e-05
4.5589327e-05
5.8620325e-05
7.6661118e-05
0.00010211093
0.00013970431
0.00019995684
0.00031067672
0.00056860006
0.0014508015
2.3876034e-05
2.5686942e-05
2.9733076e-05
3.6196102e-05
4.5556295e-05
5.8601833e-05
7.665894e-05
0.00010212471
0.00013973074
0.00019998857
0.00031069983
0.00056858468
0.0014506294
2.3822167e-05
2.5635232e-05
2.9686433e-05
3.6157846e-05
4.5529848e-05
5.8589996e-05
7.6663094e-05
0.00010214408
0.00013976172
0.00020002373
0.00031072571
0.00056857313
0.0014504724
2.3773209e-05
2.5588627e-05
2.9645261e-05
3.6125451e-05
4.5509522e-05
5.8584262e-05
7.667296e-05
0.00010216841
0.00013979663
0.0002000618
0.00031075394
0.00056856512
0.0014503299
2.3728967e-05
2.5546909e-05
2.9609279e-05
3.6098556e-05
4.5494864e-05
5.8584094e-05
7.6687947e-05
0.00010219708
0.00013983489
0.00020010227
0.00031078414
0.00056856034
0.0014502013
2.3689245e-05
2.550985e-05
2.9578204e-05
3.60768e-05
4.5485432e-05
5.8588977e-05
7.670749e-05
0.00010222951
0.00013987597
0.00020014467
0.00031081593
0.00056855851
0.0014500862
2.365384e-05
2.5477224e-05
2.9551754e-05
3.6059831e-05
4.5480795e-05
5.8598413e-05
7.6731052e-05
0.00010226518
0.00013991935
0.00020018858
0.00031084899
0.00056855937
0.0014499838
2.3622546e-05
2.5448798e-05
2.9529648e-05
3.6047301e-05
4.5480537e-05
5.8611927e-05
7.6758124e-05
0.00010230356
0.00013996457
0.00020023359
0.000310883
0.00056856266
0.0014498934
2.3595157e-05
2.5424343e-05
2.9511608e-05
3.6038871e-05
4.5484255e-05
5.8629065e-05
7.6788223e-05
0.00010234419
0.00014001119
0.00020027934
0.00031091767
0.00056856813
0.0014498146
2.3571462e-05
2.5403627e-05
2.949736e-05
3.6034212e-05
4.5491562e-05
5.8649395e-05
7.6820897e-05
0.00010238662
0.00014005882
0.00020032551
0.00031095276
0.00056857555
0.0014497466
2.3551251e-05
2.538642e-05
2.9486635e-05
3.6033001e-05
4.5502085e-05
5.8672505e-05
7.6855719e-05
0.00010243043
0.00014010709
0.00020037179
0.00031098803
0.00056858469
0.0014496888
2.3534317e-05
2.5372496e-05
2.9479168e-05
3.603493e-05
4.5515469e-05
5.8698008e-05
7.6892294e-05
0.00010247526
0.00014015566
0.00020041791
0.00031102325
0.00056859535
0.0014496406
2.3520452e-05
2.536163e-05
2.9474703e-05
3.6039699e-05
4.5531376e-05
5.8725538e-05
7.6930249e-05
0.00010252076
0.00014020424
0.00020046362
0.00031105824
0.00056860733
0.0014496013
2.3509452e-05
2.5353603e-05
2.9472989e-05
3.604702e-05
4.5549484e-05
5.8754753e-05
7.6969242e-05
0.00010256659
0.00014025254
0.0002005087
0.00031109283
0.00056862044
0.0014495703
2.3501115e-05
2.5348199e-05
2.9473783e-05
3.6056618e-05
4.5569488e-05
5.8785332e-05
7.7008956e-05
0.00010261247
0.00014030032
0.00020055297
0.00031112686
0.00056863451
0.0014495471
2.3495245e-05
2.5345208e-05
2.9476851e-05
3.6068231e-05
4.55911e-05
5.8816975e-05
7.7049099e-05
0.00010265814
0.00014034736
0.00020059625
0.00031116021
0.00056864938
0.001449531
2.3491648e-05
2.5344426e-05
2.9481968e-05
3.6081608e-05
4.5614052e-05
5.8849406e-05
7.7089404e-05
0.00010270336
0.00014039346
0.00020063839
0.00031119274
0.00056866489
0.0014495214
2.3490137e-05
2.5345656e-05
2.9488918e-05
3.6096512e-05
4.5638089e-05
5.8882369e-05
7.7129628e-05
0.00010274792
0.00014043846
0.00020067926
0.00031122436
0.00056868092
0.0014495179
2.349053e-05
2.5348707e-05
2.9497494e-05
3.6112718e-05
4.5662976e-05
5.8915627e-05
7.7169551e-05
0.00010279162
0.00014048219
0.00020071876
0.00031125498
0.00056869731
0.0014495198
2.349265e-05
2.5353396e-05
2.9507498e-05
3.6130017e-05
4.5688495e-05
5.8948965e-05
7.7208975e-05
0.00010283429
0.00014052454
0.00020075679
0.00031128452
0.00056871396
0.0014495268
2.349633e-05
2.5359546e-05
2.9518744e-05
3.614821e-05
4.5714442e-05
5.8982187e-05
7.7247723e-05
0.0001028758
0.00014056539
0.00020079327
0.00031131292
0.00056873075
0.0014495381
2.3501405e-05
2.536699e-05
2.9531054e-05
3.6167111e-05
4.5740632e-05
5.9015115e-05
7.7285639e-05
0.00010291602
0.00014060466
0.00020082815
0.00031134013
0.00056874756
0.0014495535
2.3507719e-05
2.5375567e-05
2.9544262e-05
3.6186549e-05
4.5766892e-05
5.904759e-05
7.7322585e-05
0.00010295484
0.00014064227
0.00020086138
0.0003113661
0.0005687643
0.0014495725
2.3515125e-05
2.5385126e-05
2.9558211e-05
3.6206365e-05
4.5793069e-05
5.9079469e-05
7.7358441e-05
0.00010299217
0.00014067816
0.00020089292
0.00031139081
0.00056878087
0.0014495945
2.352348e-05
2.5395522e-05
2.9572753e-05
3.6226411e-05
4.581902e-05
5.9110627e-05
7.7393106e-05
0.00010302793
0.0001407123
0.00020092276
0.00031141423
0.00056879719
0.0014496192
2.3532652e-05
2.5406622e-05
2.9587753e-05
3.6246553e-05
4.5844619e-05
5.9140953e-05
7.7426494e-05
0.00010306208
0.00014074464
0.00020095089
0.00031143636
0.00056881319
0.0014496461
2.3542513e-05
2.5418297e-05
2.9603083e-05
3.6266667e-05
4.5869755e-05
5.9170353e-05
7.7458534e-05
0.00010309456
0.00014077518
0.00020097731
0.00031145719
0.00056882872
0.0014496749
2.3552946e-05
2.5430429e-05
2.9618627e-05
3.6286643e-05
4.5894326e-05
5.9198746e-05
7.748917e-05
0.00010312536
0.00014080393
0.00020100205
0.00031147672
0.00056884351
0.0014497051
2.3563839e-05
2.5442909e-05
2.9634277e-05
3.6306379e-05
4.5918246e-05
5.9226064e-05
7.7518361e-05
0.00010315446
0.00014083087
0.0002010251
0.00031149492
0.00056885754
0.0014497364
2.3575088e-05
2.5455632e-05
2.9649934e-05
3.6325786e-05
4.5941439e-05
5.9252252e-05
7.7546075e-05
0.00010318184
0.00014085605
0.00020104652
0.00031151165
0.00056887095
0.0014497686
2.3586597e-05
2.5468506e-05
2.966551e-05
3.6344783e-05
4.596384e-05
5.9277266e-05
7.7572293e-05
0.00010320752
0.00014087946
0.00020106627
0.00031152698
0.00056888379
0.0014498014
2.3598278e-05
2.5481443e-05
2.9680922e-05
3.6363301e-05
4.5985396e-05
5.9301074e-05
7.7597008e-05
0.00010323152
0.00014090116
0.0002010843
0.00031154102
0.00056889609
0.0014498347
2.3610047e-05
2.5494364e-05
2.9696098e-05
3.6381278e-05
4.6006061e-05
5.9323653e-05
7.7620221e-05
0.00010325386
0.00014092111
0.00020110071
0.00031155383
0.00056890786
0.0014498683
2.3621831e-05
2.5507196e-05
2.9710974e-05
3.6398662e-05
4.6025802e-05
5.9344988e-05
7.7641937e-05
0.00010327454
0.00014093933
0.00020111556
0.00031156546
0.00056891908
0.0014499019
2.363356e-05
2.5519876e-05
2.9725492e-05
3.6415409e-05
4.6044592e-05
5.9365077e-05
7.766218e-05
0.00010329355
0.00014095588
0.00020112893
0.00031157598
0.00056892972
0.0014499354
2.3645174e-05
2.5532344e-05
2.9739604e-05
3.6431483e-05
4.6062415e-05
5.9383925e-05
7.7680933e-05
0.00010331095
0.00014097084
0.00020114089
0.00031158542
0.00056893978
0.0014499685
2.3656617e-05
2.5544551e-05
2.9753267e-05
3.6446858e-05
4.6079262e-05
5.9401523e-05
7.7698215e-05
0.00010332677
0.00014098427
0.0002011515
0.00031159384
0.00056894923
0.0014500012
2.366784e-05
2.5556452e-05
2.9766448e-05
3.6461513e-05
4.6095121e-05
5.9417871e-05
7.7714064e-05
0.00010334109
0.00014099625
0.00020116085
0.00031160129
0.00056895809
0.0014500331
2.3678802e-05
2.5568009e-05
2.9779119e-05
3.6475429e-05
4.6109981e-05
5.9432991e-05
7.7728527e-05
0.00010335397
0.00014100685
0.000201169
0.00031160783
0.00056896637
0.0014500641
2.3689466e-05
2.5579191e-05
2.9791251e-05
3.6488588e-05
4.6123849e-05
5.944691e-05
7.7741652e-05
0.00010336547
0.00014101615
0.00020117604
0.00031161352
0.00056897411
0.0014500942
2.3699799e-05
2.5589966e-05
2.9802824e-05
3.6500982e-05
4.6136736e-05
5.9459663e-05
7.7753493e-05
0.00010337567
0.00014102422
0.00020118203
0.00031161843
0.00056898135
0.0014501231
2.3709771e-05
2.5600309e-05
2.981382e-05
3.6512611e-05
4.614866e-05
5.9471287e-05
7.7764106e-05
0.00010338463
0.00014103115
0.00020118705
0.00031162264
0.00056898814
0.001450151
2.3719357e-05
2.5610198e-05
2.9824228e-05
3.6523478e-05
4.6159642e-05
5.9481823e-05
7.7773548e-05
0.00010339242
0.000141037
0.00020119119
0.00031162618
0.00056899452
0.0014501778
2.3728535e-05
2.5619619e-05
2.9834042e-05
3.6533591e-05
4.6169708e-05
5.9491312e-05
7.7781878e-05
0.00010339911
0.00014104185
0.00020119449
0.00031162913
0.00056900053
0.0014502036
2.373729e-05
2.5628557e-05
2.984326e-05
3.6542961e-05
4.6178884e-05
5.9499798e-05
7.7789151e-05
0.00010340476
0.00014104577
0.00020119703
0.00031163152
0.00056900617
0.0014502285
2.3745609e-05
2.5637007e-05
2.9851883e-05
3.6551602e-05
4.61872e-05
5.9507327e-05
7.7795425e-05
0.00010340945
0.00014104882
0.00020119885
0.00031163337
0.0005690114
0.0014502524
2.3753482e-05
2.5644962e-05
2.9859914e-05
3.6559531e-05
4.6194687e-05
5.9513941e-05
7.7800755e-05
0.00010341323
0.00014105106
0.0002012
0.0003116347
0.00056901619
0.0014502754
2.3760906e-05
2.5652421e-05
2.9867362e-05
3.6566768e-05
4.6201378e-05
5.9519687e-05
7.7805195e-05
0.00010341616
0.00014105253
0.00020120053
0.00031163552
0.00056902049
0.0014502974
2.3767877e-05
2.5659387e-05
2.9874236e-05
3.6573333e-05
4.6207307e-05
5.952461e-05
7.78088e-05
0.00010341829
0.00014105331
0.00020120046
0.00031163584
0.00056902425
0.0014503183
2.3774398e-05
2.5665865e-05
2.988055e-05
3.6579252e-05
4.621251e-05
5.9528759e-05
7.7811626e-05
0.00010341969
0.00014105343
0.00020119986
0.0003116357
0.00056902744