/*--------------------------------*- C++ -*----------------------------------*\
| =========                 |                                                 |
| \\      /  F ield         | OpenFOAM: The Open Source CFD Toolbox           |
|  \\    /   O peration     | Version:  2506                                  |
|   \\  /    A nd           | Website:  www.openfoam.com                      |
|    \\/     M anipulation  |                                                 |
\*---------------------------------------------------------------------------*/
FoamFile
{
    version     2.0;
    format      ascii;
    arch        "LSB;label=32;scalar=64";
    class       volScalarField;
    location    "30000/water";
    object      k;
}
// * * * * * * * * * * * * * * * * * * * * * * * * * * * * * * * * * * * * * //

dimensions      [0 2 -2 0 0 0 0];

internalField   nonuniform List<scalar> 
2600
(
0.0001992401
0.00019923925
0.00019923929
0.00019923963
0.00019923982
0.00019923914
0.00019923438
0.00019921375
0.00019914651
0.00019904325
0.00019990841
0.00021454267
0.00040955349
0.00017237279
0.00017237614
0.00017237826
0.00017238051
0.0001723821
0.00017237949
0.00017235884
0.00017227555
0.000172027
0.00017162102
0.00017329371
0.00020304806
0.00052391648
0.00015132731
0.00015133049
0.00015133306
0.00015133552
0.00015133516
0.00015132207
0.00015126283
0.00015106462
0.00015055477
0.00014985944
0.0001528957
0.00019760629
0.00057958156
0.00013448336
0.00013448533
0.00013448764
0.00013448905
0.00013448325
0.00013445009
0.00013432997
0.00013398205
0.00013321503
0.00013247936
0.00013787909
0.00019702317
0.00059640815
0.00012075551
0.00012075697
0.00012075853
0.00012075718
0.00012074152
0.0001206782
0.00012048052
0.00011997843
0.0001190486
0.00011870929
0.00012776334
0.00020116854
0.00059206885
0.0001093899
0.00010939088
0.000109391
0.00010938492
0.00010935483
0.00010925313
0.00010897207
0.00010834649
0.00010742643
0.0001080609
0.00012226457
0.00021023394
0.00057809221
9.984982e-05
9.9850093e-05
9.9847944e-05
9.9835056e-05
9.9786463e-05
9.9641865e-05
9.9284958e-05
9.859999e-05
9.7925044e-05
0.00010022517
0.00012123091
0.00022425603
0.00056106272
9.1744874e-05
9.174416e-05
9.1738826e-05
9.1717148e-05
9.1647174e-05
9.1460104e-05
9.1049018e-05
9.0398665e-05
9.0258419e-05
9.5030413e-05
0.00012461431
0.00024286356
0.00054449405
8.4785472e-05
8.4783454e-05
8.4774018e-05
8.4741918e-05
8.4649457e-05
8.4426122e-05
8.3996574e-05
8.3502376e-05
8.4241543e-05
9.2421343e-05
0.00013239492
0.00026511347
0.00053012765
7.8752977e-05
7.8749319e-05
7.8734951e-05
7.8691403e-05
7.8577619e-05
7.8330528e-05
7.7932172e-05
7.7743318e-05
7.9771153e-05
9.2438123e-05
0.00014444361
0.00028951151
0.0005186607
7.3479682e-05
7.3474066e-05
7.3454131e-05
7.3398964e-05
7.3267704e-05
7.3016085e-05
7.2712929e-05
7.3009357e-05
7.6815021e-05
9.5182833e-05
0.00016036324
0.00031428525
0.00051014247
6.8835097e-05
6.8827266e-05
6.8801436e-05
6.8735571e-05
6.8593744e-05
6.836405e-05
6.8235745e-05
6.9234209e-05
7.5403716e-05
0.00010076472
0.00017939076
0.00033780739
0.0005042266
6.4716374e-05
6.4706175e-05
6.4674551e-05
6.4600233e-05
6.4458202e-05
6.4284863e-05
6.4429045e-05
6.6391811e-05
7.5619872e-05
0.0001092241
0.00020043528
0.00035894529
0.00050037283
6.1041501e-05
6.1028932e-05
6.0992164e-05
6.091321e-05
6.0785257e-05
6.0711783e-05
6.1247563e-05
6.4493003e-05
7.7580807e-05
0.00012045028
0.00022225715
0.00037717552
0.0004980107
5.7744396e-05
5.7729653e-05
5.7689074e-05
5.7611142e-05
5.751606e-05
5.7596592e-05
5.8669223e-05
6.3582872e-05
8.1411587e-05
0.00013412437
0.00024370832
0.00039247762
0.00049664628
5.4771313e-05
5.4754847e-05
5.4712615e-05
5.4643526e-05
5.4605384e-05
5.4906753e-05
5.6693486e-05
6.3736861e-05
8.7208044e-05
0.00014971788
0.00026392364
0.00040513366
0.00049590625
5.2078186e-05
5.206076e-05
5.2020025e-05
5.1970154e-05
5.2019282e-05
5.2623661e-05
5.5340605e-05
6.5053658e-05
9.4994185e-05
0.00016655656
0.0002823955
0.00041554871
0.00049553614
4.9628636e-05
4.9611393e-05
4.9576492e-05
4.9559258e-05
4.9733503e-05
5.0741692e-05
5.4651195e-05
6.7643172e-05
0.00010468473
0.00018392817
0.00029893687
0.00042413794
0.00049537652
4.7392458e-05
4.7377004e-05
4.7353699e-05
4.7386176e-05
4.773248e-05
4.9267886e-05
5.4685329e-05
7.1608743e-05
0.00011606686
0.00020119288
0.00031358495
0.0004312733
0.0004953351
4.5344476e-05
4.5332971e-05
4.5328746e-05
4.5432431e-05
4.600877e-05
4.8222045e-05
5.5520138e-05
7.7024462e-05
0.0001288111
0.00021785898
0.00032650009
0.00043726613
0.00049536294
4.3463657e-05
4.3458933e-05
4.3483358e-05
4.3685127e-05
4.4562868e-05
4.7637065e-05
5.7244888e-05
8.3911106e-05
0.00014251076
0.00023360813
0.00033789056
0.00044236711
0.00049543702
4.1732429e-05
4.173814e-05
4.1803329e-05
4.2136614e-05
4.3403329e-05
4.7559127e-05
5.9952699e-05
9.2216774e-05
0.00015673762
0.00024827797
0.00034796834
0.00044677301
0.00049554866
4.0136167e-05
4.015697e-05
4.0278148e-05
4.0784372e-05
4.2547129e-05
4.8047288e-05
6.3728701e-05
0.00010180889
0.00017109624
0.00026182259
0.0003569282
0.00045063571
0.00049569617
3.8662802e-05
3.8704582e-05
3.8900797e-05
3.9631107e-05
4.2020194e-05
4.9171841e-05
6.8635431e-05
0.00011248166
0.0001852623
0.00027427018
0.00036494028
0.00045407114
0.00049588069
3.7302531e-05
3.7372692e-05
3.7667676e-05
3.8685008e-05
4.1857944e-05
5.1010817e-05
7.4697747e-05
0.00012397798
0.00019899861
0.00028568912
0.00037214923
0.00045716736
0.00049610392
3.6047628e-05
3.6155447e-05
3.6578682e-05
3.7960181e-05
4.2105652e-05
5.3644138e-05
8.1890767e-05
0.00013601989
0.00021215193
0.00029616534
0.00037867608
0.00045999117
0.00049636709
3.4892327e-05
3.5049398e-05
3.5637397e-05
3.7477201e-05
4.2818254e-05
5.7145345e-05
9.013449e-05
0.00014833915
0.00022463802
0.00030578893
0.00038462123
0.0004625934
0.00049667064
3.383279e-05
3.4053569e-05
3.4851411e-05
3.7263736e-05
4.4059203e-05
6.1571463e-05
9.9297382e-05
0.00016070076
0.00023642316
0.00031464714
0.00039006764
0.00046501299
0.00049701416
3.2867148e-05
3.316962e-05
3.4232754e-05
3.7355161e-05
4.589791e-05
6.6952452e-05
0.00010920861
0.00017291579
0.00024750737
0.00032282077
0.00039508379
0.00046727996
0.00049739654
3.1995627e-05
3.2402111e-05
3.3798454e-05
3.7794962e-05
4.8405427e-05
7.3282437e-05
0.00011967597
0.00018484396
0.00025791153
0.00033038288
0.00039972633
0.00046941774
0.00049781615
3.1220754e-05
3.1758868e-05
3.3571166e-05
3.8634688e-05
5.16483e-05
8.0515035e-05
0.00013050501
0.00019638897
0.00026766839
0.00033739836
0.00040404224
0.00047144508
0.00049827105
3.0547674e-05
3.1251458e-05
3.3579859e-05
3.9933128e-05
5.5680955e-05
8.8564413e-05
0.00014151526
0.0002074904
0.00027681665
0.00034392427
0.00040806987
0.00047336165
0.00049875826
2.9984563e-05
3.0895778e-05
3.3860461e-05
4.1754322e-05
6.0537583e-05
9.7312151e-05
0.00015255089
0.00021811501
0.00028539698
0.00035000997
0.00041183983
0.00047517683
0.00049927448
2.9543172e-05
3.071274e-05
3.4456303e-05
4.416415e-05
6.6225004e-05
0.00010661843
0.0001634853
0.00022824915
0.00029345001
0.00035569879
0.00041537498
0.00047690098
0.00049981638
2.9239498e-05
3.072904e-05
3.5418148e-05
4.7225363e-05
7.2718215e-05
0.00011633497
0.00017422102
0.00023789273
0.00030101459
0.00036102773
0.000418694
0.00047854313
0.00050038114
2.9094595e-05
3.0977951e-05
3.6803501e-05
5.0991333e-05
7.9959882e-05
0.00012631696
0.00018468652
0.00024705469
0.00030812684
0.00036602759
0.00042181619
0.00048011509
0.00050096676
2.9135496e-05
3.1500046e-05
3.867486e-05
5.5499188e-05
8.7864164e-05
0.00013643209
0.00019483195
0.00025575014
0.00031482084
0.00037072328
0.00042475508
0.00048162854
0.000501572
2.9396231e-05
3.2343668e-05
4.109663e-05
6.0763502e-05
9.6324071e-05
0.00014656574
0.00020462431
0.0002639967
0.00032112526
0.00037513787
0.00042753007
0.00048308916
0.00050219529
2.991884e-05
3.3564908e-05
4.4130583e-05
6.6771882e-05
0.00010522078
0.00015662302
0.00021404417
0.00027181504
0.00032706606
0.00037928746
0.00043015897
0.00048450265
0.00050283511
3.075424e-05
3.5226723e-05
4.783003e-05
7.348355e-05
0.00011443287
0.00016652783
0.00022308101
0.00027922362
0.00033266467
0.00038319522
0.00043265449
0.00048587307
0.00050348988
3.1962694e-05
3.739684e-05
5.2233345e-05
8.0831452e-05
0.00012384407
0.00017622136
0.00023173237
0.00028624169
0.00033793722
0.00038688252
0.00043502773
0.00048720352
0.00050415803
3.3613503e-05
4.0144089e-05
5.7357846e-05
8.8727391e-05
0.00013334836
0.00018565851
0.00023999854
0.00029288456
0.00034290599
0.00039036648
0.00043728791
0.00048849634
0.00050483797
3.5783407e-05
4.3533073e-05
6.3195309e-05
9.706923e-05
0.00014285306
0.00019480683
0.00024788468
0.00029916231
0.0003475933
0.00039366187
0.00043944269
0.00048975325
0.00050552812
3.8553069e-05
4.7617435e-05
6.9710118e-05
0.00010574827
0.00015227865
0.00020364078
0.00025539329
0.00030509327
0.00035201758
0.00039678117
0.00044149842
0.00049097544
0.00050622692
4.2001158e-05
5.2432566e-05
7.6840723e-05
0.00011465641
0.00016156001
0.00021214494
0.00026252193
0.00031069682
0.00035619499
0.00039973504
0.0004434603
0.00049216367
0.00050693283
4.6195924e-05
5.7988968e-05
8.4503819e-05
0.00012369061
0.00017064178
0.00022029901
0.00026928194
0.00031598928
0.00036013925
0.00040253238
0.00044533252
0.00049331826
0.00050764432
5.1185023e-05
6.4267716e-05
9.2600639e-05
0.00013275649
0.00017947939
0.00022808588
0.0002756847
0.00032098502
0.00036386201
0.00040518056
0.00044711836
0.00049443921
0.00050835988
5.6985365e-05
7.1219294e-05
0.00010102457
0.00014177165
0.00018802208
0.00023550303
0.0002817403
0.00032569629
0.00036737303
0.00040768555
0.00044882026
0.00049552614
0.00050907799
6.3575482e-05
7.8766083e-05
0.00010966808
0.00015065102
0.000196237
0.00024254864
0.00028745745
0.0003301333
0.00037068023
0.00041005204
0.00045043987
0.00049657836
0.00050979712
7.0893488e-05
8.6809027e-05
0.000118418
0.00015932163
0.0002040999
0.00024922138
0.00029284335
0.00033430426
0.00037378984
0.00041228347
0.00045197811
0.00049759483
0.00051051571
7.8838266e-05
9.5225377e-05
0.00012716547
0.00016772589
0.00021159052
0.00025551998
0.00029790357
0.00033821554
0.00037670647
0.00041438213
0.00045343517
0.00049857418
0.00051123213
8.727175e-05
0.00010388139
0.00013581417
0.00017581506
0.00021869191
0.00026144297
0.00030264213
0.00034187167
0.00037943324
0.00041634918
0.00045481054
0.00049951469
0.00051194472
9.6036194e-05
0.00011264289
0.00014427885
0.0001835485
0.00022538998
0.00026698862
0.00030706159
0.00034527555
0.00038197181
0.00041818477
0.00045610303
0.00050041431
0.00051265169
0.00010496811
0.00012138219
0.00015248589
0.00019089301
0.00023167334
0.00027215516
0.00031116332
0.00034842865
0.0003843226
0.00041988807
0.00045731082
0.00050127063
0.00051335112
0.0001139106
0.00012998323
0.00016037326
0.00019782235
0.00023753333
0.00027694108
0.0003149478
0.00035133128
0.00038648497
0.00042145743
0.00045843153
0.00050208095
0.00051404099
0.00012272249
0.00013834519
0.00016789035
0.00020431695
0.00024296424
0.00028134552
0.00031841515
0.00035398295
0.00038845746
0.00042289051
0.00045946231
0.00050284226
0.00051471912
0.0001312839
0.0001463843
0.00017499755
0.00021036346
0.00024796341
0.00028536875
0.0003215655
0.00035638278
0.00039023808
0.00042418455
0.00046039997
0.0005035514
0.00051538316
0.00013949845
0.00015403431
0.0001816656
0.00021595443
0.00025253143
0.00028901262
0.0003243996
0.00035852995
0.00039182472
0.00042533656
0.00046124117
0.00050420509
0.00051603067
0.00014729308
0.00016124586
0.00018787485
0.00022108784
0.00025667212
0.00029228086
0.00032691921
0.00036042416
0.00039321548
0.00042634369
0.00046198264
0.0005048001
0.0005166591
0.00015461615
0.00016798502
0.00019361431
0.0002257666
0.00026039251
0.00029517938
0.00032912753
0.00036206602
0.00039440908
0.00042720349
0.00046262139
0.00050533341
0.00051726586
0.00016143471
0.00017423148
0.00019888064
0.00022999799
0.00026370261
0.00029771636
0.00033102952
0.00036345746
0.00039540522
0.00042791422
0.00046315499
0.00050580233
0.00051784836
0.00016773145
0.00017997645
0.00020367706
0.00023379306
0.00026661511
0.00029990221
0.000332632
0.000364602
0.00039620484
0.00042847517
0.00046358176
0.00050620472
0.0005184041
0.00017350169
0.0001852206
0.0002080123
0.00023716602
0.00026914511
0.0003017495
0.00033394381
0.00036550488
0.00039681042
0.00042888687
0.00046390101
0.00050653911
0.00051893075
0.00017875064
0.00018997219
0.00021189953
0.00024013368
0.00027130965
0.00030327273
0.0003349757
0.00036617321
0.00039722607
0.00042915126
0.00046411317
0.00050680481
0.00051942617
0.000183491
0.00019424528
0.00021535544
0.00024271482
0.00027312736
0.00030448803
0.0003357402
0.00036661587
0.0003974576
0.00042927177
0.0004642199
0.00050700201
0.00051988856
0.000187741
0.00019805831
0.00021839937
0.00024492975
0.00027461803
0.00030541289
0.00033625142
0.00036684347
0.00039751249
0.00042925337
0.00046422414
0.0005071318
0.00052031645
0.00019152275
0.0002014328
0.00022105257
0.00024679981
0.0002758023
0.00030606583
0.0003365248
0.00036686812
0.0003973998
0.00042910247
0.00046413005
0.0005071962
0.00052070875
0.00019486095
0.00020439239
0.00022333757
0.00024834695
0.00027670128
0.00030646608
0.00033657683
0.00036670323
0.00039712996
0.00042882683
0.00046394296
0.00050719805
0.0005210648
0.00019778185
0.00020696198
0.00022527761
0.00024959345
0.00027733627
0.00030663329
0.00033642475
0.00036636323
0.00039671457
0.00042843538
0.00046366922
0.000507141
0.00052138437
0.00020031248
0.00020916709
0.00022689626
0.00025056155
0.00027772851
0.00030658726
0.00033608625
0.00036586331
0.00039616617
0.00042793801
0.00046331603
0.00050702932
0.00052166763
0.00020248003
0.00021103335
0.00022821703
0.00025127326
0.00027789896
0.00030634766
0.00033557924
0.00036521913
0.00039549794
0.0004273453
0.00046289127
0.00050686782
0.00052191516
0.00020431146
0.00021258616
0.00022926311
0.00025175013
0.00027786812
0.0003059339
0.00033492156
0.00036444657
0.00039472347
0.00042666834
0.00046240328
0.00050666169
0.00052212789
0.00020583309
0.00021385035
0.00023005713
0.00025201313
0.00027765588
0.00030536487
0.0003341308
0.00036356146
0.0003938565
0.00042591846
0.00046186065
0.00050641635
0.00052230706
0.00020707043
0.00021484996
0.00023062102
0.00025208249
0.00027728141
0.00030465884
0.00033322409
0.00036257939
0.00039291068
0.00042510701
0.00046127206
0.00050613733
0.00052245419
0.00020804797
0.00021560817
0.00023097587
0.00025197761
0.00027676304
0.00030383334
0.00033221795
0.00036151553
0.00039189937
0.00042424515
0.00046064608
0.00050583012
0.00052257103
0.0002087891
0.00021614708
0.00023114187
0.00025171703
0.00027611823
0.00030290503
0.00033112817
0.00036038441
0.00039083547
0.00042334372
0.00045999102
0.00050550008
0.00052265945
0.00020931603
0.00021648774
0.0002311382
0.00025131833
0.00027536352
0.0003018897
0.0003299697
0.00035919988
0.00038973129
0.00042241304
0.00045931481
0.00050515233
0.0005227215
0.00020964977
0.00021665006
0.00023098302
0.00025079812
0.00027451444
0.00030080215
0.0003287566
0.00035797495
0.0003885984
0.00042146285
0.00045862493
0.00050479173
0.00052275925
0.00020981007
0.00021665279
0.00023069347
0.00025017202
0.00027358558
0.00029965621
0.00032750197
0.00035672174
0.0003874476
0.00042050217
0.00045792827
0.00050442273
0.00052277483
0.00020981548
0.00021651356
0.00023028563
0.00024945467
0.00027259052
0.00029846473
0.00032621791
0.00035545145
0.00038628879
0.00041953928
0.00045723114
0.00050404945
0.00052277036
0.00020968336
0.00021624885
0.00022977453
0.00024865972
0.00027154186
0.00029723954
0.00032491556
0.0003541743
0.00038513102
0.00041858168
0.00045653919
0.00050367555
0.00052274793
0.00020942986
0.00021587404
0.00022917422
0.00024779985
0.00027045124
0.0002959915
0.00032360506
0.00035289956
0.00038398242
0.00041763606
0.00045585746
0.0005033043
0.00052270955
0.00020907003
0.0002154034
0.0002284977
0.00024688679
0.00026932936
0.00029473052
0.00032229557
0.00035163556
0.00038285022
0.00041670831
0.00045519031
0.00050293856
0.00052265719
0.0002086178
0.0002148502
0.00022775704
0.00024593136
0.000268186
0.00029346557
0.00032099533
0.00035038968
0.00038174077
0.00041580356
0.00045454151
0.00050258077
0.00052259269
0.00020808604
0.00021422668
0.00022696335
0.00024494348
0.00026703007
0.00029220471
0.00031971164
0.0003491684
0.00038065958
0.00041492615
0.00045391419
0.00050223296
0.00052251781
0.00020748665
0.00021354412
0.00022612685
0.00024393222
0.00026586962
0.00029095517
0.00031845095
0.00034797737
0.00037961133
0.00041407971
0.00045331084
0.00050189538
0.0005224341
0.00020683054
0.00021281288
0.00022525691
0.00024290583
0.00026471189
0.00028972334
0.00031721889
0.00034682137
0.00037859992
0.00041326714
0.00045273318
0.00050156776
0.00052234291
0.00020612772
0.00021204245
0.00022436207
0.00024187179
0.00026356339
0.00028851486
0.00031602029
0.00034570448
0.00037762856
0.00041249068
0.0004521816
0.00050125098
0.00052224543
0.00020538735
0.00021124149
0.0002234501
0.00024083684
0.00026242986
0.00028733461
0.00031485927
0.00034462999
0.00037669971
0.0004117518
0.00045165673
0.00050094653
0.00052214286
0.00020461777
0.0002104179
0.00022252803
0.00023980701
0.0002613164
0.00028618684
0.00031373928
0.00034360063
0.00037581528
0.00041105096
0.0004511588
0.00050065636
0.00052203651
0.00020382656
0.00020957882
0.00022160219
0.00023878769
0.00026022745
0.00028507513
0.00031266313
0.0003426184
0.00037497623
0.00041038839
0.00045068902
0.00050038147
0.00052192753
0.00020302058
0.0002087307
0.00022067828
0.00023778366
0.00025916687
0.00028400249
0.00031163303
0.0003416847
0.00037418302
0.00040976436
0.00045024824
0.00050012259
0.000521817
0.00020220603
0.00020787934
0.00021976138
0.0002367991
0.00025813796
0.00028297141
0.00031065067
0.00034080026
0.00037343539
0.00040917953
0.00044983685
0.00049988012
0.00052170586
0.00020138848
0.00020702997
0.000218856
0.00023583769
0.00025714351
0.00028198382
0.0003097171
0.00033996505
0.00037273368
0.00040863406
0.00044945487
0.00049965422
0.00052159495
0.0002005729
0.0002061872
0.00021796611
0.00023490257
0.00025618583
0.00028104116
0.00030883274
0.00033917903
0.00037207797
0.00040812775
0.00044910205
0.00049944484
0.00052148501
0.00019976374
0.00020535517
0.0002170952
0.00023399646
0.00025526676
0.00028014434
0.00030799747
0.00033844229
0.000371468
0.00040766011
0.00044877789
0.00049925177
0.00052137666
0.00019896493
0.00020453749
0.00021624631
0.00023312163
0.00025438769
0.00027929348
0.00030721147
0.00033775458
0.00037090316
0.00040723039
0.0004484817
0.00049907464
0.00052127047
0.00019817995
0.00020373735
0.00021542207
0.00023227985
0.00025354921
0.00027848899
0.00030647463
0.00033711533
0.0003703826
0.00040683763
0.00044821263
0.00049891301
0.00052116688
0.00019741186
0.00020295752
0.00021462454
0.0002314723
0.00025275205
0.00027773099
0.00030578654
0.00033652373
0.00036990525
0.00040648069
0.00044796973
0.00049876635
0.00052106629
0.00019666318
0.00020220021
0.00021385536
0.00023070007
0.00025199668
0.00027701933
0.00030514654
0.00033597873
0.00036946983
0.00040615829
0.00044775193
0.00049863407
0.00052096904
0.00019593606
0.00020146729
0.00021311594
0.00022996396
0.00025128327
0.00027635364
0.00030455375
0.0003354791
0.00036907493
0.00040586903
0.00044755809
0.00049851553
0.00052087537
0.00019523231
0.00020076033
0.0002124074
0.00022926454
0.00025061179
0.00027573329
0.00030400709
0.00033502343
0.00036871902
0.00040561145
0.00044738703
0.00049841006
0.00052078551
0.00019455343
0.00020008063
0.00021173062
0.00022860214
0.00024998199
0.00027515751
0.00030350534
0.00033461019
0.00036840044
0.00040538399
0.00044723751
0.00049831698
0.00052069961
0.00019390068
0.00019942923
0.00021108623
0.00022797686
0.00024939341
0.0002746253
0.00030304709
0.00033423774
0.00036811749
0.00040518509
0.00044710832
0.0004982356
0.00052061779
0.00019327506
0.00019880694
0.00021047463
0.00022738862
0.00024884543
0.00027413557
0.00030263087
0.00033390436
0.00036786839
0.00040501313
0.00044699819
0.00049816521
0.00052054014
0.00019267735
0.00019821434
0.00020989605
0.00022683714
0.00024833726
0.00027368706
0.00030225506
0.00033360825
0.00036765135
0.0004048665
0.00044690591
0.00049810513
0.00052046669
0.00019210811
0.00019765181
0.00020935051
0.00022632199
0.000247868
0.00027327842
0.00030191798
0.00033334756
0.00036746454
0.00040474358
0.00044683023
0.00049805467
0.00052039747
0.00019156772
0.00019711957
0.00020883786
0.00022584259
0.00024743659
0.0002729082
0.0003016179
0.00033312043
0.00036730613
0.0004046428
0.00044676997
0.00049801316
0.00052033246
0.00019105636
0.00019661762
0.00020835782
0.00022539822
0.00024704188
0.00027257487
0.00030135303
0.00033292496
0.00036717431
0.00040456257
0.00044672396
0.00049797995
0.00052027162
0.00019057408
0.00019614586
0.00020790994
0.00022498806
0.00024668265
0.00027227684
0.00030112156
0.00033275926
0.00036706729
0.00040450136
0.00044669105
0.0004979544
0.0005202149
0.00019012074
0.00019570401
0.00020749367
0.00022461118
0.00024635757
0.0002720125
0.00030092164
0.00033262145
0.00036698329
0.00040445768
0.00044667015
0.0004979359
0.00052016223
0.00018969612
0.00019529169
0.00020710834
0.00022426654
0.00024606528
0.00027178016
0.00030075145
0.00033250966
0.0003669206
0.00040443008
0.0004466602
0.00049792385
0.00052011351
0.00018929982
0.00019490838
0.00020675317
0.00022395307
0.00024580435
0.00027157815
0.00030060914
0.00033242207
0.00036687752
0.00040441715
0.00044666018
0.0004979177
0.00052006864
0.00018893137
0.00019455348
0.00020642732
0.00022366959
0.00024557332
0.00027140477
0.00030049291
0.00033235688
0.00036685243
0.00040441755
0.00044666914
0.00049791691
0.0005200275
0.00018859019
0.0001942263
0.00020612986
0.0002234149
0.0002453707
0.00027125832
0.00030040096
0.00033231234
0.00036684375
0.00040443
0.00044668614
0.00049792094
0.00051998996
0.00018827562
0.00019392605
0.0002058598
0.00022318775
0.00024519498
0.00027113711
0.00030033153
0.00033228674
0.00036684996
0.00040445326
0.0004467103
0.00049792932
0.00051995591
0.00018798692
0.00019365189
0.0002056161
0.00022298684
0.00024504466
0.00027103948
0.00030028291
0.00033227845
0.0003668696
0.00040448616
0.0004467408
0.00049794157
0.00051992519
0.00018772327
0.00019340292
0.00020539766
0.00022281087
0.00024491822
0.00027096378
0.00030025341
0.00033228587
0.00036690129
0.00040452759
0.00044677685
0.00049795725
0.00051989766
0.00018748382
0.00019317819
0.00020520337
0.00022265851
0.00024481415
0.00027090839
0.00030024142
0.00033230748
0.0003669437
0.00040457649
0.00044681772
0.00049797595
0.00051987318
0.00018726765
0.00019297671
0.00020503208
0.00022252845
0.00024473098
0.00027087175
0.00030024537
0.00033234183
0.00036699558
0.00040463189
0.00044686271
0.00049799727
0.00051985159
0.00018707382
0.00019279745
0.00020488262
0.00022241933
0.00024466723
0.00027085231
0.00030026374
0.00033238751
0.00036705573
0.00040469284
0.00044691119
0.00049802086
0.00051983275
0.00018690134
0.00019263935
0.00020475381
0.00022232986
0.00024462147
0.00027084858
0.00030029509
0.00033244321
0.00036712303
0.00040475847
0.00044696253
0.00049804635
0.00051981649
0.00018674921
0.00019250136
0.00020464448
0.00022225871
0.0002445923
0.00027085914
0.00030033802
0.00033250767
0.00036719643
0.00040482798
0.00044701619
0.00049807344
0.00051980268
0.00018661641
0.00019238239
0.00020455344
0.00022220459
0.00024457833
0.00027088259
0.00030039121
0.0003325797
0.00036727493
0.0004049006
0.00044707165
0.00049810182
0.00051979115
0.00018650189
0.00019228137
0.00020447952
0.00022216625
0.00024457826
0.00027091761
0.00030045341
0.00033265819
0.00036735762
0.00040497564
0.00044712842
0.00049813122
0.00051978176
0.00018640463
0.00019219721
0.00020442156
0.00022214245
0.00024459079
0.00027096292
0.00030052342
0.0003327421
0.00036744363
0.00040505243
0.00044718607
0.00049816137
0.00051977436
0.00018632359
0.00019212883
0.00020437843
0.00022213197
0.00024461468
0.00027101731
0.00030060012
0.00033283043
0.00036753217
0.00040513039
0.00044724418
0.00049819203
0.00051976881
0.00018625773
0.00019207517
0.00020434899
0.00022213366
0.00024464877
0.00027107964
0.00030068246
0.00033292227
0.0003676225
0.00040520897
0.0004473024
0.000498223
0.00051976496
0.00018620603
0.00019203519
0.00020433217
0.00022214639
0.0002446919
0.00027114882
0.00030076944
0.00033301679
0.00036771395
0.00040528766
0.00044736037
0.00049825406
0.00051976267
0.00018616749
0.00019200785
0.0002043269
0.00022216906
0.00024474301
0.00027122381
0.00030086014
0.0003331132
0.00036780589
0.00040536602
0.00044741782
0.00049828504
0.00051976183
0.00018614113
0.00019199216
0.00020433215
0.00022220064
0.00024480107
0.00027130367
0.00030095371
0.00033321077
0.00036789776
0.00040544364
0.00044747446
0.00049831579
0.00051976229
0.00018612597
0.00019198713
0.00020434693
0.00022224013
0.00024486512
0.0002713875
0.00030104935
0.00033330886
0.00036798907
0.00040552017
0.00044753007
0.00049834615
0.00051976394
0.00018612108
0.00019199183
0.00020437027
0.00022228658
0.00024493423
0.00027147444
0.00030114634
0.00033340687
0.00036807935
0.00040559527
0.00044758443
0.000498376
0.00051976666
0.00018612555
0.00019200532
0.00020440127
0.00022233908
0.00024500755
0.00027156373
0.000301244
0.00033350426
0.00036816819
0.00040566867
0.00044763736
0.00049840522
0.00051977034
0.00018613849
0.00019202675
0.00020443905
0.00022239679
0.00024508428
0.00027165464
0.00030134172
0.00033360053
0.00036825524
0.00040574012
0.0004476887
0.00049843372
0.00051977486
0.00018615907
0.00019205524
0.00020448276
0.0002224589
0.00024516367
0.0002717465
0.00030143894
0.00033369524
0.00036834015
0.00040580938
0.00044773831
0.00049846139
0.00051978012
0.00018618645
0.00019209
0.00020453162
0.00022252464
0.00024524502
0.00027183871
0.00030153514
0.000333788
0.00036842266
0.00040587627
0.00044778606
0.00049848816
0.00051978603
0.00018621987
0.00019213025
0.00020458487
0.00022259331
0.00024532768
0.00027193069
0.00030162988
0.00033387846
0.00036850251
0.00040594063
0.00044783184
0.00049851384
0.00051979248
0.00018625858
0.00019217525
0.0002046418
0.00022266424
0.00024541105
0.00027202195
0.00030172275
0.00033396631
0.00036857948
0.00040600231
0.00044787555
0.00049853824
0.00051979936
0.00018630186
0.00019222432
0.00020470176
0.00022273683
0.0002454946
0.00027211203
0.00030181339
0.0003340513
0.0003686534
0.0004060612
0.00044791704
0.00049856132
0.00051980659
0.00018634907
0.0001922768
0.00020476411
0.00022281049
0.00024557783
0.00027220054
0.00030190149
0.0003341332
0.00036872414
0.00040611721
0.00044795624
0.00049858309
0.00051981408
0.00018639958
0.00019233209
0.0002048283
0.00022288473
0.00024566031
0.00027228711
0.0003019868
0.00033421185
0.0003687916
0.00040617024
0.00044799308
0.00049860362
0.00051982177
0.00018645279
0.00019238963
0.0002048938
0.00022295908
0.00024574165
0.00027237145
0.0003020691
0.00033428712
0.00036885568
0.00040622024
0.00044802762
0.00049862296
0.00051982961
0.00018650818
0.00019244887
0.00020496012
0.00022303311
0.0002458215
0.0002724533
0.00030214823
0.0003343589
0.00036891632
0.00040626717
0.00044805993
0.00049864116
0.00051983755
0.00018656523
0.00019250935
0.00020502682
0.00022310644
0.00024589955
0.00027253244
0.00030222403
0.0003344271
0.00036897347
0.0004063111
0.00044809007
0.00049865827
0.00051984555
0.00018662346
0.0001925706
0.00020509348
0.00022317872
0.00024597554
0.00027260867
0.00030229638
0.00033449166
0.0003690271
0.00040635209
0.00044811813
0.00049867431
0.00051985358
0.00018668244
0.00019263221
0.00020515974
0.00022324964
0.00024604923
0.00027268184
0.0003023652
0.00033455248
0.00036907726
0.00040639021
0.00044814415
0.00049868932
0.00051986157
0.00018674176
0.00019269379
0.00020522524
0.00022331892
0.00024612039
0.00027275179
0.00030243034
0.00033460957
0.00036912401
0.00040642552
0.00044816819
0.00049870332
0.0005198695
0.00018680103
0.00019275497
0.00020528967
0.00022338629
0.00024618885
0.00027281837
0.00030249174
0.00033466293
0.00036916737
0.00040645807
0.00044819028
0.0004987163
0.00051987731
0.0001868599
0.00019281542
0.00020535274
0.00022345154
0.00024625442
0.00027288146
0.00030254938
0.00033471259
0.0003692074
0.00040648791
0.00044821046
0.00049872827
0.00051988496
0.00018691807
0.00019287487
0.00020541422
0.00022351445
0.00024631693
0.000272941
0.00030260325
0.00033475857
0.00036924415
0.00040651509
0.00044822876
0.00049873924
0.00051989241
0.00018697526
0.00019293304
0.00020547385
0.00022357484
0.0002463763
0.00027299695
0.00030265337
0.00033480094
0.00036927768
0.00040653968
0.00044824523
0.00049874918
0.00051989962
0.00018703122
0.00019298971
0.00020553146
0.00022363258
0.00024643245
0.00027304931
0.00030269978
0.00033483977
0.0003693081
0.00040656176
0.00044825991
0.00049875814
0.00051990657
0.00018708574
0.0001930447
0.00020558691
0.00022368759
0.00024648538
0.00027309812
0.00030274257
0.00033487518
0.00036933551
0.00040658143
0.0004482729
0.00049876613
0.00051991326
0.00018713866
0.00019309784
0.00020564008
0.00022373983
0.00024653509
0.00027314346
0.00030278187
0.0003349073
0.00036936008
0.00040659884
0.00044828429
0.00049877323
0.00051991967
0.00018718985
0.00019314904
0.00020569091
0.00022378928
0.00024658164
0.00027318543
0.00030281782
0.00033493632
0.00036938197
0.00040661414
0.00044829421
0.0004987795
0.00051992581
0.0001872392
0.00019319822
0.00020573937
0.00022383596
0.0002466251
0.00027322416
0.00030285058
0.00033496242
0.00036940138
0.00040662752
0.00044830282
0.00049878506
0.00051993171
0.00018728663
0.0001932453
0.00020578543
0.00022387991
0.00024666557
0.00027325979
0.00030288033
0.00033498579
0.0003694185
0.00040663916
0.00044831025
0.00049878999
0.00051993737
0.00018733207
0.00019329025
0.00020582908
0.00022392116
0.00024670313
0.00027329245
0.00030290725
0.00033500663
0.00036943353
0.00040664921
0.00044831664
0.00049879438
0.0005199428
0.00018737544
0.000193333
0.00020587031
0.00022395974
0.00024673786
0.00027332226
0.00030293146
0.00033502507
0.0003694466
0.0004066578
0.0004483221
0.0004987983
0.00051994801
0.00018741668
0.00019337351
0.00020590909
0.00022399568
0.00024676981
0.00027334931
0.00030295308
0.00033504125
0.00036945782
0.00040666504
0.00044832666
0.00049880177
0.00051995297
0.00018745571
0.00019341172
0.0002059454