/*--------------------------------*- C++ -*----------------------------------*\
| =========                 |                                                 |
| \\      /  F ield         | OpenFOAM: The Open Source CFD Toolbox           |
|  \\    /   O peration     | Version:  2506                                  |
|   \\  /    A nd           | Website:  www.openfoam.com                      |
|    \\/     M anipulation  |                                                 |
\*---------------------------------------------------------------------------*/
FoamFile
{
    version     2.0;
    format      ascii;
    arch        "LSB;label=32;scalar=64";
    class       volScalarField;
    location    "30000/water";
    object      nut;
}
// * * * * * * * * * * * * * * * * * * * * * * * * * * * * * * * * * * * * * //

dimensions      [0 2 -1 0 0 0 0];

internalField   nonuniform List<scalar> 
2600
(
4.0562043e-05
4.0561942e-05
4.0561944e-05
4.0561981e-05
4.0561942e-05
4.0561434e-05
4.0558261e-05
4.0540002e-05
4.0435343e-05
3.98338e-05
3.6541397e-05
2.4161555e-05
1.4889524e-05
3.944741e-05
3.9447468e-05
3.944759e-05
3.9447676e-05
3.9447275e-05
3.9444342e-05
3.9428907e-05
3.9352895e-05
3.8988431e-05
3.7314814e-05
3.0763187e-05
1.7536144e-05
1.684056e-05
3.852265e-05
3.852264e-05
3.8522725e-05
3.8522528e-05
3.8520597e-05
3.8510798e-05
3.8466747e-05
3.8277827e-05
3.7500368e-05
3.454641e-05
2.5814945e-05
1.4669956e-05
1.7712619e-05
3.7742032e-05
3.774193e-05
3.7741811e-05
3.7740766e-05
3.7735283e-05
3.7711707e-05
3.7617453e-05
3.7258039e-05
3.5961308e-05
3.177518e-05
2.2061889e-05
1.3531464e-05
1.7967898e-05
3.7073562e-05
3.7073366e-05
3.7072781e-05
3.7069955e-05
3.7057916e-05
3.7011651e-05
3.6843992e-05
3.6266509e-05
3.4405655e-05
2.9188861e-05
1.9425178e-05
1.3345943e-05
1.7902414e-05
3.6493786e-05
3.6493393e-05
3.6491924e-05
3.648598e-05
3.646354e-05
3.6384687e-05
3.612226e-05
3.5294625e-05
3.2873382e-05
2.6881541e-05
1.771645e-05
1.3793839e-05
1.7689846e-05
3.5985207e-05
3.5984445e-05
3.5981496e-05
3.5970726e-05
3.5933497e-05
3.5812307e-05
3.5437992e-05
3.4343601e-05
3.1395257e-05
2.4892541e-05
1.6781972e-05
1.4727875e-05
1.7427344e-05
3.5534568e-05
3.55332e-05
3.5528007e-05
3.5510417e-05
3.5453869e-05
3.5281761e-05
3.478374e-05
3.3418009e-05
2.9989903e-05
2.3242727e-05
1.6521213e-05
1.605365e-05
1.7168093e-05
3.5131649e-05
3.5129373e-05
3.5121029e-05
3.5094485e-05
3.5014364e-05
3.4784646e-05
3.4156253e-05
3.2521766e-05
2.8667649e-05
2.1957692e-05
1.6869959e-05
1.7676047e-05
1.694009e-05
3.4768438e-05
3.47649e-05
3.4752406e-05
3.4714802e-05
3.4607522e-05
3.4315777e-05
3.3554458e-05
3.16563e-05
2.7438403e-05
2.1076946e-05
1.7774701e-05
1.9481897e-05
1.6755877e-05
3.4438571e-05
3.443338e-05
3.4415717e-05
3.4365168e-05
3.4228127e-05
3.3872266e-05
3.2977968e-05
3.0820513e-05
2.6321667e-05
2.0649591e-05
1.9168673e-05
2.1348725e-05
1.6617712e-05
3.4136931e-05
3.4129689e-05
3.4105903e-05
3.4040932e-05
3.3872746e-05
3.3452766e-05
3.2426062e-05
3.0012536e-05
2.5355877e-05
2.0719809e-05
2.0958175e-05
2.3166793e-05
1.6521078e-05
3.3859367e-05
3.3849701e-05
3.3819003e-05
3.3738723e-05
3.3539365e-05
3.3056856e-05
3.1897087e-05
2.923354e-05
2.4602257e-05
2.1309035e-05
2.3024752e-05
2.4858007e-05
1.6457822e-05
3.3602495e-05
3.3590098e-05
3.355197e-05
3.3456247e-05
3.3227088e-05
3.2684517e-05
3.1388405e-05
2.8493549e-05
2.4138757e-05
2.2402735e-05
2.5241354e-05
2.6381455e-05
1.6418929e-05
3.3363555e-05
3.334823e-05
3.3302533e-05
3.3192135e-05
3.2935885e-05
3.2335692e-05
3.0897111e-05
2.781812e-05
2.4044358e-05
2.3946906e-05
2.7493335e-05
2.7726694e-05
1.6396422e-05
3.3140311e-05
3.3122024e-05
3.3069114e-05
3.2945826e-05
3.2666358e-05
3.2009929e-05
3.0421904e-05
2.725306e-05
2.4379894e-05
2.5855075e-05
2.9693858e-05
2.8902281e-05
1.6384202e-05
3.2930983e-05
3.2909915e-05
3.2850758e-05
3.2717477e-05
3.2419519e-05
3.1706209e-05
2.9966345e-05
2.6863467e-05
2.5173339e-05
2.8023003e-05
3.1788481e-05
2.9925862e-05
1.6378087e-05
3.27342e-05
3.2710811e-05
3.2647097e-05
3.2507877e-05
3.219656e-05
3.1423099e-05
2.9543334e-05
2.6725089e-05
2.6414165e-05
3.0346001e-05
3.3750499e-05
3.0817911e-05
1.6375449e-05
3.254898e-05
3.2524066e-05
3.2458325e-05
3.2318371e-05
3.1998619e-05
3.1159479e-05
2.9179673e-05
2.6909997e-05
2.8056821e-05
3.2733298e-05
3.5572232e-05
3.159849e-05
1.6374764e-05
3.2374714e-05
3.234948e-05
3.2285189e-05
3.2150777e-05
3.1826588e-05
3.0916123e-05
2.8918575e-05
2.7471841e-05
3.0030665e-05
3.5115834e-05
3.7256818e-05
3.2285747e-05
1.6375224e-05
3.2211173e-05
3.2187303e-05
3.2128983e-05
3.2007273e-05
3.1681012e-05
3.0698309e-05
2.8817773e-05
2.8435851e-05
3.2252929e-05
3.7447133e-05
3.8812576e-05
3.2895331e-05
1.6376448e-05
3.2058522e-05
3.2038256e-05
3.199155e-05
3.1890271e-05
3.1562235e-05
3.051924e-05
2.8942305e-05
2.9795901e-05
3.464125e-05
3.9699498e-05
4.0249838e-05
3.3440303e-05
1.6378293e-05
3.1917349e-05
3.1903563e-05
3.1875268e-05
3.1802262e-05
3.147098e-05
3.0403414e-05
2.9353632e-05
3.1518042e-05
3.7123065e-05
4.1858566e-05
4.1579379e-05
3.3931333e-05
1.6380731e-05
3.1788707e-05
3.1784988e-05
3.1783034e-05
3.1745667e-05
3.1409596e-05
3.0388388e-05
3.0098641e-05
3.3548311e-05
3.9640503e-05
4.3918428e-05
4.2811639e-05
3.4377031e-05
1.638378e-05
3.167417e-05
3.1684884e-05
3.1718215e-05
3.1722747e-05
3.1384107e-05
3.0523332e-05
3.1201975e-05
3.5822342e-05
4.2151079e-05
4.5878174e-05
4.3956334e-05
3.4784314e-05
1.6387467e-05
3.1575896e-05
3.1606239e-05
3.1684577e-05
3.1735682e-05
3.1406918e-05
3.0863671e-05
3.2663377e-05
3.8274457e-05
4.4625623e-05
4.7739783e-05
4.5022274e-05
3.5158739e-05
1.6391813e-05
3.1496714e-05
3.155272e-05
3.1686171e-05
3.1786997e-05
3.1499546e-05
3.1462866e-05
3.445981e-05
4.0844581e-05
4.7045146e-05
4.9506882e-05
4.6017315e-05
3.5504794e-05
1.6396824e-05
3.1440215e-05
3.1528703e-05
3.1727217e-05
3.1880504e-05
3.1694229e-05
3.2363742e-05
3.6550942e-05
4.3482184e-05
4.9397839e-05
5.1183995e-05
4.6948402e-05
3.5826124e-05
1.6402494e-05
3.141085e-05
3.1539289e-05
3.1812006e-05
3.2022926e-05
3.2033144e-05
3.3591893e-05
3.8886228e-05
4.6147426e-05
5.1676787e-05
5.2776063e-05
4.782164e-05
3.6125718e-05
1.6408802e-05
3.1414042e-05
3.1590274e-05
3.1944928e-05
3.2226119e-05
3.2564562e-05
3.5152684e-05
4.1411886e-05
4.8810349e-05
5.3878384e-05
5.4288122e-05
4.8642393e-05
3.6406048e-05
1.6415722e-05
3.1456281e-05
3.1688095e-05
3.2130757e-05
3.2509432e-05
3.333648e-05
3.7032008e-05
4.4076505e-05
5.1449131e-05
5.6001296e-05
5.5725114e-05
4.9415388e-05
3.6669254e-05
1.642322e-05
3.1545208e-05
3.183974e-05
3.2375386e-05
3.2901322e-05
3.4389411e-05
3.9199975e-05
4.6834633e-05
5.4048187e-05
5.804569e-05
5.7091637e-05
5.0144339e-05
3.6914943e-05
1.6431248e-05
3.1689662e-05
3.2052668e-05
3.2687145e-05
3.3439134e-05
3.5750338e-05
4.1616209e-05
4.9648333e-05
5.6596558e-05
6.0012742e-05
5.8392011e-05
5.0832727e-05
3.7144923e-05
1.6439749e-05
3.1899684e-05
3.2334823e-05
3.3078704e-05
3.4166338e-05
3.7429301e-05
4.4235459e-05
5.2487192e-05
5.9086682e-05
6.1904244e-05
5.9630092e-05
5.1482696e-05
3.7361244e-05
1.6448668e-05
3.2186465e-05
3.2694872e-05
3.3569195e-05
3.5127409e-05
3.9419064e-05
4.7012428e-05
5.5327449e-05
6.1513507e-05
6.3722343e-05
6.0809394e-05
5.2096451e-05
3.7565313e-05
1.6457958e-05
3.2562282e-05
3.3142861e-05
3.4185831e-05
3.6361549e-05
4.1697458e-05
4.9905187e-05
5.8150806e-05
6.3873834e-05
6.5469391e-05
6.1933118e-05
5.26774e-05
3.7758158e-05
1.6467586e-05
3.3040474e-05
3.369144e-05
3.4963993e-05
3.7896946e-05
4.4231431e-05
5.2877047e-05
6.0943283e-05
6.6165777e-05
6.7147566e-05
6.3002905e-05
5.3228279e-05
3.7940823e-05
1.6477531e-05
3.3635638e-05
3.4357647e-05
3.5945065e-05
3.9746992e-05
4.698172e-05
5.5897118e-05
6.3694248e-05
6.838843e-05
6.8759334e-05
6.4022595e-05
5.3751053e-05
3.8114079e-05
1.6487766e-05
3.4364223e-05
3.51649e-05
3.7171976e-05
4.1909155e-05
4.9907177e-05
5.8940024e-05
6.6395663e-05
7.0541366e-05
7.0305657e-05
6.4995388e-05
5.4247639e-05
3.8278684e-05
1.6498266e-05
3.524572e-05
3.6144413e-05
3.868339e-05
4.4366361e-05
5.2968075e-05
6.1985168e-05
6.9041448e-05
7.2624747e-05
7.1789407e-05
6.5923871e-05
5.4719659e-05
3.8435268e-05
1.6509004e-05
3.630439e-05
3.7335014e-05
4.0508068e-05
4.7090196e-05
5.6128204e-05
6.5015942e-05
7.1626952e-05
7.4638166e-05
7.3213264e-05
6.6810357e-05
5.5168629e-05
3.8584369e-05
1.6519954e-05
3.7571045e-05
3.8780594e-05
4.2660834e-05
5.0044943e-05
5.9355777e-05
6.8018896e-05
7.4148648e-05
7.6582488e-05
7.4579718e-05
6.76569e-05
5.5595891e-05
3.8726449e-05
1.653109e-05
3.9083852e-05
4.0525214e-05
4.5140972e-05
5.3191577e-05
6.2623569e-05
7.0983103e-05
7.6603209e-05
7.8458836e-05
7.5890907e-05
6.8465404e-05
5.600263e-05
3.8861904e-05
1.6542386e-05
4.0886902e-05
4.2606853e-05
4.7933091e-05
5.6490984e-05
6.5908444e-05
7.3899526e-05
7.8988644e-05
8.0268735e-05
7.7148734e-05
6.9237565e-05
5.6389886e-05
3.8991065e-05
1.6553816e-05
4.3025762e-05
4.5051415e-05
5.1009872e-05
5.990621e-05
6.9190865e-05
7.6760136e-05
8.1303261e-05
8.2013417e-05
7.8354963e-05
6.9974896e-05
5.6758559e-05
3.911421e-05
1.6565353e-05
4.5540344e-05
4.7868451e-05
5.4335746e-05
6.3403512e-05
7.2453904e-05
7.9558409e-05
8.3546724e-05
8.3693975e-05
7.9511138e-05
7.0678711e-05
5.7109425e-05
3.9231565e-05
1.6576974e-05
4.8456705e-05
5.1049443e-05
5.787062e-05
6.6952749e-05
7.568278e-05
8.228886e-05
8.5718423e-05
8.5311366e-05
8.0618596e-05
7.1350138e-05
5.7443132e-05
3.9343314e-05
1.6588653e-05
5.178011e-05
5.4568622e-05
6.1572933e-05
7.0526863e-05
7.8863939e-05
8.4947812e-05
8.7817762e-05
8.6866347e-05
8.1678449e-05
7.1990114e-05
5.7760216e-05
3.9449593e-05
1.6600366e-05
5.5491353e-05
5.8385628e-05
6.5401386e-05
7.4100917e-05
8.198718e-05
8.7531659e-05
8.984404e-05
8.8359439e-05
8.2691571e-05
7.2599393e-05
5.8061096e-05
3.9550499e-05
1.6612087e-05
5.9547213e-05
6.2448901e-05
6.931556e-05
7.7653775e-05
8.5043644e-05
9.003694e-05
9.1796374e-05
8.9790901e-05
8.3658586e-05
7.317854e-05
5.8346084e-05
3.9646086e-05
1.662379e-05
6.3884459e-05
6.6699777e-05
7.3278192e-05
8.116757e-05
8.8025175e-05
9.2460229e-05
9.3673656e-05
9.1160706e-05
8.4579865e-05
7.3727933e-05
5.8615379e-05
3.9736371e-05
1.6635451e-05
6.8427325e-05
7.1077064e-05
7.7255175e-05
8.4626034e-05
9.0924142e-05
9.4798064e-05
9.5474523e-05
9.2468531e-05
8.5455523e-05
7.4247764e-05
5.8869076e-05
3.9821328e-05
1.664704e-05
7.3095522e-05
7.5520269e-05
8.1214708e-05
8.8014197e-05
9.3733335e-05
9.7046926e-05
9.719736e-05
9.3713765e-05
8.628542e-05
7.4738042e-05
5.9107164e-05
3.9900895e-05
1.6658531e-05
7.7811264e-05
7.9972297e-05
8.5127258e-05
9.1318185e-05
9.644592e-05
9.9203264e-05
9.8840337e-05
9.4895534e-05
8.7069184e-05
7.5198605e-05
5.9329532e-05
3.9974972e-05
1.6669891e-05
8.2504341e-05
8.4381452e-05
8.896566e-05
9.4525134e-05
9.9055446e-05
0.00010126356
0.00010040148
9.6012751e-05
8.7806238e-05
7.5629139e-05
5.953598e-05
4.0043427e-05
1.6681088e-05
8.7115002e-05
8.8702734e-05
9.2705344e-05
9.7623207e-05
0.00010155591
0.00010322443
0.00010187874
9.7064182e-05
8.8495849e-05
7.60292e-05
5.9726232e-05
4.0106099e-05
1.6692087e-05
9.1594949e-05
9.2898476e-05
9.6324621e-05
0.00010060169
0.00010394187
0.00010508273
0.00010327014
9.8048541e-05
8.9137185e-05
7.6398258e-05
5.9899955e-05
4.0162806e-05
1.6702851e-05
9.5906999e-05
9.6938423e-05
9.9804925e-05
0.00010345112
0.00010620851
0.00010683569
0.00010457387
9.8964586e-05
8.9729395e-05
7.673574e-05
6.0056788e-05
4.0213357e-05
1.671334e-05
0.00010002396
0.00010079936
0.00010313097
0.00010616347
0.0001083518
0.00010848106
0.00010578844
9.9811227e-05
9.0271681e-05
7.7041086e-05
6.0196367e-05
4.0257565e-05
1.6723514e-05
0.00010392716
0.00010446445
0.00010629079
0.0001087322
0.0001103686
0.00011001716
0.00010691275
0.00010058763
9.076339e-05
7.7313807e-05
6.0318365e-05
4.0295258e-05
1.6733331e-05
0.00010760495
0.00010792245
0.00010927561
0.0001111524
0.00011225669
0.000111443
0.0001079462
0.00010129331
9.1204086e-05
7.7553539e-05
6.0422524e-05
4.0326296e-05
1.674275e-05
0.00011105126
0.00011116682
0.00011207966
0.00011342078
0.00011401485
0.00011275833
0.00010888879
0.00010192821
9.1593622e-05
7.7760103e-05
6.0508688e-05
4.0350587e-05
1.6751732e-05
0.00011426442
0.00011419495
0.00011469989
0.00011553564
0.00011564286
0.00011396364
0.00010974108
0.00010249272
9.1932193e-05
7.7933543e-05
6.0576835e-05
4.0368098e-05
1.6760239e-05
0.00011724614
0.00011700734
0.00011713562
0.00011749676
0.00011714147
0.00011506017
0.00011050429
0.00010298775
9.2220368e-05
7.8074164e-05
6.0627097e-05
4.0378866e-05
1.6768237e-05
0.00012000071
0.00011960701
0.00011938824
0.00011930531
0.00011851238
0.00011604987
0.00011118021
0.00010341471
9.2459109e-05
7.8182549e-05
6.065978e-05
4.0383005e-05
1.6775699e-05
0.00012253428
0.00012199888
0.00012146084
0.0001209637
0.0001197581
0.00011693535
0.0001117712
0.00010377549
9.2649769e-05
7.8259565e-05
6.0675364e-05
4.0380707e-05
1.6782601e-05
0.00012485446
0.00012418937
0.00012335789
0.00012247539
0.00012088194
0.00011771982
0.00011228015
0.00010407242
9.2794072e-05
7.8306357e-05
6.0674506e-05
4.0372247e-05
1.6788927e-05
0.00012696981
0.00012618599
0.000125085
0.00012384475
0.00012188786
0.00011840703
0.00011271038
0.00010430824
9.2894082e-05
7.832433e-05
6.0658029e-05
4.0357968e-05
1.6794666e-05
0.00012888959
0.00012799703
0.00012664864
0.00012507691
0.00012278037
0.00011900112
0.00011306561
0.00010448604
9.2952157e-05
7.8315117e-05
6.0626902e-05
4.0338282e-05
1.6799815e-05
0.0001306235
0.00012963131
0.00012805591
0.00012617755
0.00012356444
0.00011950661
0.00011334984
0.00010460918
9.2970904e-05
7.8280547e-05
6.0582223e-05
4.0313655e-05
1.6804378e-05
0.0001321815
0.000131098
0.00012931439
0.00012715283
0.00012424539
0.00011992831
0.00011356733
0.00010468124
9.2953123e-05
7.8222604e-05
6.0525188e-05
4.0284593e-05
1.6808364e-05
0.00013357362
0.00013240644
0.00013043195
0.00012800922
0.00012482879
0.00012027119
0.00011372249
0.00010470594
9.2901754e-05
7.8143385e-05
6.0457067e-05
4.0251635e-05
1.6811789e-05
0.00013480988
0.00013356602
0.00013141662
0.00012875341
0.0001253204
0.00012054037
0.00011381982
0.0001046871
9.2819825e-05
7.8045061e-05
6.0379175e-05
4.0215333e-05
1.6814674e-05
0.0001359002
0.00013458609
0.00013227651
0.00012939219
0.00012572605
0.00012074099
0.00011386388
0.00010462859
9.2710401e-05
7.7929835e-05
6.0292845e-05
4.0176245e-05
1.6817042e-05
0.00013685428
0.00013547585
0.00013301969
0.00012993239
0.00012605162
0.00012087825
0.0001138592
0.00010453425
9.2576544e-05
7.7799907e-05
6.0199406e-05
4.0134918e-05
1.6818922e-05
0.00013768161
0.0001362443
0.00013365412
0.00013038079
0.00012630294
0.00012095723
0.00011381025
0.00010440786
9.2421267e-05
7.7657441e-05
6.0100157e-05
4.0091886e-05
1.6820345e-05
0.00013839136
0.00013690021
0.00013418761
0.00013074409
0.00012648575
0.00012098298
0.00011372141
0.00010425314
9.2247507e-05
7.7504539e-05
5.9996351e-05
4.0047653e-05
1.6821343e-05
0.00013899238
0.00013745204
0.00013462775
0.0001310288
0.00012660568
0.00012096038
0.00011359693
0.00010407365
9.2058095e-05
7.7343216e-05
5.9889181e-05
4.0002695e-05
1.6821951e-05
0.00013949319
0.00013790794
0.00013498189
0.0001312413
0.00012666821
0.00012089418
0.0001134409
0.00010387282
9.1855729e-05
7.7175381e-05
5.9779763e-05
3.9957447e-05
1.6822201e-05
0.00013990192
0.00013827573
0.00013525708
0.00013138772
0.00012667859
0.00012078892
0.00011325724
0.00010365392
9.1642964e-05
7.7002828e-05
5.9669134e-05
3.9912307e-05
1.6822129e-05
0.00014022632
0.00013856285
0.00013546009
0.00013147395
0.00012664191
0.00012064899
0.00011304967
0.00010342003
9.1422194e-05
7.6827217e-05
5.9558239e-05
3.986763e-05
1.6821769e-05
0.00014047378
0.00013877641
0.00013559741
0.00013150564
0.00012656301
0.00012047853
0.00011282172
0.00010317405
9.1195646e-05
7.6650078e-05
5.9447936e-05
3.9823729e-05
1.6821151e-05
0.00014065127
0.00013892314
0.00013567515
0.00013148817
0.0001264465
0.00012028147
0.00011257671
0.00010291867
9.0965372e-05
7.6472799e-05
5.9338986e-05
3.9780875e-05
1.6820309e-05
0.00014076541
0.0001390094
0.00013569915
0.00013142662
0.00012629676
0.00012006153
0.00011231773
0.00010265639
9.0733253e-05
7.6296631e-05
5.9232061e-05
3.9739298e-05
1.6819271e-05
0.0001408224
0.00013904118
0.00013567491
0.00013132584
0.00012611792
0.0001198222
0.00011204768
0.00010238952
9.0500994e-05
7.6122688e-05
5.9127743e-05
3.9699189e-05
1.6818066e-05
0.00014082809
0.00013902413
0.00013560759
0.00013119036
0.00012591386
0.00011956674
0.00011176922
0.00010212016
9.0270124e-05
7.5951936e-05
5.902648e-05
3.966049e-05
1.6816718e-05
0.00014078796
0.00013896354
0.00013550208
0.00013102445
0.00012568822
0.00011929817
0.00011148484
0.00010185022
9.0042e-05
7.57852e-05
5.8928629e-05
3.9623152e-05
1.6815251e-05
0.00014070713
0.00013886437
0.00013536291
0.00013083212
0.00012544439
0.00011901931
0.00011119677
0.00010158142
8.9817794e-05
7.5623119e-05
5.8834213e-05
3.9587467e-05
1.6813682e-05
0.0001405904
0.00013873124
0.00013519434
0.00013061711
0.00012518554
0.00011873276
0.00011090708
0.00010131527
8.9598534e-05
7.5466275e-05
5.8743571e-05
3.9553559e-05
1.681203e-05
0.00014044222
0.00013856845
0.00013500034
0.00013038288
0.00012491459
0.0001184409
0.0001106176
0.0001010531
8.9385014e-05
7.5314793e-05
5.865714e-05
3.9521522e-05
1.6810318e-05
0.00014026672
0.00013838001
0.0001347846
0.00013013266
0.00012463424
0.00011814588
0.00011033
0.00010079607
8.9177864e-05
7.5169369e-05
5.8575066e-05
3.9491405e-05
1.6808563e-05
0.00014006775
0.00013816962
0.00013455052
0.00012986943
0.00012434698
0.0001178497
0.00011004574
0.00010054515
8.8977629e-05
7.5030464e-05
5.8497474e-05
3.9463242e-05
1.6806783e-05
0.00013984885
0.00013794073
0.00013430125
0.00012959595
0.00012405508
0.00011755409
0.00010976605
0.00010030098
8.878511e-05
7.4898325e-05
5.8424445e-05
3.9437042e-05
1.6804994e-05
0.0001396133
0.00013769649
0.00013403971
0.00012931472
0.00012376057
0.00011726063
0.00010949197
0.00010006454
8.8600771e-05
7.4773129e-05
5.8356015e-05
3.9412798e-05
1.6803207e-05
0.00013936411
0.0001374398
0.00013376855
0.00012902803
0.00012346532
0.00011697064
0.00010922449
9.9836592e-05
8.8424959e-05
7.4654991e-05
5.8292182e-05
3.9390482e-05
1.6801436e-05
0.00013910403
0.00013717335
0.00013349021
0.00012873797
0.00012317092
0.00011668529
0.00010896471
9.9617697e-05
8.8257926e-05
7.4543965e-05
5.8232909e-05
3.9370053e-05
1.6799691e-05
0.0001388356
0.00013689954
0.00013320687
0.00012844634
0.00012287878
0.00011640592
0.0001087134
9.9408291e-05
8.8099842e-05
7.4440053e-05
5.8178128e-05
3.9351457e-05
1.679798e-05
0.0001385611
0.00013662056
0.00013292047
0.0001281548
0.00012259043
0.00011613357
0.00010847124
9.9208708e-05
8.7950801e-05
7.4343208e-05
5.8127747e-05
3.9334634e-05
1.6796311e-05
0.00013828254
0.00013633834
0.00013263282
0.000127865
0.00012230715
0.00011586913
0.00010823876
9.9019189e-05
8.781083e-05
7.4253338e-05
5.808165e-05
3.9319514e-05
1.679469e-05
0.0001380018
0.00013605471
0.00013234563
0.00012757841
0.00012203006
0.00011561338
0.00010801639
9.8839887e-05
8.7679895e-05
7.4170314e-05
5.8039702e-05
3.9306021e-05
1.6793122e-05
0.00013772059
0.00013577136
0.00013206046
0.00012729632
0.00012176014
0.00011536695
0.00010780446
9.867088e-05
8.7557908e-05
7.4093976e-05
5.8001755e-05
3.9294077e-05
1.6791613e-05
0.00013744049
0.00013548982
0.00013177868
0.00012701989
0.00012149824
0.00011513036
0.00010760319
9.8512175e-05
8.7444734e-05
7.4024135e-05
5.7967647e-05
3.9283602e-05
1.6790164e-05
0.00013716292
0.00013521144
0.00013150153
0.00012675011
0.00012124507
0.00011490402
0.00010741275
9.8363717e-05
8.7340195e-05
7.3960578e-05
5.7937207e-05
3.9274511e-05
1.6788779e-05
0.00013688915
0.00013493747
0.00013123009
0.00012648786
0.00012100122
0.00011468826
0.00010723319
9.8225392e-05
8.7244079e-05
7.3903076e-05
5.791026e-05
3.9266722e-05
1.678746e-05
0.00013662033
0.00013466898
0.00013096534
0.00012623388
0.00012076719
0.0001144833
0.00010706451
9.8097041e-05
8.715614e-05
7.3851381e-05
5.7886622e-05
3.9260151e-05
1.6786208e-05
0.00013635746
0.00013440693
0.00013070808
0.0001259888
0.00012054337
0.00011428929
0.00010690667
9.7978459e-05
8.707611e-05
7.3805237e-05
5.7866111e-05
3.9254716e-05
1.6785024e-05
0.00013610143
0.00013415216
0.00013045904
0.00012575316
0.00012033005
0.0001141063
0.00010675953
9.7869402e-05
8.7003697e-05
7.3764378e-05
5.7848541e-05
3.9250337e-05
1.6783908e-05
0.00013585299
0.00013390537
0.00013021882
0.00012552737
0.00012012745
0.00011393432
0.00010662293
9.7769595e-05
8.6938593e-05
7.3728531e-05
5.7833727e-05
3.9246933e-05
1.6782859e-05
0.0001356128
0.00013366718
0.00012998792
0.00012531176
0.00011993569
0.00011377331
0.00010649666
9.7678735e-05
8.6880475e-05
7.3697421e-05
5.7821488e-05
3.924443e-05
1.6781878e-05
0.0001353814
0.0001334381
0.00012976674
0.0001251066
0.00011975485
0.00011362315
0.00010638046
9.7596496e-05
8.6829012e-05
7.3670771e-05
5.7811642e-05
3.9242751e-05
1.6780963e-05
0.00013515925
0.00013321853
0.0001295556
0.00012491204
0.00011958492
0.00011348366
0.00010627406
9.7522533e-05
8.6783865e-05
7.3648306e-05
5.7804015e-05
3.9241826e-05
1.6780114e-05
0.00013494671
0.00013300879
0.00012935472
0.00012472817
0.00011942584
0.00011335464
0.00010617713
9.7456487e-05
8.6744691e-05
7.3629753e-05
5.7798435e-05
3.9241586e-05
1.6779328e-05
0.00013474405
0.00013280913
0.00012916428
0.00012455504
0.00011927748
0.00011323585
0.00010608933
9.7397987e-05
8.6711145e-05
7.3614842e-05
5.7794734e-05
3.9241965e-05
1.6778604e-05
0.00013455148
0.00013261972
0.00012898435
0.00012439261
0.00011913969
0.00011312699
0.00010601032
9.7346654e-05
8.6682885e-05
7.360331e-05
5.7792754e-05
3.9242901e-05
1.677794e-05
0.00013436911
0.00013244065
0.00012881497
0.0001242408
0.00011901226
0.00011302777
0.00010593971
9.7302105e-05
8.6659569e-05
7.3594898e-05
5.7792339e-05
3.9244333e-05
1.6777335e-05
0.00013419703
0.00013227197
0.00012865609
0.00012409947
0.00011889494
0.00011293784
0.00010587712
9.7263953e-05
8.6640861e-05
7.3589358e-05
5.779334e-05
3.9246207e-05
1.6776786e-05
0.00013403522
0.00013211363
0.00012850763
0.00012396844
0.00011878747
0.00011285684
0.00010582216
9.7231813e-05
8.662643e-05
7.3586445e-05
5.7795616e-05
3.9248468e-05
1.677629e-05
0.00013388364
0.00013196558
0.00012836946
0.0001238475
0.00011868952
0.00011278441
0.00010577442
9.7205303e-05
8.6615954e-05
7.3585927e-05
5.7799032e-05
3.9251066e-05
1.6775846e-05
0.00013374219
0.00013182768
0.0001282414
0.00012373639
0.00011860077
0.00011272015
0.00010573349
9.7184043e-05
8.6609119e-05
7.3587578e-05
5.7803459e-05
3.9253955e-05
1.6775451e-05
0.00013361073
0.00013169977
0.00012812323
0.00012363483
0.00011852087
0.00011266368
0.00010569898
9.7167662e-05
8.660562e-05
7.3591184e-05
5.7808777e-05
3.925709e-05
1.6775103e-05
0.00013348906
0.00013158165
0.00012801471
0.0001235425
0.00011844945
0.00011261458
0.00010567048
9.7155795e-05
8.6605161e-05
7.3596539e-05
5.7814869e-05
3.9260431e-05
1.6774798e-05
0.00013337697
0.00013147307
0.00012791555
0.00012345909
0.00011838613
0.00011257245
0.00010564759
9.7148085e-05
8.660746e-05
7.3603447e-05
5.782163e-05
3.9263939e-05
1.6774536e-05
0.0001332742
0.00013137377
0.00012782546
0.00012338422
0.00011833052
0.00011253688
0.00010562992
9.7144188e-05
8.6612243e-05
7.3611723e-05
5.7828957e-05
3.9267579e-05
1.6774313e-05
0.00013318047
0.00013128345
0.0001277441
0.00012331755
0.00011828221
0.00011250746
0.00010561707
9.7143768e-05
8.6619252e-05
7.3621191e-05
5.7836755e-05
3.9271317e-05
1.6774127e-05
0.00013309549
0.00013120179
0.00012767113
0.00012325869
0.00011824082
0.00011248379
0.00010560869
9.7146501e-05
8.6628236e-05
7.3631686e-05
5.7844937e-05
3.9275125e-05
1.6773976e-05
0.00013301892
0.00013112846
0.00012760619
0.00012320725
0.00011820592
0.00011246547
0.00010560438
9.7152078e-05
8.6638959e-05
7.3643051e-05
5.785342e-05
3.9278974e-05
1.6773856e-05
0.00013295043
0.00013106311
0.0001275489
0.00012316283
0.00011817712
0.00011245211
0.00010560381
9.71602e-05
8.6651197e-05
7.365514e-05
5.7862128e-05
3.9282838e-05
1.6773767e-05
0.00013288965
0.00013100538
0.0001274989
0.00012312505
0.00011815402
0.00011244331
0.00010560662
9.7170583e-05
8.6664739e-05
7.3667817e-05
5.7870989e-05
3.9286694e-05
1.6773705e-05
0.00013283623
0.00013095488
0.00012745578
0.00012309351
0.00011813622
0.00011243871
0.00010561248
9.7182957e-05
8.6679386e-05
7.3680954e-05
5.7879941e-05
3.9290521e-05
1.6773668e-05
0.00013278979
0.00013091124
0.00012741917
0.0001230678
0.00011812333
0.00011243794
0.00010562108
9.7197067e-05
8.6694953e-05
7.3694436e-05
5.7888924e-05
3.92943e-05
1.6773654e-05
0.00013274995
0.00013087409
0.00012738867
0.00012304754
0.00011811497
0.00011244065
0.00010563211
9.7212673e-05
8.6711267e-05
7.3708156e-05
5.7897887e-05
3.9298016e-05
1.6773662e-05
0.00013271635
0.00013084304
0.0001273639
0.00012303234
0.00011811077
0.00011244651
0.00010564529
9.7229548e-05
8.6728168e-05
7.3722015e-05
5.7906781e-05
3.9301654e-05
1.6773688e-05
0.0001326886
0.0001308177
0.00012734447
0.00012302183
0.00011811037
0.0001124552
0.00010566034
9.7247482e-05
8.6745509e-05
7.3735925e-05
5.7915565e-05
3.9305203e-05
1.6773732e-05
0.00013266631
0.0001307977
0.00012733
0.00012301563
0.00011811343
0.0001124664
0.00010567701
9.7266276e-05
8.6763152e-05
7.3749804e-05
5.7924201e-05
3.930865e-05
1.6773791e-05
0.00013264913
0.00013078267
0.00012732013
0.00012301339
0.00011811961
0.00011247981
0.00010569505
9.7285746e-05
8.678097e-05
7.3763577e-05
5.7932656e-05
3.9311989e-05
1.6773864e-05
0.00013263667
0.00013077223
0.00012731447
0.00012301474
0.00011812858
0.00011249516
0.00010571424
9.7305715e-05
8.6798847e-05
7.3777178e-05
5.7940898e-05
3.9315208e-05
1.6773949e-05
0.00013262857
0.00013076601
0.00012731268
0.00012301935
0.00011814004
0.00011251218
0.00010573435
9.7326024e-05
8.6816672e-05
7.3790542e-05
5.79489e-05
3.9318302e-05
1.6774045e-05
0.00013262448
0.00013076366
0.00012731441
0.00012302688
0.00011815367
0.0001125306
0.00010575518
9.7346519e-05
8.6834345e-05
7.3803611e-05
5.7956631e-05
3.9321247e-05
1.6774149e-05
0.00013262404
0.00013076484
0.00012731931
0.00012303703
0.00011816921
0.0001125502
0.00010577654
9.7367062e-05
8.6851776e-05
7.3816335e-05
5.7964068e-05
3.9324023e-05
1.677426e-05
0.00013262692
0.0001307692
0.00012732706
0.00012304948
0.00011818637
0.00011257073
0.00010579825
9.738753e-05
8.6868882e-05
7.3828664e-05
5.7971172e-05
3.9326642e-05
1.6774377e-05
0.0001326328
0.00013077645
0.00012733737
0.00012306395
0.00011820492
0.00011259202
0.00010582017
9.740781e-05
8.6885596e-05
7.3840562e-05
5.7977932e-05
3.9329106e-05
1.6774498e-05
0.00013264138
0.00013078626
0.00012734993
0.00012308018
0.00011822462
0.00011261385
0.00010584214
9.7427807e-05
8.6901854e-05
7.385198e-05
5.7984355e-05
3.9331419e-05
1.6774622e-05
0.00013265237
0.00013079837
0.00012736448
0.00012309793
0.00011824526
0.00011263608
0.00010586405
9.7447439e-05
8.6917609e-05
7.3862908e-05
5.7990441e-05
3.9333582e-05
1.6774748e-05
0.00013266549
0.0001308125
0.00012738077
0.00012311696
0.00011826665
0.00011265853
0.00010588578
9.7466629e-05
8.6932803e-05
7.3873351e-05
5.7996192e-05
3.9335603e-05
1.6774876e-05
0.00013268048
0.00013082839
0.00012739854
0.00012313705
0.00011828861
0.00011268109
0.00010590723
9.7485307e-05
8.6947426e-05
7.38833e-05
5.8001612e-05
3.9337488e-05
1.6775004e-05
0.0001326971
0.0001308458
0.00012741757
0.000123158
0.00011831097
0.0001127036
0.00010592831
9.7503417e-05
8.6961463e-05
7.3892752e-05
5.8006709e-05
3.9339243e-05
1.6775133e-05
0.00013271509
0.00013086448
0.00012743764
0.00012317962
0.00011833355
0.00011272595
0.00010594892
9.7520924e-05
8.6974892e-05
7.3901704e-05
5.8011488e-05
3.9340876e-05
1.6775261e-05
0.00013273421
0.0001308842
0.00012745852
0.00012320169
0.0001183562
0.00011274799
0.00010596899
9.7537785e-05
8.6987693e-05
7.3910152e-05
5.8015953e-05
3.9342388e-05
1.6775389e-05
0.00013275424
0.00013090474
0.00012747999
0.00012322404
0.00011837875
0.00011276963
0.00010598845
9.7553953e-05
8.6999843e-05
7.391809e-05
5.8020106e-05
3.9343783e-05
1.6775516e-05
0.00013277494
0.00013092588
0.00012750186
0.00012324648
0.00011840107
0.00011279075
0.00010600722
9.7569382e-05
8.7011318e-05
7.3925508e-05
5.8023944e-05
3.934506e-05
1.677564e-05
0.00013279612
0.0001309474
0.00012752392
0.00012326884
0.00011842301
0.00011281127
0.00010602524
9.7584033e-05
8.7022097e-05
7.3932399e-05
5.8027465e-05
3.9346217e-05
1.6775762e-05
0.00013281757
0.00013096913
0.00012754601
0.00012329098
0.00011844448
0.0001128311
0.00010604245
9.7597874e-05
8.7032165e-05
7.3938757e-05
5.8030667e-05
3.9347251e-05
1.677588e-05
0.00013283914
0.0001309909
0.00012756799
0.00012331279
0.00011846538
0.00011285017
0.00010605882
9.7610887e-05
8.7041519e-05
7.3944585e-05
5.8033555e-05
3.9348164e-05
1.6775993e-05
0.0001328607
0.0001310126
0.00012758975
0.00012333417
0.00011848565
0.00011286846
0.00010607434
9.7623071e-05
8.7050166e-05
7.3949894e-05
5.8036134e-05
3.9348956e-05
1.6776102e-05
0.00013288215
0.00013103412
0.00012761121
0.00012335506
0.00011850524
0.00011288594
0.00010608899
9.7634445e-05
8.7058133e-05
7.3954707e-05
5.8038422e-05
3.9349634e-05
1.6776205e-05
0.00013290343
0.00013105541
0.0001276323
0.00012337544
0.00011852415
0.00011290262
0.00010610282
9.7645045e-05
8.7065457e-05
7.395906e-05
5.8040444e-05
3.9350208e-05
1.6776304e-05
0.00013292447
0.00013107642
0.000127653
0.00012339527
0.00011854238
0.00011291853
0.00010611586
9.7654919e-05
8.7072188e-05
7.3962994e-05
5.8042228e-05
3.9350695e-05
1.6776397e-05
0.00013294523
0.0001310971
0.00012767328
0.00012341454
0.00011855993
0.00011293369
0.00010612815
9.7664122e-05
8.707838e-05
7.3966556e-05
5.8043809e-05
3.9351111e-05
1.6776485e-05
0.00013296565
0.0001311174
0.00012769309
0.00012343325
0.00011857682
0.00011294814
0.00010613974
9.7672703e-05
8.7084083e-05
7.3969789e-05
5.8045216e-05
3.9351473e-05
1.677657e-05
0.00013298567
0.00013113727
0.0001277124
0.00012345135
0.00011859303
0.00011296187
0.00010615065
9.7680694e-05
8.7089332e-05
7.3972725e-05
5.8046475e-05
3.9351794e-05
1.6776651e-05
0.00013300519
0.00013115661
0.00012773112
0.0001234688
0.00011860852
0.00011297488
0.00010616088
9.768811e-05
8.7094146e-05
7.397538e-05
5.8047596e-05
3.9352082e-05
1.677673e-05
0.0001330241
0.00013117533