/*--------------------------------*- C++ -*----------------------------------*\
| =========                 |                                                 |
| \\      /  F ield         | OpenFOAM: The Open Source CFD Toolbox           |
|  \\    /   O peration     | Version:  2506                                  |
|   \\  /    A nd           | Website:  www.openfoam.com                      |
|    \\/     M anipulation  |                                                 |
\*---------------------------------------------------------------------------*/
FoamFile
{
    version     2.0;
    format      ascii;
    arch        "LSB;label=32;scalar=64";
    class       surfaceScalarField;
    location    "30000/water";
    object      phi;
}
// * * * * * * * * * * * * * * * * * * * * * * * * * * * * * * * * * * * * * //

dimensions      [1 0 -1 0 0 0 0];

oriented        oriented;

internalField   nonuniform List<scalar> 
4987
(
-6.9167736e-06
0.00085760419
-2.7656569e-05
0.0024926737
-6.1431121e-05
0.0040117068
-0.0001075903
0.0054211695
-0.00016565319
0.0067272392
-0.00023525167
0.0079357375
-0.00031606519
0.0090521266
-0.00040763483
0.010081416
-0.00050867084
0.011027654
-0.00061447105
0.011892066
-0.00070641237
0.012665127
-0.00069017742
0.01327532
0.013255156
-6.4252097e-06
0.00086402939
-2.4701717e-05
0.0025109502
-5.3973207e-05
0.0040409782
-9.3433184e-05
0.0054606295
-0.00014227852
0.0067760845
-0.00019970621
0.0079931652
-0.00026484255
0.0091172629
-0.00033648012
0.010153054
-0.00041221923
0.011103393
-0.00048568429
0.011965531
-0.00053558126
0.012715024
-0.00047144624
0.013211185
0.01278371
-6.163969e-06
0.00087019336
-2.380905e-05
0.0025285953
-5.2164898e-05
0.0040693341
-9.0528704e-05
0.0054989933
-0.00013822172
0.0068237776
-0.00019455674
0.0080495002
-0.00025870612
0.0091814123
-0.00032929751
0.010223645
-0.00040329175
0.011177387
-0.00047276141
0.012035
-0.00051220841
0.012754471
-0.00042242592
0.013121403
0.012361284
-6.1054146e-06
0.00087629878
-2.3924376e-05
0.0025464143
-5.2620538e-05
0.0040980303
-9.1395558e-05
0.0055377683
-0.00013947504
0.006871857
-0.00019604176
0.0081060669
-0.00026004543
0.009245416
-0.00032969289
0.010293293
-0.00040116834
0.011248863
-0.00046497904
0.012098811
-0.00049117541
0.012780667
-0.00037835998
0.013008587
0.011982924
-5.9919785e-06
0.00088229076
-2.3432324e-05
0.0025638546
-5.1502782e-05
0.0041261007
-8.9417765e-05
0.0055756833
-0.0001363976
0.0069188369
-0.00019157934
0.0081612487
-0.00025377584
0.0093076125
-0.0003208868
0.010360404
-0.00038849227
0.011316468
-0.0004456482
0.012155967
-0.00045837524
0.012793394
-0.00033102689
0.012881239
0.011651897
-5.8197985e-06
0.00088811056
-2.2720415e-05
0.0025807553
-4.9911332e-05
0.0041532916
-8.6629801e-05
0.0056124017
-0.00013209822
0.0069643053
-0.00018540983
0.0082145603
-0.00024524284
0.0093674455
-0.00030921061
0.010424371
-0.00037232044
0.011379578
-0.00042207813
0.012205725
-0.00042081904
0.012792135
-0.00028517408
0.012745594
0.011366723
-5.6148952e-06
0.00089372545
-2.1923414e-05
0.0025970638
-4.8158186e-05
0.0041795264
-8.35701e-05
0.0056478136
-0.00012737381
0.007008109
-0.00017860877
0.0082657952
-0.00023581604
0.0094246528
-0.00029633568
0.010484891
-0.00035458539
0.011437828
-0.00039630862
0.012247448
-0.00038067559
0.012776502
-0.00024201049
0.012606929
0.011124713
-5.4046947e-06
0.00089913014
-2.1106786e-05
0.0026127659
-4.6361915e-05
0.0042047815
-8.0433154e-05
0.0056818849
-0.00012252438
0.0070502002
-0.00017161842
0.0083148893
-0.0002261212
0.0094791555
-0.00028309872
0.010541869
-0.00033629459
0.011491024
-0.00036936757
0.012280521
-0.00033930313
0.012746438
-0.00020218079
0.012469807
0.010922532
-5.2040372e-06
0.00090433418
-2.0322449e-05
0.0026278843
-4.4632486e-05
0.0042290916
-7.7407183e-05
0.0057146596
-0.000117836
0.007090629
-0.00016484161
0.0083618949
-0.00021669175
0.0095310057
-0.00027015443
0.010595331
-0.00031814583
0.011539015
-0.00034189245
0.012304267
-0.00029797663
0.012702522
-0.0001662914
0.012338121
0.010756241
-5.0193754e-06
0.00090935356
-1.9599432e-05
0.0026424643
-4.3036007e-05
0.0042525281
-7.4608171e-05
0.0057462317
-0.00011348606
0.0071295069
-0.00015852683
0.0084069356
-0.0002078498
0.0095803287
-0.00025787593
0.010645357
-0.00030047882
0.011581618
-0.00031421626
0.012318005
-0.00025799659
0.012646302
-0.00013488814
0.012215013
0.010621352
-4.8544122e-06
0.00091420797
-1.8953518e-05
0.0026565634
-4.1607992e-05
0.0042751826
-7.2098328e-05
0.0057767221
-0.00010956978
0.0071669784
-0.00015280648
0.0084501723
-0.00019976083
0.009627283
-0.00024643025
0.010692027
-0.00028338283
0.01161857
-0.00028657101
0.012321193
-0.00022065197
0.012580383
-0.00010831398
0.012102675
0.010513039
-4.7104907e-06
0.00091891846
-1.838964e-05
0.0026702426
-4.0359025e-05
0.004297152
-6.9895773e-05
0.0058062588
-0.00010611414
0.0072031967
-0.00014771517
0.0084917734
-0.00019245611
0.0096720239
-0.00023580475
0.010735375
-0.00026674607
0.011649512
-0.00025920371
0.012313651
-0.00018698909
0.012508168
-8.6549235e-05
0.012002235
0.010426489
-4.5864893e-06
0.00092350495
-1.7903118e-05
0.0026835592
-3.9278552e-05
0.0043185274
-6.7981782e-05
0.0058349621
-0.00010308929
0.0072383042
-0.0001432058
0.0085318899
-0.00018585427
0.0097146724
-0.00022583645
0.010775358
-0.0002503233
0.011673999
-0.00023244679
0.012295774
-0.00015760689
0.012433329
-6.9195206e-05
0.011913823
0.010357294
-4.47971e-06
0.00092798466
-1.7483378e-05
0.0026965629
-3.8343221e-05
0.0043393873
-6.6315361e-05
0.0058629342
-0.00010043089
0.0072724198
-0.00013918123
0.0085706402
-0.00017980338
0.0097552946
-0.00021627053
0.010811825
-0.0002338457
0.011691574
-0.00020673153
0.01226866
-0.0001326094
0.012359206
-5.5603112e-05
0.011836817
0.010301691
-4.3869483e-06
0.00093237161
-1.7117943e-05
0.0027092939
-3.7525518e-05
0.0043597948
-6.4848148e-05
0.0058902568
-9.8062773e-05
0.0073056344
-0.00013552609
0.0086081035
-0.00017412332
0.0097938918
-0.00020682319
0.010844525
-0.00021713162
0.011701882
-0.00018252415
0.012234053
-0.0001117049
0.012288387
-4.5044655e-05
0.011770157
0.010256646
-4.3051909e-06
0.0009366768
-1.6795059e-05
0.0027217838
-3.6799451e-05
0.0043797992
-6.3534222e-05
0.0059169916
-9.5911854e-05
0.007338012
-0.0001321276
0.0086443193
-0.00016863371
0.0098303979
-0.0001972305
0.010873121
-0.00020015793
0.01170481
-0.0001602209
0.012194115
-9.4372483e-05
0.012222539
-3.6838818e-05
0.011712623
0.010219807
-4.2319149e-06
0.00094090871
-1.6504851e-05
0.0027340567
-3.6143084e-05
0.0043994375
-6.2334437e-05
0.005943183
-9.3914665e-05
0.0073695922
-0.00012888455
0.0086792892
-0.00016316714
0.0098646805
-0.00018728235
0.010897237
-0.00018307195
0.011700599
-0.00014006424
0.012151108
-8.0017929e-05
0.012162492
-3.041251e-05
0.011663018
0.010189395
-4.1651417e-06
0.00094507386
-1.6239539e-05
0.0027461311
-3.5538992e-05
0.0044187369
-6.1217189e-05
0.0059688612
-9.2018424e-05
0.0074003935
-0.00012570858
0.0087129793
-0.00015757395
0.0098965459
-0.00017684648
0.010916509
-0.00016614712
0.0116899
-0.0001221172
0.012107078
-6.807824e-05
0.012108453
-2.5313025e-05
0.011620253
0.010164082
-4.1033745e-06
0.00094917723
-1.5993201e-05
0.0027580209
-3.4973725e-05
0.0044377174
-6.0157433e-05
0.0059940449
-9.0179432e-05
0.0074304155
-0.00012252186
0.0087453217
-0.00015172469
0.0099257487
-0.0001658846
0.010930669
-0.00014970629
0.011673722
-0.00010629217
0.012063664
-5.8071521e-05
0.012060233
-2.119692e-05
0.011583378
0.010142885
-4.045497e-06
0.00095322273
-1.5761374e-05
0.0027697368
-3.4436919e-05
0.004456393
-5.9135102e-05
0.0060187431
-8.8360527e-05
0.0074596409
-0.00011925379
0.008776215
-0.00014551369
0.0099520086
-0.00015445694
0.010939612
-0.00013404494
0.01165331
-9.2406391e-05
0.012022025
-4.9608157e-05
0.012017435
-1.7811014e-05
0.011551581
0.010125074
-3.9906706e-06
0.0009572134
-1.5540649e-05
0.0027812868
-3.3920384e-05
0.0044747727
-5.8133472e-05
0.0060429561
-8.6528477e-05
0.0074880359
-0.00011583835
0.0088055249
-0.00013886507
0.0099750353
-0.00014270997
0.010943457
-0.00011937991
0.01162998
-8.0236231e-05
0.011982881
-4.2382126e-05
0.01197958
-1.4972587e-05
0.011524171
0.010110101
-3.938246e-06
0.00096115164
-1.5328322e-05
0.0027926768
-3.3417324e-05
0.0044928617
-5.7137748e-05
0.0060666766
-8.4651726e-05
0.0075155499
-0.00011221299
0.0088330861
-0.00013174064
0.009994563
-0.00013084741
0.010942564
-0.00010583199
0.011604964
-6.9555657e-05
0.011946605
-3.6155819e-05
0.011946181
-1.255151e-05
0.011500567
0.01009755
-3.8876948e-06
0.00096503934
-1.512212e-05
0.0028039113
-3.2921708e-05
0.0045106613
-5.613392e-05
0.0060898888
-8.2698664e-05
0.0075421146
-0.00010831969
0.0088587072
-0.00012414735
0.010010391
-0.00011909198
0.010937509
-9.3435699e-05
0.011579308
-6.0156889e-05
0.011913326
-3.0745123e-05
0.011916769
-1.0455501e-05
0.011480277
0.010087094
-3.8385569e-06
0.00096887789
-1.4919993e-05
0.0028149927
-3.2427784e-05
0.0045281691
-5.510785e-05
0.0061125688
-8.0636493e-05
0.0075676433
-0.00010410814
0.0088821788
-0.00011614034
0.010022423
-0.00010764918
0.010929017
-8.2162717e-05
0.011553821
-5.1858104e-05
0.011883022
-2.6007009e-05
0.011890918
-8.6187518e-06
0.011462889
0.010078476
-3.7904019e-06
0.0009726683
-1.471995e-05
0.0028259223
-3.1929704e-05
0.0045453789
-5.4044564e-05
0.0061346837
-7.8430837e-05
0.0075920295
-9.9540734e-05
0.0089032887
-0.00010781835
0.0100307
-9.6682481e-05
0.010917882
-7.1946845e-05
0.011529086
-4.4503959e-05
0.011855579
-2.1829744e-05
0.011868244
-6.9937046e-06
0.011448053
0.010071482
-3.7428e-06
0.0009764111
-1.4519945e-05
0.0028366994
-3.1421227e-05
0.0045622801
-5.2927707e-05
0.0061561902
-7.6046256e-05
0.0076151481
-9.4598625e-05
0.0089218411
-9.9310963e-05
0.010035413
-8.6303356e-05
0.010904874
-6.2703776e-05
0.011505486
-3.7963129e-05
0.011830838
-1.8125324e-05
0.011848406
-5.5452875e-06
0.011435473
0.010065937
-3.6952977e-06
0.00098010639
-1.4317763e-05
0.0028473219
-3.0895462e-05
0.0045788578
-5.1739149e-05
0.0061770339
-7.3447799e-05
0.0076368567
-8.9287316e-05
0.0089376806
-9.0760481e-05
0.010036886
-7.6573762e-05
0.010890687
-5.434402e-05
0.011483256
-3.2125049e-05
0.011808619
-1.4823681e-05
0.011831104
-4.2469958e-06
0.011424896
0.01006169
-3.6473964e-06
0.00098375379
-1.4110936e-05
0.0028577854
-3.0344641e-05
0.0045950915
-5.0458784e-05
0.006197148
-7.0603634e-05
0.0076570016
-8.3639733e-05
0.0089507167
-8.2303598e-05
0.01003555
-6.7515801e-05
0.010875899
-4.6780163e-05
0.011462521
-2.6896728e-05
0.011788736
-1.1868355e-05
0.011816076
-3.0782561e-06
0.011416106
0.010058611
-3.5985288e-06
0.00098735232
-1.3896642e-05
0.0028680835
-2.9759895e-05
0.0046109548
-4.9064619e-05
0.0062164527
-6.7488584e-05
0.0076754255
-7.7715073e-05
0.0089609432
-7.4057338e-05
0.010031892
-5.9123309e-05
0.010860965
-3.9930395e-05
0.011443328
-2.2199854e-05
0.011771005
-9.2132824e-06
0.011803089
-2.0226611e-06
0.011408916
0.010056589
-3.5480256e-06
0.00099090034
-1.3671564e-05
0.0028782071
-2.9130949e-05
0.0046264142
-4.753311e-05
0.0062348549
-6.4087909e-05
0.0076919803
-7.1592544e-05
0.0089684478
-6.6111089e-05
0.010026411
-5.137138e-05
0.010846226
-3.3718971e-05
0.011425676
-1.7967095e-05
0.011755253
-6.8191907e-06
0.011791942
-1.0665722e-06
0.011403163
0.010055522
-3.4950998e-06
0.00099439544
-1.343182e-05
0.0028881438
-2.8446031e-05
0.0046414284
-4.5840365e-05
0.0062522492
-6.0401301e-05
0.0077065413
-6.5362288e-05
0.0089734088
-5.8525782e-05
0.010019574
-4.422438e-05
0.010831924
-2.8076924e-05
0.011409528
-1.414003e-05
0.011741316
-4.6491653e-06
0.011782451
-1.6922615e-07
0.011398683
0.010055353
-3.4388796e-06
0.00099783432
-1.3173132e-05
0.002897878
-2.7692439e-05
0.0046559477
-4.3964995e-05
0.0062685218
-5.6447128e-05
0.0077190234
-5.9117559e-05
0.0089760792
-5.1340493e-05
0.010011797
-3.764556e-05
0.010818229
-2.2947465e-05
0.01139483
-1.0674763e-05
0.011729044
-2.6810946e-06
0.011774457
6.654491e-07
0.011395337
0.010056018
-3.3783149e-06
0.0010012126
-1.2890438e-05
0.0029073902
-2.6855996e-05
0.0046699133
-4.1889312e-05
0.0062835551
-5.2260839e-05
0.0077293949
-5.2943431e-05
0.0089767618
-4.4574255e-05
0.010003428
-3.1595996e-05
0.010805251
-1.827961e-05
0.011381514
-7.5311716e-06
0.011718295
-8.8302191e-07
0.011767809
1.4049918e-06
0.011393049
0.010057423
-3.3120984e-06
0.0010045247
-1.2577617e-05
0.0029166557
-2.5921007e-05
0.0046832566
-3.9601335e-05
0.0062972354
-4.7891274e-05
0.0077376849
-4.6909587e-05
0.0089757801
-3.8229287e-05
0.0099947476
-2.6033926e-05
0.010793056
-1.4024268e-05
0.011369504
-4.6695345e-06
0.011708941
7.7466687e-07
0.011762365
2.0667352e-06
0.011391757
0.01005949
-3.2386928e-06
0.0010077634
-1.2227714e-05
0.0029256447
-2.4871688e-05
0.0046959006
-3.709872e-05
0.0063094625
-4.3397667e-05
0.0077439838
-4.1070816e-05
0.0089734533
-3.2299145e-05
0.0099859759
-2.0920729e-05
0.010781677
-1.0139947e-05
0.011358723
-2.059127e-06
0.01170086
2.2780019e-06
0.011758028
2.6638798e-06
0.011391371
0.010062154
-3.1562772e-06
0.0010109197
-1.1832823e-05
0.0029343212
-2.3693039e-05
0.0047077608
-3.4390256e-05
0.0063201597
-3.8842819e-05
0.0077484364
-3.5466333e-05
0.0089700768
-2.6770491e-05
0.0099772801
-1.6218815e-05
0.010771126
-6.585346e-06
0.01134909
3.4751602e-07
0.011693927
3.6322512e-06
0.011754743
3.202334e-06
0.011391801
0.010065356
-3.0627119e-06
0.0010139824
-1.1384179e-05
0.0029426427
-2.2372404e-05
0.0047187491
-3.1496504e-05
0.0063292838
-3.4287361e-05
0.0077512272
-3.0121871e-05
0.0089659113
-2.1625947e-05
0.0099687841
-1.1894071e-05
0.010761394
-3.3303384e-06
0.011340526
2.5510772e-06
0.011688046
4.8616599e-06
0.011752432
3.6898353e-06
0.011392972
0.010069046
-2.955534e-06
0.001016938
-1.0872489e-05
0.0029505597
-2.0901463e-05
0.004728778
-2.844895e-05
0.0063368313
-2.9785803e-05
0.0077525641
-2.5052614e-05
0.0089611781
-1.6845488e-05
0.009960577
-7.9112424e-06
0.01075246
-3.2675226e-07
0.011332941
4.5433824e-06
0.011683175
5.9753471e-06
0.011751
4.1313165e-06
0.011394816
0.010073178
-2.8319478e-06
0.0010197699
-1.0288359e-05
0.0029580161
-1.9277898e-05
0.0047377676
-2.5286906e-05
0.0063428403
-2.5383505e-05
0.0077526607
-2.0265012e-05
0.0089560596
-1.2407977e-05
0.00995272
-4.2418954e-06
0.010744293
2.4380126e-06
0.011326262
6.3569944e-06
0.011679256
6.9857666e-06
0.011750371
4.5313221e-06
0.011397271
0.010077709
-2.6889072e-06
0.0010224588
-9.6232124e-06
0.0029649504
-1.7507132e-05
0.0047456515
-2.2054217e-05
0.0063473874
-2.111648e-05
0.0077517229
-1.5759132e-05
0.0089507023
-8.289685e-06
0.0099452505
-8.467202e-07
0.01073685
4.9536701e-06
0.011320461
8.0064815e-06
0.011676204
7.903073e-06
0.011750475
4.89399e-06
0.01140028
0.010082603
-2.5232505e-06
0.0010249821
-8.8703653e-06
0.0029712975
-1.5602914e-05
0.004752384
-1.8795227e-05
0.0063505797
-1.7011665e-05
0.0077499394
-1.1530734e-05
0.0089452214
-4.4700321e-06
0.0099381898
2.2909479e-06
0.01073009
7.2494951e-06
0.011315503
9.5068714e-06
0.011673946
8.7354297e-06
0.011751246
5.2223284e-06
0.011403793
0.010087825
-2.331975e-06
0.001027314
-8.0264259e-06
0.0029769919
-1.3587011e-05
0.0047579446
-1.5551704e-05
0.0063525444
-1.30878e-05
0.0077474755
-7.5700562e-06
0.0089397036
-9.1687124e-07
0.0099315366
5.1653307e-06
0.010724007
9.344848e-06
0.011311323
1.0871949e-05
0.011672419
9.4906035e-06
0.011752628
5.5193419e-06
0.011407764
0.010093344
-2.1126547e-06
0.0010294267
-7.0926618e-06
0.002981972
-1.1487682e-05
0.0047623396
-1.2360766e-05
0.0063534175
-9.3574527e-06
0.0077444722
-3.8681017e-06
0.0089342143
2.381186e-06
0.0099252874
7.7971169e-06
0.010718591
1.1256315e-05
0.011307864
1.2113244e-05
0.011671562
1.0174992e-05
0.011754566
5.7874254e-06
0.011412152
0.010099132
-1.8640275e-06
0.0010312907
-6.0761525e-06
0.0029861841
-9.3374798e-06
0.004765601
-9.2535955e-06
0.0063533336
-5.82559e-06
0.0077410441
-4.0088079e-07
0.0089287896
5.4171436e-06
0.0099194693
1.0206076e-05
0.010713802
1.2999125e-05
0.011305071
1.3241027e-05
0.01167132
1.0794273e-05
0.011757013
6.0287208e-06
0.011416917
0.010105161
-1.5866525e-06
0.0010328774
-4.9902396e-06
0.0029895877
-7.1706319e-06
0.0047677814
-6.2552747e-06
0.0063524182
-2.4927392e-06
0.0077372816
2.8316845e-06
0.0089234651
8.2067974e-06
0.0099140942
1.2408947e-05
0.0107096
1.4586643e-05
0.011302893
1.4264269e-05
0.011671643
1.1353365e-05
0.011759924
6.2450694e-06
0.011422026
0.010111406
-1.283518e-06
0.0010341609
-3.8541842e-06
0.0029921583
-5.0207811e-06
0.004768948
-3.3849443e-06
0.0063507824
6.4622766e-07
0.0077332504
5.8153859e-06
0.008918296
1.076594e-05
0.0099091437
1.442085e-05
0.010705945
1.6030837e-05
0.011301283
1.5191011e-05
0.011672482
1.1856708e-05
0.011763258
6.4381657e-06
0.011427444
0.010117844
-9.6035051e-07
0.0010351212
-2.6918224e-06
0.0029938898
-2.9183378e-06
0.0047691745
-6.5059866e-07
0.0063485146
3.5782685e-06
0.0077290216
8.5629403e-06
0.0089133113
1.3108592e-05
0.009904598
1.6254548e-05
0.010702799
1.7341544e-05
0.011300196
1.6027699e-05
0.011673796
1.230773e-05
0.011766978
6.6092283e-06
0.011433143
0.010124453
-6.2535257e-07
0.0010357466
-1.5291157e-06
0.0029947936
-8.8735807e-07
0.0047685327
1.9291108e-06
0.0063456982
6.2873362e-06
0.0077246633
1.1084089e-05
0.0089085145
1.5247518e-05
0.0099004346
1.7921738e-05
0.010700125
1.8527767e-05
0.01129959
1.6780265e-05
0.011675544
1.2709644e-05
0.011771048
6.7594544e-06
0.011439093
0.010131213
-2.882179e-07
0.0010360348
-3.906738e-07
0.002994896
1.0457201e-06
0.0047670963
4.3266873e-06
0.0063424172
8.7771394e-06
0.0077202129
1.3387477e-05
0.0089039042
1.7193153e-05
0.0098966289
1.943186e-05
0.010697887
1.9596645e-05
0.011299425
1.7453275e-05
0.011677687
1.3064797e-05
0.011775437
6.8896356e-06
0.011445268
0.010138102
4.0782167e-08
0.001035994
6.96662e-07
0.0029942401
2.8486052e-06
0.0047649444
6.5296215e-06
0.0063387362
1.1049536e-05
0.007715693
1.548032e-05
0.0088994734
1.8954085e-05
0.0098931551
2.0792571e-05
0.010696048
2.0553862e-05
0.011299664
1.8050256e-05
0.011680191
1.3374901e-05
0.011780112
7.0002842e-06
0.011451643
0.010145102
3.5067516e-07
0.0010356434
1.7048709e-06
0.002992886
4.4970972e-06
0.0047621522
8.5307986e-06
0.0063347025
1.310574e-05
0.007711118
1.7368036e-05
0.0088952111
2.0536764e-05
0.0098899864
2.2009507e-05
0.010694575
2.1403432e-05
0.01130027
1.8573511e-05
0.011683021
1.3640906e-05
0.011785045
7.0915636e-06
0.011458192
0.010152194
6.3199446e-07
0.0010350114
2.6138007e-06
0.0029909041
5.9772046e-06
0.0047587887
1.0324524e-05
0.0063303552
1.4946301e-05
0.0077064963
1.9054285e-05
0.0088911031
2.1945542e-05
0.0098870952
2.3086305e-05
0.010693435
2.2147695e-05
0.011301209
1.9024086e-05
0.011686144
1.3862939e-05
0.011790206
7.1632476e-06
0.011464892
0.010159357
8.7876395e-07
0.0010341326
3.4113854e-06
0.0029883715
7.2795555e-06
0.0047549206
1.1906919e-05
0.0063257278
1.6571511e-05
0.0077018317
2.0541364e-05
0.0088871333
2.3183008e-05
0.0098844535
2.4024857e-05
0.010692593
2.27875e-05
0.011302446
1.9401899e-05
0.01168953
1.40404e-05
0.011795568
7.2147706e-06
0.011471717
0.010166572
1.0879028e-06
0.0010330447
4.0915567e-06
0.0029853679
8.3995143e-06
0.0047506126
1.3276261e-05
0.0063208511
1.7981841e-05
0.0076971261
2.1830624e-05
0.0088832845
2.4250329e-05
0.0098820338
2.4825573e-05
0.010692017
2.3322379e-05
0.011303949
1.9705843e-05
0.011693146
1.417201e-05
0.011801101
7.2452444e-06
0.011478644
0.010173817
1.2588969e-06
0.0010317858
4.6536646e-06
0.0029819731
9.3370926e-06
0.0047459292
1.4433343e-05
0.0063157548
1.9178462e-05
0.007692381
2.2922998e-05
0.00887954
2.5147709e-05
0.0098798091
2.5487732e-05
0.010691677
2.3750811e-05
0.011305686
1.9933967e-05
0.011696963
1.4255926e-05
0.011806779
7.2535144e-06
0.011485647
0.010181071
1.3932149e-06
0.0010303926
5.1015185e-06
0.0029782648
1.0096604e-05
0.0047409341
1.5381727e-05
0.0063104697
2.0163793e-05
0.0076875989
2.381961e-05
0.0088758842
2.5874941e-05
0.0098777538
2.600995e-05
0.010691542
2.407058e-05
0.011307626
2.0083737e-05
0.01170095
1.4289906e-05
0.011812573
7.2382405e-06
0.011492698
0.010188309
1.4936564e-06
0.0010288989
5.4422434e-06
0.0029743162
1.0686074e-05
0.0047356903
1.6127825e-05
0.0063050279
2.0941953e-05
0.0076827848
2.4522349e-05
0.0088723038
2.6431989e-05
0.0098758441
2.6390686e-05
0.010691584
2.4279189e-05
0.011309737
2.0152342e-05
0.011705077
1.4271519e-05
0.011818454
7.1980025e-06
0.011499772
0.010195507
1.5637653e-06
0.0010273352
5.6851414e-06
0.0029701948
1.1116474e-05
0.0047302589
1.6680763e-05
0.0062994636
2.151906e-05
0.0076779465
2.5034388e-05
0.0088687884
2.6819547e-05
0.009874059
2.6628778e-05
0.010691774
2.437432e-05
0.011311992
2.0137065e-05
0.011709314
1.4198396e-05
0.011824393
7.1314262e-06
0.011506839
0.010202638
1.6073738e-06
0.0010257278
5.8406851e-06
0.0029659615
1.1400873e-05
0.0047246988
1.7052047e-05
0.0062938125
2.1903344e-05
0.0076730952
2.5360544e-05
0.0088653312
2.7039517e-05
0.00987238
2.6723929e-05
0.01069209
2.4354275e-05
0.011314361
2.0035634e-05
0.011713633
1.4068488e-05
0.01183036
7.0373257e-06
0.01151387
0.010209676
1.6282854e-06
0.0010240995
5.9197161e-06
0.0029616701
1.1553618e-05
0.0047190649
1.7255091e-05
0.006288111
2.2105068e-05
0.0076682452
2.5507486e-05
0.0088619288
2.7095367e-05
0.0098707921
2.6677119e-05
0.010692508
2.4218384e-05
0.01131682
1.9846578e-05
0.011718005
1.3880323e-05
0.011836326
6.9148255e-06
0.011520835
0.010216591
1.6300791e-06
0.0010224694
5.9328581e-06
0.0029573673
1.1589586e-05
0.0047134081
1.730467e-05
0.0062823959
2.2136297e-05
0.0076634136
2.5483766e-05
0.0088585813
2.6992335e-05
0.0098692835
2.6490909e-05
0.01069301
2.3967322e-05
0.011319344
1.9569521e-05
0.011722403
1.3633227e-05
0.011842262
6.7634937e-06
0.011527705
0.010223354
1.6160058e-06
0.0010208534
5.8901321e-06
0.0029530932
1.1523586e-05
0.0047077747
1.7216364e-05
0.0062767031
2.2010547e-05
0.0076586194
2.5299707e-05
0.0088552922
2.6737501e-05
0.0098678458
2.6169612e-05
0.010693578
2.360334e-05
0.01132191
1.9205403e-05
0.0117268
1.3327503e-05
0.01184814
6.5834309e-06
0.011534449
0.010229938
1.5889472e-06
0.0010192645
5.8007308e-06
0.0029488814
1.1369899e-05
0.0047022055
1.7006034e-05
0.006271067
2.1742384e-05
0.0076538831
2.4967168e-05
0.0088520674
2.6339702e-05
0.0098664732
2.5719336e-05
0.010694198
2.3130369e-05
0.011324499
1.875661e-05
0.011731174
1.2964544e-05
0.011853932
6.3753346e-06
0.011541038
0.010236313
1.5514148e-06
0.001017713
5.6729174e-06
0.0029447599
1.1141967e-05
0.0046967365
1.6689385e-05
0.0062655196
2.1346999e-05
0.0076492254
2.4499229e-05
0.0088489152
2.5809356e-05
0.0098651631
2.5147904e-05
0.010694859
2.2554021e-05
0.011327093
1.8227013e-05
0.011735501
1.2546873e-05
0.011859613
6.1405204e-06
0.011547445
0.010242453
1.5055708e-06
0.0010162075
5.5140052e-06
0.0029407515
1.0852193e-05
0.0046913983
1.6281603e-05
0.0062600902
2.0839806e-05
0.0076446672
2.3909841e-05
0.0088458451
2.5158188e-05
0.0098639147
2.4464679e-05
0.010695553
2.1881482e-05
0.011329676
1.7621909e-05
0.011739761
1.2078113e-05
0.011865156
5.8809082e-06
0.011553642
0.010248334
1.4532606e-06
0.0010147542
5.3303921e-06
0.0029368743
1.0511851e-05
0.0046862168
1.57971e-05
0.0062548049
2.0236087e-05
0.0076402282
2.3213459e-05
0.0088428678
2.4398912e-05
0.0098627293
2.3680306e-05
0.010696272
2.1121319e-05
0.011332235
1.6947887e-05
0.011743934
1.1562892e-05
0.011870541
5.5989693e-06
0.011559606
0.010253933
1.3960495e-06
0.0010133582
5.1276241e-06
0.0029331428
1.0131053e-05
0.0046812134
1.5249327e-05
0.0062496866
1.9550691e-05
0.0076359269
2.2424698e-05
0.0088399938
2.3544898e-05
0.0098616091
2.2806414e-05
0.01069701
2.0283231e-05
0.011334758
1.6212623e-05
0.011748005
1.1006696e-05
0.011875747
5.2976414e-06
0.011565315
0.010259231
1.3352585e-06
0.0010120229
4.9104756e-06
0.0029295675
9.7187812e-06
0.0046764051
1.4650666e-05
0.0062447548
1.87978e-05
0.0076317798
2.1558021e-05
0.0088372335
2.2609831e-05
0.0098605573
2.185529e-05
0.010697765
1.9377753e-05
0.011337236
1.5424631e-05
0.011751958
1.0415686e-05
0.011880756
4.9802242e-06
0.01157075
0.010264211
1.2719983e-06
0.0010107509
4.6830315e-06
0.0029261565
9.2829402e-06
0.0046718052
1.401238e-05
0.0062400253
1.7990752e-05
0.0076278014
2.0627474e-05
0.0088345968
2.1607407e-05
0.0098595773
2.0839564e-05
0.010698532
1.8415957e-05
0.011339659
1.4593005e-05
0.011755781
9.7964806e-06
0.011885553
4.6502616e-06
0.011575897
0.010268861
1.2071995e-06
0.0010095437
4.4487698e-06
0.0029229149
8.8304335e-06
0.0046674235
1.3344607e-05
0.0062355111
1.7141925e-05
0.0076240041
1.9646475e-05
0.0088320923
2.0551052e-05
0.0098586728
1.9771897e-05
0.010699312
1.7409146e-05
0.011342022
1.372714e-05
0.011759463
9.1559533e-06
0.011890124
4.3114202e-06
0.011580741
0.010273173
1.1416391e-06
0.0010084021
4.2106368e-06
0.0029198459
8.3672487e-06
0.0046632669
1.2656384e-05
0.006231222
1.6262665e-05
0.0076203978
1.8627644e-05
0.0088297273
1.9453692e-05
0.0098578467
1.8664719e-05
0.010700101
1.6368578e-05
0.011344318
1.2836475e-05
0.011762995
8.5010255e-06
0.011894459
3.967373e-06
0.011585275
0.01027714
1.0759637e-06
0.0010073261
3.9711176e-06
0.0029169508
7.8985444e-06
0.0046593395
1.1955694e-05
0.0062271649
1.5363254e-05
0.0076169902
1.7582694e-05
0.0088275078
1.8327568e-05
0.0098571018
1.7529996e-05
0.010700898
1.530522e-05
0.011346543
1.1930262e-05
0.01176637
7.838474e-06
0.011898551
3.6216961e-06
0.011589492
0.010280762
1.0107085e-06
0.0010063154
3.732296e-06
0.0029142292
7.4287344e-06
0.004655643
1.1249531e-05
0.0062233441
1.4452911e-05
0.0076137868
1.652235e-05
0.0088254384
1.7184094e-05
0.0098564401
1.6379045e-05
0.010701703
1.4229539e-05
0.011348692
1.1017365e-05
0.011769582
7.1747773e-06
0.011902394
3.2777764e-06
0.011593389
0.01028404
9.463147e-07
0.0010053691
3.4959103e-06
0.0029116796
6.961571e-06
0.0046521774
1.054397e-05
0.0062197617
1.3539817e-05
0.007610791
1.5456317e-05
0.0088235219
1.6033764e-05
0.0098558627
1.5222389e-05
0.010702515
1.3151338e-05
0.011350763
1.0106095e-05
0.011772627
6.515981e-06
0.011905984
2.9387392e-06
0.011596966
0.010286978
8.8314313e-07
0.0010044859
3.2633997e-06
0.0029092993
6.5002181e-06
0.0046489405
9.8442403e-06
0.0062164176
1.2631159e-05
0.0076080041
1.4393268e-05
0.0088217598
1.4886088e-05
0.0098553698
1.4069661e-05
0.010703331
1.2079632e-05
0.011352753
9.2040926e-06
0.011775503
5.8676006e-06
0.01190932
2.6073999e-06
0.011600226
0.010289586
8.2148642e-07
0.0010036645
3.0359459e-06
0.0029070849
6.0473213e-06
0.0046459292
9.1548023e-06
0.0062133102
1.1733181e-05
0.0076054257
1.3340861e-05
0.0088201521
1.3749566e-05
0.0098549611
1.2929539e-05
0.010704151
1.1022566e-05
0.01135466
8.318237e-06
0.011778207
5.2345556e-06
0.011912404
2.2862238e-06
0.011603174
0.010291872
7.6157911e-07
0.0010029029
2.8145085e-06
0.002905032
5.60507e-06
0.0046431386
8.4794202e-06
0.0062104358
1.0851248e-05
0.0076030539
1.2305776e-05
0.0088186976
1.2631692e-05
0.0098546352
1.1809717e-05
0.010704973
9.9873617e-06
0.011356483
7.4545922e-06
0.01178074
4.6211247e-06
0.011915238
1.9773138e-06
0.011605818
0.010293849
7.0360624e-07
0.0010021993
2.5998562e-06
0.0029031357
5.1752533e-06
0.0046405632
7.8212331e-06
0.0062077898
9.9899145e-06
0.0076008852
1.1293761e-05
0.0088173937
1.1538974e-05
0.00985439
1.0716904e-05
0.010705795
8.9803107e-06
0.011358219
6.6183955e-06
0.011783102
4.0309387e-06
0.011917825
1.6824036e-06
0.011608167
0.010295532
6.4771064e-07
0.0010015516
2.3925933e-06
0.0029013908
4.7593105e-06
0.0046381965
7.1828214e-06
0.0062053663
9.1529917e-06
0.007598915
1.0309687e-05
0.0088162371
1.0476973e-05
0.0098542227
9.6568464e-06
0.010706615
8.0067728e-06
0.011359869
5.8140533e-06
0.011785295
3.4669842e-06
0.011920172
1.4028664e-06
0.011610231
0.010296935
5.9399929e-07
0.0010009576
2.1931824e-06
0.0028997916
4.3583755e-06
0.0046360313
6.5662679e-06
0.0062031584
8.3436137e-06
0.0075971377
9.3576143e-06
0.0088152231
9.4503529e-06
0.00985413
8.634362e-06
0.010707431
7.0712082e-06
0.011361433
5.0451658e-06
0.011787321
2.9316228e-06
0.011922286
1.1397354e-06
0.011612023
0.010298074
5.4254854e-07
0.001000415
2.0019656e-06
0.0028983322
3.9733172e-06
0.00463406
5.9732168e-06
0.0062011585
7.5643071e-06
0.0075955466
8.4408583e-06
0.0088143465
8.4629432e-06
0.0098541079
7.6533975e-06
0.010708241
6.1772245e-06
0.011362909
4.3145729e-06
0.011789183
2.4266334e-06
0.011924174
8.9372244e-07
0.011613556
0.010298968
4.9340875e-07
0.0009999216
1.8191807e-06
0.0028970065
3.6047735e-06
0.0046322744
5.4049235e-06
0.0061993584
6.8170511e-06
0.0075941345
7.5620532e-06
0.0088136015
7.5177986e-06
0.0098541521
6.7170798e-06
0.010709041
5.3276259e-06
0.011364298
3.6243991e-06
0.011790887
1.9532537e-06
0.011925845
6.6525619e-07
0.011614844
0.010299633
4.4660859e-07
0.000999475
1.6449779e-06
0.0028958081
3.2531865e-06
0.0046306662
4.8623094e-06
0.0061977493
6.103347e-06
0.0075928934
6.72323e-06
0.0088129816
6.6172831e-06
0.0098542581
5.8278036e-06
0.010709831
4.5245015e-06
0.011365601
2.9761355e-06
0.011792435
1.5122483e-06
0.011927309
4.5451581e-07
0.011615901
0.010300088
4.021594e-07
0.00099907284
1.4794378e-06
0.0028947308
2.9188393e-06
0.0046292268
4.3460215e-06
0.0061963221
5.4242995e-06
0.0075918151
5.9259196e-06
0.00881248
5.763188e-06
0.0098544208
4.9873665e-06
0.010710607
3.7693722e-06
0.011366819
2.3708091e-06
0.011793834
1.1040897e-06
0.011928575
2.6160075e-07
0.011616744
0.010300349
3.600581e-07
0.00099871278
1.3225824e-06
0.0028937683
2.6018815e-06
0.0046279475
3.8564733e-06
0.0061950675
4.7806771e-06
0.0075908909
5.1712234e-06
0.0088120894
4.9568155e-06
0.0098546352
4.1970618e-06
0.010711366
3.0633031e-06
0.011367953
1.8091277e-06
0.011795088
7.2933491e-07
0.011929655
8.9021637e-08
0.011617384
0.010300438
3.2028448e-07
0.00099839249
1.174363e-06
0.0028929142
2.3023002e-06
0.0046268195
3.3937918e-06
0.006193976
4.1728137e-06
0.0075901119
4.4596653e-06
0.0088118026
4.1987624e-06
0.0098548961
3.457377e-06
0.010712108
2.406496e-06
0.011369004
1.2909396e-06
0.011796203
3.8771505e-07
0.011930558
-6.2276628e-08
0.011617834
0.010300376
2.8280277e-07
0.00099810969
1.0346669e-06
0.0028921623
2.0199342e-06
0.0046258342
2.9578388e-06
0.0061930381
3.6006464e-06
0.0075894691
3.7912345e-06
0.008811612
3.4889712e-06
0.0098551984
2.7680786e-06
0.010712829
1.7984937e-06
0.011369974
8.159263e-07
0.011797186
8.1310045e-08
0.011931293