/*--------------------------------*- C++ -*----------------------------------*\
| =========                 |                                                 |
| \\      /  F ield         | OpenFOAM: The Open Source CFD Toolbox           |
|  \\    /   O peration     | Version:  2506                                  |
|   \\  /    A nd           | Website:  www.openfoam.com                      |
|    \\/     M anipulation  |                                                 |
\*---------------------------------------------------------------------------*/
FoamFile
{
    version     2.0;
    format      ascii;
    arch        "LSB;label=32;scalar=64";
    class       volVectorField;
    location    "30000/water";
    object      U;
}
// * * * * * * * * * * * * * * * * * * * * * * * * * * * * * * * * * * * * * //

dimensions      [0 1 -1 0 0 0 0];

internalField   nonuniform List<vector> 
2600
(
(0.2509291 -6.6886033e-05 5.543068e-19)
(0.25093316 -0.00014739222 -2.5060848e-18)
(0.25094167 -0.00023143146 -4.6313003e-19)
(0.2509543 -0.00031980044 -7.882042e-19)
(0.25097092 -0.0004082391 1.2780279e-19)
(0.25099124 -0.00049673666 -6.222977e-20)
(0.25101467 -0.0005856609 5.1079801e-20)
(0.25103908 -0.00067482201 4.0480355e-20)
(0.25105541 -0.00075972197 -1.0309095e-19)
(0.25102652 -0.00083857781 -8.7169849e-20)
(0.25079811 -0.00098580402 3.3997806e-20)
(0.24954942 -0.001485464 -1.1306368e-19)
(0.2411817 0.0014904344 -8.0573621e-19)
(0.25290631 -5.2391824e-05 9.7861119e-19)
(0.25291356 -0.00012867936 -2.6901296e-18)
(0.25292967 -0.00020232594 -9.6216087e-19)
(0.25295369 -0.00027812692 -8.8738105e-19)
(0.25298503 -0.00035187867 5.7340798e-20)
(0.25302278 -0.00042368282 -7.1679153e-20)
(0.25306456 -0.0004936843 1.9323505e-19)
(0.25310219 -0.00056251339 -9.9905521e-20)
(0.25310631 -0.00062550536 -1.4563177e-19)
(0.25297401 -0.00066089399 -6.7586817e-20)
(0.25231856 -0.00068576655 -4.0532997e-20)
(0.24919071 -0.0011507908 -3.7746183e-19)
(0.23317376 0.00055016191 -8.5280133e-19)
(0.25485703 -5.0201261e-05 -1.0251711e-18)
(0.25486389 -0.00012463928 -8.9417426e-19)
(0.2548791 -0.00019574884 -1.7969827e-18)
(0.2549016 -0.00026956178 3.5751007e-23)
(0.25493052 -0.00034177627 -3.2250059e-20)
(0.25496396 -0.00041257844 3.5982524e-20)
(0.25499618 -0.00048173979 1.8375449e-19)
(0.25500857 -0.00054996705 2.7467806e-19)
(0.25494172 -0.00061637669 3.2827085e-19)
(0.2546073 -0.0006602417 2.3651335e-20)
(0.25332071 -0.00063871076 -7.5422796e-20)
(0.2478214 -0.00092597142 -4.7904461e-19)
(0.22526486 0.00012340436 -6.6710162e-19)
(0.25664521 -4.9743849e-05 2.3444744e-18)
(0.25665224 -0.00012488064 1.3543182e-18)
(0.2566674 -0.00019721364 -3.036903e-20)
(0.2566896 -0.0002720698 1.4416002e-19)
(0.25671747 -0.00034495172 -2.1559132e-19)
(0.25674738 -0.00041609227 -1.8930427e-19)
(0.25676826 -0.0004848948 -9.3412017e-20)
(0.25674667 -0.00055096518 3.4301713e-19)
(0.25658539 -0.00061444887 2.7245331e-20)
(0.2559957 -0.0006636637 -1.1791462e-19)
(0.2539403 -0.00063277351 -1.0140488e-19)
(0.24583249 -0.00077044467 -3.9898898e-19)
(0.21800982 -5.9385921e-05 -5.8380318e-19)
(0.25841323 -4.8556775e-05 2.7506612e-18)
(0.2584204 -0.00012219546 1.9462096e-18)
(0.25843571 -0.00019301892 1.4247385e-18)
(0.25845781 -0.00026625064 -4.9594362e-19)
(0.25848442 -0.00033744492 -2.8425643e-19)
(0.25850914 -0.00040689654 -1.6858911e-19)
(0.25851346 -0.00047389151 -4.422733e-20)
(0.25844542 -0.0005370587 -1.5755729e-19)
(0.25816424 -0.00059536593 -1.237226e-19)
(0.25726648 -0.00064373127 -1.5866304e-19)
(0.25431322 -0.0006144232 -1.5987722e-19)
(0.24352458 -0.00065114414 -3.0856819e-19)
(0.21163262 -0.00012321892 -5.338485e-19)
(0.26015467 -4.709344e-05 -3.7318606e-20)
(0.26016187 -0.0001185153 1.0116886e-18)
(0.26017704 -0.0001870764 1.2000829e-18)
(0.2601984 -0.00025799462 6.7224587e-19)
(0.26022227 -0.00032687701 1.909262e-19)
(0.26023853 -0.00039398781 -4.2209617e-20)
(0.26021927 -0.00045855461 -5.7449539e-20)
(0.26009115 -0.00051865148 -1.1192215e-19)
(0.25966515 -0.00057157394 -3.3475274e-21)
(0.2584067 -0.0006148087 5.9903393e-20)
(0.25443266 -0.00058544056 -9.8101013e-20)
(0.24102793 -0.0005571206 -5.9718697e-20)
(0.20612335 -0.00013293671 -4.1927515e-19)
(0.26183846 -4.5390268e-05 2.6292961e-19)
(0.26184561 -0.00011435405 -3.7463062e-20)
(0.26186042 -0.00018050108 9.3823743e-19)
(0.26188043 -0.00024892327 1.2905739e-18)
(0.26190008 -0.00031528561 4.4330036e-19)
(0.26190445 -0.00037977026 -3.3207304e-20)
(0.26185458 -0.00044151446 -2.5795126e-19)
(0.2616533 -0.00049832849 -1.0089324e-19)
(0.26105826 -0.00054618084 -2.6217746e-19)
(0.25938354 -0.00058222647 9.6029768e-20)
(0.25426994 -0.00054801504 -8.8973859e-20)
(0.23842933 -0.00047868139 -7.5522566e-20)
(0.20141646 -0.00011963306 -4.7279406e-19)
(0.26345768 -4.3664882e-05 -1.1875444e-18)
(0.26346469 -0.00011008557 -1.1062815e-18)
(0.26347885 -0.00017377013 1.8295079e-20)
(0.26349678 -0.00023963045 3.0233522e-19)
(0.26351051 -0.00030340684 1.7669863e-19)
(0.26349932 -0.00036518044 4.6855148e-20)
(0.26341166 -0.00042394822 -6.3002646e-20)
(0.2631242 -0.00047735793 -2.0653444e-19)
(0.26233468 -0.00052050214 4.1849072e-20)
(0.26018092 -0.00054846095 -1.0428516e-21)
(0.25381559 -0.00050481858 -9.6460311e-20)
(0.23581666 -0.00040978299 1.1088657e-19)
(0.19745226 -9.8494617e-05 -3.4610603e-19)
(0.26501552 -4.2046877e-05 2.657467e-18)
(0.26502225 -0.00010599907 2.1469396e-18)
(0.26503542 -0.00016730209 1.2328838e-18)
(0.26505044 -0.00023067618 9.3824877e-19)
(0.26505633 -0.00029193976 2.3799068e-19)
(0.26502564 -0.00035106733 1.6645294e-20)
(0.26489279 -0.0004068816 1.330082e-19)
(0.26450568 -0.00045685738 -2.2083403e-19)
(0.26349313 -0.00049549056 -2.7890675e-19)
(0.26078727 -0.00051473411 -1.5808376e-19)
(0.25307513 -0.00045847926 -1.0517698e-19)
(0.23327192 -0.00034737981 1.9042489e-19)
(0.19416843 -7.6932879e-05 -7.9768813e-20)
(0.2665165 -4.0577061e-05 1.0243269e-18)
(0.26652283 -0.00010224007 2.1041888e-18)
(0.26653459 -0.00016134012 9.0659634e-19)
(0.26654572 -0.0002224043 7.6874221e-19)
(0.26654166 -0.00028132047 5.0119094e-19)
(0.26648729 -0.00033795568 2.3470997e-19)
(0.26630156 -0.0003909415 -5.2483797e-21)
(0.26580019 -0.00043752442 -1.8987704e-19)
(0.26453091 -0.00047164498 -3.4324426e-19)
(0.26118849 -0.00048140525 -2.1661752e-19)
(0.25206937 -0.00041120617 -1.0481679e-19)
(0.23086314 -0.00029047959 -2.2524913e-19)
(0.19149027 -5.8333256e-05 -1.6359004e-19)
(0.26796591 -3.9276698e-05 -2.9282002e-18)
(0.26797166 -9.8886216e-05 -5.9018418e-19)
(0.26798155 -0.00015601486 -5.1977099e-19)
(0.26798768 -0.00021499986 3.9429335e-19)
(0.26797137 -0.00027178437 4.4887555e-19)
(0.26788889 -0.00032612646 1.091149e-19)
(0.26764202 -0.00037645613 -8.8661729e-20)
(0.26700984 -0.00041972353 -3.2448318e-20)
(0.26544297 -0.00044912486 -8.2830432e-20)
(0.26137042 -0.00044842588 -1.4504151e-19)
(0.25083979 -0.00036475941 -1.6604641e-19)
(0.22864123 -0.00023936528 -5.4885063e-19)
(0.18933265 -4.3854023e-05 -2.5234836e-19)
(0.26936985 -3.8151202e-05 -1.2099257e-18)
(0.26937484 -9.5961771e-05 -7.2090463e-19)
(0.26938229 -0.00015136516 -2.6419441e-19)
(0.2693822 -0.00020851724 1.0358891e-19)
(0.26935114 -0.00026339986 4.3156858e-23)
(0.26923575 -0.00031565718 -5.6126859e-20)
(0.26891866 -0.00036350366 2.7899427e-20)
(0.26813622 -0.00040351927 5.0627706e-20)
(0.26622207 -0.00042777198 -5.9353305e-20)
(0.26132397 -0.00041560855 -1.343787e-19)
(0.24944814 -0.00032041762 -2.1504049e-19)
(0.22663743 -0.00019477817 -5.0670621e-19)
(0.18760708 -3.3365972e-05 -2.8393658e-19)
(0.27073452 -3.7186892e-05 9.4497373e-19)
(0.27073851 -9.3441594e-05 -3.1807316e-19)
(0.27074291 -0.00014735094 2.9127931e-19)
(0.27073523 -0.00020290124 4.3193163e-19)
(0.27068668 -0.00025609589 -1.1885771e-19)
(0.27053315 -0.00030645578 1.1228578e-19)
(0.27013553 -0.00035195662 4.9246447e-20)
(0.26917943 -0.00038871662 -3.2765342e-20)
(0.26685881 -0.00040716162 -2.0932054e-19)
(0.26105041 -0.00038281108 -7.9640689e-20)
(0.24796793 -0.00027903903 -2.359013e-19)
(0.2248628 -0.00015723519 -4.5111973e-19)
(0.18622942 -2.608962e-05 -2.6090161e-19)
(0.27206549 -3.6358598e-05 8.8909252e-19)
(0.27206822 -9.1270025e-05 -3.1312941e-19)
(0.27206885 -0.00014388431 3.8793796e-19)
(0.27205207 -0.00019803069 1.1170138e-18)
(0.27198302 -0.00024971698 -1.3681332e-19)
(0.27178551 -0.0002983267 2.0643952e-19)
(0.27129541 -0.00034156266 3.986296e-19)
(0.27013718 -0.00037494839 -1.2655376e-21)
(0.26734241 -0.00038673535 -5.1580866e-20)
(0.2605654 -0.00035005845 -1.1302911e-19)
(0.24647172 -0.00024119444 -1.2558037e-19)
(0.22331131 -0.00012666963 -3.5416451e-19)
(0.18512583 -2.107637e-05 -4.0566809e-19)
(0.27336737 -3.5638788e-05 2.1064224e-19)
(0.27336856 -8.938186e-05 1.3544256e-19)
(0.27336463 -0.00014086217 7.8401659e-19)
(0.27333706 -0.00019376295 2.6721506e-19)
(0.27324415 -0.00024407934 1.5120672e-19)
(0.27299604 -0.00029103798 1.9741686e-19)
(0.27239931 -0.00033202382 1.8703667e-19)
(0.27100443 -0.00036176734 2.4380536e-20)
(0.26766283 -0.00036596046 2.2083843e-19)
(0.25989992 -0.00031757793 -1.2988954e-19)
(0.24502002 -0.00020725745 -2.8553442e-19)
(0.22196569 -0.00010242448 2.1311729e-21)
(0.18423545 -1.7507117e-05 -1.5163395e-19)
(0.27464382 -3.5002894e-05 3.0671843e-19)
(0.27464313 -8.7716018e-05 5.7377947e-19)
(0.27463375 -0.00013818758 9.946542e-19)
(0.2745935 -0.00018996324 3.4540304e-19)
(0.27447297 -0.0002390078 6.7444246e-19)
(0.27416661 -0.00028436529 -2.1262233e-20)
(0.27344636 -0.00032304577 -2.7967373e-19)
(0.27177364 -0.00034871442 -4.8921943e-20)
(0.26781391 -0.00034445792 -2.1705654e-19)
(0.25909705 -0.00028576382 -1.4703699e-19)
(0.2436552 -0.00017740821 -3.1029984e-19)
(0.22080343 -8.3473061e-05 -2.7586548e-19)
(0.18351045 -1.4804616e-05 9.8406968e-20)
(0.27589768 -3.4431105e-05 -1.525214e-18)
(0.27589473 -8.6221417e-05 1.8640316e-19)
(0.27587888 -0.00013577914 9.6638053e-20)
(0.27582384 -0.00018651757 2.5315697e-19)
(0.27567139 -0.00023435206 5.4094068e-19)
(0.27529788 -0.00027811161 -3.4948531e-20)
(0.27443375 -0.00031435606 -1.299691e-19)
(0.27243556 -0.00033536392 -3.7921132e-20)
(0.26779662 -0.00032206948 -1.3305208e-19)
(0.25820551 -0.00025510598 -1.0216232e-19)
(0.24240122 -0.00015160162 -1.0169857e-19)
(0.21980119 -6.8691002e-05 -3.1596557e-19)
(0.18291435 -1.2618554e-05 -2.4197434e-19)
(0.27713109 -3.3908296e-05 -1.2480489e-18)
(0.27712546 -8.4858001e-05 -8.840304e-20)
(0.27710201 -0.00013357264 -1.0851233e-19)
(0.27702977 -0.00018333501 2.1927273e-19)
(0.27684047 -0.00022998947 2.9627531e-19)
(0.2763893 -0.00027211088 2.5524175e-19)
(0.27535691 -0.00030570399 4.9655477e-20)
(0.2729805 -0.00032135787 -1.2828268e-20)
(0.26762111 -0.00029886295 -1.895751e-19)
(0.25727242 -0.00022610441 -5.9624853e-20)
(0.24126718 -0.00012956886 -1.7702145e-19)
(0.21893722 -5.7057435e-05 -1.961791e-19)
(0.18241982 -1.0759083e-05 -2.4811228e-19)
(0.27834572 -3.3423243e-05 4.7080186e-19)
(0.27833694 -8.3595438e-05 1.1157817e-19)
(0.2783046 -0.00013151911 3.5525732e-19)
(0.27821241 -0.00018034488 1.0009023e-18)
(0.27798052 -0.00022582105 -1.8829734e-19)
(0.27743925 -0.00026622306 2.7799023e-19)
(0.27620962 -0.00029685485 4.3187151e-19)
(0.27340008 -0.00030643644 8.3666477e-20)
(0.26730692 -0.00027509383 -1.7441795e-19)
(0.25633756 -0.0001991843 -1.7875343e-19)
(0.24025214 -0.0001108758 -9.6007827e-20)
(0.21819234 -4.7749367e-05 -2.3782349e-19)
(0.18200662 -9.130353e-06 -3.6334586e-19)
(0.27954284 -3.2967675e-05 4.4221896e-19)
(0.27953036 -8.2411065e-05 6.5454408e-19)
(0.27948767 -0.00012958149 1.0520235e-18)
(0.27937237 -0.00017749197 8.0335247e-20)
(0.27909121 -0.00022176546 -1.7624358e-21)
(0.27844503 -0.00026032527 4.1003379e-20)
(0.27698441 -0.00028758731 1.6476586e-19)
(0.27368915 -0.00029046172 5.5375367e-20)
(0.26688073 -0.00025114512 2.6583047e-19)
(0.25543062 -0.00017462896 2.2280087e-19)
(0.2393495 -9.5013856e-05 5.1469595e-20)
(0.21755 -4.0152309e-05 -8.3420933e-20)
(0.18165972 -7.6839579e-06 -1.8391465e-19)
(0.28072346 -3.253541e-05 7.8858572e-19)
(0.28070667 -8.1287793e-05 6.8607121e-19)
(0.28065194 -0.00012773124 9.4224066e-19)
(0.28050986 -0.0001747318 1.915442e-19)
(0.28017156 -0.00021775304 2.2009568e-19)
(0.27940289 -0.00025430188 3.945431e-20)
(0.27767312 -0.00027769789 2.5246759e-19)
(0.27384765 -0.00027342828 3.8049209e-19)
(0.26637281 -0.00022746054 1.6717062e-19)
(0.2545711 -0.00015254851 -6.3559141e-20)
(0.23855012 -8.1484032e-05 -3.1296018e-19)
(0.21699614 -3.3827436e-05 -1.3516968e-19)
(0.18136794 -6.3925394e-06 1.208709e-19)
(0.28188837 -3.2121656e-05 3.0299875e-18)
(0.28186655 -8.0212343e-05 2.2032155e-18)
(0.28179785 -0.00012594549 2.696048e-19)
(0.28162471 -0.00017202641 4.0462358e-19)
(0.28121999 -0.00021372065 3.3770683e-19)
(0.28030804 -0.00024803603 1.9092976e-19)
(0.27826773 -0.00026701328 2.5396619e-19)
(0.27388156 -0.00025545692 1.9619655e-19)
(0.26581311 -0.00020447967 -1.5295106e-20)
(0.25377001 -0.00013289057 -4.6760473e-19)
(0.23784411 -6.9849921e-05 -3.812741e-19)
(0.21651887 -2.8467155e-05 -2.2331784e-20)
(0.18112283 -5.237094e-06 2.333925e-20)
(0.28303819 -3.1722486e-05 2.982217e-18)
(0.28301052 -7.9173849e-05 1.3494093e-18)
(0.28292559 -0.00012420469 1.4972765e-20)
(0.28271638 -0.00016934096 -4.9918894e-19)
(0.2822343 -0.00020960734 5.2800831e-19)
(0.28115476 -0.00024140494 3.5380955e-19)
(0.27876144 -0.00025540748 -1.4526974e-19)
(0.27380291 -0.00023677356 1.887992e-19)
(0.26522808 -0.00018258167 5.5706346e-21)
(0.25303215 -0.00011548282 -7.5795642e-20)
(0.23722187 -5.9756961e-05 1.5721974e-19)
(0.21610816 -2.3855674e-05 6.5860812e-20)
(0.18091788 -4.2018439e-06 9.624397e-20)
(0.28417339 -3.1334453e-05 -6.8292616e-19)
(0.28413893 -7.8162818e-05 -3.5520231e-19)
(0.28403512 -0.00012249081 -5.9421552e-21)
(0.28378396 -0.00016664114 3.6312225e-19)
(0.28321158 -0.0002053501 1.317553e-19)
(0.28193659 -0.00023428041 3.8129747e-19)
(0.27914984 -0.00024281874 4.2168776e-19)
(0.27362851 -0.00021767781 6.2676099e-19)
(0.26463906 -0.00016204558 2.5616907e-20)
(0.25235823 -0.00010008753 -4.4411293e-19)
(0.23667446 -5.0928432e-05 -1.3051374e-19)
(0.21575559 -1.9839553e-05 4.0185638e-20)
(0.18074793 -3.2726371e-06 7.097251e-20)
(0.28529433 -3.0954305e-05 -1.2982242e-18)
(0.28525196 -7.7170337e-05 6.4008604e-19)
(0.28512619 -0.000120786 1.1460763e-18)
(0.28482614 -0.00016389138 7.0024668e-19)
(0.28414822 -0.00020087986 4.7421778e-19)
(0.28264669 -0.00022653515 3.3305314e-19)
(0.27943202 -0.00022926076 5.557804e-19)
(0.27337791 -0.00019850621 2.9562789e-19)
(0.26406181 -0.0001430334 2.4704843e-19)
(0.25174654 -8.6449679e-05 2.7895901e-19)
(0.23619383 -4.315108e-05 -1.2061097e-19)
(0.21545404 -1.6307481e-05 -3.1753222e-20)
(0.18060883 -2.4367073e-06 6.8800554e-20)
(0.28640123 -3.0578784e-05 -6.2474079e-19)
(0.28634965 -7.6187464e-05 6.2500975e-19)
(0.28619826 -0.00011907139 8.5227869e-19)
(0.28584114 -0.00016105348 2.1153357e-19)
(0.28503985 -0.00019611847 7.4196145e-19)
(0.2832784 -0.00021805401 2.4304906e-19)
(0.27961117 -0.00021482471 5.3747154e-20)
(0.27307114 -0.00017959427 4.2553571e-19)
(0.26350715 -0.00012559657 5.2648043e-19)
(0.25119402 -7.4328965e-05 7.0744506e-19)
(0.23577276 -3.625937e-05 2.6628591e-19)
(0.21519748 -1.3176836e-05 -8.4244263e-21)
(0.18049716 -1.6827581e-06 1.1816983e-19)
(0.28749419 -3.0204451e-05 1.5752136e-18)
(0.28743185 -7.520472e-05 1.4810898e-18)
(0.28725056 -0.00011732616 1.155293e-19)
(0.28682673 -0.0001580853 1.9775699e-19)
(0.28588145 -0.00019097762 3.9694534e-19)
(0.28382593 -0.00020874813 2.6630149e-19)
(0.27969464 -0.00019967158 1.2000842e-20)
(0.27272685 -0.00016124193 2.2368591e-19)
(0.26298189 -0.00010969946 2.8442678e-19)
(0.25069697 -6.3515017e-05 8.9397784e-20)
(0.23540492 -3.0122541e-05 1.779645e-19)
(0.21498079 -1.0384801e-05 1.2444246e-19)
(0.18041 -1.0010026e-06 1.3547032e-20)
(0.28857317 -2.9827535e-05 3.0509817e-18)
(0.28849825 -7.4211613e-05 1.1206901e-18)
(0.28828196 -0.00011552671 6.1131416e-19)
(0.28778008 -0.00015493915 2.431169e-19)
(0.28666738 -0.00018536089 5.1446819e-19)
(0.28428521 -0.00019856896 2.3296965e-19)
(0.27969326 -0.00018401637 9.9874756e-20)
(0.27236107 -0.00014368791 2.5816945e-19)
(0.26248991 -9.5249865e-05 2.270347e-19)
(0.25025143 -5.3830552e-05 6.4708352e-20)
(0.23508472 -2.463527e-05 2.0558327e-19)
(0.21479959 -7.8824875e-06 1.8210864e-19)
(0.18034487 -3.8307853e-07 4.1880598e-20)
(0.28963798 -2.9443749e-05 1.2454166e-18)
(0.28954832 -7.3196105e-05 -1.2770848e-19)
(0.28929102 -0.00011364593 1.1777271e-19)
(0.2886978 -0.00015155982 8.5100941e-19)
(0.28739174 -0.00017916927 3.4923238e-20)
(0.28465455 -0.00018751865 1.5353501e-19)
(0.27962017 -0.00016810641 5.9547953e-19)
(0.2719867 -0.00012709648 7.9262856e-19)
(0.26203302 -8.2127518e-05 2.65353e-19)
(0.24985346 -4.512813e-05 -3.5960193e-19)
(0.23480728 -1.9711264e-05 -2.1008916e-19)
(0.21465012 -5.6309911e-06 6.206292e-21)
(0.18029962 1.7812835e-07 1.4194681e-20)
(0.29068824 -2.9047997e-05 6.6930586e-19)
(0.29058125 -7.2143821e-05 -6.9581434e-19)
(0.29027586 -0.00011165221 3.2269906e-19)
(0.28957586 -0.00014788248 7.1918511e-19)
(0.28804865 -0.00017230926 1.611553e-19)
(0.28493523 -0.00017565385 4.41647e-19)
(0.2794894 -0.00015219579 4.6432755e-19)
(0.2716136 -0.00011155661 2.3667995e-19)
(0.26161163 -7.0203562e-05 1.217424e-19)
(0.24949925 -3.7283208e-05 2.196713e-19)
(0.23456828 -1.5277061e-05 -1.2477887e-19)
(0.21452909 -3.5978752e-06 -1.2475819e-19)
(0.18027234 6.889158e-07 2.5967035e-20)
(0.29172336 -2.8634279e-05 4.5779909e-19)
(0.291596 -7.1037634e-05 8.1605918e-20)
(0.29123415 -0.00010950892 1.043182e-18)
(0.29040962 -0.00014383257 2.4212889e-19)
(0.28863287 -0.00016470429 8.5607946e-19)
(0.28513156 -0.00016308395 4.5691538e-19)
(0.27931466 -0.00013652206 1.7908058e-19)
(0.27124896 -9.7093557e-05 1.3547958e-19)
(0.26122524 -5.9353649e-05 1.5696332e-19)
(0.24918522 -3.0190176e-05 4.5402966e-19)
(0.23436395 -1.1270301e-05 2.5027755e-19)
(0.2144337 -1.7305514e-06 4.5172859e-20)
(0.18026136 1.1761552e-06 1.2761968e-19)
(0.29274252 -2.8196035e-05 -1.4254622e-19)
(0.29259116 -6.985846e-05 2.171872e-18)
(0.29216305 -0.00010717576 4.3932699e-19)
(0.29119393 -0.00013933085 1.2894303e-19)
(0.28914031 -0.00015631032 7.6637267e-19)
(0.28525057 -0.00014996782 4.3424362e-19)
(0.27910837 -0.00012129297 4.9000205e-19)
(0.2708978 -8.3692845e-05 1.6577033e-19)
(0.26087272 -4.9471604e-05 2.9388865e-19)
(0.24890802 -2.3766775e-05 -1.0684177e-20)
(0.23419085 -7.6476586e-06 2.0058729e-19)
(0.21436056 -1.6259424e-08 8.0367859e-20)
(0.18026627 1.640396e-06 -1.0291202e-20)
(0.2937446 -2.7725098e-05 -9.7513557e-19)
(0.29356496 -6.858319e-05 1.4567101e-18)
(0.29305914 -0.00010460504 7.2376368e-19)
(0.29192334 -0.00013429445 1.5361758e-19)
(0.28956868 -0.00014712078 6.3451493e-19)
(0.2853013 -0.00013649478 5.4302217e-19)
(0.27888121 -0.00010666836 3.4894541e-19)
(0.27056351 -7.1310472e-05 2.3465494e-19)
(0.26055265 -4.0462891e-05 1.7765104e-19)
(0.24866458 -1.7940254e-05 2.5522232e-19)
(0.23404606 -4.3539064e-06 2.059471e-19)
(0.21430781 1.537405e-06 2.1905643e-19)
(0.18028522 2.056387e-06 3.8114718e-20)
(0.29472815 -2.7211026e-05 1.6675521e-18)
(0.29451518 -6.7183247e-05 -3.5774225e-20)
(0.29391842 -0.00010173906 7.4271432e-19)
(0.29259237 -0.00012864185 8.9472815e-19)
(0.28991788 -0.00013716949 -2.0685555e-20)
(0.28529395 -0.00012286451 4.9295638e-19)
(0.27864192 -9.2752921e-05 8.9421679e-19)
(0.27024822 -5.9882438e-05 7.0388249e-19)
(0.26026336 -3.223866e-05 8.6047534e-20)
(0.24845204 -1.2642376e-05 -1.1456614e-19)
(0.23392646 -1.3358811e-06 -3.859822e-19)
(0.21427448 2.9561765e-06 1.0099111e-19)
(0.18031663 2.4263113e-06 3.1176923e-21)
(0.29569132 -2.6641403e-05 1.376601e-18)
(0.2954391 -6.5625549e-05 1.6197674e-18)
(0.29473631 -9.8512687e-05 6.9498573e-19)
(0.29319592 -0.0001223057 8.6905686e-19)
(0.29019018 -0.00012653597 -9.0446262e-20)
(0.2852389 -0.00010927515 4.3244993e-19)
(0.27839743 -7.9607259e-05 4.002473e-19)
(0.26995312 -4.9342222e-05 9.9138166e-20)
(0.26000309 -2.4722174e-05 9.3130631e-20)
(0.24826773 -7.8150894e-06 3.2987035e-19)
(0.23382955 1.4151506e-06 -1.7114649e-20)
(0.21425921 4.2390809e-06 -1.220005e-19)
(0.18035932 2.7544342e-06 3.0201369e-21)
(0.29663173 -2.6001182e-05 3.7227538e-20)
(0.29633339 -6.3871158e-05 1.1144413e-18)
(0.29550768 -9.4853897e-05 6.6419548e-19)
(0.29372976 -0.0001152412 4.0674167e-19)
(0.29039011 -0.00011533898 6.7157367e-19)
(0.28514604 -9.5905383e-05 2.4734578e-19)
(0.27815305 -6.7254136e-05 -1.8835615e-19)
(0.26967872 -3.962333e-05 2.3383928e-19)
(0.25977003 -1.7841853e-05 4.2093029e-19)
(0.24810923 -3.3839656e-06 4.7150842e-19)
(0.23375398 3.9312064e-06 4.6744016e-19)
(0.21425996 5.3906107e-06 -5.675592e-22)
(0.18041214 3.0443398e-06 1.7021749e-19)
(0.29754645 -2.527239e-05 1.9724183e-18)
(0.29719411 -6.1874453e-05 1.0143659e-18)
(0.29622706 -9.0687763e-05 5.8521752e-19)
(0.29419101 -0.0001074348 4.9944379e-19)
(0.290524 -0.00010372737 7.9024525e-19)
(0.28502427 -8.2903368e-05 3.3190348e-19)
(0.27791277 -5.5688938e-05 4.4074038e-19)
(0.26942499 -3.0662233e-05 4.3727975e-19)
(0.25956226 -1.1539682e-05 3.2604127e-19)
(0.24797362 6.758955e-07 -1.2563462e-19)
(0.23369893 6.2277192e-06 1.4076102e-19)
(0.21427538 6.4296357e-06 1.4520695e-19)
(0.18047413 3.3030864e-06 1.5167567e-20)
(0.29843186 -2.443409e-05 2.0983818e-18)
(0.29801658 -5.9582981e-05 1.4765815e-18)
(0.29688883 -8.5943398e-05 6.1546379e-19)
(0.29457851 -9.8910849e-05 3.4617466e-19)
(0.29059935 -9.1868434e-05 4.1938909e-19)
(0.28488126 -7.0382624e-05 2.9510794e-19)
(0.27767954 -4.4890683e-05 2.2376527e-19)
(0.26919163 -2.2395845e-05 4.1039115e-19)
(0.25937815 -5.7364185e-06 -2.5171149e-20)
(0.24785972 4.3904824e-06 9.1124224e-20)
(0.2336621 8.3015947e-06 2.6896086e-19)
(0.21430404 7.3666965e-06 3.4080768e-19)
(0.18054443 3.5354644e-06 1.144595e-19)
(0.29928359 -2.3462153e-05 4.4176982e-19)
(0.29879547 -5.6937592e-05 5.3078771e-19)
(0.29748763 -8.0561623e-05 5.5061884e-20)
(0.29489309 -8.9732431e-05 1.0513321e-18)
(0.29062422 -7.9932341e-05 -2.3325103e-19)
(0.28472341 -5.8420103e-05 3.5228169e-19)
(0.27745536 -3.4827531e-05 6.7376331e-19)
(0.26897782 -1.4770408e-05 7.6594708e-19)
(0.25921519 -3.917989e-07 3.9850985e-19)
(0.24776702 7.7920441e-06 -1.9927075e-22)
(0.23364198 1.0181101e-05 -3.8471181e-20)
(0.21434474 8.2147619e-06 1.1267057e-19)
(0.18062225 3.7449969e-06 1.3267556e-19)
(0.30009637 -2.232973e-05 7.5571816e-19)
(0.29952479 -5.3875497e-05 1.7716603e-18)
(0.29801875 -7.4505255e-05 9.490329e-19)
(0.29513749 -7.9999952e-05 7.6737436e-19)
(0.29060659 -6.808058e-05 3.2361863e-19)
(0.28455591 -4.706248e-05 5.25344e-19)
(0.27724164 -2.5459226e-05 7.1233024e-19)
(0.2687829 -7.7156709e-06 6.7412451e-20)
(0.25907248 4.5153902e-06 3.2874117e-19)
(0.24769347 1.0881382e-05 5.9065551e-20)
(0.23363709 1.1884861e-05 4.3664324e-20)
(0.21439637 8.983741e-06 -5.2091366e-20)
(0.1807069 3.9343468e-06 -5.3524648e-20)
(0.30086402 -2.1007837e-05 5.4678279e-19)
(0.30019808 -5.0335139e-05 2.3653929e-18)
(0.29847858 -6.77675e-05 2.3762706e-18)
(0.29531608 -6.9843621e-05 -6.6516219e-19)
(0.29055391 -5.6454422e-05 7.9561132e-19)
(0.28438287 -3.6332021e-05 2.9264149e-19)
(0.27703906 -1.6748261e-05 -7.1772085e-20)
(0.2686053 -1.1875239e-06 -3.0336267e-19)
(0.25894976 9.0213388e-06 1.7095925e-19)
(0.24763751 1.3689797e-05 4.969239e-19)
(0.23364609 1.3431089e-05 3.329272e-19)
(0.21445793 9.6806814e-06 -1.1336194e-19)
(0.18079772 4.1050199e-06 -1.2839049e-19)
(0.30157943 -1.9467191e-05 1.0646769e-18)
(0.30080863 -4.6264339e-05 2.1614536e-18)
(0.29886499 -6.0378827e-05 2.020977e-18)
(0.29543444 -5.9413952e-05 1.5066853e-19)
(0.29047287 -4.5169365e-05 6.2382905e-19)
(0.28420752 -2.622915e-05 3.2324138e-19)
(0.27684812 -8.6362668e-06 -1.1860896e-19)
(0.26844451 4.8386481e-06 -2.543692e-19)
(0.25884557 1.313577e-05 2.2248872e-19)
(0.2475977 1.6244098e-05 4.6705837e-19)
(0.23366777 1.4835358e-05 4.0050535e-20)
(0.21452852 1.0311986e-05 -6.9564679e-20)
(0.18089414 4.2585314e-06 -1.6272179e-19)
(0.30223466 -1.7681569e-05 2.424068e-18)
(0.3013499 -4.1630428e-05 2.5560526e-19)
(0.29917751 -5.2409537e-05 2.195559e-20)
(0.29549883 -4.886942e-05 6.8652797e-19)
(0.29036918 -3.431365e-05 4.8385363e-19)
(0.28403214 -1.674751e-05 5.701599e-19)
(0.27666826 -1.0891035e-06 5.7932674e-19)
(0.26830088 1.0390982e-05 -1.0979132e-19)
(0.25875851 1.688849e-05 -1.9927406e-19)
(0.24757272 1.8568189e-05 -5.0791657e-19)
(0.23370102 1.6110026e-05 -1.4315402e-19)
(0.21460732 1.0882765e-05 -2.3048148e-19)
(0.18099561 4.3960764e-06 -1.0243885e-19)
(0.30282117 -1.563339e-05 -1.5817326e-18)
(0.30181594 -3.6431485e-05 1.4332756e-18)
(0.29941741 -4.3968554e-05 -8.01021e-19)
(0.29551566 -3.8365464e-05 3.4465377e-19)
(0.2902477 -2.394522e-05 3.6579345e-19)
(0.28385859 -7.8477212e-06 2.5228214e-19)
(0.27649982 5.9141284e-06 2.7539257e-19)
(0.26817344 1.5479819e-05 2.7653027e-20)
(0.25868728 2.0310846e-05 -1.1984591e-19)
(0.24756135 2.0682641e-05 -4.0585406e-19)
(0.23374484 1.7265707e-05 -1.8598315e-20)
(0.21469357 1.139759e-05 -1.3098301e-20)
(0.18110164 4.5187616e-06 -1.2140483e-20)
(0.30333026 -1.3320787e-05 5.8155081e-19)
(0.30220189 -3.0705584e-05 3.3214656e-18)
(0.29958744 -3.5196369e-05 2.9739006e-19)
(0.29549103 -2.8043642e-05 1.0029139e-18)
(0.29011218 -1.4099837e-05 8.6750517e-19)
(0.28368733 4.8517746e-07 2.0556189e-19)
(0.276344 1.2388905e-05 -1.9577441e-19)
(0.26806118 2.0135133e-05 -7.921453e-20)
(0.2586307 2.3431357e-05 1.2474832e-19)
(0.24756246 2.2604571e-05 4.8257587e-19)
(0.23379832 1.8311478e-05 2.0916665e-19)
(0.21478659 1.1860469e-05 4.3745982e-19)
(0.18121176 4.6275494e-06 7.1547273e-20)
(0.30375374 -1.07649e-05 4.3933972e-18)
(0.30250438 -2.4536348e-05 1.3650703e-18)
(0.29969147 -2.6255588e-05 2.5357361e-18)
(0.29543051 -1.8024192e-05 -1.8903475e-20)
(0.28996562 -4.7858066e-06 2.8553063e-19)
(0.28352015 8.2431264e-06 2.9558943e-19)
(0.27620025 1.833589e-05 1.8788411e-19)
(0.26796311 2.4389474e-05 1.322334e-19)
(0.25858763 2.6274664e-05 2.0413771e-19)
(0.24757502 2.4348919e-05 4.7229913e-19)
(0.2338606 1.925554e-05 2.925646e-19)
(0.21488574 1.2275089e-05 -1.1331167e-20)
(0.18132555 4.7233434e-06 -4.4469459e-21)
(0.30408466 -8.0145697e-06 3.2662745e-18)
(0.30272186 -1.8051783e-05 2.8088294e-18)
(0.29973407 -1.7315876e-05 1.7346754e-18)
(0.29533886 -8.3895753e-06 4.601547e-19)
(0.28980995 3.97897e-06 2.773869e-20)
(0.28335875 1.5424508e-05 3.3080143e-19)
(0.27606809 2.3784742e-05 6.5187541e-20)
(0.26787825 2.827229e-05 4.6188849e-19)
(0.25855702 2.8860173e-05 3.0430615e-19)
(0.24759808 2.5927621e-05 3.9101484e-19)
(0.23393092 2.0104417e-05 3.1897356e-19)
(0.21499042 1.2644236e-05 -9.1714528e-20)
(0.1814426 4.8067254e-06 -6.4834696e-20)
(0.30431819 -5.1449375e-06 -1.852959e-18)
(0.30285461 -1.1412629e-05 2.038782e-19)
(0.29971994 -8.5331513e-06 2.645542e-19)
(0.29521955 7.8209314e-07 1.717032e-18)
(0.28964857 1.214309e-05 6.0516677e-19)
(0.28320331 2.2022626e-05 4.2904272e-19)
(0.27594691 2.8765126e-05 9.4268497e-19)
(0.26780566 3.1808698e-05 4.3354935e-19)
(0.25853789 3.1205176e-05 -8.0551113e-20)
(0.24763076 2.7351715e-05 -4.5262455e-19)
(0.23400854 2.0864202e-05 -1.6379724e-19)
(0.2151001 1.2970553e-05 -4.6482331e-20)
(0.18156252 4.8782869e-06 -1.682359e-20)
(0.30445222 -2.2472265e-06 -2.7907437e-18)
(0.30290466 -4.7892263e-06 -1.3641042e-18)
(0.2996534 -5.7433063e-08 2.6017431e-19)
(0.29507686 9.3868815e-06 5.7439547e-19)
(0.28948321 1.9670557e-05 5.2704758e-19)
(0.28305386 2.8057803e-05 4.7924948e-19)
(0.27583605 3.3302676e-05 5.602153e-19)
(0.26774441 3.5018188e-05 -2.5765499e-20)
(0.25852929 3.3323429e-05 -1.127217e-19)
(0.24767222 2.8629904e-05 -4.961726e-19)
(0.23409279 2.1539487e-05 -3.4365767e-19)
(0.21521426 1.3255889e-05 -1.7659245e-20)
(0.18168496 4.9383547e-06 7.2780184e-21)
(0.30448759 5.8143718e-07 1.1490972e-18)
(0.30287533 1.6332053e-06 1.2213414e-18)
(0.29953939 7.9403939e-06 8.6990684e-20)
(0.29491435 1.733425e-05 8.1748005e-19)
(0.28931491 2.6550388e-05 9.5217895e-19)
(0.28291026 3.3548716e-05 4.7523909e-19)
(0.2757348 3.7416516e-05 -3.5855747e-20)
(0.26769361 3.7916263e-05 2.7296492e-19)
(0.25853035 3.52261e-05 3.5698346e-19)
(0.24772169 2.9769063e-05 3.5619297e-19)
(0.23418305 2.2133721e-05 2.6776153e-19)
(0.2153324 1.3501518e-05 3.5982994e-19)
(0.18180955 4.9870799e-06 1.1692154e-19)
(0.30442824 3.2381451e-06 1.4253969e-18)
(0.30277199 7.656995e-06 1.4210861e-18)
(0.29938292 1.5304013e-05 2.0737469e-18)
(0.29473444 2.4565377e-05 -9.1490352e-20)
(0.28914434 3.2781698e-05 3.5753542e-19)
(0.28277222 3.8508123e-05 -2.9703383e-20)
(0.27564244 4.1120444e-05 1.2935108e-19)
(0.26765239 4.0514579e-05 5.423734e-19)
(0.25854021 3.6921349e-05 5.1413232e-19)
(0.24777843 3.0773887e-05 3.5657187e-19)
(0.23427872 2.2648988e-05 2.1551196e-19)
(0.21545406 1.3708007e-05 -3.0563171e-20)
(0.18193595 5.024388e-06 7.5873271e-20)
(0.30428147 5.6355967e-06 1.0856686e-19)
(0.30260141 1.3122394e-05 2.7538058e-18)
(0.29918843 2.1930434e-05 2.5487579e-18)
(0.29453912 3.1047531e-05 2.1610403e-19)
(0.28897192 3.8362694e-05 6.9328098e-20)
(0.28263933 4.2943552e-05 1.9551501e-20)
(0.2755582 4.4423841e-05 -1.5656324e-19)
(0.26761989 4.2820983e-05 4.4235816e-20)
(0.25855808 3.8414248e-05 1.4276182e-19)
(0.24784174 3.1646843e-05 2.8341503e-19)
(0.23437921 2.3085953e-05 1.2568126e-19)
(0.21557877 1.3875164e-05 -7.4815339e-20)
(0.18206381 5.0499489e-06 4.4727323e-21)
(0.30405678 7.7205516e-06 2.6168359e-18)
(0.30237113 1.7926727e-05 3.6787965e-18)
(0.29896016 2.7756836e-05 1.5901582e-18)
(0.29433004 3.6759539e-05 5.5949905e-19)
(0.28879784 4.3291022e-05 4.283397e-19)
(0.2825111 4.6859632e-05 2.235339e-19)
(0.2754813 4.7332623e-05 1.3580144e-19)
(0.26759529 4.4839962e-05 -2.2342695e-19)
(0.25858316 3.9707113e-05 5.1021398e-20)
(0.24791094 3.2388409e-05 3.6799352e-19)
(0.23448396 2.3444006e-05 2.3339335e-19)
(0.21570609 1.4002115e-05 4.8689761e-20)
(0.18219278 5.0632102e-06 4.8842006e-20)
(0.30376497 9.4677029e-06 4.8908307e-18)
(0.30208913 2.2015504e-05 4.2050234e-18)
(0.29870222 3.2751959e-05 1.3899823e-18)
(0.29410866 4.1691491e-05 5.5786027e-19)
(0.2886222 4.7566359e-05 3.3306931e-19)
(0.28238699 5.0259529e-05 4.0229613e-19)
(0.27541097 4.9849952e-05 5.2655883e-19)