/*--------------------------------*- C++ -*----------------------------------*\
| =========                 |                                                 |
| \\      /  F ield         | OpenFOAM: The Open Source CFD Toolbox           |
|  \\    /   O peration     | Version:  2506                                  |
|   \\  /    A nd           | Website:  www.openfoam.com                      |
|    \\/     M anipulation  |                                                 |
\*---------------------------------------------------------------------------*/
FoamFile
{
    version     2.0;
    format      ascii;
    arch        "LSB;label=32;scalar=64";
    class       volScalarField;
    location    "30000/water";
    object      wallHeatFlux;
}
// * * * * * * * * * * * * * * * * * * * * * * * * * * * * * * * * * * * * * //

dimensions      [1 0 -3 0 0 0 0];

internalField   uniform 0;

boundaryField
{
    water_inlet
    {
        type            calculated;
        value           uniform 0;
    }
    water_outlet
    {
        type            calculated;
        value           uniform 0;
    }
    water_wedge1
    {
        type            wedge;
    }
    water_wedge2
    {
        type            wedge;
    }
    water_to_rock
    {
        type            calculated;
        value           nonuniform List<scalar> 
200
(
-932.9128
-743.34188
-647.80352
-589.35757
-548.65516
-517.83457
-493.19663
-472.78771
-455.37003
-440.23126
-426.91198
-414.95811
-404.13203
-394.27261
-385.21425
-376.80912
-369.00628
-361.75152
-354.88675
-348.47167
-342.35517
-336.61652
-331.14255
-325.96106
-321.01625
-316.30806
-311.80816
-307.48789
-303.34641
-299.41072
-295.62378
-291.9842
-288.49062
-285.11363
-281.88024
-278.78978
-275.81371
-272.92334
-270.17456
-267.51054
-264.93082
-262.43497
-260.07917
-257.74991
-255.53175
-253.42443
-251.34258
-249.37104
-247.4243
-245.58737
-243.80311
-242.0712
-240.41984
-238.82019
-237.2719
-235.77454
-234.3277
-232.93094
-231.61246
-230.31448
-229.06521
-227.86423
-226.68243
-225.57698
-224.51893
-223.47934
-222.45812
-221.48412
-220.55749
-219.64965
-218.76089
-217.94933
-217.12886
-216.3577
-215.63642
-214.87897
-214.20143
-213.51776
-212.85744
-212.27878
-211.66684
-211.0799
-210.51847
-210.01189
-209.50285
-208.99176
-208.53667
-208.05129
-207.6225
-207.22174
-206.82044
-206.41886
-206.04607
-205.70226
-205.35876
-205.04455
-204.75975
-204.47563
-204.19228
-203.90979
-203.68583
-203.434
-203.21197
-202.99094
-202.79974
-202.60956
-202.42041
-202.26108
-202.07395
-201.9454
-201.81783
-201.69119
-201.59426
-201.49822
-201.40303
-201.30867
-201.24388
-201.20863
-201.14532
-201.11146
-201.04948
-201.04566
-201.01364
-201.0397
-201.0375
-201.03576
-201.09201
-201.11988
-201.1769
-201.20548
-201.29191
-201.37863
-201.4656
-201.5528
-201.66897
-201.78532
-201.90182
-202.07601
-202.22152
-202.36712
-202.54156
-202.74483
-202.91936
-203.15148
-203.38361
-203.61576
-203.8479
-204.13759
-204.39847
-204.68811
-205.00648
-205.29602
-205.64306
-206.01883
-206.36575
-206.7414
-207.14578
-207.57888
-207.98316
-208.44495
-208.93546
-209.42592
-209.91632
-210.4642
-211.01199
-211.61726
-212.19366
-212.82754
-213.49014
-214.18146
-214.87274
-215.59278
-216.37037
-217.17673
-218.01186
-218.87575
-219.76838
-220.68975
-221.6974
-222.70499
-223.77008
-224.89267
-226.04398
-227.25282
-228.548
-229.90073
-231.31104
-232.80773
-234.39079
-236.06023
-237.84482
-239.77334
-241.84577
-244.09089
-246.62381
-249.41573
-252.69692
-256.66888
-261.96487
-270.31195
)
;
    }
}


// ************************************************************************* //
