/*--------------------------------*- C++ -*----------------------------------*\
| =========                 |                                                 |
| \\      /  F ield         | OpenFOAM: The Open Source CFD Toolbox           |
|  \\    /   O peration     | Version:  2506                                  |
|   \\  /    A nd           | Website:  www.openfoam.com                      |
|    \\/     M anipulation  |                                                 |
\*---------------------------------------------------------------------------*/
FoamFile
{
    version     2.0;
    format      ascii;
    arch        "LSB;label=32;scalar=64";
    class       volScalarField;
    location    "30000/water";
    object      yPlus;
}
// * * * * * * * * * * * * * * * * * * * * * * * * * * * * * * * * * * * * * //

dimensions      [0 0 0 0 0 0 0];

internalField   uniform 0;

boundaryField
{
    water_inlet
    {
        type            calculated;
        value           uniform 0;
    }
    water_outlet
    {
        type            calculated;
        value           uniform 0;
    }
    water_wedge1
    {
        type            wedge;
    }
    water_wedge2
    {
        type            wedge;
    }
    water_to_rock
    {
        type            calculated;
        value           nonuniform List<scalar> 
200
(
36.250543
41.000602
43.123746
43.745259
43.585829
43.068303
42.429206
41.798026
41.242922
40.79443
40.45805
40.22278
40.068775
39.974086
39.919289
39.889537
39.874649
39.868226
39.866559
39.86768
39.870661
39.875152
39.881087
39.888509
39.897486
39.908067
39.920268
39.934071
39.94943
39.966277
39.984533
40.004077
40.024774
40.046489
40.069108
40.092548
40.11676
40.141678
40.167241
40.193384
40.220045
40.247157
40.274658
40.302485
40.330575
40.358867
40.387302
40.415817
40.444353
40.472847
40.501236
40.529453
40.557427
40.585085
40.612346
40.639125
40.665331
40.690869
40.715638
40.739539
40.762471
40.784338
40.805049
40.824523
40.84269
40.859494
40.874894
40.888866
40.901403
40.912512
40.922218
40.930556
40.937579
40.943344
40.947922
40.951386
40.953817
40.955296
40.955906
40.955731
40.954852
40.953349
40.951298
40.948771
40.945837
40.942557
40.938984
40.935163
40.931143
40.926975
40.922702
40.918369
40.914011
40.909662
40.90535
40.901101
40.896935
40.892871
40.888925
40.885109
40.881433
40.877907
40.874535
40.871324
40.868276
40.865392
40.862675
40.860122
40.857734
40.855506
40.853438
40.851525
40.849763
40.848147
40.846672
40.845335
40.844128
40.843047
40.842085
40.841237
40.840497
40.839859
40.839316
40.838863
40.838494
40.838204
40.837986
40.837834
40.837744
40.837711
40.837729
40.837794
40.837901
40.838046
40.838223
40.83843
40.838662
40.838915
40.839186
40.83947
40.839764
40.840066
40.840374
40.840686
40.841
40.841316
40.841629
40.841941
40.842248
40.842548
40.842841
40.843124
40.843397
40.84366
40.843912
40.844153
40.844385
40.844607
40.84482
40.845025
40.84522
40.845404
40.845577
40.845736
40.845881
40.846011
40.846126
40.846227
40.846317
40.846397
40.84647
40.846538
40.846604
40.846666
40.846725
40.846781
40.84683
40.846871
40.846902
40.846922
40.846932
40.846931
40.846921
40.846907
40.846888
40.846869
40.846851
40.846837
40.846826
40.846818
40.846813
40.846809
40.846804
40.846795
40.846781
40.84676
40.846732
40.846697
40.846658
40.846617
)
;
    }
}


// ************************************************************************* //
