/*--------------------------------*- C++ -*----------------------------------*\
| =========                 |                                                 |
| \\      /  F ield         | OpenFOAM: The Open Source CFD Toolbox           |
|  \\    /   O peration     | Version:  2506                                  |
|   \\  /    A nd           | Website:  www.openfoam.com                      |
|    \\/     M anipulation  |                                                 |
\*---------------------------------------------------------------------------*/
FoamFile
{
    version     2.0;
    format      ascii;
    arch        "LSB;label=32;scalar=64";
    class       volScalarField;
    location    "25000/rock";
    object      T;
}
// * * * * * * * * * * * * * * * * * * * * * * * * * * * * * * * * * * * * * //

dimensions      [0 0 0 1 0 0 0];

internalField   nonuniform List<scalar> 
16000
(
317.74954
306.98373
301.16517
297.54048
295.0787
293.30699
291.97754
290.94787
290.13027
289.46784
288.9221
288.46615
288.08064
287.75131
287.46744
287.22083
287.00511
286.81524
286.64722
286.49783
286.36441
286.24481
286.13724
286.04018
285.95238
285.87276
285.80042
285.73455
285.67449
285.61964
285.56946
285.5235
285.48134
285.44256
285.4068
285.37367
285.34275
285.31357
285.28546
285.25732
320.43468
309.71016
303.49922
299.51401
296.76703
294.77317
293.26892
292.09953
291.16849
290.41262
289.78894
289.26723
288.82567
288.44815
288.12252
287.83947
287.59174
287.37362
287.18053
287.00878
286.85536
286.7178
286.59404
286.48236
286.38131
286.28967
286.20639
286.13056
286.06141
285.99825
285.94048
285.88757
285.83902
285.7944
285.75325
285.71517
285.67968
285.64628
285.61431
285.58287
321.96974
311.71884
305.42494
301.24314
298.29967
296.13473
294.48687
293.19782
292.1668
291.32684
290.63189
290.04931
289.55536
289.13243
288.7672
288.44939
288.17101
287.92571
287.70842
287.51504
287.34222
287.18719
287.04766
286.92171
286.80772
286.70431
286.61032
286.52472
286.44665
286.37534
286.31012
286.25038
286.19558
286.14523
286.09884
286.05596
286.01609
285.97873
285.94328
285.90904
322.95363
313.23007
307.00935
302.74587
299.67927
297.38964
295.62819
294.23951
293.12228
292.20797
291.44881
290.81056
290.26816
289.80284
289.40035
289.04964
288.74208
288.4708
288.23028
288.01607
287.8245
287.65255
287.49772
287.35789
287.23129
287.1164
287.01194
286.9168
286.83
286.75071
286.67818
286.61176
286.55086
286.49491
286.44342
286.3959
286.35185
286.31075
286.2721
286.23533
323.64526
314.40175
308.32233
304.05012
300.91597
298.5407
296.69271
295.2233
294.03329
293.05434
292.23812
291.54959
290.96282
290.45829
290.02102
289.63938
289.30422
289.00823
288.74553
288.51134
288.30174
288.11347
287.94384
287.79056
287.65172
287.52567
287.41102
287.30656
287.21125
287.12416
287.0445
286.97156
286.90469
286.8433
286.78686
286.73485
286.68678
286.64215
286.60049
286.56136
324.1662
315.33818
309.42341
305.18568
302.02367
299.5939
297.68258
296.14951
294.89929
293.86507
292.99884
292.26539
291.63842
291.0979
290.62842
290.2179
289.85679
289.53743
289.25366
289.00041
288.77354
288.56959
288.3857
288.21943
288.06873
287.93186
287.80731
287.69379
287.59019
287.49551
287.4089
287.3296
287.25692
287.19024
287.129
287.07266
287.02072
286.97272
286.92822
286.88682
324.57871
316.10728
310.35942
306.18009
303.0174
300.55701
298.60156
297.01973
295.72072
294.63997
293.73048
292.95736
292.29428
291.72103
291.22193
290.78461
290.39925
290.05792
289.75421
289.48286
289.23952
289.02056
288.82298
288.6442
288.48207
288.33473
288.20059
288.07829
287.96663
287.86458
287.77121
287.68573
287.6074
287.53558
287.46968
287.40916
287.35351
287.30227
287.25504
287.21146
324.91751
316.75381
311.16595
307.05712
303.91172
301.43851
299.45436
297.8364
296.49871
295.37943
294.433
293.62521
292.93
292.32722
291.80108
291.33907
290.93117
290.56928
290.24682
289.95834
289.69935
289.46608
289.2554
289.06462
288.89149
288.73405
288.59066
288.45985
288.34039
288.23118
288.13126
288.03977
287.95597
287.87917
287.80876
287.74419
287.68495
287.6306
287.58074
287.53503
325.20344
317.30798
311.86979
307.83653
304.71989
302.24682
300.24612
298.60256
297.23495
296.0843
295.10673
294.26896
293.54544
292.91622
292.36556
291.88092
291.4522
291.07118
290.73114
290.42654
290.15274
289.90588
289.6827
289.48045
289.29676
289.12963
288.97731
288.8383
288.7113
288.59517
288.48889
288.39159
288.30248
288.22085
288.14607
288.07759
288.01489
287.95753
287.90512
287.85734
325.44987
317.79076
312.49111
308.53444
305.45361
302.98993
300.98208
299.32152
297.93147
296.75577
295.7523
294.8889
294.14064
293.48792
292.91519
292.40995
291.96209
291.56335
291.20693
290.88719
290.59944
290.33971
290.10466
289.89146
289.69769
289.52125
289.36036
289.21346
289.07919
288.95637
288.84395
288.74103
288.64678
288.56048
288.48148
288.40921
288.34317
288.28289
288.228
288.17818
325.66579
318.21708
313.04524
309.16392
306.12294
303.67512
301.66731
299.99671
298.59051
297.39524
296.37056
295.48549
294.71581
294.04238
293.4499
292.92602
292.46066
292.04559
291.67396
291.3401
291.03924
290.76737
290.52108
290.29748
290.09408
289.90875
289.73965
289.58516
289.4439
289.31463
289.1963
289.08794
288.98873
288.89791
288.81483
288.73891
288.66962
288.60651
288.54921
288.49739
325.85755
318.59788
313.54397
309.73554
306.73646
304.30895
302.3066
300.63151
299.2144
298.00428
296.96255
296.05937
295.27132
294.57978
293.96976
293.4291
292.94784
292.51778
292.1321
291.7851
291.47198
291.18869
290.93179
290.69833
290.48579
290.29198
290.11501
289.95326
289.80528
289.66982
289.54578
289.43219
289.32819
289.23301
289.14599
289.06652
288.99409
288.92824
288.86859
288.81481
326.02977
318.94134
313.99646
310.25788
307.30146
304.89721
302.90435
301.22917
299.80548
298.58454
297.52937
296.61128
295.80765
295.1004
294.4749
293.91923
293.42359
292.97985
292.58123
292.22205
291.89751
291.60353
291.33664
291.09387
290.87265
290.67077
290.48632
290.31762
290.1632
290.0218
289.89228
289.77365
289.66503
289.56564
289.47481
289.39192
289.31645
289.24794
289.18599
289.13028
326.18591
319.25373
314.40991
310.73793
307.82407
305.44496
303.46457
301.79275
300.36603
299.13768
298.07222
297.14206
296.32536
295.60459
294.96554
294.39653
293.88795
293.43178
293.02131
292.65089
292.31574
292.01177
291.73551
291.48396
291.25454
291.04501
290.85343
290.67811
290.51754
290.37045
290.23566
290.11219
289.99913
289.89569
289.80118
289.71498
289.63656
289.56545
289.50126
289.44366
326.32861
319.53993
314.79008
311.18144
308.30951
305.95663
303.99086
302.32511
300.89824
299.66535
298.59232
297.65258
296.82506
296.0928
295.44196
294.86117
294.34101
293.8736
293.45231
293.07156
292.72659
292.41333
292.12831
291.86852
291.63136
291.4146
291.21625
291.03461
290.86819
290.71564
290.57582
290.4477
290.33037
290.22303
290.12497
290.03558
289.9543
289.88067
289.81429
289.75482
326.45994
319.80378
315.14161
311.59314
308.76217
306.43609
304.48645
302.82884
301.40418
300.16914
299.09087
298.14375
297.30743
296.56548
295.90449
295.31337
294.7829
294.30538
293.87427
293.48406
293.13003
292.80816
292.51496
292.24745
292.00302
291.77942
291.57467
291.38704
291.21503
291.05729
290.91265
290.78007
290.65864
290.54755
290.44607
290.35359
290.26954
290.19347
290.12495
290.06364
326.58156
320.04841
315.46829
311.97697
309.18581
306.88668
304.95423
303.30635
301.88577
300.6506
299.56908
298.61649
297.77315
297.02316
296.3535
295.75337
295.2138
294.72722
294.28723
293.88839
293.52605
293.19621
292.89541
292.62069
292.36944
292.1394
291.9286
291.73529
291.55797
291.39528
291.24604
291.1092
290.98384
290.86914
290.76437
290.66891
290.58219
290.50373
290.43312
290.37001
326.69479
320.27633
315.77324
312.33623
309.58363
307.31133
305.39675
303.7598
302.34481
301.11116
300.0281
299.0717
298.22293
297.46636
296.78938
296.18148
295.63391
295.13927
294.69128
294.28461
293.91465
293.57747
293.26963
292.98819
292.73056
292.49447
292.27797
292.0793
291.89694
291.72954
291.57592
291.43501
291.30588
291.18771
291.07978
290.98144
290.89212
290.81135
290.7387
290.67382
326.8007
320.48961
316.05904
312.67371
309.95836
307.71259
305.81628
304.19116
302.78297
301.5522
300.46903
299.51027
298.65745
297.89563
297.21255
296.59801
296.04346
295.54168
295.08653
294.67277
294.29587
293.95194
293.63761
293.34993
293.08634
292.84459
292.62271
292.41898
292.23186
292.05999
291.90219
291.75739
291.62467
291.50318
291.3922
291.29108
291.19926
291.11624
291.0416
290.97497
326.90019
320.68997
316.32788
312.99175
310.31235
308.09268
306.21484
304.6022
303.20175
301.975
300.89294
299.93305
299.07741
298.31151
297.62343
297.00327
296.44268
295.93463
295.47311
295.05296
294.66976
294.31966
293.99934
293.70588
293.43674
293.1897
292.96279
292.75429
292.56266
292.38656
292.22479
292.07629
291.94012
291.81546
291.70155
291.59776
291.50351
291.4183
291.34172
291.27337
326.994
320.87887
316.58159
313.29239
310.64766
308.45356
306.59423
304.99452
303.60255
302.38074
301.30082
300.34087
299.48348
298.71454
298.02246
297.3976
296.83185
296.31832
295.85115
295.42529
295.03638
294.68066
294.35484
294.05605
293.78176
293.52978
293.29816
293.08517
292.88929
292.70919
292.54365
292.39163
292.25218
292.12446
292.00775
291.90138
291.80479
291.71746
291.63897
291.56895
327.08274
321.05751
316.82174
313.57734
310.96604
308.79694
306.95605
305.36957
303.98665
302.77053
301.69361
300.73452
299.87631
299.10525
298.41006
297.78136
297.21123
296.69296
296.22081
295.78986
295.39582
295.03499
294.70414
294.40044
294.12139
293.86482
293.62878
293.41159
293.21171
293.02782
292.85872
292.70335
292.56077
292.43014
292.31073
292.20188
292.10302
292.01364
291.9333
291.86162
327.16693
321.22694
317.04966
313.84811
311.26905
309.12432
307.30172
305.72865
304.35521
303.14539
302.07219
301.11474
300.25653
299.48416
298.78666
298.15488
297.58109
297.05876
296.58228
296.14681
295.74817
295.38272
295.04728
294.73907
294.45562
294.19479
293.95465
293.73352
293.52989
293.34242
293.16994
293.01139
292.86583
292.73242
292.61043
292.4992
292.39814
292.30676
292.22461
292.15131
327.24702
321.38805
317.26651
314.10599
311.55802
309.43705
307.63251
306.07294
304.7093
303.50626
302.43737
301.48225
300.62473
299.85179
299.15269
298.51851
297.94173
297.41595
296.93571
296.49627
296.09353
295.72392
295.38432
295.07198
294.78448
294.5197
294.27574
294.05093
293.84378
293.65295
293.47728
293.31572
293.16732
293.03126
292.90679
292.79326
292.69009
292.59678
292.51286
292.43797
327.32338
321.5416
317.47328
314.35211
311.83415
309.73631
307.94955
306.4035
305.04988
303.854
302.78994
301.8377
300.9815
300.2086
299.50853
298.87258
298.29341
297.76476
297.28129
296.83838
296.432
296.05867
295.7153
295.3992
295.10799
294.83957
294.59206
294.36382
294.15337
293.95939
293.78071
293.61629
293.46519
293.3266
293.19976
293.08403
292.97882
292.88362
292.79798
292.72153
327.39635
321.68826
317.67086
314.58747
312.09848
310.02314
308.25387
306.72128
305.37785
304.18943
303.13059
302.18173
301.32738
300.55508
299.8546
299.21744
298.63641
298.10541
297.61922
297.1733
296.76372
296.38706
296.0403
295.72079
295.42618
295.1544
294.90362
294.67218
294.45864
294.2617
294.08018
293.91306
293.75941
293.6184
293.48929
293.37144
293.26426
293.16724
293.07993
293.00194
327.4662
321.82861
317.86
314.81294
312.35193
310.29849
308.54639
307.02717
305.694
304.51329
303.46
302.51492
301.66287
300.89167
300.19128
299.5534
298.97101
298.43814
297.94967
297.50117
297.0888
296.7092
296.35939
296.03679
295.73908
295.46422
295.21041
294.97601
294.7596
294.55987
294.37569
294.20601
294.04994
293.90663
293.77536
293.65547
293.54639
293.4476
293.35865
293.27915
327.53319
321.96315
318.04138
315.02929
312.59534
310.56319
308.82792
307.32195
305.99909
304.82624
303.77878
302.83782
301.98848
301.21878
300.51894
299.88079
299.29747
298.76316
298.27283
297.82216
297.40737
297.02517
296.67265
296.34727
296.04674
295.76907
295.51246
295.27532
295.05622
294.8539
294.66721
294.49513
294.33675
294.19125
294.05791
293.93607
293.82516
293.72466
293.63412
293.55314
327.59752
322.09234
318.2156
315.2372
312.82944
310.818
309.09921
307.60633
306.29378
305.12892
304.08751
303.15096
302.30465
301.53684
300.83792
300.1999
299.61607
299.0807
298.5889
298.13641
297.71956
297.33509
296.98017
296.65229
296.34921
296.06897
295.80979
295.57012
295.34853
295.14378
294.95473
294.78038
294.61983
294.47225
294.33693
294.21322
294.10054
293.99838
293.90628
293.82385
327.65941
322.21658
318.38318
315.43729
313.05488
311.06359
309.36093
307.88097
306.57869
305.42191
304.38671
303.45481
302.61183
301.84622
301.14857
300.51104
299.92704
299.39098
298.89805
298.44409
298.02549
297.63906
297.28203
296.95192
296.64654
296.36396
296.10244
295.86042
295.63652
295.42951
295.23826
295.06177
294.89916
294.74961
294.6124
294.48689
294.37251
294.26874
294.17512
294.09127
327.71901
322.33622
318.5446
315.63011
313.27226
311.30056
309.61369
308.14646
306.8544
305.70573
304.67688
303.74982
302.91041
302.14729
301.45122
300.81449
300.23065
299.69422
299.20048
298.74536
298.3253
297.9372
297.57832
297.24623
296.9388
296.65409
296.39042
296.14626
295.92022
295.7111
295.51778
295.33929
295.17473
295.0233
294.88429
294.75706
294.64103
294.5357
294.44061
294.35536
327.77649
322.45157
318.70027
315.81614
313.4821
311.52948
309.85805
308.40335
307.12143
305.98089
304.95849
304.03643
303.20079
302.4404
301.74616
301.11052
300.52714
299.99062
299.49636
299.04036
298.61912
298.22961
297.86913
297.53531
297.22603
296.93942
296.67379
296.42765
296.19964
295.98856
295.79331
295.61293
295.44653
295.29332
295.15259
295.02371
294.9061
294.79926
294.70273
294.61612
327.83199
322.56293
318.85058
315.99583
313.68488
311.75084
310.0945
308.65213
307.38025
306.24784
305.23194
304.31502
303.48332
302.72587
302.03371
301.3994
300.81673
300.2804
299.78588
299.32924
298.90708
298.5164
298.15456
297.81922
297.50831
297.21998
296.95258
296.70463
296.4748
296.2619
296.06486
295.8827
295.71456
295.55966
295.4173
295.28683
295.1677
295.0594
294.96147
294.87351
327.88562
322.67056
318.99587
316.16958
313.88105
311.96508
310.32351
308.89325
307.6313
306.507
305.49766
304.58596
303.75835
303.00402
302.31412
301.68137
301.09964
300.56373
300.06919
299.61217
299.18932
298.79769
298.4347
298.09804
297.7857
297.49583
297.22683
296.97723
296.74573
296.53115
296.33242
296.14861
295.97883
295.82233
295.6784
295.54642
295.42582
295.3161
295.2168
295.12753
327.93752
322.77467
319.13644
316.33774
314.07099
312.17264
310.5455
309.12713
307.87499
306.75876
305.75599
304.84959
304.0262
303.27513
302.58769
301.95669
301.3761
300.84083
300.34649
299.88929
299.46596
299.07359
298.70964
298.37187
298.05826
297.76704
297.49659
297.2455
297.01246
296.79632
296.59603
296.41066
296.23934
296.08132
295.93591
295.80247
295.68046
295.56936
295.46873
295.37817
327.98777
322.87548
319.27259
316.50064
314.25506
312.37388
310.76085
309.35416
308.11171
307.00347
306.00729
305.10625
304.28716
303.53948
302.85464
302.22556
301.64631
301.11186
300.61792
300.16075
299.73712
299.34421
298.97949
298.64078
298.32608
298.03365
297.76192
297.50946
297.27502
297.05744
296.8557
296.66887
296.4961
296.33665
296.18981
296.05499
295.93161
295.81918
295.71725
295.62542
328.03647
322.97319
319.40456
316.65859
314.4336
312.56915
310.96992
309.57469
308.34178
307.24148
306.25187
305.35623
304.54152
303.79735
303.11524
302.48823
301.91047
301.37702
300.88364
300.42668
300.00294
299.60965
299.24434
298.90485
298.58922
298.29574
298.02285
297.76917
297.53344
297.31454
297.11145
296.92326
296.74913
296.58831
296.44013
296.30396
296.17927
296.06555
295.96236
295.86929
328.08372
323.06797
319.53259
316.81186
314.6069
312.75876
311.17302
309.78904
308.56553
307.4731
306.49004
305.59982
304.78955
304.04896
303.3697
302.74489
302.16877
301.63647
301.14382
300.68722
300.26354
299.87003
299.50429
299.16416
298.84775
298.55335
298.27944
298.02466
297.78777
297.56765
297.36332
297.17385
296.99843
296.83633
296.68686
296.54942
296.42346
296.30849
296.20406
296.10978
328.12958
323.15998
319.65689
316.96069
314.77523
312.94301
311.37046
309.99751
308.78327
307.69862
306.72207
305.83727
305.03149
304.29456
303.61824
302.99575
302.42139
301.89038
301.3986
300.94251
300.51903
300.12546
299.75942
299.4188
299.10174
298.80656
298.53176
298.27599
298.03803
297.81681
297.61131
297.42066
297.24404
297.08071
296.93002
296.79135
296.66417
296.54799
296.44236
296.34688
328.17414
323.24936
319.77766
317.10532
314.93885
313.12216
311.56251
310.20039
308.99526
307.9183
306.94822
306.06885
305.26758
304.53437
303.86107
303.24099
302.66851
302.13891
301.64813
301.19268
300.76953
300.37603
300.00983
299.66886
299.35127
299.05542
298.77984
298.52319
298.28428
298.06204
297.85548
297.66372
297.48596
297.32148
297.16962
297.02978
296.90143
296.78407
296.67727
296.58062
328.21746
323.33624
319.89507
317.24596
315.098
313.29646
311.74943
310.39792
309.20176
308.13239
307.16874
306.29478
305.49804
304.76859
304.09839
303.4808
302.9103
302.38221
301.89254
301.43786
301.01517
300.62185
300.25561
299.9144
299.59641
299.30001
299.02375
298.76633
298.52656
298.30338
298.09584
297.90305
297.72423
297.55866
297.40569
297.26472
297.13524
297.01674
296.9088
296.811
328.2596
323.42076
320.00928
317.3828
315.25288
313.46613
311.93146
310.59035
309.40301
308.34114
307.38385
306.51529
305.72309
304.99744
304.33037
303.71535
303.1469
302.62043
302.13198
301.67816
301.25604
300.86303
300.49686
300.15552
299.83723
299.54038
299.26355
299.00545
298.76491
298.54089
298.33243
298.13868
297.95886
297.79226
297.63823
297.4962
297.36562
297.24601
297.13695
297.03804
328.30061
323.50302
320.12046
317.51601
315.40369
313.6314
312.1088
310.7779
309.59924
308.54476
307.59377
306.73057
305.94291
305.22108
304.5572
303.9448
303.37849
302.85371
302.36657
301.91372
301.49227
301.09966
300.73366
300.3923
300.07381
299.77661
299.49929
299.2406
298.99937
298.77458
298.56529
298.37066
298.1899
298.02232
297.86729
297.72422
297.59258
297.47191
297.36176
297.26175
328.34055
323.58313
320.22874
317.64578
315.55062
313.79245
312.28167
310.96077
309.79064
308.74345
307.7987
306.94082
306.1577
305.4397
304.77904
304.16932
303.60521
303.08219
302.59644
302.14465
301.72395
301.33184
300.96611
300.62481
300.30621
300.00875
299.73104
299.47183
299.22999
299.00451
298.79446
298.599
298.41736
298.24886
298.09287
297.94881
297.81616
297.69445
297.58324
297.48214
328.37947
323.66119
320.33426
317.77224
315.69384
313.94946
312.45025
311.13917
309.97742
308.93742
307.99883
307.14624
306.36763
305.65347
304.99606
304.38906
303.82719
303.306
302.82171
302.37105
301.95119
301.55966
301.19428
300.85314
300.53451
300.23687
299.95884
299.6992
299.45683
299.23072
299.01997
298.82374
298.64128
298.47191
298.31501
298.17
298.03637
297.91364
297.8014
297.69925
328.41742
323.73728
320.43712
317.89554
315.8335
314.10261
312.61473
311.31326
310.15975
309.12682
308.19433
307.34698
306.57286
305.86255
305.2084
304.60415
304.04457
303.52527
303.0425
302.59304
302.17409
301.78322
301.41827
301.07735
300.75878
300.46103
300.18276
299.92276
299.67992
299.45326
299.24186
299.04492
298.8617
298.6915
298.53373
298.38781
298.25323
298.12953
298.01627
297.91308
328.45442
323.81149
320.53745
318.01581
315.96976
314.25205
312.77525
311.48323
310.3378
309.31185
308.38537
307.54321
306.77356
306.06709
305.41621
304.81473
304.25748
303.74012
303.25892
302.81072
302.39275
302.0026
301.63816
301.29754
300.97908
300.6813
300.40286
300.14256
299.89932
299.67216
299.46018
299.26258
299.07864
298.90767
298.74906
298.60227
298.46678
298.34212
298.22788
298.12367
328.49053
323.8839
320.63534
318.13318
316.10274
314.39793
312.93199
311.64922
310.51174
309.49265
308.57211
307.73508
306.96988
306.26722
305.61963
305.02094
304.46605
303.95066
303.47109
303.0242
302.60726
302.2179
301.85402
301.51377
301.1955
300.89775
300.6192
300.35866
300.11507
299.88747
299.67496
299.47676
299.29214
299.12043
298.96104
298.81341
298.67703
298.55145
298.43625
298.33104
328.52578
323.95458
320.73091
318.24776
316.23258
314.54039
313.08508
311.81138
310.68171
309.66938
308.75469
307.92275
307.16195
306.4631
305.81878
305.2229
304.6704
304.157
303.6791
303.23357
302.81772
302.4292
302.06594
301.72611
301.40809
301.11043
300.83182
300.57111
300.32723
300.09924
299.88625
299.68749
299.50224
299.32984
299.16969
299.02125
298.88402
298.75755
298.64141
298.53522
328.5602
324.0236
320.82422
318.35967
316.3594
314.67955
313.23465
311.96985
310.84786
309.84217
308.93326
308.10634
307.34991
306.65485
306.0138
305.42073
304.87063
304.35927
303.88306
303.43893
303.02422
302.63659
302.274
301.93464
301.61692
301.31941
301.0408
300.77997
300.53585
300.30751
300.09409
299.89481
299.70897
299.53591
299.37505
299.22584
299.08779
298.96044
298.84338
298.73623
328.59383
324.09101
320.91538
318.46899
316.48332
314.81554
313.38084
312.12477
311.01031
310.01116
309.10795
308.28599
307.53388
306.84258
306.2048
305.61454
305.06685
304.55755
304.08307
303.64038
303.22684
302.84014
302.47827
302.13944
301.82207
301.52474
301.24619
300.98528
300.74097
300.51233
300.29852
300.09877
299.91238
299.7387
299.57715
299.4272
299.28835
299.16015
299.0422
298.93411
328.62669
324.15689
321.00446
318.57583
316.60442
314.94847
313.52377
312.27625
311.16919
310.17648
309.27887
308.46182
307.71399
307.02643
306.39189
305.80445
305.25918
304.75195
304.27922
303.838
303.42566
303.03994
302.67883
302.34057
302.02359
301.7265
301.44805
301.1871
300.94264
300.71375
300.49959
300.29941
300.1125
299.93823
299.77603
299.62536
299.48574
299.35672
299.23789
299.12888
328.65881
324.22128
321.09154
318.68026
316.72282
315.07845
313.66353
312.42442
311.32463
310.33823
309.44616
308.63394
307.89035
307.2065
306.57519
305.99056
305.44771
304.94256
304.47161
304.03188
303.62078
303.23606
302.87575
302.5381
302.22156
301.92475
301.64643
301.38549
301.14092
300.91182
300.69735
300.49676
300.30937
300.13455
299.97172
299.82037
299.68
299.55018
299.4305
299.32058
328.69022
324.28425
321.17668
318.78239
316.83861
315.20557
313.80025
312.56937
311.47672
310.49655
309.60992
308.80248
308.06308
307.38289
306.7548
306.17296
305.63255
305.12948
304.66032
304.2221
303.81227
303.42859
303.0691
302.73209
302.41602
302.11953
301.84139
301.58049
301.33585
301.10657
300.89182
300.69087
300.50303
300.32769
300.16427
300.01225
299.87116
299.74056
299.62004
299.50923
328.72094
324.34582
321.25995
318.88228
316.95187
315.32993
313.93402
312.71122
311.62558
310.65153
309.77026
308.96753
308.23227
307.55572
306.93081
306.35176
305.81377
305.3128
304.84544
304.40875
304.0002
303.61758
303.25896
302.92262
302.60706
302.31091
302.03298
301.77217
301.52749
301.29806
301.08307
300.88178
300.69353
300.51768
300.35369
300.20104
300.05926
299.92789
299.80656
299.69488
328.75099
324.40606
321.34142
318.98001
317.06269
315.45163
314.06493
312.85006
311.7713
310.80327
309.92728
309.12919
308.39802
307.72507
307.10333
306.52705
305.99147
305.49261
305.02705
304.59191
304.18466
303.80313
303.44539
303.10975
302.79472
302.49896
302.22126
301.96056
301.71588
301.48634
301.27113
301.06954
300.88089
300.70458
300.54005
300.38678
300.24432
300.11222
299.99008
299.87755
328.7804
324.46501
321.42113
319.07565
317.17115
315.57074
314.19308
312.98599
311.91398
310.95186
310.08108
309.28757
308.56044
307.89105
307.27244
306.69891
306.16574
305.66897
305.20523
304.77164
304.36572
303.98528
303.62845
303.29354
302.97907
302.68372
302.40629
302.14573
301.90108
301.67145
301.45606
301.25419
301.06517
300.88842
300.72336
300.56951
300.42639
300.29357
300.17065
300.05728
328.80919
324.5227
321.49916
319.16926
317.27732
315.68734
314.31855
313.11909
312.05372
311.09741
310.23174
309.44275
308.7196
308.05373
307.43823
306.86744
306.33667
305.84199
305.38006
304.94804
304.54344
304.16413
303.80822
303.47406
303.16017
302.86525
302.58812
302.32773
302.08312
301.85343
301.63789
301.43576
301.24641
301.06923
300.90368
300.74926
300.6055
300.47198
300.3483
300.2341
328.83737
324.57918
321.57555
319.26091
317.38127
315.80152
314.44141
313.24944
312.19059
311.24
310.37936
309.59482
308.87561
308.21322
307.60079
307.03271
306.50432
306.01173
305.55162
305.12116
304.7179
304.33972
303.98475
303.65136
303.33808
303.04361
302.7668
302.5066
302.26207
302.03235
301.81666
301.61431
301.42464
301.24706
301.08104
300.92607
300.78169
300.64748
300.52306
300.40806
328.86497
324.63449
321.65034
319.35065
317.48306
315.91334
314.56175
313.37713
312.32468
311.37971
310.52403
309.74386
309.02853
308.36958
307.76019
307.1948
306.66878
306.17826
305.71997
305.29107
304.88916
304.51213
304.15812
303.8255
303.51285
303.21886
302.94239
302.6824
302.43796
302.20823
301.99243
301.78987
301.59991
301.42195
301.25547
301.09997
300.955
300.82012
300.69497
300.57917
328.892
324.68865
321.72359
319.43855
317.58276
316.02287
314.67964
313.50222
312.45607
311.51662
310.66581
309.88995
309.17845
308.52289
307.91652
307.35379
306.83012
306.34167
305.88518
305.45786
305.0573
304.68142
304.32837
303.99655
303.68454
303.39104
303.11493
302.85517
302.61085
302.38113
302.16524
301.96249
301.77225
301.59394
301.42702
301.27101
301.12545
300.98993
300.86406
300.74749
328.91848
324.7417
321.79535
319.52465
317.68044
316.13018
314.79514
313.6248
312.58482
311.6508
310.80478
310.03318
309.32545
308.67324
308.06984
307.50975
306.98842
306.50202
306.04733
305.62157
305.22237
304.84764
304.49557
304.16457
303.8532
303.56021
303.28448
303.02497
302.78079
302.55109
302.33513
302.13222
301.94172
301.76307
301.59573
301.43923
301.2931
301.15695
301.03038
300.91304
328.94442
324.79368
321.86565
319.60901
317.77614
316.23532
314.90833
313.74494
312.71102
311.78233
310.94103
310.17361
309.46959
308.8207
308.22024
307.66276
307.14373
306.65938
306.20648
305.78229
305.38444
305.01087
304.65978
304.32959
304.01889
303.72643
303.45108
303.19185
302.94782
302.71816
302.50215
302.29908
302.10835
301.92937
301.76164
301.60465
301.45798
301.32121
301.19396
301.07587
328.96984
324.84461
321.93453
319.69167
317.86992
316.33837
315.01926
313.86268
312.83472
311.91127
311.07461
310.31131
309.61096
308.96532
308.36777
307.81287
307.29614
306.81381
306.36269
305.94006
305.54356
305.17116
304.82106
304.49169
304.18167
303.88974
303.6148
303.35584
303.11198
302.88239
302.66633
302.46313
302.27218
302.0929
301.92478
301.76733
301.62013
301.48275
301.35483
301.23601
328.99475
324.89453
322.00204
319.77268
317.96183
316.43937
315.128
313.97811
312.95599
312.0377
311.20559
310.44635
309.74961
309.10719
308.51251
307.96016
307.4457
306.96537
306.51603
306.09495
305.6998
305.32856
304.97945
304.65092
304.34158
304.05019
303.77566
303.51701
303.27332
303.04381
302.82773
302.62441
302.43325
302.25368
302.08519
301.9273
301.77957
301.64161
301.51303
301.39349
329.01917
324.94345
322.06821
319.85209
318.05193
316.53837
315.23459
314.09127
313.0749
312.16167
311.33405
310.57879
309.88561
309.24637
308.65451
308.10469
307.59247
307.11414
306.66655
306.24701
305.85321
305.48313
305.13502
304.80733
304.49867
304.20784
303.93374
303.67539
303.4319
303.20247
302.98638
302.78296
302.59161
302.41176
302.24291
302.08459
301.93636
301.79782
301.6686
301.54835
329.04311
324.99141
322.13308
319.92994
318.14025
316.63544
315.33911
314.20224
313.1915
312.28324
311.46004
310.70871
310.01903
309.38291
308.79385
308.24653
307.73653
307.26016
306.81432
306.39631
306.00385
305.63494
305.28782
304.96096
304.653
304.36273
304.08906
303.83103
303.58775
303.35842
303.14233
302.93882
302.74729
302.56718
302.39799
302.23925
302.09053
301.95143
301.82158
301.70063
329.06659
325.03843
322.19667
320.00626
318.22685
316.73061
315.44159
314.31105
313.30586
312.40248
311.58362
310.83615
310.14992
309.51689
308.93058
308.38572
307.87791
307.4035
306.95938
306.5429
306.15178
305.78402
305.43789
305.11188
304.80462
304.51491
304.24169
303.98398
303.74091
303.5117
303.29562
303.09204
302.90034
302.71998
302.55046
302.39131
302.24211
302.10247
301.972
301.85037
329.0896
325.08453
322.25903
320.0811
318.31177
316.82394
315.5421
314.41777
313.41801
312.51944
311.70484
310.96118
310.27834
309.64835
309.06476
308.52233
308.01669
307.54421
307.10181
306.68684
306.29704
305.93043
305.5853
305.26012
304.95357
304.66443
304.39166
304.13428
303.89144
303.66235
303.4463
303.24264
303.05079
302.87019
302.70036
302.54082
302.39115
302.25097
302.1199
301.9976
329.11217
325.12974
322.32018
320.15449
318.39505
316.91548
315.64067
314.52244
313.52803
312.63418
311.82377
311.08384
310.40435
309.77735
309.19645
308.65641
308.15292
307.68235
307.24164
306.82817
306.43968
306.07422
305.73008
305.40575
305.0999
304.81134
304.53902
304.28198
304.03937
303.81041
303.59439
303.39068
303.19868
303.01786
302.84772
302.6878
302.53768
302.39697
302.26531
302.14236
329.13431
325.17408
322.38015
320.22647
318.47673
317.00525
315.73736
314.62511
313.63595
312.74674
311.94045
311.2042
310.528
309.90395
309.32569
308.78802
308.28665
307.81797
307.37894
306.96695
306.57977
306.21545
305.87229
305.5488
305.24365
304.95567
304.68381
304.42712
304.18474
303.95592
303.73995
303.53619
303.34406
303.16302
302.99259
302.8323
302.68174
302.54052
302.40828
302.28468
329.15603
325.21757
322.43897
320.29707
318.55685
317.09332
315.8322
314.72584
313.74183
312.85718
312.05494
311.32231
310.64935
310.0282
309.45254
308.91721
308.41793
307.95111
307.51374
307.10323
306.71735
306.35416
306.01198
305.68933
305.38488
305.09748
304.82608
304.56974
304.32761
304.09893
303.88301
303.67922
303.48696
303.30572
303.135
302.97435
302.82336
302.68164
302.54883
302.4246
329.17733
325.26023
322.49668
320.36632
318.63545
317.17971
315.92525
314.82466
313.84572
312.96554
312.16729
311.43821
310.76844
310.15015
309.57706
309.04403
308.54681
308.08184
307.64611
307.23705
306.85246
306.49039
306.14919
305.82737
305.52363
305.23681
304.96587
304.70988
304.46801
304.23948
304.02362
303.8198
303.62743
303.44599
303.27499
303.114
302.96259
302.82038
302.68701
302.56216
329.19822
325.30208
322.55328
320.43426
318.71255
317.26447
316.01654
314.92162
313.94765
313.07187
312.27753
311.55196
310.88532
310.26985
309.69929
309.16853
308.67334
308.21019
307.77609
307.36848
306.98515
306.6242