/*--------------------------------*- C++ -*----------------------------------*\
| =========                 |                                                 |
| \\      /  F ield         | OpenFOAM: The Open Source CFD Toolbox           |
|  \\    /   O peration     | Version:  2506                                  |
|   \\  /    A nd           | Website:  www.openfoam.com                      |
|    \\/     M anipulation  |                                                 |
\*---------------------------------------------------------------------------*/
FoamFile
{
    version     2.0;
    format      ascii;
    arch        "LSB;label=32;scalar=64";
    class       volScalarField;
    location    "1000/water";
    object      alphat;
}
// * * * * * * * * * * * * * * * * * * * * * * * * * * * * * * * * * * * * * //

dimensions      [1 -1 -1 0 0 0 0];

internalField   nonuniform List<scalar> 
2600
(
0.040489031
0.04048893
0.040488932
0.040488969
0.04048893
0.040488424
0.040485257
0.04046703
0.040362559
0.039762099
0.036475623
0.024118064
0.014862723
0.039376404
0.039376463
0.039376584
0.03937667
0.03937627
0.039373342
0.039357935
0.03928206
0.038918252
0.037247647
0.030707814
0.017504579
0.016810247
0.03845331
0.038453299
0.038453385
0.038453188
0.038451259
0.038441479
0.038397507
0.038208927
0.037432867
0.034484227
0.025768479
0.01464355
0.017680736
0.037674097
0.037673994
0.037673876
0.037672833
0.03766736
0.037643826
0.037549741
0.037190974
0.035896577
0.031717985
0.022022178
0.013507107
0.017935556
0.037006829
0.037006634
0.03700605
0.037003229
0.036991211
0.03694503
0.036777672
0.036201229
0.034343725
0.029136321
0.019390213
0.01332192
0.01787019
0.036428097
0.036427705
0.036426239
0.036420305
0.036397905
0.036319194
0.03605724
0.035231095
0.03281421
0.026833154
0.017684561
0.01376901
0.017658004
0.035920433
0.035919673
0.03591673
0.035905979
0.035868817
0.035747845
0.035374204
0.034281783
0.031338745
0.024847734
0.016751764
0.014701365
0.017395975
0.035470606
0.03546924
0.035464057
0.035446499
0.035390052
0.035218253
0.034721129
0.033357857
0.029935921
0.02320089
0.016491475
0.016024754
0.017137191
0.035068412
0.03506614
0.035057811
0.035031314
0.034951338
0.034722033
0.034094772
0.032463227
0.028616047
0.021918168
0.016839593
0.01764423
0.016909598
0.034705855
0.034702323
0.034689851
0.034652315
0.034545228
0.034254009
0.03349406
0.031599319
0.027389013
0.021039007
0.017742707
0.01944683
0.016725717
0.034376582
0.0343714
0.034353768
0.03430331
0.034166516
0.033811296
0.032918607
0.030765036
0.026274288
0.020612421
0.019134169
0.021310298
0.0165878
0.034075484
0.034068256
0.034044512
0.033979658
0.033811775
0.033392551
0.032367695
0.029958513
0.025310237
0.020682514
0.02092045
0.023125093
0.01649134
0.03379842
0.033788771
0.033758129
0.033677993
0.033478994
0.032997353
0.031839672
0.029180919
0.024557973
0.021270679
0.022983308
0.024813262
0.016428198
0.033542011
0.033529635
0.033491576
0.033396025
0.033167279
0.032625685
0.031331905
0.02844226
0.024095307
0.022362409
0.025195919
0.026333969
0.016389375
0.033303501
0.033288203
0.033242589
0.033132389
0.0328766
0.032277488
0.030841496
0.027768047
0.024001078
0.023903801
0.027443846
0.027676786
0.016366908
0.033080659
0.033062404
0.03300959
0.032886524
0.032607559
0.031952311
0.030367144
0.027204004
0.02433601
0.025808535
0.029640409
0.028850257
0.01635471
0.032871707
0.032850677
0.032791627
0.032658586
0.032361164
0.031649138
0.029912405
0.026815113
0.025128026
0.027972561
0.031731262
0.029871995
0.016348606
0.032675278
0.032651931
0.032588332
0.032449362
0.032138606
0.031366538
0.029490156
0.026676984
0.02636662
0.030291378
0.033689749
0.030762439
0.016345973
0.032490392
0.032465523
0.0323999
0.032260198
0.031941021
0.031103392
0.02912715
0.026861559
0.028006319
0.032674378
0.035508202
0.031541614
0.016345289
0.03231644
0.032291251
0.032227075
0.032092906
0.0317693
0.030860474
0.028866523
0.027422393
0.029976611
0.035052626
0.037189756
0.032227633
0.016345749
0.032153193
0.032129365
0.032071151
0.03194966
0.031623986
0.030643052
0.028765902
0.028384667
0.032194874
0.037379728
0.038742713
0.03283612
0.016346971
0.032000817
0.031980587
0.031933965
0.031832869
0.031505423
0.030464306
0.02889021
0.029742269
0.034578895
0.039628039
0.040177388
0.03338011
0.016348812
0.031859898
0.031846136
0.031817892
0.031745018
0.031414333
0.030348688
0.029300796
0.031461309
0.037056243
0.04178322
0.041504536
0.033870256
0.016351246
0.031731488
0.031727775
0.031725824
0.031688525
0.031353059
0.03033369
0.030044463
0.033487924
0.03956915
0.043839374
0.042734578
0.034315152
0.016354289
0.031617156
0.031627852
0.031661123
0.031665646
0.031327616
0.030468391
0.031145811
0.035757862
0.042075206
0.045795593
0.043877213
0.034721702
0.016357969
0.031519059
0.031549348
0.031627545
0.031678558
0.031350386
0.030808116
0.032604584
0.038205563
0.044545297
0.047653852
0.044941234
0.035095454
0.016362308
0.03144002
0.031495925
0.031629136
0.031729781
0.031442847
0.031406233
0.034397782
0.040771061
0.046960464
0.04941777
0.045934484
0.035440886
0.01636731
0.031383622
0.031471952
0.031670108
0.031823119
0.031637179
0.032305488
0.03648515
0.043403916
0.049308923
0.051091864
0.046863895
0.035761637
0.016372969
0.03135431
0.031482518
0.031754744
0.031965285
0.031975484
0.033531428
0.038816233
0.046064361
0.051583769
0.052681066
0.047735561
0.036060692
0.016379266
0.031357497
0.031533412
0.031887427
0.032168112
0.032505946
0.035089409
0.041337345
0.04872249
0.053781403
0.054190403
0.048554837
0.036340517
0.016386174
0.03139966
0.031631057
0.032072921
0.032450915
0.033276475
0.036965351
0.043997168
0.051356523
0.055900494
0.055624809
0.04932644
0.036603249
0.016393659
0.031488426
0.031782428
0.03231711
0.032842099
0.034327511
0.039129416
0.046750332
0.053950901
0.057941208
0.056988873
0.05005408
0.036848497
0.016401672
0.031632621
0.031994973
0.032628308
0.033378944
0.035685989
0.041541301
0.049558967
0.056494685
0.05990472
0.058286906
0.050741229
0.037078062
0.016410157
0.031842264
0.03227662
0.033019162
0.034104839
0.037361929
0.044155837
0.052392716
0.058980327
0.061792817
0.059522759
0.051390028
0.037293994
0.016419061
0.032128529
0.032636021
0.033508771
0.03506418
0.039348111
0.046927807
0.05522786
0.061402784
0.063607643
0.060699938
0.052002678
0.037497696
0.016428334
0.032503669
0.033083204
0.034124296
0.036296099
0.041622403
0.049815358
0.058046135
0.063758861
0.065351546
0.061821638
0.05258258
0.037690194
0.016437945
0.032981001
0.033630795
0.034901057
0.037828731
0.044151814
0.052781868
0.060833584
0.066046678
0.067026699
0.062889499
0.053132467
0.03787253
0.016447871
0.033575093
0.034295802
0.035880362
0.039675445
0.046897151
0.055796501
0.063579596
0.068265328
0.068635565
0.063907352
0.0536543
0.038045473
0.016458088
0.034302366
0.035101602
0.037105064
0.041833715
0.049817341
0.058833928
0.066276148
0.070414388
0.070179104
0.064878394
0.054149992
0.038209782
0.016468569
0.035182275
0.03607935
0.038613756
0.044286497
0.052872728
0.06187359
0.068917169
0.072494019
0.071660183
0.065805206
0.054621162
0.038366083
0.016479288
0.036239039
0.037267807
0.040435149
0.047005428
0.056027169
0.064898909
0.07149802
0.074503814
0.073081477
0.066690096
0.055069324
0.038514916
0.016490218
0.037503414
0.038710785
0.042584039
0.049954857
0.059248932
0.067896459
0.074015177
0.076444637
0.074445472
0.067535115
0.055495817
0.038656741
0.016501334
0.039013498
0.040452265
0.045059714
0.053095828
0.062510843
0.070855331
0.076465321
0.078317608
0.075754302
0.068342164
0.055901825
0.038791952
0.01651261
0.040813304
0.042530159
0.047846809
0.056389298
0.065789808
0.073766506
0.078846464
0.080124251
0.077009866
0.069112937
0.056288384
0.038920881
0.016524019
0.042948318
0.044970323
0.050918056
0.059798381
0.069066323
0.07662197
0.081156918
0.081865795
0.078213925
0.069848942
0.056656394
0.039043804
0.016535536
0.045458379
0.047782294
0.054237948
0.063289392
0.072323494
0.07941521
0.083396345
0.08354333
0.079368021
0.070551492
0.057006629
0.039160949
0.016547136
0.048369499
0.050957568
0.057766465
0.066832245
0.075546562
0.082140749
0.085564138
0.085157812
0.080473488
0.071221711
0.057339737
0.039272497
0.016558794
0.051686933
0.054470421
0.061462121
0.070399932
0.078721999
0.084794919
0.087659702
0.086709997
0.081531436
0.071860537
0.057656251
0.039378585
0.016570485
0.055391507
0.058280565
0.065283689
0.073967557
0.081839621
0.087374118
0.089682335
0.088200404
0.082542736
0.072468721
0.057956591
0.03947931
0.016582185
0.059440079
0.062336533
0.069190822
0.077514024
0.084890588
0.089874893
0.091631158
0.089629292
0.083508012
0.073046827
0.058241066
0.039574726
0.016593867
0.063769526
0.066579763
0.073146326
0.081021496
0.087866753
0.092293822
0.093505062
0.090996633
0.084427635
0.073595233
0.058509877
0.039664848
0.016605507
0.068304219
0.070949174
0.077116151
0.084473736
0.090760503
0.094627449
0.095302688
0.092302104
0.085301717
0.074114128
0.058763118
0.039749652
0.016617076
0.072964013
0.07538438
0.081068556
0.087855799
0.093564639
0.096872263
0.097022423
0.093545096
0.086130119
0.074603523
0.059000777
0.039829076
0.016628545
0.077671259
0.07982839
0.084974059
0.091153835
0.096272337
0.099024716
0.098662441
0.094724736
0.086912471
0.075063257
0.059222745
0.03990302
0.016639885
0.082355875
0.084229597
0.088805543
0.094355005
0.09887716
0.1010813
0.10022076
0.095839938
0.087648195
0.075493013
0.05942882
0.039971352
0.016651062
0.086958216
0.088543085
0.092538484
0.097447492
0.10137312
0.10303863
0.10169536
0.096889472
0.088336561
0.075892351
0.059618728
0.04003391
0.016662042
0.091430075
0.092731257
0.096151232
0.1004206
0.10375477
0.10489357
0.10308425
0.097872052
0.088976738
0.076260741
0.059792136
0.040090514
0.016672786
0.095734336
0.096763909
0.099625255
0.10326489
0.10601732
0.10664337
0.10438563
0.098786441
0.089567875
0.076597611
0.059948683
0.040140973
0.016683256
0.099843859
0.10061787
0.1029453
0.10597234
0.10815674
0.10828577
0.105598
0.09963155
0.090109179
0.076902403
0.060088008
0.0401851
0.016693412
0.10374001
0.10427634
0.10609941
0.10853644
0.1101699
0.1098191
0.10672027
0.10040655
0.090599997
0.077174628
0.060209784
0.040222723
0.016703211
0.10741116
0.1077281
0.10907885
0.11095227
0.11205458
0.11124236
0.10775186
0.10111096
0.091039895
0.077413926
0.060313752
0.040253704
0.016712613
0.11085125
0.11096662
0.11187784
0.11321656
0.11380957
0.11255532
0.10869275
0.1017447
0.091428727
0.077620115
0.060399759
0.04027795
0.016721578
0.11405862
0.1139893
0.11449335
0.11532761
0.11543465
0.11375846
0.10954351
0.1023082
0.091766687
0.077793242
0.060467783
0.040295428
0.01673007
0.11703499
0.11679663
0.1169247
0.1172852
0.11693057
0.11485301
0.11030534
0.10280234
0.092054345
0.077933612
0.060517956
0.040306177
0.016738054
0.11978461
0.11939163
0.11917328
0.11909051
0.11829901
0.11584094
0.11098005
0.10322854
0.092292662
0.078041805
0.060550581
0.040310309
0.016745502
0.12231365
0.12177922
0.12124216
0.12074593
0.11954251
0.11672484
0.11156999
0.10358867
0.092482987
0.078118688
0.060566141
0.040308017
0.016752392
0.12462968
0.1239658
0.12313582
0.12225492
0.12066435
0.11750792
0.11207804
0.10388508
0.092627041
0.078165404
0.060565289
0.040299574
0.016758706
0.12674126
0.12595886
0.12485985
0.12362184
0.12166848
0.1181939
0.11250751
0.1041205
0.092726882
0.078183353
0.060548848
0.040285324
0.016764435
0.12865762
0.12776666
0.1264207
0.1248518
0.1225594
0.11878694
0.11286212
0.104298
0.092784865
0.078174166
0.060517783
0.040265677
0.016769575
0.13038844
0.12939803
0.12782546
0.12595048
0.12334207
0.11929155
0.11314585
0.10442093
0.092803589
0.078139666
0.06047319
0.040241097
0.01677413
0.13194364
0.13086209
0.12908169
0.12692402
0.12402181
0.1197125
0.11336296
0.10449286
0.092785848
0.078081833
0.060416262
0.04021209
0.01677811
0.13333326
0.13216818
0.13019724
0.12777887
0.12460416
0.12005477
0.11351785
0.10451752
0.092734575
0.07800276
0.060348266
0.040179193
0.016781529
0.13456728
0.13332566
0.13118013
0.12852171
0.12509488
0.12032345
0.11361501
0.10449872
0.092652792
0.077904613
0.060270514
0.040142958
0.016784408
0.1356556
0.13434387
0.13203845
0.12915933
0.12549979
0.12052371
0.11365897
0.1044403
0.092543559
0.07778959
0.060184338
0.040103939
0.016786772
0.13660792
0.13523198
0.13278025
0.12969852
0.12582474
0.12066069
0.11365428
0.10434611
0.09240993
0.077659887
0.060091062
0.040062685
0.016788649
0.1374337
0.135999
0.1334135
0.13014608
0.12607557
0.1207395
0.11360539
0.10421993
0.092254916
0.077517665
0.059991984
0.040019727
0.016790069
0.13814211
0.13665366
0.13394597
0.13050867
0.12625801
0.12076516
0.11351668
0.10406546
0.092081449
0.077365024
0.059888355
0.039975569
0.016791065
0.13874199
0.13720444
0.13438527
0.13079282
0.12637769
0.12074257
0.11339239
0.10388627
0.091892355
0.077203975
0.059781368
0.039930687
0.016791671
0.13924184
0.13765947
0.13473871
0.13100489
0.12644006
0.12067644
0.11323661
0.10368577
0.091690331
0.077036427
0.059672137
0.039885515
0.016791921
0.13964979
0.13802655
0.13501336
0.13115101
0.12645038
0.12057135
0.11305325
0.10346724
0.09147793
0.076864169
0.059561698
0.039840452
0.016791849
0.13997359
0.13831313
0.13521599
0.13123706
0.12641374
0.12043164
0.11284603
0.10323375
0.091257542
0.076688864
0.059450996
0.039795851
0.016791488
0.14022061
0.13852631
0.13535305
0.13126868
0.12633497
0.12026147
0.11261848
0.1029882
0.091031392
0.076512036
0.059340887
0.039752026
0.016790872
0.14039781
0.13867279
0.13543066
0.13125124
0.12621868
0.12006477
0.1123739
0.10273328
0.09080153
0.076335075
0.059232132
0.039709248
0.016790031
0.14051179
0.13875893
0.13545465
0.13118983
0.12606922
0.11984524
0.1121154
0.10247148
0.090569833
0.076159227
0.059125401
0.039667746
0.016788994
0.14056874
0.13879072
0.1354305
0.13108927
0.12589074
0.11960636
0.11184585
0.1022051
0.090338003
0.075985605
0.059021275
0.039627711
0.016787792
0.14057451
0.13877378
0.13536338
0.13095408
0.12568708
0.11935139
0.11156793
0.10193625
0.090107565
0.075815172
0.058920203
0.039589087
0.016786447
0.14053454
0.13871339
0.13525812
0.13078854
0.1254619
0.11908335
0.11128409
0.10166683
0.089879872
0.075648751
0.058822537
0.039551821
0.016784982
0.14045396
0.13861448
0.13511929
0.13059663
0.12521857
0.11880504
0.11099658
0.10139853
0.089656092
0.075486978
0.058728302
0.039516206
0.016783416
0.14033754
0.13848168
0.1349511
0.13038207
0.12496024
0.11851905
0.11070744
0.10113289
0.089437251
0.075330433
0.058637835
0.039482365
0.016781768
0.1401897
0.13831926
0.13475753
0.13014832
0.12468983
0.11822776
0.11041853
0.10087123
0.089224136
0.075179239
0.058551569
0.03945039
0.01678006
0.14001459
0.13813123
0.13454223
0.12989861
0.12441004
0.11793332
0.11013148
0.10061468
0.089017378
0.07503409
0.05846965
0.039420332
0.016778308
0.13981602
0.13792127
0.13430862
0.1296359
0.12412333
0.1176377
0.10984775
0.10036423
0.088817517
0.074895444
0.058392203
0.039392221
0.016776532
0.13959755
0.13769282
0.13405983
0.12936294
0.12383198
0.11734265
0.10956858
0.10012052
0.088625353
0.074763548
0.058319307
0.03936607
0.016774746
0.13936243
0.13744903
0.13379878
0.12908223
0.12353802
0.11704972
0.109295
0.099884507
0.08844135
0.074638578
0.058251
0.039341869
0.016772963
0.13911367
0.13719281
0.13352811
0.12879606
0.12324329
0.11676026
0.10902801
0.099656971
0.088265852
0.074520649
0.058187279
0.039319591
0.016771195
0.13885405
0.13692681
0.13325025
0.12850651
0.12294942
0.11647542
0.10876868
0.099438465
0.088099114
0.074409818
0.058128108
0.039299196
0.016769452
0.13858607
0.13665346
0.1329674
0.12821539
0.12265779
0.11619654
0.10851782
0.099229427
0.087941307
0.074306087
0.058073421
0.039280631
0.016767744
0.13831201
0.13637495
0.13268148
0.12792434
0.12236994
0.11592466
0.10827608
0.099030192
0.087792525
0.074209409
0.058023126
0.039263835
0.016766078
0.13803391
0.13609319
0.13239431
0.12763503
0.12208714
0.11566068
0.10804401
0.098841003
0.087652798
0.074119694
0.057977107
0.03924874
0.01676446
0.13775363
0.13581004
0.13210761
0.12734893
0.12181053
0.11540537
0.10782203
0.098662014
0.087522091
0.074036815
0.057935232
0.039235269
0.016762895
0.13747289
0.13552716
0.13182292
0.12706733
0.12154108
0.11515936
0.10761046
0.098493303
0.087400319
0.073960611
0.057897351
0.039223346
0.016761388
0.13719325
0.13524609
0.13154161
0.12679137
0.12127963
0.11492319
0.10740955
0.098334879
0.087287345
0.073890894
0.057863303
0.039212889
0.016759942
0.13691615
0.13496819
0.13126494
0.12652205
0.1210269
0.11469725
0.10721944
0.098186684
0.087182993
0.073827452
0.057832919
0.039203815
0.01675856
0.13664285
0.13469468
0.13099397
0.12626026
0.12078348
0.11448187
0.1070402
0.098048608
0.087087051
0.073770054
0.057806022
0.03919604
0.016757243
0.1363745
0.13442666
0.13072968
0.12600673
0.12054987
0.11427728
0.10687183
0.09792049
0.086999273
0.073718455
0.057782429
0.039189483
0.016755993
0.13611209
0.13416507
0.13047288
0.12576209
0.12032644
0.11408361
0.10671427
0.097802123
0.08691939
0.073672397
0.057761957
0.039184059
0.016754811
0.13585651
0.13391075
0.13022428
0.12552686
0.12011351
0.11390095
0.1065674
0.097693264
0.08684711
0.073631614
0.05774442
0.039179689
0.016753697
0.13560851
0.1336644
0.12998449
0.12530147
0.11991127
0.11372929
0.10643105
0.097593639
0.086782125
0.073595833
0.057729635
0.039176292
0.01675265
0.13536874
0.13342664
0.129754
0.12508626
0.11971986
0.11356857
0.10630501
0.097502944
0.086724113
0.07356478
0.057717417
0.039173793
0.016751671
0.13513776
0.13319796
0.12953321
0.12488146
0.11953934
0.11341867
0.10618902
0.097420853
0.086672742
0.073538178
0.057707589
0.039172118
0.016750758
0.134916
0.13297877
0.12932244
0.12468724
0.11936972
0.11327943
0.1060828
0.097347023
0.086627676
0.073515753
0.057699975
0.039171194
0.01674991
0.13470383
0.13276941
0.12912193
0.12450371
0.11921091
0.11315065
0.10598605
0.097281095
0.086588571
0.073497232
0.057694404
0.039170953
0.016749125
0.13450153
0.1325701
0.12893182
0.12433088
0.11906282
0.11303206
0.10589841
0.0972227
0.086555086
0.073482348
0.05769071
0.039171331
0.016748403
0.13430929
0.13238102
0.12875221
0.12416874
0.11892528
0.11292341
0.10581954
0.09717146
0.086526877
0.073470837
0.057688734
0.039172265
0.01674774
0.13412724
0.13220227
0.12858312
0.1240172
0.11879807
0.11282436
0.10574906
0.097126991
0.086503605
0.073462443
0.057688321
0.039173697
0.016747136
0.13395545
0.13203387
0.12842451
0.12387611
0.11868097
0.11273459
0.10568658
0.097088909
0.086484932
0.073456914
0.057689322
0.039175568
0.016746588
0.13379392
0.13187581
0.12827631
0.12374531
0.11857367
0.11265373
0.10563171
0.097056828
0.086470529
0.073454008
0.057691596
0.039177827
0.016746093
0.1336426
0.131728
0.12813837
0.12362458
0.11847589
0.11258142
0.10558405
0.097030362
0.08646007
0.07345349
0.057695006
0.039180422
0.01674565
0.13350138
0.13159033
0.12801053
0.12351365
0.11838729
0.11251727
0.10554319
0.097009133
0.086453241
0.073455135
0.057699423
0.039183305
0.016745256
0.13337012
0.13146263
0.12789255
0.12341225
0.11830752
0.11246088
0.10550873
0.09699277
0.086449739
0.073458727
0.057704726
0.039186432
0.016744908
0.13324865
0.13134469
0.1277842
0.12332007
0.11823621
0.11241185
0.10548026
0.096980909
0.086449268
0.073464061
0.0577108
0.039189762
0.016744604
0.13313674
0.13123629
0.1276852
0.12323678
0.11817298
0.11236978
0.1054574
0.096973198
0.086451549
0.073470946
0.05771754
0.039193258
0.016744342
0.13303414
0.13113714
0.12759525
0.12316204
0.11811745
0.11233426
0.10543974
0.096969295
0.086456313
0.073479198
0.057724846
0.039196886
0.016744119
0.13294057
0.13104698
0.12751402
0.12309547
0.11806922
0.11230489
0.10542691
0.096968869
0.086463304
0.073488646
0.057732628
0.039200615
0.016743933
0.13285574
0.13096547
0.12744118
0.12303671
0.1180279
0.11228126
0.10541854
0.096971601
0.086472276
0.073499125
0.057740797
0.039204416
0.016743782
0.13277932
0.13089228
0.12737637
0.12298538
0.11799308
0.11226299
0.10541426
0.096977181
0.086482992
0.073510481
0.057749274
0.039208263
0.016743663
0.13271096
0.13082706
0.12731921
0.12294106
0.11796435
0.11224966
0.10541371
0.09698531
0.086495229
0.073522566
0.057757979
0.039212128
0.016743573
0.13265032
0.13076945
0.12726931
0.12290337
0.11794131
0.11224091
0.10541654
0.096995697
0.086508768
0.073535239
0.057766841
0.039215988
0.016743512
0.13259701
0.13071906
0.12722629
0.1228719
0.11792356
0.11223633
0.1054224
0.097008067
0.086523406
0.073548368
0.057775789
0.039219818
0.016743476
0.13255066
0.13067551
0.12718975
0.12284624
0.1179107
0.11223557
0.10543099
0.097022157
0.086538949
0.073561831
0.057784762
0.039223596
0.016743463
0.13251089
0.13063842
0.1271593
0.12282601
0.11790234
0.11223827
0.10544199
0.097037721
0.086555222
0.073575516
0.057793702
0.039227304
0.016743471
0.13247732
0.1306074
0.12713454
0.12281081
0.11789812
0.11224408
0.10545511
0.097054532
0.086572062
0.073589325
0.057802562
0.039230926
0.016743497
0.13244958
0.13058207
0.12711511
0.12280028
0.11789768
0.1122527
0.10547009
0.097072384
0.086589326
0.073603171
0.057811301
0.039234451
0.01674354
0.13242731
0.13056207
0.12710062
0.12279404
0.11790068
0.11226382
0.10548667
0.097091089
0.086606886
0.073616982
0.057819888
0.03923787
0.016743598
0.13241013
0.13054703
0.12709073
0.12279176
0.1179068
0.11227717
0.10550463
0.097110477
0.086624631
0.073630694
0.057828297
0.039241182
0.016743669
0.1323977
0.13053661
0.12708508
0.1227931
0.11791574
0.11229247
0.10552376
0.09713039
0.086642455
0.073644252
0.057836509
0.039244381
0.016743753
0.13238965
0.13053044
0.12708332
0.12279772
0.1179272
0.11230947
0.10554386
0.097150678
0.086660263
0.073657604
0.057844502
0.039247469
0.016743848
0.13238565
0.13052817
0.12708512
0.12280532
0.11794088
0.11232793
0.10556471
0.097171197
0.086677958
0.073670693
0.057852249
0.039250418
0.016743952
0.13238533
0.13052946
0.12709013
0.12281555
0.11795649
0.1123476
0.10558614
0.097191803
0.086695446
0.073683466
0.057859724
0.039253214
0.016744064
0.13238835
0.13053396
0.12709801
0.12282812
0.11797376
0.11236824
0.10560795
0.097212356
0.08671263
0.073695862
0.057866879
0.039255863
0.016744182
0.13239435
0.13054132
0.12710843
0.1228427
0.11799241
0.11238961
0.10562995
0.09723272
0.08672942
0.073707825
0.05787369
0.039258362
0.016744305
0.13240299
0.13055121
0.12712106
0.122859
0.11801218
0.11241151
0.10565198
0.09725277
0.086745727
0.073719289
0.057880152
0.039260706
0.016744431
0.13241396
0.13056331
0.12713561
0.12287674
0.11803281
0.11243373
0.10567388
0.097272397
0.086761484
0.073730223
0.057886252
0.03926289
0.01674456
0.13242698
0.13057734
0.1271518
0.12289567
0.11805411
0.11245609
0.10569552
0.097291507
0.086776614
0.073740624
0.057891984
0.039264914
0.016744688
0.13244176
0.13059303
0.12716938
0.12291557
0.11807587
0.11247845
0.10571679
0.097310027
0.086791106
0.073750476
0.057897347
0.039266778
0.016744817
0.13245809
0.13061015
0.12718813
0.12293624
0.11809795
0.11250069
0.10573762
0.097327909
0.086804954
0.073759785
0.05790235
0.039268491
0.016744944
0.13247577
0.13062852
0.12720787
0.12295753
0.11812021
0.11252272
0.10575793
0.09734515
0.086818157
0.073768562
0.05790701
0.039270061
0.016745069
0.1324946
0.13064794
0.12722844
0.12297929
0.11814254
0.11254446
0.1057777
0.097361742
0.086830728
0.073776828
0.057911347
0.039271501
0.016745192
0.13251443
0.13066827
0.12724968
0.1230014
0.11816484
0.11256584
0.10579692
0.097377687
0.086842683
0.07378461
0.057915385
0.039272824
0.016745314
0.1325351
0.13068934
0.12727146
0.12302373
0.11818703
0.11258683
0.10581556
0.097392989
0.086854043
0.07379193
0.057919144
0.039274044
0.016745434
0.13255642
0.13071098
0.12729361
0.12304615
0.11820903
0.11260738
0.10583359
0.097407646
0.086864819
0.073798811
0.057922646
0.039275174
0.016745552
0.13257821
0.13073301
0.12731599
0.12306855
0.11823073
0.11262742
0.105851
0.097421646
0.086875017
0.073805262
0.057925902
0.039276221
0.016745669
0.13260027
0.13075526
0.12733842
0.12309079
0.11825204
0.11264688
0.10586771
0.097434964
0.086884625
0.073811285
0.057928917
0.039277192
0.016745784
0.13262239
0.13077751
0.12736073
0.12311271
0.11827282
0.11266565
0.10588368
0.097447559
0.086893621
0.073816866
0.057931685
0.039278082
0.016745897
0.13264437
0.13079959
0.12738273
0.12313415
0.11829296
0.11268366
0.10589883
0.097459381
0.086901973
0.073821986
0.057934192
0.039278885
0.016746007
0.13266602
0.13082128
0.12740426
0.12315497
0.11831232
0.11270079
0.10591309
0.097470378
0.086909644
0.07382662
0.057936423
0.03927959
0.016746113
0.13268717
0.13084245
0.12742516
0.12317503
0.11833079
0.11271696
0.1059264
0.09748051
0.086916607
0.07383075
0.057938363
0.039280186
0.016746215
0.1327077
0.13086295
0.12744531
0.12319423
0.11834831
0.11273212
0.10593871
0.097489752
0.086922848
0.073834368
0.057940004
0.039280664
0.01674631
0.13272752
0.13088271
0.12746465
0.12321251
0.11836483
0.11274624
0.10595003
0.09749811
0.086928378
0.073837482
0.05794135
0.039281021
0.016746397
0.13274663
0.13090171
0.12748315
0.12322987
0.11838035
0.11275935
0.10596038
0.097505621
0.086933234
0.073840123
0.05794242
0.039281262
0.016746477
0.13276504
0.13091997
0.12750084
0.12324633
0.11839492
0.11277151
0.10596984
0.097512354
0.086937479
0.07384234
0.057943245
0.039281399
0.01674655
0.13278281
0.13093755
0.12751778
0.12326198
0.11840863
0.1127828
0.10597849
0.097518405
0.086941198
0.073844203
0.057943873
0.039281457
0.016746615
0.13280002
0.13095453
0.12753405
0.12327691
0.11842157
0.11279335
0.10598646
0.097523881
0.086944485
0.073845787
0.057944355
0.039281462
0.016746675
0.13281673
0.13097098
0.12754974
0.12329119
0.11843386
0.11280325
0.10599385
0.097528888
0.086947434
0.073847164
0.057944743
0.039281441
0.01674673
0.132833
0.13098695
0.12756491
0.12330492
0.11844557
0.1128126
0.10600076
0.097533513
0.086950121
0.073848395
0.057945077
0.039281418
0.016746782
0.13284882
0.13100245
0.12757958
0.12331812
0.11845675
0.11282145
0.10600725
0.097537813
0.086952592
0.073849516
0.057945384
0.039281411
0.016746833
0.13286413
0.13101744
0.12759372
0.12333077
0.1184674
0.11282982
0.10601332
0.097541804
0.086954865
0.073850542
0.057945675
0.039281427
0.016746884
0.13287883
0.13103182
0.12760725
0.12334282
0.11847747
0.11283767
0.10601897
0.097545467
0.086956921
0.073851454
0.057945935
0.03928146
0.016746934
0.13289278
0.13104547
0.12762005
0.12335417
0.11848687
0.11284492
0.10602411
0.097548745
0.086958714
0.073852217
0.05794614
0.039281497
0.016746984
0.13290582
0.13105824
0.127632
0.12336468
0.11849551
0.11285148
0.10602867
0.097551566
0.086960178
0.073852776
0.057946248
0.039281513
0.016747032
0.13291781
0.13106997
0.12764294
0.12337424
0.11850325
0.11285725
0.10603256
0.097553852
0.086961249
0.073853079
0.057946219
0.039281483
0.016747076
0.13292864
0.13108057
0.12765278
0.12338275
0.11851003
0.11286216
0.10603572
0.097555544
0.086961877
0.073853083
0.057946019
0.039281382
0.016747115
0.13293825
0.13108997
0.12766145
0.12339015
0.11851579
0.11286616
0.1060381
0.097556616
0.086962039
0.07385277
0.057945631
0.039281196
0.016747147
0.13294669
0.13109819
0.12766898
0.12339647
0.11852054
0.11286928
0.10603974
0.097557088
0.086961753
0.073852152
0.05794506
0.039280923
0.016747172
0.13295404
0.13110533
0.12767545
0.12340178
0.11852438
0.11287159
0.1060407
0.097557027
0.086961074
0.073851271
0.057944331
0.039280568
0.016747188
0.13296047
0.13111153
0.127681
0.12340623
0.11852744
0.11287323
0.1060411
0.09755654
0.086960095
0.073850197
0.057943492
0.039280155
0.016747198
0.13296618
0.13111699
0.12768582
0.12340998
0.11852988
0.11287435
0.10604111
0.097555761
0.086958927
0.073849017
0.057942599
0.039279712
0.016747201
0.13297138
0.13112193
0.12769011
0.12341325
0.1185319
0.11287513
0.10604087
0.097554834
0.086957691
0.073847825
0.057941718
0.039279277
0.016747201
0.13297628
0.13112654
0.12769407
0.12341622
0.11853367
0.11287574
0.10604054
0.09755389
0.086956493
0.073846701
0.057940907
0.039278882
0.016747199
0.132981
0.13113096
0.12769784
0.12341902
0.11853534
0.11287631
0.10604023
0.097553025
0.086955412
0.073845705
0.057940204
0.039278552
0.016747197
0.13298562
0.13113527
0.12770152
0.12342175
0.11853697
0.1128769
0.10604
0.097552289
0.086954485
0.073844861
0.057939629
0.0392783
0.016747198
0.13299013
0.13113948
0.1277051
0.12342441
0.11853858
0.11287753
0.10603987
0.097551682
0.086953705
0.07384416
0.057939171
0.039278123
0.016747202
0.13299446
0.13114353
0.12770853
0.12342697
0.11854014
0.11287816
0.10603978
0.097551156
0.086953025
0.073843561
0.057938802
0.039278007
0.016747209
0.13299847
0.13114729
0.12771171
0.12342931
0.11854153
0.11287868
0.10603964
0.097550627
0.086952372
0.073843003
0.057938476
0.039277926
0.016747218
0.13300201
0.13115061
0.1277145
0.1234313
0.11854264
0.11287899
0.10603935
0.09755
0.08695166
0.073842414
0.05793814
0.039277851
0.016747227
0.13300494
0.13115335
0.12771675
0.12343283
0.11854336
0.11287898
0.10603881
0.097549184
0.086950811
0.073841732
0.057937745
0.039277748
0.016747236
0.13300714
0.1311554
0.12771837
0.12343379
0.11854359
0.11287856
0.10603795
0.097548112
0.086949769
0.073840911
0.057937259
0.039277598
0.016747241
0.13300856
0.1311567
0.1277193
0.12343414
0.11854328
0.1128777
0.10603672
0.097546758
0.086948512
0.073839934
0.057936665
0.039277382
0.016747241
0.13300922
0.13115726
0.12771954
0.12343387
0.11854246
0.11287641
0.10603515
0.09754514
0.08694706
0.073838817
0.057935975
0.039277104
0.016747237
0.1330092
0.13115716
0.12771916
0.12343306
0.11854118
0.11287476
0.10603331
0.097543315
0.086945465
0.073837605
0.05793522
0.039276781
0.016747227
0.13300862
0.13115652
0.12771828
0.12343182
0.11853955
0.11287283
0.10603127
0.09754137
0.086943799
0.073836357
0.057934443
0.039276439
0.016747214
0.13300766
0.13115548
0.12771705
0.12343027
0.11853769
0.11287076
0.10602915
0.097539398
0.086942146
0.073835138
0.057933694
0.03927611
0.016747198
0.13300648
0.13115422
0.1277156
0.12342857
0.11853574
0.11286865
0.10602705
0.097537487
0.086940575
0.073834005
0.057933014
0.039275823
0.016747182
0.13300522
0.13115288
0.12771409
0.12342684
0.11853379
0.1128666
0.10602505
0.0975357
0.086939137
0.073832992
0.057932429
0.039275593
0.016747167
0.13300399
0.13115155
0.1277126
0.12342514
0.11853193
0.11286467
0.10602319
0.097534067
0.086937848
0.073832109