/*--------------------------------*- C++ -*----------------------------------*\
| =========                 |                                                 |
| \\      /  F ield         | OpenFOAM: The Open Source CFD Toolbox           |
|  \\    /   O peration     | Version:  2506                                  |
|   \\  /    A nd           | Website:  www.openfoam.com                      |
|    \\/     M anipulation  |                                                 |
\*---------------------------------------------------------------------------*/
FoamFile
{
    version     2.0;
    format      ascii;
    arch        "LSB;label=32;scalar=64";
    class       volScalarField;
    location    "1000/water";
    object      epsilon;
}
// * * * * * * * * * * * * * * * * * * * * * * * * * * * * * * * * * * * * * //

dimensions      [0 2 -3 0 0 0 0];

internalField   nonuniform List<scalar> 
2600
(
8.8079773e-05
8.8079245e-05
8.8079271e-05
8.807949e-05
8.8079744e-05
8.8080245e-05
8.8082926e-05
8.8104349e-05
8.8272771e-05
8.9512908e-05
9.8428186e-05
0.00017145296
0.0010138716
6.7789348e-05
6.7791881e-05
6.7793339e-05
6.7794963e-05
6.7796901e-05
6.7799886e-05
6.7810178e-05
6.7875511e-05
6.8312468e-05
7.1039872e-05
8.7857083e-05
0.00021159534
0.0014669324
5.3500886e-05
5.3503148e-05
5.3504846e-05
5.3506859e-05
5.3509287e-05
5.3513643e-05
5.3532992e-05
5.3656306e-05
5.4399641e-05
5.8506995e-05
8.1500797e-05
0.00023956052
0.0017068244
4.3127504e-05
4.3128883e-05
4.3130503e-05
4.3132598e-05
4.3135149e-05
4.3140834e-05
4.3171684e-05
4.3362646e-05
4.4413342e-05
4.9710824e-05
7.7552644e-05
0.00025818579
0.0017816909
3.539909e-05
3.5400132e-05
3.5401605e-05
3.5403513e-05
3.5405834e-05
3.5412916e-05
3.5457613e-05
3.5722605e-05
3.7073304e-05
4.3450503e-05
7.5629285e-05
0.00027290618
0.0017622817
2.9510599e-05
2.9511446e-05
2.95127e-05
2.9514227e-05
2.9516143e-05
2.9525119e-05
2.9586798e-05
2.9933924e-05
3.159515e-05
3.9095388e-05
7.5939385e-05
0.00028837858
0.0017002497
2.4935213e-05
2.4935877e-05
2.4936847e-05
2.4937875e-05
2.4939416e-05
2.4951342e-05
2.503458e-05
2.5477125e-05
2.7489448e-05
3.6318413e-05
7.8818158e-05
0.0003073199
0.0016256765
2.1318423e-05
2.1318913e-05
2.1319549e-05
2.132003e-05
2.1321464e-05
2.1338095e-05
2.144948e-05
2.2008273e-05
2.4447975e-05
3.4968795e-05
8.4593389e-05
0.00033066897
0.0015541994
1.8415642e-05
1.8415958e-05
1.8416233e-05
1.8416208e-05
1.8418091e-05
1.8442025e-05
1.8590687e-05
1.9295945e-05
2.2279378e-05
3.5010665e-05
9.3512814e-05
0.00035786641
0.0014930959
1.6054297e-05
1.6054439e-05
1.6054351e-05
1.6053968e-05
1.6057197e-05
1.6092028e-05
1.6290179e-05
1.7183376e-05
2.0872546e-05
3.6486908e-05
0.00010564207
0.00038720676
0.0014449141
1.411016e-05
1.4110129e-05
1.4109712e-05
1.4109249e-05
1.4115119e-05
1.4165612e-05
1.4429188e-05
1.5565379e-05
2.0175367e-05
3.9486471e-05
0.00012074249
0.00041640751
0.0014094648
1.249217e-05
1.2491978e-05
1.249131e-05
1.24912e-05
1.2501471e-05
1.2573786e-05
1.2923263e-05
1.4374121e-05
2.0181311e-05
4.4103574e-05
0.000138194
0.0004433175
0.0013850187
1.1132483e-05
1.1132152e-05
1.1131368e-05
1.1132227e-05
1.1149209e-05
1.1251189e-05
1.1712642e-05
1.3570321e-05
2.0918928e-05
5.0386672e-05
0.00015703479
0.00046647967
0.0013691707
9.9797899e-06
9.9793621e-06
9.9786681e-06
9.9813266e-06
1.0007987e-05
1.0149541e-05
1.0756002e-05
1.3137755e-05
2.2440689e-05
5.8285038e-05
0.00017613324
0.00048532287
0.0013594869
8.994766e-06
8.994305e-06
8.9939894e-06
8.9995396e-06
9.0396464e-06
9.2332357e-06
1.0026406e-05
1.3079617e-05
2.4808572e-05
6.7609619e-05
0.00019442665
0.00050000486
0.0013539038
8.1468971e-06
8.1464947e-06
8.1469469e-06
8.1567947e-06
8.2150975e-06
8.4763588e-06
9.5087285e-06
1.3415553e-05
2.807526e-05
7.8026842e-05
0.0002111215
0.00051110137
0.0013508788
7.4122408e-06
7.412023e-06
7.4137548e-06
7.4296903e-06
7.5121568e-06
7.8606834e-06
9.1980664e-06
1.4178291e-05
3.2262331e-05
8.9094589e-05
0.00022578146
0.00051932558
0.0013493668
6.7718206e-06
6.7719549e-06
6.7756276e-06
6.7999151e-06
6.9140283e-06
7.3743439e-06
9.0987625e-06
1.5408888e-05
3.7339829e-05
0.00010033156
0.00023829849
0.00052535582
0.0013487149
6.2104575e-06
6.2111621e-06
6.2176208e-06
6.2531142e-06
6.4082476e-06
7.0110033e-06
9.2236697e-06
1.7149875e-05
4.3213605e-05
0.00011129559
0.00024879509
0.00052976262
0.0013485457
5.7159095e-06
5.7174657e-06
5.7277834e-06
5.7780724e-06
5.9859581e-06
6.7693776e-06
9.5932706e-06
1.9436232e-05
4.9726067e-05
0.00012164393
0.00025751549
0.00053299526
0.0013486594
5.2782322e-06
5.2809984e-06
5.2965329e-06
5.3661281e-06
5.6414368e-06
6.6530083e-06
1.0234238e-05
2.228513e-05
5.6672016e-05
0.00013115952
0.00026474159
0.0005353945
0.0013489619
4.889296e-06
4.893728e-06
4.9161934e-06
5.0107595e-06
5.3718124e-06
6.6701645e-06
1.1177042e-05
2.5686553e-05
6.3825678e-05
0.00013974422
0.00027074337
0.00053721257
0.0013494179
4.5424222e-06
4.549097e-06
4.5806559e-06
4.707302e-06
5.1769356e-06
6.8337316e-06
1.2452335e-05
2.9597477e-05
7.097079e-05
0.00014739148
0.0002757568
0.0005386328
0.0013500205
4.2321037e-06
4.2417515e-06
4.2851315e-06
4.4527719e-06
5.0593678e-06
7.1609028e-06
1.4086152e-05
3.394183e-05
7.7925113e-05
0.00015415333
0.00027997823
0.00053978641
0.0013507744
3.9537926e-06
3.9673375e-06
4.0259782e-06
4.2457763e-06
5.0244498e-06
7.6724685e-06
1.6094424e-05
3.8616919e-05
8.4553952e-05
0.00016011197
0.00028356674
0.00054076615
0.0013516866
3.7037376e-06
3.7223496e-06
3.8005873e-06
4.0864974e-06
5.0804008e-06
8.3914976e-06
1.8477844e-05
4.3504911e-05
9.0772061e-05
0.00016536002
0.00028664926
0.00054163685
0.0013527623
3.4788613e-06
3.504022e-06
3.6073203e-06
3.9767408e-06
5.2383695e-06
9.3412706e-06
2.1218352e-05
4.8486363e-05
9.6537094e-05
0.00016998886
0.00028932618
0.00054244334
0.0013540034
3.2766694e-06
3.3102566e-06
3.4454921e-06
3.9200366e-06
5.5123349e-06
1.0542478e-05
2.4278371e-05
5.3452376e-05
0.00010183911
0.00017408281
0.00029167657
0.00054321637
0.0013554084
3.0951868e-06
3.1395803e-06
3.315394e-06
3.9217755e-06
5.9187331e-06
1.2009945e-05
2.7603266e-05
5.8312862e-05
0.0001066899
0.00017771679
0.00029376257
0.00054397675
0.0013569728
2.9329181e-06
2.991133e-06
3.2183574e-06
3.9893517e-06
6.4756801e-06
1.3749403e-05
3.112658e-05
6.3000085e-05
0.00011111418
0.00018095591
0.00029563313
0.00054473837
0.0013586903
2.7888292e-06
2.8646819e-06
3.1568532e-06
4.132263e-06
7.2016967e-06
1.5755029e-05
3.4776808e-05
6.7468124e-05
0.00011514328
0.00018385585
0.00029732665
0.00054550992
0.0013605531
2.6623516e-06
2.7606642e-06
3.1346228e-06
4.362102e-06
8.1139275e-06
1.8008404e-05
3.8484156e-05
7.1689805e-05
0.00011881108
0.00018646428
0.00029887505
0.00054629402
0.0013625491
2.5534088e-06
2.680258e-06
3.1568304e-06
4.6923497e-06
9.22598e-06
2.0479254e-05
4.21859e-05
7.5652556e-05
0.00012215122
0.00018882083
0.00030030031
0.00054708344
0.001364665
2.4624667e-06
2.6254827e-06
3.2302147e-06
5.1378784e-06
1.0545685e-05
2.3127918e-05
4.5829653e-05
7.9354439e-05
0.00012519597
0.00019095973
0.00030162122
0.00054787012
0.0013668874
2.3906118e-06
2.5993266e-06
3.3632045e-06
5.7140891e-06
1.2073206e-05
2.5908984e-05
4.9374527e-05
8.2800767e-05
0.00012797521
0.0001929092
0.00030285018
0.00054865287
0.0013692048
2.3396576e-06
2.6059009e-06
3.565945e-06
6.4356565e-06
1.379994e-05
2.8775319e-05
5.2790668e-05
8.6001443e-05
0.00013051585
0.00019469159
0.00030399376
0.00054944272
0.0013716092
2.3122834e-06
2.6506068e-06
3.8501618e-06
7.3149531e-06
1.5708513e-05
3.1681692e-05
5.6057927e-05
8.8969441e-05
0.00013284315
0.00019632773
0.00030505437
0.00055025018
0.0013740956
2.312204e-06
2.7402971e-06
4.2287855e-06
8.360338e-06
1.7773921e-05
3.4587408e-05
5.9163895e-05
9.1718485e-05
0.000134977
0.0001978295
0.00030604752
0.00055107622
0.0013766577
2.3443664e-06
2.8833943e-06
4.715266e-06
9.5746045e-06
1.9965609e-05
3.7457895e-05
6.2102575e-05
9.4263947e-05
0.00013693775
0.00019920349
0.00030698675
0.00055192215
0.0013792894
2.4151613e-06
3.08991e-06
5.3225444e-06
1.0953905e-05
2.2249993e-05
4.026506e-05
6.4872079e-05
9.6618924e-05
0.00013873802
0.00020046565
0.00030788006
0.00055278756
0.0013819844
2.5326205e-06
3.3712892e-06
6.061731e-06
1.2487422e-05
2.4593018e-05
4.2987258e-05
6.7474462e-05
9.8797813e-05
0.00014038632
0.00020163083
0.00030873382
0.00055367121
0.0013847362
2.7065546e-06
3.7399971e-06
6.9406292e-06
1.4157864e-05
2.6962173e-05
4.560817e-05
6.9912766e-05
0.00010081055
0.00014189658
0.00020271014
0.00030955281
0.00055457138
0.0013875385
2.9485502e-06
4.2087763e-06
7.9623507e-06
1.5942735e-05
2.9328092e-05
4.8116705e-05
7.2192973e-05
0.00010266311
0.00014328329
0.00020371267
0.00031034059
0.00055548596
0.0013903847
3.2717208e-06
4.7895537e-06
9.1242826e-06
1.7815987e-05
3.1665001e-05
5.0504534e-05
7.4318481e-05
0.00010436656
0.0001445581
0.0002046458
0.00031109971
0.0005564126
0.0013932687
3.6900859e-06
5.4920732e-06
1.0417684e-05
1.9750012e-05
3.39517e-05
5.2768184e-05
7.6289669e-05
0.00010593299
0.00014573089
0.00020551555
0.00031183197
0.00055734878
0.001396184
4.217485e-06
6.3224283e-06
1.1827952e-05
2.1717141e-05
3.6170246e-05
5.490116e-05
7.8113758e-05
0.00010737249
0.00014680994
0.00020632674
0.00031253852
0.00055829182
0.0013991244
4.8660263e-06
7.281775e-06
1.3335594e-05
2.3691123e-05
3.8306688e-05
5.6898168e-05
7.9798305e-05
0.0001086939
0.00014780214
0.00020708321
0.00031321994
0.00055923891
0.0014020837
5.6442497e-06
8.3655569e-06
1.4917866e-05
2.5648781e-05
4.0344258e-05
5.8760207e-05
8.13501e-05
0.00010990478
0.00014871322
0.00020778792
0.00031387636
0.00056018713
0.0014050556
6.5553595e-06
9.5634601e-06
1.6550686e-05
2.7565321e-05
4.2272541e-05
6.0488808e-05
8.2775228e-05
0.00011101156
0.00014954783
0.00020844308
0.00031450745
0.00056113341
0.0014080338
7.5961535e-06
1.0860441e-05
1.8207369e-05
2.9419101e-05
4.4084529e-05
6.2085814e-05
8.4079033e-05
0.0001120196
0.00015030969
0.00020905022
0.00031511249
0.00056207454
0.0014110119
8.756315e-06
1.223555e-05
1.9861231e-05
3.1193216e-05
4.5774964e-05
6.355318e-05
8.5266111e-05
0.00011293328
0.00015100165
0.00020961023
0.00031569038
0.00056300711
0.0014139832
1.0017521e-05
1.3664334e-05
2.1488448e-05
3.2873858e-05
4.7340053e-05
6.4892866e-05
8.6340346e-05
0.00011375612
0.0001516258
0.00021012347
0.00031623966
0.00056392754
0.0014169405
1.13559e-05
1.512121e-05
2.306817e-05
3.4450177e-05
4.8777288e-05
6.6106811e-05
8.7304983e-05
0.00011449085
0.00015218355
0.00021058974
0.00031675851
0.00056483203
0.0014198766
1.2744263e-05
1.6581079e-05
2.4582901e-05
3.5914122e-05
5.0085353e-05
6.7196969e-05
8.8162736e-05
0.00011513953
0.00015267569
0.00021100842
0.00031724482
0.00056571652
0.0014227834
1.4154479e-05
1.8020636e-05
2.6018603e-05
3.7260263e-05
5.126409e-05
6.8165412e-05
8.891593e-05
0.00011570369
0.00015310253
0.00021137848
0.00031769615
0.00056657674
0.0014256524
1.5559578e-05
1.94193e-05
2.7364605e-05
3.8485596e-05
5.2314488e-05
6.9014448e-05
8.9566663e-05
0.0001161845
0.000153464
0.00021169859
0.00031810988
0.00056740821
0.0014284744
1.6935336e-05
2.0759785e-05
2.8613376e-05
3.9589302e-05
5.3238668e-05
6.9746755e-05
9.0116986e-05
0.00011658288
0.00015375982
0.00021196723
0.00031848322
0.00056820632
0.0014312396
1.8261266e-05
2.2028323e-05
2.9760205e-05
4.0572477e-05
5.4039841e-05
7.0365494e-05
9.0569076e-05
0.00011689975
0.00015398961
0.00021218283
0.00031881336
0.00056896638
0.0014339377
1.9521045e-05
2.3214634e-05
3.0802834e-05
4.143784e-05
5.4722226e-05
7.0874391e-05
9.092539e-05
0.00011713613
0.00015415307
0.0002123439
0.00031909758
0.00056968378
0.0014365579
2.0702514e-05
2.4311686e-05
3.1741085e-05
4.2189435e-05
5.5290937e-05
7.1277772e-05
9.118879e-05
0.00011729336
0.00015425015
0.00021244916
0.0003193334
0.0005703541
0.0014390892
2.1797369e-05
2.5315352e-05
3.2576489e-05
4.2832332e-05
5.5751828e-05
7.1580558e-05
9.1362625e-05
0.00011737319
0.0001542812
0.00021249774
0.00031951873
0.00057097332
0.0014415207
2.2800692e-05
2.6223983e-05
3.3311941e-05
4.3372362e-05
5.6111337e-05
7.1788219e-05
9.1450777e-05
0.00011737786
0.00015424704
0.00021248927
0.00031965201
0.0005715379
0.0014438419
2.3710403e-05
2.7037977e-05
3.3951388e-05
4.3815874e-05
5.6376316e-05
7.1906692e-05
9.1457657e-05
0.00011731022
0.00015414911
0.00021242401
0.00031973234
0.000572045
0.0014460426
2.4526701e-05
2.7759361e-05
3.4499555e-05
4.4169529e-05
5.655387e-05
7.1942283e-05
9.138817e-05
0.00011717368
0.00015398952
0.00021230292
0.00031975955
0.00057249258
0.001448114
2.5251562e-05
2.8391404e-05
3.4961707e-05
4.444013e-05
5.6651213e-05
7.1901559e-05
9.1247656e-05
0.00011697222
0.000153771
0.00021212769
0.00031973429
0.00057287948
0.0014500481
2.5888278e-05
2.8938286e-05
3.5343456e-05
4.4634486e-05
5.6675545e-05
7.1791235e-05
9.1041803e-05
0.00011671034
0.00015349695
0.00021190076
0.00031965801
0.00057320545
0.0014518386
2.6441082e-05
2.9404817e-05
3.5650591e-05
4.4759303e-05
5.6633948e-05
7.1618068e-05
9.0776555e-05
0.00011639299
0.00015317136
0.00021162527
0.00031953296
0.00057347119
0.0014534809
2.6914834e-05
2.9796196e-05
3.5888957e-05
4.4821107e-05
5.6533305e-05
7.1388766e-05
9.0458013e-05
0.00011602548
0.00015279874
0.00021130498
0.00031936213
0.00057367828
0.001454972
2.731477e-05
3.0117836e-05
3.6064344e-05
4.4826183e-05
5.6380236e-05
7.1109904e-05
9.0092342e-05
0.00011561335
0.00015238399
0.0002109442
0.00031914914
0.00057382911
0.0014563107
2.764631e-05
3.037521e-05
3.6182415e-05
4.4780536e-05
5.6181058e-05
7.0787856e-05
8.9685677e-05
0.00011516232
0.00015193234
0.00021054764
0.00031889813
0.00057392679
0.0014574977
2.791491e-05
3.0573744e-05
3.6248642e-05
4.4689862e-05
5.5941752e-05
7.042874e-05
8.9244046e-05
0.00011467815
0.0001514492
0.00021012034
0.00031861363
0.00057397499
0.0014585352
2.8125954e-05
3.0718738e-05
3.6268272e-05
4.4559534e-05
5.5667944e-05
7.0038378e-05
8.8773296e-05
0.00011416656
0.00015094005
0.0002096675
0.00031830044
0.00057397782
0.001459427
2.8284673e-05
3.08153e-05
3.6246291e-05
4.4394592e-05
5.5364896e-05
6.9622262e-05
8.8279038e-05
0.00011363313
0.00015041037
0.00020919437
0.00031796348
0.00057393969
0.0014601783
2.8396091e-05
3.0868311e-05
3.6187411e-05
4.4199744e-05
5.5037501e-05
6.9185536e-05
8.7766597e-05
0.00011308327
0.00014986551
0.00020870615
0.00031760768
0.00057386518
0.0014607953
2.8464991e-05
3.0882397e-05
3.6096059e-05
4.3979365e-05
5.469029e-05
6.8732981e-05
8.7240978e-05
0.00011252209
0.0001493106
0.00020820788
0.00031723786
0.00057375891
0.0014612853
2.8495888e-05
3.0861915e-05
3.5976372e-05
4.3737511e-05
5.4327435e-05
6.8269012e-05
8.6706837e-05
0.00011195442
0.00014875052
0.00020770437
0.00031685863
0.00057362544
0.0014616561
2.8493023e-05
3.0810942e-05
3.5832201e-05
4.3477921e-05
5.3952761e-05
6.7797673e-05
8.6168466e-05
0.00011138474
0.00014818982
0.0002072001
0.00031647435
0.00057346919
0.0014619163
2.8460353e-05
3.0733281e-05
3.5667116e-05
4.320403e-05
5.3569755e-05
6.7322649e-05
8.5629783e-05
0.00011081715
0.00014763268
0.00020669922
0.00031608901
0.00057329432
0.0014620746
2.8401559e-05
3.0632456e-05
3.5484412e-05
4.2918983e-05
5.3181585e-05
6.684727e-05
8.5094332e-05
0.00011025536
0.00014708289
0.00020620546
0.00031570625
0.00057310475
0.00146214
2.8320046e-05
3.0511728e-05
3.5287118e-05
4.2625649e-05
5.2791107e-05
6.6374522e-05
8.4565286e-05
0.0001097027
0.00014654384
0.00020572215
0.0003153293
0.00057290407
0.0014621212
2.8218957e-05
3.0374097e-05
3.5078011e-05
4.2326629e-05
5.2400887e-05
6.5907064e-05
8.4045452e-05
0.00010916211
0.00014601849
0.0002052522
0.00031496098
0.00057269552
0.001462027
2.8101179e-05
3.0222316e-05
3.4859624e-05
4.2024274e-05
5.2013215e-05
6.5447243e-05
8.3537292e-05
0.00010863613
0.00014550941
0.00020479808
0.00031460371
0.00057248203
0.0014618661
2.7969359e-05
3.0058904e-05
3.4634262e-05
4.1720701e-05
5.163012e-05
6.4997108e-05
8.304293e-05
0.00010812695
0.00014501877
0.00020436187
0.00031425949
0.00057226615
0.0014616464
2.7825912e-05
2.9886153e-05
3.4404011e-05
4.1417802e-05
5.1253386e-05
6.4558431e-05
8.2564175e-05
0.0001076364
0.00014454835
0.00020394524
0.00031392997
0.00057205012
0.0014613759
2.7673038e-05
2.9706147e-05
3.4170752e-05
4.1117261e-05
5.088457e-05
6.4132726e-05
8.2102539e-05
0.00010716597
0.00014409958
0.0002035495
0.0003136164
0.00057183581
0.0014610619
2.7512732e-05
2.9520771e-05
3.3936175e-05
4.0820565e-05
5.0525016e-05
6.3721261e-05
8.1659258e-05
0.00010671686
0.00014367356
0.00020317563
0.00031331982
0.00057162457
0.0014607109
2.7346798e-05
2.9331723e-05
3.3701787e-05
4.0529022e-05
5.0175873e-05
6.3325086e-05
8.1235311e-05
0.00010628997
0.00014327106
0.00020282426
0.00031304075
0.0005714165
0.0014603285
2.7176864e-05
2.9140529e-05
3.3468931e-05
4.024377e-05
4.9838105e-05
6.2945041e-05
8.0831445e-05
0.00010588595
0.00014289264
0.00020249591
0.00031277958
0.00057120938
0.0014599198
2.7004389e-05
2.8948553e-05
3.3238791e-05
3.9965788e-05
4.951251e-05
6.258178e-05
8.0448193e-05
0.00010550519
0.00014253851
0.00020219046
0.00031253539
0.00057100479
0.0014594898
2.6830677e-05
2.8757005e-05
3.3012406e-05
3.9695913e-05
4.9199736e-05
6.2235792e-05
8.0085911e-05
0.00010514795
0.00014220888
0.00020190803
0.00031230616
0.0005708058
0.001459044
2.6656891e-05
2.8566961e-05
3.2790682e-05
3.9434848e-05
4.8900289e-05
6.1907412e-05
7.9744785e-05
0.00010481425
0.00014190345
0.000201647
0.00031209279
0.00057061398
0.0014585872
2.648406e-05
2.8379365e-05
3.25744e-05
3.9183177e-05
4.8614551e-05
6.1596837e-05
7.942483e-05
0.0001045039
0.00014162172
0.0002014064
0.00031189577
0.00057043049
0.0014581239
2.6313092e-05
2.8195042e-05
3.2364231e-05
3.8941373e-05
4.8342796e-05
6.1304158e-05
7.9125984e-05
0.00010421667
0.00014136221
0.00020118622
0.00031171521
0.00057025608
0.001457658
2.614478e-05
2.8014711e-05
3.2160738e-05
3.8709809e-05
4.8085195e-05
6.102935e-05
7.8847997e-05
0.00010395153
0.00014112446
0.00020098613
0.00031155095
0.00057009125
0.0014571932
2.5979818e-05
2.7838988e-05
3.1964394e-05
3.8488769e-05
4.784183e-05
6.0772283e-05
7.8590342e-05
0.00010370765
0.00014090798
0.00020080564
0.00031140263
0.00056993626
0.0014567325
2.5818804e-05
2.7668402e-05
3.1775587e-05
3.827846e-05
4.761271e-05
6.053271e-05
7.8352159e-05
0.0001034845
0.00014071216
0.00020064413
0.00031126975
0.00056979119
0.0014562785
2.566225e-05
2.7503399e-05
3.1594633e-05
3.8079036e-05
4.739776e-05
6.0309961e-05
7.8132964e-05
0.00010328147
0.00014053628
0.00020050084
0.00031115172
0.00056965601
0.0014558336
2.5510597e-05
2.7344359e-05
3.14218e-05
3.7890535e-05
4.7196575e-05
6.0103645e-05
7.7932209e-05
0.00010309788
0.00014037956
0.00020037496
0.00031104785
0.00056953058
0.0014553996
2.5364225e-05
2.7191603e-05
3.1257212e-05
3.7712811e-05
4.7008899e-05
5.9913328e-05
7.7749292e-05
0.00010293298
0.00014024113
0.0002002656
0.00031095741
0.00056941468
0.0014549783
2.5223413e-05
2.7045319e-05
3.1100914e-05
3.7545749e-05
4.6834439e-05
5.9738537e-05
7.758357e-05
0.00010278597
0.00014012011
0.00020017186
0.00031087963
0.00056930804
0.0014545709
2.5088363e-05
2.6905643e-05
3.0952915e-05
3.7389203e-05
4.667287e-05
5.9578764e-05
7.7434357e-05
0.00010265603
0.00014001554
0.00020009279
0.00031081374
0.00056921035
0.0014541786
2.4959227e-05
2.6772665e-05
3.0813188e-05
3.7242992e-05
4.6523836e-05
5.9433471e-05
7.7300943e-05
0.00010254228
0.00013992649
0.00020002744
0.00031075893
0.00056912126
0.0014538023
2.4836106e-05
2.6646434e-05
3.0681672e-05
3.7106906e-05
4.6386955e-05
5.9302093e-05
7.7182593e-05
0.00010244385
0.00013985199
0.00019997487
0.00031071442
0.00056904041
0.0014534426
2.4719067e-05
2.6526963e-05
3.0558275e-05
3.6980707e-05
4.6261818e-05
5.9184047e-05
7.7078555e-05
0.00010235987
0.00013979108
0.00019993412
0.00031067944
0.0005689674
0.0014531001
2.4608138e-05
2.6414231e-05
3.0442873e-05
3.6864134e-05
4.6147999e-05
5.9078731e-05
7.6988068e-05
0.00010228944
0.00013974281
0.00019990428
0.00031065321
0.00056890185
0.001452775
2.4503317e-05
2.6308187e-05
3.033532e-05
3.6756901e-05
4.6045053e-05
5.8985534e-05
7.6910366e-05
0.00010223167
0.00013970625
0.00019988445
0.00031063502
0.00056884338
0.0014524676
2.4404571e-05
2.6208756e-05
3.0235443e-05
3.6658705e-05
4.595252e-05
5.8903836e-05
7.6844683e-05
0.00010218571
0.00013968047
0.00019987376
0.00031062414
0.00056879158
0.0014521778
2.4311844e-05
2.6115835e-05
3.014305e-05
3.6569226e-05
4.5869931e-05
5.8833013e-05
7.6790258e-05
0.00010215067
0.00013966457
0.00019987136
0.00031061991
0.00056874609
0.0014519057
2.4225055e-05
2.6029303e-05
3.0057931e-05
3.6488131e-05
4.5796809e-05
5.877244e-05
7.6746337e-05
0.00010212573
0.00013965771
0.00019987645
0.00031062166
0.00056870651
0.0014516511
2.4144103e-05
2.5949016e-05
2.9979859e-05
3.6415076e-05
4.5732672e-05
5.8721496e-05
7.6712179e-05
0.00010211007
0.00013965903
0.00019988826
0.00031062879
0.00056867247
0.0014514137
2.4068868e-05
2.5874817e-05
2.9908593e-05
3.6349707e-05
4.5677034e-05
5.8679565e-05
7.6687059e-05
0.00010210289
0.00013966774
0.00019990605
0.0003106407
0.00056864362
0.0014511932
2.3999214e-05
2.580653e-05
2.9843882e-05
3.6291664e-05
4.5629413e-05
5.864604e-05
7.6670268e-05
0.00010210342
0.00013968308
0.00019992912
0.00031065686
0.0005686196
0.0014509894
2.3934989e-05
2.574397e-05
2.9785465e-05
3.6240583e-05
4.5589324e-05
5.8620323e-05
7.6661116e-05
0.00010211093
0.00013970431
0.00019995684
0.00031067673
0.00056860007
0.0014508016
2.387603e-05
2.5686938e-05
2.9733072e-05
3.6196098e-05
4.5556292e-05
5.8601831e-05
7.6658939e-05
0.00010212471
0.00013973074
0.00019998857
0.00031069983
0.00056858469
0.0014506294
2.3822163e-05
2.5635227e-05
2.9686429e-05
3.6157842e-05
4.5529844e-05
5.8589994e-05
7.6663091e-05
0.00010214408
0.00013976172
0.00020002374
0.00031072571
0.00056857314
0.0014504724
2.3773204e-05
2.5588622e-05
2.9645257e-05
3.6125447e-05
4.5509518e-05
5.8584259e-05
7.6672957e-05
0.00010216841
0.00013979663
0.0002000618
0.00031075394
0.00056856512
0.0014503299
2.3728962e-05
2.5546904e-05
2.9609274e-05
3.6098552e-05
4.549486e-05
5.858409e-05
7.6687944e-05
0.00010219707
0.00013983489
0.00020010227
0.00031078413
0.00056856032
0.0014502014
2.368924e-05
2.5509845e-05
2.9578199e-05
3.6076796e-05
4.5485428e-05
5.8588972e-05
7.6707486e-05
0.00010222951
0.00013987596
0.00020014467
0.00031081592
0.00056855848
0.0014500862
2.3653835e-05
2.5477219e-05
2.9551749e-05
3.6059826e-05
4.5480791e-05
5.8598408e-05
7.6731048e-05
0.00010226517
0.00013991934
0.00020018857
0.00031084896
0.00056855932
0.0014499837
2.3622542e-05
2.5448794e-05
2.9529643e-05
3.6047296e-05
4.5480533e-05
5.8611922e-05
7.6758118e-05
0.00010230356
0.00013996456
0.00020023358
0.00031088297
0.0005685626
0.0014498934
2.3595153e-05
2.5424339e-05
2.9511603e-05
3.6038867e-05
4.5484251e-05
5.862906e-05
7.6788218e-05
0.00010234418
0.00014001118
0.00020027933
0.00031091765
0.00056856807
0.0014498145
2.3571458e-05
2.5403623e-05
2.9497356e-05
3.6034207e-05
4.5491557e-05
5.864939e-05
7.6820891e-05
0.00010238661
0.00014005881
0.0002003255
0.00031095275
0.0005685755
0.0014497465
2.3551248e-05
2.5386416e-05
2.9486631e-05
3.6032997e-05
4.5502081e-05
5.86725e-05
7.6855715e-05
0.00010243043
0.00014010709
0.00020037178
0.00031098802
0.00056858468
0.0014496887
2.3534314e-05
2.5372492e-05
2.9479165e-05
3.6034926e-05
4.5515466e-05
5.8698004e-05
7.689229e-05
0.00010247526
0.00014015566
0.00020041791
0.00031102326
0.00056859538
0.0014496405
2.3520449e-05
2.5361627e-05
2.94747e-05
3.6039695e-05
4.5531373e-05
5.8725536e-05
7.6930247e-05
0.00010252075
0.00014020424
0.00020046363
0.00031105827
0.00056860739
0.0014496012
2.350945e-05
2.53536e-05
2.9472986e-05
3.6047017e-05
4.5549481e-05
5.8754751e-05
7.6969241e-05
0.00010256659
0.00014025255
0.00020050872
0.00031109287
0.00056862052
0.0014495703
2.3501113e-05
2.5348196e-05
2.947378e-05
3.6056616e-05
4.5569485e-05
5.878533e-05
7.7008955e-05
0.00010261247
0.00014030033
0.00020055298
0.00031112689
0.00056863458
0.0014495472
2.3495243e-05
2.5345206e-05
2.9476849e-05
3.6068228e-05
4.5591098e-05
5.8816973e-05
7.7049097e-05
0.00010265814
0.00014034736
0.00020059625
0.00031116022
0.00056864941
0.0014495311
2.3491646e-05
2.5344424e-05
2.9481966e-05
3.6081605e-05
4.5614049e-05
5.8849404e-05
7.7089401e-05
0.00010270336
0.00014039346
0.00020063838
0.00031119272
0.00056866486
0.0014495216
2.3490136e-05
2.5345655e-05
2.9488916e-05
3.6096509e-05
4.5638086e-05
5.8882365e-05
7.7129623e-05
0.00010274791
0.00014043845
0.00020067924
0.00031122431
0.0005686808
0.001449518
2.3490529e-05
2.5348706e-05
2.9497492e-05
3.6112716e-05
4.5662973e-05
5.8915622e-05
7.7169544e-05
0.00010279161
0.00014048217
0.00020071872
0.0003112549
0.00056869713
0.0014495198
2.349265e-05
2.5353395e-05
2.9507496e-05
3.6130015e-05
4.5688492e-05
5.894896e-05
7.7208967e-05
0.00010283428
0.00014052452
0.00020075674
0.00031128443
0.00056871374
0.0014495266
2.349633e-05
2.5359545e-05
2.9518742e-05
3.6148208e-05
4.5714439e-05
5.8982182e-05
7.7247716e-05
0.00010287579
0.00014056537
0.00020079323
0.00031131284
0.00056873054
0.0014495378
2.3501405e-05
2.536699e-05
2.9531054e-05
3.616711e-05
4.574063e-05
5.9015112e-05
7.7285634e-05
0.00010291601
0.00014060465
0.00020082812
0.00031134008
0.00056874743
0.0014495531
2.350772e-05
2.5375568e-05
2.9544262e-05
3.6186549e-05
4.5766892e-05
5.9047589e-05
7.7322584e-05
0.00010295484
0.00014064227
0.00020086137
0.00031136611
0.0005687643
0.0014495719
2.3515127e-05
2.5385127e-05
2.9558212e-05
3.6206367e-05
4.579307e-05
5.9079471e-05
7.7358445e-05
0.00010299217
0.00014067818
0.00020089295
0.00031139088
0.00056878103
0.001449594
2.3523482e-05
2.5395524e-05
2.9572756e-05
3.6226414e-05
4.5819024e-05
5.9110633e-05
7.7393115e-05
0.00010302795
0.00014071232
0.00020092282
0.00031141436
0.00056879751
0.0014496189
2.3532654e-05
2.5406624e-05
2.9587756e-05
3.6246557e-05
4.5844625e-05
5.9140962e-05
7.7426507e-05
0.0001030621
0.00014074468
0.00020095097
0.00031143654
0.00056881364
0.0014496462
2.3542515e-05
2.5418299e-05
2.9603087e-05
3.6266672e-05
4.5869761e-05
5.9170363e-05
7.7458549e-05
0.00010309459
0.00014077523
0.0002009774
0.00031145738
0.00056882921
0.0014496754
2.3552947e-05
2.5430431e-05
2.961863e-05
3.6286646e-05
4.5894331e-05
5.9198754e-05
7.7489184e-05
0.00010312539
0.00014080397
0.00020100213
0.00031147689
0.00056884394
0.0014497059
2.3563839e-05
2.5442909e-05
2.9634278e-05
3.630638e-05
4.5918248e-05
5.9226068e-05
7.7518368e-05
0.00010315447
0.0001408309
0.00020102515
0.00031149501
0.00056885782
0.0014497374
2.3575087e-05
2.5455631e-05
2.9649933e-05
3.6325784e-05
4.5941437e-05
5.925225e-05
7.7546072e-05
0.00010318184
0.00014085605
0.00020104652
0.00031151165
0.00056887099
0.0014497697
2.3586595e-05
2.5468503e-05
2.9665506e-05
3.6344779e-05
4.5963833e-05
5.9277256e-05
7.7572279e-05
0.0001032075
0.00014087943
0.00020106621
0.00031152686
0.00056888356
0.0014498023
2.3598275e-05
2.5481439e-05
2.9680916e-05
3.6363293e-05
4.5985384e-05
5.9301057e-05
7.7596983e-05
0.00010323149
0.0001409011
0.00020108419
0.00031154078
0.00056889559
0.0014498352
2.3610044e-05
2.5494359e-05
2.9696091e-05
3.6381268e-05
4.6006047e-05
5.9323631e-05
7.7620188e-05
0.0001032538
0.00014092102
0.00020110055
0.0003115535
0.00056890715
0.0014498682
2.3621829e-05
2.5507192e-05
2.9710967e-05
3.6398652e-05
4.6025787e-05
5.9344964e-05
7.7641901e-05
0.00010327448
0.00014093923
0.00020111538
0.0003115651
0.00056891825
0.0014499011
2.363356e-05
2.5519873e-05
2.9725487e-05
3.6415401e-05
4.6044579e-05
5.9365057e-05
7.7662148e-05
0.0001032935
0.00014095578
0.00020112876
0.00031157564
0.00056892894
0.001449934
2.3645176e-05
2.5532345e-05
2.9739603e-05
3.643148e-05
4.6062408e-05
5.9383914e-05
7.7680912e-05
0.00010331091
0.00014097077
0.00020114076
0.00031158518
0.0005689392
0.0014499667
2.3656622e-05
2.5544556e-05
2.9753271e-05
3.6446861e-05
4.6079265e-05
5.9401524e-05
7.7698211e-05
0.00010332676
0.00014098425
0.00020115146
0.00031159376
0.00056894902
0.0014499991
2.3667849e-05
2.555646e-05
2.9766457e-05
3.6461525e-05
4.6095135e-05
5.9417887e-05
7.7714083e-05
0.00010334112
0.00014099628
0.00020116091
0.00031160142
0.00056895835
0.0014500312
2.3678812e-05
2.5568021e-05
2.9779133e-05
3.6475448e-05
4.6110005e-05
5.9433022e-05
7.7728569e-05
0.00010335403
0.00014100694
0.00020116917
0.00031160818
0.00056896713
0.0014500628
2.3689477e-05
2.5579205e-05
2.9791269e-05
3.6488611e-05
4.612388e-05
5.9446954e-05
7.7741714e-05
0.00010336556
0.0001410163
0.0002011763
0.00031161407
0.00056897531
0.0014500938
2.3699809e-05
2.5589979e-05
2.9802842e-05
3.6501007e-05
4.613677e-05
5.9459713e-05
7.7753566e-05
0.00010337578
0.0001410244
0.00020118235
0.00031161909
0.00056898282
0.001450124
2.3709776e-05
2.5600319e-05
2.9813835e-05
3.6512632e-05
4.6148691e-05
5.9471334e-05
7.7764177e-05
0.00010338474
0.00014103133
0.00020118738
0.00031162329
0.00056898963
0.0014501531
2.3719356e-05
2.5610202e-05
2.9824236e-05
3.6523491e-05
4.6159663e-05
5.9481857e-05
7.7773603e-05
0.00010339251
0.00014103715
0.00020119145
0.0003116267
0.00056899575
0.001450181
2.3728527e-05
2.5619613e-05
2.983404e-05
3.6533591e-05
4.6169713e-05
5.9491325e-05
7.7781903e-05
0.00010339915
0.00014104194
0.00020119464
0.00031162939
0.0005690012
0.0014502074
2.3737274e-05
2.5628543e-05
2.9843246e-05
3.6542946e-05
4.6178869e-05
5.9499783e-05
7.7789137e-05
0.00010340475
0.00014104576
0.000201197
0.00031163143
0.00056900607
0.0014502321
2.3745587e-05
2.5636983e-05
2.9851857e-05
3.6551572e-05
4.6187164e-05
5.9507282e-05
7.7795368e-05
0.00010340937
0.0001410487
0.00020119864
0.00031163291
0.00056901045
0.0014502553
2.3753457e-05
2.5644932e-05
2.9859879e-05
3.6559489e-05
4.6194634e-05
5.9513871e-05
7.7800659e-05
0.00010341309
0.00014105084
0.00020119962
0.00031163391
0.00056901447
0.0014502768
2.3760881e-05
2.565239e-05
2.9867323e-05
3.6566719e-05
4.6201315e-05
5.9519601e-05
7.7805074e-05
0.00010341598
0.00014105225
0.00020120002
0.00031163451
0.00056901824
0.0014502969
2.3767858e-05
2.5659359e-05
2.9874199e-05
3.6573286e-05
4.6207244e-05
5.9524522e-05
7.7808673e-05
0.0001034181
0.000141053
0.00020119993
0.00031163478
0.00056902184
0.0014503158
2.3774388e-05
2.5665846e-05
2.9880523e-05
3.6579215e-05
4.6212459e-05
5.9528684e-05
7.7811516e-05
0.00010341952
0.00014105316
0.00020119938
0.00031163478
0.00056902531
0.0014503336