/*--------------------------------*- C++ -*----------------------------------*\
| =========                 |                                                 |
| \\      /  F ield         | OpenFOAM: The Open Source CFD Toolbox           |
|  \\    /   O peration     | Version:  2506                                  |
|   \\  /    A nd           | Website:  www.openfoam.com                      |
|    \\/     M anipulation  |                                                 |
\*---------------------------------------------------------------------------*/
FoamFile
{
    version     2.0;
    format      ascii;
    arch        "LSB;label=32;scalar=64";
    class       volScalarField;
    location    "1000/water";
    object      k;
}
// * * * * * * * * * * * * * * * * * * * * * * * * * * * * * * * * * * * * * //

dimensions      [0 2 -2 0 0 0 0];

internalField   nonuniform List<scalar> 
2600
(
0.0001992401
0.00019923925
0.00019923929
0.00019923963
0.00019923982
0.00019923914
0.00019923438
0.00019921375
0.00019914651
0.00019904325
0.00019990841
0.00021454267
0.00040955349
0.00017237279
0.00017237614
0.00017237826
0.00017238051
0.0001723821
0.00017237949
0.00017235884
0.00017227555
0.000172027
0.00017162102
0.00017329371
0.00020304806
0.00052391648
0.00015132731
0.00015133049
0.00015133306
0.00015133552
0.00015133516
0.00015132207
0.00015126283
0.00015106462
0.00015055477
0.00014985944
0.0001528957
0.00019760629
0.00057958156
0.00013448336
0.00013448533
0.00013448764
0.00013448905
0.00013448325
0.00013445009
0.00013432997
0.00013398205
0.00013321503
0.00013247936
0.00013787909
0.00019702317
0.00059640815
0.00012075551
0.00012075697
0.00012075853
0.00012075718
0.00012074152
0.0001206782
0.00012048052
0.00011997843
0.0001190486
0.00011870929
0.00012776334
0.00020116854
0.00059206885
0.0001093899
0.00010939088
0.000109391
0.00010938492
0.00010935483
0.00010925313
0.00010897207
0.00010834649
0.00010742643
0.0001080609
0.00012226457
0.00021023394
0.00057809221
9.984982e-05
9.9850093e-05
9.9847944e-05
9.9835056e-05
9.9786463e-05
9.9641865e-05
9.9284958e-05
9.859999e-05
9.7925044e-05
0.00010022517
0.00012123091
0.00022425603
0.00056106272
9.1744874e-05
9.174416e-05
9.1738826e-05
9.1717148e-05
9.1647174e-05
9.1460104e-05
9.1049018e-05
9.0398665e-05
9.0258419e-05
9.5030413e-05
0.00012461431
0.00024286356
0.00054449405
8.4785472e-05
8.4783454e-05
8.4774018e-05
8.4741918e-05
8.4649457e-05
8.4426122e-05
8.3996574e-05
8.3502376e-05
8.4241543e-05
9.2421343e-05
0.00013239492
0.00026511347
0.00053012765
7.8752977e-05
7.8749319e-05
7.8734951e-05
7.8691403e-05
7.8577619e-05
7.8330528e-05
7.7932172e-05
7.7743318e-05
7.9771153e-05
9.2438123e-05
0.00014444361
0.00028951151
0.0005186607
7.3479682e-05
7.3474066e-05
7.3454131e-05
7.3398964e-05
7.3267704e-05
7.3016085e-05
7.2712929e-05
7.3009357e-05
7.6815021e-05
9.5182833e-05
0.00016036324
0.00031428525
0.00051014247
6.8835097e-05
6.8827266e-05
6.8801436e-05
6.8735571e-05
6.8593744e-05
6.836405e-05
6.8235745e-05
6.9234209e-05
7.5403716e-05
0.00010076472
0.00017939076
0.00033780739
0.0005042266
6.4716374e-05
6.4706175e-05
6.4674551e-05
6.4600233e-05
6.4458202e-05
6.4284863e-05
6.4429045e-05
6.6391811e-05
7.5619872e-05
0.0001092241
0.00020043528
0.00035894529
0.00050037283
6.1041501e-05
6.1028932e-05
6.0992164e-05
6.091321e-05
6.0785257e-05
6.0711783e-05
6.1247563e-05
6.4493002e-05
7.7580807e-05
0.00012045028
0.00022225715
0.00037717552
0.0004980107
5.7744396e-05
5.7729653e-05
5.7689074e-05
5.7611142e-05
5.751606e-05
5.7596592e-05
5.8669223e-05
6.3582872e-05
8.1411586e-05
0.00013412437
0.00024370832
0.00039247762
0.00049664628
5.4771313e-05
5.4754847e-05
5.4712615e-05
5.4643526e-05
5.4605384e-05
5.4906753e-05
5.6693486e-05
6.3736861e-05
8.7208043e-05
0.00014971788
0.00026392364
0.00040513366
0.00049590625
5.2078186e-05
5.206076e-05
5.2020025e-05
5.1970154e-05
5.2019282e-05
5.2623661e-05
5.5340605e-05
6.5053658e-05
9.4994186e-05
0.00016655656
0.0002823955
0.00041554871
0.00049553614
4.9628636e-05
4.9611393e-05
4.9576492e-05
4.9559258e-05
4.9733503e-05
5.0741693e-05
5.4651195e-05
6.7643173e-05
0.00010468473
0.00018392817
0.00029893688
0.00042413794
0.00049537652
4.7392458e-05
4.7377004e-05
4.7353699e-05
4.7386176e-05
4.773248e-05
4.9267886e-05
5.4685329e-05
7.1608744e-05
0.00011606686
0.00020119288
0.00031358495
0.0004312733
0.0004953351
4.5344476e-05
4.5332971e-05
4.5328746e-05
4.5432431e-05
4.600877e-05
4.8222045e-05
5.5520139e-05
7.7024463e-05
0.0001288111
0.00021785898
0.00032650009
0.00043726613
0.00049536294
4.3463657e-05
4.3458933e-05
4.3483358e-05
4.3685127e-05
4.4562868e-05
4.7637066e-05
5.7244888e-05
8.3911107e-05
0.00014251076
0.00023360813
0.00033789056
0.00044236711
0.00049543702
4.1732429e-05
4.173814e-05
4.1803329e-05
4.2136614e-05
4.3403329e-05
4.7559128e-05
5.99527e-05
9.2216774e-05
0.00015673762
0.00024827796
0.00034796834
0.00044677301
0.00049554866
4.0136167e-05
4.015697e-05
4.0278148e-05
4.0784372e-05
4.2547129e-05
4.8047288e-05
6.3728702e-05
0.00010180889
0.00017109624
0.00026182258
0.0003569282
0.00045063571
0.00049569617
3.8662802e-05
3.8704582e-05
3.8900797e-05
3.9631107e-05
4.2020194e-05
4.9171841e-05
6.8635431e-05
0.00011248166
0.0001852623
0.00027427018
0.00036494028
0.00045407114
0.00049588069
3.7302531e-05
3.7372692e-05
3.7667676e-05
3.8685008e-05
4.1857944e-05
5.1010817e-05
7.4697747e-05
0.00012397798
0.00019899861
0.00028568912
0.00037214923
0.00045716736
0.00049610392
3.6047628e-05
3.6155447e-05
3.6578682e-05
3.7960181e-05
4.2105652e-05
5.3644138e-05
8.1890767e-05
0.00013601989
0.00021215193
0.00029616534
0.00037867608
0.00045999117
0.00049636709
3.4892327e-05
3.5049398e-05
3.5637397e-05
3.74772e-05
4.2818254e-05
5.7145345e-05
9.013449e-05
0.00014833915
0.00022463802
0.00030578893
0.00038462123
0.0004625934
0.00049667064
3.383279e-05
3.4053568e-05
3.4851411e-05
3.7263736e-05
4.4059203e-05
6.1571463e-05
9.9297382e-05
0.00016070076
0.00023642316
0.00031464714
0.00039006764
0.00046501299
0.00049701416
3.2867148e-05
3.316962e-05
3.4232754e-05
3.7355161e-05
4.589791e-05
6.6952452e-05
0.00010920861
0.00017291579
0.00024750737
0.00032282077
0.00039508379
0.00046727996
0.00049739654
3.1995627e-05
3.2402111e-05
3.3798454e-05
3.7794962e-05
4.8405427e-05
7.3282437e-05
0.00011967597
0.00018484396
0.00025791153
0.00033038288
0.00039972633
0.00046941774
0.00049781615
3.1220754e-05
3.1758868e-05
3.3571165e-05
3.8634688e-05
5.16483e-05
8.0515036e-05
0.00013050501
0.00019638897
0.00026766839
0.00033739836
0.00040404224
0.00047144508
0.00049827105
3.0547674e-05
3.1251458e-05
3.3579859e-05
3.9933128e-05
5.5680956e-05
8.8564414e-05
0.00014151527
0.0002074904
0.00027681665
0.00034392427
0.00040806987
0.00047336165
0.00049875826
2.9984563e-05
3.0895778e-05
3.3860461e-05
4.1754322e-05
6.0537584e-05
9.7312152e-05
0.00015255089
0.00021811501
0.00028539699
0.00035000997
0.00041183983
0.00047517684
0.00049927448
2.9543172e-05
3.071274e-05
3.4456303e-05
4.416415e-05
6.6225005e-05
0.00010661843
0.0001634853
0.00022824915
0.00029345001
0.00035569879
0.00041537498
0.00047690098
0.00049981638
2.9239498e-05
3.072904e-05
3.5418148e-05
4.7225364e-05
7.2718216e-05
0.00011633497
0.00017422102
0.00023789273
0.00030101459
0.00036102773
0.000418694
0.00047854313
0.00050038114
2.9094595e-05
3.0977951e-05
3.6803501e-05
5.0991333e-05
7.9959882e-05
0.00012631696
0.00018468652
0.00024705469
0.00030812684
0.00036602759
0.00042181619
0.00048011509
0.00050096676
2.9135496e-05
3.1500046e-05
3.8674859e-05
5.5499187e-05
8.7864163e-05
0.00013643209
0.00019483195
0.00025575014
0.00031482083
0.00037072328
0.00042475508
0.00048162854
0.000501572
2.9396231e-05
3.2343668e-05
4.1096629e-05
6.0763501e-05
9.6324069e-05
0.00014656574
0.00020462431
0.00026399669
0.00032112525
0.00037513787
0.00042753007
0.00048308916
0.00050219529
2.991884e-05
3.3564907e-05
4.4130582e-05
6.677188e-05
0.00010522078
0.00015662301
0.00021404417
0.00027181504
0.00032706605
0.00037928746
0.00043015897
0.00048450265
0.0005028351
3.075424e-05
3.5226722e-05
4.7830028e-05
7.3483547e-05
0.00011443286
0.00016652782
0.000223081
0.00027922362
0.00033266466
0.00038319521
0.00043265449
0.00048587307
0.00050348988
3.1962693e-05
3.7396838e-05
5.2233342e-05
8.0831448e-05
0.00012384407
0.00017622135
0.00023173236
0.00028624169
0.00033793721
0.00038688251
0.00043502772
0.00048720351
0.00050415803
3.3613502e-05
4.0144087e-05
5.7357843e-05
8.8727387e-05
0.00013334836
0.0001856585
0.00023999854
0.00029288456
0.00034290598
0.00039036648
0.0004372879
0.00048849633
0.00050483796
3.5783406e-05
4.3533071e-05
6.3195307e-05
9.7069228e-05
0.00014285306
0.00019480683
0.00024788468
0.0002991623
0.0003475933
0.00039366186
0.00043944269
0.00048975325
0.00050552811
3.8553069e-05
4.7617434e-05
6.9710118e-05
0.00010574827
0.00015227865
0.00020364078
0.00025539329
0.00030509328
0.00035201758
0.00039678117
0.00044149842
0.00049097544
0.00050622692
4.2001159e-05
5.2432568e-05
7.6840725e-05
0.00011465642
0.00016156002
0.00021214495
0.00026252194
0.00031069682
0.000356195
0.00039973504
0.0004434603
0.00049216367
0.00050693283
4.6195929e-05
5.7988973e-05
8.4503825e-05
0.00012369061
0.00017064179
0.00022029902
0.00026928195
0.00031598929
0.00036013926
0.00040253238
0.00044533253
0.00049331827
0.00050764432
5.1185033e-05
6.4267726e-05
9.260065e-05
0.00013275651
0.0001794794
0.0002280859
0.00027568471
0.00032098504
0.00036386203
0.00040518057
0.00044711837
0.00049443922
0.00050835989
5.698538e-05
7.121931e-05
0.00010102459
0.00014177167
0.00018802209
0.00023550305
0.00028174032
0.00032569631
0.00036737305
0.00040768557
0.00044882027
0.00049552616
0.000509078
6.3575504e-05
7.8766104e-05
0.0001096681
0.00015065104
0.00019623702
0.00024254866
0.00028745748
0.00033013332
0.00037068025
0.00041005207
0.00045043989
0.00049657838
0.00050979713
7.0893516e-05
8.6809053e-05
0.00011841802
0.00015932165
0.00020409992
0.00024922141
0.00029284338
0.00033430429
0.00037378986
0.0004122835
0.00045197814
0.00049759485
0.00051051571
7.8838299e-05
9.5225408e-05
0.0001271655
0.00016772591
0.00021159055
0.00025552001
0.0002979036
0.00033821557
0.0003767065
0.00041438216
0.0004534352
0.0004985742
0.00051123214
8.7271785e-05
0.00010388142
0.00013581419
0.00017581509
0.00021869194
0.00026144299
0.00030264216
0.00034187169
0.00037943326
0.00041634921
0.00045481056
0.00049951471
0.00051194473
9.6036227e-05
0.00011264292
0.00014427888
0.00018354853
0.00022539001
0.00026698864
0.00030706162
0.00034527557
0.00038197183
0.0004181848
0.00045610305
0.00050041433
0.00051265169
0.00010496814
0.00012138221
0.00015248591
0.00019089303
0.00023167336
0.00027215518
0.00031116334
0.00034842867
0.00038432262
0.00041988809
0.00045731084
0.00050127065
0.00051335113
0.00011391062
0.00012998325
0.00016037327
0.00019782237
0.00023753334
0.00027694109
0.00031494782
0.0003513313
0.00038648499
0.00042145744
0.00045843155
0.00050208096
0.000514041
0.0001227225
0.00013834519
0.00016789035
0.00020431695
0.00024296424
0.00028134552
0.00031841515
0.00035398296
0.00038845746
0.00042289052
0.00045946231
0.00050284226
0.00051471912
0.00013128388
0.00014638429
0.00017499754
0.00021036345
0.0002479634
0.00028536874
0.00032156549
0.00035638278
0.00039023807
0.00042418454
0.00046039996
0.00050355139
0.00051538315
0.00013949841
0.00015403428
0.00018166558
0.00021595441
0.0002525314
0.0002890126
0.00032439958
0.00035852993
0.0003918247
0.00042533654
0.00046124115
0.00050420507
0.00051603066
0.00014729302
0.00016124581
0.00018787481
0.0002210878
0.00025667209
0.00029228083
0.00032691917
0.00036042412
0.00039321544
0.00042634366
0.00046198261
0.00050480008
0.00051665909
0.00015461608
0.00016798496
0.00019361426
0.00022576655
0.00026039247
0.00029517934
0.00032912749
0.00036206597
0.00039440904
0.00042720344
0.00046262135
0.00050533337
0.00051726584
0.00016143463
0.00017423141
0.00019888058
0.00022999793
0.00026370255
0.0002977163
0.00033102946
0.0003634574
0.00039540516
0.00042791416
0.00046315494
0.00050580229
0.00051784834
0.00016773136
0.00017997636
0.00020367699
0.00023379299
0.00026661505
0.00029990214
0.00033263194
0.00036460194
0.00039620478
0.00042847511
0.00046358171
0.00050620468
0.00051840408
0.0001735016
0.00018522052
0.00020801222
0.00023716595
0.00026914505
0.00030174944
0.00033394375
0.00036550482
0.00039681036
0.00042888682
0.00046390096
0.00050653907
0.00051893073
0.00017875055
0.00018997211
0.00021189946
0.00024013361
0.00027130959
0.00030327267
0.00033497564
0.00036617315
0.00039722602
0.00042915121
0.00046411312
0.00050680478
0.00051942616
0.00018349093
0.00019424521
0.00021535538
0.00024271476
0.00027312731
0.00030448798
0.00033574015
0.00036661583
0.00039745756
0.00042927174
0.00046421987
0.00050700198
0.00051988855
0.00018774095
0.00019805826
0.00021839933
0.00024492971
0.000274618
0.00030541286
0.00033625139
0.00036684345
0.00039751247
0.00042925335
0.00046422413
0.00050713179
0.00052031644
0.00019152273
0.00020143278
0.00022105255
0.00024679979
0.00027580229
0.00030606582
0.0003365248
0.00036686812
0.0003973998
0.00042910247
0.00046413006
0.0005071962
0.00052070875
0.00019486095
0.00020439239
0.00022333757
0.00024834696
0.00027670129
0.0003064661
0.00033657685
0.00036670326
0.00039712998
0.00042882686
0.00046394299
0.00050719807
0.00052106481
0.00019778187
0.000206962
0.00022527764
0.00024959348
0.0002773363
0.00030663333
0.00033642479
0.00036636328
0.00039671462
0.00042843543
0.00046366926
0.00050714104
0.00052138439
0.00020031252
0.00020916713
0.00022689631
0.0002505616
0.00027772856
0.00030658731
0.00033608632
0.00036586338
0.00039616624
0.00042793808
0.00046331609
0.00050702937
0.00052166766
0.00020248009
0.0002110334
0.00022821709
0.00025127332
0.00027789902
0.00030634773
0.00033557932
0.00036521921
0.00039549802
0.00042734538
0.00046289135
0.00050686788
0.00052191519
0.00020431151
0.00021258621
0.00022926316
0.00025175019
0.00027786819
0.00030593397
0.00033492164
0.00036444665
0.00039472356
0.00042666843
0.00046240336
0.00050666175
0.00052212792
0.00020583313
0.00021385038
0.00023005717
0.00025201318
0.00027765594
0.00030536494
0.00033413087
0.00036356154
0.00039385659
0.00042591854
0.00046186073
0.00050641641
0.00052230709
0.00020707044
0.00021484998
0.00023062104
0.00025208251
0.00027728145
0.00030465889
0.00033322414
0.00036257945
0.00039291074
0.00042510707
0.00046127212
0.00050613738
0.00052245422
0.00020804794
0.00021560815
0.00023097586
0.00025197761
0.00027676305
0.00030383336
0.00033221797
0.00036151556
0.0003918994
0.00042424519
0.00046064611
0.00050583015
0.00052257104
0.00020878903
0.00021614702
0.00023114182
0.00025171699
0.0002761182
0.00030290501
0.00033112815
0.0003603844
0.00039083547
0.00042334372
0.00045999101
0.00050550008
0.00052265945
0.00020931592
0.00021648763
0.0002311381
0.00025131825
0.00027536344
0.00030188963
0.00032996964
0.00035919983
0.00038973124
0.000422413
0.00045931477
0.0005051523
0.00052272148
0.00020964961
0.00021664991
0.00023098288
0.00025079799
0.00027451432
0.00030080203
0.0003287565
0.00035797485
0.00038859831
0.00042146276
0.00045862485
0.00050479166
0.00052275921
0.00020980987
0.00021665261
0.00023069329
0.00025017185
0.00027358541
0.00029965605
0.00032750182
0.0003567216
0.00038744746
0.00042050204
0.00045792816
0.00050442264
0.00052277478
0.00020981527
0.00021651335
0.00023028542
0.00024945447
0.00027259032
0.00029846453
0.00032621772
0.00035545126
0.00038628862
0.00041953912
0.00045723099
0.00050404933
0.0005227703
0.00020968313
0.00021624863
0.00022977431
0.00024865949
0.00027154163
0.00029723931
0.00032491534
0.00035417408
0.00038513082
0.00041858149
0.00045653903
0.00050367542
0.00052274786
0.00020942965
0.00021587381
0.00022917399
0.00024779962
0.00027045101
0.00029599127
0.00032360483
0.00035289933
0.00038398221
0.00041763586
0.00045585728
0.00050330417
0.00052270948
0.00020906984
0.0002154032
0.00022849749
0.00024688657
0.00026932914
0.00029473029
0.00032229534
0.00035163533
0.00038285001
0.00041670812
0.00045519014
0.00050293843
0.00052265712
0.00020861765
0.00021485004
0.00022775686
0.00024593117
0.0002681858
0.00029346536
0.00032099511
0.00035038946
0.00038174057
0.00041580337
0.00045454135
0.00050258065
0.00052259263
0.00020808595
0.00021422657
0.00022696322
0.00024494333
0.00026702991
0.00029220454
0.00031971145
0.00034916822
0.00038065941
0.00041492599
0.00045391407
0.00050223287
0.00052251776
0.00020748662
0.00021354407
0.00022612678
0.00024393212
0.0002658695
0.00029095504
0.00031845081
0.00034797722
0.00037961119
0.00041407959
0.00045331075
0.00050189532
0.00052243406
0.00020683058
0.00021281289
0.0002252569
0.00024290579
0.00026471183
0.00028972327
0.0003172188
0.00034682128
0.00037859983
0.00041326706
0.00045273313
0.00050156774
0.00052234289
0.00020612783
0.00021204253
0.00022436213
0.00024187182
0.00026356339
0.00028851484
0.00031602026
0.00034570444
0.00037762852
0.00041249065
0.00045218159
0.00050125099
0.00052224543
0.00020538753
0.00021124165
0.00022345022
0.00024083693
0.00026242993
0.00028733465
0.00031485929
0.00034463
0.00037669972
0.00041175182
0.00045165677
0.00050094658
0.00052214288
0.000204618
0.00021041811
0.00022252821
0.00023980716
0.00026131652
0.00028618693
0.00031373935
0.00034360069
0.00037581534
0.00041105101
0.00045115887
0.00050065644
0.00052203654
0.00020382683
0.00020957908
0.00022160242
0.00023878789
0.00026022762
0.00028507527
0.00031266325
0.0003426185
0.00037497632
0.00041038848
0.00045068912
0.00050038157
0.00052192758
0.00020302089
0.00020873099
0.00022067855
0.00023778389
0.00025916707
0.00028400267
0.00031163318
0.00034168483
0.00037418314
0.00040976447
0.00045024835
0.0005001227
0.00052181705
0.00020220635
0.00020787965
0.00021976167
0.00023679936
0.00025813818
0.00028297161
0.00031065085
0.00034080041
0.00037343552
0.00040917965
0.00044983696
0.00049988022
0.00052170591
0.0002013888
0.00020703028
0.00021885629
0.00023583795
0.00025714375
0.00028198403
0.00030971729
0.00033996521
0.00037273381
0.00040863417
0.00044945498
0.00049965432
0.000521595
0.00020057321
0.00020618751
0.0002179664
0.00023490284
0.00025618606
0.00028104137
0.00030883293
0.00033917919
0.0003720781
0.00040812785
0.00044910214
0.00049944492
0.00052148506
0.00019976403
0.00020535545
0.00021709547
0.00023399671
0.00025526699
0.00028014454
0.00030799764
0.00033844244
0.00037146811
0.0004076602
0.00044877796
0.00049925182
0.00052137671
0.00019896519
0.00020453775
0.00021624656
0.00023312186
0.00025438789
0.00027929366
0.00030721163
0.00033775471
0.00037090326
0.00040723046
0.00044848174
0.00049907467
0.0005212705
0.00019818018
0.00020373758
0.00021542229
0.00023228006
0.00025354939
0.00027848915
0.00030647477
0.00033711544
0.00037038268
0.00040683768
0.00044821266
0.00049891303
0.00052116691
0.00019741205
0.00020295772
0.00021462472
0.00023147248
0.00025275221
0.00027773113
0.00030578666
0.00033652382
0.00036990531
0.00040648072
0.00044796975
0.00049876635
0.00052106631
0.00019666334
0.00020220037
0.00021385552
0.00023070021
0.00025199681
0.00027701945
0.00030514664
0.0003359788
0.00036946987
0.00040615831
0.00044775193
0.00049863406
0.00052096905
0.00019593619
0.00020146742
0.00021311607
0.00022996408
0.00025128338
0.00027635373
0.00030455383
0.00033547915
0.00036907497
0.00040586904
0.00044755809
0.00049851552
0.00052087538
0.0001952324
0.00020076043
0.00021240751
0.00022926464
0.00025061188
0.00027573337
0.00030400716
0.00033502347
0.00036871905
0.00040561146
0.00044738702
0.00049841005
0.00052078551
0.00019455351
0.00020008071
0.00021173071
0.00022860222
0.00024998206
0.00027515757
0.00030350539
0.00033461023
0.00036840047
0.000405384
0.00044723751
0.00049831697
0.00052069961
0.00019390074
0.00019942929
0.00021108629
0.00022797693
0.00024939347
0.00027462536
0.00030304715
0.00033423778
0.00036811752
0.00040518511
0.00044710833
0.0004982356
0.0005206178
0.00019327511
0.00019880699
0.00021047469
0.00022738868
0.00024884549
0.00027413563
0.00030263092
0.0003339044
0.00036786843
0.00040501315
0.00044699821
0.00049816522
0.00052054014
0.00019267739
0.00019821438
0.0002098961
0.0002268372
0.00024833732
0.00027368712
0.00030225511
0.0003336083
0.00036765139
0.00040486653
0.00044690593
0.00049810514
0.0005204667
0.00019210814
0.00019765185
0.00020935055
0.00022632204
0.00024786805
0.00027327848
0.00030191804
0.00033334761
0.00036746458
0.00040474362
0.00044683026
0.00049805469
0.00052039748
0.00019156774
0.0001971196
0.0002088379
0.00022584264
0.00024743664
0.00027290825
0.00030161796
0.00033312048
0.00036730618
0.00040464284
0.00044677001
0.00049801318
0.00052033247
0.00019105638
0.00019661765
0.00020835785
0.00022539827
0.00024704193
0.00027257492
0.00030135309
0.00033292501
0.00036717436
0.00040456261
0.00044672399
0.00049797997
0.00052027163
0.00019057409
0.00019614588
0.00020790997
0.0002249881
0.0002466827
0.0002722769
0.00030112161
0.00033275931
0.00036706734
0.00040450141
0.00044669108
0.00049795442
0.00052021492
0.00019012075
0.00019570403
0.00020749369
0.00022461121
0.00024635762
0.00027201255
0.00030092169
0.0003326215
0.00036698334
0.00040445772
0.00044667018
0.00049793591
0.00052016224
0.00018969612
0.0001952917
0.00020710835
0.00022426657
0.00024606532
0.00027178021
0.0003007515
0.00033250971
0.00036692065
0.00040443012
0.00044666023
0.00049792387
0.00052011352
0.00018929981
0.00019490838
0.00020675318
0.00022395309
0.00024580439
0.00027157819
0.00030060919
0.00033242212
0.00036687757
0.00040441719
0.00044666021
0.00049791772
0.00052006864
0.00018893136
0.00019455348
0.00020642733
0.00022366961
0.00024557335
0.00027140481
0.00030049296
0.00033235693
0.00036685248
0.00040441759
0.00044666917
0.00049791692
0.00052002751
0.00018859017
0.00019422628
0.00020612986
0.00022341492
0.00024537072
0.00027125835
0.000300401
0.00033231239
0.0003668438
0.00040443005
0.00044668617
0.00049792096
0.00051998998
0.00018827559
0.00019392602
0.0002058598
0.00022318776
0.000245195
0.00027113715
0.00030033158
0.00033228679
0.00036685001
0.00040445331
0.00044671034
0.00049792934
0.00051995592
0.00018798687
0.00019365186
0.00020561608
0.00022298684
0.00024504467
0.00027103951
0.00030028295
0.0003322785
0.00036686965
0.00040448621
0.00044674084
0.0004979416
0.0005199252
0.00018772321
0.00019340288
0.00020539763
0.00022281086
0.00024491822
0.0002709638
0.00030025345
0.00033228591
0.00036690134
0.00040452763
0.00044677689
0.00049795728
0.00051989767
0.00018748375
0.00019317813
0.00020520333
0.00022265849
0.00024481414
0.0002709084
0.00030024144
0.00033230751
0.00036694373
0.00040457652
0.00044681774
0.00049797597
0.00051987319
0.00018726756
0.00019297663
0.00020503202
0.0002225284
0.00024473095
0.00027087174
0.00030024537
0.00033234183
0.00036699559
0.00040463189
0.00044686271
0.00049799727
0.00051985159
0.00018707371
0.00019279735
0.00020488254
0.00022241927
0.00024466719
0.00027085227
0.00030026372
0.00033238749
0.00036705571
0.00040469282
0.00044691116
0.00049802083
0.00051983273
0.00018690122
0.00019263924
0.00020475371
0.00022232977
0.00024462141
0.00027084853
0.00030029504
0.00033244316
0.00036712298
0.00040475842
0.00044696248
0.0004980463
0.00051981647
0.00018674908
0.00019250124
0.00020464436
0.00022225861
0.00024459221
0.00027085907
0.00030033795
0.0003325076
0.00036719636
0.00040482791
0.00044701612
0.00049807337
0.00051980265
0.00018661627
0.00019238226
0.00020455332
0.00022220449
0.00024457824
0.00027088251
0.00030039113
0.00033257963
0.00036727486
0.00040490053
0.00044707158
0.00049810175
0.00051979112
0.00018650176
0.00019228124
0.0002044794
0.00022216615
0.00024457816
0.00027091753
0.00030045334
0.00033265813
0.00036735756
0.00040497558
0.00044712837
0.00049813116
0.00051978173
0.00018640451
0.00019219708
0.00020442145
0.00022214235
0.00024459071
0.00027096285
0.00030052337
0.00033274206
0.00036744361
0.00040505241
0.00044718605
0.00049816135
0.00051977435
0.00018632348
0.00019212872
0.00020437833
0.00022213189
0.00024461463
0.00027101727
0.0003006001
0.00033283042
0.00036753219
0.00040513042
0.00044724422
0.00049819206
0.00051976881
0.00018625763
0.00019207508
0.00020434892
0.0002221336
0.00024464873
0.00027107963
0.00030068247
0.00033292231
0.00036762256
0.00040520904
0.00044730248
0.00049822308
0.00051976498
0.00018620595
0.00019203511
0.00020433211
0.00022214634
0.00024469189
0.00027114882
0.00030076947
0.00033301685
0.00036771403
0.00040528776
0.00044736049
0.00049825417
0.00051976271
0.00018616742
0.00019200778
0.00020432684
0.00022216902
0.000244743
0.00027122383
0.00030086018
0.00033311326
0.00036780597
0.00040536612
0.00044741793
0.00049828516
0.00051976186
0.00018614104
0.00019199208
0.00020433209
0.00022220059
0.00024480105
0.00027130367
0.00030095373
0.00033321081
0.00036789781
0.00040544371
0.00044747453
0.00049831586
0.00051976231
0.00018612587
0.00019198704
0.00020434684
0.00022224005
0.00024486506
0.00027138745
0.00030104932
0.00033330884
0.00036798905
0.00040552015
0.00044753005
0.00049834615
0.00051976393
0.00018612096
0.00019199171
0.00020437016
0.00022228646
0.00024493412
0.00027147433
0.00030114623
0.00033340676
0.00036807923
0.00040559515
0.00044758431
0.00049837589
0.00051976661
0.0001861254
0.00019200518
0.00020440112
0.00022233893
0.00024500739
0.00027156356
0.00030124382
0.00033350406
0.00036816798
0.00040566845
0.00044763713
0.00049840501
0.00051977024
0.00018613833
0.00019202658
0.00020443887
0.00022239661
0.00024508408
0.00027165442
0.00030134147
0.00033360026
0.00036825495
0.00040573981
0.00044768839
0.00049843343
0.00051977474
0.00018615891
0.00019205508
0.00020448258
0.00022245871
0.00024516346
0.00027174626
0.00030143867
0.00033369495
0.00036833984
0.00040580906
0.00044773799
0.00049846109
0.00051978
0.00018618633
0.00019208986
0.00020453147
0.00022252448
0.00024524483
0.0002718385
0.00030153492
0.00033378776
0.0003684224
0.00040587602
0.00044778581
0.00049848792
0.00051978593
0.00018621981
0.00019213017
0.00020458478
0.00022259322
0.00024532757
0.00027193057
0.00030162976
0.00033387833
0.00036850238
0.00040594052
0.00044783174
0.00049851371
0.00051979244
0.0001862586
0.00019217526
0.00020464181
0.00022266425
0.00024541106
0.00027202197
0.00030172278
0.00033396636
0.00036857955
0.0004060024
0.00044787565
0.00049853829
0.0005197994
0.00018630198
0.00019222443
0.00020470187
0.00022273695
0.00024549475
0.00027211221
0.0003018136
0.00033405155
0.00036865369
0.00040606152
0.00044791737
0.00049856157
0.00051980671
0.00018634927
0.00019227701
0.00020476433
0.00022281074
0.00024557811
0.00027220087
0.00030190187
0.00033413364
0.00036872464
0.00040611774
0.00044795677
0.00049858352
0.00051981428
0.00018639983
0.00019233236
0.00020482859
0.00022288506
0.00024566069
0.00027228754
0.0003019873
0.00033421242
0.00036879222
0.0004061709
0.00044799373
0.00049860418
0.00051982202
0.00018645305
0.00019238989
0.0002048941
0.00022295942
0.00024574204
0.00027237191
0.00030206963
0.00033428771
0.00036885633
0.00040622092
0.00044802828
0.00049862355
0.00051982986
0.00018650837
0.00019244908
0.00020496036
0.00022303338
0.00024582182
0.00027245367
0.00030214865
0.00033435938
0.00036891686
0.00040626773
0.00044806048
0.00049864167
0.00051983775
0.00018656529
0.00019250943
0.00020502691
0.00022310656
0.0002458997
0.00027253262
0.00030222424
0.00033442735
0.00036897375
0.0004063114
0.00044809037
0.00049865858
0.00051984566
0.00018662334
0.0001925705
0.00020509338
0.00022317862
0.00024597544
0.00027260857
0.00030229628
0.00033449156
0.00036902701
0.00040635202
0.00044811807
0.00049867432
0.00051985354
0.00018668213
0.0001926319
0.00020515941
0.00022324929
0.00024604884
0.00027268141
0.00030236473
0.00033455199
0.00036907676
0.00040638971
0.00044814368
0.00049868897
0.00051986137
0.00018674128
0.00019269329
0.00020522471
0.00022331833
0.00024611973
0.00027275105
0.00030242952
0.00033460869
0.00036912309
0.00040642461
0.00044816733
0.00049870261
0.00051986915
0.00018680045
0.00019275436
0.000205289
0.00022338554
0.000246188
0.0002728174
0.00030249067
0.00033466176
0.00036916615
0.00040645685
0.00044818912
0.00049871532
0.00051987685
0.00018685934
0.00019281481
0.00020535205
0.00022345075
0.00024625351
0.00027288042
0.00030254821
0.00033471131
0.00036920605
0.00040648656
0.00044820918
0.00049872715
0.00051988446
0.00018691764
0.00019287438
0.00020541365
0.00022351378
0.00024631614
0.00027294007
0.00030260219
0.00033475741
0.00036924292
0.00040651386
0.00044822759
0.00049873817
0.00051989197
0.0001869751
0.00019293282
0.00020547356
0.00022357445
0.00024637581
0.00027299635
0.00030265266
0.00033480014
0.00036927684
0.00040653883
0.00044824442
0.00049874841
0.00051989934
0.00018703142
0.00019298987
0.00020553157
0.00022363263
0.00024643244
0.00027304922
0.00030269963
0.00033483957
0.00036930787
0.00040656153
0.0004482597
0.00049875786
0.00051990653
0.00018708636
0.00019304528
0.00020558747
0.00022368815
0.00024648593
0.00027309866
0.00030274311
0.00033487572
0.00036933606
0.00040658199
0.00044827342
0.0004987665
0.00051991351
0.00018713965
0.00019309883
0.00020564109
0.00022374089
0.00024653621
0.00027314464
0.00030278312
0.00033490861
0.00036936143
0.0004066002
0.00044828558
0.00049877428
0.00051992021
0.0001871911
0.00019315033
0.00020569227
0.00022379074
0.00024658322
0.00027318714
0.00030281966
0.00033493828
0.000369384
0.00040661618
0.00044829615
0.00049878115
0.00051992659
0.00018724053
0.00019319961
0.00020574087
0.00022383762
0.00024662693
0.00027322617
0.00030285276
0.00033496475
0.0003694038
0.00040662994
0.00044830512
0.00049878706
0.0005199326
0.00018728779
0.00019324656
0.00020578683
0.00022388148
0.00024666734
0.00027326176
0.0003028825
0.00033498812
0.00036942092
0.00040664156
0.00044831253
0.00049879202
0.00051993823
0.00018733282
0.00019329111
0.00020583009
0.00022392234
0.00024670449
0.000273294
0.00030290897
0.0003350085
0.00036943547
0.00040665113
0.00044831846
0.00049879605
0.00051994345
0.00018737558
0.00019333325
0.00020587068
0.00022396025
0.00024673851
0.00027332305
0.00030293237
0.00033502608
0.00036944763
0.00040665881
0.00044832303
0.00049879923
0.0005199483
0.00018741608
0.00019337299
0.00020590866
0.00022399533
0.00024676953
0.00027334908
0.00030295289
0.00033504108
0.00036945764
0.00040666481
0.00044832642
0.00049880168
0.0005199528