/*--------------------------------*- C++ -*----------------------------------*\
| =========                 |                                                 |
| \\      /  F ield         | OpenFOAM: The Open Source CFD Toolbox           |
|  \\    /   O peration     | Version:  2506                                  |
|   \\  /    A nd           | Website:  www.openfoam.com                      |
|    \\/     M anipulation  |                                                 |
\*---------------------------------------------------------------------------*/
FoamFile
{
    version     2.0;
    format      ascii;
    arch        "LSB;label=32;scalar=64";
    class       volScalarField;
    location    "1000/water";
    object      nut;
}
// * * * * * * * * * * * * * * * * * * * * * * * * * * * * * * * * * * * * * //

dimensions      [0 2 -1 0 0 0 0];

internalField   nonuniform List<scalar> 
2600
(
4.0562043e-05
4.0561942e-05
4.0561944e-05
4.0561981e-05
4.0561942e-05
4.0561434e-05
4.0558261e-05
4.0540002e-05
4.0435343e-05
3.98338e-05
3.6541397e-05
2.4161555e-05
1.4889524e-05
3.944741e-05
3.9447468e-05
3.944759e-05
3.9447676e-05
3.9447275e-05
3.9444342e-05
3.9428907e-05
3.9352895e-05
3.8988431e-05
3.7314814e-05
3.0763187e-05
1.7536144e-05
1.684056e-05
3.852265e-05
3.852264e-05
3.8522725e-05
3.8522528e-05
3.8520597e-05
3.8510798e-05
3.8466747e-05
3.8277827e-05
3.7500368e-05
3.454641e-05
2.5814945e-05
1.4669956e-05
1.7712619e-05
3.7742032e-05
3.774193e-05
3.7741811e-05
3.7740766e-05
3.7735283e-05
3.7711707e-05
3.7617453e-05
3.7258039e-05
3.5961308e-05
3.177518e-05
2.2061889e-05
1.3531464e-05
1.7967898e-05
3.7073562e-05
3.7073366e-05
3.7072781e-05
3.7069955e-05
3.7057916e-05
3.7011651e-05
3.6843992e-05
3.6266509e-05
3.4405655e-05
2.9188861e-05
1.9425178e-05
1.3345943e-05
1.7902414e-05
3.6493786e-05
3.6493393e-05
3.6491924e-05
3.648598e-05
3.646354e-05
3.6384687e-05
3.612226e-05
3.5294625e-05
3.2873382e-05
2.6881541e-05
1.771645e-05
1.3793839e-05
1.7689846e-05
3.5985207e-05
3.5984445e-05
3.5981496e-05
3.5970726e-05
3.5933497e-05
3.5812307e-05
3.5437992e-05
3.4343601e-05
3.1395257e-05
2.4892541e-05
1.6781972e-05
1.4727875e-05
1.7427344e-05
3.5534568e-05
3.55332e-05
3.5528007e-05
3.5510417e-05
3.5453869e-05
3.5281761e-05
3.478374e-05
3.3418009e-05
2.9989903e-05
2.3242727e-05
1.6521213e-05
1.605365e-05
1.7168093e-05
3.5131649e-05
3.5129373e-05
3.5121029e-05
3.5094485e-05
3.5014364e-05
3.4784646e-05
3.4156253e-05
3.2521766e-05
2.8667649e-05
2.1957692e-05
1.6869959e-05
1.7676047e-05
1.694009e-05
3.4768438e-05
3.47649e-05
3.4752406e-05
3.4714802e-05
3.4607522e-05
3.4315777e-05
3.3554458e-05
3.16563e-05
2.7438403e-05
2.1076946e-05
1.7774701e-05
1.9481897e-05
1.6755877e-05
3.4438571e-05
3.443338e-05
3.4415717e-05
3.4365168e-05
3.4228127e-05
3.3872266e-05
3.2977968e-05
3.0820513e-05
2.6321667e-05
2.0649591e-05
1.9168673e-05
2.1348726e-05
1.6617712e-05
3.4136931e-05
3.4129689e-05
3.4105903e-05
3.4040932e-05
3.3872746e-05
3.3452766e-05
3.2426062e-05
3.0012536e-05
2.5355877e-05
2.0719809e-05
2.0958175e-05
2.3166793e-05
1.6521078e-05
3.3859367e-05
3.3849701e-05
3.3819003e-05
3.3738723e-05
3.3539365e-05
3.3056856e-05
3.1897087e-05
2.923354e-05
2.4602257e-05
2.1309035e-05
2.3024752e-05
2.4858007e-05
1.6457822e-05
3.3602495e-05
3.3590098e-05
3.355197e-05
3.3456247e-05
3.3227088e-05
3.2684517e-05
3.1388405e-05
2.8493548e-05
2.4138757e-05
2.2402734e-05
2.5241354e-05
2.6381455e-05
1.6418929e-05
3.3363555e-05
3.334823e-05
3.3302533e-05
3.3192135e-05
3.2935885e-05
3.2335692e-05
3.0897111e-05
2.7818119e-05
2.4044357e-05
2.3946906e-05
2.7493334e-05
2.7726694e-05
1.6396422e-05
3.3140311e-05
3.3122024e-05
3.3069114e-05
3.2945826e-05
3.2666358e-05
3.2009929e-05
3.0421904e-05
2.725306e-05
2.4379893e-05
2.5855074e-05
2.9693858e-05
2.8902281e-05
1.6384202e-05
3.2930983e-05
3.2909915e-05
3.2850758e-05
3.2717477e-05
3.2419519e-05
3.1706209e-05
2.9966345e-05
2.6863467e-05
2.5173338e-05
2.8023003e-05
3.1788481e-05
2.9925862e-05
1.6378087e-05
3.27342e-05
3.2710811e-05
3.2647097e-05
3.2507877e-05
3.219656e-05
3.14231e-05
2.9543334e-05
2.6725089e-05
2.6414166e-05
3.0346001e-05
3.3750499e-05
3.0817912e-05
1.6375449e-05
3.254898e-05
3.2524066e-05
3.2458325e-05
3.2318372e-05
3.1998619e-05
3.1159479e-05
2.9179674e-05
2.6909997e-05
2.8056821e-05
3.2733298e-05
3.5572232e-05
3.1598491e-05
1.6374764e-05
3.2374714e-05
3.234948e-05
3.2285189e-05
3.2150777e-05
3.1826588e-05
3.0916123e-05
2.8918576e-05
2.7471842e-05
3.0030666e-05
3.5115834e-05
3.7256818e-05
3.2285748e-05
1.6375224e-05
3.2211173e-05
3.2187303e-05
3.2128983e-05
3.2007273e-05
3.1681012e-05
3.0698309e-05
2.8817774e-05
2.8435851e-05
3.2252929e-05
3.7447133e-05
3.8812576e-05
3.2895331e-05
1.6376448e-05
3.2058522e-05
3.2038256e-05
3.199155e-05
3.1890271e-05
3.1562235e-05
3.0519241e-05
2.8942306e-05
2.9795902e-05
3.4641249e-05
3.9699498e-05
4.0249838e-05
3.3440303e-05
1.6378293e-05
3.1917349e-05
3.1903563e-05
3.1875268e-05
3.1802262e-05
3.147098e-05
3.0403414e-05
2.9353632e-05
3.1518042e-05
3.7123065e-05
4.1858566e-05
4.1579378e-05
3.3931332e-05
1.6380731e-05
3.1788707e-05
3.1784988e-05
3.1783034e-05
3.1745667e-05
3.1409596e-05
3.0388389e-05
3.0098641e-05
3.3548311e-05
3.9640503e-05
4.3918427e-05
4.2811639e-05
3.4377031e-05
1.638378e-05
3.167417e-05
3.1684884e-05
3.1718215e-05
3.1722747e-05
3.1384107e-05
3.0523333e-05
3.1201975e-05
3.5822342e-05
4.2151078e-05
4.5878174e-05
4.3956334e-05
3.4784314e-05
1.6387467e-05
3.1575896e-05
3.1606239e-05
3.1684577e-05
3.1735682e-05
3.1406918e-05
3.0863671e-05
3.2663378e-05
3.8274457e-05
4.4625623e-05
4.7739783e-05
4.5022274e-05
3.5158739e-05
1.6391813e-05
3.1496714e-05
3.155272e-05
3.1686171e-05
3.1786997e-05
3.1499546e-05
3.1462866e-05
3.445981e-05
4.0844581e-05
4.7045146e-05
4.9506882e-05
4.6017315e-05
3.5504794e-05
1.6396824e-05
3.1440215e-05
3.1528703e-05
3.1727217e-05
3.1880504e-05
3.1694229e-05
3.2363742e-05
3.6550942e-05
4.3482184e-05
4.9397839e-05
5.1183995e-05
4.6948402e-05
3.5826124e-05
1.6402494e-05
3.141085e-05
3.1539289e-05
3.1812006e-05
3.2022926e-05
3.2033144e-05
3.3591894e-05
3.8886228e-05
4.6147426e-05
5.1676787e-05
5.2776063e-05
4.782164e-05
3.6125718e-05
1.6408802e-05
3.1414042e-05
3.1590274e-05
3.1944927e-05
3.2226119e-05
3.2564562e-05
3.5152684e-05
4.1411886e-05
4.8810349e-05
5.3878384e-05
5.4288122e-05
4.8642393e-05
3.6406048e-05
1.6415722e-05
3.1456281e-05
3.1688095e-05
3.2130757e-05
3.2509432e-05
3.333648e-05
3.7032009e-05
4.4076506e-05
5.1449131e-05
5.6001296e-05
5.5725115e-05
4.9415388e-05
3.6669254e-05
1.642322e-05
3.1545208e-05
3.183974e-05
3.2375386e-05
3.2901322e-05
3.4389412e-05
3.9199976e-05
4.6834634e-05
5.4048188e-05
5.804569e-05
5.7091638e-05
5.0144339e-05
3.6914944e-05
1.6431248e-05
3.1689662e-05
3.2052668e-05
3.2687145e-05
3.3439134e-05
3.5750339e-05
4.161621e-05
4.9648334e-05
5.6596559e-05
6.0012743e-05
5.8392012e-05
5.0832727e-05
3.7144923e-05
1.6439749e-05
3.1899684e-05
3.2334823e-05
3.3078704e-05
3.4166339e-05
3.7429302e-05
4.423546e-05
5.2487193e-05
5.9086683e-05
6.1904244e-05
5.9630093e-05
5.1482697e-05
3.7361244e-05
1.6448668e-05
3.2186465e-05
3.2694872e-05
3.3569196e-05
3.512741e-05
3.9419065e-05
4.7012429e-05
5.532745e-05
6.1513508e-05
6.3722343e-05
6.0809395e-05
5.2096451e-05
3.7565314e-05
1.6457958e-05
3.2562281e-05
3.3142861e-05
3.4185831e-05
3.636155e-05
4.1697459e-05
4.9905187e-05
5.8150806e-05
6.3873834e-05
6.5469391e-05
6.1933118e-05
5.26774e-05
3.7758158e-05
1.6467586e-05
3.3040474e-05
3.369144e-05
3.4963992e-05
3.7896945e-05
4.423143e-05
5.2877047e-05
6.0943282e-05
6.6165776e-05
6.7147565e-05
6.3002904e-05
5.3228278e-05
3.7940823e-05
1.6477531e-05
3.3635637e-05
3.4357646e-05
3.5945064e-05
3.974699e-05
4.6981719e-05
5.5897116e-05
6.3694246e-05
6.8388427e-05
6.8759332e-05
6.4022593e-05
5.3751052e-05
3.8114078e-05
1.6487766e-05
3.4364222e-05
3.5164899e-05
3.7171973e-05
4.1909151e-05
4.9907173e-05
5.894002e-05
6.639566e-05
7.0541363e-05
7.0305654e-05
6.4995386e-05
5.4247638e-05
3.8278684e-05
1.6498266e-05
3.5245718e-05
3.614441e-05
3.8683386e-05
4.4366357e-05
5.2968071e-05
6.1985164e-05
6.9041444e-05
7.2624744e-05
7.1789404e-05
6.5923868e-05
5.4719657e-05
3.8435267e-05
1.6509004e-05
3.6304387e-05
3.733501e-05
4.0508063e-05
4.7090191e-05
5.61282e-05
6.5015938e-05
7.1626948e-05
7.4638163e-05
7.3213261e-05
6.6810354e-05
5.5168627e-05
3.8584368e-05
1.6519954e-05
3.7571042e-05
3.878059e-05
4.2660829e-05
5.0044938e-05
5.9355772e-05
6.8018893e-05
7.4148645e-05
7.6582485e-05
7.4579715e-05
6.7656897e-05
5.5595889e-05
3.8726448e-05
1.653109e-05
3.9083849e-05
4.052521e-05
4.5140968e-05
5.3191573e-05
6.2623566e-05
7.0983101e-05
7.6603207e-05
7.8458834e-05
7.5890906e-05
6.8465402e-05
5.6002629e-05
3.8861903e-05
1.6542386e-05
4.08869e-05
4.2606851e-05
4.7933088e-05
5.6490982e-05
6.5908443e-05
7.3899526e-05
7.8988644e-05
8.0268734e-05
7.7148734e-05
6.9237565e-05
5.6389885e-05
3.8991065e-05
1.6553815e-05
4.3025764e-05
4.5051416e-05
5.1009874e-05
5.9906212e-05
6.9190867e-05
7.6760138e-05
8.1303263e-05
8.2013419e-05
7.8354964e-05
6.9974897e-05
5.675856e-05
3.9114209e-05
1.6565353e-05
4.5540352e-05
4.7868457e-05
5.4335753e-05
6.3403518e-05
7.2453911e-05
7.9558415e-05
8.3546729e-05
8.3693979e-05
7.9511141e-05
7.0678714e-05
5.7109426e-05
3.9231566e-05
1.6576974e-05
4.8456721e-05
5.1049457e-05
5.7870633e-05
6.695276e-05
7.5682791e-05
8.2288869e-05
8.5718431e-05
8.5311373e-05
8.0618602e-05
7.1350141e-05
5.7443134e-05
3.9343315e-05
1.6588653e-05
5.1780137e-05
5.4568645e-05
6.1572952e-05
7.052688e-05
7.8863954e-05
8.4947825e-05
8.7817774e-05
8.6866356e-05
8.1678457e-05
7.199012e-05
5.7760219e-05
3.9449595e-05
1.6600366e-05
5.5491392e-05
5.8385659e-05
6.5401411e-05
7.4100939e-05
8.1987198e-05
8.7531675e-05
8.9844054e-05
8.8359452e-05
8.2691581e-05
7.25994e-05
5.8061101e-05
3.9550501e-05
1.6612087e-05
5.9547264e-05
6.2448941e-05
6.931559e-05
7.7653801e-05
8.5043666e-05
9.0036959e-05
9.1796391e-05
8.9790916e-05
8.3658598e-05
7.3178549e-05
5.8346089e-05
3.9646089e-05
1.662379e-05
6.3884518e-05
6.6699823e-05
7.3278227e-05
8.1167598e-05
8.8025199e-05
9.246025e-05
9.3673675e-05
9.1160722e-05
8.4579879e-05
7.3727943e-05
5.8615385e-05
3.9736373e-05
1.6635451e-05
6.8427389e-05
7.1077113e-05
7.7255211e-05
8.4626063e-05
9.0924166e-05
9.4798086e-05
9.5474542e-05
9.2468548e-05
8.5455537e-05
7.4247774e-05
5.8869083e-05
3.9821331e-05
1.664704e-05
7.3095585e-05
7.5520317e-05
8.1214742e-05
8.8014224e-05
9.3733359e-05
9.7046947e-05
9.7197378e-05
9.3713781e-05
8.6285433e-05
7.4738052e-05
5.910717e-05
3.9900898e-05
1.6658531e-05
7.7811319e-05
7.997234e-05
8.5127288e-05
9.1318208e-05
9.644594e-05
9.9203282e-05
9.8840353e-05
9.4895548e-05
8.7069195e-05
7.5198614e-05
5.9329538e-05
3.9974975e-05
1.6669891e-05
8.2504383e-05
8.4381484e-05
8.8965681e-05
9.452515e-05
9.905546e-05
0.00010126357
0.00010040149
9.6012761e-05
8.7806246e-05
7.5629145e-05
5.9535985e-05
4.004343e-05
1.6681088e-05
8.7115024e-05
8.870275e-05
9.2705354e-05
9.7623214e-05
0.00010155592
0.00010322443
0.00010187874
9.7064187e-05
8.8495853e-05
7.6029203e-05
5.9726235e-05
4.0106101e-05
1.6692087e-05
9.1594946e-05
9.2898474e-05
9.6324616e-05
0.00010060168
0.00010394186
0.00010508272
0.00010327013
9.804854e-05
8.9137185e-05
7.6398257e-05
5.9899956e-05
4.0162807e-05
1.6702851e-05
9.5906969e-05
9.6938398e-05
9.9804904e-05
0.00010345111
0.00010620849
0.00010683568
0.00010457386
9.8964577e-05
8.9729388e-05
7.6735735e-05
6.0056786e-05
4.0213357e-05
1.671334e-05
0.0001000239
0.00010079931
0.00010313094
0.00010616344
0.00010835178
0.00010848104
0.00010578842
9.981121e-05
9.0271668e-05
7.7041077e-05
6.0196362e-05
4.0257563e-05
1.6723514e-05
0.00010392708
0.00010446438
0.00010629074
0.00010873215
0.00011036856
0.00011001713
0.00010691272
0.00010058761
9.0763371e-05
7.7313793e-05
6.0318357e-05
4.0295254e-05
1.6733331e-05
0.00010760484
0.00010792236
0.00010927554
0.00011115235
0.00011225664
0.00011144296
0.00010794617
0.00010129328
9.1204062e-05
7.7553522e-05
6.0422513e-05
4.0326291e-05
1.674275e-05
0.00011105114
0.00011116672
0.00011207958
0.00011342072
0.0001140148
0.00011275829
0.00010888875
0.00010192817
9.1593595e-05
7.7760083e-05
6.0508675e-05
4.0350581e-05
1.6751731e-05
0.0001142643
0.00011419485
0.00011469981
0.00011553557
0.0001156428
0.00011396359
0.00010974104
0.00010249268
9.1932165e-05
7.7933523e-05
6.0576821e-05
4.0368091e-05
1.6760238e-05
0.00011724603
0.00011700724
0.00011713554
0.00011749669
0.00011714142
0.00011506012
0.00011050425
0.00010298772
9.2220342e-05
7.8074145e-05
6.0627084e-05
4.0378859e-05
1.6768237e-05
0.00012000061
0.00011960692
0.00011938818
0.00011930526
0.00011851233
0.00011604983
0.00011118017
0.00010341469
9.2459088e-05
7.8182533e-05
6.0659769e-05
4.0382998e-05
1.6775699e-05
0.00012253421
0.00012199881
0.00012146079
0.00012096366
0.00011975807
0.00011693532
0.00011177118
0.00010377547
9.2649756e-05
7.8259555e-05
6.0675356e-05
4.0380703e-05
1.6782601e-05
0.00012485442
0.00012418934
0.00012335786
0.00012247537
0.00012088193
0.00011771982
0.00011228014
0.00010407241
9.279407e-05
7.8306355e-05
6.0674504e-05
4.0372244e-05
1.6788926e-05
0.0001269698
0.00012618599
0.000125085
0.00012384476
0.00012188787
0.00011840704
0.00011271039
0.00010430825
9.2894091e-05
7.8324337e-05
6.0658032e-05
4.0357968e-05
1.6794666e-05
0.00012888962
0.00012799706
0.00012664867
0.00012507694
0.0001227804
0.00011900115
0.00011306563
0.00010448607
9.2952178e-05
7.8315133e-05
6.0626912e-05
4.0338286e-05
1.6799815e-05
0.00013062356
0.00012963136
0.00012805596
0.0001261776
0.00012356449
0.00011950666
0.00011334988
0.00010460922
9.2970936e-05
7.8280571e-05
6.0582238e-05
4.0313661e-05
1.6804378e-05
0.00013218157
0.00013109807
0.00012931446
0.00012715289
0.00012424545
0.00011992837
0.00011356739
0.00010468129
9.2953163e-05
7.8222634e-05
6.0525208e-05
4.0284602e-05
1.6808365e-05
0.00013357369
0.00013240651
0.00013043201
0.00012800929
0.00012482886
0.00012027126
0.00011372255
0.00010470599
9.2901798e-05
7.8143419e-05
6.0457089e-05
4.0251646e-05
1.681179e-05
0.00013480994
0.00013356608
0.00013141668
0.00012875347
0.00012532046
0.00012054042
0.00011381988
0.00010468715
9.2819868e-05
7.8045094e-05
6.0379197e-05
4.0215345e-05
1.6814674e-05
0.00013590022
0.00013458612
0.00013227654
0.00012939223
0.00012572609
0.00012074104
0.00011386393
0.00010462863
9.2710437e-05
7.7929863e-05
6.0292865e-05
4.0176256e-05
1.6817043e-05
0.00013685426
0.00013547584
0.00013301969
0.0001299324
0.00012605164
0.00012087827
0.00011385923
0.00010453427
9.2576568e-05
7.7799927e-05
6.019942e-05
4.0134928e-05
1.6818923e-05
0.00013768153
0.00013624424
0.00013365407
0.00013038076
0.00012630292
0.00012095722
0.00011381025
0.00010440787
9.2421274e-05
7.7657449e-05
6.0100164e-05
4.0091892e-05
1.6820346e-05
0.00013839121
0.00013690009
0.00013418751
0.00013074401
0.00012648569
0.00012098293
0.00011372138
0.00010425312
9.2247494e-05
7.7504532e-05
5.9996349e-05
4.0047655e-05
1.6821344e-05
0.00013899217
0.00013745185
0.0001346276
0.00013102867
0.00012660558
0.0001209603
0.00011359687
0.0001040736
9.2058059e-05
7.7343192e-05
5.9889168e-05
4.0002692e-05
1.6821951e-05
0.00013949293
0.0001379077
0.00013498168
0.00013124113
0.00012666806
0.00012089405
0.0001134408
0.00010387274
9.1855672e-05
7.7175342e-05
5.977974e-05
3.9957439e-05
1.6822201e-05
0.00013990161
0.00013827544
0.00013525683
0.00013138751
0.00012667841
0.00012078877
0.00011325711
0.00010365382
9.1642887e-05
7.7002774e-05
5.9669102e-05
3.9912294e-05
1.6822129e-05
0.000140226
0.00013856255
0.00013545982
0.00013147371
0.0001266417
0.00012064881
0.00011304952
0.00010341991
9.1422102e-05
7.6827153e-05
5.9558201e-05
3.9867613e-05
1.6821767e-05
0.00014047346
0.0001387761
0.00013559712
0.00013150539
0.00012656278
0.00012047833
0.00011282156
0.00010317391
9.1195544e-05
7.6650006e-05
5.9447893e-05
3.9823709e-05
1.682115e-05
0.00014065098
0.00013892285
0.00013567488
0.00013148792
0.00012644628
0.00012028128
0.00011257654
0.00010291853
9.0965268e-05
7.6472725e-05
5.9338942e-05
3.9780853e-05
1.6820307e-05
0.00014076516
0.00013900915
0.00013569891
0.0001314264
0.00012629656
0.00012006135
0.00011231757
0.00010265626
9.0733153e-05
7.6296561e-05
5.9232019e-05
3.9739277e-05
1.6819269e-05
0.00014082222
0.00013904099
0.00013567472
0.00013132565
0.00012611775
0.00011982204
0.00011204754
0.00010238941
9.0500905e-05
7.6122626e-05
5.9127705e-05
3.969917e-05
1.6818064e-05
0.000140828
0.00013902402
0.00013560747
0.00013119023
0.00012591373
0.00011956661
0.00011176911
0.00010212007
9.0270051e-05
7.5951885e-05
5.902645e-05
3.9660475e-05
1.6816717e-05
0.00014078796
0.00013896352
0.00013550203
0.00013102438
0.00012568814
0.00011929808
0.00011148476
0.00010185016
9.0041947e-05
7.5785165e-05
5.8928609e-05
3.9623143e-05
1.681525e-05
0.00014070724
0.00013886444
0.00013536294
0.00013083213
0.00012544437
0.00011901928
0.00011119673
0.00010158138
8.9817764e-05
7.56231e-05
5.8834203e-05
3.9587463e-05
1.6813681e-05
0.0001405906
0.00013873139
0.00013519445
0.00013061718
0.00012518557
0.00011873277
0.00011090708
0.00010131526
8.9598528e-05
7.5466272e-05
5.8743573e-05
3.9553561e-05
1.681203e-05
0.0001404425
0.00013856869
0.00013500053
0.00013038301
0.00012491468
0.00011844095
0.00011061764
0.00010105312
8.9385029e-05
7.5314806e-05
5.8657152e-05
3.9521529e-05
1.6810318e-05
0.00014026707
0.00013838031
0.00013478484
0.00013013285
0.00012463438
0.00011814598
0.00011033007
0.00010079611
8.9177898e-05
7.5169395e-05
5.8575085e-05
3.9491416e-05
1.6808564e-05
0.00014006815
0.00013816998
0.00013455081
0.00012986967
0.00012434716
0.00011784983
0.00011004583
0.00010054521
8.8977677e-05
7.5030499e-05
5.8497498e-05
3.9463255e-05
1.6806784e-05
0.00013984928
0.00013794112
0.00013430158
0.00012959621
0.00012405528
0.00011755424
0.00010976616
0.00010030106
8.8785166e-05
7.4898365e-05
5.8424471e-05
3.9437057e-05
1.6804995e-05
0.00013961373
0.00013769689
0.00013404005
0.00012931499
0.00012376079
0.00011726079
0.00010949209
0.00010006462
8.8600831e-05
7.477317e-05
5.8356041e-05
3.9412812e-05
1.6803208e-05
0.00013936453
0.0001374402
0.00013376889
0.00012902831
0.00012346553
0.0001169708
0.00010922461
9.9836677e-05
8.8425017e-05
7.4655028e-05
5.8292205e-05
3.9390494e-05
1.6801437e-05
0.00013910443
0.00013717372
0.00013349053
0.00012873824
0.00012317113
0.00011668545
0.00010896482
9.9617777e-05
8.8257979e-05
7.4543997e-05
5.8232927e-05
3.9370062e-05
1.6799692e-05
0.00013883597
0.00013689988
0.00013320717
0.00012844659
0.00012287897
0.00011640607
0.00010871351
9.9408362e-05
8.8099886e-05
7.4440079e-05
5.8178142e-05
3.9351464e-05
1.6797981e-05
0.00013856142
0.00013662087
0.00013292074
0.00012815502
0.0001225906
0.0001161337
0.00010847133
9.9208768e-05
8.7950837e-05
7.4343227e-05
5.8127756e-05
3.9334638e-05
1.6796311e-05
0.00013828282
0.0001363386
0.00013263305
0.00012786519
0.0001223073
0.00011586924
0.00010823884
9.9019238e-05
8.7810857e-05
7.425335e-05
5.8081654e-05
3.9319515e-05
1.679469e-05
0.00013800203
0.00013605494
0.00013234583
0.00012757857
0.00012203019
0.00011561347
0.00010801646
9.8839926e-05
8.7679915e-05
7.4170322e-05
5.8039703e-05
3.930602e-05
1.6793123e-05
0.00013772078
0.00013577155
0.00013206063
0.00012729646
0.00012176025
0.00011536702
0.00010780451
9.8670911e-05
8.7557923e-05
7.409398e-05
5.8001754e-05
3.9294076e-05
1.6791613e-05
0.00013744065
0.00013548997
0.00013177882
0.00012702
0.00012149833
0.00011513042
0.00010760324
9.85122e-05
8.7444746e-05
7.4024137e-05
5.7967645e-05
3.9283599e-05
1.6790164e-05
0.00013716304
0.00013521157
0.00013150164
0.0001267502
0.00012124514
0.00011490408
0.00010741278
9.8363739e-05
8.7340206e-05
7.3960581e-05
5.7937206e-05
3.9274509e-05
1.6788779e-05
0.00013688925
0.00013493757
0.00013123019
0.00012648794
0.00012100129
0.00011468831
0.00010723322
9.8225414e-05
8.724409e-05
7.390308e-05
5.791026e-05
3.926672e-05
1.678746e-05
0.00013662042
0.00013466906
0.00013096542
0.00012623395
0.00012076725
0.00011448335
0.00010706455
9.8097064e-05
8.7156154e-05
7.3851388e-05
5.7886625e-05
3.9260151e-05
1.6786208e-05
0.00013635753
0.000134407
0.00013070815
0.00012598887
0.00012054342
0.00011428934
0.0001069067
9.7978484e-05
8.7076127e-05
7.3805247e-05
5.7866116e-05
3.9254718e-05
1.6785024e-05
0.00013610149
0.00013415222
0.00013045911
0.00012575322
0.0001203301
0.00011410634
0.00010675957
9.7869429e-05
8.7003716e-05
7.376439e-05
5.7848547e-05
3.9250339e-05
1.6783908e-05
0.00013585304
0.00013390543
0.00013021888
0.00012552742
0.0001201275
0.00011393437
0.00010662297
9.7769624e-05
8.6938614e-05
7.3728545e-05
5.7833735e-05
3.9246937e-05
1.678286e-05
0.00013561285
0.00013366724
0.00012998798
0.00012531182
0.00011993575
0.00011377336
0.0001064967
9.7678766e-05
8.6880497e-05
7.3697435e-05
5.7821496e-05
3.9244433e-05
1.6781878e-05
0.00013538144
0.00013343815
0.00012976679
0.00012510665
0.0001197549
0.00011362319
0.0001063805
9.7596527e-05
8.6829034e-05
7.3670785e-05
5.781165e-05
3.9242755e-05
1.6780964e-05
0.00013515929
0.00013321857
0.00012955564
0.00012491208
0.00011958497
0.0001134837
0.0001062741
9.7522564e-05
8.6783887e-05
7.364832e-05
5.7804022e-05
3.9241829e-05
1.6780114e-05
0.00013494674
0.00013300882
0.00012935476
0.00012472822
0.00011942588
0.00011335469
0.00010617716
9.7456517e-05
8.6744712e-05
7.3629766e-05
5.7798441e-05
3.9241588e-05
1.6779328e-05
0.00013474407
0.00013280916
0.00012916431
0.00012455508
0.00011927752
0.00011323589
0.00010608937
9.7398016e-05
8.6711166e-05
7.3614855e-05
5.7794741e-05
3.9241967e-05
1.6778604e-05
0.00013455148
0.00013261974
0.00012898438
0.00012439265
0.00011913973
0.00011312703
0.00010601036
9.7346684e-05
8.6682906e-05
7.3603323e-05
5.7792761e-05
3.9242903e-05
1.6777941e-05
0.00013436911
0.00013244066
0.00012881498
0.00012424083
0.0001190123
0.00011302781
0.00010593975
9.7302135e-05
8.6659592e-05
7.3594914e-05
5.7792347e-05
3.9244336e-05
1.6777335e-05
0.00013419701
0.00013227196
0.0001286561
0.00012409949
0.00011889498
0.00011293787
0.00010587716
9.7263985e-05
8.6640886e-05
7.3589375e-05
5.779335e-05
3.9246212e-05
1.6776786e-05
0.00013403518
0.00013211361
0.00012850763
0.00012396846
0.00011878749
0.00011285688
0.00010582219
9.7231845e-05
8.6626456e-05
7.3586464e-05
5.7795628e-05
3.9248474e-05
1.677629e-05
0.00013388359
0.00013196554
0.00012836944
0.0001238475
0.00011868953
0.00011278444
0.00010577445
9.7205331e-05
8.6615979e-05
7.3585945e-05
5.7799044e-05
3.9251073e-05
1.6775846e-05
0.00013374211
0.00013182762
0.00012824136
0.00012373637
0.00011860077
0.00011272017
0.00010573351
9.7184065e-05
8.6609138e-05
7.3587592e-05
5.7803469e-05
3.9253962e-05
1.6775451e-05
0.00013361062
0.00013169969
0.00012812317
0.00012363479
0.00011852085
0.00011266368
0.00010569899
9.7167672e-05
8.6605629e-05
7.3591191e-05
5.7808782e-05
3.9257094e-05
1.6775103e-05
0.00013348893
0.00013158154
0.00012801463
0.00012354245
0.00011844941
0.00011261456
0.00010567047
9.715579e-05
8.6605157e-05
7.3596535e-05
5.7814867e-05
3.9260431e-05
1.6774799e-05
0.00013337681
0.00013147294
0.00012791545
0.00012345901
0.00011838607
0.00011257241
0.00010564756
9.7148064e-05
8.6607442e-05
7.3603432e-05
5.7821619e-05
3.9263933e-05
1.6774536e-05
0.00013327403
0.00013137362
0.00012782533
0.00012338413
0.00011833044
0.00011253683
0.00010562987
9.7144154e-05
8.6612215e-05
7.3611699e-05
5.7828939e-05
3.9267568e-05
1.6774313e-05
0.00013318029
0.00013128329
0.00012774396
0.00012331744
0.00011828213
0.0001125074
0.00010561703
9.7143728e-05
8.6619219e-05
7.3621164e-05
5.7836734e-05
3.9271303e-05
1.6774126e-05
0.00013309531
0.00013120163
0.00012767099
0.00012325858
0.00011824074
0.00011248373
0.00010560864
9.7146465e-05
8.6628206e-05
7.3631662e-05
5.7844918e-05
3.9275112e-05
1.6773975e-05
0.00013301875
0.00013112831
0.00012760606
0.00012320715
0.00011820585
0.00011246542
0.00010560435
9.7152055e-05
8.6638943e-05
7.3643038e-05
5.785341e-05
3.9278965e-05
1.6773856e-05
0.00013295027
0.00013106298
0.00012754879
0.00012316275
0.00011817707
0.00011245208
0.00010560379
9.7160198e-05
8.6651201e-05
7.3655145e-05
5.7862131e-05
3.9282837e-05
1.6773766e-05
0.00013288952
0.00013100526
0.00012749881
0.00012312499
0.00011815399
0.0001124433
0.00010560663
9.7170604e-05
8.6664765e-05
7.3667841e-05
5.7871009e-05
3.9286704e-05
1.6773705e-05
0.00013283611
0.00013095478
0.00012745571
0.00012309347
0.00011813621
0.00011243872
0.00010561251
9.7182996e-05
8.6679429e-05
7.3680994e-05
5.7879973e-05
3.9290541e-05
1.6773669e-05
0.00013278968
0.00013091115
0.00012741911
0.00012306777
0.00011812332
0.00011243796
0.00010562111
9.7197112e-05
8.6695e-05
7.3694481e-05
5.7888962e-05
3.9294326e-05
1.6773655e-05
0.00013274984
0.00013087399
0.0001273886
0.0001230475
0.00011811495
0.00011244066
0.00010563213
9.7212704e-05
8.6711302e-05
7.3708191e-05
5.7897918e-05
3.9298041e-05
1.6773663e-05
0.00013271621
0.00013084291
0.0001273638
0.00012303227
0.00011811072
0.00011244649
0.00010564527
9.7229545e-05
8.6728172e-05
7.3722024e-05
5.7906794e-05
3.9301669e-05
1.677369e-05
0.00013268842
0.00013081754
0.00012734433
0.00012302171
0.00011811028
0.00011245512
0.00010566027
9.724743e-05
8.6745468e-05
7.3735895e-05
5.7915549e-05
3.93052e-05
1.6773733e-05
0.00013266611
0.0001307975
0.00012732982
0.00012301547
0.00011811328
0.00011246626
0.00010567689
9.7266169e-05
8.676306e-05
7.3749731e-05
5.7924151e-05
3.9308626e-05
1.6773791e-05
0.0001326489
0.00013078244
0.00012731991
0.00012301318
0.00011811942
0.00011247963
0.00010569488
9.7285591e-05
8.6780836e-05
7.3763468e-05
5.7932576e-05
3.9311943e-05
1.6773862e-05
0.00013263644
0.000130772
0.00012731425
0.00012301452
0.00011812837
0.00011249496
0.00010571405
9.730554e-05
8.6798693e-05
7.3777051e-05
5.7940802e-05
3.9315149e-05
1.6773946e-05
0.00013262839
0.00013076581
0.00012731249
0.00012301916
0.00011813985
0.000112512
0.00010573418
9.7325865e-05
8.6816533e-05
7.3790426e-05
5.794881e-05
3.9318242e-05
1.6774041e-05
0.00013262438
0.00013076355
0.00012731429
0.00012302676
0.00011815355
0.00011253049
0.00010575507
9.7346421e-05
8.683426e-05
7.3803539e-05
5.7956571e-05
3.9321196e-05
1.6774145e-05
0.00013262406
0.00013076484
0.0001273193
0.00012303702
0.0001181692
0.00011255019
0.00010577654
9.7367064e-05
8.6851779e-05
7.3816335e-05
5.7964059e-05
3.9323998e-05
1.6774257e-05
0.00013262708
0.00013076935
0.0001273272
0.00012304961
0.0001181865
0.00011257086
0.00010579838
9.7387653e-05
8.6868994e-05
7.3828753e-05
5.7971227e-05
3.9326651e-05
1.6774376e-05
0.00013263308
0.00013077672
0.00012733763
0.00012306422
0.00011820518
0.00011259228
0.00010582043
9.7408055e-05
8.6885814e-05
7.3840739e-05
5.7978051e-05
3.9329155e-05
1.6774499e-05
0.00013264175
0.00013078663
0.00012735029
0.00012308055
0.00011822498
0.00011261421
0.00010584249
9.7428141e-05
8.6902151e-05
7.3852223e-05
5.7984524e-05
3.9331503e-05
1.6774626e-05
0.00013265274
0.00013079875
0.00012736487
0.00012309832
0.00011824566
0.00011263647
0.00010586443
9.7447803e-05
8.6917936e-05
7.3863177e-05
5.7990636e-05
3.9333691e-05
1.6774754e-05
0.00013266577
0.0001308128
0.00012738109
0.00012311729
0.00011826699
0.00011265887
0.00010588611
9.7466948e-05
8.6933094e-05
7.3873596e-05
5.7996378e-05
3.9335718e-05
1.6774883e-05
0.00013268059
0.00013082852
0.00012739869
0.00012313722
0.00011828879
0.00011268128
0.00010590742
9.74855e-05
8.6947612e-05
7.3883467e-05
5.800175e-05
3.9337586e-05
1.6775012e-05
0.00013269695
0.00013084568
0.00012741748
0.00012315793
0.00011831091
0.00011270356
0.00010592829
9.7503415e-05
8.6961485e-05
7.3892792e-05
5.8006762e-05
3.9339302e-05
1.6775139e-05
0.00013271465
0.00013086407
0.00012743726
0.00012317925
0.00011833321
0.00011272563
0.00010594864
9.7520687e-05
8.6974712e-05
7.3901584e-05
5.8011431e-05
3.9340875e-05
1.6775264e-05
0.00013273352
0.00013088353
0.00012745786
0.00012320105
0.00011835558
0.0001127474
0.00010596844
9.7537309e-05
8.6987305e-05
7.3909866e-05
5.8015776e-05
3.9342318e-05
1.6775388e-05
0.00013275339
0.0001309039
0.00012747915
0.0001232232
0.00011837792
0.00011276883
0.00010598769
9.7553283e-05
8.6999282e-05
7.3917661e-05
5.801982e-05
3.9343643e-05
1.677551e-05
0.00013277409
0.000130925
0.00012750096
0.00012324557
0.00011840015
0.00011278986
0.00010600637
9.7568612e-05
8.7010662e-05
7.3924995e-05
5.8023587e-05
3.9344865e-05
1.677563e-05
0.00013279545
0.00013094668
0.00012752316
0.00012326804
0.00011842219
0.00011281044
0.00010602444
9.7583296e-05
8.7021458e-05
7.3931888e-05
5.8027095e-05
3.9345997e-05
1.6775748e-05
0.00013281728
0.00013096876
0.00012754557
0.00012329048
0.00011844393
0.00011283052
0.00010604187
9.7597321e-05
8.7031674e-05
7.3938351e-05
5.8030357e-05
3.9347046e-05
1.6775865e-05
0.00013283938
0.00013099104
0.00012756804
0.00012331275
0.00011846527
0.00011285001
0.00010605862
9.7610663e-05
8.70413e-05
7.3944385e-05
5.8033378e-05
3.9348019e-05
1.6775981e-05
0.00013286154
0.00013101334
0.00012759039
0.00012333471
0.0001184861
0.00011286882
0.00010607462
9.7623281e-05
8.7050312e-05
7.3949976e-05
5.803615e-05
3.934891e-05
1.6776094e-05
0.00013288356
0.00013103545
0.00012761243
0.00012335619
0.00011850627
0.00011288685
0.0001060898
9.7635124e-05
8.7058678e-05
7.3955105e-05
5.8038662e-05
3.9349715e-05
1.6776204e-05
0.00013290525
0.00013105719
0.000127634
0.00012337705
0.00011852566
0.00011290401
0.00010610408
9.7646141e-05
8.7066363e-05
7.3959748e-05
5.8040896e-05
3.9350421e-05
1.6776311e-05
0.00013292644
0.00013107839
0.00012765494
0.00012339714
0.00011854417
0.00011292022
0.00010611741
9.7656291e-05
8.7073339e-05
7.3963885e-05
5.804284e-05
3.9351018e-05
1.6776412e-05
0.000132947
0.00013109893
0.00012767513
0.00012341638
0.00011856172
0.0001129354
0.00010612974
9.766555e-05
8.7079592e-05
7.396751e-05
5.8044484e-05
3.9351497e-05
1.6776507e-05
0.00013296686
0.00013111873
0.0001276945
0.00012343469
0.00011857827
0.00011294955
0.00010614108
9.7673923e-05
8.7085132e-05
7.3970629e-05
5.8045833e-05
3.9351854e-05
1.6776595e-05
0.000132986
0.00013113776
0.00012771303
0.00012345208
0.00011859381
0.00011296269
0.00010615145
9.7681447e-05
8.7089996e-05
7.3973275e-05
5.8046905e-05
3.9352096e-05
1.6776675e-05
0.00013300444
0.00013115605
0.00012773075
0.00012346858
0.00011860841
0.00011297486
0.00010616093
9.7688193e-05
8.7094249e-05
7.3975496e-05
5.8047731e-05
3.9352233e-05
1.6776748e-05
0.00013302225