/*--------------------------------*- C++ -*----------------------------------*\
| =========                 |                                                 |
| \\      /  F ield         | OpenFOAM: The Open Source CFD Toolbox           |
|  \\    /   O peration     | Version:  2506                                  |
|   \\  /    A nd           | Website:  www.openfoam.com                      |
|    \\/     M anipulation  |                                                 |
\*---------------------------------------------------------------------------*/
FoamFile
{
    version     2.0;
    format      ascii;
    arch        "LSB;label=32;scalar=64";
    class       surfaceScalarField;
    location    "1000/water";
    object      phi;
}
// * * * * * * * * * * * * * * * * * * * * * * * * * * * * * * * * * * * * * //

dimensions      [1 0 -1 0 0 0 0];

oriented        oriented;

internalField   nonuniform List<scalar> 
4987
(
-6.9167736e-06
0.00085760419
-2.7656569e-05
0.0024926737
-6.1431121e-05
0.0040117068
-0.0001075903
0.0054211695
-0.00016565319
0.0067272392
-0.00023525167
0.0079357375
-0.00031606519
0.0090521266
-0.00040763483
0.010081416
-0.00050867084
0.011027654
-0.00061447105
0.011892066
-0.00070641237
0.012665127
-0.00069017742
0.01327532
0.013255156
-6.4252098e-06
0.00086402939
-2.4701717e-05
0.0025109502
-5.3973206e-05
0.0040409782
-9.3433184e-05
0.0054606295
-0.00014227852
0.0067760845
-0.00019970621
0.0079931652
-0.00026484255
0.0091172629
-0.00033648012
0.010153054
-0.00041221923
0.011103393
-0.0004856843
0.011965531
-0.00053558126
0.012715024
-0.00047144624
0.013211185
0.01278371
-6.163969e-06
0.00087019336
-2.380905e-05
0.0025285953
-5.2164898e-05
0.0040693341
-9.0528703e-05
0.0054989933
-0.00013822172
0.0068237776
-0.00019455674
0.0080495002
-0.00025870612
0.0091814123
-0.00032929751
0.010223645
-0.00040329175
0.011177387
-0.00047276141
0.012035
-0.00051220841
0.012754471
-0.00042242592
0.013121403
0.012361284
-6.1054146e-06
0.00087629878
-2.3924376e-05
0.0025464143
-5.2620538e-05
0.0040980303
-9.1395558e-05
0.0055377683
-0.00013947504
0.006871857
-0.00019604176
0.0081060669
-0.00026004543
0.009245416
-0.00032969289
0.010293293
-0.00040116834
0.011248863
-0.00046497904
0.012098811
-0.00049117541
0.012780667
-0.00037835998
0.013008587
0.011982924
-5.9919784e-06
0.00088229076
-2.3432324e-05
0.0025638546
-5.1502782e-05
0.0041261007
-8.9417765e-05
0.0055756833
-0.0001363976
0.0069188369
-0.00019157934
0.0081612487
-0.00025377584
0.0093076125
-0.0003208868
0.010360404
-0.00038849227
0.011316468
-0.0004456482
0.012155967
-0.00045837524
0.012793394
-0.00033102689
0.012881239
0.011651897
-5.8197985e-06
0.00088811056
-2.2720415e-05
0.0025807553
-4.9911333e-05
0.0041532916
-8.6629801e-05
0.0056124017
-0.00013209822
0.0069643053
-0.00018540983
0.0082145603
-0.00024524284
0.0093674455
-0.00030921061
0.010424371
-0.00037232044
0.011379578
-0.00042207813
0.012205725
-0.00042081904
0.012792135
-0.00028517408
0.012745594
0.011366723
-5.6148951e-06
0.00089372545
-2.1923414e-05
0.0025970638
-4.8158186e-05
0.0041795264
-8.35701e-05
0.0056478136
-0.00012737381
0.007008109
-0.00017860877
0.0082657952
-0.00023581604
0.0094246528
-0.00029633568
0.010484891
-0.00035458539
0.011437828
-0.00039630862
0.012247448
-0.00038067559
0.012776502
-0.00024201049
0.012606929
0.011124713
-5.4046946e-06
0.00089913014
-2.1106786e-05
0.0026127659
-4.6361915e-05
0.0042047815
-8.0433153e-05
0.0056818849
-0.00012252438
0.0070502002
-0.00017161842
0.0083148893
-0.0002261212
0.0094791555
-0.00028309872
0.010541869
-0.00033629459
0.011491024
-0.00036936757
0.012280521
-0.00033930313
0.012746438
-0.00020218079
0.012469807
0.010922532
-5.2040372e-06
0.00090433418
-2.0322449e-05
0.0026278843
-4.4632486e-05
0.0042290916
-7.7407183e-05
0.0057146596
-0.000117836
0.007090629
-0.00016484161
0.0083618949
-0.00021669175
0.0095310057
-0.00027015443
0.010595331
-0.00031814583
0.011539015
-0.00034189245
0.012304267
-0.00029797663
0.012702522
-0.0001662914
0.012338121
0.010756241
-5.0193755e-06
0.00090935356
-1.9599432e-05
0.0026424643
-4.3036007e-05
0.0042525281
-7.4608171e-05
0.0057462317
-0.00011348606
0.0071295069
-0.00015852683
0.0084069356
-0.0002078498
0.0095803287
-0.00025787593
0.010645357
-0.00030047882
0.011581618
-0.00031421626
0.012318005
-0.00025799659
0.012646302
-0.00013488813
0.012215013
0.010621352
-4.8544122e-06
0.00091420797
-1.8953518e-05
0.0026565634
-4.1607992e-05
0.0042751826
-7.2098328e-05
0.0057767221
-0.00010956978
0.0071669784
-0.00015280648
0.0084501723
-0.00019976083
0.009627283
-0.00024643025
0.010692027
-0.00028338284
0.01161857
-0.00028657101
0.012321193
-0.00022065197
0.012580383
-0.00010831398
0.012102675
0.010513039
-4.7104907e-06
0.00091891846
-1.838964e-05
0.0026702426
-4.0359025e-05
0.004297152
-6.9895774e-05
0.0058062588
-0.00010611414
0.0072031967
-0.00014771517
0.0084917734
-0.00019245611
0.0096720239
-0.00023580475
0.010735375
-0.00026674607
0.011649512
-0.00025920371
0.012313651
-0.00018698909
0.012508168
-8.6549236e-05
0.012002235
0.010426489
-4.5864894e-06
0.00092350495
-1.7903118e-05
0.0026835592
-3.9278552e-05
0.0043185274
-6.7981782e-05
0.0058349621
-0.00010308929
0.0072383042
-0.0001432058
0.0085318899
-0.00018585427
0.0097146724
-0.00022583645
0.010775358
-0.0002503233
0.011673999
-0.00023244679
0.012295774
-0.00015760689
0.012433329
-6.9195208e-05
0.011913823
0.010357294
-4.47971e-06
0.00092798466
-1.7483378e-05
0.0026965629
-3.8343221e-05
0.0043393873
-6.631536e-05
0.0058629342
-0.00010043089
0.0072724198
-0.00013918123
0.0085706402
-0.00017980338
0.0097552946
-0.00021627053
0.010811825
-0.0002338457
0.011691574
-0.00020673154
0.01226866
-0.0001326094
0.012359206
-5.5603112e-05
0.011836817
0.010301691
-4.3869483e-06
0.00093237161
-1.7117943e-05
0.0027092939
-3.7525517e-05
0.0043597948
-6.4848148e-05
0.0058902568
-9.8062773e-05
0.0073056344
-0.00013552609
0.0086081035
-0.00017412332
0.0097938918
-0.00020682318
0.010844525
-0.00021713162
0.011701882
-0.00018252415
0.012234053
-0.00011170489
0.012288387
-4.5044654e-05
0.011770157
0.010256646
-4.3051909e-06
0.0009366768
-1.6795059e-05
0.0027217838
-3.6799451e-05
0.0043797992
-6.3534222e-05
0.0059169916
-9.5911853e-05
0.007338012
-0.0001321276
0.0086443193
-0.00016863371
0.0098303979
-0.0001972305
0.010873121
-0.00020015793
0.01170481
-0.00016022089
0.012194115
-9.4372479e-05
0.012222539
-3.6838816e-05
0.011712623
0.010219807
-4.231915e-06
0.00094090871
-1.6504851e-05
0.0027340567
-3.6143084e-05
0.0043994375
-6.2334437e-05
0.005943183
-9.3914665e-05
0.0073695922
-0.00012888455
0.0086792892
-0.00016316714
0.0098646805
-0.00018728235
0.010897237
-0.00018307194
0.011700599
-0.00014006424
0.012151108
-8.0017925e-05
0.012162492
-3.0412507e-05
0.011663018
0.010189395
-4.1651418e-06
0.00094507386
-1.6239539e-05
0.0027461311
-3.5538992e-05
0.0044187369
-6.1217189e-05
0.0059688612
-9.2018424e-05
0.0074003935
-0.00012570858
0.0087129793
-0.00015757395
0.0098965459
-0.00017684648
0.010916509
-0.00016614712
0.0116899
-0.0001221172
0.012107078
-6.8078239e-05
0.012108453
-2.5313024e-05
0.011620253
0.010164082
-4.1033745e-06
0.00094917723
-1.5993201e-05
0.0027580209
-3.4973725e-05
0.0044377174
-6.0157434e-05
0.0059940449
-9.0179432e-05
0.0074304155
-0.00012252186
0.0087453217
-0.00015172469
0.0099257487
-0.0001658846
0.010930669
-0.00014970629
0.011673722
-0.00010629218
0.012063664
-5.8071523e-05
0.012060233
-2.1196921e-05
0.011583378
0.010142885
-4.045497e-06
0.00095322273
-1.5761374e-05
0.0027697368
-3.4436919e-05
0.004456393
-5.9135102e-05
0.0060187431
-8.8360527e-05
0.0074596409
-0.00011925379
0.008776215
-0.00014551369
0.0099520086
-0.00015445694
0.010939612
-0.00013404494
0.01165331
-9.2406393e-05
0.012022025
-4.960816e-05
0.012017435
-1.7811017e-05
0.011551581
0.010125074
-3.9906706e-06
0.0009572134
-1.5540649e-05
0.0027812868
-3.3920384e-05
0.0044747727
-5.8133472e-05
0.0060429561
-8.6528477e-05
0.0074880359
-0.00011583835
0.0088055249
-0.00013886507
0.0099750353
-0.00014270997
0.010943457
-0.00011937991
0.01162998
-8.0236234e-05
0.011982881
-4.2382129e-05
0.01197958
-1.4972589e-05
0.011524171
0.010110101
-3.938246e-06
0.00096115164
-1.5328322e-05
0.0027926768
-3.3417324e-05
0.0044928617
-5.7137748e-05
0.0060666766
-8.4651727e-05
0.0075155499
-0.00011221299
0.0088330861
-0.00013174064
0.009994563
-0.00013084741
0.010942564
-0.00010583199
0.011604964
-6.955566e-05
0.011946605
-3.6155822e-05
0.011946181
-1.2551512e-05
0.011500567
0.01009755
-3.8876948e-06
0.00096503934
-1.512212e-05
0.0028039113
-3.2921708e-05
0.0045106613
-5.613392e-05
0.0060898888
-8.2698664e-05
0.0075421146
-0.00010831969
0.0088587072
-0.00012414735
0.010010391
-0.00011909198
0.010937509
-9.34357e-05
0.011579308
-6.015689e-05
0.011913326
-3.0745124e-05
0.011916769
-1.04555e-05
0.011480277
0.010087094
-3.8385569e-06
0.00096887789
-1.4919993e-05
0.0028149927
-3.2427784e-05
0.0045281691
-5.510785e-05
0.0061125688
-8.0636493e-05
0.0075676433
-0.00010410814
0.0088821788
-0.00011614034
0.010022423
-0.00010764918
0.010929017
-8.2162716e-05
0.011553821
-5.1858103e-05
0.011883022
-2.6007007e-05
0.011890918
-8.6187509e-06
0.011462889
0.010078476
-3.7904019e-06
0.0009726683
-1.471995e-05
0.0028259223
-3.1929704e-05
0.0045453789
-5.4044564e-05
0.0061346837
-7.8430837e-05
0.0075920295
-9.9540734e-05
0.0089032887
-0.00010781835
0.0100307
-9.6682481e-05
0.010917882
-7.1946844e-05
0.011529086
-4.4503958e-05
0.011855579
-2.1829743e-05
0.011868244
-6.9937034e-06
0.011448053
0.010071482
-3.7428e-06
0.0009764111
-1.4519945e-05
0.0028366994
-3.1421227e-05
0.0045622801
-5.2927708e-05
0.0061561902
-7.6046256e-05
0.0076151481
-9.4598626e-05
0.0089218411
-9.9310963e-05
0.010035413
-8.6303356e-05
0.010904874
-6.2703776e-05
0.011505486
-3.7963129e-05
0.011830838
-1.8125323e-05
0.011848406
-5.5452865e-06
0.011435473
0.010065937
-3.6952977e-06
0.00098010639
-1.4317763e-05
0.0028473219
-3.0895462e-05
0.0045788578
-5.1739148e-05
0.0061770339
-7.34478e-05
0.0076368567
-8.9287316e-05
0.0089376806
-9.0760481e-05
0.010036886
-7.6573761e-05
0.010890687
-5.4344019e-05
0.011483256
-3.2125049e-05
0.011808619
-1.4823681e-05
0.011831104
-4.2469955e-06
0.011424896
0.01006169
-3.6473963e-06
0.00098375379
-1.4110936e-05
0.0028577854
-3.0344641e-05
0.0045950915
-5.0458784e-05
0.006197148
-7.0603635e-05
0.0076570016
-8.3639733e-05
0.0089507167
-8.2303598e-05
0.01003555
-6.7515801e-05
0.010875899
-4.6780163e-05
0.011462521
-2.6896728e-05
0.011788736
-1.1868356e-05
0.011816076
-3.0782565e-06
0.011416106
0.010058611
-3.5985288e-06
0.00098735232
-1.3896642e-05
0.0028680835
-2.9759896e-05
0.0046109548
-4.9064619e-05
0.0062164527
-6.7488584e-05
0.0076754255
-7.7715072e-05
0.0089609432
-7.4057337e-05
0.010031892
-5.9123308e-05
0.010860965
-3.9930394e-05
0.011443328
-2.2199854e-05
0.011771005
-9.213282e-06
0.011803089
-2.0226608e-06
0.011408916
0.010056589
-3.5480256e-06
0.00099090034
-1.3671564e-05
0.0028782071
-2.9130949e-05
0.0046264142
-4.753311e-05
0.0062348549
-6.4087908e-05
0.0076919803
-7.1592543e-05
0.0089684478
-6.6111087e-05
0.010026411
-5.1371377e-05
0.010846226
-3.3718969e-05
0.011425676
-1.7967093e-05
0.011755253
-6.8191886e-06
0.011791942
-1.0665709e-06
0.011403163
0.010055522
-3.4950998e-06
0.00099439544
-1.343182e-05
0.0028881438
-2.8446031e-05
0.0046414284
-4.5840364e-05
0.0062522492
-6.0401301e-05
0.0077065413
-6.5362288e-05
0.0089734088
-5.852578e-05
0.010019574
-4.4224378e-05
0.010831924
-2.8076921e-05
0.011409528
-1.4140027e-05
0.011741316
-4.6491621e-06
0.011782451
-1.6922322e-07
0.011398683
0.010055353
-3.4388797e-06
0.00099783432
-1.3173132e-05
0.002897878
-2.7692439e-05
0.0046559477
-4.3964995e-05
0.0062685218
-5.6447128e-05
0.0077190234
-5.9117559e-05
0.0089760792
-5.1340492e-05
0.010011797
-3.7645559e-05
0.010818229
-2.2947463e-05
0.01139483
-1.0674761e-05
0.011729044
-2.6810916e-06
0.011774457
6.6545077e-07
0.011395337
0.010056018
-3.378315e-06
0.0010012126
-1.2890438e-05
0.0029073902
-2.6855996e-05
0.0046699133
-4.1889312e-05
0.0062835551
-5.2260839e-05
0.0077293949
-5.2943431e-05
0.0089767618
-4.4574254e-05
0.010003428
-3.1595996e-05
0.010805251
-1.8279609e-05
0.011381514
-7.5311714e-06
0.011718295
-8.8302099e-07
0.011767809
1.4049923e-06
0.011393049
0.010057423
-3.3120984e-06
0.0010045247
-1.2577617e-05
0.0029166557
-2.5921007e-05
0.0046832566
-3.9601335e-05
0.0062972354
-4.7891275e-05
0.0077376849
-4.6909587e-05
0.0089757801
-3.8229288e-05
0.0099947476
-2.6033928e-05
0.010793056
-1.402427e-05
0.011369504
-4.6695364e-06
0.011708941
7.7466504e-07
0.011762365
2.0667338e-06
0.011391757
0.01005949
-3.2386929e-06
0.0010077634
-1.2227714e-05
0.0029256447
-2.4871688e-05
0.0046959006
-3.709872e-05
0.0063094625
-4.3397669e-05
0.0077439838
-4.1070819e-05
0.0089734533
-3.2299149e-05
0.0099859759
-2.0920734e-05
0.010781677
-1.0139952e-05
0.011358723
-2.0591323e-06
0.01170086
2.2779966e-06
0.011758028
2.6638766e-06
0.011391371
0.010062154
-3.1562771e-06
0.0010109197
-1.1832823e-05
0.0029343212
-2.369304e-05
0.0047077608
-3.4390258e-05
0.0063201597
-3.8842822e-05
0.0077484364
-3.5466337e-05
0.0089700768
-2.6770496e-05
0.0099772801
-1.6218823e-05
0.010771126
-6.5853543e-06
0.01134909
3.4750706e-07
0.011693927
3.6322431e-06
0.011754743
3.2023295e-06
0.011391801
0.010065356
-3.062712e-06
0.0010139824
-1.1384179e-05
0.0029426427
-2.2372405e-05
0.0047187491
-3.1496506e-05
0.0063292838
-3.4287365e-05
0.0077512272
-3.0121876e-05
0.0089659113
-2.1625954e-05
0.0099687841
-1.1894078e-05
0.010761394
-3.330348e-06
0.011340526
2.5510671e-06
0.011688046
4.861651e-06
0.011752432
3.6898296e-06
0.011392972
0.010069046
-2.9555341e-06
0.001016938
-1.0872489e-05
0.0029505597
-2.0901464e-05
0.004728778
-2.8448952e-05
0.0063368313
-2.9785807e-05
0.0077525641
-2.5052619e-05
0.0089611781
-1.6845495e-05
0.009960577
-7.9112502e-06
0.01075246
-3.2676163e-07
0.011332941
4.5433725e-06
0.011683175
5.9753382e-06
0.011751
4.1313105e-06
0.011394816
0.010073177
-2.8319479e-06
0.0010197699
-1.0288359e-05
0.0029580161
-1.9277899e-05
0.0047377676
-2.5286909e-05
0.0063428403
-2.5383508e-05
0.0077526607
-2.0265017e-05
0.0089560596
-1.2407983e-05
0.00995272
-4.241902e-06
0.010744293
2.4380057e-06
0.011326262
6.3569871e-06
0.011679256
6.98576e-06
0.011750371
4.5313176e-06
0.011397271
0.010077709
-2.6889073e-06
0.0010224588
-9.6232127e-06
0.0029649504
-1.7507133e-05
0.0047456515
-2.2054219e-05
0.0063473874
-2.1116482e-05
0.0077517229
-1.5759134e-05
0.0089507023
-8.2896878e-06
0.0099452505
-8.4672358e-07
0.01073685
4.9536667e-06
0.011320461
8.0064785e-06
0.011676204
7.9030706e-06
0.011750475
4.8939876e-06
0.01140028
0.010082603
-2.5232505e-06
0.0010249821
-8.8703653e-06
0.0029712975
-1.5602914e-05
0.004752384
-1.8795227e-05
0.0063505797
-1.7011665e-05
0.0077499394
-1.1530733e-05
0.0089452214
-4.4700308e-06
0.0099381898
2.2909501e-06
0.01073009
7.2494973e-06
0.011315503
9.5068738e-06
0.011673946
8.7354309e-06
0.011751246
5.2223281e-06
0.011403793
0.010087825
-2.3319749e-06
0.001027314
-8.0264256e-06
0.0029769919
-1.358701e-05
0.0047579446
-1.5551702e-05
0.0063525444
-1.3087796e-05
0.0077474755
-7.570051e-06
0.0089397036
-9.1686412e-07
0.0099315366
5.1653389e-06
0.010724007
9.3448566e-06
0.011311323
1.0871957e-05
0.011672419
9.4906094e-06
0.011752628
5.5193448e-06
0.011407764
0.010093344
-2.1126545e-06
0.0010294267
-7.0926605e-06
0.002981972
-1.1487679e-05
0.0047623396
-1.2360761e-05
0.0063534175
-9.3574447e-06
0.0077444722
-3.8680908e-06
0.0089342143
2.381199e-06
0.0099252874
7.7971317e-06
0.010718591
1.1256331e-05
0.011307864
1.2113258e-05
0.011671562
1.0175004e-05
0.011754566
5.7874317e-06
0.011412152
0.010099132
-1.864027e-06
0.0010312907
-6.0761506e-06
0.0029861841
-9.3374754e-06
0.004765601
-9.2535879e-06
0.0063533336
-5.8255787e-06
0.0077410441
-4.0086633e-07
0.0089287895
5.4171613e-06
0.0099194693
1.0206096e-05
0.010713802
1.2999145e-05
0.011305071
1.3241046e-05
0.01167132
1.0794288e-05
0.011757013
6.0287298e-06
0.011416917
0.010105161
-1.5866517e-06
0.0010328774
-4.9902366e-06
0.0029895877
-7.1706253e-06
0.0047677814
-6.2552639e-06
0.0063524182
-2.4927242e-06
0.0077372816
2.831704e-06
0.0089234651
8.2068202e-06
0.0099140942
1.2408972e-05
0.0107096
1.458667e-05
0.011302893
1.4264294e-05
0.011671643
1.1353386e-05
0.011759924
6.2450802e-06
0.011422026
0.010111406
-1.283517e-06
0.0010341609
-3.8541804e-06
0.0029921583
-5.0207731e-06
0.0047689479
-3.3849315e-06
0.0063507824
6.4624526e-07
0.0077332504
5.8154076e-06
0.008918296
1.0765965e-05
0.0099091437
1.4420878e-05
0.010705945
1.6030866e-05
0.011301283
1.5191039e-05
0.011672482
1.1856731e-05
0.011763258
6.4381792e-06
0.011427444
0.010117844
-9.6034933e-07
0.0010351212
-2.691818e-06
0.0029938898
-2.9183291e-06
0.0047691745
-6.5058528e-07
0.0063485146
3.5782863e-06
0.0077290216
8.5629626e-06
0.0089133113
1.3108618e-05
0.009904598
1.6254577e-05
0.010702799
1.7341576e-05
0.011300196
1.6027729e-05
0.011673796
1.2307756e-05
0.011766978
6.6092429e-06
0.011433143
0.010124453
-6.2535151e-07
0.0010357466
-1.5291115e-06
0.0029947936
-8.8734993e-07
0.0047685327
1.929123e-06
0.0063456981
6.2873523e-06
0.0077246633
1.108411e-05
0.0089085145
1.5247542e-05
0.0099004346
1.7921765e-05
0.010700125
1.8527796e-05
0.01129959
1.6780294e-05
0.011675544
1.2709669e-05
0.011771049
6.7594709e-06
0.011439093
0.010131213
-2.8821714e-07
0.0010360348
-3.9067033e-07
0.002994896
1.0457269e-06
0.0047670963
4.3266974e-06
0.0063424172
8.7771529e-06
0.0077202129
1.3387494e-05
0.0089039042
1.7193174e-05
0.0098966289
1.9431885e-05
0.010697886
1.9596672e-05
0.011299425
1.7453301e-05
0.011677687
1.3064818e-05
0.011775437
6.8896485e-06
0.011445268
0.010138102
4.0782264e-08
0.001035994
6.9666338e-07
0.0029942401
2.8486081e-06
0.0047649444
6.5296262e-06
0.0063387362
1.1049542e-05
0.007715693
1.5480329e-05
0.0088994734
1.8954096e-05
0.0098931551
2.0792585e-05
0.010696048
2.0553878e-05
0.011299664
1.8050275e-05
0.011680191
1.3374919e-05
0.011780112
7.0002966e-06
0.011451643
0.010145103
3.5067437e-07
0.0010356433
1.7048695e-06
0.0029928859
4.4970952e-06
0.0047621521
8.530796e-06
0.0063347025
1.3105737e-05
0.007711118
1.7368034e-05
0.0088952111
2.0536764e-05
0.0098899864
2.2009509e-05
0.010694575
2.1403437e-05
0.01130027
1.8573518e-05
0.011683021
1.3640914e-05
0.011785045
7.0915717e-06
0.011458192
0.010152194
6.3199266e-07
0.0010350114
2.6137959e-06
0.0029909041
5.9771967e-06
0.0047587887
1.0324513e-05
0.0063303551
1.4946287e-05
0.0077064962
1.905427e-05
0.0088911031
2.1945527e-05
0.0098870951
2.3086291e-05
0.010693434
2.2147684e-05
0.011301209
1.902408e-05
0.011686144
1.3862938e-05
0.011790206
7.1632491e-06
0.011464892
0.010159357
8.787613e-07
0.0010341326
3.4113775e-06
0.0029883715
7.2795415e-06
0.0047549206
1.1906899e-05
0.0063257278
1.6571487e-05
0.0077018317
2.0541335e-05
0.0088871333
2.3182977e-05
0.0098844535
2.4024826e-05
0.010692593
2.2787472e-05
0.011302446
1.9401876e-05
0.01168953
1.4040384e-05
0.011795568
7.2147639e-06
0.011471717
0.010166572
1.0878994e-06
0.0010330447
4.0915457e-06
0.0029853679
8.3994944e-06
0.0047506126
1.3276233e-05
0.006320851
1.7981805e-05
0.0076971261
2.1830581e-05
0.0088832845
2.4250281e-05
0.0098820338
2.4825524e-05
0.010692017
2.3322332e-05
0.011303949
1.9705802e-05
0.011693146
1.417198e-05
0.011801101
7.2452298e-06
0.011478644
0.010173817
1.2588932e-06
0.0010317858
4.6536515e-06
0.0029819731
9.3370683e-06
0.0047459292
1.4433307e-05
0.0063157548
1.9178416e-05
0.007692381
2.2922943e-05
0.00887954
2.5147647e-05
0.0098798091
2.5487666e-05
0.010691677
2.3750747e-05
0.011305686
1.9933909e-05
0.011696963
1.4255882e-05
0.011806779
7.2534912e-06
0.011485647
0.010181071
1.3932113e-06
0.0010303926
5.1015048e-06
0.0029782648
1.0096578e-05
0.0047409341
1.5381687e-05
0.0063104697
2.016374e-05
0.0076875989
2.3819545e-05
0.0088758842
2.5874868e-05
0.0098777538
2.6009871e-05
0.010691542
2.4070501e-05
0.011307626
2.0083664e-05
0.01170095
1.4289848e-05
0.011812573
7.2382088e-06
0.011492698
0.010188309
1.4936533e-06
0.0010288989
5.4422306e-06
0.0029743162
1.0686048e-05
0.0047356903
1.6127785e-05
0.006305028
2.0941898e-05
0.0076827848
2.4522281e-05
0.0088723038
2.643191e-05
0.0098758441
2.6390599e-05
0.010691584
2.42791e-05
0.011309737
2.015226e-05
0.011705077
1.4271452e-05
0.011818454
7.1979646e-06
0.011499772
0.010195507
1.5637631e-06
0.0010273352
5.6851307e-06
0.0029701949
1.111645e-05
0.004730259
1.6680726e-05
0.0062994637
2.1519009e-05
0.0076779465
2.5034323e-05
0.0088687885
2.681947e-05
0.009874059
2.6628693e-05
0.010691774
2.437423e-05
0.011311992
2.0136979e-05
0.011709314
1.4198326e-05
0.011824393
7.131385e-06
0.011506839
0.010202638
1.6073728e-06
0.0010257278
5.840678e-06
0.0029659616
1.1400856e-05
0.0047246988
1.7052018e-05
0.0062938125
2.1903302e-05
0.0076730952
2.536049e-05
0.0088653313
2.7039451e-05
0.00987238
2.6723853e-05
0.01069209
2.4354194e-05
0.011314361
2.0035553e-05
0.011713633
1.406842e-05
0.01183036
7.0372833e-06
0.01151387
0.010209676
1.6282857e-06
0.0010240995
5.9197136e-06
0.0029616701
1.1553609e-05
0.0047190649
1.7255073e-05
0.0062881111
2.2105042e-05
0.0076682453
2.5507449e-05
0.0088619289
2.7095319e-05
0.0098707922
2.6677062e-05
0.010692508
2.421832e-05
0.01131682
1.9846512e-05
0.011718005
1.3880265e-05
0.011836326
6.9147873e-06
0.011520835
0.01021659
1.6300807e-06
0.0010224694
5.9328607e-06
0.0029573674
1.1589587e-05
0.0047134082
1.7304668e-05
0.006282396
2.2136289e-05
0.0076634137
2.5483752e-05
0.0088585814
2.6992314e-05
0.0098692836
2.649088e-05
0.01069301
2.3967285e-05
0.011319344
1.9569479e-05
0.011722402
1.3633186e-05
0.011842262
6.763465e-06
0.011527705
0.010223354
1.6160086e-06
0.0010208534
5.8901396e-06
0.0029530932
1.1523597e-05
0.0047077747
1.7216378e-05
0.0062767032
2.2010562e-05
0.0076586195
2.5299721e-05
0.0088552922
2.6737512e-05
0.0098678458
2.6169618e-05
0.010693578
2.3603339e-05
0.01132191
1.9205394e-05
0.0117268
1.3327487e-05
0.01184814
6.5834164e-06
0.011534449
0.010229937
1.5889509e-06
0.0010192645
5.8007427e-06
0.0029488814
1.136992e-05
0.0047022056
1.7006064e-05
0.0062710671
2.1742422e-05
0.0076538831
2.4967211e-05
0.0088520675
2.6339748e-05
0.0098664733
2.571938e-05
0.010694198
2.3130407e-05
0.011324499
1.8756638e-05
0.011731174
1.296456e-05
0.011853932
6.3753376e-06
0.011541038
0.010236313
1.551419e-06
0.0010177131
5.6729324e-06
0.0029447599
1.1141996e-05
0.0046967365
1.6689428e-05
0.0062655196
2.1347057e-05
0.0076492255
2.4499298e-05
0.0088489152
2.5809435e-05
0.0098651631
2.5147986e-05
0.010694859
2.2554099e-05
0.011327093
1.822708e-05
0.011735501
1.2546922e-05
0.011859613
6.1405436e-06
0.011547445
0.010242453
1.5055749e-06
0.0010162075
5.5140219e-06
0.0029407515
1.0852228e-05
0.0046913983
1.6281657e-05
0.0062600902
2.083988e-05
0.0076446673
2.3909933e-05
0.0088458452
2.5158295e-05
0.0098639148
2.4464795e-05
0.010695553
2.1881599e-05
0.011329676
1.7622016e-05
0.011739761
1.2078194e-05
0.011865156
5.8809505e-06
0.011553642
0.010248334
1.4532642e-06
0.0010147542
5.3304082e-06
0.0029368743
1.0511886e-05
0.0046862168
1.5797158e-05
0.0062548049
2.0236169e-05
0.0076402283
2.3213564e-05
0.0088428678
2.4399037e-05
0.0098627293
2.3680444e-05
0.010696272
2.1121463e-05
0.011332235
1.6948024e-05
0.011743934
1.1563002e-05
0.011870541
5.599032e-06
0.011559606
0.010253933
1.3960521e-06
0.0010133582
5.1276378e-06
0.0029331427
1.0131085e-05
0.0046812134
1.5249382e-05
0.0062496866
1.9550772e-05
0.0076359269
2.2424805e-05
0.0088399937
2.3545028e-05
0.0098616091
2.2806563e-05
0.01069701
2.0283391e-05
0.011334758
1.6212777e-05
0.011748005
1.1006825e-05
0.011875747
5.2977169e-06
0.011565315
0.010259231
1.3352597e-06
0.0010120229
4.9104848e-06
0.0029295675
9.7188056e-06
0.004676405
1.4650711e-05
0.0062447547
1.8797869e-05
0.0076317797
2.1558115e-05
0.0088372335
2.2609951e-05
0.0098605572
2.1855432e-05
0.010697765
1.9377908e-05
0.011337236
1.5424787e-05
0.011751958
1.041582e-05
0.011880756
4.9803079e-06
0.01157075
0.010264211
1.2719979e-06
0.0010107509
4.6830351e-06
0.0029261565
9.2829539e-06
0.0046718051
1.4012409e-05
0.0062400253
1.7990801e-05
0.0076278013
2.0627545e-05
0.0088345967
2.1607503e-05
0.0098595773
2.0839682e-05
0.010698532
1.8416093e-05
0.011339659
1.4593146e-05
0.011755781
9.7966045e-06
0.011885553
4.6503399e-06
0.011575897
0.010268862
1.2071974e-06
0.0010095437
4.4487665e-06
0.0029229149
8.8304331e-06
0.0046674235
1.3344614e-05
0.0062355111
1.7141944e-05
0.007624004
1.9646509e-05
0.0088320922
2.0551106e-05
0.0098586727
1.9771971e-05
0.010699311
1.7409238e-05
0.011342022
1.3727243e-05
0.011759463
9.1560516e-06
0.011890124
4.3114873e-06
0.011580741
0.010273173
1.1416355e-06
0.0010084021
4.2106268e-06
0.0029198459
8.3672332e-06
0.0046632669
1.2656365e-05
0.0062312219
1.6262649e-05
0.0076203977
1.8627634e-05
0.0088297272
1.9453694e-05
0.0098578466
1.8664736e-05
0.0107001
1.6368613e-05
0.011344318
1.2836525e-05
0.011762995
8.5010816e-06
0.011894459
3.9674178e-06
0.011585275
0.01027714
1.0759589e-06
0.0010073261
3.9711013e-06
0.0029169508
7.8985139e-06
0.0046593394
1.195565e-05
0.0062271648
1.53632e-05
0.0076169902
1.7582635e-05
0.0088275078
1.832751e-05
0.0098571017
1.7529947e-05
0.010700898
1.5305184e-05
0.011346543
1.1930246e-05
0.01176637
7.8384777e-06
0.011898551
3.6217108e-06
0.011589492
0.010280762
1.010703e-06
0.0010063154
3.7322749e-06
0.0029142292
7.4286914e-06
0.004655643
1.1249464e-05
0.006223344
1.4452822e-05
0.0076137868
1.6522243e-05
0.0088254383
1.7183976e-05
0.00985644
1.6378926e-05
0.010701703
1.422943e-05
0.011348692
1.1017277e-05
0.011769582
7.1747208e-06
0.011902394
3.2777553e-06
0.011593389
0.01028404
9.463091e-07
0.0010053691
3.4958865e-06
0.0029116796
6.9615192e-06
0.0046521774
1.0543885e-05
0.0062197617
1.3539699e-05
0.007610791
1.5456169e-05
0.0088235219
1.6033594e-05
0.0098558626
1.5222208e-05
0.010702514
1.3151158e-05
0.011350763
1.0105937e-05
0.011772627
6.5158627e-06
0.011905984
2.9386798e-06
0.011596966
0.010286979
8.8313808e-07
0.001004486
3.2633757e-06
0.0029092994
6.5001626e-06
0.0046489406
9.8441454e-06
0.0062164177
1.2631022e-05
0.0076080041
1.439309e-05
0.0088217598
1.4885875e-05
0.0098553698
1.4069427e-05
0.010703331
1.2079391e-05
0.011352753
9.2038712e-06
0.011775503
5.8674267e-06
0.01190932
2.6073057e-06
0.011600226
0.010289586
8.2148259e-07
0.0010036645
3.0359244e-06
0.002907085
6.0472681e-06
0.0046459293
9.154707e-06
0.0062133103
1.1733038e-05
0.0076054258
1.334067e-05
0.0088201522
1.3749332e-05
0.0098549611
1.2929273e-05
0.010704151
1.1022286e-05
0.01135466
8.3179699e-06
0.011778207
5.2343385e-06
0.011912404
2.2860985e-06
0.011603174
0.010291872
7.6157693e-07
0.0010029029
2.8144919e-06
0.002905032
5.6050242e-06
0.0046431387
8.4793334e-06
0.0062104359
1.0851112e-05
0.007603054
1.2305588e-05
0.0088186977
1.2631455e-05
0.0098546353
1.1809439e-05
0.010704973
9.9870623e-06
0.011356483
7.4543015e-06
0.01178074
4.6208836e-06
0.011915237
1.9771744e-06
0.011605818
0.010293849
7.0360619e-07
0.0010021993
2.599847e-06
0.0029031358
5.1752213e-06
0.0046405634
7.821166e-06
0.00620779
9.9898023e-06
0.0076008854
1.1293598e-05
0.0088173939
1.1538761e-05
0.0098543901
1.0716647e-05
0.010705795
8.9800266e-06
0.011358219
6.6181111e-06
0.011783102
4.030696e-06
0.011917825
1.6822543e-06
0.011608166
0.010295531
6.4771288e-07
0.0010015516
2.3925928e-06
0.0029013909
4.7592962e-06
0.0046381967
7.1827812e-06
0.0062053665
9.1529149e-06
0.0075989152
1.0309565e-05
0.0088162372
1.0476804e-05
0.0098542229
9.6566325e-06
0.010706615
8.0065258e-06
0.011359869
5.813799e-06
0.011785295
3.4667606e-06
0.011920172
1.402726e-06
0.01161023
0.010296934
5.9400386e-07
0.0010009576
2.1931917e-06
0.0028997917
4.3583822e-06
0.0046360315
6.5662616e-06
0.0062031586
8.3435833e-06
0.0075971379
9.3575502e-06
0.0088152233
9.4502496e-06
0.0098541302
8.6342176e-06
0.010707431
7.0710301e-06
0.011361433
5.0449706e-06
0.011787321
2.9314415e-06
0.011922285
1.1396149e-06
0.011612022
0.010298074
5.4255513e-07
0.001000415
2.0019843e-06
0.0028983323
3.973345e-06
0.0046340601
5.9732458e-06
0.0062011587
7.564327e-06
0.0075955468
8.4408584e-06
0.0088143468
8.4629145e-06
0.0098541081
7.6533343e-06
0.010708241
6.1771283e-06
0.011362909
4.3144547e-06
0.011789183
2.4265145e-06
0.011924173
8.9363889e-07
0.011613555
0.010298967
4.9341705e-07
0.00099992161
1.8192082e-06
0.0028970065
3.6048224e-06
0.0046322745
5.4049897e-06
0.0061993586
6.8171254e-06
0.0075941347
7.5621246e-06
0.0088136018
7.5178558e-06
0.0098541524
6.7171129e-06
0.010709042
5.3276307e-06
0.011364298
3.6243749e-06
0.011790887
1.9532102e-06
0.011925844
6.6521449e-07
0.011614843
0.010299633
4.4661801e-07
0.00099947499
1.6450124e-06
0.0028958081
3.2532535e-06
0.0046306662
4.8624086e-06
0.0061977494
6.1034716e-06
0.0075928936
6.7233692e-06
0.0088129819
6.6174238e-06
0.0098542583
5.8279329e-06
0.010709831
4.5246074e-06
0.011365602
2.9762092e-06
0.011792435
1.5122867e-06
0.011927308
4.5452257e-07
0.011615901
0.010300087
4.0216932e-07
0.00099907282
1.479477e-06
0.0028947308
2.9189201e-06
0.0046292268
4.3461476e-06
0.0061963222
5.4244675e-06
0.0075918153
5.9261191e-06
0.0088124802
5.7634054e-06
0.009854421
4.9875855e-06
0.010710607
3.7695751e-06
0.01136682
2.3709777e-06
0.011793834
1.1042071e-06
0.011928575
2.6165438e-07
0.011616743
0.010300349
3.6006781e-07
0.00099871275
1.3226235e-06
0.0028937682
2.6019703e-06
0.0046279475
3.8566175e-06
0.0061950675
4.7808754e-06
0.007590891
5.1714682e-06
0.0088120896
4.9570928e-06
0.0098546354
4.1973531e-06
0.010711367
3.0635862e-06
0.011367953
1.8093782e-06
0.011795088
7.2952238e-07
0.011929655
8.9114015e-08
0.011617384
0.010300438
3.2029337e-07
0.00099839246
1.1744033e-06
0.0028929141
2.3023911e-06
0.0046268195
3.393944e-06
0.006193976
4.1730294e-06
0.007590112
4.4599383e-06
0.0088118027
4.1990798e-06
0.0098548963
3.4577196e-06
0.010712108
2.4068393e-06
0.011369004
1.2912524e-06
0.011796203
3.879593e-07
0.011930558
-6.2149676e-08
0.011617834
0.010300376
2.8281028e-07
0.00099810965
1.0347039e-06
0.0028921622
2.0200211e-06
0.0046258341
2.9579888e-06
0.006193038
3.600864e-06
0.0075894691
3.7915158e-06
0.008811612
3.4893056e-06
0.0098551985
2.7684468e-06
0.010712829
1.7988706e-06
0.011369974
8.1627589e-07
0.011797186
8.1585629e-08
0.011931293