/*--------------------------------*- C++ -*----------------------------------*\
| =========                 |                                                 |
| \\      /  F ield         | OpenFOAM: The Open Source CFD Toolbox           |
|  \\    /   O peration     | Version:  2506                                  |
|   \\  /    A nd           | Website:  www.openfoam.com                      |
|    \\/     M anipulation  |                                                 |
\*---------------------------------------------------------------------------*/
FoamFile
{
    version     2.0;
    format      ascii;
    arch        "LSB;label=32;scalar=64";
    class       volScalarField;
    location    "1000/water";
    object      T;
}
// * * * * * * * * * * * * * * * * * * * * * * * * * * * * * * * * * * * * * //

dimensions      [0 0 0 1 0 0 0];

internalField   nonuniform List<scalar> 
2600
(
333.15
333.15
333.15
333.15
333.15
333.15
333.15
333.14999
333.14998
333.1499
333.14959
333.14801
333.13769
333.15
333.15
333.15
333.15
333.15
333.15
333.14999
333.14998
333.14992
333.14971
333.14892
333.14543
333.12846
333.15
333.15
333.15
333.15
333.15
333.15
333.14999
333.14995
333.14982
333.14942
333.14803
333.14246
333.12094
333.15
333.15
333.15
333.15
333.15
333.14999
333.14997
333.1499
333.14968
333.14904
333.14698
333.13927
333.11451
333.15
333.15
333.15
333.15
333.14999
333.14998
333.14994
333.14983
333.1495
333.14858
333.14577
333.13596
333.10887
333.15
333.15
333.15
333.15
333.14999
333.14997
333.14991
333.14974
333.14928
333.14806
333.1444
333.13262
333.10387
333.15
333.15
333.15
333.14999
333.14998
333.14995
333.14986
333.14963
333.14903
333.14745
333.14289
333.12931
333.09944
333.15
333.15
333.15
333.14999
333.14998
333.14993
333.14981
333.1495
333.14873
333.14677
333.14121
333.12606
333.09553
333.15
333.15
333.15
333.14999
333.14996
333.1499
333.14974
333.14934
333.14839
333.14598
333.13936
333.12294
333.09212
333.15
333.15
333.14999
333.14998
333.14995
333.14986
333.14966
333.14916
333.148
333.14508
333.13736
333.11998
333.08916
333.15
333.15
333.14999
333.14997
333.14993
333.14982
333.14956
333.14896
333.14756
333.14405
333.13523
333.1172
333.08662
333.15
333.14999
333.14999
333.14996
333.14991
333.14977
333.14945
333.14873
333.14704
333.14288
333.13302
333.11464
333.08445
333.14999
333.14999
333.14998
333.14995
333.14988
333.14971
333.14932
333.14846
333.14645
333.14155
333.13077
333.1123
333.08258
333.14999
333.14999
333.14997
333.14994
333.14985
333.14964
333.14918
333.14815
333.14575
333.14009
333.12855
333.11016
333.08097
333.14999
333.14999
333.14997
333.14992
333.14981
333.14956
333.14901
333.14779
333.14495
333.1385
333.1264
333.10821
333.07956
333.14999
333.14998
333.14996
333.1499
333.14977
333.14947
333.14882
333.14737
333.14404
333.13684
333.12435
333.10644
333.07831
333.14998
333.14998
333.14995
333.14988
333.14972
333.14937
333.1486
333.14689
333.143
333.13512
333.12241
333.10481
333.07718
333.14998
333.14997
333.14993
333.14985
333.14966
333.14924
333.14834
333.14632
333.14186
333.13339
333.1206
333.10332
333.07616
333.14998
333.14996
333.14992
333.14982
333.14959
333.1491
333.14804
333.14567
333.14062
333.13168
333.1189
333.10194
333.07522
333.14997
333.14995
333.1499
333.14978
333.14951
333.14894
333.14769
333.14492
333.1393
333.13002
333.11731
333.10067
333.07434
333.14996
333.14994
333.14988
333.14974
333.14942
333.14875
333.14728
333.14408
333.13794
333.12841
333.11583
333.09947
333.07352
333.14995
333.14993
333.14985
333.14969
333.14932
333.14853
333.1468
333.14315
333.13654
333.12687
333.11443
333.09835
333.07274
333.14994
333.14991
333.14983
333.14963
333.1492
333.14827
333.14625
333.14215
333.13515
333.1254
333.11312
333.0973
333.07199
333.14993
333.14989
333.14979
333.14956
333.14906
333.14797
333.14563
333.14107
333.13376
333.124
333.11188
333.0963
333.07128
333.14992
333.14987
333.14975
333.14948
333.14889
333.14762
333.14493
333.13995
333.1324
333.12266
333.11071
333.09536
333.0706
333.1499
333.14985
333.14971
333.14939
333.1487
333.14721
333.14416
333.13879
333.13108
333.12138
333.1096
333.09446
333.06994
333.14988
333.14982
333.14965
333.14928
333.14847
333.14674
333.14332
333.13761
333.12979
333.12016
333.10854
333.09359
333.0693
333.14986
333.14979
333.14959
333.14915
333.14821
333.14621
333.14241
333.13643
333.12854
333.119
333.10753
333.09276
333.06868
333.14983
333.14975
333.14952
333.14901
333.1479
333.14562
333.14146
333.13526
333.12733
333.11788
333.10657
333.09197
333.06808
333.1498
333.1497
333.14944
333.14883
333.14755
333.14495
333.14047
333.13409
333.12616
333.11681
333.10564
333.0912
333.06749
333.14976
333.14965
333.14934
333.14863
333.14714
333.14423
333.13946
333.13295
333.12503
333.11578
333.10474
333.09045
333.06691
333.14972
333.14959
333.14922
333.1484
333.14668
333.14345
333.13843
333.13182
333.12394
333.11479
333.10388
333.08973
333.06635
333.14967
333.14951
333.14908
333.14812
333.14615
333.14262
333.13739
333.13072
333.12289
333.11383
333.10305
333.08903
333.0658
333.14961
333.14943
333.14892
333.1478
333.14557
333.14176
333.13635
333.12965
333.12186
333.11291
333.10224
333.08834
333.06525
333.14954
333.14932
333.14873
333.14744
333.14493
333.14086
333.13531
333.1286
333.12087
333.11201
333.10146
333.08768
333.06472
333.14946
333.1492
333.14851
333.14702
333.14424
333.13994
333.13428
333.12757
333.11991
333.11114
333.1007
333.08703
333.06419
333.14936
333.14906
333.14825
333.14654
333.1435
333.139
333.13327
333.12657
333.11897
333.1103
333.09995
333.08639
333.06367
333.14924
333.14889
333.14794
333.14601
333.14272
333.13805
333.13227
333.12559
333.11806
333.10948
333.09923
333.08576
333.06315
333.1491
333.14869
333.14759
333.14543
333.1419
333.1371
333.13128
333.12464
333.11718
333.10868
333.09852
333.08515
333.06264
333.14893
333.14845
333.14719
333.14479
333.14106
333.13614
333.13031
333.12371
333.11631
333.1079
333.09783
333.08455
333.06214
333.14873
333.14817
333.14673
333.1441
333.14019
333.13519
333.12935
333.12279
333.11547
333.10713
333.09715
333.08395
333.06164
333.14849
333.14784
333.14622
333.14337
333.1393
333.13424
333.12841
333.1219
333.11465
333.10639
333.09649
333.08337
333.06114
333.1482
333.14746
333.14565
333.1426
333.1384
333.1333
333.12749
333.12103
333.11384
333.10566
333.09583
333.08279
333.06064
333.14786
333.14702
333.14502
333.1418
333.1375
333.13237
333.12658
333.12017
333.11305
333.10494
333.09519
333.08222
333.06015
333.14746
333.14651
333.14434
333.14096
333.13658
333.13144
333.12568
333.11933
333.11228
333.10424
333.09456
333.08165
333.05965
333.14699
333.14594
333.14361
333.1401
333.13567
333.13052
333.1248
333.1185
333.11152
333.10355
333.09393
333.08109
333.05916
333.14644
333.14531
333.14283
333.13922
333.13475
333.12962
333.12393
333.11769
333.11077
333.10286
333.09331
333.08053
333.05867
333.14582
333.1446
333.14201
333.13832
333.13383
333.12872
333.12308
333.1169
333.11004
333.10219
333.0927
333.07998
333.05818
333.14512
333.14383
333.14115
333.13741
333.13291
333.12783
333.12224
333.11611
333.10931
333.10153
333.0921
333.07943
333.05769
333.14433
333.143
333.14025
333.13648
333.13199
333.12694
333.1214
333.11534
333.1086
333.10087
333.0915
333.07889
333.0572
333.14348
333.14211
333.13932
333.13555
333.13107
333.12607
333.12058
333.11457
333.10789
333.10022
333.0909
333.07834
333.05671
333.14255
333.14116
333.13836
333.1346
333.13016
333.1252
333.11977
333.11382
333.10719
333.09958
333.09031
333.0778
333.05622
333.14156
333.14017
333.13738
333.13365
333.12925
333.12434
333.11896
333.11307
333.1065
333.09894
333.08972
333.07726
333.05573
333.14051
333.13914
333.13638
333.13268
333.12834
333.12349
333.11817
333.11233
333.10582
333.09831
333.08914
333.07672
333.05524
333.13943
333.13807
333.13536
333.13172
333.12743
333.12263
333.11738
333.1116
333.10514
333.09768
333.08856
333.07618
333.05474
333.1383
333.13698
333.13432
333.13074
333.12652
333.12179
333.11659
333.11087
333.10446
333.09706
333.08798
333.07564
333.05424
333.13716
333.13587
333.13327
333.12977
333.12561
333.12095
333.11581
333.11014
333.10379
333.09643
333.0874
333.0751
333.05374
333.13599
333.13474
333.13222
333.12879
333.1247
333.12011
333.11503
333.10942
333.10313
333.09581
333.08682
333.07456
333.05324
333.13481
333.13361
333.13115
333.1278
333.1238
333.11927
333.11426
333.10871
333.10246
333.09519
333.08624
333.07401
333.05273
333.13363
333.13247
333.13009
333.12682
333.12289
333.11843
333.11348
333.10799
333.10179
333.09457
333.08566
333.07347
333.05221
333.13245
333.13133
333.12902
333.12583
333.12198
333.1176
333.11271
333.10728
333.10113
333.09395
333.08507
333.07292
333.0517
333.13127
333.13019
333.12795
333.12485
333.12108
333.11677
333.11194
333.10656
333.10047
333.09333
333.08449
333.07236
333.05117
333.1301
333.12905
333.12689
333.12387
333.12018
333.11593
333.11118
333.10585
333.0998
333.09271
333.0839
333.0718
333.05064
333.12894
333.12793
333.12583
333.12289
333.11928
333.11511
333.11041
333.10514
333.09914
333.09208
333.08331
333.07124
333.0501
333.12779
333.12681
333.12478
333.12191
333.11838
333.11428
333.10964
333.10443
333.09847
333.09145
333.08272
333.07067
333.04956
333.12665
333.12571
333.12373
333.12094
333.11748
333.11345
333.10888
333.10371
333.0978
333.09082
333.08212
333.0701
333.04901
333.12553
333.12461
333.1227
333.11998
333.11659
333.11263
333.10811
333.103
333.09713
333.09019
333.08151
333.06952
333.04845
333.12442
333.12353
333.12168
333.11902
333.1157
333.1118
333.10735
333.10228
333.09646
333.08955
333.0809
333.06893
333.04788
333.12333
333.12247
333.12066
333.11807
333.11482
333.11098
333.10658
333.10157
333.09578
333.08891
333.08029
333.06834
333.0473
333.12225
333.12142
333.11966
333.11713
333.11394
333.11017
333.10582
333.10085
333.09511
333.08827
333.07967
333.06774
333.04671
333.12119
333.12038
333.11867
333.1162
333.11307
333.10935
333.10506
333.10013
333.09443
333.08762
333.07905
333.06713
333.04612
333.12015
333.11936
333.11769
333.11528
333.1122
333.10854
333.1043
333.09941
333.09374
333.08696
333.07841
333.06652
333.04551
333.11912
333.11835
333.11672
333.11436
333.11134
333.10773
333.10353
333.09869
333.09306
333.08631
333.07778
333.06589
333.0449
333.11811
333.11736
333.11577
333.11345
333.11049
333.10693
333.10277
333.09797
333.09237
333.08564
333.07713
333.06526
333.04428
333.11711
333.11638
333.11483
333.11255
333.10964
333.10612
333.10202
333.09725
333.09168
333.08498
333.07649
333.06462
333.04365
333.11613
333.11542
333.11389
333.11166
333.10879
333.10532
333.10126
333.09653
333.09098
333.08431
333.07583
333.06398
333.04301
333.11517
333.11447
333.11297
333.11078
333.10796
333.10453
333.1005
333.0958
333.09029
333.08363
333.07517
333.06333
333.04236
333.11421
333.11353
333.11206
333.10991
333.10712
333.10374
333.09974
333.09508
333.08959
333.08295
333.0745
333.06267
333.0417
333.11328
333.1126
333.11116
333.10905
333.1063
333.10295
333.09899
333.09435
333.08888
333.08226
333.07383
333.062
333.04103
333.11235
333.11169
333.11028
333.10819
333.10548
333.10216
333.09823
333.09363
333.08818
333.08158
333.07315
333.06133
333.04036
333.11144
333.11079
333.1094
333.10734
333.10466
333.10138
333.09748
333.0929
333.08747
333.08088
333.07247
333.06065
333.03968
333.11054
333.1099
333.10853
333.1065
333.10385
333.1006
333.09673
333.09217
333.08676
333.08018
333.07178
333.05996
333.03899
333.10965
333.10902
333.10767
333.10567
333.10304
333.09982
333.09598
333.09144
333.08605
333.07948
333.07108
333.05927
333.0383
333.10878
333.10815
333.10682
333.10484
333.10224
333.09905
333.09522
333.09071
333.08533
333.07878
333.07038
333.05857
333.0376
333.10791
333.1073
333.10598
333.10402
333.10145
333.09827
333.09448
333.08998
333.08461
333.07807
333.06968
333.05787
333.03689
333.10705
333.10645
333.10514
333.10321
333.10066
333.09751
333.09373
333.08924
333.08389
333.07736
333.06897
333.05716
333.03617
333.1062
333.10561
333.10432
333.1024
333.09987
333.09674
333.09298
333.08851
333.08317
333.07664
333.06826
333.05644
333.03546
333.10537
333.10478
333.1035
333.1016
333.09909
333.09597
333.09223
333.08777
333.08245
333.07592
333.06754
333.05572
333.03473
333.10454
333.10395
333.10269
333.1008
333.09831
333.09521
333.09148
333.08704
333.08172
333.0752
333.06682
333.055
333.034
333.10372
333.10314
333.10188
333.10001
333.09753
333.09445
333.09073
333.0863
333.08099
333.07447
333.06609
333.05428
333.03327
333.1029
333.10233
333.10108
333.09922
333.09676
333.09369
333.08999
333.08556
333.08026
333.07375
333.06537
333.05354
333.03253
333.10209
333.10152
333.10029
333.09844
333.09599
333.09294
333.08924
333.08483
333.07952
333.07301
333.06463
333.05281
333.03179
333.10129
333.10073
333.0995
333.09766
333.09523
333.09218
333.0885
333.08409
333.07879
333.07228
333.0639
333.05207
333.03105
333.1005
333.09994
333.09872
333.09689
333.09446
333.09143
333.08775
333.08335
333.07805
333.07154
333.06316
333.05133
333.0303
333.09971
333.09915
333.09794
333.09612
333.0937
333.09067
333.087
333.08261
333.07731
333.07081
333.06242
333.05059
333.02955
333.09893
333.09837
333.09716
333.09535
333.09294
333.08992
333.08626
333.08186
333.07657
333.07007
333.06168
333.04984
333.0288
333.09815
333.09759
333.09639
333.09459
333.09218
333.08917
333.08551
333.08112
333.07583
333.06932
333.06094
333.04909
333.02805
333.09737
333.09682
333.09562
333.09382
333.09143
333.08842
333.08476
333.08038
333.07509
333.06858
333.06019
333.04834
333.02729
333.0966
333.09605
333.09486
333.09307
333.09067
333.08767
333.08402
333.07963
333.07434
333.06783
333.05944
333.04759
333.02653
333.09584
333.09529
333.0941
333.09231
333.08992
333.08692
333.08327
333.07889
333.0736
333.06709
333.05869
333.04684
333.02577
333.09507
333.09453
333.09334
333.09155
333.08917
333.08617
333.08252
333.07814
333.07285
333.06634
333.05794
333.04608
333.025
333.09431
333.09377
333.09258
333.0908
333.08842
333.08542
333.08178
333.07739
333.0721
333.06559
333.05718
333.04532
333.02424
333.09355
333.09301
333.09183
333.09005
333.08767
333.08468
333.08103
333.07664
333.07135
333.06483
333.05643
333.04456
333.02347
333.0928
333.09226
333.09108
333.0893
333.08692
333.08393
333.08028
333.0759
333.0706
333.06408
333.05567
333.0438
333.02271
333.09205
333.0915
333.09033
333.08855
333.08617
333.08318
333.07953
333.07515
333.06985
333.06333
333.05491
333.04304
333.02194
333.0913
333.09075
333.08958
333.0878
333.08542
333.08243
333.07879
333.0744
333.0691
333.06257
333.05416
333.04228
333.02117
333.09055
333.09001
333.08883
333.08705
333.08468
333.08169
333.07804
333.07364
333.06834
333.06181
333.0534
333.04151
333.0204
333.0898
333.08926
333.08808
333.08631
333.08393
333.08094
333.07729
333.07289
333.06759
333.06106
333.05263
333.04075
333.01963
333.08905
333.08851
333.08734
333.08556
333.08318
333.08019
333.07654
333.07214
333.06683
333.0603
333.05187
333.03998
333.01886
333.08831
333.08777
333.08659
333.08481
333.08244
333.07944
333.07579
333.07139
333.06608
333.05954
333.05111
333.03922
333.01808
333.08756
333.08702
333.08585
333.08407
333.08169
333.07869
333.07504
333.07063
333.06532
333.05878
333.05035
333.03845
333.01731
333.08682
333.08628
333.0851
333.08332
333.08094
333.07794
333.07428
333.06988
333.06456
333.05802
333.04958
333.03768
333.01654
333.08608
333.08553
333.08436
333.08258
333.08019
333.07719
333.07353
333.06912
333.06381
333.05726
333.04882
333.03692
333.01576
333.08533
333.08479
333.08361
333.08183
333.07945
333.07644
333.07278
333.06837
333.06305
333.0565
333.04805
333.03615
333.01499
333.08459
333.08405
333.08287
333.08109
333.0787
333.07569
333.07203
333.06761
333.06229
333.05573
333.04729
333.03538
333.01421
333.08385
333.08331
333.08212
333.08034
333.07795
333.07494
333.07127
333.06686
333.06153
333.05497
333.04652
333.03461
333.01344
333.08311
333.08256
333.08138
333.07959
333.0772
333.07419
333.07052
333.0661
333.06077
333.05421
333.04576
333.03384
333.01266
333.08236
333.08182
333.08064
333.07885
333.07645
333.07344
333.06976
333.06534
333.06001
333.05344
333.04499
333.03307
333.01189
333.08162
333.08107
333.07989
333.0781
333.0757
333.07269
333.06901
333.06458
333.05925
333.05268
333.04422
333.0323
333.01111
333.08088
333.08033
333.07914
333.07735
333.07495
333.07193
333.06825
333.06382
333.05848
333.05192
333.04346
333.03153
333.01034
333.08013
333.07959
333.0784
333.0766
333.0742
333.07118
333.06749
333.06306
333.05772
333.05115
333.04269
333.03076
333.00956
333.07939
333.07884
333.07765
333.07586
333.07345
333.07043
333.06674
333.0623
333.05696
333.05039
333.04192
333.02999
333.00879
333.07864
333.0781
333.07691
333.07511
333.0727
333.06967
333.06598
333.06154
333.0562
333.04962
333.04115
333.02922
333.00801
333.0779
333.07735
333.07616
333.07436
333.07195
333.06891
333.06522
333.06078
333.05543
333.04885
333.04039
333.02845
333.00723
333.07715
333.0766
333.07541
333.07361
333.07119
333.06816
333.06446
333.06002
333.05467
333.04809
333.03962
333.02768
333.00646
333.0764
333.07585
333.07466
333.07285
333.07044
333.0674
333.0637
333.05926
333.0539
333.04732
333.03885
333.02691
333.00568
333.07566
333.07511
333.07391
333.0721
333.06969
333.06664
333.06294
333.05849
333.05314
333.04655
333.03808
333.02614
333.0049
333.07491
333.07436
333.07316
333.07135
333.06893
333.06589
333.06218
333.05773
333.05237
333.04579
333.03731
333.02536
333.00413
333.07416
333.07361
333.07241
333.0706
333.06817
333.06513
333.06142
333.05697
333.05161
333.04502
333.03654
333.02459
333.00335
333.07341
333.07286
333.07165
333.06984
333.06742
333.06437
333.06066
333.0562
333.05084
333.04425
333.03577
333.02382
333.00257
333.07266
333.0721
333.0709
333.06909
333.06666
333.06361
333.0599
333.05544
333.05008
333.04348
333.035
333.02305
333.00179
333.0719
333.07135
333.07015
333.06833
333.0659
333.06285
333.05913
333.05468
333.04931
333.04272
333.03423
333.02227
333.00102
333.07115
333.0706
333.06939
333.06757
333.06514
333.06209
333.05837
333.05391
333.04854
333.04195
333.03346
333.0215
333.00024
333.0704
333.06984
333.06864
333.06682
333.06438
333.06133
333.05761
333.05314
333.04778
333.04118
333.03269
333.02073
332.99946
333.06964
333.06909
333.06788
333.06606
333.06362
333.06056
333.05684
333.05238
333.04701
333.04041
333.03192
333.01995
332.99868
333.06889
333.06833
333.06712
333.0653
333.06286
333.0598
333.05608
333.05161
333.04624
333.03964
333.03115
333.01918
332.9979
333.06813
333.06757
333.06636
333.06454
333.0621
333.05904
333.05531
333.05085
333.04547
333.03887
333.03038
333.01841
332.99712
333.06737
333.06681
333.0656
333.06378
333.06134
333.05827
333.05455
333.05008
333.0447
333.0381
333.02961
333.01763
332.99634
333.06661
333.06606
333.06484
333.06302
333.06057
333.05751
333.05378
333.04931
333.04393
333.03733
333.02883
333.01686
332.99556
333.06585
333.0653
333.06408
333.06225
333.05981
333.05674
333.05301
333.04854
333.04316
333.03656
333.02806
333.01608
332.99478
333.06509
333.06453
333.06332
333.06149
333.05905
333.05598
333.05225
333.04777
333.04239
333.03579
333.02729
333.01531
332.994
333.06433
333.06377
333.06256
333.06073
333.05828
333.05521
333.05148
333.04701
333.04162
333.03502
333.02651
333.01453
332.99322
333.06357
333.06301
333.0618
333.05996
333.05752
333.05444
333.05071
333.04624
333.04085
333.03424
333.02574
333.01375
332.99244
333.06281
333.06225
333.06103
333.0592
333.05675
333.05368
333.04994
333.04547
333.04008
333.03347
333.02497
333.01298
332.99166
333.06204
333.06148
333.06027
333.05843
333.05598
333.05291
333.04917
333.0447
333.03931
333.0327
333.02419
333.0122
332.99087
333.06128
333.06072
333.0595
333.05767
333.05522
333.05214
333.0484
333.04393
333.03854
333.03193
333.02342
333.01142
332.99009
333.06051
333.05995
333.05873
333.0569
333.05445
333.05137
333.04763
333.04315
333.03777
333.03115
333.02264
333.01065
332.98931
333.05975
333.05919
333.05797
333.05613
333.05368
333.0506
333.04686
333.04238
333.037
333.03038
333.02187
333.00987
332.98852
333.05898
333.05842
333.0572
333.05536
333.05291
333.04983
333.04609
333.04161
333.03622
333.0296
333.02109
333.00909
332.98774
333.05821
333.05765
333.05643
333.05459
333.05214
333.04906
333.04532
333.04084
333.03545
333.02883
333.02032
333.00831
332.98695
333.05744
333.05688
333.05566
333.05382
333.05137
333.04829
333.04455
333.04007
333.03468
333.02806
333.01954
333.00753
332.98617
333.05667
333.05611
333.05489
333.05305
333.0506
333.04752
333.04378
333.03929
333.0339
333.02728
333.01876
333.00675
332.98538
333.0559
333.05534
333.05412
333.05228
333.04983
333.04675
333.043
333.03852
333.03313
333.0265
333.01798
333.00597
332.9846
333.05513
333.05457
333.05335
333.05151
333.04906
333.04597
333.04223
333.03774
333.03235
333.02573
333.0172
333.00519
332.98381
333.05436
333.0538
333.05258
333.05074
333.04828
333.0452
333.04146
333.03697
333.03158
333.02495
333.01643
333.00441
332.98302
333.05359
333.05303
333.05181
333.04997
333.04751
333.04443
333.04068
333.0362
333.0308
333.02417
333.01565
333.00362
332.98223
333.05282
333.05226
333.05104
333.04919
333.04674
333.04365
333.03991
333.03542
333.03002
333.0234
333.01487
333.00284
332.98144
333.05205
333.05148
333.05026
333.04842
333.04596
333.04288
333.03913
333.03464
333.02925
333.02262
333.01409
333.00206
332.98065
333.05127
333.05071
333.04949
333.04765
333.04519
333.0421
333.03836
333.03387
333.02847
333.02184
333.01331
333.00127
332.97986
333.0505
333.04994
333.04871
333.04687
333.04441
333.04133
333.03758
333.03309
333.02769
333.02106
333.01252
333.00049
332.97907
333.04972
333.04916
333.04794
333.0461
333.04364
333.04055
333.0368
333.03231
333.02691
333.02028
333.01174
332.9997
332.97827
333.04895
333.04839
333.04716
333.04532
333.04286
333.03978
333.03603
333.03154
333.02613
333.0195
333.01096
332.99892
332.97748
333.04817
333.04761
333.04639
333.04454
333.04209
333.039
333.03525
333.03076
333.02535
333.01872
333.01018
332.99813
332.97669
333.0474
333.04683
333.04561
333.04377
333.04131
333.03822
333.03447
333.02998
333.02457
333.01794
333.00939
332.99734
332.97589
333.04662
333.04606
333.04484
333.04299
333.04053
333.03744
333.03369
333.0292
333.02379
333.01715
333.00861
332.99655
332.97509
333.04584
333.04528
333.04406
333.04221
333.03975
333.03666
333.03291
333.02842
333.02301
333.01637
333.00782
332.99576
332.9743
333.04507
333.0445
333.04328
333.04144
333.03897
333.03589
333.03213
333.02764
333.02223
333.01559
333.00704
332.99497
332.9735
333.04429
333.04373
333.0425
333.04066
333.0382
333.03511
333.03135
333.02686
333.02145
333.0148
333.00625
332.99418
332.9727
333.04351
333.04295
333.04172
333.03988
333.03742
333.03433
333.03057
333.02608
333.02067
333.01402
333.00546
332.99339
332.9719
333.04273
333.04217
333.04094
333.0391
333.03664
333.03355
333.02979
333.02529
333.01988
333.01323
333.00467
332.9926
332.97109
333.04195
333.04139
333.04016
333.03832
333.03586
333.03277
333.02901
333.02451
333.0191
333.01245
333.00388
332.9918
332.97029
333.04117
333.04061
333.03938
333.03754
333.03508
333.03198
333.02823
333.02373
333.01831
333.01166
333.0031
332.99101
332.96949
333.04039
333.03983
333.0386
333.03676
333.03429
333.0312
333.02745
333.02294
333.01753
333.01087
333.0023
332.99021
332.96868
333.03961
333.03905
333.03782
333.03598
333.03351
333.03042
333.02666
333.02216
333.01674
333.01008
333.00151
332.98942
332.96787
333.03883
333.03826
333.03704
333.03519
333.03273
333.02964
333.02588
333.02137
333.01596
333.0093
333.00072
332.98862
332.96706
333.03805
333.03748
333.03626
333.03441
333.03195
333.02885
333.02509
333.02059
333.01517
333.00851
332.99993
332.98782
332.96625
333.03726
333.0367
333.03548
333.03363
333.03116
333.02807
333.02431
333.0198
333.01438
333.00772
332.99913
332.98702
332.96544
333.03648
333.03592
333.03469
333.03285
333.03038
333.02728
333.02352
333.01902
333.01359
333.00692
332.99834
332.98622
332.96462
333.0357
333.03513
333.03391
333.03206
333.0296
333.0265
333.02274
333.01823
333.0128
333.00613
332.99754
332.98541
332.9638
333.03491
333.03435
333.03313
333.03128
333.02881
333.02571
333.02195
333.01744
333.01201
333.00534
332.99674
332.98461
332.96298
333.03413
333.03357
333.03234
333.03049
333.02803
333.02493
333.02116
333.01665
333.01122
333.00454
332.99594
332.9838
332.96216
333.03334
333.03278
333.03156
333.02971
333.02724
333.02414
333.02038
333.01586
333.01043
333.00375
332.99515
332.98299
332.96133
333.03256
333.032
333.03077
333.02892
333.02645
333.02335
333.01959
333.01507
333.00964
333.00295
332.99434
332.98218
332.9605
333.03177
333.03121
333.02998
333.02813
333.02567
333.02257
333.0188
333.01428
333.00884
333.00216
332.99354
332.98137
332.95967
333.03099
333.03042
333.0292
333.02735
333.02488
333.02178
333.01801
333.01349
333.00805
333.00136
332.99274
332.98056
332.95884
333.0302
333.02964
333.02841
333.02656
333.02409
333.02099
333.01722
333.01269
333.00725
333.00056
332.99193
332.97974
332.958
333.02941
333.02885
333.02762
333.02577
333.0233
333.0202
333.01642
333.0119
333.00645
332.99976
332.99112
332.97892
332.95715
333.02863
333.02806
333.02683
333.02498
333.02251
333.01941
333.01563
333.01111
333.00566
332.99895
332.99031
332.9781
332.95631
333.02784
333.02727
333.02605
333.02419
333.02172
333.01861
333.01484
333.01031
333.00486
332.99815
332.9895
332.97728
332.95545
333.02705
333.02649
333.02526
333.0234
333.02093
333.01782
333.01404
333.00951
333.00406
332.99734
332.98869
332.97645
332.95459
333.02626
333.0257
333.02447
333.02261
333.02014
333.01703
333.01325
333.00872
333.00326
332.99654
332.98787
332.97562
332.95373
333.02547
333.02491
333.02368
333.02182
333.01935
333.01623
333.01245
333.00792
333.00245
332.99573
332.98706
332.97478
332.95285
333.02468
333.02411
333.02289
333.02103
333.01855
333.01544
333.01166
333.00712
333.00165
332.99492
332.98623
332.97394
332.95197
333.02389
333.02332
333.02209
333.02024
333.01776
333.01464
333.01086
333.00631
333.00084
332.9941
332.98541
332.9731
332.95107
333.0231
333.02253
333.0213
333.01944
333.01696
333.01385
333.01006
333.00551
333.00003
332.99329
332.98458
332.97225
332.95017
333.0223
333.02174
333.02051
333.01865
333.01617
333.01305
333.00926
333.00471
332.99922
332.99247
332.98375
332.97139
332.94924
333.02151
333.02095
333.01971
333.01785
333.01537
333.01225
333.00846
333.0039
332.99841
332.99165
332.98291
332.97052
332.9483
333.02072
333.02015
333.01892
333.01706
333.01457
333.01145
333.00765
333.00309
332.9976
332.99082
332.98207
332.96964
332.94733
333.01992
333.01936
333.01812
333.01626
333.01377
333.01065
333.00685
333.00228
332.99678
332.98999
332.98122
332.96875
332.94631
333.01913
333.01856
333.01733
333.01547
333.01298
333.00985
333.00604
333.00147
332.99596
332.98916
332.98035
332.96783
332.94521
)
;

boundaryField
{
    water_inlet
    {
        type            fixedValue;
        value           uniform 333.15;
    }
    water_outlet
    {
        type            zeroGradient;
    }
    water_wedge1
    {
        type            wedge;
    }
    water_wedge2
    {
        type            wedge;
    }
    water_to_rock
    {
        type            compressible::turbulentTemperatureRadCoupledMixed;
        refValue        nonuniform List<scalar> 
200
(
315.29142
318.84879
320.5953
321.63257
322.33317
322.8469
323.24443
323.56371
323.82722
324.04926
324.23939
324.40432
324.54884
324.67653
324.79011
324.8917
324.98299
325.06535
325.1399
325.20757
325.26916
325.32532
325.37662
325.42356
325.46656
325.50598
325.54215
325.57536
325.60586
325.63387
325.65961
325.68324
325.70494
325.72484
325.7431
325.75983
325.77514
325.78914
325.80192
325.81357
325.82417
325.8338
325.84253
325.85041
325.85751
325.86389
325.8696
325.87468
325.87918
325.88314
325.8866
325.8896
325.89216
325.89433
325.89612
325.89757
325.8987
325.89954
325.9001
325.9004
325.90047
325.90032
325.89997
325.89943
325.89872
325.89784
325.89682
325.89565
325.89436
325.89295
325.89142
325.8898
325.88808
325.88628
325.88439
325.88243
325.8804
325.87831
325.87616
325.87396
325.8717
325.86941
325.86707
325.86469
325.86228
325.85983
325.85736
325.85486
325.85233
325.84978
325.84721
325.84462
325.84201
325.83938
325.83674
325.83408
325.83142
325.82873
325.82604
325.82334
325.82062
325.8179
325.81517
325.81243
325.80968
325.80692
325.80416
325.80139
325.79862
325.79583
325.79305
325.79025
325.78745
325.78465
325.78184
325.77903
325.77621
325.77338
325.77055
325.76772
325.76488
325.76204
325.75919
325.75634
325.75348
325.75062
325.74775
325.74488
325.742
325.73911
325.73622
325.73333
325.73042
325.72752
325.7246
325.72167
325.71874
325.7158
325.71284
325.70988
325.7069
325.70392
325.70091
325.69789
325.69486
325.6918
325.68873
325.68563
325.68251
325.67936
325.67618
325.67296
325.66971
325.66643
325.66309
325.65971
325.65628
325.65279
325.64923
325.64561
325.64191
325.63813
325.63426
325.63028
325.6262
325.622
325.61768
325.61321
325.60858
325.60378
325.5988
325.59362
325.58822
325.58257
325.57665
325.57045
325.56392
325.55704
325.54976
325.54206
325.53389
325.52518
325.51588
325.50593
325.49524
325.48372
325.47125
325.45769
325.44289
325.42663
325.40865
325.38861
325.36605
325.34033
325.31052
325.27513
325.23164
325.17505
325.09384
324.95565
)
;
        refGradient     uniform 0;
        valueFraction   nonuniform List<scalar> 
200
(
0.021313587
0.018349032
0.017286587
0.016999676
0.017072311
0.017312679
0.017619574
0.017934173
0.018220835
0.018459614
0.01864309
0.018773723
0.018860286
0.018913928
0.018945118
0.018962099
0.018970608
0.018974281
0.018975235
0.018974594
0.018972889
0.01897032
0.018966927
0.018962686
0.018957559
0.018951519
0.01894456
0.018936694
0.018927949
0.018918366
0.018907994
0.018896903
0.018885173
0.018872882
0.018860098
0.018846868
0.018833224
0.018819204
0.018804843
0.018790181
0.018775253
0.018760098
0.018744752
0.018729251
0.018713631
0.018697926
0.01868217
0.018666398
0.018650642
0.018634938
0.018619319
0.018603823
0.018588486
0.018573349
0.018558455
0.018543848
0.018529578
0.018515694
0.018502248
0.018489294
0.018476883
0.018465064
0.018453885
0.018443386
0.018433604
0.018424565
0.018416289
0.018408788
0.018402063
0.018396108
0.018390908
0.018386444
0.018382686
0.018379602
0.018377154
0.018375302
0.018374003
0.018373213
0.018372887
0.018372981
0.018373451
0.018374254
0.018375351