/*--------------------------------*- C++ -*----------------------------------*\
| =========                 |                                                 |
| \\      /  F ield         | OpenFOAM: The Open Source CFD Toolbox           |
|  \\    /   O peration     | Version:  2506                                  |
|   \\  /    A nd           | Website:  www.openfoam.com                      |
|    \\/     M anipulation  |                                                 |
\*---------------------------------------------------------------------------*/
FoamFile
{
    version     2.0;
    format      ascii;
    arch        "LSB;label=32;scalar=64";
    class       volScalarField;
    location    "5000/rock";
    object      T;
}
// * * * * * * * * * * * * * * * * * * * * * * * * * * * * * * * * * * * * * //

dimensions      [0 0 0 1 0 0 0];

internalField   nonuniform List<scalar> 
16000
(
317.67783
306.84043
300.97138
297.30781
294.81455
293.01647
291.66443
290.61507
289.78011
289.10223
288.54264
288.07423
287.67745
287.3379
287.04476
286.78974
286.56637
286.36958
286.1953
286.04025
285.90176
285.77764
285.66604
285.56545
285.47458
285.39234
285.31779
285.25014
285.18867
285.1328
285.08197
285.03571
284.99359
284.95519
284.92013
284.88801
284.85842
284.83086
284.80465
284.7787
320.35202
309.54483
303.27561
299.24555
296.46223
294.43795
292.90762
291.71552
290.76445
289.99076
289.3511
288.815
288.36044
287.97113
287.63481
287.34204
287.0855
286.85938
286.65906
286.4808
286.32153
286.17874
286.05034
285.93458
285.83
285.73533
285.64951
285.57161
285.50084
285.43651
285.37798
285.32472
285.27623
285.23203
285.1917
285.15478
285.12082
285.08929
285.05952
285.03061
321.87617
311.53151
305.17153
300.93891
297.95426
295.75484
294.07743
292.76264
291.70892
290.84876
290.13571
289.53681
289.02813
288.59184
288.21449
287.88568
287.59731
287.34295
287.11747
286.9167
286.73725
286.57629
286.43151
286.30094
286.18294
286.0761
285.97923
285.89129
285.81139
285.73874
285.67266
285.61253
285.55779
285.50793
285.46246
285.4209
285.38276
285.34752
285.31456
285.28319
322.84914
313.02076
306.72618
302.40589
299.29327
296.96511
295.17064
293.7532
292.6106
291.67371
290.89431
290.23785
289.67897
289.19873
288.78269
288.41969
288.10097
287.81956
287.56989
287.34742
287.14844
286.96987
286.80916
286.66418
286.53309
286.41437
286.3067
286.20893
286.12009
286.03931
285.96583
285.89897
285.83812
285.78273
285.73227
285.68622
285.6441
285.60538
285.56951
285.53595
323.52983
314.17047
308.00942
303.67442
300.48941
298.07156
296.18708
294.68589
293.46784
292.46395
291.62537
290.91671
290.31174
289.79071
289.33847
288.94325
288.59575
288.28857
288.01576
287.77245
287.55466
287.35907
287.18295
287.02397
286.88017
286.74988
286.63168
286.52433
286.42675
286.33802
286.25731
286.18388
286.11708
286.0563
286.00099
285.95062
285.90468
285.86267
285.8241
285.78851
324.03982
315.08494
309.08078
304.77429
301.55659
299.0802
297.12893
295.56105
294.28014
293.2186
292.32789
291.5724
290.92549
290.36692
289.88104
289.45564
289.08102
288.74942
288.45457
288.19133
287.95549
287.74354
287.55254
287.38002
287.2239
287.08239
286.95395
286.83726
286.73118
286.6347
286.54694
286.4671
286.3945
286.32849
286.26848
286.21394
286.16434
286.11921
286.07808
286.04057
324.44138
315.83209
309.98709
305.73305
302.50985
299.99879
297.99993
296.38027
295.04791
293.93747
293.00138
292.20431
291.51957
290.9267
290.40979
289.9563
289.55626
289.20163
288.88588
288.60367
288.35058
288.12293
287.91762
287.73206
287.56403
287.41164
287.27328
287.14754
287.03319
286.92917
286.83455
286.74849
286.67024
286.59915
286.5346
286.47602
286.42291
286.37479
286.33123
286.29187
324.76922
316.45668
310.76396
306.57446
303.36373
300.83582
298.80479
297.14599
295.7723
294.62097
293.64582
292.81216
292.09358
291.46961
290.92424
290.44477
290.02102
289.64478
289.30932
289.00912
288.7396
288.49694
288.27792
288.07981
287.90032
287.73744
287.58948
287.45496
287.33259
287.22127
287.11998
287.02787
286.94416
286.86814
286.79919
286.73672
286.68023
286.62924
286.58334
286.54219
325.04419
316.98894
311.43815
307.31828
304.13151
301.5997
299.54867
297.86127
296.455
295.26994
294.26153
293.396
292.64738
291.9954
291.4241
290.92072
290.47498
290.07854
289.72455
289.40736
289.12226
288.86531
288.63318
288.42306
288.23255
288.05956
287.90235
287.75935
287.62923
287.51082
287.40309
287.30512
287.2161
287.13531
287.0621
286.99588
286.93613
286.88238
286.83423
286.79133
325.27965
317.44981
312.02986
307.98065
304.82487
302.29843
300.23681
298.5294
297.09804
295.88557
294.84916
293.95609
293.18101
292.50398
291.90919
291.38392
290.91788
290.50266
290.13133
289.79815
289.49832
289.22781
288.9832
288.7616
288.56052
288.37784
288.21171
288.06054
287.92294
287.79769
287.68372
287.58008
287.48593
287.40053
287.3232
287.25336
287.19046
287.13404
287.0837
287.03911
325.48461
317.85425
312.55442
308.57463
305.45391
302.93931
300.87429
299.15384
297.70368
296.46929
295.40956
294.49291
293.69469
292.9954
292.37945
291.83425
291.34956
290.91695
290.52946
290.18129
289.86758
289.58424
289.32777
289.09523
288.88406
288.69209
288.51741
288.35838
288.21357
288.08173
287.96173
287.85262
287.75351
287.66365
287.58235
287.509
287.44306
287.38406
287.3316
287.28534
325.66542
318.2132
313.02361
309.11079
306.02719
303.52889
301.46589
299.73795
298.27425
297.02266
295.94376
295.00711
294.18881
293.46985
292.83495
292.27169
291.76993
291.32128
290.91878
290.55661
290.22987
289.93442
289.66674
289.4238
289.20302
289.00216
288.81929
288.65272
288.50099
288.36279
288.23699
288.1226
288.01871
287.92455
287.83941
287.76267
287.69379
287.6323
287.57777
287.52989
325.82669
318.53483
313.44659
309.59773
306.552
304.07296
302.01602
300.28501
298.81208
297.54732
296.45289
295.49943
294.66384
293.92761
293.27582
292.69628
292.17898
291.71559
291.29921
290.924
290.58507
290.27824
289.99995
289.74716
289.51724
289.30792
289.11722
288.94344
288.78506
288.64076
288.50938
288.3899
288.2814
288.18309
288.09425
288.01424
287.94252
287.87861
287.82208
287.7726
325.97188
318.82542
313.83058
310.04244
307.0345
304.57659
302.52869
300.79806
299.31947
298.04496
296.93813
295.97072
295.12034
294.36906
293.7023
293.10815
292.57674
292.09988
291.67069
291.28339
290.93307
290.61557
290.3273
290.0652
289.82661
289.60924
289.41109
289.2304
289.06566
288.91551
288.77877
288.6544
288.54147
288.43916
288.34675
288.26359
288.18912
288.12286
288.06438
288.01334
326.10366
319.08984
314.18134
310.45066
307.47988
305.04422
303.00752
301.27997
299.79861
298.51722
297.40072
296.42184
295.55894
294.79461
294.11467
293.50746
292.96332
292.47416
292.03321
291.63473
291.27382
290.94634
290.6487
290.37782
290.13104
289.90603
289.70077
289.51351
289.34269
289.18694
289.04507
288.916
288.79881
288.69266
288.5968
288.5106
288.43348
288.36494
288.30456
288.25198
326.22408
319.33197
314.50351
310.82713
307.89256
305.47971
303.45573
301.73335
300.25157
298.9657
297.84187
296.85373
295.98032
295.20476
294.51326
293.89445
293.33885
292.83853
292.38681
291.97801
291.60729
291.2705
290.96408
290.68495
290.43042
290.19818
289.98619
289.79267
289.61605
289.45495
289.30816
289.1746
289.05331
288.94346
288.84429
288.75515
288.67547
288.60473
288.5425
288.48842
326.3348
319.5549
314.80088
311.17579
308.27628
305.88641
303.87621
302.1606
300.68028
299.39194
298.26279
297.26729
296.38516
295.60002
294.89845
294.26937
293.70351
293.19309
292.73154
292.31326
291.93346
291.58802
291.2734
290.98652
290.72471
290.48564
290.26726
290.06779
289.88565
289.71945
289.56796
289.43009
289.30488
289.19148
289.08912
288.99716
288.91499
288.84211
288.77809
288.72253
326.43715
319.76116
315.07657
311.49995
308.63426
306.26726
304.27153
302.56389
301.08655
299.7974
298.66462
297.66343
296.77417
295.98093
295.27064
294.63252
294.0575
293.53799
293.0675
292.64053
292.25235
291.89889
291.57662
291.28249
291.01384
290.76832
290.54391
290.33881
290.15142
289.98036
289.82438
289.68239
289.55343
289.43662
289.33121
289.23651
289.15195
289.07701
289.01123
288.95423
326.53221
319.95282
315.33318
311.80239
308.96923
306.62481
304.64395
302.94518
301.47203
300.18345
299.04848
298.04306
297.14806
296.34802
295.63025
294.98421
294.40107
293.87338
293.39479
292.95988
292.564
292.20312
291.87374
291.57284
291.29777
291.0462
290.81609
290.60565
290.41329
290.2376
290.07735
289.93144
289.79888
289.6788
289.57045
289.47314
289.38627
289.30932
289.24183
289.18342
326.62087
320.13162
315.57289
312.08548
309.28356
306.96128
304.99551
303.30626
301.83825
300.55138
299.41544
298.40702
297.50751
296.70186
295.97771
295.32478
294.73446
294.19946
293.71355
293.27142
292.86847
292.50074
292.16477
291.85757
291.57649
291.31923
291.08375
290.86827
290.6712
290.49112
290.32681
290.17714
290.04115
289.91795
289.80678
289.70694
289.61785
289.53895
289.46981
289.41002
326.70387
320.299
315.79753
312.35124
309.57928
307.27863
305.328
303.64874
302.18661
300.90237
299.7665
298.75616
297.85321
297.04299
296.31345
295.65457
295.05794
294.51642
294.02393
293.57523
293.16582
292.79179
292.44973
292.13666
291.84998
291.58738
291.34687
291.12663
290.9251
290.74087
290.57269
290.41946
290.28018
290.154
290.04012
289.93786
289.84662
289.76585
289.69509
289.63394
326.78183
320.45617
316.00867
312.60139
309.85817
307.57858
305.64302
303.97406
302.51839
301.23753
300.1026
299.09125
298.18581
297.37194
296.63791
295.97393
295.37178
294.82449
294.32609
293.87146
293.45616
293.07634
292.72865
292.41014
292.11823
291.85066
291.6054
291.3807
291.17496
290.98679
290.81494
290.65832
290.51592
290.38688
290.27041
290.16583
290.07251
289.98993
289.9176
289.85513
326.85527
320.60419
316.20766
312.83745
310.12177
307.86264
305.942
304.28352
302.83476
301.55789
300.42461
299.41306
298.50593
297.68925
296.95152
296.28321
295.67627
295.12388
294.62021
294.16022
293.73956
293.35445
293.00157
292.67803
292.38127
292.10904
291.85936
291.63044
291.42074
291.22885
291.05353
290.89368
290.74831
290.61654
290.49759
290.39077
290.29547
290.21113
290.13728
290.07351
326.92464
320.74393
316.39564
313.06069
310.37144
308.13215
306.22622
304.57832
303.13678
301.8644
300.73338
299.7223
298.8142
297.99541
297.25471
296.58275
295.97168
295.41483
294.90646
294.44166
294.01615
293.6262
293.26857
292.94038
292.63911
292.36255
292.10871
291.87586
291.66242
291.46702
291.28841
291.1255
290.9773
290.84293
290.72162
290.61265
290.51543
290.42939
290.35406
290.28903
326.9903
320.87617
316.57363
313.27227
310.60836
308.3883
306.49681
304.85951
303.42542
302.15792
301.02968
300.01963
299.11118
298.29093
297.54788
296.87291
296.25831
295.69756
295.18504
294.71593
294.28604
293.89169
293.52969
293.19722
292.89178
292.61119
292.35348
292.11693
291.89998
291.70127
291.51956
291.35375
291.20286
291.06602
290.94244
290.83142
290.73235
290.64467
290.56791
290.50163
327.05261
321.00158
316.7425
313.47318
310.83359
308.63215
306.75481
305.12806
303.70159
302.43928
301.31421
300.3057
299.39743
298.57627
297.83145
297.15401
296.53643
295.97231
295.45614
294.98319
294.54934
294.151
293.78502
293.4486
293.13932
292.85498
292.59367
292.35366
292.13343
291.9316
291.74695
291.5784
291.42496
291.28576
291.16001
291.04703
290.94618
290.85692
290.77876
290.71128
327.11182
321.12073
316.90301
313.66429
311.04806
308.86462
307.00112
305.38485
303.96609
302.7092
301.58765
300.58108
299.67346
298.85188
298.10579
297.4264
296.80633
296.23931
295.71994
295.24359
294.8062
294.40425
294.03462
293.6946
293.38176
293.09396
292.82929
292.58606
292.36274
292.15798
291.97057
291.79943
291.64357
291.50212
291.37431
291.25944
291.15689
291.0661
290.98659
290.91792
327.1682
321.23414
317.05584
313.84638
311.25259
309.08657
307.23658
305.63067
304.21966
302.96837
301.85062
300.84634
299.93976
299.1182
298.37128
297.69039
297.06828
296.49879
295.97665
295.49729
295.05674
294.65152
294.2786
293.93527
293.61917
293.32816
293.06038
292.81414
292.58793
292.38043
292.19041
292.01681
291.85866
291.71508
291.58531
291.46864
291.36445
291.27218
291.19136
291.12153
327.22197
321.34226
317.20159
314.02014
311.44791
309.29875
307.46193
305.86623
304.46299
303.21743
302.10369
301.102
300.19681
299.37564
298.62828
297.94629
297.32254
296.75099
296.22645
295.74445
295.30109
294.89295
294.51703
294.17069
293.85159
293.55763
293.28695
293.03791
292.80901
292.59893
292.40647
292.23056
292.07023
291.92463
291.79298
291.67458
291.56882
291.47513
291.39303
291.32208
327.27331
321.4455
317.34078
314.18617
311.6347
309.50183
307.67785
306.0922
304.6967
303.45695
302.34741
301.34855
300.44503
299.62458
298.87714
298.19441
297.56938
296.99612
296.46955
295.98524
295.53939
295.12863
294.75001
294.40093
294.07908
293.78239
293.50905
293.25741
293.026
292.8135
292.61874
292.44064
292.27827
292.13074
291.99731
291.87726
291.76999
291.67493
291.5916
291.51954
327.32241
321.54419
317.4739
314.34504
311.81354
309.69644
307.88496
306.30917
304.92136
303.68748
302.58227
301.58644
300.68485
299.8654
299.11818
298.43503
297.80905
297.23441
296.70611
296.21982
295.77178
295.35868
294.97763
294.62606
294.3017
294.00252
293.72671
293.47265
293.2389
293.02415
292.82722
292.64708
292.48276
292.33342
292.19828
292.07666
291.96794
291.87156
291.78702
291.71389
327.36942
321.63867
317.60137
314.49722
311.98497
309.88312
308.0838
306.51768
305.1375
303.90951
302.80874
301.8161
300.91665
300.09844
299.35172
298.66843
298.0418
297.46607
296.93634
296.44835
295.99839
295.58322
295.19999
294.84617
294.51953
294.21805
293.93997
293.68368
293.44775
293.23089
293.03194
292.84986
292.68371
292.53264
292.39589
292.27277
292.16265
292.065
291.9793
291.90512
327.41447
321.72923
317.72356
314.64318
312.14947
310.06237
308.27489
306.71825
305.3456
304.12351
303.02724
302.03792
301.14079
300.32404
299.57806
298.89488
298.26785
297.69131
297.16042
296.67098
296.21937
295.80237
295.4172
295.06135
294.73262
294.42905
294.14888
293.89052
293.65257
293.43374
293.2329
293.04901
292.88113
292.72842
292.59013
292.46557
292.35413
292.25524
292.16842
292.09322
327.4577
321.81611
317.84083
314.7833
312.30748
310.23467
308.45869
306.91132
305.5461
304.32989
303.23818
302.25229
301.35763
300.54252
299.79747
299.11464
298.48745
297.91034
297.37852
296.88788
296.43484
296.01624
295.62934
295.27167
294.94106
294.63558
294.35349
294.09322
293.85339
293.63274
293.43012
293.24452
293.07501
292.92076
292.78101
292.65508
292.54236
292.44229
292.35438
292.27817
327.49922
321.89955
317.95349
314.91795
312.45939
310.40041
308.63562
307.09732
305.73941
304.52904
303.44192
302.45955
301.56748
300.75417
300.01024
299.32795
298.70081
298.12333
297.59081
297.09919
296.64494
296.22495
295.83652
295.47722
295.14492
294.8377
294.55384
294.29182
294.05026
293.8279
293.62362
293.43643
293.26538
293.10967
292.96853
292.84129
292.72735
292.62614
292.53716
292.45999
327.53914
321.97977
318.06181
315.04747
312.60557
310.55998
308.80606
307.27663
305.92592
304.72135
303.63883
302.66003
301.77065
300.95927
300.21662
299.53504
298.90814
298.3305
297.79747
297.30507
296.8498
296.42862
296.03884
295.6781
295.34427
295.03546
294.75
294.48637
294.24319
294.01925
293.81344
293.62474
293.45225
293.29515
293.15269
293.02421
292.90909
292.80678
292.71678
292.63866
327.57755
322.05696
318.16605
315.17215
312.74635
310.71373
308.97039
307.44961
306.10597
304.90713
303.82921
302.85403
301.96742
301.15809
300.41685
299.73614
299.10965
298.53201
297.99867
297.50566
297.04955
296.62735
296.23641
295.87438
295.53918
295.22895
294.94202
294.6769
294.43225
294.20684
293.99958
293.80948
293.63563
293.47722
293.33352
293.20384
293.0876
292.98423
292.89324
292.81419
327.61453
322.13129
318.26645
315.29227
312.88202
310.86197
309.12892
307.61659
306.27989
305.08672
304.01338
303.04185
302.15808
301.35088
300.61117
299.93147
299.30553
298.72806
298.19455
297.7011
297.24433
296.82127
296.42932
296.06616
295.72973
295.41822
295.12996
294.86348
294.61746
294.39069
294.18209
293.99067
293.81554
293.6559
293.51101
293.38021
293.26288
293.15849
293.06654
292.98659
327.65018
322.20293
318.36323
315.40808
313.01288
311.00501
309.28195
307.77787
306.44797
305.26039
304.19161
303.22374
302.34286
301.53787
300.79979
300.12122
299.49596
298.9188
298.38527
297.89154
297.43425
297.01048
296.61766
296.25352
295.91601
295.60333
295.31387
295.04615
294.79888
294.57085
294.361
294.16835
293.99202
293.83121
293.6852
293.55331
293.43496
293.32959
293.2367
293.15586
327.68455
322.27201
318.45658
315.51982
313.13917
311.14311
309.42976
307.93373
306.6105
305.42844
304.36417
303.39997
302.52202
301.71931
300.98294
300.30559
299.68113
299.1044
298.57099
298.0771
297.61943
297.1951
296.80155
296.43655
296.09808
295.78437
295.49382
295.22497
294.97654
294.74735
294.53634
294.34254
294.16509
294.00318
293.85609
293.72318
293.60383
293.49752
293.40373
293.32203
327.71772
322.33868
318.54668
315.62768
313.26112
311.27652
309.57262
308.08443
306.76774
305.5911
304.53131
303.57077
302.69577
301.89539
301.16081
300.48477
299.86121
299.28503
298.75185
298.25793
297.8
297.37522
296.98107
296.61533
296.27603
295.9614
295.66986
295.39999
295.1505
294.92024
294.70815
294.51328
294.33476
294.17182
294.02372
293.88983
293.76953
293.66231
293.56765
293.48511
327.74975
322.40307
318.6337
315.73189
313.37896
311.40547
309.71076
308.23022
306.91993
305.74862
304.69326
303.73637
302.86433
302.06631
301.33358
300.65893
300.03636
299.46082
298.92799
298.43415
297.97608
297.55096
297.15632
296.78996
296.44993
296.13449
295.84206
295.57126
295.3208
295.08955
294.87646
294.6806
294.50109
294.33716
294.18811
294.05328
293.93208
293.82397
293.72847
293.64511
327.7807
322.46528
318.71779
315.8326
313.49289
311.53017
309.8444
308.37133
307.06729
305.90122
304.85024
303.89697
303.0279
302.23228
301.50144
300.82825
300.20675
299.63194
299.09954
298.60588
298.14777
297.72243
297.3274
296.96052
296.61986
296.3037
296.01049
295.73884
295.4875
295.25534
295.04133
294.84453
294.66409
294.49925
294.34928
294.21356
294.09149
293.98254
293.88621
293.80206
327.81062
322.52542
318.7991
315.93
313.60309
311.65083
309.97374
308.50795
307.21003
306.04911
305.00245
304.05277
303.18667
302.39347
301.66457
300.99288
300.37252
299.79851
299.26663
298.77324
298.31519
297.88971
297.4944
297.12709
296.7859
296.46911
296.1752
295.90279
295.65065
295.41766
295.20279
295.00512
294.82381
294.65809
294.50727
294.3707
294.24779
294.13803
294.0409
293.95598
327.83956
322.5836
318.87775
316.02423
313.70973
311.76763
310.09899
308.64029
307.34836
306.19249
305.15008
304.20397
303.34082
302.55006
301.82312
301.15298
300.53381
299.96068
299.42939
298.93635
298.47844
298.05292
297.6574
297.28976
296.94812
296.63078
296.33625
296.06317
295.8103
295.57654
295.36087
295.1624
294.98027
294.81374
294.6621
294.52472
294.40102
294.29046
294.19257
294.10689
327.86757
322.6399
318.95387
316.11544
313.81298
311.88074
310.22032
308.76853
307.48245
306.33153
305.29331
304.35072
303.49052
302.7022
301.97725
301.30871
300.69077
300.11857
299.58795
299.09533
298.63763
298.21215
297.8165
297.44861
297.10659
296.78879
296.49372
296.22002
295.96649
295.73203
295.51564
295.31642
295.13353
294.96622
294.81381
294.67566
294.55119
294.43988
294.34124
294.25482
327.89468
322.6944
319.02757
316.20377
313.91298
311.99032
310.33789
308.89285
307.61248
306.46642
305.43231
304.49321
303.63594
302.85005
302.1271
301.46018
300.84354
300.27232
299.74242
299.25028
298.79287
298.36748
297.97179
297.60371
297.2614
296.94321
296.64766
296.37342
296.11929
295.88419
295.66713
295.46721
295.2836
295.11557
294.96242
294.82354
294.69834
294.5863
294.48694
294.3998
327.92094
322.74719
319.09897
316.28934
314.00987
312.09652
310.45186
309.01339
307.73861
306.59731
305.56725
304.63159
303.77722
302.99376
302.27283
301.60756
300.99223
300.42204
299.8929
299.40132
298.94424
298.51903
298.12335
297.75515
297.41261
297.09409
296.79813
296.52341
296.26875
296.03307
295.81539
295.61482
295.43054
295.26183
295.10799
294.9684
294.8425
294.72976
294.62969
294.54186
327.94639
322.79834
319.16815
316.37227
314.10379
312.19947
310.56239
309.13032
307.86099
306.72435
305.69827
304.766
303.91451
303.13347
302.41456
301.75095
301.13697
300.56784
300.03952
299.54853
299.09185
298.66687
298.27127
297.90301
297.5603
297.24151
296.9452
296.67006
296.41492
296.17871
295.96046
295.75929
295.57439
295.40503
295.25053
295.11028
294.9837
294.87028
294.76954
294.68103
327.97105
322.84792
319.23521
316.45267
314.19486
312.29932
310.6696
309.24377
307.97977
306.84769
305.82552
304.89659
304.04794
303.26931
302.55242
301.89049
301.27788
300.70985
300.18238
299.69203
299.2358
298.81109
298.41562
298.04736
297.70454
297.38554
297.08893
296.81342
296.55785
296.32116
296.10239
295.90066
295.71518
295.54522
295.3901
295.24921
295.12199
295.00791
294.90651
294.81733
327.99496
322.89599
319.30023
316.53064
314.28318
312.39619
310.77363
309.35389
308.09508
306.96747
305.94914
305.02349
304.17765
303.40141
302.68654
302.02629
301.41507
300.84816
300.32158
299.83191
299.37617
298.95178
298.55649
298.18829
297.8454
297.52624
297.22938
296.95356
296.69761
296.46048
296.24123
296.03899
295.85296
295.68243
295.52672
295.38522
295.25738
295.14268
295.04063
294.95081
328.01815
322.94262
319.36331
316.60627
314.36888
312.49018
310.87459
309.46078
308.20706
307.08381
306.06924
305.14683
304.30377
303.5299
302.81703
302.15847
301.54865
300.98289
300.45722
299.96826
299.51304
299.08903
298.69396
298.32585
297.98294
297.66367
297.36662
297.09052
296.83423
296.59672
296.37703
296.17431
295.98778
295.8167
295.66043
295.51836
295.38992
295.27461
295.17195
295.0815
328.04065
322.98785
319.4245
316.67966
314.45204
312.58141
310.97261
309.56458
308.31582
307.19684
306.18595
305.26673
304.4264
303.65487
302.94401
302.28713
301.67872
301.11412
300.5894
300.10117
299.64652
299.22291
298.8281
298.46013
298.11725
297.7979
297.5007
297.22437
296.96779
296.72992
296.50984
296.30668
296.11967
295.94809
295.79129
295.64866
295.51966
295.40376
295.3005
295.20943
328.06249
323.03175
319.4839
316.7509
314.53277
312.66999
311.06779
309.66539
308.42147
307.30667
306.2994
305.38329
304.54566
303.77646
303.06758
302.41238
301.80538
301.24196
300.7182
300.23073
299.77668
299.3535
298.95899
298.59119
298.24838
297.929
297.63168
297.35516
297.09832
296.86014
296.63969
296.43613
296.24867
296.07662
295.91932
295.77616
295.64661
295.53015
295.4263
295.33464
328.08369
323.07437
319.54155
316.82005
314.61116
312.756
311.16024
309.76332
308.52412
307.41341
306.40968
305.49664
304.66167
303.89475
303.18784
302.53432
301.92874
301.3665
300.84371
300.35703
299.90359
299.48088
299.0867
298.71912
298.3764
298.05703
297.75963
297.48295
297.22589
296.98743
296.76665
296.56271
296.37484
296.20234
296.04456
295.90091
295.77083
295.65382
295.54941
295.45716
328.10427
323.11574
319.59753
316.88721
314.68728
312.83954
311.25004
309.85848
308.62388
307.51716
306.5169
305.60687
304.77451
304.00986
303.30489
302.65305
302.04888
301.48783
300.96603
300.48016
300.02735
299.60513
299.21131
298.84396
298.50138
298.18205
297.88459
297.6078
297.35055
297.11184
296.89076
296.68647
296.49822
296.3253
296.16707
296.02293
295.89235
295.77482
295.66986
295.57704
328.12425
323.15592
319.6519
316.95243
314.76122
312.9207
311.33729
309.95094
308.72085
307.61803
306.62116
305.71409
304.8843
304.12188
303.41883
302.76864
302.16589
301.60604
301.08523
300.60017
300.14803
299.72632
299.33288
298.9658
298.62338
298.30411
298.00664
297.72975
297.47234
297.23342
297.01207
296.80746
296.61885
296.44553
296.28687
296.14228
296.01122
295.89317
295.78768
295.69431
328.14366
323.19495
319.70472
317.01579
314.83306
312.99956
311.42209
310.04082
308.81511
307.7161
306.72255
305.81838
304.99112
304.23089
303.52975
302.88121
302.27986
301.7212
301.2014
300.71717
300.2657
299.84452
299.45149
299.0847
298.74246
298.42329
298.12583
297.84887
297.59133
297.35221
297.13062
296.92572
296.73678
296.56309
296.40402
296.25899
296.12746
296.00892
295.90292
295.80901
328.16252
323.23287
319.75603
317.07736
314.90287
313.0762
311.5045
310.12818
308.90676
307.81147
306.82117
305.91984
305.09506
304.337
303.63774
302.99082
302.39087
301.8334
301.31461
300.83122
300.38044
299.95981
299.5672
299.20071
298.85869
298.53963
298.2422
297.96521
297.70756
297.46828
297.24646
297.0413
296.85204
296.678
296.51855
296.37311
296.24113
296.12211
296.01561
295.92118
328.18085
323.26971
319.80589
317.13718
314.97071
313.15069
311.58461
310.21312
308.99587
307.90423
306.9171
306.01856
305.19621
304.44027
303.74287
303.09756
302.499
301.94272
301.42494
300.94239
300.49231
300.07224
299.68007
299.31392
298.97212
298.6532
298.35583
298.07882
297.82109
297.58166
297.35965
297.15424
296.9647
296.79033
296.63051
296.48466
296.35225
296.23278
296.12579
296.03085
328.19866
323.30551
319.85434
317.19533
315.03665
313.22309
311.6625
310.29571
309.08253
307.99444
307.01043
306.11461
305.29465
304.54081
303.84523
303.20151
302.60433
302.04924
301.53246
301.05077
300.60138
300.18189
299.79017
299.42436
299.08282
298.76406
298.46676
298.18976
297.93197
297.69242
297.47023
297.2646
297.07478
296.9001
296.73994
296.59371
296.46088
296.34097
296.23351
296.13807
328.21596
323.34031
319.90144
317.25185
315.10075
313.29349
311.73823
310.37602
309.16682
308.0822
307.10123
306.20807
305.39046
304.63867
303.9449
303.30275
302.70693
302.15302
301.63724
301.1564
300.70773
300.28882
299.89757
299.53212
299.19084
298.87225
298.57506
298.29807
298.04024
297.80059
297.57825
297.37241
297.18234
297.00737
296.84687
296.70028
296.56706
296.44672
296.33879
296.24287
328.23279
323.37414
319.94723
317.3068
315.16307
313.36194
311.81187
310.45413
309.24881
308.16757
307.18957
306.29903
305.48371
304.73395
304.04195
303.40135
302.80688
302.25413
301.73936
301.25937
300.81141
300.39309
300.00232
299.63724
299.29623
298.97784
298.68076
298.40382
298.14596
297.90623
297.68375
297.47772
297.28742
297.11217
296.95136
296.80442
296.67081
296.55006
296.44169
296.3453
328.24915
323.40703
319.99174
317.36022
315.22367
313.4285
311.88349
310.5301
309.32856
308.25063
307.27553
306.38755
305.57448
304.8267
304.13645
303.49738
302.90424
302.35265
301.83887
301.35973
300.91249
300.49477
300.10448
299.73979
299.39907
299.08088
298.78393
298.50704
298.24918
298.00938
297.78677
297.58058
297.39006
297.21455
297.05345
296.90617
296.7722
296.65104
296.54225
296.44539
328.26505
323.43901
320.03503
317.41217
315.2826
313.49324
311.95315
310.60399
309.40614
308.33144
307.35918
306.4737
305.66284
304.91701
304.22847
303.5909
302.99908
302.44864
301.93585
301.45756
301.01104
300.59391
300.20411
299.83981
299.4994
299.18143
298.88461
298.6078
298.34994
298.11009
297.88738
297.68103
297.49031
297.31456
297.15317
297.00557
296.87124
296.7497
296.64049
296.54318
328.28051
323.4701
320.07712
317.46269
315.33991
313.55619
312.0209
310.67588
309.48163
308.41007
307.44059
306.55755
305.74886
305.00494
304.31808
303.68199
303.09147
302.54216
302.03035
301.55291
301.1071
300.69058
300.30128
299.93737
299.59727
299.27953
298.98287
298.70614
298.4483
298.20841
297.98561
297.77911
297.58821
297.41223
297.25057
297.10267
296.968
296.84608
296.73646
296.63872
328.29555
323.50034
320.11805
317.51182
315.39566
313.61743
312.08681
310.74582
309.55507
308.48659
307.51981
306.63917
305.83259
305.09054
304.40534
303.77071
303.18147
302.63327
302.12244
301.64584
301.20075
300.78483
300.39602
300.03253
299.69274
299.37523
299.07874
298.8021
298.5443
298.30438
298.0815
297.87488
297.6838
297.50761
297.34569
297.19749
297.0625
296.94022
296.8302
296.73203
328.31018
323.52975
320.15786
317.55961
315.44988
313.677
312.15093
310.81386
309.62653
308.56105
307.59692
306.71861
305.91411
305.17389
304.49031
303.85712
303.26914
302.72205
302.21218
301.7364
301.29203
300.87671
300.48841
300.12532
299.78586
299.4686
299.17227
298.89575
298.63799
298.39806
298.17511
297.96837
297.77713
297.60073
297.43857
297.2901
297.15478
297.03215
296.92175
296.82317
328.3244
323.55836
320.19658
317.60609
315.50262
313.73495
312.21331
310.88006
309.69606
308.63351
307.67196
306.79594
305.99347
305.25505
304.57306
303.94127
303.35454
302.80854
302.29962
301.82467
301.381
300.96629
300.57849
300.21581
299.87668
299.55967
299.26353
298.98712
298.72941
298.48948
298.26648
298.05963
297.86824
297.69165
297.52926
297.38051
297.24489
297.12192
297.01115
296.91217
328.33824
323.58618
320.23424
317.65131
315.55392
313.79133
312.274
310.94448
309.76373
308.70403
307.745
306.87122
306.07072
305.33407
304.65364
304.02324
303.43772
302.8928
302.38482
301.91068
301.46772
301.05361
300.66631
300.30405
299.96525
299.6485
299.35255
299.07626
298.81861
298.57869
298.35564
298.14871
297.95718
297.7804
297.61779
297.46878
297.33287
297.20957
297.09844
296.99906
328.35169
323.61324
320.27088
317.69529
315.60383
313.84618
312.33305
311.00715
309.82957
308.77266
307.8161
306.94449
306.14594
305.411
304.73211
304.10306
303.51875
302.97488
302.46783
301.99451
301.55224
301.13872
300.75193
300.39009
300.05162
299.73513
299.43937
299.16321
298.90564
298.66573
298.44265
298.23563
298.04397
297.86703
297.70421
297.55495
297.41875
297.29514
297.18365
297.08389
328.36478
323.63957
320.30652
317.73808
315.65239
313.89954
312.3905
311.06814
309.89365
308.83945
307.88529
307.01582
306.21916
305.48591
304.80852
304.18081
303.59767
303.05485
302.54871
302.07618
301.63461
301.22168
300.83539
300.47397
300.13584
299.81962
299.52406
299.24803
298.99054
298.75065
298.52754
298.32045
298.12867
297.95157
297.78855
297.63905
297.50258
297.37866
297.26683
297.1667
328.37751
323.66518
320.3412
317.77971
315.69963
313.95146
312.4464
311.12749
309.956
308.90446
307.95264
307.08526
306.29045
305.55885
304.88293
304.25652
303.67455
303.13274
302.62751
302.15577
301.71488
301.30254
300.91675
300.55574
300.21795
299.902
299.60664
299.33076
299.07335
298.83349
298.61037
298.40321
298.21132
298.03406
297.87085
297.72113
297.58439
297.46017
297.34802
297.24752
328.3899
323.69009
320.37493
317.82021
315.74559
314.00198
312.5008
311.18524
310.01669
308.96772
308.0182
307.15284
306.35985
305.62987
304.95538
304.33026
303.74942
303.20862
302.70427
302.23331
301.7931
301.38134
300.99605