/*--------------------------------*- C++ -*----------------------------------*\
| =========                 |                                                 |
| \\      /  F ield         | OpenFOAM: The Open Source CFD Toolbox           |
|  \\    /   O peration     | Version:  2506                                  |
|   \\  /    A nd           | Website:  www.openfoam.com                      |
|    \\/     M anipulation  |                                                 |
\*---------------------------------------------------------------------------*/
FoamFile
{
    version     2.0;
    format      ascii;
    arch        "LSB;label=32;scalar=64";
    class       volScalarField;
    location    "20000/water";
    object      alphat;
}
// * * * * * * * * * * * * * * * * * * * * * * * * * * * * * * * * * * * * * //

dimensions      [1 -1 -1 0 0 0 0];

internalField   nonuniform List<scalar> 
6000
(
0.041292847
0.041292824
0.041292831
0.041292856
0.041292889
0.041292932
0.041292983
0.041293016
0.041292808
0.041290571
0.041271537
0.041111294
0.0397723
0.030564074
0.013464793
0.040788543
0.040788537
0.040788576
0.040788654
0.040788758
0.040788888
0.04078902
0.040788972
0.040787494
0.040776037
0.040696382
0.040161217
0.036863805
0.023766469
0.015141611
0.04033569
0.040335696
0.040335761
0.040335884
0.040336044
0.040336229
0.04033633
0.040335685
0.040330323
0.040296649
0.040097616
0.038983223
0.033614213
0.0194951
0.016360294
0.039926215
0.039926219
0.039926301
0.039926459
0.03992666
0.039926848
0.039926701
0.039924457
0.039910659
0.039835636
0.039448738
0.037597438
0.030384627
0.016783058
0.017196555
0.039553796
0.039553808
0.039553906
0.039554093
0.039554312
0.039554413
0.039553622
0.0395481
0.039519187
0.039379112
0.038737841
0.036066498
0.027427863
0.015063192
0.01773179
0.039213273
0.039213296
0.039213408
0.039213613
0.039213809
0.039213657
0.039211571
0.039200298
0.039147643
0.038916647
0.037965398
0.034462847
0.024852826
0.013984463
0.018040007
0.038900366
0.038900399
0.038900521
0.038900723
0.038900826
0.038900159
0.038895819
0.03887551
0.038788999
0.038441492
0.037140256
0.032849727
0.022675913
0.013336844
0.018183117
0.038611532
0.038611573
0.038611697
0.038611866
0.038611765
0.038610199
0.038602307
0.038568928
0.038437606
0.037950377
0.036275872
0.031274836
0.020870828
0.012994967
0.018210197
0.038343817
0.038343862
0.038343975
0.038344065
0.038343601
0.038340605
0.038327517
0.03827644
0.038089201
0.037442856
0.03538704
0.029770035
0.019396999
0.012882914
0.018158676
0.038094736
0.03809478
0.038094862
0.038094803
0.038093753
0.038088644
0.038068396
0.037994592
0.037740813
0.036920505
0.03448763
0.028354169
0.018213448
0.012953916
0.018056304
0.037862183
0.037862216
0.037862238
0.037861935
0.037860009
0.037851941
0.037822294
0.037720559
0.037390607
0.036386134
0.033589398
0.02703684
0.017284481
0.013178532
0.017923231
0.03764436
0.037644371
0.037644291
0.037643618
0.037640447
0.037628426
0.037586933
0.037452106
0.037037684
0.035843147
0.032701562
0.025821837
0.016581272
0.013537499
0.017773886
0.037439726
0.037439699
0.03743946
0.037438254
0.037433393
0.037416287
0.037360374
0.037187532
0.036681868
0.035295042
0.031830871
0.02470985
0.016081614
0.014017191
0.017618497
0.037246949
0.037246861
0.037246392
0.037244452
0.037237378
0.037213943
0.037140989
0.036925609
0.0363235
0.034745073
0.030981931
0.023700436
0.015768976
0.014606606
0.017464261
0.037064871
0.037064693
0.037063903
0.037060987
0.037051109
0.037020016
0.036927437
0.036665512
0.035963258
0.03419604
0.030157673
0.022793377
0.015631332
0.015295285
0.017316197
0.03689248
0.036892177
0.036890955
0.036886782
0.036873442
0.036833316
0.036718634
0.03640675
0.035602004
0.033650187
0.029359858
0.021989539
0.015659917
0.016071914
0.01717775
0.036728885
0.036728414
0.036726628
0.036720878
0.03670337
0.036652818
0.036513731
0.036149096
0.035240656
0.033109157
0.028589603
0.021291346
0.015847992
0.016923492
0.017051196
0.036573301
0.03657261
0.036570106
0.036562424
0.036540005
0.036477653
0.03631208
0.035892529
0.034880099
0.032574024
0.027847913
0.02070292
0.016189617
0.01783505
0.016937915
0.036425028
0.036424056
0.036420663
0.036410663
0.036382564
0.036307092
0.036113215
0.03563717
0.034521109
0.032045349
0.027136212
0.020229919
0.016678486
0.018789895
0.016838558
0.036283441
0.03628212
0.036277645
0.036264917
0.036230367
0.036140535
0.03591682
0.035383242
0.034164308
0.031523285
0.026456862
0.019879123
0.017306891
0.019770317
0.016753165
0.036147982
0.036146234
0.036140468
0.036124584
0.036082821
0.035977497
0.035722708
0.035131018
0.033810124
0.031007717
0.025813646
0.019657797
0.018064912
0.0207586
0.016681265
0.036018143
0.036015885
0.036008605
0.035989127
0.035939416
0.035817597
0.035530799
0.034880794
0.033458783
0.030498445
0.025212142
0.019572905
0.018939949
0.021738147
0.016621966
0.03589347
0.03589061
0.035881581
0.035858069
0.035799718
0.035660549
0.035341095
0.034632853
0.033110301
0.029995409
0.024659951
0.019630248
0.019916664
0.02269449
0.016574063
0.035773545
0.035769987
0.035758968
0.035730991
0.035663366
0.035506152
0.035153669
0.034387441
0.032764498
0.029498968
0.024166686
0.019833637
0.020977366
0.023616003
0.016536152
0.035657992
0.035653635
0.035640383
0.035607524
0.035530063
0.035354279
0.034968643
0.03414475
0.03242103
0.029010211
0.023743688
0.020184173
0.022102784
0.024494228
0.016506745
0.035546464
0.035541207
0.035525479
0.035487349
0.035399574
0.035204869
0.034786172
0.033904896
0.032079439
0.028531301
0.023403466
0.020679733
0.023273104
0.025323801
0.016484372
0.035438647
0.035432386
0.035413948
0.035370193
0.035271718
0.035057919
0.034606436
0.03366791
0.03173923
0.028065808
0.023158914
0.021314705
0.0244691
0.026102089
0.016467662
0.035334251
0.035326887
0.035305516
0.035255823
0.03514637
0.034913479
0.03442962
0.033433727
0.031399978
0.02761899
0.023022388
0.022080016
0.025673169
0.026828633
0.016455398
0.035233012
0.035224448
0.035199939
0.03514405
0.035023453
0.034771643
0.034255909
0.033202186
0.031061475
0.027197981
0.02300477
0.022963452
0.026870127
0.027504567
0.016446543
0.035134691
0.035124836
0.035097009
0.035034724
0.034902936
0.03463254
0.03408547
0.032973033
0.030723902
0.0268118
0.023114634
0.023950249
0.02804767
0.028132079
0.016440248
0.035039067
0.03502784
0.034996542
0.034927732
0.034784832
0.034496333
0.033918446
0.032745938
0.030388047
0.026471168
0.023357597
0.025023884
0.02919649
0.028713983
0.016435834
0.034945943
0.034933275
0.034898386
0.034822996
0.034669194
0.034363211
0.033754944
0.032520522
0.030055535
0.0261881
0.023735916
0.026166983
0.030310099
0.029253407
0.016432778
0.034855141
0.034840974
0.034802418
0.034720475
0.034556112
0.034233382
0.033595029
0.032296402
0.029729079
0.025975303
0.024248335
0.027362251
0.031384439
0.029753594
0.016430685
0.034766502
0.034750797
0.03470854
0.034620164
0.034445715
0.034107066
0.033438713
0.032073259
0.029412694
0.025845436
0.024890192
0.028593299
0.032417399
0.030217766
0.016429265
0.034679887
0.034662624
0.034616684
0.034522088
0.034338162
0.033984492
0.033285952
0.031850929
0.029111868
0.025810316
0.025653734
0.029845308
0.033408315
0.030649046
0.016428312
0.034595176
0.034576356
0.034526808
0.034426308
0.034233647
0.033865888
0.033136649
0.031629521
0.028833634
0.025880172
0.026528622
0.03110546
0.03435753
0.03105041
0.016427682
0.034512269
0.034491917
0.034438897
0.034332917
0.034132389
0.033751478
0.032990657
0.031409556
0.028586516
0.026063013
0.027502557
0.032363147
0.035266043
0.031424648
0.01642728
0.034431083
0.034409252
0.034352965
0.034242042
0.034034637
0.033641469
0.032847794
0.031192143
0.028380317
0.026364179
0.028561983
0.033609951
0.03613525
0.031774347
0.016427047
0.034351558
0.034328331
0.034269052
0.034153841
0.033940664
0.03353605
0.032707869
0.030979151
0.028225761
0.026786094
0.029692793
0.034839477
0.036966772
0.032101875
0.01642695
0.034273652
0.034249145
0.03418723
0.034068505
0.03385076
0.033435383
0.03257072
0.030773394
0.028134
0.027328225
0.030880998
0.036047071
0.037762346
0.032409382
0.016426974
0.034197344
0.03417171
0.034107598
0.033986257
0.033765237
0.033339598
0.032436276
0.030578782
0.028116035
0.027987229
0.03211329
0.037229507
0.038523757
0.0326988
0.016427117
0.034122637
0.034096065
0.034030285
0.033907355
0.033684417
0.033248788
0.032304627
0.030400436
0.02818211
0.028757255
0.033377466
0.038384667
0.039252797
0.032971856
0.016427382
0.034049553
0.034022276
0.033955452
0.033832084
0.033608631
0.033163012
0.03217613
0.030244715
0.028341143
0.029630364
0.034662713
0.03951127
0.03995123
0.033230088
0.016427779
0.03397814
0.033950437
0.033883292
0.033760766
0.033538214
0.033082299
0.032051523
0.030119155
0.02860025
0.030597027
0.035959733
0.040608645
0.04062078
0.033474858
0.016428318
0.033908471
0.033880668
0.033814033
0.033693749
0.033473497
0.033006661
0.03193206
0.030032291
0.028964399
0.031646656
0.037260749
0.041676562
0.041263103
0.033707374
0.01642901
0.033840644
0.033813121
0.033747936
0.033631414
0.033414803
0.032936114
0.03181966
0.029993368
0.029436213
0.032768133
0.038559409
0.042715111
0.041879782
0.033928707
0.016429865
0.033774787
0.03374798
0.033685299
0.033574167
0.033362441
0.032870716
0.031717042
0.03001196
0.030015934
0.033950286
0.039850632
0.043724614
0.042472316
0.034139803
0.016430892
0.033711057
0.03368546
0.033626458
0.03352244
0.033316699
0.032810613
0.03162785
0.030097516
0.030701522
0.035182302
0.041130417
0.044705566
0.043042115
0.034341503
0.016432097
0.033649643
0.033625814
0.033571787
0.033476689
0.033277843
0.032756111
0.03155673
0.030258899
0.031488874
0.036454043
0.042395663
0.045658587
0.043590498
0.034534553
0.016433487
0.03359077
0.033569333
0.033521698
0.033437386
0.033246119
0.032707753
0.031509352
0.030503931
0.032372138
0.037756263
0.043643993
0.046584394
0.044118699
0.034719618
0.016435064
0.033534699
0.033516348
0.033476647
0.033405019
0.033221751
0.032666429
0.031492351
0.030839018
0.033344079
0.039080729
0.044873608
0.047483767
0.044627863
0.034897289
0.016436831
0.033481731
0.033467235
0.033437127
0.033380082
0.033204959
0.032633486
0.031513188
0.031268854
0.03439648
0.040420256
0.04608317
0.048357529
0.045119057
0.035068095
0.016438788
0.033432211
0.033422413
0.033403674
0.033363076
0.033195975
0.032610849
0.031579911
0.03179625
0.03552054
0.041768679
0.047271709
0.049206525
0.045593273
0.035232512
0.016440933
0.033386531
0.033382352
0.033376864
0.033354496
0.033195075
0.032601142
0.031700857
0.032422073
0.036707239
0.043120775
0.048438553
0.050031607
0.046051433
0.035390966
0.016443265
0.033345134
0.033347573
0.033357309
0.033354834
0.033202624
0.032607783
0.03188429
0.033145297
0.037947656
0.044472166
0.04958327
0.050833624
0.046494392
0.035543842
0.016445782
0.033308518
0.033318652
0.03334566
0.03336457
0.033219138
0.03263505
0.032138023
0.033963155
0.03923323
0.045819205
0.050705626
0.051613411
0.046922945
0.035691486
0.016448478
0.033277237
0.03329622
0.033342601
0.033384172
0.033245358
0.032688097
0.032469049
0.034871356
0.040555944
0.047158873
0.051805545
0.052371784
0.047337832
0.035834215
0.01645135
0.033251914
0.033280969
0.033348844
0.033414104
0.033282339
0.032772903
0.032883223
0.035864372
0.041908448
0.048488681
0.052883085
0.053109535
0.047739741
0.035972316
0.016454394
0.033233235
0.033273652
0.033365128
0.033454833
0.033331557
0.03289615
0.033385009
0.036935731
0.043284116
0.049806584
0.053938403
0.05382743
0.04812931
0.036106049
0.016457603
0.033221962
0.033275082
0.03339221
0.033506849
0.03339501
0.033065034
0.033977309
0.038078336
0.044677061
0.051110914
0.05497174
0.054526206
0.048507136
0.036235654
0.016460973
0.033218934
0.033286139
0.033430864
0.033570695
0.033475325
0.033287005
0.034661397
0.039284751
0.046082107
0.052400322
0.055983402
0.055206574
0.048873774
0.036361352
0.016464499
0.033225073
0.033307763
0.033481871
0.033647007
0.033575839
0.033569469
0.035436928
0.040547467
0.04749474
0.053673726
0.056973739
0.055869214
0.049229748
0.03648335
0.016468173
0.033241386
0.033340956
0.033546022
0.033736578
0.033700655
0.033919464
0.036302046
0.041859115
0.048911048
0.054930275
0.057943136
0.056514757
0.049575436
0.036601079
0.01647199
0.033268973
0.033386781
0.033624113
0.033840421
0.033854648
0.034343352
0.037253541
0.043212639
0.050327655
0.056169309
0.058891996
0.057143798
0.049911235
0.036714875
0.016475942
0.033309025
0.033446357
0.033716955
0.033959863
0.03404342
0.034846532
0.038287064
0.044601411
0.051741654
0.057390328
0.059820736
0.057756904
0.050237551
0.036825042
0.016480019
0.033362831
0.033520854
0.033825379
0.034096632
0.034273185
0.035433217
0.039397368
0.046019306
0.053150551
0.058592971
0.060729785
0.05835463
0.050554793
0.036931848
0.016484214
0.033431777
0.033611494
0.033950262
0.034252962
0.034550599
0.036106278
0.040578558
0.047460736
0.05455221
0.05977699
0.061619572
0.058937452
0.050862921
0.037035579
0.016488518
0.033517346
0.033719537
0.034092556
0.034431676
0.034882529
0.036867165
0.04182433
0.048920654
0.05594481
0.06094223
0.062490518
0.059505812
0.051162151
0.037136395
0.016492923
0.033621118
0.033846287
0.034253333
0.034636266
0.035275786
0.037715903
0.043128194
0.050394538
0.057326802
0.062088614
0.063343042
0.060060167
0.051452983
0.037234384
0.016497425
0.033744762
0.033993086
0.034433848
0.034870928
0.03573684
0.038651164
0.044483661
0.051878355
0.058696874
0.063216128
0.064177563
0.060600981
0.051735855
0.037329654
0.016502019
0.03389004
0.034161318
0.034635608
0.03514056
0.036271539
0.039670395
0.045884399
0.053368531
0.06005392
0.064324813
0.064994487
0.061128584
0.052011169
0.037422333
0.0165067
0.034058794
0.034352416
0.034860461
0.035450705
0.036884859
0.040769982
0.047324344
0.054861901
0.061397016
0.065414749
0.065794162
0.061642962
0.052279313
0.037512565
0.016511467
0.034252946
0.034567886
0.035110689
0.035807431
0.037580696
0.041945459
0.048797779
0.056355675
0.062725388
0.066486045
0.066576953
0.062144685
0.052540494
0.037600457
0.016516317
0.034474491
0.03480933
0.035389095
0.03621716
0.038361728
0.043191709
0.050299385
0.057847396
0.064038393
0.067538836
0.06734324
0.062634265
0.05279493
0.037686093
0.016521247
0.034725501
0.035078494
0.035699085
0.036686443
0.039229337
0.044503177
0.051824256
0.059334904
0.065335502
0.068573287
0.068093425
0.06311216
0.05304285
0.037769552
0.016526253
0.035008125
0.035377322
0.036044722
0.037221703
0.040183601
0.045874055
0.053367906
0.060816305
0.066616288
0.06958954
0.068827403
0.063578833
0.053284506
0.03785093
0.016531332
0.035324605
0.035708033
0.036430739
0.037828972
0.041223357
0.047298458
0.054926254
0.062289941
0.067880396
0.070587749
0.069545654
0.064034592
0.053520105
0.037930314
0.01653648
0.035677303
0.036073202
0.036862508
0.038513627
0.042346304
0.048770553
0.056495607
0.063754356
0.069127535
0.071568103
0.070248649
0.064479737
0.053749833
0.038007779
0.016541693
0.03606874
0.03647585
0.037345951
0.039280164
0.043549159
0.050284674
0.058072626
0.065208275
0.070357479
0.072530827
0.070936824
0.064914564
0.053973869
0.038083389
0.01654697
0.036501647
0.036919534
0.037887387
0.040132013
0.044827823
0.051835399
0.059654312
0.066650595
0.071570043
0.073475767
0.071610559
0.065339369
0.054192402
0.038157205
0.016552306
0.036979041
0.037408413
0.038493332
0.041071422
0.046177576
0.0534176
0.061237965
0.068080336
0.072765055
0.074403225
0.072270205
0.065754416
0.054405609
0.03822929
0.016557697
0.037504301
0.037947295
0.039170259
0.042099392
0.047593251
0.055026475
0.062821158
0.069496634
0.073942401
0.075313527
0.072916078
0.066159954
0.054613648
0.038299696
0.01656314
0.038081252
0.038541629
0.039924335
0.04321569
0.049069409
0.056657557
0.064401713
0.070898733
0.07510194
0.076206953
0.073548476
0.066556222
0.054816668
0.038368474
0.016568633
0.038714242
0.039197445
0.04076115
0.044418906
0.05060049
0.058306722
0.06597768
0.072285968
0.076243461
0.077083749
0.074167675
0.066943464
0.055014807
0.03843567
0.016574171
0.039408189
0.039921232
0.041685482
0.045706568
0.052180933
0.059970167
0.067547293
0.073657716
0.077366989
0.077944221
0.074773938
0.067321903
0.055208201
0.038501325
0.016579751
0.040168589
0.040719748
0.042701089
0.047075285
0.05380528
0.061644394
0.069108951
0.075013445
0.078472611
0.078788624
0.075367518
0.067691746
0.055396971
0.038565478
0.01658537
0.041001459
0.041599777
0.04381056
0.048520912
0.055468252
0.063326217
0.070661252
0.076352554
0.079560257
0.079617162
0.075948665
0.068053188
0.055581234
0.038628164
0.016591025
0.041913218
0.042567841
0.045015231
0.050038721
0.057164795
0.065012698
0.072202853
0.077674581
0.080630119
0.080430038
0.076517615
0.068406418
0.055761096
0.038689416
0.016596712
0.042910476
0.043629898
0.046315162
0.051623564
0.058890106
0.066701129
0.073732534
0.078979215
0.081682329
0.081227453
0.077074587
0.068751608
0.055936657
0.038749264
0.016602429
0.04399976
0.044791036
0.047709172
0.053270033
0.060639677
0.068389078
0.075249158
0.080265985
0.082716938
0.082009604
0.077619785
0.06908892
0.056108009
0.038807733
0.016608172
0.045187178
0.046055206
0.049194925
0.054972585
0.062409258
0.070074228
0.076751626
0.081534796
0.083734006
0.082776674
0.078153404
0.069418506
0.056275237
0.038864848
0.016613937
0.046478048
0.047424997
0.050769051
0.056725651
0.064194861
0.071754433
0.078238997
0.082785523
0.084733602
0.08352883
0.078675623
0.069740504
0.056438419
0.03892063
0.016619722
0.047876529
0.048901474
0.052427293
0.058523735
0.065992805
0.073427728
0.07971025
0.084017944
0.085715787
0.084266229
0.079186606
0.070055042
0.056597626
0.038975098
0.016625524
0.049385284
0.050484091
0.054164652
0.060361439
0.067799545
0.075092153
0.081164897
0.085231876
0.086680614
0.08498901
0.079686505
0.070362237
0.056752922
0.039028267
0.01663134
0.051005211
0.052170679
0.055975556
0.062233565
0.069611821
0.07674576
0.082602314
0.086427144
0.087628123
0.085697301
0.080175457
0.070662196
0.056904364
0.039080153
0.016637166
0.052735266
0.053957489
0.057853963
0.064135018
0.071426409
0.078387157
0.084021894
0.087603574
0.088558341
0.08639121
0.080653584
0.070955012
0.057052003
0.039130767
0.016643
0.054572397
0.055839319
0.059793529
0.066060916
0.073240079
0.080015052
0.08542306
0.088760986
0.089471282
0.087070831
0.081120993
0.071240771
0.057195885
0.039180118
0.016648838
0.056511583
0.057809646
0.061787601
0.06800634
0.07505026
0.081628187
0.086805255
0.08989919
0.090366941
0.087736238
0.081577775
0.071519545
0.057336048
0.039228212
0.016654678
0.058545992
0.059860813
0.063829312
0.069966498
0.076854582
0.083225363
0.088167933
0.091017988
0.091245297
0.088387488
0.082024008
0.071791396
0.057472523
0.039275055
0.016660516
0.060667161
0.061984111
0.065911522
0.071937228
0.078650789
0.084805434
0.089510555
0.092117169
0.092106306
0.089024618
0.082459752
0.072056375
0.057605336
0.039320648
0.016666349
0.0628652
0.064170145
0.068027401
0.073914521
0.080436733
0.086367294
0.090832584
0.093196503
0.092949908
0.089647647
0.082885051
0.07231452
0.057734507
0.039364993
0.016672174
0.065129255
0.066409119
0.070170168
0.075894507
0.082210355
0.087909869
0.092133479
0.094255746
0.093776016
0.09025657
0.083299934
0.072565861
0.057860048
0.039408085
0.016677988
0.067447889
0.068691028
0.072333129
0.077873444
0.083969672
0.089432115
0.093412698
0.095294633
0.094584526
0.090851365
0.083704413
0.072810413
0.057981965
0.039449921
0.016683788
0.06980944
0.071005848
0.074509713
0.079847706
0.08571277
0.090933009
0.094669692
0.096312881
0.095375307
0.091431987
0.084098482
0.073048182
0.058100259
0.039490493
0.016689569
0.072202327
0.073343722
0.076693509
0.081813776
0.087437795
0.092411548
0.095903905
0.097310189
0.096148207
0.091998371
0.08448212
0.073279161
0.058214921
0.039529792
0.016695329
0.074615319
0.075695118
0.078878306
0.083768241
0.089142943
0.093866744
0.097114777
0.098286238
0.096903054
0.092550431
0.084855288
0.073503332
0.05832594
0.039567806
0.016701064
0.077037732
0.078050953
0.081058131
0.085707797
0.090826459
0.095297627
0.098301741
0.099240692
0.097639654
0.093088063
0.085217933
0.073720665
0.058433294
0.039604519
0.01670677
0.079459591
0.080402694
0.083227286
0.087629247
0.092486636
0.096703246
0.09946423
0.1001732
0.098357795
0.093611141
0.085569983
0.07393112
0.058536958
0.039639915
0.016712444
0.081871723
0.082742435
0.085380378
0.089529518
0.094121816
0.098082665
0.10060168
0.10108341
0.09905725
0.094119526
0.085911356
0.074134645
0.058636899
0.039673975
0.016718081
0.084265816
0.085062939
0.087512357
0.091405665
0.095730392
0.099434974
0.10171353
0.10197095
0.099737777
0.094613062
0.086241952
0.074331179
0.058733079
0.039706676
0.016723677
0.086634436
0.087357662
0.089618533
0.093254888
0.097310818
0.10075929
0.10279922
0.10283545
0.10039913
0.095091582
0.086561663
0.074520652
0.058825454
0.039737996
0.016729228
0.088971021
0.089620758
0.091694599
0.095074542
0.098861607
0.10205476
0.10385823
0.10367655
0.10104104
0.095554907
0.086870368
0.074702986
0.058913975
0.039767908
0.016734728
0.091269847
0.091847067
0.093736639
0.096862155
0.10038135
0.10332056
0.10489003
0.1044939
0.10166327
0.096002855
0.08716794
0.074878094
0.058998589
0.039796385
0.016740175
0.093525984
0.094032088
0.095741133
0.098615433
0.10186871
0.10455592
0.10589414
0.10528714
0.10226555
0.096435237
0.087454245
0.075045887
0.059079238
0.039823397
0.016745561
0.095735239
0.096171946
0.097704955
0.10033228
0.10332245
0.10576013
0.10687009
0.10605596
0.10284764
0.096851869
0.087729147
0.075206269
0.059155864
0.039848916
0.016750883
0.097894096
0.098263349
0.099625366
0.10201078
0.10474142
0.1069325
0.10781746
0.10680004
0.10340931
0.097252571
0.08799251
0.075359145
0.059228405
0.03987291
0.016756135
0.099999657
0.10030355
0.1015
0.10364924
0.10612458
0.10807243
0.10873587
0.10751912
0.10395034
0.097637169
0.088244202
0.075504419
0.0592968
0.03989535
0.016761311
0.10204958
0.10229029
0.10332685
0.10524617
0.10747098
0.10917937
0.10962498
0.10821296
0.10447054
0.098005506
0.088484096
0.075641996
0.059360987
0.039916203
0.016766406
0.10404201
0.10422178
0.10510424
0.10680026
0.10877979
0.11025284
0.1104845
0.10888135
0.10496975
0.098357439
0.088712075
0.075771789
0.059420908
0.039935442
0.016771415
0.10597555
0.1060966
0.10683081
0.10831043
0.11005032
0.11129243
0.1113142
0.10952413
0.10544782
0.098692847
0.088928033
0.075893715
0.059476508
0.039953038
0.016776331
0.10784917
0.10791373
0.10850551
0.10977577
0.11128195
0.11229781
0.11211388
0.11014118
0.10590466
0.099011632
0.089131883
0.0760077
0.059527735
0.039968965
0.016781149
0.10966221
0.10967246
0.11012753
0.11119557
0.1124742
0.11326873
0.11288344
0.11073241
0.10634019
0.099313722
0.089323552
0.076113683
0.059574546
0.039983202
0.016785863
0.11141429
0.11137235
0.11169633
0.1125693
0.11362672
0.114205
0.1136228
0.11129782
0.1067544
0.099599076
0.08950299
0.076211616
0.059616905
0.039995728
0.016790468
0.11310529
0.11301324
0.1132116
0.11389658
0.11473925
0.11510652
0.11433194
0.11183741
0.10714729
0.099867684
0.089670169
0.076301464
0.059654782
0.040006527
0.016794957
0.11473533
0.11459518
0.1146732
0.1151772
0.11581164
0.11597325
0.11501093
0.11235127
0.10751891
0.10011957
0.089825087
0.076383211
0.059688161
0.04001559
0.016799327
0.11630473
0.11611842
0.11608119
0.11641111
0.11684384
0.11680525
0.11565987
0.1128395
0.10786936
0.10035478
0.089967764
0.076456857
0.059717033
0.04002291
0.016803571
0.11781396
0.11758335
0.11743581
0.11759837
0.11783593
0.11760264
0.11627892
0.11330227
0.10819877
0.10057343
0.090098253
0.076522423
0.059741405
0.040028487
0.016807684
0.11926367
0.11899056
0.11873742
0.11873918
0.11878805
0.11836559
0.1168683
0.1137398
0.10850733
0.10077562
0.090216629
0.07657995
0.059761292
0.040032325
0.016811663
0.1206546
0.12034071
0.11998651
0.11983385
0.11970044
0.11909435
0.11742827
0.11415235
0.10879525
0.10096152
0.090323
0.076629497
0.059776724
0.040034436
0.016815503
0.12198763
0.12163462
0.1211837
0.1208828
0.12057343
0.11978926
0.11795917
0.11454022
0.10906279
0.10113134
0.090417499
0.076671147
0.059787747
0.040034837
0.016819199
0.1232637
0.12287316
0.12232968
0.12188653
0.12140741
0.12045067
0.11846137
0.11490376
0.10931024
0.10128529
0.090500287
0.076705002
0.059794415
0.040033552
0.01682275
0.12448386
0.12405732
0.12342526
0.12284564
0.12220286
0.12107903
0.11893526
0.11524335
0.10953793
0.10142365
0.090571554
0.076731185
0.0597968
0.040030609
0.016826151
0.12564921
0.12518813
0.12447129
0.12376078
0.12296031
0.1216748
0.11938132
0.1155594
0.10974624
0.10154669
0.090631513
0.07674984
0.059794984
0.040026044
0.0168294
0.1267609
0.12626669
0.12546871
0.12463269
0.12368035
0.12223852
0.11980003
0.11585239
0.10993554
0.10165475
0.090680404
0.076761128
0.059789063
0.0400199
0.016832496
0.12782012
0.12729414
0.12641851
0.12546216
0.12436364
0.12277075
0.12019192
0.11612279
0.11010628
0.10174816
0.09071849
0.076765231
0.059779145
0.040012222
0.016835437
0.12882812
0.12827166
0.12732171
0.12625003
0.12501085
0.12327212
0.12055756
0.11637111
0.11025889
0.1018273
0.090746053
0.076762347
0.05976535
0.040003064
0.016838222
0.12978616
0.12920046
0.12817939
0.12699718
0.12562272
0.12374325
0.12089753
0.11659789
0.11039386
0.10189257
0.090763399
0.076752689
0.059747808
0.039992481
0.01684085
0.13069552
0.13008179
0.12899264
0.12770452
0.12620003
0.12418483
0.12121246
0.1168037
0.11051167
0.10194437
0.09077085
0.076736486
0.059726659
0.039980536
0.016843321
0.13155751
0.13091689
0.1297626
0.12837302
0.12674357
0.12459756
0.12150297
0.11698912
0.11061285
0.10198314
0.090768743
0.07671398
0.059702051
0.039967293
0.016845637
0.13237345
0.13170705
0.13049042
0.12900365
0.12725417
0.12498216
0.12176973
0.11715474
0.11069791
0.10200932
0.09075743
0.076685424
0.05967414
0.03995282
0.016847798
0.13314465
0.13245354
0.13117724
0.12959741
0.12773268
0.12533938
0.12201342
0.11730118
0.11076741
0.10202338
0.090737277
0.076651081
0.059643091
0.039937191
0.016849806
0.13387244
0.13315764
0.13182426
0.13015531
0.12817997
0.12566999
0.12223471
0.11742906
0.11082189
0.10202578
0.090708656
0.076611225
0.05960907
0.039920478
0.016851662
0.13455814
0.13382064
0.13243263
0.13067839
0.12859692
0.12597475
0.12243431
0.11753902
0.11086193
0.102017
0.090671953
0.076566132
0.059572252
0.039902756
0.016853369
0.13520307
0.13444381
0.13300356
0.13116767
0.12898443
0.12625446
0.12261293
0.11763169
0.11088808
0.10199753
0.090627554
0.076516087
0.059532814
0.039884103
0.01685493
0.13580855
0.13502845
0.13353822
0.1316242
0.1293434
0.1265099
0.12277128
0.11770772
0.11090091
0.10196785
0.090575854
0.07646138
0.059490933
0.039864595
0.016856347
0.13637587
0.13557581
0.13403778
0.13204903
0.12967474
0.12674189
0.12291007
0.11776775
0.11090102
0.10192846
0.09051725
0.076402299
0.059446792
0.039844312
0.016857625
0.13690633
0.13608715
0.13450341
0.13244319
0.12997936
0.12695121
0.12303003
0.11781244
0.11088896
0.10187985
0.090452138
0.076339136
0.05940057
0.039823329
0.016858766
0.1374012
0.13656373
0.13493629
0.13280772
0.13025817
0.12713867
0.12313187
0.11784243
0.11086532
0.10182252
0.090380915
0.076272183
0.059352448
0.039801725
0.016859775
0.13786175
0.13700676
0.13533756
0.13314367
0.13051208
0.12730508
0.12321631
0.11785837
0.11083066
0.10175694
0.090303978
0.07620173
0.059302605
0.039779576
0.016860655
0.13828922
0.13741747
0.13570836
0.13345204
0.13074198
0.12745123
0.12328407
0.11786089
0.11078555
0.10168361
0.090221717
0.076128063
0.059251218
0.039756954
0.016861412
0.13868484
0.13779705
0.13604981
0.13373386
0.13094878
0.1275779
0.12333584
0.11785062
0.11073056
0.10160301
0.090134519
0.076051465
0.05919846
0.039733934
0.016862049
0.1390498
0.13814668
0.13636302
0.13399013
0.13113336
0.12768589
0.12337233
0.1178282
0.11066623
0.10151561
0.090042767
0.075972216
0.059144503
0.039710586
0.016862571
0.1393853
0.13846752
0.13664909
0.13422184
0.1312966
0.12777597
0.12339422
0.11779423
0.1105931
0.10142188
0.089946834
0.075890589
0.059089513
0.039686979
0.016862983
0.13969249
0.1387607
0.13690908
0.13442996
0.13143936
0.1278489
0.12340221
0.11774934
0.11051173
0.10132226
0.089847088
0.075806849
0.05903365
0.039663178
0.016863289
0.13997251
0.13902734
0.13714405
0.13461545
0.1315625
0.12790545
0.12339696
0.11769411
0.11042262
0.10121722
0.089743888
0.075721257
0.058977072
0.039639246
0.016863495
0.14022648
0.13926853
0.13735502
0.13477925
0.13166686
0.12794635
0.12337913
0.11762913
0.1103263
0.10110718
0.089637582
0.075634065
0.058919929
0.039615245
0.016863605
0.14045549
0.13948534
0.13754302
0.1349223
0.13175326
0.12797233
0.12334936
0.11755497
0.11022326
0.10099257
0.089528511
0.075545516
0.058862367
0.039591231
0.016863624
0.14066061
0.13967881
0.13770903
0.13504548
0.13182251
0.12798411
0.1233083
0.11747221
0.11011401
0.1008738
0.089417002
0.075455845
0.058804523
0.039567259
0.016863557
0.14084287
0.13984996
0.13785401
0.1351497
0.1318754
0.1279824
0.12325656
0.11738138
0.109999
0.10075129
0.089303375
0.075365279
0.058746531
0.039543379
0.016863408
0.14100329
0.13999979
0.13797892
0.13523581
0.13191271
0.12796787
0.12319476
0.11728301
0.10987872
0.10062541
0.089187936
0.075274034
0.058688517
0.039519641
0.016863182
0.14114286
0.14012926
0.13808467
0.13530467
0.13193521
0.12794121
0.12312348
0.11717765
0.10975361
0.10049655
0.089070981
0.075182319
0.058630599
0.039496089
0.016862884
0.14126254
0.14023932
0.13817216
0.1353571
0.13194362
0.12790306
0.1230433
0.11706578
0.10962411
0.10036506
0.088952794
0.075090331
0.058572892
0.039472765
0.016862519
0.14136328
0.14033089
0.13824227
0.1353939
0.13193867
0.12785407
0.12295479
0.1169479
0.10949064
0.10023131
0.088833647
0.074998258
0.0585155
0.039449707
0.01686209
0.14144598
0.14040487
0.13829584
0.13541586
0.13192107
0.12779486
0.12285849
0.11682449
0.10935361
0.10009562
0.088713799
0.074906279
0.058458524
0.039426952
0.016861602
0.14151154
0.14046213
0.13833371
0.13542375
0.13189151
0.12772604
0.12275494
0.11669601
0.10921341
0.09995832
0.0885935
0.074814564
0.058402057
0.039404532
0.016861059
0.14156081
0.14050351
0.13835669
0.13541831
0.13185064
0.12764819
0.12264465
0.11656291
0.10907043
0.099819723
0.088472986
0.074723271
0.058346186
0.039382477
0.016860465
0.14159463