/*--------------------------------*- C++ -*----------------------------------*\
| =========                 |                                                 |
| \\      /  F ield         | OpenFOAM: The Open Source CFD Toolbox           |
|  \\    /   O peration     | Version:  2506                                  |
|   \\  /    A nd           | Website:  www.openfoam.com                      |
|    \\/     M anipulation  |                                                 |
\*---------------------------------------------------------------------------*/
FoamFile
{
    version     2.0;
    format      ascii;
    arch        "LSB;label=32;scalar=64";
    class       volScalarField;
    location    "20000/water";
    object      k;
}
// * * * * * * * * * * * * * * * * * * * * * * * * * * * * * * * * * * * * * //

dimensions      [0 2 -2 0 0 0 0];

internalField   nonuniform List<scalar> 
6000
(
0.0002144485
0.00021444827
0.00021444833
0.00021444852
0.00021444878
0.00021444911
0.00021444953
0.00021445001
0.00021445038
0.00021444961
0.00021444477
0.00021444847
0.00021482328
0.00022098609
0.00033298785
0.00019735372
0.00019735408
0.00019735481
0.00019735601
0.00019735759
0.00019735962
0.00019736212
0.0001973649
0.00019736678
0.00019736231
0.00019733424
0.0001972933
0.00019808165
0.00021190706
0.00042108833
0.00018260526
0.00018260625
0.00018260756
0.00018260957
0.0001826122
0.00018261554
0.00018261945
0.00018262311
0.00018262253
0.00018260174
0.00018251429
0.00018235696
0.00018354965
0.00020571076
0.0004915993
0.00016977104
0.00016977195
0.00016977358
0.00016977617
0.00016977959
0.00016978384
0.00016978847
0.00016979119
0.00016978242
0.00016972799
0.0001695392
0.00016920344
0.00017083025
0.00020141509
0.00054314021
0.00015851703
0.00015851791
0.00015851979
0.00015852287
0.0001585269
0.00015853173
0.00015853623
0.00015853548
0.0001585108
0.00015840225
0.00015807228
0.00015752308
0.00015966967
0.00019844232
0.00057747636
0.00014858047
0.00014858142
0.00014858351
0.00014858695
0.00014859139
0.00014859636
0.00014859955
0.0001485919
0.00014854197
0.00014835849
0.00014785779
0.00014709963
0.00014993181
0.00019659445
0.00059772639
0.00013975169
0.00013975271
0.00013975496
0.00013975864
0.00013976325
0.00013976781
0.00013976817
0.00013974945
0.00013966425
0.0001393877
0.00013870223
0.00013778194
0.00014154644
0.00019585229
0.00060724748
0.00013186192
0.00013186298
0.00013186534
0.00013186914
0.00013187366
0.00013187713
0.00013187282
0.00013183836
0.00013170812
0.00013132527
0.00013045854
0.00012946164
0.00013447268
0.00019626303
0.00060905754
0.00012477404
0.00012477514
0.00012477755
0.00012478136
0.00012478548
0.00012478703
0.00012477592
0.00012472085
0.00012453699
0.00012404097
0.00012301362
0.00012205827
0.00012868159
0.00019789321
0.0006056161
0.00011837572
0.00011837682
0.00011837924
0.0001183829
0.00011838626
0.00011838492
0.00011836468
0.00011828424
0.00011804014
0.00011743108
0.00011627928
0.00011550993
0.00012414935
0.00020080676
0.00059880682
0.0001125741
0.0001125752
0.00011257756
0.00011258091
0.00011258305
0.00011257774
0.00011254594
0.00011243584
0.00011212738
0.0001114124
0.00011018555
0.00010976786
0.00012085593
0.00020505367
0.00059001308
0.00010729189
0.00010729297
0.0001072952
0.00010729803
0.00010729845
0.00010728799
0.00010724223
0.00010709893
0.00010672477
0.00010591759
0.00010467621
0.00010479348
0.00011878602
0.00021066301
0.00058022149
0.0001024643
0.00010246533
0.00010246733
0.00010246942
0.00010246756
0.00010245071
0.00010238875
0.00010220964
0.0001017714
0.00010089174
9.9705638e-05
0.000100557
0.00011793046
0.00021763683
0.00057012062
9.8036637e-05
9.8037572e-05
9.8039255e-05
9.8040328e-05
9.8035582e-05
9.8011091e-05
9.7930966e-05
9.7714594e-05
9.7216801e-05
9.6289669e-05
9.5236719e-05
9.703687e-05
0.00011828673
0.00022594366
0.0005601824
9.3962451e-05
9.3963259e-05
9.3964497e-05
9.3964262e-05
9.3955981e-05
9.3922652e-05
9.3822751e-05
9.3568903e-05
9.3018884e-05
9.2074025e-05
9.1239503e-05
9.4219615e-05
0.00011985802
0.00023551194
0.0005507241
9.0202076e-05
9.020271e-05
9.0203366e-05
9.0201504e-05
9.0189027e-05
9.0145749e-05
9.0024925e-05
8.9734681e-05
8.9142411e-05
8.8213812e-05
8.7690325e-05
9.2099801e-05
0.00012265038
0.00024622465
0.00054195294
8.6721448e-05
8.6721856e-05
8.6721775e-05
8.6717945e-05
8.6700619e-05
8.664642e-05
8.6504047e-05
8.61798e-05
8.5557736e-05
8.4683334e-05
8.4571272e-05
9.0679902e-05
0.00012666793
0.00025791693
0.00053399692
8.3491166e-05
8.3491287e-05
8.3490304e-05
8.3484151e-05
8.3461349e-05
8.3395437e-05
8.3231463e-05
8.2876915e-05
8.2239851e-05
8.1461425e-05
8.1869885e-05
8.9969913e-05
0.00013190642
0.00027037857
0.00052692519
8.0485733e-05
8.0485502e-05
8.0483437e-05
8.0474603e-05
8.0445747e-05
8.0367548e-05
8.018253e-05
7.9802669e-05
7.9167636e-05
7.8530889e-05
7.9578989e-05
8.9986538e-05
0.00013834557
0.00028336255
0.00052076146
7.7682937e-05
7.7682283e-05
7.767895e-05
7.7667083e-05
7.7631664e-05
7.7540855e-05
7.7335982e-05
7.6937064e-05
7.6323276e-05
7.5878109e-05
7.7696612e-05
9.0751816e-05
0.00014594134
0.00029659939
0.00051549302
7.5063349e-05
7.5062196e-05
7.5057404e-05
7.5042167e-05
7.4999765e-05
7.4896302e-05
7.4673418e-05
7.4262946e-05
7.369182e-05
7.3492783e-05
7.6225917e-05
9.2291049e-05
0.00015461944
0.000309816
0.00051107779
7.2609902e-05
7.2608172e-05
7.260173e-05
7.2582813e-05
7.2533118e-05
7.2417256e-05
7.2178869e-05
7.1765596e-05
7.1260831e-05
7.1367745e-05
7.5175079e-05
9.4629939e-05
0.00016427135
0.00032275576
0.00050745065
7.0307551e-05
7.0305165e-05
7.0296888e-05
7.0274015e-05
7.0216842e-05
7.0089161e-05
6.9838457e-05
6.94324e-05
6.9020131e-05
6.949887e-05
7.4557053e-05
9.7790946e-05
0.00017475428
0.00033519669
0.00050453
6.8142984e-05
6.8139863e-05
6.8129574e-05
6.8102519e-05
6.8037823e-05
6.7899244e-05
6.7640104e-05
6.7252585e-05
6.6961603e-05
6.7885016e-05
7.4389159e-05
0.00010178904
0.0001858954
0.00034696444
0.00050222457
6.6104382e-05
6.6100451e-05
6.608799e-05
6.6056581e-05
6.5984475e-05
6.5836276e-05
6.5573296e-05
6.5217006e-05
6.5079053e-05
6.6528011e-05
7.4692423e-05
0.00010662718
0.00019750037
0.00035793856
0.00050043991
6.418122e-05
6.4176406e-05
6.4161633e-05
6.4125766e-05
6.4046535e-05
6.3890369e-05
6.3628889e-05
6.3317981e-05
6.3368113e-05
6.5432644e-05
7.5490605e-05
0.00011229203
0.00020936498
0.00036805173
0.00049908424
6.2364094e-05
6.2358333e-05
6.2341135e-05
6.230078e-05
6.2214894e-05
6.2052808e-05
6.1798947e-05
6.1549161e-05
6.182618e-05
6.4606648e-05
7.680889e-05
0.00011875054
0.00022128816
0.00037728353
0.00049807291
6.064458e-05
6.0637817e-05
6.0618111e-05
6.0573325e-05
6.0481451e-05
6.031591e-05
6.0076617e-05
5.9905429e-05
6.045239e-05
6.4060644e-05
7.8672186e-05
0.00012594803
0.00023308444
0.00038565069
0.00049733132
5.9015114e-05
5.9007302e-05
5.8985044e-05
5.8935977e-05
5.8838997e-05
5.8672904e-05
5.8456016e-05
5.8382826e-05
5.9247607e-05
6.380802e-05
8.1103079e-05
0.00013380822
0.00024459408
0.00039319634
0.00049679626
5.746888e-05
5.745999e-05
5.7435175e-05
5.7382083e-05
5.7281105e-05
5.7117831e-05
5.6932149e-05
5.6978499e-05
5.8214438e-05
6.3864707e-05
8.4119511e-05
0.00014223537
0.00025568959
0.00039997992
0.00049641599
5.599973e-05
5.5989745e-05
5.596242e-05
5.590567e-05
5.5802046e-05
5.5645466e-05
5.5500841e-05
5.5690669e-05
5.7357258e-05
6.4248811e-05
8.7732331e-05
0.00015111851
0.00026627829
0.00040606902
0.00049614946
5.4602101e-05
5.4591025e-05
5.4561286e-05
5.4501369e-05
5.4396714e-05
5.4251246e-05
5.4158685e-05
5.4518612e-05
5.6682235e-05
6.498008e-05
9.1942944e-05
0.00016033718
0.00027630117
0.00041153336
0.00049596497
5.3270953e-05
5.3258808e-05
5.3226813e-05
5.3164353e-05
5.3060564e-05
5.2931212e-05
5.2903001e-05
5.3462663e-05
5.6197344e-05
6.6079183e-05
9.674133e-05
0.00016976802
0.00028572901
0.00041644086
0.00049583865
5.2001708e-05
5.198854e-05
5.1954511e-05
5.1890276e-05
5.1789556e-05
5.1681971e-05
5.1731808e-05
5.2524225e-05
5.5912364e-05
6.7566768e-05
0.00010210472
0.00017929138
0.00029455686
0.00042085544
0.00049575298
5.0790203e-05
5.0776083e-05
5.0740313e-05
5.067523e-05
5.0580113e-05
5.050065e-05
5.0643813e-05
5.1705789e-05
5.5838829e-05
6.9462333e-05
0.00010799714
0.0001887971
0.0003027979
0.00042483587
0.00049569544
4.9632648e-05
4.9617675e-05
4.9580534e-05
4.9515698e-05
4.942908e-05
4.9384875e-05
4.9638395e-05
5.1010966e-05
5.5989919e-05
7.1782924e-05
0.00011437001
0.00019818902
0.00031047773
0.00042843534
0.0004956574
4.8525586e-05
4.8509888e-05
4.8471831e-05
4.8408525e-05
4.8333699e-05
4.8332748e-05
4.8715611e-05
5.0444524e-05
5.6380277e-05
7.4541731e-05
0.00012116372
0.00020738766
0.00031762942
0.0004317015
0.00049563314
4.7465859e-05
4.74496e-05
4.7411173e-05
4.7350883e-05
4.7291577e-05
4.7342831e-05
4.7876207e-05
5.0012417e-05
5.7025722e-05
7.7746684e-05
0.00012831014
0.00021633123
0.00032428983
0.00043467668
0.00049561908
4.6450583e-05
4.6433963e-05
4.6395814e-05
4.6340247e-05
4.6300671e-05
4.641414e-05
4.7121629e-05
4.9721817e-05
5.794285e-05
8.1399172e-05
0.00013573579
0.00022497511
0.00033049683
0.00043739818
0.00049561324
4.5477121e-05
4.5460379e-05
4.5423267e-05
4.5374375e-05
4.5359268e-05
4.5546142e-05
4.6454049e-05
4.9581126e-05
5.9148511e-05
8.5493025e-05
0.00014336523
0.00023329016
0.00033628766
0.00043989868
0.00049561471
4.4543061e-05
4.4526479e-05
4.4491284e-05
4.4451289e-05
4.446598e-05
4.4738756e-05
4.5876394e-05
4.9599966e-05
6.0659162e-05
9.0013889e-05
0.00015112442
0.00024126037
0.00034169781
0.00044220663
0.00049562332
4.3646195e-05
4.3630105e-05
4.359784e-05
4.3569259e-05
4.3619731e-05
4.3992365e-05
4.5392377e-05
4.9789138e-05
6.2490102e-05
9.4939097e-05
0.00015894371
0.00024888022
0.00034676054
0.00044434669
0.00049563933
4.2784505e-05
4.2769292e-05
4.2741115e-05
4.2726796e-05
4.2819756e-05
4.3307822e-05
4.500653e-05
5.0160522e-05
6.4654628e-05
0.00010023809
0.00016676015
0.00025615209
0.00035150663
0.00044634015
0.00049566327
4.1956147e-05
4.1942252e-05
4.1919486e-05
4.1922641e-05
4.2065604e-05
4.2686473e-05
4.4724242e-05
5.0726936e-05
6.7163137e-05
0.00010587334
0.00017451902
0.00026308404
0.00035596428
0.00044820531
0.00049569579
4.1159436e-05
4.1147367e-05
4.1131511e-05
4.1155759e-05
4.1357136e-05
4.2130176e-05
4.4551788e-05
5.1501906e-05
7.0022256e-05
0.00011180181
0.00018217462
0.00026968791
0.00036015926
0.00044995792
0.00049573755
4.039284e-05
4.0383173e-05
4.0375928e-05
4.0425336e-05
4.0694537e-05
4.1641323e-05
4.4496351e-05
5.2499367e-05
7.3234062e-05
0.00011797662
0.00018969027
0.00027597787
0.00036411491
0.00045161147
0.00049578915
3.9654963e-05
3.9648355e-05
3.9651641e-05
3.9730781e-05
4.0078323e-05
4.1222872e-05
4.4566029e-05
5.3733281e-05
7.6795464e-05
0.00012434897
0.00019703788
0.00028196939
0.00036785236
0.00045317754
0.00049585112
3.8944544e-05
3.8941738e-05
3.8957721e-05
3.9071722e-05
3.9509355e-05
4.0878377e-05
4.4769827e-05
5.5217166e-05
8.0697834e-05
0.00013087001
0.00020419699
0.00028767849
0.00037139066
0.00045466609
0.00049592389
3.8260447e-05
3.8262283e-05
3.8293404e-05
3.8448018e-05
3.8988855e-05
4.0612022e-05
4.511761e-05
5.6963562e-05
8.492692e-05
0.00013749256
0.00021115368
0.00029312118
0.00037474694
0.00045608564
0.00049600778
3.7601653e-05
3.7609081e-05
3.7658086e-05
3.7859757e-05
3.8518429e-05
4.042865e-05
4.5620024e-05
5.8983435e-05
8.946308e-05
0.00014417245
0.0002178995
0.00029831318
0.0003779366
0.00045744356
0.000496103
3.6967262e-05
3.6981351e-05
3.7051327e-05
3.7307272e-05
3.8100083e-05
4.0333797e-05
4.6288374e-05
6.128557e-05
9.4281829e-05
0.00015086963
0.00022443028
0.0003032697
0.00038097345
0.00045874619
0.00049620967
3.6356483e-05
3.6378439e-05
3.6472853e-05
3.6791148e-05
3.7736251e-05
4.0333716e-05
4.7134441e-05
6.3875973e-05
9.9354647e-05
0.00015754879
0.00023074525
0.00030800523
0.00038386989
0.00045999902
0.00049632781
3.5768637e-05
3.5799814e-05
3.5922562e-05
3.6312236e-05
3.7429826e-05
4.0435393e-05
4.8170249e-05
6.6757336e-05
0.00010465
0.00016417959
0.00023684617
0.00031253353
0.00038663708
0.00046120681
0.00049645737
3.5203153e-05
3.5245078e-05
3.5400526e-05
3.587167e-05
3.7184183e-05
4.0646555e-05
4.9407764e-05
6.9928624e-05
0.00011013445
0.0001707367
0.00024273669
0.00031686757
0.00038928501
0.00046237369
0.00049659823
3.4659571e-05
3.4713957e-05
3.4907005e-05
3.5470883e-05
3.7003214e-05
4.0975648e-05
5.0858538e-05
7.3384797e-05
0.00011577383
0.00017719946
0.00024842182
0.00032101948
0.0003918227
0.00046350328
0.00049675023
3.4137541e-05
3.4206315e-05
3.4442453e-05
3.5111632e-05
3.6891357e-05
4.14318e-05
5.2533308e-05
7.7116735e-05
0.00012153429
0.00018355152
0.00025390753
0.00032500058
0.00039425827
0.00046459875
0.00049691313
3.3636827e-05
3.3722154e-05
3.4007531e-05
3.4796015e-05
3.6853628e-05
4.202475e-05
5.4441547e-05
8.1111355e-05
0.00012738323
0.00018978026
0.00025920041
0.00032882144
0.00039659904
0.00046566286
0.00049708669
3.3157312e-05
3.3261621e-05
3.3603121e-05
3.4526501e-05
3.6895647e-05
4.2764735e-05
5.6591016e-05
8.5351935e-05
0.00013329007
0.00019587633
0.00026430746
0.00033249184
0.00039885162
0.00046669807
0.00049727063
3.2699001e-05
3.2825019e-05
3.3230344e-05
3.4305956e-05
3.7023658e-05
4.3662343e-05
5.8987321e-05
8.9818606e-05
0.00013922679
0.0002018331
0.00026923587
0.00033602088
0.00040102202
0.00046770654
0.00049746464
3.2262029e-05
3.2412818e-05
3.2890574e-05
3.413767e-05
3.7244539e-05
4.4728306e-05
6.1633518e-05
9.4488997e-05
0.00014516821
0.0002076462
0.0002739929
0.00033941696
0.00040311565
0.0004686902
0.0004976684
3.1846672e-05
3.2025663e-05
3.2585463e-05
3.4025389e-05
3.7565807e-05
4.5973264e-05
6.4529791e-05
9.9338949e-05
0.00015109216
0.00021331313
0.00027858575
0.00034268787
0.00040513745
0.00046965074
0.00049788158
3.1453353e-05
3.1664392e-05
3.2316961e-05
3.3973345e-05
3.7995593e-05
4.7407465e-05
6.7673247e-05
0.00010434328
0.00015697945
0.00021883287
0.00028302149
0.00034584083
0.00040709189
0.00047058966
0.00049810386
3.1082657e-05
3.1330051e-05
3.2087341e-05
3.3986286e-05
3.8542601e-05
4.9040443e-05
7.1057834e-05
0.00010947651
0.00016281378
0.00022420562
0.00028730702
0.00034888258
0.00040898321
0.00047150441
0.00049833477
3.0735343e-05
3.1023913e-05
3.1899229e-05
3.4069504e-05
3.921604e-05
5.0880664e-05
7.4674401e-05
0.00011471353
0.00016858148
0.00022943256
0.00029144899
0.00035181924
0.00041081465
0.00047239505
0.0004985739
3.0412363e-05
3.0747499e-05
3.1755626e-05
3.4228858e-05
4.0025519e-05
5.2935161e-05
7.8510896e-05
0.00012003018
0.00017427127
0.00023451558
0.00029545376
0.0003546564
0.0004125891
0.00047326294
0.00049882071
3.0114878e-05
3.0502599e-05
3.1659948e-05
3.447079e-05
4.0980905e-05
5.520918e-05
8.2552693e-05
0.00012540362
0.00017987401
0.00023945714
0.00029932739
0.00035739918
0.00041430937
0.00047410988
0.00049907467
2.9844282e-05
3.0291302e-05
3.161605e-05
3.4802333e-05
4.2092143e-05
5.7705871e-05
8.6783025e-05
0.00013081272
0.0001853824
0.00024426016
0.00030307572
0.00036005265
0.00041597751
0.00047493648
0.00049933531
2.9602223e-05
3.011602e-05
3.162826e-05
3.52311e-05
4.3369037e-05
6.0426029e-05
9.1183481e-05
0.0001362382
0.0001907908
0.00024892785
0.00030670434
0.00036262129
0.000417595
0.00047574363
0.00049960218
2.9390633e-05
2.997952e-05
3.1701414e-05
3.5765261e-05
4.4820992e-05
6.3367923e-05
9.5734544e-05
0.00014166273
0.00019609492
0.00025346367
0.00031021843
0.00036510892
0.00041916379
0.00047653275
0.00049987496
2.9211754e-05
2.9884959e-05
3.1840881e-05
3.6413492e-05
4.6456725e-05
6.6527218e-05
0.00010041612
0.00014707092
0.00020129168
0.00025787117
0.00031362284
0.00036751906
0.00042068627
0.00047730513
0.00050015337
2.9068175e-05
2.9835918e-05
3.2052593e-05
3.7184894e-05
4.8283963e-05
6.9897011e-05
0.00010520803
0.00015244927
0.00020637898
0.00026215398
0.00031692224
0.00036985507
0.00042216446
0.00047806216
0.0005004372
2.8962867e-05
2.9836436e-05
3.234306e-05
3.8088889e-05
5.0309126e-05
7.3467965e-05
0.00011009045
0.00015778606
0.00021135559
0.0002663159
0.00032012133
0.00037211988
0.00042359917
0.00047880564
0.00050072628
2.8899222e-05
2.9891053e-05
3.2719382e-05
3.9135069e-05
5.2537033e-05
7.722855e-05
0.00011504426
0.00016307121
0.00021622098
0.00027036059
0.00032322398
0.00037431567
0.00042499301
0.0004795365
0.00050102049
2.8881092e-05
3.0004845e-05
3.3189249e-05
4.0333015e-05
5.4970635e-05
8.1165358e-05
0.00012005134
0.00016829614
0.00022097517
0.00027429159
0.00032623374
0.00037644519
0.00042634825
0.00048025527
0.00050131962
2.8912843e-05
3.0183461e-05
3.3760911e-05
4.169208e-05
5.7610805e-05
8.5263478e-05
0.00012509474
0.00017345361
0.00022561862
0.00027811227
0.00032915399
0.00037851131
0.00042766693
0.00048096239
0.00050162347
2.899939e-05
3.0433158e-05
3.4443145e-05
4.3221137e-05
6.045619e-05
8.95069e-05
0.00013015881
0.00017853761
0.00023015234
0.00028182655
0.00033198851
0.00038051464
0.00042895146
0.00048165857
0.00050193181
2.9146253e-05
3.076083e-05
3.5245175e-05
4.4928305e-05
6.3503155e-05
9.3878924e-05
0.00013522928
0.00018354321
0.00023457755
0.00028543753
0.00033473936
0.00038245843
0.00043020349
0.00048234443
0.00050224446
2.9359599e-05
3.1174023e-05
3.6176577e-05
4.682066e-05
6.6745807e-05
9.8362544e-05
0.00014029321
0.00018846638
0.00023889558
0.00028894804
0.0003374092
0.0003843456
0.00043142438
0.00048302045
0.00050256121
2.964629e-05
3.1680952e-05
3.7247136e-05
4.8903948e-05
7.0176113e-05
0.0001029408
0.00014533902
0.00019330384
0.00024310788
0.00029236082
0.00034000093
0.00038617877
0.00043261533
0.00048368696
0.00050288188
3.0013918e-05
3.229048e-05
3.8466671e-05
5.1182322e-05
7.378409e-05
0.00010759709
0.00015035639
0.00019805321
0.00024721663
0.00029567959
0.00034251504
0.00038796062
0.00043377768
0.00048434427
0.00050320624
3.0470839e-05
3.3012093e-05
3.9844822e-05
5.3658103e-05
7.755807e-05
0.00011231537
0.00015533621
0.00020271261
0.00025122341
0.00029890579
0.00034495515
0.00038969327
0.00043491263
0.00048499271
0.00050353409
3.1026189e-05
3.3855835e-05
4.1390805e-05
5.6331607e-05
8.1485e-05
0.00011708039
0.00016027045
0.00020728053
0.00025512965
0.00030204164
0.00034732441
0.00039137857
0.00043602123
0.00048563252
0.00050386522
3.168988e-05
3.4832215e-05
4.3113132e-05
5.9201035e-05
8.5550771e-05
0.00012187777
0.0001651521
0.00021175607
0.00025893733
0.0003050888
0.00034962567
0.00039301828
0.00043710439
0.00048626393
0.00050419945
3.2472576e-05
3.5952067e-05
4.5019323e-05
6.2262435e-05
8.9740556e-05
0.00012669412
0.00016997514
0.00021613886
0.00026264855
0.00030804847
0.0003518616
0.00039461412
0.00043816296
0.00048688709
0.00050453656
3.3385629e-05
3.7226371e-05
4.711561e-05
6.5509745e-05
9.4039123e-05
0.00013151702
0.00017473426
0.00022042827
0.00026626393
0.000310924
0.00035403448
0.00039616769
0.00043919773
0.00048750216
0.00050487636
3.4440976e-05
3.8666024e-05
4.9406658e-05
6.893492e-05
9.8431118e-05
0.00013633506
0.00017942476
0.00022462382
0.0002697848
0.0003137183
0.00035614638
0.00039768038
0.00044020941
0.00048810925
0.00050521864
3.5650979e-05
4.028157e-05
5.1895315e-05
7.2528115e-05
0.00010290134
0.0001411379
0.00018404317
0.00022872685
0.00027321046
0.00031643402
0.00035819937
0.00039915349
0.00044119865
0.00048870847
0.00050556321
3.7028212e-05
4.2082881e-05
5.4582415e-05
7.6277927e-05
0.00010743493
0.00014591609
0.00018858593
0.00023273615
0.00027654352
0.00031907352
0.00036019534
0.00040058824
0.00044216601
0.00048929987
0.00050590988
3.8585174e-05
4.4078816e-05
5.7466642e-05
8.0171659e-05
0.0001120175
0.0001506609
0.00019304971
0.00023665123
0.00027978647
0.00032163894
0.00036213599
0.00040198573
0.00044311203
0.0004898835
0.00050625845
4.0333941e-05
4.6276862e-05
6.0544471e-05
8.4195635e-05
0.00011663538
0.00015536496
0.00019743337
0.00024046998
0.00028294144
0.00032413237
0.00036402294
0.00040334696
0.00044403717
0.0004904594
0.00050660873
4.2285747e-05
4.8682777e-05
6.3810183e-05
8.8335472e-05
0.00012127554
0.00016002107
0.00020173337
0.0002441935
0.00028601037
0.00032655574
0.00036585763
0.00040467287
0.00044494184
0.00049102756
0.00050696053
4.4450522e-05
5.1300256e-05
6.725596e-05
9.2576341e-05
0.00012592562
0.00016462272
0.00020594648
0.0002478231
0.00028899507
0.00032891082
0.00036764143
0.00040596427
0.00044582641
0.00049158797
0.00050731366
4.683639e-05
5.4130649e-05
7.0872056e-05
9.6903316e-05
0.00013057445
0.00016916539
0.00021006858
0.00025135982
0.00029189728
0.00033119925
0.00036937556
0.00040722194
0.0004466912
0.0004921406
0.00050766794
4.944918e-05
5.7172741e-05
7.4646987e-05
0.0001013014
0.00013521093
0.00017364201
0.00021409912
0.00025480464
0.00029471861
0.00033342255
0.00037106116
0.00040844653
0.00044753648
0.0004926854
0.00050802318
5.2291961e-05
6.0422628e-05
7.8567864e-05
0.00010575617
0.00013982622
0.00017804501
0.0002180374
0.00025815851
0.00029746054
0.0003355821
0.00037269924
0.00040963865
0.00044836248
0.0004932223
0.00050837918
5.5364663e-05
6.3873667e-05
8.2620558e-05
0.00011025313
0.00014440985
0.00018236968
0.00022188268
0.00026142232
0.00030012444
0.00033767915
0.00037429071
0.00041079884
0.00044916937
0.00049375121
0.00050873577
5.8663817e-05
6.7516596e-05
8.679031e-05
0.00011477961
0.00014895008
0.00018661239
0.00022563435
0.0002645969
0.00030271154
0.00033971484
0.0003758364
0.00041192754
0.0004499573
0.00049427203
0.00050909276
6.2182435e-05
7.1339669e-05
9.106171e-05
0.00011932091
0.00015343802
0.00019076973
0.00022929187
0.00026768299
0.00030522296
0.00034169017
0.00037733702
0.00041302516
0.00045072638
0.00049478464
0.00050944996
6.5910122e-05
7.5329111e-05
9.5419513e-05
0.00012386164
0.00015786607
0.0001948386
0.00023285471
0.00027068126
0.00030765967
0.00034360604
0.0003787932
0.00041409201
0.00045147665
0.00049528888
0.00050980718
6.9833619e-05
7.9469632e-05
9.9845239e-05
0.00012838907
0.00016222718
0.00019881613
0.00023632237
0.00027359226
0.00031002255
0.00034546321
0.00038020546
0.00041512836
0.00045220814
0.00049578461
0.00051016423
7.3936116e-05
8.3742381e-05
0.00010432169
0.00013289121
0.00016651486
0.00020269968
0.00023969437
0.00027641646
0.00031231233
0.00034726236
0.00038157424
0.00041613438
0.00045292083
0.00049627163
0.00051052091
7.8197555e-05
8.8127365e-05
0.00010883196
0.00013735682
0.00017072313
0.0002064868
0.0002429702
0.00027915424
0.00031452962
0.00034900401
0.00038289989
0.00041711021
0.00045361465
0.00049674975
0.00051087703
8.2595707e-05
9.2603727e-05
0.00011335957
0.0001417754
0.00017484648
0.00021017523
0.00024614935
0.00028180586
0.00031667492
0.0003506886
0.00038418266
0.00041805591
0.00045428949
0.00049721874
0.00051123238
8.7106837e-05
9.7150171e-05
0.00011788865
0.00014613717
0.00017887987
0.00021376286
0.0002492313
0.00028437149
0.00031874859
0.00035231646
0.00038542272
0.00041897147
0.00045494521
0.00049767836
0.00051158676
9.1706366e-05
0.00010174537
0.00012240397
0.00015043307
0.00018281869
0.00021724777
0.0002522155
0.00028685122
0.0003207509
0.00035388779
0.00038662016
0.00041985683
0.00045558161
0.00049812834
0.00051193995
9.6369503e-05
0.00010636834
0.0001268911
0.00015465477
0.00018665876
0.00022062816
0.00025510142
0.00028924505
0.000322682
0.00035540271
0.00038777496
0.00042071186
0.00045619847
0.0004985684
0.00051229172
0.00010107181
0.00011099876
0.00013133645
0.00015879462
0.00019039629
0.00022390242
0.00025788852
0.0002915529
0.00032454195
0.00035686124
0.00038888705
0.00042153636
0.00045679551
0.00049899821
0.00051264185
0.00010578967
0.00011561726
0.00013572738
0.00016284565
0.00019402792
0.00022706912
0.0002605763
0.00029377464
0.00032633072
0.00035826332
0.00038995626
0.00042233008
0.00045737243
0.00049941745
0.0005129901
0.00011050071
0.00012020565
0.00014005217
0.00016680159
0.00019755068
0.00023012698
0.00026316427
0.00029591012
0.00032804819
0.00035960878
0.00039098237
0.00042309273
0.00045792885
0.00049982575
0.00051333621
0.00011518407
0.00012474706
0.00014430016
0.00017065683
0.00020096198
0.00023307493
0.00026565201
0.00029795912
0.00032969421
0.00036089741
0.00039196508
0.00042382394
0.0004584644
0.00050022272
0.00051367992
0.00011982063
0.0001292261
0.00014846167
0.00017440642
0.00020425965
0.0002359121
0.00026803917
0.00029992145
0.00033126856
0.00036212893
0.00039290404
0.0004245233
0.00045897865
0.00050060797
0.00051402096
0.00012439312
0.00013362889
0.00015252807
0.00017804604
0.00020744188
0.00023863784
0.0002703255
0.00030179693
0.00033277101
0.00036330303
0.00039379885
0.00042519038
0.00045947114
0.00050098107
0.00051435905
0.00012888617
0.00013794311
0.00015649178
0.00018157202
0.00021050727
0.00024125172
0.00027251085
0.00030358541
0.00033420131
0.00036441934
0.00039464907
0.00042582468
0.00045994139
0.00050134156
0.00051469389
0.00013328634
0.00014215798
0.00016034619
0.00018498128
0.00021345477
0.00024375352
0.00027459521
0.00030528678
0.00033555922
0.00036547749
0.00039545425
0.0004264257
0.00046038888
0.000501689
0.00051502517
0.00013758205
0.00014626424
0.00016408571
0.00018827133
0.00021628372
0.00024614328
0.00027657869
0.00030690105
0.00033684454
0.00036647714
0.00039621391
0.00042699292
0.00046081311
0.00050202291
0.00051535257
0.00014176348
0.00015025406
0.00016770568
0.00019144027
0.00021899379
0.00024842128
0.00027846159
0.00030842828
0.0003380571
0.00036741791
0.00039692758
0.00042752581
0.00046121353
0.00050234282
0.00051567576
0.00014582251
0.00015412096
0.00017120232
0.00019448671
0.000221585
0.000250588
0.00028024435
0.00030986866
0.00033919683
0.0003682995
0.00039759479
0.00042802383
0.00046158962
0.00050264825
0.00051599441
0.00014975257
0.00015785975
0.00017457271
0.00019740979
0.00022405772
0.00025264419
0.00028192759
0.0003112225
0.0003402637
0.00036912165
0.00039821513
0.00042848649
0.00046194085
0.00050293873
0.00051630816
0.00015354849
0.00016146641
0.00017781472
0.0002002091
0.00022641259
0.00025459082
0.0002835121
0.00031249025
0.0003412578
0.00036988417
0.00039878821
0.00042891329
0.00046226673
0.00050321378
0.00051661667
0.00015720642
0.00016493797
0.00018092695
0.00020288472
0.00022865057
0.00025642906
0.00028499887
0.00031367249
0.00034217934
0.00037058693
0.0003993137
0.0004293038
0.00046256678
0.00050347296
0.00051691957
0.00016072364
0.00016827246
0.00018390863
0.00020543711
0.00023077286
0.00025816031
0.00028638903
0.00031476997
0.00034302864
0.00037122993
0.00039979136
0.00042965762
0.00046284056
0.00050371586
0.00051721652
0.00016409848
0.00017146874
0.00018675965
0.00020786711
0.00023278093
0.00025978613
0.00028768393
0.00031578358
0.00034380615
0.00037181325
0.000400221
0.00042997444
0.00046308768
0.00050394207
0.00051750715
0.00016733016
0.00017452647
0.00018948039
0.00021017591
0.00023467649
0.00026130832
0.00028888504
0.00031671436
0.00034451246
0.00037233711
0.00040060257
0.00043025401
0.0004633078
0.00050415124
0.00051779112
0.00017041871
0.00017744597
0.00019207174
0.00021236501
0.00023646141
0.00026272878
0.00028999402
0.00031756353
0.00034514832
0.00037280182
0.00040093609
0.00043049616
0.00046350066
0.00050434307
0.00051806806
0.00017336485
0.00018022815
0.00019453503
0.00021443619
0.0002381378
0.00026404961
0.00029101266
0.00031833243
0.00034571458
0.00037320786
0.00040122171
0.00043070083
0.00046366606
0.00050451728
0.00051833766
0.00017616986
0.00018287444
0.00019687195
0.00021639146
0.00023970788
0.00026527303
0.00029194291
0.00031902256
0.00034621229
0.00037355583
0.00040145969
0.00043086805
0.0004638039
0.00050467367
0.00051859959
0.00017883557
0.00018538672
0.00019908451
0.00021823307
0.00024117407
0.00026640138
0.00029278681
0.00031963555
0.0003466426
0.00037384645
0.00040165043
0.00043099795
0.00046391413
0.00050481211
0.00051885353
0.00018136421
0.00018776722
0.00020117501
0.00021996342
0.00024253886
0.00026743711
0.00029354655
0.00032017316
0.00034700681
0.00037408061
0.00040179445
0.0004310908
0.00046399684
0.0005049325
0.00051909921
0.00018375838
0.00019001852
0.00020314599
0.00022158511
0.00024380489
0.00026838276
0.0002942244
0.00032063727
0.00034730635
0.00037425931
0.00040189238
0.00043114696
0.00046405217
0.00050503484
0.00051933636
0.00018602096
0.00019214342
0.0002050002
0.00022310085
0.00024497486
0.00026924094
0.00029482274
0.00032102987
0.00034754279
0.00037438369
0.00040194501
0.00043116691
0.00046408038
0.00050511918
0.00051956473
0.00018815509
0.00019414498
0.00020674054
0.00022451347
0.00024605157
0.00027001433
0.000295344
0.00032135306
0.00034771779
0.000374455
0.00040195323
0.00043115125
0.00046408182
0.00050518565
0.00051978411
0.00019016408
0.00019602639
0.00020837004
0.00022582587
0.00024703785
0.00027070567
0.00029579069
0.000321609
0.00034783314
0.00037447464
0.00040191808
0.0004311007
0.00046405695
0.00050523445
0.00051999431
0.00019205141
0.000197791
0.00020989185
0.00022704105
0.00024793659
0.00027131773
0.00029616538
0.00032179994
0.00034789071
0.00037444409
0.00040184067
0.00043101608
0.00046400632
0.00050526585
0.00052019518
0.00019382066
0.00019944225
0.00021130919
0.00022816204
0.00024875071
0.00027185331
0.00029647067
0.00032192821
0.00034789247
0.00037436496
0.00040172227
0.00043089832
0.00046393054
0.00050528019
0.00052038659
0.0001954755
0.00020098368
0.00021262536
0.00022919193
0.00024948315
0.00027231521
0.00029670919
0.00032199618
0.00034784048
0.00037423894
0.00040156421
0.00043074843
0.00046383036
0.00050527785
0.00052056844
0.00019701965
0.00020241885
0.00021384368
0.00023013382
0.00025013686
0.00027270627
0.00029688361
0.00032200625
0.00034773682
0.00037406779
0.00040136793
0.00043056755
0.00046370656
0.00050525931
0.00052074066
0.00019845686
0.00020375136
0.00021496749
0.00023099081
0.00025071479
0.0002730293
0.00029699657
0.00032196088
0.00034758367
0.00037385338
0.00040113497
0.00043035686
0.00046356003
0.00050522508
0.00052090323
0.00019979088
0.00020498482
0.00021600015
0.00023176602
0.00025121988
0.00027328713
0.00029705077
0.00032186253
0.00034738325
0.0003735976
0.00040086691
0.00043011766
0.00046339172
0.00050517574
0.00052105615
0.00020102547
0.00020612283
0.000216945
0.00023246254
0.00025165505
0.00027348255
0.00029704886
0.00032171368
0.00034713778
0.00037330243
0.00040056542
0.00042985128
0.00046320263
0.00050511189
0.00052119944
0.00020216435
0.00020716899
0.00021780538
0.00023308346
0.0002520232
0.00027361833
0.00029699349
0.00032151683
0.00034684955