/*--------------------------------*- C++ -*----------------------------------*\
| =========                 |                                                 |
| \\      /  F ield         | OpenFOAM: The Open Source CFD Toolbox           |
|  \\    /   O peration     | Version:  2506                                  |
|   \\  /    A nd           | Website:  www.openfoam.com                      |
|    \\/     M anipulation  |                                                 |
\*---------------------------------------------------------------------------*/
FoamFile
{
    version     2.0;
    format      ascii;
    arch        "LSB;label=32;scalar=64";
    class       volScalarField;
    location    "20000/water";
    object      nut;
}
// * * * * * * * * * * * * * * * * * * * * * * * * * * * * * * * * * * * * * //

dimensions      [0 2 -1 0 0 0 0];

internalField   nonuniform List<scalar> 
6000
(
4.1367308e-05
4.1367285e-05
4.1367292e-05
4.1367317e-05
4.136735e-05
4.1367394e-05
4.1367445e-05
4.1367477e-05
4.1367269e-05
4.1365028e-05
4.1345959e-05
4.1185428e-05
3.984402e-05
3.0619188e-05
1.3489073e-05
4.0862094e-05
4.0862089e-05
4.0862128e-05
4.0862206e-05
4.086231e-05
4.0862441e-05
4.0862573e-05
4.0862525e-05
4.0861044e-05
4.0849566e-05
4.0769767e-05
4.0233638e-05
3.6930279e-05
2.3809326e-05
1.5168915e-05
4.0408426e-05
4.0408431e-05
4.0408496e-05
4.0408619e-05
4.040878e-05
4.0408965e-05
4.0409066e-05
4.0408421e-05
4.0403049e-05
4.0369314e-05
4.0169922e-05
3.9053519e-05
3.3674827e-05
1.9530254e-05
1.6389796e-05
3.9998212e-05
3.9998216e-05
3.9998298e-05
3.9998456e-05
3.9998657e-05
3.9998846e-05
3.9998699e-05
3.999645e-05
3.9982628e-05
3.9907469e-05
3.9519874e-05
3.7665236e-05
3.0439418e-05
1.6813321e-05
1.7227565e-05
3.9625122e-05
3.9625133e-05
3.9625231e-05
3.9625419e-05
3.9625638e-05
3.9625739e-05
3.9624947e-05
3.9619415e-05
3.959045e-05
3.9450123e-05
3.8807695e-05
3.6131535e-05
2.7477322e-05
1.5090355e-05
1.7763765e-05
3.9283984e-05
3.9284007e-05
3.9284119e-05
3.9284324e-05
3.9284521e-05
3.9284369e-05
3.9282279e-05
3.9270986e-05
3.9218236e-05
3.8986823e-05
3.8033859e-05
3.4524992e-05
2.4897642e-05
1.400968e-05
1.8072537e-05
3.8970512e-05
3.8970546e-05
3.8970668e-05
3.8970871e-05
3.8970973e-05
3.8970306e-05
3.8965958e-05
3.8945612e-05
3.8858945e-05
3.8510812e-05
3.7207229e-05
3.2908964e-05
2.2716803e-05
1.3360893e-05
1.8215906e-05
3.8681158e-05
3.8681199e-05
3.8681323e-05
3.8681493e-05
3.8681392e-05
3.8679823e-05
3.8671916e-05
3.8638477e-05
3.8506919e-05
3.801881e-05
3.6341286e-05
3.1331233e-05
2.0908463e-05
1.30184e-05
1.8243034e-05
3.841296e-05
3.8413006e-05
3.8413119e-05
3.8413209e-05
3.8412743e-05
3.8409742e-05
3.8396631e-05
3.8345462e-05
3.8157885e-05
3.7510375e-05
3.5450851e-05
2.9823717e-05
1.9431977e-05
1.2906145e-05
1.8191421e-05
3.816343e-05
3.8163474e-05
3.8163556e-05
3.8163497e-05
3.8162446e-05
3.8157327e-05
3.8137042e-05
3.8063106e-05
3.7808869e-05
3.6987081e-05
3.454982e-05
2.8405299e-05
1.8246291e-05
1.2977275e-05
1.8088864e-05
3.7930458e-05
3.7930491e-05
3.7930513e-05
3.793021e-05
3.7928279e-05
3.7920197e-05
3.7890497e-05
3.7788579e-05
3.7458031e-05
3.6451747e-05
3.3649968e-05
2.7085594e-05
1.7315649e-05
1.3202296e-05
1.7955551e-05
3.7712242e-05
3.7712253e-05
3.7712173e-05
3.7711499e-05
3.7708322e-05
3.7696279e-05
3.7654711e-05
3.7519641e-05
3.7104472e-05
3.5907781e-05
3.2760531e-05
2.58684e-05
1.6611172e-05
1.3561911e-05
1.7805936e-05
3.7507239e-05
3.7507212e-05
3.7506973e-05
3.7505765e-05
3.7500895e-05
3.7483757e-05
3.7427744e-05
3.725459e-05
3.6748014e-05
3.5358688e-05
3.188827e-05
2.4754408e-05
1.6110613e-05
1.4042468e-05
1.7650267e-05
3.7314115e-05
3.7314026e-05
3.7313557e-05
3.7311613e-05
3.7304527e-05
3.7281048e-05
3.7207963e-05
3.6992195e-05
3.6389e-05
3.4807726e-05
3.1037799e-05
2.3743174e-05
1.5797412e-05
1.4632945e-05
1.7495753e-05
3.7131708e-05
3.713153e-05
3.7130739e-05
3.7127817e-05
3.7117921e-05
3.7086772e-05
3.6994026e-05
3.6731629e-05
3.6028109e-05
3.4257704e-05
3.0212055e-05
2.2834479e-05
1.5659519e-05
1.5322866e-05
1.7347422e-05
3.6959006e-05
3.6958703e-05
3.6957478e-05
3.6953298e-05
3.6939934e-05
3.6899735e-05
3.6784847e-05
3.64724e-05
3.5666203e-05
3.3710866e-05
2.9412801e-05
2.2029191e-05
1.5688155e-05
1.6100896e-05
1.7208725e-05
3.6795116e-05
3.6794644e-05
3.6792855e-05
3.6787094e-05
3.6769555e-05
3.6718912e-05
3.6579574e-05
3.6214282e-05
3.5304204e-05
3.3168861e-05
2.8641157e-05
2.132974e-05
1.587657e-05
1.695401e-05
1.7081944e-05
3.6639251e-05
3.6638559e-05
3.6636051e-05
3.6628355e-05
3.6605895e-05
3.6543431e-05
3.637756e-05
3.5957252e-05
3.4942996e-05
3.2632763e-05
2.789813e-05
2.0740252e-05
1.6218811e-05
1.7867211e-05
1.6968459e-05
3.6490711e-05
3.6489738e-05
3.6486338e-05
3.6476321e-05
3.6448171e-05
3.6372563e-05
3.6178336e-05
3.5701433e-05
3.4583359e-05
3.2103134e-05
2.7185145e-05
2.0266398e-05
1.6708562e-05
1.8823778e-05
1.6868922e-05
3.6348869e-05
3.6347546e-05
3.6343063e-05
3.6330312e-05
3.62957e-05
3.6205706e-05
3.5981587e-05
3.5447046e-05
3.4225914e-05
3.1580129e-05
2.6504571e-05
1.991497e-05
1.7338099e-05
1.9805967e-05
1.6783375e-05
3.6213165e-05
3.6211415e-05
3.6205638e-05
3.6189726e-05
3.6147887e-05
3.6042373e-05
3.5787125e-05
3.5194368e-05
3.3871092e-05
3.1063631e-05
2.5860194e-05
1.9693245e-05
1.8097487e-05
2.0796033e-05
1.6711346e-05
3.6083093e-05
3.6080831e-05
3.6073537e-05
3.6054024e-05
3.6004223e-05
3.5882185e-05
3.5594869e-05
3.4943693e-05
3.3519118e-05
3.0553441e-05
2.5257605e-05
1.96082e-05
1.8974102e-05
2.1777346e-05
1.6651939e-05
3.5958194e-05
3.5955329e-05
3.5946284e-05
3.592273e-05
3.5864274e-05
3.5724854e-05
3.5404824e-05
3.4695304e-05
3.3170007e-05
3.0049498e-05
2.4704419e-05
1.9665646e-05
1.9952578e-05
2.2735414e-05
1.660395e-05
3.5838054e-05
3.5834489e-05
3.582345e-05
3.5795422e-05
3.5727676e-05
3.5570179e-05
3.521706e-05
3.444945e-05
3.2823581e-05
2.9552162e-05
2.4210265e-05
1.9869402e-05
2.1015193e-05
2.3658589e-05
1.6565971e-05
3.5722292e-05
3.5717927e-05
3.5704651e-05
3.5671733e-05
3.5594133e-05
3.5418031e-05
3.50317e-05
3.4206321e-05
3.2479493e-05
2.9062524e-05
2.3786503e-05
2.022057e-05
2.214264e-05
2.4538397e-05
1.6536511e-05
3.5610563e-05
3.5605296e-05
3.558954e-05
3.5551342e-05
3.5463408e-05
3.5268352e-05
3.48489e-05
3.3966035e-05
3.2137286e-05
2.858275e-05
2.3445668e-05
2.0717024e-05
2.3315071e-05
2.5369466e-05
1.6514097e-05
3.5502551e-05
3.549628e-05
3.5477808e-05
3.5433974e-05
3.5335321e-05
3.5121137e-05
3.466884e-05
3.3728621e-05
3.1796463e-05
2.8116417e-05
2.3200675e-05
2.1353141e-05
2.4513224e-05
2.6149157e-05
1.6497357e-05
3.5397967e-05
3.539059e-05
3.536918e-05
3.5319398e-05
3.5209747e-05
3.4976437e-05
3.4491706e-05
3.3494016e-05
3.14566e-05
2.7668794e-05
2.3063903e-05
2.2119832e-05
2.5719464e-05
2.6877011e-05
1.6485071e-05
3.5296546e-05
3.5287966e-05
3.5263414e-05
3.5207424e-05
3.5086609e-05
3.4834344e-05
3.4317681e-05
3.3262058e-05
3.1117487e-05
2.7247026e-05
2.3046253e-05
2.3004861e-05
2.6918581e-05
2.7554165e-05
1.6476201e-05
3.5198047e-05
3.5188175e-05
3.5160297e-05
3.5097901e-05
3.4965875e-05
3.4694991e-05
3.4146934e-05
3.3032492e-05
3.0779305e-05
2.6860148e-05
2.3156315e-05
2.3993438e-05
2.8098247e-05
2.8182808e-05
1.6469894e-05
3.5102251e-05
3.5091004e-05
3.5059649e-05
3.4990715e-05
3.4847558e-05
3.4558539e-05
3.3979609e-05
3.2804987e-05
3.0442844e-05
2.6518902e-05
2.3399717e-05
2.5069008e-05
2.9249139e-05
2.8765761e-05
1.6465472e-05
3.5008959e-05
3.4996268e-05
3.4961317e-05
3.488579e-05
3.4731711e-05
3.4425177e-05
3.3815813e-05
3.2579164e-05
3.0109733e-05
2.6235324e-05
2.3778718e-05
2.6214169e-05
3.0364756e-05
2.9306158e-05
1.646241e-05
3.4917993e-05
3.4903801e-05
3.4865175e-05
3.4783085e-05
3.4618425e-05
3.4295113e-05
3.3655609e-05
3.235464e-05
2.9782688e-05
2.6022143e-05
2.4292061e-05
2.7411592e-05
3.1441033e-05
2.9807247e-05
1.6460314e-05
3.4829195e-05
3.4813462e-05
3.4771128e-05
3.4682592e-05
3.4507829e-05
3.416857e-05
3.3499011e-05
3.2131095e-05
2.9465732e-05
2.5892042e-05
2.4935075e-05
2.864486e-05
3.2475856e-05
3.0272256e-05
1.6458891e-05
3.4742423e-05
3.4725129e-05
3.4679107e-05
3.4584339e-05
3.4400083e-05
3.4045774e-05
3.3345975e-05
3.1908365e-05
2.9164364e-05
2.5856858e-05
2.5699994e-05
2.9899126e-05
3.3468559e-05
3.0704314e-05
1.6457936e-05
3.465756e-05
3.4638706e-05
3.4589068e-05
3.4488387e-05
3.4295378e-05
3.3926957e-05
3.3196403e-05
3.1686556e-05
2.8885629e-05
2.592684e-05
2.657646e-05
3.1161551e-05
3.4419486e-05
3.1106401e-05
1.6457305e-05
3.4574503e-05
3.4554114e-05
3.4500999e-05
3.4394828e-05
3.4193938e-05
3.381234e-05
3.3050148e-05
3.1466195e-05
2.8638065e-05
2.6110011e-05
2.7552151e-05
3.2421505e-05
3.5329637e-05
3.1481315e-05
1.6456902e-05
3.4493171e-05
3.4471301e-05
3.4414911e-05
3.4303789e-05
3.409601e-05
3.3702133e-05
3.2907027e-05
3.124839e-05
2.8431494e-05
2.641172e-05
2.8613487e-05
3.3670558e-05
3.6200411e-05
3.1831644e-05
1.6456669e-05
3.4413502e-05
3.4390234e-05
3.4330848e-05
3.4215429e-05
3.4001867e-05
3.3596524e-05
3.2766849e-05
3.1035014e-05
2.8276659e-05
2.6834396e-05
2.9746336e-05
3.4902301e-05
3.7033432e-05
3.2159763e-05
1.6456572e-05
3.4335456e-05
3.4310905e-05
3.4248878e-05
3.4129939e-05
3.3911801e-05
3.3495676e-05
3.2629453e-05
3.0828886e-05
2.8184733e-05
2.7377505e-05
3.0936684e-05
3.6112073e-05
3.7830441e-05
3.2467824e-05
1.6456596e-05
3.4259011e-05
3.423333e-05
3.4169102e-05
3.4047543e-05
3.3826124e-05
3.3399718e-05
3.2494766e-05
3.0633923e-05
2.8166735e-05
2.8037697e-05
3.2171198e-05
3.729664e-05
3.8593225e-05
3.2757764e-05
1.6456739e-05
3.4184168e-05
3.4157548e-05
3.409165e-05
3.3968498e-05
3.3745158e-05
3.3308744e-05
3.236288e-05
3.0455256e-05
2.8232929e-05
2.8809111e-05
3.3437654e-05
3.8453884e-05
3.9323579e-05
3.3031312e-05
1.6457005e-05
3.4110952e-05
3.4083626e-05
3.4016682e-05
3.3893092e-05
3.3669236e-05
3.3222813e-05
3.2234152e-05
3.0299254e-05
2.8392249e-05
2.9683795e-05
3.4725218e-05
3.9582518e-05
4.0023272e-05
3.329001e-05
1.6457402e-05
3.4039411e-05
3.4011658e-05
3.3944392e-05
3.3821645e-05
3.3598692e-05
3.3141955e-05
3.210932e-05
3.0173467e-05
2.8651824e-05
3.0652201e-05
3.6024577e-05
4.0681872e-05
4.0694029e-05
3.3535221e-05
1.6457942e-05
3.3969616e-05
3.3941763e-05
3.3875008e-05
3.3754507e-05
3.3533858e-05
3.306618e-05
3.1989642e-05
3.0086446e-05
2.9016629e-05
3.1703723e-05
3.7327939e-05
4.1751715e-05
4.133751e-05
3.3768157e-05
1.6458635e-05
3.3901667e-05
3.3874095e-05
3.3808792e-05
3.3692059e-05
3.3475059e-05
3.2995506e-05
3.1877039e-05
3.0047454e-05
2.9489293e-05
3.2827222e-05
3.8628942e-05
4.2792137e-05
4.1955301e-05
3.3989888e-05
1.6459492e-05
3.3835691e-05
3.3808835e-05
3.3746042e-05
3.3634709e-05
3.3422602e-05
3.292999e-05
3.1774236e-05
3.0066079e-05
3.007006e-05
3.4011507e-05
3.9922492e-05
4.3803461e-05
4.2548904e-05
3.4201365e-05
1.6460521e-05
3.3771846e-05
3.3746203e-05
3.3687095e-05
3.3582889e-05
3.3376777e-05
3.2869779e-05
3.1684883e-05
3.015179e-05
3.0756884e-05
3.5245744e-05
4.1204585e-05
4.4786181e-05
4.311973e-05
3.4403429e-05
1.6461728e-05
3.3710322e-05
3.3686449e-05
3.3632325e-05
3.3537056e-05
3.3337852e-05
3.2815178e-05
3.1613635e-05
3.0313463e-05
3.1545657e-05
3.6519779e-05
4.2472113e-05
4.5740921e-05
4.3669103e-05
3.4596827e-05
1.6463121e-05
3.3651343e-05
3.3629867e-05
3.3582146e-05
3.3497682e-05
3.330607e-05
3.2766733e-05
3.1566171e-05
3.0558937e-05
3.2430513e-05
3.7824347e-05
4.3722694e-05
4.6668397e-05
4.4198256e-05
3.4782226e-05
1.6464701e-05
3.359517e-05
3.3576787e-05
3.3537013e-05
3.3465256e-05
3.3281658e-05
3.2725335e-05
3.154914e-05
3.0894628e-05
3.3404206e-05
3.9151201e-05
4.4954526e-05
4.7569392e-05
4.4708338e-05
3.4960217e-05
1.6466471e-05
3.3542106e-05
3.3527584e-05
3.3497422e-05
3.3440275e-05
3.3264836e-05
3.2692332e-05
3.1570014e-05
3.1325239e-05
3.4458506e-05
4.0493144e-05
4.6166269e-05
4.844473e-05
4.5200418e-05
3.5131332e-05
1.6468431e-05
3.3492497e-05
3.3482682e-05
3.3463909e-05
3.3423237e-05
3.3255835e-05
3.2669655e-05
3.1636857e-05
3.1853586e-05
3.5584593e-05
4.1843998e-05
4.7356952e-05
4.9295256e-05
4.5675489e-05
3.5296045e-05
1.647058e-05
3.3446735e-05
3.3442548e-05
3.3437051e-05
3.3414643e-05
3.3254933e-05
3.265993e-05
3.1758022e-05
3.2480538e-05
3.6773431e-05
4.3198532e-05
4.85259e-05
5.0121826e-05
4.6134475e-05
3.5454785e-05
1.6472917e-05
3.3405264e-05
3.3407707e-05
3.341746e-05
3.3414981e-05
3.3262496e-05
3.2666583e-05
3.1941786e-05
3.3205066e-05
3.8016085e-05
4.455236e-05
4.9672681e-05
5.092529e-05
4.6578233e-05
3.5607936e-05
1.6475437e-05
3.3368581e-05
3.3378733e-05
3.3405791e-05
3.3424734e-05
3.327904e-05
3.2693899e-05
3.2195975e-05
3.4024398e-05
3.9303977e-05
4.5901828e-05
5.079706e-05
5.1706483e-05
4.7007559e-05
3.5755847e-05
1.6478139e-05
3.3337244e-05
3.3356261e-05
3.3402726e-05
3.3444372e-05
3.3305307e-05
3.2747042e-05
3.2527598e-05
3.4934238e-05
4.0629076e-05
4.7243912e-05
5.1898963e-05
5.2466223e-05
4.7423194e-05
3.5898833e-05
1.6481016e-05
3.3311875e-05
3.3340983e-05
3.340898e-05
3.3474358e-05
3.3342355e-05
3.2832e-05
3.294252e-05
3.5929044e-05
4.1984019e-05
4.8576118e-05
5.2978446e-05
5.3205305e-05
4.7825827e-05
3.6037183e-05
1.6484065e-05
3.3293163e-05
3.3333652e-05
3.3425294e-05
3.3515161e-05
3.3391662e-05
3.295547e-05
3.344521e-05
3.7002335e-05
4.3362168e-05
4.9896398e-05
5.4035667e-05
5.3924494e-05
4.8216099e-05
3.6171157e-05
1.648728e-05
3.328187e-05
3.3335085e-05
3.3452425e-05
3.356727e-05
3.3455229e-05
3.3124659e-05
3.4038579e-05
3.8147001e-05
4.4757625e-05
5.120308e-05
5.5070868e-05
5.462453e-05
4.8594606e-05
3.6300996e-05
1.6490656e-05
3.3278836e-05
3.3346162e-05
3.3491148e-05
3.3631231e-05
3.3535689e-05
3.334703e-05
3.47239e-05
3.9355591e-05
4.6165204e-05
5.2494812e-05
5.6084353e-05
5.5306125e-05
4.8961906e-05
3.642692e-05
1.6494188e-05
3.3284986e-05
3.3367825e-05
3.3542247e-05
3.3707681e-05
3.3636385e-05
3.3630003e-05
3.550083e-05
4.0620584e-05
4.7580385e-05
5.3770513e-05
5.7076476e-05
5.596996e-05
4.9318521e-05
3.6549139e-05
1.6497869e-05
3.3301329e-05
3.3401078e-05
3.3606513e-05
3.3797413e-05
3.3761426e-05
3.3980629e-05
3.6367507e-05
4.1934597e-05
4.8999247e-05
5.5029328e-05
5.8047622e-05
5.6616667e-05
4.9664832e-05
3.666708e-05
1.6501693e-05
3.3328965e-05
3.3446986e-05
3.3684746e-05
3.3901444e-05
3.3915697e-05
3.4405281e-05
3.7320718e-05
4.3290562e-05
5.0418408e-05
5.6270596e-05
5.8998193e-05
5.7246842e-05
5.0001238e-05
3.6781081e-05
1.6505652e-05
3.3369089e-05
3.3506669e-05
3.3777755e-05
3.4021101e-05
3.4104809e-05
3.4909369e-05
3.8356105e-05
4.4681838e-05
5.1834957e-05
5.7493817e-05
5.9928608e-05
5.7861054e-05
5.0328142e-05
3.6891447e-05
1.6509737e-05
3.3422992e-05
3.3581301e-05
3.3886375e-05
3.4158117e-05
3.4334988e-05
3.5497112e-05
3.9468411e-05
4.610229e-05
5.3246394e-05
5.8698629e-05
6.0839296e-05
5.8459858e-05
5.0645956e-05
3.6998446e-05
1.6513939e-05
3.3492063e-05
3.3672103e-05
3.4011483e-05
3.4314728e-05
3.4612903e-05
3.6171387e-05
4.0651731e-05
4.7546319e-05
5.4650581e-05
5.9884783e-05
6.1730687e-05
5.904373e-05
5.095464e-05
3.7102363e-05
1.6518251e-05
3.3577786e-05
3.3780341e-05
3.4154033e-05
3.4493765e-05
3.4945431e-05
3.6933645e-05
4.189975e-05
4.900887e-05
5.6045692e-05
6.1052124e-05
6.2603204e-05
5.9613116e-05
5.1254409e-05
3.7203361e-05
1.6522664e-05
3.3681745e-05
3.390732e-05
3.43151e-05
3.4698724e-05
3.5339397e-05
3.7783914e-05
4.3205964e-05
5.0485411e-05
5.7430176e-05
6.2200575e-05
6.3457265e-05
6.0168471e-05
5.1545766e-05
3.7301527e-05
1.6527174e-05
3.3805612e-05
3.4054384e-05
3.449594e-05
3.4933809e-05
3.5801282e-05
3.8720862e-05
4.4563876e-05
5.1971905e-05
5.8802719e-05
6.3330122e-05
6.4293291e-05
6.0710259e-05
5.1829147e-05
3.7396969e-05
1.6531776e-05
3.3951152e-05
3.4222919e-05
3.4698064e-05
3.5203927e-05
3.6336946e-05
3.974193e-05
4.596714e-05
5.3464767e-05
6.0162212e-05
6.4440806e-05
6.5111688e-05
6.1238813e-05
5.2104958e-05
3.7489814e-05
1.6536466e-05
3.412021e-05
3.4414362e-05
3.4923323e-05
3.5514631e-05
3.6951371e-05
4.08435e-05
4.7409681e-05
5.496083e-05
6.150773e-05
6.5532708e-05
6.5912805e-05
6.1754119e-05
5.2373586e-05
3.758021e-05
1.6541242e-05
3.4314712e-05
3.463022e-05
3.5174002e-05
3.5872001e-05
3.7648464e-05
4.2021097e-05
4.8885774e-05
5.6457298e-05
6.2838497e-05
6.6605936e-05
6.6697007e-05
6.2256747e-05
5.2635237e-05
3.766826e-05
1.65461e-05
3.4536657e-05
3.48721e-05
3.545291e-05
3.6282469e-05
3.8430904e-05
4.3269594e-05
5.0390087e-05
5.7951709e-05
6.415387e-05
6.7660625e-05
6.7464677e-05
6.274721e-05
5.2890132e-05
3.775405e-05
1.6551039e-05
3.478812e-05
3.5141749e-05
3.5763459e-05
3.6752597e-05
3.9300077e-05
4.4583427e-05
5.1917708e-05
5.9441899e-05
6.5453318e-05
6.8696941e-05
6.8216214e-05
6.3225967e-05
5.31385e-05
3.783766e-05
1.6556054e-05
3.5071253e-05
3.5441116e-05
3.6109719e-05
3.7288823e-05
4.0256062e-05
4.5956778e-05
5.3464141e-05
6.0925972e-05
6.6736413e-05
6.9715027e-05
6.8951516e-05
6.3693481e-05
5.3380591e-05
3.7919185e-05
1.6561142e-05
3.5388304e-05
3.5772424e-05
3.6496432e-05
3.7897187e-05
4.1297692e-05
4.7383748e-05
5.50253e-05
6.2402265e-05
6.8002801e-05
7.0715036e-05
6.9671062e-05
6.4150062e-05
5.3616615e-05
3.7998712e-05
1.6566299e-05
3.5741638e-05
3.6138251e-05
3.6928981e-05
3.8583077e-05
4.2422665e-05
4.8858498e-05
5.6597482e-05
6.3869321e-05
6.9252189e-05
7.1697158e-05
7.0375325e-05
6.459601e-05
5.3846757e-05
3.8076316e-05
1.6571522e-05
3.6133781e-05
3.6541625e-05
3.7413295e-05
3.9350996e-05
4.3627688e-05
5.037535e-05
5.8177345e-05
6.5325861e-05
7.0484351e-05
7.2661617e-05
7.106474e-05
6.503162e-05
5.4071197e-05
3.8152062e-05
1.6576808e-05
3.6567469e-05
3.6986109e-05
3.7955707e-05
4.0204381e-05
4.4908659e-05
5.1928871e-05
5.9761883e-05
6.6770782e-05
7.1699102e-05
7.3608262e-05
7.173969e-05
6.5457192e-05
5.4290124e-05
3.8226012e-05
1.6582153e-05
3.7045724e-05
3.747587e-05
3.8562745e-05
4.1145484e-05
4.6260845e-05
5.3513925e-05
6.1348392e-05
6.8203102e-05
7.2896268e-05
7.4537393e-05
7.2400525e-05
6.5872988e-05
5.4503715e-05
3.8298226e-05
1.6587554e-05
3.757193e-05
3.8015724e-05
3.9240893e-05
4.2175308e-05
4.7679073e-05
5.5125701e-05
6.293444e-05
6.9621953e-05
7.4075737e-05
7.5449336e-05
7.3047563e-05
6.6279256e-05
5.471213e-05
3.836876e-05
1.6593008e-05
3.8149922e-05
3.8611129e-05
3.9996328e-05
4.3293618e-05
4.9157893e-05
5.6759725e-05
6.4517845e-05
7.1026581e-05
7.5237367e-05
7.6344372e-05
7.3681102e-05
6.667624e-05
5.4915516e-05
3.8437662e-05
1.659851e-05
3.8784053e-05
3.9268127e-05
4.0834653e-05
4.4499004e-05
5.0691735e-05
5.8411864e-05
6.6096654e-05
7.2416318e-05
7.6380947e-05
7.722275e-05
7.4301418e-05
6.706418e-05
5.5114012e-05
3.8504979e-05
1.6604058e-05
3.9479252e-05
3.9993219e-05
4.1760652e-05
4.5788988e-05
5.2275028e-05
6.0078308e-05
6.7669097e-05
7.3790539e-05
7.7506501e-05
7.8084773e-05
7.4908774e-05
6.7443301e-05
5.5307755e-05
3.8570752e-05
1.6609648e-05
4.0241022e-05
4.0793176e-05
4.2778089e-05
4.7160174e-05
5.3902305e-05
6.1755554e-05
6.9233572e-05
7.5148713e-05
7.8614116e-05
7.8930699e-05
7.5503424e-05
6.7813811e-05
5.5496865e-05
3.8635021e-05
1.6615278e-05
4.1075395e-05
4.1674792e-05
4.3889561e-05
4.8608408e-05
5.5568275e-05
6.344041e-05
7.0788672e-05
7.6490237e-05
7.9703723e-05
7.9760731e-05
7.6085619e-05
6.8175905e-05
5.568146e-05
3.869782e-05
1.6620943e-05
4.1988798e-05
4.2644602e-05
4.5096404e-05
5.0128953e-05
5.7267877e-05
6.5129932e-05
7.2333052e-05
7.7814648e-05
8.0775514e-05
8.0575073e-05
7.6655596e-05
6.8529771e-05
5.5861647e-05
3.8759183e-05
1.662664e-05
4.2987854e-05
4.3708573e-05
4.6398679e-05
5.1716654e-05
5.8996299e-05
6.6821407e-05
7.3865492e-05
7.9121634e-05
8.1829623e-05
8.1373926e-05
7.7213571e-05
6.8875584e-05
5.6037524e-05
3.8819138e-05
1.6632367e-05
4.4079103e-05
4.4871805e-05
4.7795203e-05
5.3366092e-05
6.0749025e-05
6.85124e-05
7.5384851e-05
8.0410724e-05
8.2866097e-05
8.2157488e-05
7.7759753e-05
6.9213505e-05
5.6209185e-05
3.8877713e-05
1.663812e-05
4.5268662e-05
4.6138255e-05
4.9283635e-05
5.5071714e-05
6.2521797e-05
7.0200589e-05
7.6890028e-05
8.1681824e-05
8.3884999e-05
8.2925941e-05
7.8294334e-05
6.9543684e-05
5.6376715e-05
3.8934931e-05
1.6643896e-05
4.6561859e-05
4.7510516e-05
5.08606e-05
5.6827941e-05
6.431062e-05
7.1883824e-05
7.8380081e-05
8.2934806e-05
8.4886397e-05
8.3679453e-05
7.8817494e-05
6.9866263e-05
5.6540192e-05
3.8990813e-05
1.6649692e-05
4.7962862e-05
4.8989655e-05
5.2521832e-05
5.8629268e-05
6.6111806e-05
7.3560136e-05
7.9853987e-05
8.4169449e-05
8.5870354e-05
8.4418181e-05
7.9329399e-05
7.0181368e-05
5.6699685e-05
3.9045379e-05
1.6655504e-05
4.9474337e-05
5.0575127e-05
5.4262324e-05
6.0470286e-05
6.7921804e-05
7.5227563e-05
8.1311257e-05
8.538557e-05
8.683692e-05
8.5142266e-05
7.98302e-05
7.0489118e-05
5.6855261e-05
3.9098645e-05
1.6661331e-05
5.1097186e-05
5.2264756e-05
5.6076493e-05
6.2345787e-05
6.9737348e-05
7.6884152e-05
8.2751267e-05
8.6582994e-05
8.7786138e-05
8.5851834e-05
8.0320033e-05
7.0789617e-05
5.7006976e-05
3.9150625e-05
1.6667167e-05
5.2830361e-05
5.4054788e-05
5.7958288e-05
6.4250669e-05
7.1555208e-05
7.8528509e-05
8.4173406e-05
8.7761545e-05
8.8718034e-05
8.6546994e-05
8.0799022e-05
7.1082962e-05
5.7154882e-05
3.9201329e-05
1.6673012e-05
5.4670804e-05
5.5940011e-05
5.9901351e-05
6.618004e-05
7.3372149e-05
8.0159339e-05
8.5577099e-05
8.8921044e-05
8.9632621e-05
8.7227841e-05
8.1267274e-05
7.1369236e-05
5.7299023e-05
3.9250769e-05
1.667886e-05
5.6613487e-05
5.7913891e-05
6.1899019e-05
6.8128972e-05
7.5185594e-05
8.1775383e-05
8.6961786e-05
9.00613e-05
9.0529895e-05
8.7894448e-05
8.172488e-05
7.1648512e-05
5.7439439e-05
3.929895e-05
1.6684711e-05
5.8651565e-05
5.9968757e-05
6.3944412e-05
7.0092665e-05
7.6993169e-05
8.3375439e-05
8.8326922e-05
9.1182116e-05
9.1409834e-05
8.8546872e-05
8.2171917e-05
7.1920854e-05
5.757616e-05
3.9345877e-05
1.6690559e-05
6.0776559e-05
6.2095884e-05
6.6030376e-05
7.2066948e-05
7.8792616e-05
8.4958359e-05
8.9671965e-05
9.2283279e-05
9.2272397e-05
8.9185152e-05
8.2608447e-05
7.218631e-05
5.7709213e-05
3.9391553e-05
1.6696403e-05
6.2978562e-05
6.4285859e-05
6.8150071e-05
7.4047807e-05
8.0581781e-05
8.6523035e-05
9.0996377e-05
9.3364559e-05
9.3117519e-05
8.9809304e-05
8.3034513e-05
7.2444921e-05
5.7838617e-05
3.9435977e-05
1.6702238e-05
6.5246699e-05
6.6528871e-05
7.0296702e-05
7.6031363e-05
8.23586e-05
8.8068392e-05
9.2299619e-05
9.4425712e-05
9.3945118e-05
9.0419325e-05
8.3450145e-05
7.2696715e-05
5.7964384e-05
3.9479148e-05
1.6708063e-05
6.7569514e-05
6.8814895e-05
7.2463563e-05
7.8013869e-05
8.412109e-05
8.9593383e-05
9.3581145e-05
9.5466472e-05
9.4755085e-05
9.1015193e-05
8.3855353e-05
7.2941708e-05
5.8086521e-05
3.9521059e-05
1.6713872e-05
6.9935323e-05
7.1133889e-05
7.4644072e-05
7.9991691e-05
8.5867332e-05
9.1096984e-05
9.4840405e-05
9.6486557e-05
9.5547292e-05
9.1596862e-05
8.4250132e-05
7.3179906e-05
5.8205028e-05
3.9561705e-05
1.6719664e-05
7.2332526e-05
7.3475979e-05
7.6831806e-05
8.1961306e-05
8.7595467e-05
9.2578188e-05
9.6076844e-05
9.7485664e-05
9.6321586e-05
9.2164267e-05
8.4634462e-05
7.3411302e-05
5.8319897e-05
3.9601074e-05
1.6725435e-05
7.4749868e-05
7.5831615e-05
7.9020543e-05
8.3919296e-05
8.930369e-05
9.4036008e-05
9.7289898e-05
9.8463472e-05
9.7077794e-05
9.2717323e-05
8.5008303e-05
7.3635876e-05
5.8431116e-05
3.9639156e-05
1.673118e-05
7.717665e-05
7.8191698e-05
8.1204299e-05
8.5862349e-05
9.0990241e-05
9.5469472e-05
9.8479003e-05
9.9419647e-05
9.7815722e-05
9.3255923e-05
8.5371602e-05
7.3853601e-05
5.8538664e-05
3.9675936e-05
1.6736897e-05
7.9602877e-05
8.054768e-05
8.3377365e-05
8.7787264e-05
9.2653412e-05
9.6877625e-05
9.9643589e-05
0.00010035384
9.8535159e-05
9.3779945e-05
8.5724287e-05
7.4064436e-05
5.8642515e-05
3.9711396e-05
1.6742581e-05
8.2019358e-05
8.289164e-05
8.553434e-05
8.9690962e-05
9.4291541e-05
9.8259532e-05
0.00010078309
0.00010126569
9.9235874e-05
9.4289247e-05
8.6066275e-05
7.4268328e-05
5.8742636e-05
3.9745517e-05
1.6748228e-05
8.4417768e-05
8.5216328e-05
8.7670163e-05
9.1570492e-05
9.5903018e-05
9.961428e-05
0.00010189694
0.00010215483
9.9917629e-05
9.4783673e-05
8.6397468e-05
7.4465216e-05
5.883899e-05
3.9778277e-05
1.6753834e-05
8.6790659e-05
8.7515189e-05
8.9780137e-05
9.3423049e-05
9.7486293e-05
0.00010094098
0.00010298459
0.00010302089
0.00010058017
9.5263055e-05
8.6717755e-05
7.4655031e-05
5.8931531e-05
3.9809653e-05
1.6759395e-05
8.9131458e-05
8.9782366e-05
9.1859947e-05
9.5245985e-05
9.9039879e-05
0.00010223879
0.00010404551
0.00010386351
0.00010122324
9.5727216e-05
8.7027017e-05
7.4837694e-05
5.9020212e-05
3.9839619e-05
1.6764905e-05
9.1434429e-05
9.201269e-05
9.3905669e-05
9.7036821e-05
0.00010056236
0.00010350687
0.00010507917
0.00010468233
0.00010184659
9.6175971e-05
8.7325125e-05
7.5013118e-05
5.9104978e-05
3.9868147e-05
1.6770361e-05
9.3694635e-05
9.4201651e-05
9.5913777e-05
9.8793261e-05
0.00010205241
0.00010474446
0.00010608509
0.000105477
0.00010244996
9.6609134e-05
8.7611946e-05
7.5181213e-05
5.9185773e-05
3.9895209e-05
1.6775757e-05
9.5907873e-05
9.6345367e-05
9.7881141e-05
0.0001005132
0.00010350877
0.00010595084
0.0001070628
0.0001062472
0.0001030331
9.7026517e-05
8.7887344e-05
7.5341885e-05
5.9262537e-05
3.9920774e-05
1.6781089e-05
9.8070623e-05
9.8440542e-05
9.9805015e-05
0.00010219473
0.0001049303
0.00010712533
0.00010801188
0.00010699263
0.00010359578
9.7427941e-05
8.8151182e-05
7.5495036e-05
5.9335209e-05
3.9944811e-05
1.678635e-05
0.00010017998
0.00010048442
0.00010168303
0.00010383615
0.00010631595
0.00010826731
0.00010893195
0.00010771301
0.00010413779
9.7813233e-05
8.8403328e-05
7.5640572e-05
5.9403727e-05
3.9967291e-05
1.6791536e-05
0.0001022336
0.00010247475
0.00010351317
0.00010543595
0.00010766477
0.00010937624
0.00010982266
0.0001084081
0.00010465893
9.8182234e-05
8.8643655e-05
7.5778397e-05
5.9468029e-05
3.9988182e-05
1.679664e-05
0.00010422962
0.00010440971
0.00010529377
0.00010699285
0.00010897595
0.00011045165
0.00011068373
0.00010907769
0.00010515903
9.8534802e-05
8.8872044e-05
7.5908424e-05
5.9528059e-05
4.0007455e-05
1.6801658e-05
0.00010616665
0.00010628792
0.00010702345
0.00010850574
0.00011024876
0.00011149312
0.00011151492
0.00010972163
0.00010563797
9.8870814e-05
8.9088393e-05
7.603057e-05
5.9583758e-05
4.0025083e-05
1.6806583e-05
0.00010804365
0.00010810833
0.00010870117
0.00010997373
0.00011148261
0.00011250031
0.00011231605
0.00011033979
0.00010609563
9.9190174e-05
8.929261e-05
7.6144761e-05
5.9635078e-05
4.0041039e-05
1.6811409e-05
0.00010985996
0.00010987022
0.00011032612
0.00011139609
0.00011267702
0.00011347298
0.000113087
0.00011093209
0.00010653195
9.9492809e-05
8.9484624e-05
7.6250935e-05
5.9681974e-05
4.0055301e-05
1.6816132e-05
0.00011161519
0.00011157318
0.00011189775
0.00011277229
0.00011383162
0.00011441094
0.00011382769
0.00011149852
0.0001069469
9.9778678e-05
8.9664386e-05
7.6349044e-05
5.9724409e-05
4.006785e-05
1.6820745e-05
0.00011330924
0.00011321704
0.00011341575
0.00011410196
0.00011494615
0.00011531408
0.00011453811
0.00011203908
0.0001073405
0.00010004777
8.9831867e-05
7.6439054e-05
5.9762355e-05
4.0078669e-05
1.6825243e-05
0.00011494223
0.00011480183
0.00011487998
0.00011538489
0.00011602047
0.00011618238
0.00011521833
0.00011255386
0.00010771279
0.00010030011
8.9987063e-05
7.6520948e-05
5.9795793e-05
4.0087748e-05
1.682962e-05
0.00011651445
0.00011632781
0.00011629052
0.00011662103
0.00011705454
0.00011701588
0.00011586843
0.00011304297
0.00010806387
0.00010053575
9.0129998e-05
7.6594728e-05
5.9824718e-05
4.0095082e-05
1.6833872e-05
0.00011802641
0.00011779539
0.00011764758
0.00011781043
0.00011804842
0.0001178147
0.0001164886
0.00011350658
0.00010839388
0.00010075478
9.0260722e-05
7.6660412e-05
5.9849133e-05
4.0100668e-05
1.6837993e-05
0.00011947873
0.00011920512
0.00011895153
0.0001189533
0.00011900225
0.00011857903
0.00011707904
0.0001139449
0.000108703
0.00010095734
9.0379312e-05
7.6718042e-05
5.9869056e-05
4.0104513e-05
1.6841978e-05
0.00012087217
0.00012055771
0.00012020288
0.00012004994
0.00011991629
0.00011930911
0.00011764003
0.00011435819
0.00010899143
0.00010114358
9.0485875e-05
7.6767679e-05
5.9884517e-05
4.0106628e-05
1.6845825e-05
0.0001222076
0.00012185395
0.00012140222
0.00012110078
0.00012079085
0.00012000527
0.00011817188
0.00011474676
0.00010925945
0.0001013137
9.0580544e-05
7.6809404e-05
5.9895559e-05
4.010703e-05
1.6849528e-05
0.00012348598
0.00012309473
0.00012255027
0.00012210633
0.00012162634
0.00012066788
0.00011867498
0.00011511096
0.00010950735
0.00010146794
9.0663482e-05
7.684332e-05
5.9902239e-05
4.0105742e-05
1.6853085e-05
0.00012470834
0.00012428103
0.00012364782
0.00012306716
0.00012242322
0.00012129736
0.00011914973
0.00011545116
0.00010973546
0.00010160654
9.0734877e-05
7.686955e-05
5.9904628e-05
4.0102794e-05
1.6856493e-05
0.00012587579
0.00012541388
0.00012469574
0.00012398395
0.00012318204
0.00012189421
0.00011959659
0.00011576779
0.00010994414
0.0001017298
9.0794944e-05
7.6888239e-05
5.9902809e-05
4.0098221e-05
1.6859748e-05
0.00012698948
0.00012649438
0.00012569496
0.00012485744
0.00012390338
0.00012245894
0.00012001606
0.0001160613
0.00011013378
0.00010183806
9.0843923e-05
7.6899547e-05
5.9896877e-05
4.0092066e-05
1.6862849e-05
0.00012805061
0.00012752368
0.00012664647
0.0001256884
0.00012458789
0.00012299214
0.00012040866
0.00011633218
0.00011030483
0.00010193164
9.0882077e-05
7.6903658e-05
5.9886942e-05
4.0084374e-05
1.6865795e-05
0.00012906043
0.00012850296
0.0001275513
0.00012647769
0.00012523627
0.00012349441
0.00012077496
0.00011658095
0.00011045772
0.00010201092
9.0909691e-05
7.6900768e-05
5.9873122e-05
4.0075199e-05
1.6868585e-05
0.00013002019
0.00012943344
0.00012841053
0.00012722618
0.00012584925
0.00012396639
0.00012111554
0.00011680815
0.00011059293
0.00010207631
9.0927068e-05
7.6891093e-05
5.9855548e-05
4.0064597e-05
1.6871218e-05
0.0001309312
0.00013031636
0.00012922525
0.00012793481
0.0001264276
0.00012440877
0.00012143104
0.00011701433
0.00011071095
0.0001021282
9.0934532e-05
7.6874861e-05
5.9834361e-05
4.005263e-05
1.6873694e-05
0.00013179474
0.00013115297
0.0001299966
0.00012860451
0.00012697212
0.00012482224
0.00012172207
0.00011720008
0.00011081231
0.00010216704
9.0932421e-05
7.6852314e-05
5.9809708e-05
4.0039363e-05
1.6876014e-05
0.00013261215
0.00013194455
0.00013072572
0.00012923628
0.00012748364
0.00012520753
0.00012198932
0.000117366
0.00011089753