/*--------------------------------*- C++ -*----------------------------------*\
| =========                 |                                                 |
| \\      /  F ield         | OpenFOAM: The Open Source CFD Toolbox           |
|  \\    /   O peration     | Version:  2506                                  |
|   \\  /    A nd           | Website:  www.openfoam.com                      |
|    \\/     M anipulation  |                                                 |
\*---------------------------------------------------------------------------*/
FoamFile
{
    version     2.0;
    format      ascii;
    arch        "LSB;label=32;scalar=64";
    class       volScalarField;
    location    "20000/water";
    object      T;
}
// * * * * * * * * * * * * * * * * * * * * * * * * * * * * * * * * * * * * * //

dimensions      [0 0 0 1 0 0 0];

internalField   nonuniform List<scalar> 
6000
(
333.15
333.15
333.15
333.15
333.15
333.15
333.15
333.15
333.15
333.15
333.15
333.14998
333.14989
333.14924
333.14256
333.15
333.15
333.15
333.15
333.15
333.15
333.15
333.15
333.15
333.15
333.14999
333.14994
333.14968
333.14816
333.13667
333.15
333.15
333.15
333.15
333.15
333.15
333.15
333.15
333.15
333.14999
333.14997
333.14987
333.14939
333.14689
333.13172
333.15
333.15
333.15
333.15
333.15
333.15
333.15
333.15
333.15
333.14999
333.14994
333.14976
333.14903
333.14547
333.12739
333.15
333.15
333.15
333.15
333.15
333.15
333.15
333.15
333.14999
333.14997
333.1499
333.14963
333.1486
333.14396
333.12352
333.15
333.15
333.15
333.15
333.15
333.15
333.15
333.15
333.14999
333.14996
333.14985
333.14947
333.14812
333.14237
333.11999
333.15
333.15
333.15
333.15
333.15
333.15
333.15
333.14999
333.14998
333.14994
333.14978
333.14929
333.1476
333.14073
333.11674
333.15
333.15
333.15
333.15
333.15
333.15
333.15
333.14999
333.14997
333.14991
333.1497
333.14909
333.14703
333.13906
333.11373
333.15
333.15
333.15
333.15
333.15
333.15
333.15
333.14999
333.14996
333.14987
333.14961
333.14886
333.14643
333.13737
333.11093
333.15
333.15
333.15
333.15
333.15
333.15
333.14999
333.14998
333.14994
333.14983
333.14951
333.14862
333.14578
333.13567
333.10832
333.15
333.15
333.15
333.15
333.15
333.15
333.14999
333.14998
333.14993
333.14978
333.1494
333.14836
333.1451
333.13396
333.10587
333.15
333.15
333.15
333.15
333.15
333.15
333.14999
333.14997
333.1499
333.14973
333.14928
333.14807
333.14437
333.13227
333.10358
333.15
333.15
333.15
333.15
333.15
333.14999
333.14998
333.14996
333.14988
333.14967
333.14915
333.14777
333.14361
333.13059
333.10145
333.15
333.15
333.15
333.15
333.15
333.14999
333.14998
333.14994
333.14985
333.14961
333.14901
333.14745
333.1428
333.12894
333.09946
333.15
333.15
333.15
333.15
333.15
333.14999
333.14997
333.14993
333.14982
333.14954
333.14886
333.1471
333.14195
333.12731
333.0976
333.15
333.15
333.15
333.15
333.15
333.14999
333.14997
333.14991
333.14978
333.14946
333.1487
333.14673
333.14106
333.12572
333.09589
333.15
333.15
333.15
333.15
333.14999
333.14998
333.14996
333.1499
333.14974
333.14938
333.14852
333.14634
333.14013
333.12417
333.09431
333.15
333.15
333.15
333.15
333.14999
333.14998
333.14995
333.14988
333.1497
333.14929
333.14834
333.14591
333.13916
333.12266
333.09285
333.15
333.15
333.15
333.15
333.14999
333.14998
333.14994
333.14985
333.14965
333.1492
333.14814
333.14546
333.13814
333.12121
333.09153
333.15
333.15
333.15
333.14999
333.14999
333.14997
333.14993
333.14983
333.1496
333.1491
333.14793
333.14497
333.1371
333.11981
333.09032
333.15
333.15
333.15
333.14999
333.14999
333.14997
333.14992
333.1498
333.14955
333.14899
333.1477
333.14444
333.13602
333.11848
333.08922
333.15
333.15
333.15
333.14999
333.14998
333.14996
333.1499
333.14977
333.14949
333.14887
333.14745
333.14388
333.13491
333.1172
333.08823
333.15
333.15
333.15
333.14999
333.14998
333.14995
333.14989
333.14974
333.14943
333.14875
333.14719
333.14328
333.13379
333.11599
333.08733
333.15
333.15
333.14999
333.14999
333.14998
333.14994
333.14987
333.14971
333.14936
333.14861
333.1469
333.14263
333.13267
333.11485
333.08652
333.15
333.15
333.14999
333.14999
333.14997
333.14993
333.14985
333.14967
333.14929
333.14847
333.14659
333.14195
333.13154
333.11376
333.08579
333.15
333.15
333.14999
333.14998
333.14997
333.14992
333.14983
333.14963
333.14921
333.14831
333.14625
333.14123
333.13043
333.11274
333.08514
333.15
333.15
333.14999
333.14998
333.14996
333.14991
333.14981
333.14959
333.14913
333.14815
333.14589
333.14047
333.12933
333.11178
333.08455
333.15
333.14999
333.14999
333.14998
333.14996
333.1499
333.14979
333.14954
333.14904
333.14797
333.14549
333.13967
333.12826
333.11088
333.08401
333.15
333.14999
333.14999
333.14998
333.14995
333.14989
333.14976
333.14949
333.14895
333.14777
333.14507
333.13885
333.12721
333.11003
333.08353
333.14999
333.14999
333.14999
333.14997
333.14994
333.14987
333.14973
333.14944
333.14884
333.14756
333.14461
333.13801
333.1262
333.10922
333.08309
333.14999
333.14999
333.14998
333.14997
333.14993
333.14986
333.1497
333.14939
333.14873
333.14733
333.14412
333.13716
333.12523
333.10847
333.08269
333.14999
333.14999
333.14998
333.14996
333.14992
333.14984
333.14967
333.14932
333.14862
333.14708
333.14359
333.13629
333.12429
333.10776
333.08233
333.14999
333.14999
333.14998
333.14996
333.14991
333.14982
333.14964
333.14926
333.14849
333.14681
333.14303
333.13542
333.12339
333.10709
333.082
333.14999
333.14999
333.14998
333.14995
333.1499
333.1498
333.1496
333.14919
333.14835
333.14652
333.14245
333.13456
333.12253
333.10645
333.08169
333.14999
333.14998
333.14997
333.14995
333.14989
333.14978
333.14956
333.14911
333.1482
333.1462
333.14183
333.1337
333.12171
333.10585
333.08141
333.14999
333.14998
333.14997
333.14994
333.14988
333.14976
333.14952
333.14903
333.14803
333.14586
333.1412
333.13285
333.12093
333.10529
333.08115
333.14999
333.14998
333.14997
333.14993
333.14987
333.14974
333.14947
333.14895
333.14786
333.14549
333.14054
333.13203
333.12017
333.10475
333.08091
333.14998
333.14998
333.14996
333.14993
333.14985
333.14971
333.14942
333.14885
333.14766
333.14509
333.13987
333.13122
333.11946
333.10424
333.08069
333.14998
333.14998
333.14996
333.14992
333.14984
333.14968
333.14937
333.14875
333.14745
333.14467
333.13918
333.13043
333.11877
333.10376
333.08048
333.14998
333.14997
333.14995
333.14991
333.14982
333.14965
333.14931
333.14864
333.14723
333.14423
333.13849
333.12966
333.11811
333.1033
333.08029
333.14998
333.14997
333.14995
333.1499
333.1498
333.14962
333.14925
333.14852
333.14698
333.14376
333.13779
333.12891
333.11748
333.10286
333.08012
333.14997
333.14996
333.14994
333.14989
333.14978
333.14958
333.14918
333.14839
333.14672
333.14326
333.13709
333.12819
333.11688
333.10244
333.07995
333.14997
333.14996
333.14993
333.14988
333.14976
333.14954
333.14911
333.14824
333.14643
333.14275
333.1364
333.12749
333.1163
333.10205
333.0798
333.14997
333.14996
333.14993
333.14986
333.14974
333.1495
333.14903
333.14809
333.14612
333.14222
333.13571
333.12682
333.11575
333.10167
333.07965
333.14996
333.14995
333.14992
333.14985
333.14972
333.14946
333.14895
333.14792
333.14579
333.14167
333.13504
333.12616
333.11522
333.10131
333.07952
333.14996
333.14995
333.14991
333.14984
333.14969
333.14941
333.14886
333.14774
333.14544
333.14111
333.13437
333.12553
333.1147
333.10096
333.07939
333.14995
333.14994
333.1499
333.14982
333.14966
333.14936
333.14876
333.14754
333.14507
333.14054
333.13371
333.12492
333.11421
333.10063
333.07927
333.14995
333.14993
333.14989
333.1498
333.14963
333.1493
333.14865
333.14733
333.14468
333.13996
333.13307
333.12433
333.11374
333.10031
333.07916
333.14994
333.14993
333.14988
333.14979
333.1496
333.14924
333.14853
333.1471
333.14427
333.13938
333.13244
333.12375
333.11329
333.1
333.07906
333.14994
333.14992
333.14987
333.14977
333.14957
333.14918
333.14841
333.14686
333.14384
333.1388
333.13182
333.1232
333.11285
333.09971
333.07896
333.14993
333.14991
333.14986
333.14974
333.14953
333.14911
333.14827
333.14659
333.1434
333.13822
333.13122
333.12266
333.11243
333.09943
333.07887
333.14993
333.1499
333.14984
333.14972
333.14949
333.14903
333.14812
333.14631
333.14294
333.13764
333.13063
333.12214
333.11202
333.09916
333.07879
333.14992
333.14989
333.14983
333.1497
333.14944
333.14894
333.14796
333.14601
333.14247
333.13707
333.13005
333.12164
333.11162
333.0989
333.07871
333.14991
333.14988
333.14981
333.14967
333.14939
333.14885
333.14779
333.14569
333.14199
333.1365
333.12949
333.12115
333.11124
333.09865
333.07864
333.1499
333.14987
333.1498
333.14964
333.14934
333.14876
333.1476
333.14536
333.1415
333.13594
333.12895
333.12068
333.11088
333.09841
333.07857
333.14989
333.14986
333.14978
333.14961
333.14928
333.14865
333.1474
333.14501
333.14101
333.13538
333.12841
333.12022
333.11052
333.09818
333.0785
333.14988
333.14985
333.14976
333.14958
333.14922
333.14853
333.14718
333.14464
333.14051
333.13483
333.12789
333.11978
333.11018
333.09795
333.07844
333.14987
333.14983
333.14974
333.14954
333.14916
333.14841
333.14695
333.14426
333.14001
333.1343
333.12739
333.11935
333.10985
333.09774
333.07839
333.14986
333.14982
333.14971
333.1495
333.14908
333.14827
333.1467
333.14386
333.1395
333.13377
333.1269
333.11893
333.10952
333.09753
333.07833
333.14985
333.1498
333.14969
333.14946
333.149
333.14812
333.14643
333.14346
333.139
333.13324
333.12641
333.11852
333.10921
333.09733
333.07828
333.14983
333.14978
333.14966
333.14941
333.14892
333.14797
333.14615
333.14304
333.1385
333.13273
333.12594
333.11813
333.10891
333.09713
333.07824
333.14982
333.14976
333.14963
333.14936
333.14883
333.14779
333.14586
333.14262
333.138
333.13223
333.12549
333.11774
333.10861
333.09694
333.0782
333.1498
333.14974
333.1496
333.1493
333.14872
333.14761
333.14555
333.14218
333.1375
333.13174
333.12504
333.11737
333.10833
333.09676
333.07816
333.14978
333.14972
333.14956
333.14924
333.14861
333.14741
333.14523
333.14175
333.13701
333.13125
333.12461
333.117
333.10805
333.09658
333.07812
333.14976
333.1497
333.14952
333.14918
333.1485
333.1472
333.14489
333.1413
333.13653
333.13078
333.12418
333.11665
333.10778
333.09641
333.07809
333.14974
333.14967
333.14948
333.1491
333.14837
333.14697
333.14454
333.14086
333.13604
333.13031
333.12377
333.1163
333.10752
333.09625
333.07806
333.14972
333.14964
333.14944
333.14903
333.14823
333.14673
333.14418
333.14041
333.13557
333.12986
333.12336
333.11597
333.10726
333.09608
333.07803
333.14969
333.14961
333.14939
333.14894
333.14808
333.14648
333.14381
333.13996
333.1351
333.12941
333.12297
333.11564
333.10701
333.09593
333.078
333.14967
333.14957
333.14933
333.14885
333.14792
333.14621
333.14343
333.13951
333.13463
333.12897
333.12258
333.11532
333.10677
333.09578
333.07797
333.14964
333.14954
333.14928
333.14875
333.14774
333.14593
333.14304
333.13906
333.13418
333.12854
333.1222
333.11501
333.10653
333.09563
333.07795
333.14961
333.1495
333.14921
333.14864
333.14756
333.14564
333.14265
333.13861
333.13372
333.12812
333.12183
333.1147
333.1063
333.09548
333.07793
333.14957
333.14945
333.14914
333.14852
333.14736
333.14533
333.14225
333.13817
333.13328
333.12771
333.12147
333.11441
333.10608
333.09534
333.07791
333.14953
333.1494
333.14907
333.1484
333.14714
333.14501
333.14184
333.13773
333.13284
333.12731
333.12112
333.11411
333.10586
333.09521
333.07789
333.14949
333.14935
333.14899
333.14826
333.14692
333.14468
333.14143
333.13728
333.13241
333.12691
333.12077
333.11383
333.10564
333.09508
333.07787
333.14944
333.14929
333.1489
333.14811
333.14668
333.14434
333.14102
333.13685
333.13198
333.12652
333.12043
333.11355
333.10543
333.09495
333.07786
333.14939
333.14923
333.1488
333.14795
333.14643
333.14399
333.14061
333.13642
333.13157
333.12614
333.1201
333.11328
333.10523
333.09482
333.07784
333.14934
333.14916
333.14869
333.14778
333.14616
333.14363
333.14019
333.13599
333.13115
333.12576
333.11978
333.11301
333.10503
333.0947
333.07783
333.14928
333.14908
333.14858
333.14759
333.14588
333.14327
333.13978
333.13556
333.13075
333.12539
333.11946
333.11275
333.10483
333.09458
333.07781
333.14921
333.149
333.14845
333.1474
333.14559
333.1429
333.13936
333.13514
333.13035
333.12503
333.11915
333.1125
333.10464
333.09446
333.0778
333.14914
333.14891
333.14832
333.14719
333.14529
333.14252
333.13895
333.13472
333.12995
333.12468
333.11884
333.11225
333.10446
333.09435
333.07779
333.14906
333.14881
333.14817
333.14696
333.14498
333.14214
333.13854
333.13431
333.12957
333.12433
333.11854
333.112
333.10427
333.09423
333.07778
333.14897
333.1487
333.14801
333.14673
333.14466
333.14176
333.13813
333.13391
333.12919
333.12399
333.11825
333.11176
333.10409
333.09412
333.07777
333.14888
333.14858
333.14784
333.14647
333.14432
333.14137
333.13772
333.1335
333.12881
333.12365
333.11796
333.11153
333.10392
333.09402
333.07776
333.14877
333.14845
333.14765
333.14621
333.14398
333.14098
333.13731
333.13311
333.12844
333.12332
333.11767
333.1113
333.10374
333.09391
333.07775
333.14865
333.14831
333.14746
333.14594
333.14363
333.14058
333.1369
333.13271
333.12808
333.123
333.1174
333.11107
333.10357
333.09381
333.07774
333.14853
333.14816
333.14724
333.14565
333.14328
333.14019
333.1365
333.13232
333.12772
333.12268
333.11712
333.11085
333.10341
333.09371
333.07773
333.14839
333.14799
333.14702
333.14535
333.14292
333.13979
333.1361
333.13194
333.12736
333.12236
333.11685
333.11063
333.10324
333.09361
333.07772
333.14824
333.14781
333.14678
333.14504
333.14255
333.1394
333.1357
333.13156
333.12701
333.12205
333.11659
333.11042
333.10308
333.09351
333.07771
333.14807
333.14761
333.14653
333.14472
333.14218
333.139
333.13531
333.13118
333.12667
333.12175
333.11633
333.11021
333.10292
333.09341
333.0777
333.14789
333.1474
333.14626
333.14438
333.1418
333.13861
333.13492
333.13081
333.12633
333.12145
333.11608
333.11
333.10277
333.09331
333.07769
333.14769
333.14718
333.14597
333.14404
333.14142
333.13821
333.13453
333.13045
333.126
333.12116
333.11582
333.10979
333.10262
333.09322
333.07768
333.14748
333.14693
333.14568
333.14369
333.14103
333.13781
333.13414
333.13009
333.12567
333.12087
333.11558
333.10959
333.10246
333.09313
333.07767
333.14725
333.14667
333.14537
333.14333
333.14065
333.13742
333.13376
333.12973
333.12535
333.12058
333.11533
333.10939
333.10232
333.09304
333.07766
333.147
333.1464
333.14504
333.14297
333.14026
333.13703
333.13338
333.12938
333.12503
333.1203
333.11509
333.1092
333.10217
333.09295
333.07765
333.14673
333.1461
333.14471
333.14259
333.13986
333.13664
333.13301
333.12903
333.12471
333.12002
333.11486
333.10901
333.10202
333.09286
333.07764
333.14644
333.14579
333.14436
333.14221
333.13947
333.13625
333.13263
333.12868
333.1244
333.11975
333.11462
333.10882
333.10188
333.09277
333.07763
333.14613
333.14547
333.144
333.14183
333.13907
333.13586
333.13226
333.12834
333.12409
333.11948
333.11439
333.10863
333.10174
333.09268
333.07762
333.14581
333.14512
333.14363
333.14144
333.13868
333.13547
333.1319
333.128
333.12379
333.11921
333.11417
333.10844
333.1016
333.09259
333.0776
333.14546
333.14476
333.14325
333.14104
333.13828
333.13508
333.13153
333.12767
333.12349
333.11895
333.11394
333.10826
333.10146
333.09251
333.07759
333.1451
333.14439
333.14286
333.14064
333.13788
333.1347
333.13117
333.12734
333.12319
333.11869
333.11372
333.10808
333.10133
333.09242
333.07758
333.14472
333.144
333.14245
333.14023
333.13748
333.13432
333.13082
333.12701
333.1229
333.11843
333.11351
333.1079
333.10119
333.09234
333.07756
333.14432
333.14359
333.14204
333.13982
333.13708
333.13394
333.13046
333.12669
333.12261
333.11818
333.11329
333.10773
333.10106
333.09225
333.07755
333.14391
333.14318
333.14162
333.13941
333.13668
333.13356
333.13011
333.12637
333.12232
333.11793
333.11308
333.10755
333.10093
333.09217
333.07754
333.14348
333.14275
333.1412
333.13899
333.13628
333.13318
333.12976
333.12605
333.12204
333.11768
333.11287
333.10738
333.1008
333.09208
333.07752
333.14304
333.14231
333.14076
333.13857
333.13588
333.13281
333.12942
333.12574
333.12176
333.11744
333.11266
333.10721
333.10067
333.092
333.0775
333.14258
333.14186
333.14032
333.13815
333.13548
333.13243
333.12907
333.12543
333.12148
333.11719
333.11245
333.10704
333.10054
333.09192
333.07749
333.14212
333.1414
333.13988
333.13772
333.13508
333.13206
333.12873
333.12512
333.12121
333.11695
333.11225
333.10687
333.10041
333.09184
333.07747
333.14164
333.14093
333.13943
333.1373
333.13468
333.13169
333.12839
333.12481
333.12094
333.11672
333.11204
333.10671
333.10028
333.09175
333.07745
333.14116
333.14046
333.13898
333.13687
333.13428
333.13132
333.12805
333.12451
333.12067
333.11648
333.11184
333.10654
333.10015
333.09167
333.07743
333.14067
333.13998
333.13852
333.13644
333.13388
333.13095
333.12772
333.1242
333.1204
333.11625
333.11164
333.10638
333.10003
333.09159
333.07741
333.14018
333.1395
333.13806
333.13601
333.13348
333.13059
333.12739
333.12391
333.12013
333.11601
333.11144
333.10622
333.0999
333.09151
333.07738
333.13968
333.13901
333.13759
333.13557
333.13308
333.13022
333.12706
333.12361
333.11987
333.11578
333.11125
333.10605
333.09978
333.09142
333.07736
333.13917
333.13852
333.13713
333.13514
333.13268
333.12986
333.12673
333.12331
333.11961
333.11556
333.11105
333.10589
333.09965
333.09134
333.07734
333.13867
333.13803
333.13666
333.13471
333.13228
333.12949
333.1264
333.12302
333.11935
333.11533
333.11086
333.10573
333.09953
333.09126
333.07731
333.13816
333.13753
333.13619
333.13427
333.13189
333.12913
333.12607
333.12273
333.11909
333.1151
333.11067
333.10558
333.09941
333.09117
333.07728
333.13765
333.13704
333.13573
333.13384
333.13149
333.12877
333.12575
333.12244
333.11883
333.11488
333.11048
333.10542
333.09928
333.09109
333.07726
333.13715
333.13654
333.13526
333.1334
333.13109
333.12841
333.12542
333.12215
333.11858
333.11466
333.11029
333.10526
333.09916
333.091
333.07723
333.13664
333.13605
333.13479
333.13297
333.1307
333.12806
333.1251
333.12186
333.11832
333.11444
333.1101
333.1051
333.09904
333.09092
333.07719
333.13613
333.13556
333.13433
333.13254
333.1303
333.1277
333.12478
333.12157
333.11807
333.11422
333.10991
333.10495
333.09891
333.09083
333.07716
333.13563
333.13507
333.13386
333.13211
333.12991
333.12734
333.12446
333.12129
333.11782
333.114
333.10972
333.10479
333.09879
333.09075
333.07713
333.13513
333.13458
333.1334
333.13168
333.12952
333.12699
333.12414
333.12101
333.11757
333.11378
333.10953
333.10463
333.09867
333.09066
333.07709
333.13463
333.13409
333.13294
333.13126
333.12913
333.12664
333.12383
333.12072
333.11732
333.11356
333.10935
333.10448
333.09854
333.09057
333.07706
333.13414
333.13361
333.13248
333.13083
333.12874
333.12629
333.12351
333.12044
333.11707
333.11334
333.10916
333.10432
333.09842
333.09048
333.07702
333.13365
333.13313
333.13203
333.13041
333.12836
333.12594
333.1232
333.12016
333.11682
333.11313
333.10897
333.10417
333.09829
333.09039
333.07698
333.13316
333.13266
333.13157
333.12999
333.12797
333.12559
333.12289
333.11989
333.11658
333.11291
333.10879
333.10401
333.09817
333.0903
333.07693
333.13267
333.13218
333.13113
333.12957
333.12759
333.12524
333.12258
333.11961
333.11633
333.1127
333.1086
333.10385
333.09804
333.09021
333.07689
333.1322
333.13172
333.13068
333.12916
333.12721
333.1249
333.12227
333.11933
333.11609
333.11248
333.10842
333.1037
333.09792
333.09012
333.07684
333.13172
333.13125
333.13024
333.12875
333.12683
333.12456
333.12196
333.11906
333.11584
333.11227
333.10823
333.10354
333.09779
333.09003
333.07679
333.13125
333.13079
333.1298
333.12834
333.12646
333.12422
333.12165
333.11878
333.1156
333.11205
333.10805
333.10339
333.09766
333.08993
333.07674
333.13079
333.13034
333.12937
333.12793
333.12609
333.12388
333.12135
333.11851
333.11536
333.11184
333.10786
333.10323
333.09754
333.08984
333.07669
333.13033
333.12989
333.12894
333.12753
333.12572
333.12354
333.12104
333.11824
333.11511
333.11163
333.10768
333.10307
333.09741
333.08974
333.07664
333.12987
333.12944
333.12851
333.12713
333.12535
333.1232
333.12074
333.11797
333.11487
333.11142
333.1075
333.10292
333.09728
333.08964
333.07658
333.12942
333.129
333.12809
333.12674
333.12498
333.12287
333.12044
333.1177
333.11463
333.1112
333.10731
333.10276
333.09715
333.08954
333.07652
333.12898
333.12857
333.12767
333.12634
333.12462
333.12254
333.12014
333.11743
333.11439
333.11099
333.10713
333.1026
333.09702
333.08944
333.07646
333.12854
333.12814
333.12726
333.12596
333.12426
333.12221
333.11984
333.11716
333.11415
333.11078
333.10694
333.10244
333.09689
333.08934
333.0764
333.12811
333.12771
333.12685
333.12557
333.1239
333.12188
333.11954
333.11689
333.11392
333.11057
333.10676
333.10228
333.09675
333.08923
333.07634
333.12768
333.12729
333.12645
333.12519
333.12355
333.12156
333.11925
333.11662
333.11368
333.11036
333.10657
333.10212
333.09662
333.08913
333.07627
333.12726
333.12688
333.12605
333.12481
333.1232
333.12124
333.11895
333.11636
333.11344
333.11015
333.10639
333.10196
333.09648
333.08902
333.0762
333.12684
333.12647
333.12565
333.12444
333.12285
333.12092
333.11866
333.1161
333.1132
333.10994
333.1062
333.1018
333.09635
333.08891
333.07613
333.12642
333.12606
333.12526
333.12407
333.1225
333.1206
333.11837
333.11583
333.11297
333.10973
333.10601
333.10164
333.09621
333.0888
333.07605
333.12602
333.12566
333.12487
333.1237
333.12216
333.12028
333.11808
333.11557
333.11273
333.10952
333.10583
333.10148
333.09607
333.08869
333.07598
333.12561
333.12526
333.12449
333.12334
333.12182
333.11997
333.1178
333.11531
333.1125
333.10931
333.10564
333.10131
333.09593
333.08858
333.0759
333.12522
333.12487
333.12411
333.12298
333.12149
333.11966
333.11751
333.11505
333.11226
333.1091
333.10546
333.10115
333.09579
333.08846
333.07582
333.12482
333.12448
333.12374
333.12262
333.12115
333.11935
333.11723
333.11479
333.11203
333.10889
333.10527
333.10099
333.09565
333.08834
333.07573
333.12443
333.1241
333.12337
333.12227
333.12082
333.11904
333.11695
333.11454
333.1118
333.10868
333.10508
333.10082
333.09551
333.08823
333.07565
333.12405
333.12372
333.123
333.12192
333.1205
333.11874
333.11667
333.11428
333.11156
333.10847
333.10489
333.10066
333.09537
333.08811
333.07556
333.12367
333.12335
333.12264
333.12158
333.12017
333.11844
333.11639
333.11403
333.11133
333.10826
333.10471
333.10049
333.09522
333.08799
333.07547
333.1233
333.12298
333.12229
333.12124
333.11985
333.11814
333.11611
333.11377
333.1111
333.10805
333.10452
333.10032
333.09508
333.08786
333.07538
333.12293
333.12262
333.12193
333.1209
333.11953
333.11784
333.11584
333.11352
333.11087
333.10784
333.10433
333.10016
333.09493
333.08774
333.07529
333.12256
333.12226
333.12158
333.12056
333.11921
333.11754
333.11556
333.11327
333.11064
333.10763
333.10414
333.09999
333.09478
333.08761
333.07519
333.1222
333.1219
333.12124
333.12023
333.1189
333.11725
333.11529
333.11302
333.11041
333.10742
333.10395
333.09982
333.09463
333.08748
333.07509
333.12185
333.12155
333.1209
333.11991
333.11859
333.11696
333.11502
333.11277
333.11018
333.10721
333.10377
333.09965
333.09448
333.08735
333.07499
333.1215
333.1212
333.12056
333.11958
333.11828
333.11667
333.11475
333.11252
333.10995
333.10701
333.10358
333.09948
333.09433
333.08722
333.07489
333.12115
333.12086
333.12022
333.11926
333.11798
333.11639
333.11449
333.11227
333.10973
333.1068
333.10339
333.09931
333.09418
333.08709
333.07478
333.12081
333.12052
333.11989
333.11894
333.11768
333.1161
333.11422
333.11203
333.1095
333.10659
333.1032
333.09914
333.09402
333.08696
333.07467
333.12047
333.12019
333.11957
333.11863
333.11738
333.11582
333.11396
333.11178
333.10927
333.10638
333.10301
333.09896
333.09387
333.08682
333.07456
333.12013
333.11985
333.11924
333.11832
333.11708
333.11554
333.11369
333.11154
333.10905
333.10617
333.10282
333.09879
333.09371
333.08668
333.07445
333.1198
333.11953
333.11892
333.11801
333.11679
333.11526
333.11343
333.1113
333.10882
333.10597
333.10263
333.09862
333.09356
333.08655
333.07434
333.11947
333.1192
333.11861
333.1177
333.1165
333.11499
333.11317
333.11105
333.1086
333.10576
333.10244
333.09844
333.0934
333.08641
333.07422
333.11915
333.11888
333.11829
333.1174
333.11621
333.11471
333.11292
333.11081
333.10838
333.10555
333.10224
333.09827
333.09324
333.08627
333.07411
333.11883
333.11857
333.11798
333.1171
333.11592
333.11444
333.11266
333.11057
333.10815
333.10535
333.10205
333.09809
333.09308
333.08612
333.07399
333.11851
333.11825
333.11768
333.11681
333.11564
333.11417
333.11241
333.11034
333.10793
333.10514
333.10186
333.09791
333.09292
333.08598
333.07387
333.1182
333.11794
333.11737
333.11651
333.11535
333.1139
333.11215
333.1101
333.10771
333.10493
333.10167
333.09774
333.09276
333.08583
333.07374
333.11789
333.11763
333.11707
333.11622
333.11507
333.11364
333.1119
333.10986
333.10749
333.10473
333.10148
333.09756
333.09259
333.08569
333.07362
333.11758
333.11733
333.11678
333.11593
333.1148
333.11337
333.11165
333.10963
333.10727
333.10452
333.10129
333.09738
333.09243
333.08554
333.07349
333.11728
333.11703
333.11648
333.11565
333.11452
333.11311
333.1114
333.10939
333.10705
333.10431
333.10109
333.0972
333.09226
333.08539
333.07336
333.11698
333.11673
333.11619
333.11536
333.11425
333.11285
333.11116
333.10916
333.10683
333.10411
333.1009
333.09702
333.0921
333.08524
333.07323
333.11668
333.11644
333.1159
333.11508
333.11398
333.11259
333.11091
333.10893
333.10661
333.1039
333.10071
333.09684
333.09193
333.08509
333.0731
333.11639
333.11615
333.11562
333.1148
333.11371
333.11233
333.11067
333.10869
333.10639
333.10369
333.10052
333.09666
333.09177
333.08494
333.07297
333.1161
333.11586
333.11533
333.11453
333.11344
333.11208
333.11042
333.10846
333.10617
333.10349
333.10032
333.09648
333.0916
333.08478
333.07284
333.11581
333.11557
333.11505
333.11425
333.11318
333.11182
333.11018
333.10823
333.10595
333.10328
333.10013
333.0963
333.09143
333.08463
333.0727
333.11552
333.11529
333.11477
333.11398
333.11292
333.11157
333.10994
333.108
333.10574
333.10308
333.09994
333.09612
333.09126
333.08447
333.07256
333.11524
333.11501
333.1145
333.11371
333.11266
333.11132
333.1097
333.10778
333.10552
333.10287
333.09974
333.09594
333.09109
333.08431
333.07242
333.11496
333.11473
333.11422
333.11345
333.1124
333.11107
333.10946
333.10755
333.1053
333.10267
333.09955
333.09575
333.09092
333.08415
333.07228
333.11468
333.11445
333.11395
333.11318
333.11214
333.11083
333.10922
333.10732
333.10509
333.10246
333.09935
333.09557
333.09075
333.084
333.07214
333.11441
333.11418
333.11368
333.11292
333.11189
333.11058
333.10899
333.1071
333.10487
333.10226
333.09916
333.09539
333.09057
333.08384
333.072
333.11413
333.11391
333.11341
333.11266
333.11163
333.11033
333.10875
333.10687
333.10466
333.10205
333.09897
333.0952
333.0904
333.08367
333.07186
333.11386
333.11364
333.11315
333.1124
333.11138
333.11009
333.10852
333.10665
333.10444
333.10185
333.09877
333.09502
333.09023
333.08351
333.07171
333.11359
333.11337
333.11289
333.11214
333.11113
333.10985
333.10829
333.10642
333.10423
333.10165
333.09858
333.09483
333.09005
333.08335
333.07156
333.11333
333.11311
333.11263
333.11189
333.11088
333.10961
333.10805
333.1062
333.10402
333.10144
333.09838
333.09465
333.08988
333.08319
333.07142
333.11306
333.11285
333.11237
333.11163
333.11064
333.10937
333.10782
333.10598
333.1038
333.10124
333.09819
333.09446
333.0897
333.08302
333.07127
333.1128
333.11259
333.11211
333.11138
333.11039
333.10913
333.10759
333.10576
333.10359
333.10103
333.09799
333.09428
333.08952
333.08286
333.07112
333.11254
333.11233
333.11186
333.11113
333.11015
333.10889
333.10736
333.10554
333.10338
333.10083
333.0978
333.09409
333.08935
333.08269
333.07097
333.11229
333.11207
333.1116
333.11088
333.1099
333.10866
333.10714
333.10532
333.10317
333.10063
333.0976
333.09391
333.08917
333.08252
333.07081
333.11203
333.11182
333.11135
333.11064
333.10966
333.10843
333.10691
333.1051
333.10295
333.10042
333.09741
333.09372
333.08899
333.08236
333.07066
333.11178
333.11157
333.1111
333.11039
333.10942
333.10819
333.10668
333.10488
333.10274
333.10022
333.09721
333.09353
333.08881
333.08219
333.07051
333.11152
333.11132
333.11086
333.11015
333.10918
333.10796
333.10646
333.10466
333.10253
333.10002
333.09702
333.09334
333.08863
333.08202
333.07035
333.11127
333.11107
333.11061
333.1099
333.10895
333.10773
333.10623
333.10444
333.10232
333.09981
333.09682
333.09316
333.08846
333.08185
333.07019
333.11103
333.11082
333.11036
333.10966
333.10871
333.1075
333.10601
333.10423
333.10211
333.09961
333.09663
333.09297
333.08828
333.08168
333.07004
333.11078
333.11057
333.11012
333.10942
333.10848
333.10727
333.10579
333.10401
333.1019
333.09941
333.09643
333.09278
333.0881
333.08151
333.06988
333.11053
333.11033
333.10988
333.10919
333.10824
333.10704
333.10556
333.10379
333.10169
333.09921
333.09623
333.09259
333.08792
333.08134
333.06972
333.11029
333.11009
333.10964
333.10895
333.10801
333.10681
333.10534
333.10358
333.10148
333.099
333.09604
333.0924
333.08773
333.08117
333.06956
333.11005
333.10985
333.1094
333.10871
333.10778
333.10659
333.10512
333.10336
333.10128
333.0988
333.09584
333.09221
333.08755
333.08099
333.0694
333.10981
333.10961
333.10916
333.10848
333.10755
333.10636
333.1049
333.10315
333.10107
333.0986
333.09565
333.09203
333.08737
333.08082
333.06924
333.10957
333.10937
333.10893
333.10825
333.10732
333.10614
333.10468
333.10294
333.10086
333.0984
333.09545
333.09184
333.08719
333.08065
333.06908
333.10933
333.10913
333.10869
333.10802
333.10709
333.10591
333.10446
333.10272
333.10065
333.0982
333.09526
333.09165
333.08701
333.08047
333.06891
333.10909
333.1089
333.10846
333.10778
333.10687
333.10569
333.10425
333.10251
333.10044
333.09799
333.09506
333.09146
333.08682
333.0803
333.06875
333.10886
333.10866
333.10823
333.10756
333.10664
333.10547
333.10403
333.1023
333.10024
333.09779
333.09486
333.09127
333.08664
333.08012
333.06858
333.10862
333.10843
333.108
333.10733
333.10641
333.10525
333.10381
333.10208
333.10003
333.09759
333.09467
333.09108
333.08646