/*--------------------------------*- C++ -*----------------------------------*\
| =========                 |                                                 |
| \\      /  F ield         | OpenFOAM: The Open Source CFD Toolbox           |
|  \\    /   O peration     | Version:  2506                                  |
|   \\  /    A nd           | Website:  www.openfoam.com                      |
|    \\/     M anipulation  |                                                 |
\*---------------------------------------------------------------------------*/
FoamFile
{
    version     2.0;
    format      ascii;
    arch        "LSB;label=32;scalar=64";
    class       volVectorField;
    location    "20000/water";
    object      U;
}
// * * * * * * * * * * * * * * * * * * * * * * * * * * * * * * * * * * * * * //

dimensions      [0 1 -1 0 0 0 0];

internalField   nonuniform List<vector> 
6000
(
(0.25028648 -3.4193493e-05 1.0917658e-19)
(0.25028875 -7.4648812e-05 -5.0673209e-18)
(0.25029344 -0.00011804414 -4.2135037e-19)
(0.25030059 -0.00016540046 1.9210472e-20)
(0.25031046 -0.00021487336 -1.6406171e-19)
(0.25032332 -0.00026685039 -1.3460007e-19)
(0.25033948 -0.00032192175 -2.6341232e-19)
(0.25035939 -0.00038078672 1.1196765e-19)
(0.25038356 -0.00044434477 4.7973845e-21)
(0.25041254 -0.00051362452 2.8782384e-19)
(0.25044587 -0.0005867756 4.9120522e-20)
(0.25047643 -0.00065822056 -2.7120788e-20)
(0.25046276 -0.00078466513 -1.0400104e-19)
(0.25013031 -0.0015987837 -1.9737968e-19)
(0.24584996 0.0019968142 -9.5723236e-20)
(0.25104035 -3.7261304e-05 -3.8896194e-19)
(0.25104514 -8.989598e-05 -3.7312792e-18)
(0.2510558 -0.00014352114 -7.6832228e-19)
(0.25107219 -0.00020025424 2.4884841e-19)
(0.2510947 -0.0002571822 9.0851475e-19)
(0.25112368 -0.00031440571 2.387571e-19)
(0.25115965 -0.00037188242 -2.744516e-19)
(0.25120324 -0.00042947839 -1.5798905e-19)
(0.2512551 -0.00048709454 -1.0251435e-19)
(0.25131538 -0.00054561245 2.3484838e-19)
(0.25138039 -0.00060405492 -3.8128178e-21)
(0.25142587 -0.00063755822 -1.0836293e-19)
(0.25133175 -0.00059164843 -2.5851703e-19)
(0.25037931 -0.0014370973 -2.3904679e-19)
(0.24194277 0.00099520264 -1.1939134e-19)
(0.25195051 -3.6589029e-05 -1.3250227e-18)
(0.25195563 -9.0250613e-05 3.8703918e-18)
(0.25196731 -0.00014313025 1.8656596e-18)
(0.25198528 -0.00019912656 -8.6116135e-19)
(0.25200977 -0.00025508716 6.0257389e-19)
(0.25204101 -0.0003112558 -2.5151338e-19)
(0.25207932 -0.00036762123 -6.4375911e-19)
(0.25212505 -0.00042413945 -9.0871406e-19)
(0.25217823 -0.00048056787 -4.5127238e-19)
(0.25223708 -0.00053775721 -1.7787667e-19)
(0.25229114 -0.00060007155 -4.8592476e-19)
(0.25229033 -0.00065419843 -5.7945311e-19)
(0.25200573 -0.00054460881 -6.3802762e-19)
(0.25014357 -0.0012195308 -3.5020109e-19)
(0.23758495 0.00043820543 -2.1230357e-19)
(0.25283353 -3.7446604e-05 1.4495626e-18)
(0.25283867 -9.3611088e-05 1.2216633e-18)
(0.25285018 -0.00014906892 2.172628e-18)
(0.25286783 -0.00020791578 -3.3221695e-19)
(0.25289182 -0.00026672308 2.5375653e-19)
(0.25292238 -0.00032582165 -2.5769268e-19)
(0.25295982 -0.00038519269 -5.5770619e-19)
(0.25300432 -0.00044485276 -5.287612e-19)
(0.25305525 -0.00050441426 -1.5229472e-19)
(0.25310809 -0.00056332944 3.4126309e-19)
(0.25314261 -0.00062607506 -3.9845279e-19)
(0.25307635 -0.00069910336 -5.6373516e-19)
(0.25255493 -0.0005845712 -6.51458e-19)
(0.24963188 -0.001063787 -3.517952e-19)
(0.23320285 0.0001058672 -1.5470096e-19)
(0.25372643 -3.8342944e-05 8.0852583e-18)
(0.2537317 -9.6368692e-05 2.285889e-18)
(0.25374347 -0.00015372841 1.8053513e-18)
(0.25376156 -0.00021453144 1.2395348e-18)
(0.25378616 -0.00027516439 8.5766512e-19)
(0.25381749 -0.00033599427 7.204277e-19)
(0.25385581 -0.00039694563 4.089372e-19)
(0.25390101 -0.00045805575 3.6705795e-19)
(0.25395133 -0.00051907431 2.1635051e-19)
(0.25399821 -0.00057855465 2.1804225e-19)
(0.25400834 -0.00063773998 7.4538784e-20)
(0.25386022 -0.0007177221 6.244331e-20)
(0.25305737 -0.00062191547 -2.7126e-19)
(0.24895451 -0.00093835859 -5.4789067e-20)
(0.22897365 -8.3792338e-05 -4.0136993e-21)
(0.25464474 -3.866162e-05 -8.5812652e-19)
(0.25465014 -9.7320119e-05 -1.0723139e-18)
(0.2546622 -0.00015516462 1.2620129e-18)
(0.25468073 -0.00021648309 8.0678856e-19)
(0.2547059 -0.00027758564 2.1131967e-19)
(0.25473792 -0.000338881 5.4193684e-19)
(0.25477689 -0.00040025681 5.0096842e-19)
(0.25482222 -0.000461728 4.6683199e-19)
(0.25487049 -0.00052322808 2.531785e-19)
(0.2549078 -0.000583188 2.0528206e-19)
(0.25488519 -0.00063896641 4.0732599e-20)
(0.25463685 -0.00071821651 1.7328328e-19)
(0.25350729 -0.0006469875 -5.7367728e-20)
(0.248129 -0.00083894719 -1.7392074e-22)
(0.2249409 -0.00018589273 7.4784985e-20)
(0.25557031 -3.8595293e-05 -2.2368764e-18)
(0.25557581 -9.7309347e-05 -3.3680536e-18)
(0.25558805 -0.00015511983 -2.2880166e-19)
(0.25560682 -0.00021642526 4.8228453e-19)
(0.2556323 -0.0002774936 -6.0651611e-19)
(0.25566463 -0.00033876345 3.8085842e-19)
(0.25570371 -0.00040009735 2.9545389e-19)
(0.25574825 -0.00046144626 4.7208093e-19)
(0.25579256 -0.00052279714 4.2619462e-19)
(0.25581623 -0.0005828814 3.0179284e-19)
(0.25575267 -0.00063600478 1.941706e-19)
(0.25538743 -0.00071016268 8.0915972e-20)
(0.25388915 -0.00066107344 8.1851438e-20)
(0.24716598 -0.00076077854 -6.2953905e-20)
(0.22112141 -0.00023459296 1.1285683e-20)
(0.25649134 -3.8297107e-05 6.9930999e-18)
(0.25649692 -9.6712129e-05 2.4881107e-18)
(0.25650928 -0.00015419069 1.1014401e-18)
(0.25652824 -0.00021515485 5.3986152e-19)
(0.25655393 -0.00027585718 -3.6197163e-20)
(0.25658641 -0.0003367553 3.1634119e-19)
(0.25662528 -0.00039769653 6.0927065e-19)
(0.2566683 -0.00045856441 5.5351186e-19)
(0.25670691 -0.00051927104 4.4220229e-19)
(0.25671305 -0.00057893859 -3.0373487e-19)
(0.25660095 -0.00063003278 1.5136235e-19)
(0.25610359 -0.00069722485 2.4515237e-20)
(0.25419746 -0.0006651972 3.6392213e-20)
(0.24608527 -0.00069788903 -1.1437319e-19)
(0.21752738 -0.00025081848 -3.7040707e-20)
(0.25740382 -3.785286e-05 -2.0724226e-23)
(0.25740947 -9.5689494e-05 -8.544913e-19)
(0.25742193 -0.00015257331 2.473501e-19)
(0.25744104 -0.00021291359 1.1060526e-18)
(0.25746687 -0.00027297291 7.4432678e-19)
(0.25749936 -0.0003332193 4.9030166e-19)
(0.2575377 -0.00039348924 5.5866304e-19)
(0.2575784 -0.00045361302 3.845865e-19)
(0.25760945 -0.00051335259 2.9481729e-19)
(0.25759421 -0.00057212214 2.5717833e-19)
(0.25742635 -0.00062159363 -3.1065754e-20)
(0.25678237 -0.00068144217 1.2325259e-19)
(0.25443121 -0.00066103685 2.7054762e-20)
(0.24490935 -0.00064561644 -7.4247682e-20)
(0.21416513 -0.00024776584 -1.6909353e-20)
(0.25830515 -3.7308638e-05 -8.396102e-19)
(0.25831084 -9.437277e-05 -5.3184684e-19)
(0.25832339 -0.00015047649 -5.233464e-19)
(0.2583426 -0.00020999612 9.9353367e-19)
(0.25836849 -0.00026922145 -3.3875634e-19)
(0.25840083 -0.00032862339 3.4180944e-19)
(0.25843826 -0.00038802595 3.2309844e-19)
(0.25847573 -0.00044722018 2.5480469e-19)
(0.25849727 -0.00050579279 3.5895281e-19)
(0.25845683 -0.00056328987 3.0015902e-19)
(0.25822634 -0.00061131676 7.9388553e-20)
(0.25742154 -0.00066417743 1.8329144e-19)
(0.2545896 -0.00065044234 1.4408613e-20)
(0.24365871 -0.00060064453 -3.3737771e-20)
(0.21103455 -0.00023378679 -7.9871242e-20)
(0.259193 -3.6693881e-05 5.7823599e-18)
(0.25919873 -9.285746e-05 5.5999765e-18)
(0.25921134 -0.00014806165 -8.4422462e-19)
(0.25923061 -0.00020663289 7.5991772e-19)
(0.25925648 -0.0002648995 7.100286e-19)
(0.25928848 -0.00032332972 2.355936e-21)
(0.25932457 -0.00038173097 1.3486636e-19)
(0.25935785 -0.00043986308 1.6680189e-19)
(0.25936788 -0.00049714489 2.4042461e-19)
(0.25929853 -0.00055310431 -2.0104059e-19)
(0.2589988 -0.00059970361 2.3356552e-19)
(0.25801896 -0.00064623362 1.2877808e-19)
(0.25467145 -0.00063499349 1.0108079e-19)
(0.24235144 -0.00056062195 -2.4141282e-20)
(0.20813123 -0.0002141088 -2.533332e-21)
(0.26006576 -3.6034055e-05 5.1828248e-18)
(0.26007152 -9.1214285e-05 3.610245e-18)
(0.26008417 -0.00014544281 2.6007092e-19)
(0.26010346 -0.00020298347 1.4986865e-19)
(0.26012923 -0.00026021093 3.3366117e-19)
(0.2601607 -0.0003175869 2.106181e-19)
(0.26019497 -0.00037489796 1.1777349e-21)
(0.26022303 -0.0004318747 1.5486121e-20)
(0.26021952 -0.00048779067 4.6502089e-20)
(0.26011767 -0.00054204301 2.3106539e-20)
(0.25974224 -0.00058714002 3.5811889e-19)
(0.25857279 -0.00062806077 1.2245058e-19)
(0.25467557 -0.00061594005 1.4523016e-19)
(0.24100379 -0.00052390611 3.4320497e-21)
(0.20544863 -0.00019196317 7.4585864e-20)
(0.2609225 -3.5349633e-05 3.285723e-18)
(0.26092828 -8.9497286e-05 2.7428243e-18)
(0.26094096 -0.00014270541 3.4997565e-19)
(0.26096023 -0.00019916671 1.2284503e-19)
(0.2609858 -0.00025530722 4.5798743e-19)
(0.2610165 -0.00031157922 4.7516129e-19)
(0.26104844 -0.00036774517 4.4756901e-19)
(0.2610702 -0.00042350433 3.8211658e-19)
(0.26105114 -0.00047801113 2.35776e-19)
(0.26091327 -0.00053046086 8.9901798e-20)
(0.2604557 -0.00057393662 2.9820864e-19)
(0.2590814 -0.00060990566 1.0950052e-19)
(0.2546009 -0.00059424331 3.3676816e-20)
(0.23963056 -0.00048937354 9.2913806e-20)
(0.20297926 -0.00016931833 1.0839881e-19)
(0.26176274 -3.4655539e-05 4.1161616e-18)
(0.26176854 -8.7746856e-05 2.8331732e-18)
(0.26178122 -0.00013991377 -1.7001907e-18)
(0.26180042 -0.00019527247 3.8944687e-19)
(0.26182568 -0.00025030306 6.9160599e-19)
(0.26185536 -0.00030544608 5.0550475e-19)
(0.26188442 -0.00036043768 4.2224605e-19)
(0.26189878 -0.00041494196 3.195333e-19)
(0.26186213 -0.00046801763 2.479163e-19)
(0.2616848 -0.00051862213 -6.4764314e-20)
(0.26113855 -0.00056034346 1.7274513e-19)
(0.25954316 -0.00059189153 1.2953611e-19)
(0.25444651 -0.0005706321 -1.5844826e-21)
(0.23824529 -0.00045627776 7.6337159e-20)
(0.20071509 -0.00014735259 3.3889302e-20)
(0.26258633 -3.3963061e-05 1.5679836e-18)
(0.26259213 -8.5993782e-05 1.1776143e-18)
(0.26260479 -0.00013711719 1.9290054e-18)
(0.26262388 -0.00019136968 4.1399475e-19)
(0.2626487 -0.00024528656 -5.5607656e-19)
(0.26267708 -0.00029929459 6.8698337e-19)
(0.26270267 -0.00035310243 1.698991e-19)
(0.26270848 -0.00040633486 6.6138798e-20)
(0.26265224 -0.00045797299 1.5894285e-19)
(0.26243199 -0.00050672606 1.0860065e-20)
(0.26179026 -0.00054656345 -1.9366841e-21)
(0.25995633 -0.0005740675 8.8588437e-20)
(0.25421177 -0.00054566294 5.2058811e-20)
(0.23686046 -0.00042415214 3.4313573e-21)
(0.19864765 -0.0001267576 -6.1765836e-20)
(0.26339335 -3.3281401e-05 8.4573296e-19)
(0.26339915 -8.4262742e-05 4.7410164e-18)
(0.26341177 -0.0001343551 3.0269373e-18)
(0.26343068 -0.0001875135 9.2684489e-19)
(0.26345493 -0.00024032822 1.1410037e-18)
(0.26348171 -0.00029321054 5.3409051e-19)
(0.2635032 -0.00034584107 2.8530525e-19)
(0.2634993 -0.00039780175 4.025761e-19)
(0.26342146 -0.0004480083 5.8637728e-20)
(0.26315482 -0.00049492779 6.8535774e-20)
(0.26241041 -0.00053276479 1.7152428e-20)
(0.26031893 -0.00055643964 1.1350982e-19)
(0.2538966 -0.000519773 9.9792759e-20)
(0.23548766 -0.00039274464 2.2004067e-20)
(0.19676807 -0.00010792878 -2.0742247e-20)
(0.26418413 -3.2618313e-05 4.5987285e-18)
(0.26418991 -8.2574227e-05 2.7608753e-18)
(0.26420246 -0.00013166021 1.5767791e-18)
(0.26422112 -0.0001837496 8.6852839e-19)
(0.26424465 -0.00023548649 7.3001659e-19)
(0.2642695 -0.00028726512 5.6341243e-20)
(0.26428624 -0.00033873796 5.3996579e-19)
(0.26427145 -0.00038944152 5.4535007e-19)
(0.26416998 -0.0004382328 2.0091977e-19)
(0.26385341 -0.00048335173 1.7908701e-19)
(0.26299854 -0.00051908846 2.7520791e-19)
(0.26062878 -0.00053898816 1.4113587e-19)
(0.25350187 -0.00049331965 1.3284689e-19)
(0.2341376 -0.00036197184 9.8213508e-20)
(0.19506692 -9.1079357e-05 4.8268381e-20)
(0.26495914 -3.1980325e-05 4.7331304e-18)
(0.2649649 -8.0945389e-05 3.5465993e-18)
(0.26497734 -0.00012905989 1.5040277e-18)
(0.26499568 -0.00018011622 1.18303e-18)
(0.26501831 -0.00023081031 1.2912414e-18)
(0.26504088 -0.00028151807 5.0743723e-19)
(0.2650522 -0.00033186392 6.5292005e-19)
(0.2650253 -0.00038133727 2.7493776e-19)
(0.26489816 -0.00042873842 1.0776608e-19)
(0.26452796 -0.00047209828 2.0654895e-19)
(0.26355413 -0.00050565096 2.0469721e-19)
(0.2608835 -0.00052167636 1.5961867e-19)
(0.25302971 -0.00046660631 9.3492174e-20)
(0.23282016 -0.00033188327 1.6795941e-19)
(0.19353413 -7.6303788e-05 1.6392476e-19)
(0.26571903 -3.1372765e-05 1.7913948e-18)
(0.26572475 -7.9390279e-05 4.3436069e-18)
(0.26573705 -0.00012657658 3.4801948e-19)
(0.26575498 -0.00017664472 1.2696793e-18)
(0.26577653 -0.00022633987 1.2078871e-18)
(0.26579644 -0.0002760185 8.9407459e-19)
(0.26580163 -0.0003252772 2.3074865e-19)
(0.26576141 -0.00037355728 2.6295496e-20)
(0.26560652 -0.00041960061 -2.4939648e-20)
(0.26517878 -0.00046124612 1.24001e-19)
(0.26407657 -0.00049254343 2.9694335e-20)
(0.26108058 -0.00050445572 6.4137178e-20)
(0.25248384 -0.000439897 3.9368504e-20)
(0.23154421 -0.00030262987 5.3647064e-20)
(0.19215888 -6.3609734e-05 1.3586294e-19)
(0.26646455 -3.0799673e-05 7.1874323e-18)
(0.26647021 -7.7919711e-05 1.8184873e-18)
(0.26648233 -0.00012422759 3.6157141e-18)
(0.26649975 -0.0001733593 2.0905284e-18)
(0.26652002 -0.00022210618 -5.6981711e-19)
(0.26653688 -0.0002708044 1.2764062e-18)
(0.26653522 -0.00031902283 8.6395179e-19)
(0.26648042 -0.00036615421 8.2531349e-19)
(0.26629564 -0.00041087723 7.159094e-19)
(0.26580617 -0.00045085191 -6.9199369e-20)
(0.26456508 -0.00047982867 2.8803804e-19)
(0.26121753 -0.00048726982 2.7689195e-19)
(0.25186982 -0.00041342265 2.4007652e-19)
(0.23031742 -0.00027443217 2.3080915e-19)
(0.1909297 -5.2932836e-05 2.6145164e-19)
(0.26719653 -3.0263687e-05 3.1494772e-18)
(0.26720212 -7.6541024e-05 -5.6145156e-19)
(0.26721401 -0.00012202465 2.9544706e-18)
(0.26723083 -0.00017027641 1.6863597e-18)
(0.2672496 -0.00021813034 6.9294327e-19)
(0.26726299 -0.00026590165 1.0368831e-18)
(0.26725373 -0.0003131315 1.3189908e-18)
(0.26718309 -0.00035916374 1.0764848e-18)
(0.26696618 -0.00040260692 8.5826483e-19)
(0.26641044 -0.00044094906 -1.4798214e-20)
(0.26501868 -0.00046753759 2.0845253e-19)
(0.26129202 -0.00047005901 3.7839486e-19)
(0.25119506 -0.00038738325 2.7973654e-19)
(0.2291461 -0.00024754677 3.0018789e-19)
(0.18983455 -4.4145102e-05 2.8309188e-19)
(0.26791589 -2.9765992e-05 -3.9738206e-18)
(0.26792138 -7.5257933e-05 -4.4467127e-19)
(0.26793299 -0.00011997377 9.830173e-19)
(0.26794908 -0.00016740448 8.108924e-19)
(0.26796613 -0.00021442313 1.3443776e-18)
(0.26797562 -0.00026132351 2.8826757e-19)
(0.267958 -0.00030761887 4.9584771e-19)
(0.26787018 -0.00035260382 4.2121513e-19)
(0.2676188 -0.00039480805 9.2751382e-20)
(0.2669918 -0.00043154706 -7.979578e-20)
(0.26543617 -0.00045566687 2.8535911e-20)
(0.2613021 -0.00045276643 9.1104929e-20)
(0.2504687 -0.00036194908 8.1053259e-20)
(0.22803501 -0.00022223217 8.327452e-20)
(0.18886112 -3.7064088e-05 -1.3855428e-20)
(0.26862352 -2.9306383e-05 6.4186453e-18)
(0.2686289 -7.4070662e-05 1.220544e-18)
(0.26864017 -0.00011807532 2.510156e-18)
(0.26865542 -0.00016474412 2.6205212e-18)
(0.26867049 -0.00021098533 1.750651e-18)
(0.26867563 -0.000257071 1.2732869e-18)
(0.26864885 -0.00030248606 1.0946976e-18)
(0.26854251 -0.00034647515 7.1759006e-19)
(0.26825414 -0.00038747924 4.116238e-19)
(0.26755035 -0.00042263245 -2.441424e-19)
(0.2658161 -0.00044417905 3.7748598e-19)
(0.26124652 -0.00043534493 3.2168422e-19)
(0.24970133 -0.00033726333 3.3158604e-19)
(0.22698727 -0.00019871676 2.4472923e-19)
(0.18799711 -3.14664e-05 1.8358371e-19)
(0.26932033 -2.8883461e-05 3.3025499e-18)
(0.26932558 -7.2976356e-05 -7.7583688e-19)
(0.26933645 -0.00011632481 3.4892655e-19)
(0.26935072 -0.00016228909 2.0137507e-18)
(0.26936357 -0.0002078089 2.1457635e-18)
(0.26936389 -0.00025313433 1.5113724e-18)
(0.26932713 -0.0002977213 1.1034467e-18)
(0.26920083 -0.00034076321 7.0581158e-19)
(0.2688728 -0.00038060158 5.3552499e-19)
(0.26808605 -0.00041417146 1.7036009e-19)
(0.26615679 -0.00043300583 2.5101678e-19)
(0.26112496 -0.00041776402 2.8731173e-19)
(0.24890441 -0.00031344658 2.506109e-19)
(0.22600436 -0.00017717261 1.3031015e-19)
(0.18723056 -2.7105586e-05 1.6579828e-19)
(0.27000719 -2.8494911e-05 2.0155162e-18)
(0.27001228 -7.1969744e-05 2.9180593e-18)
(0.27002267 -0.00011471384 2.7750591e-18)
(0.27003582 -0.00016002771 1.9168349e-18)
(0.27004618 -0.00020487885 1.3123798e-18)
(0.27004119 -0.00024949516 1.3700099e-18)
(0.2699936 -0.00029330262 1.0117621e-18)
(0.26984584 -0.00033544136 8.9644789e-19)
(0.26947524 -0.00037414208 6.1920936e-19)
(0.2685986 -0.00040611399 2.8790923e-19)
(0.26645635 -0.00042205446 2.0599485e-19)
(0.2609383 -0.00040001523 3.3601109e-19)
(0.24808975 -0.00029060213 2.5178623e-19)
(0.22508629 -0.00015769827 1.6938686e-19)
(0.18655015 -2.3732129e-05 2.9995909e-20)
(0.27068489 -2.8137825e-05 7.2143168e-18)
(0.2706898 -7.1043907e-05 4.2202962e-18)
(0.27069965 -0.00011323138 4.6832727e-18)
(0.27071153 -0.00015794462 3.3008993e-18)
(0.2707191 -0.00020217545 1.282976e-18)
(0.27070829 -0.00024612933 2.2251883e-18)
(0.27064898 -0.00028920108 1.8060815e-18)
(0.27047818 -0.00033047455 1.3726162e-18)
(0.27006181 -0.00036805783 9.5220772e-19)
(0.26908753 -0.00039839812 1.6570669e-19)
(0.26671278 -0.00041121648 4.6968387e-19)
(0.26068881 -0.00038211515 6.9746954e-19)
(0.24726882 -0.00026882041 5.805284e-19)
(0.22423175 -0.00014031231 5.8959179e-19)
(0.18594537 -2.1112145e-05 2.2523997e-19)
(0.27135418 -2.7809012e-05 8.7664522e-20)
(0.27135887 -7.0191041e-05 3.2525901e-18)
(0.2713681 -0.00011186497 3.1094916e-18)
(0.27137855 -0.00015602247 2.1781748e-18)
(0.27138303 -0.00019967637 2.1353249e-18)
(0.27136587 -0.00024300948 1.6989142e-18)
(0.27129391 -0.00028538386 1.2786519e-18)
(0.27109836 -0.000325823 6.5517099e-19)
(0.27063272 -0.00036230005 4.9470939e-19)
(0.26955206 -0.00039095432 1.0266818e-19)
(0.26692403 -0.00040037783 2.1591949e-19)
(0.26038022 -0.00036410564 4.1183945e-19)
(0.24645221 -0.00024818087 3.335244e-19)
(0.22343841 -0.00012495718 3.7988057e-19)
(0.18540672 -1.9041829e-05 2.0323086e-19)
(0.27201571 -2.7505236e-05 3.5783083e-18)
(0.27202015 -6.94031e-05 2.5262861e-18)
(0.27202866 -0.00011060176 3.3937611e-18)
(0.27203751 -0.00015424331 2.702034e-18)
(0.2720386 -0.00019735858 2.5538039e-18)
(0.27201452 -0.00024010733 1.7584136e-18)
(0.27192892 -0.00028181693 1.1828961e-18)
(0.2717068 -0.00032144525 8.6661104e-19)
(0.27118802 -0.00035681747 4.7080048e-19)
(0.2699912 -0.00038370884 1.1956366e-19)
(0.26708822 -0.000389429 3.5247601e-19)
(0.26001771 -0.00034605163 2.5664878e-19)
(0.24564917 -0.00022875085 4.1389347e-19)
(0.22270325 -0.00011151161 3.852618e-19)
(0.18492573 -1.7355841e-05 3.0592903e-19)
(0.27267005 -2.7223403e-05 4.5264576e-18)
(0.27267421 -6.8672269e-05 1.0079674e-18)
(0.27268192 -0.00010942927 1.3285162e-18)
(0.27268898 -0.00015258973 2.1587054e-18)
(0.27268634 -0.00019519966 2.1580078e-18)
(0.27265476 -0.00023739527 1.3596948e-18)
(0.27255447 -0.00027846699 1.2205481e-18)
(0.2723038 -0.00031730047 9.2445631e-19)
(0.27172756 -0.00035155883 3.2520366e-19)
(0.27040369 -0.00037658611 5.5276206e-19)
(0.26720375 -0.00037827411 2.5987815e-19)
(0.25960771 -0.00032803712 2.3288172e-19)
(0.24486735 -0.00021058183 3.724776e-19)
(0.22202277 -9.9808132e-05 3.1092023e-19)
(0.18449494 -1.5929481e-05 2.9937491e-19)
(0.27331772 -2.6960667e-05 1.7722975e-18)
(0.27332155 -6.7991275e-05 4.6106974e-18)
(0.27332837 -0.00010833587 3.6164008e-18)
(0.27333345 -0.00015104547 2.2490889e-18)
(0.27332673 -0.00019317869 9.8121647e-19)
(0.27328702 -0.00023484751 1.3501547e-18)
(0.27317093 -0.0002753027 1.1714066e-18)
(0.27288957 -0.0003133499 1.0003892e-18)
(0.27225107 -0.00034647442 4.65052e-19)
(0.27078808 -0.00036951039 5.3339027e-19)
(0.26726952 -0.00036683813 2.452479e-19)
(0.25915765 -0.00031016019 4.1731671e-19)
(0.24411266 -0.00019370462 3.2752753e-19)
(0.22139331 -8.9652393e-05 2.9209636e-19)
(0.1841079 -1.4675685e-05 3.1557707e-19)
(0.27395916 -2.6714475e-05 5.9846614e-18)
(0.27396262 -6.7353542e-05 4.697504e-18)
(0.27396843 -0.00010731104 4.4723275e-18)
(0.27397134 -0.00014959583 3.8202513e-18)
(0.27396016 -0.00019127671 1.3567929e-18)
(0.27391168 -0.00023244055 2.0953e-18)
(0.2737786 -0.00027229533 1.6880603e-18)
(0.27346419 -0.00030955757 1.7522811e-18)
(0.27275806 -0.00034151676 1.2207405e-18)
(0.27114274 -0.00036240703 2.60624e-19)
(0.26728512 -0.00035507154 7.3064321e-19)
(0.25867552 -0.00029252747 7.4510325e-19)
(0.24338933 -0.0001781252 6.7443406e-19)
(0.22081116 -8.0841183e-05 5.7808213e-19)
(0.18375901 -1.3538663e-05 4.5517085e-19)
(0.27459475 -2.648259e-05 8.600635e-19)
(0.2745978 -6.6753261e-05 4.211352e-18)
(0.27460249 -0.0001063455 2.5136745e-18)
(0.274603 -0.0001482278 2.0787635e-18)
(0.27458699 -0.00018947691 2.4396916e-18)
(0.27452902 -0.00023015345 1.2292632e-18)
(0.27437767 -0.00026941896 1.1754209e-18)
(0.27402763 -0.00030589064 8.6041493e-19)
(0.27324789 -0.00033664079 9.1597308e-19)
(0.27146593 -0.0003552038 4.5337585e-19)
(0.26725094 -0.00034295249 4.241561e-19)
(0.25816956 -0.00027524858 4.339675e-19)
(0.24270004 -0.00016382253 4.4364324e-19)
(0.22027275 -7.31771e-05 2.504625e-19)
(0.18344349 -1.2486084e-05 1.8545929e-19)
(0.27522481 -2.6263072e-05 7.7238651e-19)
(0.27522741 -6.6185368e-05 3.2484176e-18)
(0.27523087 -0.00010543114 2.7840989e-18)
(0.27522875 -0.00014693 2.1990789e-18)
(0.27520748 -0.00018776456 2.4580782e-18)
(0.2751393 -0.00022796774 1.4524325e-18)
(0.27496829 -0.00026665041 1.0490223e-18)
(0.27457978 -0.00030231921 7.728065e-19)
(0.27371976 -0.0003318036 7.8802106e-19)
(0.27175586 -0.00034783257 5.2568238e-19)
(0.26716832 -0.00033048643 3.8903566e-19)
(0.25764777 -0.00025843059 5.6800824e-19)
(0.24204621 -0.00015074939 4.6989265e-19)
(0.21977469 -6.6478875e-05 2.7096934e-19)
(0.18315725 -1.1501416e-05 1.2037816e-19)
(0.27584964 -2.6054262e-05 1.6853724e-18)
(0.27585173 -6.5645513e-05 7.774123e-19)
(0.27585383 -0.00010456099 1.1894251e-18)
(0.27584885 -0.00014569263 2.4075608e-18)
(0.27582189 -0.00018612688 2.517648e-18)
(0.2757427 -0.00022586725 1.2527804e-18)
(0.27555052 -0.00026396905 1.1835659e-18)
(0.27512041 -0.00029881616 8.7680487e-19)
(0.27417268 -0.00032696406 5.4145937e-19)
(0.27201082 -0.00034023144 8.3015055e-19)
(0.26703956 -0.00031770398 4.089674e-19)
(0.25711762 -0.00024217266 4.7616992e-19)
(0.24142819 -0.0001388359 4.731757e-19)
(0.21931381 -6.0587294e-05 2.9969933e-19)
(0.18289682 -1.0577465e-05 1.8621804e-19)
(0.27646948 -2.5854749e-05 5.6271205e-18)
(0.27647102 -6.5129982e-05 4.2662163e-18)
(0.27647162 -0.00010372909 3.523062e-18)
(0.27646352 -0.00014450731 2.3769788e-18)
(0.2764304 -0.00018455289 1.8327968e-18)
(0.27633935 -0.00022383792 1.5517725e-18)
(0.27612438 -0.00026135649 1.4282409e-18)
(0.27564919 -0.00029535665 9.1392823e-19)
(0.27460555 -0.00032208226 5.1883935e-19)
(0.27222923 -0.0003323472 8.116643e-19)
(0.26686787 -0.00030465718 5.4533626e-19)
(0.25658579 -0.00022656124 4.1084839e-19)
(0.2408456 -0.00012799525 5.0451325e-19)
(0.21888719 -5.5367357e-05 3.3361603e-19)
(0.18265925 -9.7115748e-06 2.2722266e-19)
(0.27708455 -2.5663344e-05 8.7703408e-18)
(0.27708548 -6.4635632e-05 4.9729381e-18)
(0.27708444 -0.0001029304 4.6831792e-18)
(0.27707294 -0.00014336686 3.2981937e-18)
(0.27703318 -0.00018303314 1.8854652e-18)
(0.27692935 -0.00022186744 2.3699777e-18)
(0.2766898 -0.00025879623 1.8663081e-18)
(0.27616569 -0.00029191777 1.570261e-18)
(0.27501711 -0.00031711916 1.111457e-18)
(0.27240981 -0.00032413774 3.876503e-19)
(0.26665728 -0.00029141517 8.2144478e-19)
(0.256058 -0.00021166602 7.4785537e-19)
(0.24029748 -0.00011813046 8.1271348e-19)
(0.21849214 -5.0707635e-05 6.11662e-19)
(0.18244204 -8.9025283e-06 4.1159838e-19)
(0.27769504 -2.5479045e-05 -1.5804737e-19)
(0.27769529 -6.4159807e-05 5.448648e-18)
(0.27769247 -0.00010216065 2.8428348e-18)
(0.27767729 -0.00014226521 2.3984899e-18)
(0.27763035 -0.0001815595 2.3638003e-18)
(0.27751275 -0.00021994503 1.6181526e-18)
(0.27724666 -0.00025627339 1.0954127e-18)
(0.27666938 -0.00028847797 1.0134556e-18)
(0.275406 -0.00031203634 6.718455e-19)
(0.27255164 -0.0003155742 4.428847e-19)
(0.26641246 -0.00027805925 2.8779358e-19)
(0.25553894 -0.0001975371 3.1790576e-19)
(0.23978254 -0.00010914112 3.8701525e-19)
(0.21812621 -4.6517855e-05 4.0031447e-19)
(0.18224308 -8.1488502e-06 2.855185e-19)
(0.27830111 -2.5301006e-05 2.6602073e-18)
(0.27830062 -6.370027e-05 4.8986688e-18)
(0.27829586 -0.0001014162 3.4141643e-18)
(0.27827669 -0.00014119716 3.1454596e-18)
(0.278222 -0.00018012494 2.3292966e-18)
(0.27808956 -0.00021806116 1.6470252e-18)
(0.2777948 -0.00025377436 1.31304e-18)
(0.27715962 -0.0002850166 9.8090463e-19)
(0.27577079 -0.0003067961 7.6717654e-19)
(0.27265429 -0.00030664249 6.2538564e-19)
(0.26613848 -0.00026467813 3.9630213e-19)
(0.2550323 -0.00018420368 5.8984772e-19)
(0.23929925 -0.00010092916 4.0279093e-19)
(0.21778713 -4.272564e-05 5.4033496e-19)
(0.18206056 -7.4481393e-06 3.4257957e-19)
(0.27890291 -2.5128516e-05 3.3713662e-18)
(0.27890162 -6.3255128e-05 1.8307386e-18)
(0.27889474 -0.00010069401 2.2609128e-18)
(0.27887126 -0.00014015827 2.7623622e-18)
(0.27880821 -0.00017872332 2.6142949e-18)
(0.27865976 -0.00021620724 1.4515743e-18)
(0.27833397 -0.00025128651 1.1293593e-18)
(0.27763569 -0.00028151345 9.75411e-19)
(0.27611001 -0.00030136189 9.2069971e-19)
(0.2727179 -0.00029734386 8.8625246e-19)
(0.26584062 -0.00025136318 6.2297779e-19)
(0.25454084 -0.0001716744 5.8377849e-19)
(0.23884602 -9.3403162e-05 4.8683543e-19)
(0.21747286 -3.9273086e-05 5.5570133e-19)
(0.18189296 -6.7970313e-06 3.7557623e-19)
(0.27950056 -2.4960972e-05 -2.3353738e-18)
(0.2794984 -6.2822775e-05 3.2900283e-18)
(0.27948922 -9.9991433e-05 2.2921794e-18)
(0.27946108 -0.00013914467 1.3573161e-18)
(0.279389 -0.00017734922 2.0818035e-18)
(0.27922329 -0.00021437542 6.9624296e-19)
(0.27886389 -0.00024879793 2.4578369e-19)
(0.27809674 -0.00027794829 4.0451698e-19)
(0.27642222 -0.00029569921 3.646498e-19)
(0.27274323 -0.00028769475 6.2190265e-19)
(0.2655241 -0.00023820407 2.4097246e-19)
(0.25406651 -0.00015993913 7.3835216e-20)
(0.23842119 -8.6481059e-05 8.5963018e-20)
(0.21718151 -3.6113614e-05 2.1609616e-20)
(0.18173897 -6.1914736e-06 1.3583797e-19)
(0.28009418 -2.4797857e-05 5.2660889e-20)
(0.28009107 -6.2401835e-05 2.3549329e-18)
(0.28007941 -9.9306215e-05 3.0247535e-18)
(0.28004623 -0.00013815299 1.4212965e-18)
(0.27996442 -0.00017599777 1.7623909e-18)
(0.27978006 -0.00021255838 7.4020617e-19)
(0.2793842 -0.00024629716 5.1076166e-19)
(0.27854186 -0.00027430051 2.0156192e-19)
(0.27670605 -0.00028977676 1.3219333e-19)
(0.27273166 -0.00027772561 4.8016505e-19)
(0.26519392 -0.00022528492 2.4116532e-19)
(0.25361059 -0.00014897207 2.1592803e-19)
(0.23802316 -8.0091243e-05 9.2763278e-20)
(0.21691137 -3.3209345e-05 -1.5362868e-19)
(0.18159747 -5.6271002e-06 6.0060653e-20)
(0.28068388 -2.4638722e-05 3.6520257e-18)
(0.28067974 -6.1991116e-05 4.4524861e-18)
(0.28066539 -9.8636372e-05 3.1221264e-18)
(0.28062676 -0.00013718023 1.3675838e-18)
(0.28053445 -0.00017466448 1.5633926e-18)
(0.28032993 -0.00021074912 1.1665516e-18)
(0.27989449 -0.00024377295 8.2272062e-19)
(0.27897002 -0.00027054891 2.7643643e-19)
(0.27696025 -0.00028356787 3.3472614e-19)
(0.27268518 -0.00026747917 3.9703742e-19)
(0.26485469 -0.00021268094 3.4741653e-19)
(0.25317379 -0.0001387355 1.0483479e-19)
(0.23765034 -7.4172533e-05 9.9301275e-20)
(0.2166609 -3.052904e-05 -6.4715823e-20)
(0.18146749 -5.0995697e-06 7.9110575e-20)
(0.28126974 -2.4483173e-05 3.836162e-18)
(0.28126448 -6.1589567e-05 8.0930778e-18)
(0.28124722 -9.7980137e-05 3.3633846e-18)
(0.28120271 -0.00013622364 9.2255705e-19)
(0.28109907 -0.00017334515 3.6782662e-19)
(0.28087275 -0.00020894083 5.7914014e-19)
(0.28039427 -0.00024121406 6.3730742e-20)
(0.27938014 -0.00026667151 -8.6574607e-20)
(0.27718382 -0.00027705192 -1.0337374e-19)
(0.27260633 -0.00025700813 -6.6810387e-20)
(0.26451052 -0.00020045589 -3.718922e-19)
(0.25275643 -0.0001291838 -4.2529126e-19)
(0.23730122 -6.86733e-05 -3.9849596e-19)
(0.21642866 -2.8046576e-05 -2.0009058e-19)
(0.18134818 -4.6048206e-06 -9.5922944e-20)
(0.28185185 -2.4330856e-05 2.0452085e-18)
(0.28184539 -6.1196251e-05 5.5658476e-18)
(0.28182498 -9.7335909e-05 3.0822698e-18)
(0.28177412 -0.00013528068 1.645853e-18)
(0.28165823 -0.00017203574 9.3613016e-19)
(0.2814083 -0.00020712677 3.85338e-19)
(0.28088299 -0.00023860899 -1.0045193e-19)
(0.27977106 -0.00026264571 -1.2347913e-19)
(0.27737601 -0.00027021576 -1.900843e-19)
(0.27249806 -0.00024637259 2.413038e-20)
(0.26416497 -0.00018866044 -4.1111581e-19)
(0.2523585 -0.00012026726 -4.4862453e-19)
(0.23697438 -6.3550158e-05 -3.8536877e-19)
(0.21621337 -2.5739838e-05 -2.4430982e-19)
(0.18123881 -4.1392152e-06 -1.483292e-19)
(0.28243029 -2.4181449e-05 2.3434363e-18)
(0.28242252 -6.0810309e-05 4.1145691e-18)
(0.28239871 -9.6702199e-05 3.4231562e-18)
(0.28234099 -0.00013434892 2.6000667e-18)
(0.28221186 -0.00017073227 2.1354224e-18)
(0.28193636 -0.00020530013 9.3683505e-19)
(0.28136003 -0.00023594579 5.5476779e-19)
(0.2801416 -0.00025844847 4.1762969e-19)
(0.27753642 -0.00026305463 6.2026286e-19)
(0.27236366 -0.00023563728 2.2063898e-19)
(0.26382105 -0.00017733139 1.2902078e-19)
(0.25197976 -0.00011193524 -9.6155542e-20)
(0.23666845 -5.8766528e-05 2.2330898e-22)
(0.21601387 -2.3589948e-05 8.8699691e-20)
(0.1811387 -3.6996124e-06 6.5285984e-20)
(0.28300512 -2.4034648e-05 3.8526432e-18)
(0.28299594 -6.0430939e-05 1.7012639e-18)
(0.28296845 -9.6077598e-05 3.0090977e-18)
(0.28290332 -0.00013342601 1.724035e-18)
(0.28275987 -0.00016943078 1.5453007e-18)
(0.28245663 -0.00020345398 1.0546691e-18)
(0.28182471 -0.00023321187 6.0971713e-19)
(0.28049057 -0.00025405692 6.172322e-19)
(0.27766504 -0.00025557287 7.2642756e-19)
(0.27220658 -0.00022486883 6.2452171e-19)
(0.26348123 -0.00016649195 9.4139408e-20)
(0.25161982 -0.00010413868 2.4786666e-19)
(0.23638216 -5.4291276e-05 3.6353225e-20)
(0.21582908 -2.1580692e-05 2.2318814e-19)
(0.18104728 -3.2833587e-06 1.3349147e-19)
(0.2835764 -2.3890167e-05 4.2294454e-18)
(0.28356569 -6.0057379e-05 1.8745442e-18)
(0.28353424 -9.5460738e-05 3.4312499e-18)
(0.2834611 -0.00013250962 1.5662298e-18)
(0.28330215 -0.00016812719 1.5683393e-18)
(0.28296879 -0.00020158114 1.1638902e-18)