/*--------------------------------*- C++ -*----------------------------------*\
| =========                 |                                                 |
| \\      /  F ield         | OpenFOAM: The Open Source CFD Toolbox           |
|  \\    /   O peration     | Version:  2506                                  |
|   \\  /    A nd           | Website:  www.openfoam.com                      |
|    \\/     M anipulation  |                                                 |
\*---------------------------------------------------------------------------*/
FoamFile
{
    version     2.0;
    format      ascii;
    arch        "LSB;label=32;scalar=64";
    class       volScalarField;
    location    "2000/rock";
    object      T;
}
// * * * * * * * * * * * * * * * * * * * * * * * * * * * * * * * * * * * * * //

dimensions      [0 0 0 1 0 0 0];

internalField   nonuniform List<scalar> 
6000
(
315.42067
304.28369
298.55136
295.11938
292.86091
291.27608
290.11114
289.22425
288.53028
287.97518
287.52311
287.14943
286.83667
286.57213
286.3464
286.15234
285.98445
285.83843
285.7109
285.59912
285.50087
285.41434
285.338
285.27055
285.21087
285.15795
285.11082
285.06844
285.02959
284.99248
319.01482
308.15136
301.93268
297.9895
295.30804
293.38816
291.95824
290.8597
289.99445
289.29895
288.73039
288.25901
287.86354
287.5284
287.24197
286.9954
286.78184
286.59595
286.43346
286.29095
286.16564
286.05523
285.95781
285.87175
285.79566
285.72827
285.66843
285.61497
285.56668
285.52219
320.79802
310.66319
304.46185
300.32494
297.40845
295.26658
293.6421
292.3774
291.37131
290.55639
289.88622
289.32796
288.85779
288.4581
288.1156
287.82013
287.56376
287.34026
287.14465
286.97292
286.82179
286.68856
286.57097
286.46713
286.37537
286.29428
286.22254
286.15895
286.10237
286.05173
321.8719
312.39546
306.37705
302.21483
299.19065
296.91598
295.1584
293.77015
292.6532
291.74034
290.98422
290.35069
289.81458
289.35703
288.96367
288.62338
288.32744
288.06894
287.84234
287.64313
287.46763
287.3128
287.17611
287.05539
286.94882
286.8548
286.77195
286.69902
286.63492
286.57871
322.60903
313.66587
307.86605
303.75693
300.70184
298.35723
296.5148
295.03916
293.83831
292.8477
292.02086
291.32365
290.73055
290.22211
289.78337
289.40263
289.07062
288.77996
288.52468
288.2999
288.10164
287.92656
287.7719
287.63532
287.51481
287.40868
287.31544
287.23384
287.16277
287.10136
323.15915
314.6463
309.05736
305.03342
301.99048
299.61735
297.72546
296.19115
294.92915
293.87863
292.99506
292.24518
291.60375
291.05132
290.57272
290.15596
289.79151
289.47165
289.19012
288.94181
288.72247
288.52857
288.35717
288.20576
288.07223
287.95477
287.85184
287.76213
287.68455
287.61821
323.5929
315.43353
310.03584
306.10709
303.09904
300.72348
298.80699
297.23581
295.93101
294.83569
293.90767
293.11509
292.43342
291.84357
291.33046
290.88209
290.48879
290.1427
289.83742
289.56764
289.32897
289.11773
288.93083
288.76567
288.62002
288.49201
288.38005
288.28277
288.19905
288.12799
323.9482
316.08522
310.85784
307.02426
304.0622
301.70007
299.7759
298.18391
296.85065
295.7229
294.76092
293.9344
293.2198
292.59859
292.05602
291.58022
291.16157
290.7922
290.46562
290.17645
289.92019
289.69309
289.49196
289.31411
289.15726
289.01946
288.89908
288.79471
288.70522
288.62965
324.2475
316.63767
311.56154
307.81888
304.90741
302.56799
300.6474
299.04617
297.6954
296.54512
295.55789
294.70496
293.96386
293.31676
292.74935
292.25005
291.80938
291.41953
291.07403
290.76749
290.49537
290.25387
290.03975
289.85027
289.6831
289.53625
289.40805
289.29707
289.20212
289.12224
324.50505
317.11486
312.17351
308.51594
305.65609
303.34456
301.43489
299.8326
298.47254
297.30751
296.30212
295.42911
294.66707
293.99892
293.41086
292.89165
292.43204
292.02435
291.6622
291.34023
291.05392
290.79944
290.57354
290.37346
290.19683
290.04166
289.90622
289.78906
289.68898
289.60496
324.73041
317.5333
312.7127
309.1341
306.32501
304.04394
302.14983
300.55221
299.18895
298.01521
296.99738
296.10954
295.33129
294.64629
294.04128
293.5054
293.02967
292.6066
292.22993
291.89436
291.59543
291.32933
291.09281
290.88312
290.69787
290.53505
290.39292
290.27002
290.1651
290.07715
324.93022
317.90475
313.19299
309.68742
306.92728
304.67767
302.80197
301.21293
299.85094
298.67312
297.64739
296.74902
295.95854
295.26029
294.64157
294.09191
293.60261
293.16639
292.77715
292.4297
292.11964
291.8432
291.59718
291.37881
291.18574
291.01592
290.86763
290.73939
290.62993
290.53821
325.1093
318.23783
313.62478
310.18674
307.47327
305.25515
303.39946
301.82165
300.46417
299.28579
298.25574
297.35033
296.55092
295.8425
295.21288
294.65196
294.15136
293.70402
293.304
292.94624
292.62642
292.34085
292.08635
291.8602
291.66004
291.48386
291.32991
291.19672
291.083
290.98769
325.27117
318.53902
314.016
310.64048
307.97124
305.78407
303.94918
302.38431
301.03366
299.85738
298.8258
297.91616
297.11055
296.39455
295.75642
295.18646
294.67656
294.21991
293.81072
293.44408
293.11578
292.82218
292.56017
292.32706
292.12052
291.93856
291.77943
291.64164
291.52393
291.42521
325.41855
318.8133
314.37281
311.05529
308.42786
306.27072
304.45688
302.90602
301.56382
300.39161
299.36069
298.44907
297.63948
296.91805
296.27347
295.69637
295.17893
294.71456
294.29766
293.92344
293.5878
293.28718
293.01855
292.77925
292.567
292.37979
292.21592
292.0739
291.95245
291.85048
325.55354
319.06457
314.7001
311.4365
308.84852
306.72034
304.92742
303.39117
302.05853
300.89185
299.86325
298.95143
298.13969
297.41462
296.76531
296.1827
295.65925
295.18858
294.76524
294.3846
294.04266
293.73596
293.46152
293.21674
292.99936
292.80743
292.63923
292.4933
292.36835
292.2633
325.67782
319.29595
315.00177
311.78843
309.23765
307.13725
305.36491
303.84352
302.52117
301.36106
300.33606
299.42546
298.61303
297.88581
297.23321
296.64649
296.11835
295.64259
295.21395
294.82792
294.48062
294.16867
293.88916
293.63953
293.41759
293.2214
293.04926
292.89972
292.77151
292.66352
325.79273
319.50993
315.28101
312.11461
309.59892
307.5251
305.77281
304.26632
302.95469
301.80192
300.78147
299.87317
299.06124
298.33307
297.6784
297.08875
296.55703
296.07726
295.64431
295.25381
294.90197
294.58552
294.3016
294.04773
293.82173
293.6217
293.44599
293.29313
293.16186
293.05109
325.89939
319.70858
315.54043
312.41798
309.93541
307.88694
306.15411
304.66237
303.3617
302.21676
301.20157
300.29643
299.48593
298.7578
298.10206
297.51047
296.97615
296.49327
296.05688
295.66271
295.30707
294.98679
294.69906
294.44147
294.21187
294.00841
293.82943
293.67352
293.5394
293.42598
325.99871
319.89361
315.7822
312.70098
310.24968
308.2254
306.51135
305.03412
303.74446
302.60767
301.59826
300.69692
299.88859
299.1613
298.50532
297.91262
297.37651
296.89132
296.45223
296.05508
295.69631
295.37278
295.08178
294.82094
294.58817
294.38162
294.19969
294.04096
293.90418
293.78825
326.09147
320.06644
316.00816
312.96568
310.54394
308.5427
306.84674
305.38367
304.10499
302.97652
301.97324
301.07618
300.2706
299.54479
298.88925
298.29613
297.75892
297.27209
296.83094
296.43144
296.07008
295.74383
295.45004
295.18638
294.9508
294.7415
294.55689
294.39556
294.25629
294.13799
326.17832
320.22829
316.21985
313.21383
310.82005
308.84075
307.16218
305.71289
304.44503
303.32496
302.32803
301.43561
300.63323
299.90941
299.25485
298.66188
298.12414
297.63624
297.19359
296.79226
296.42882
296.10031
295.80415
295.53804
295.29999
295.08823
294.90118
294.73748
294.59588
294.47532
326.25982
320.38018
316.4186
313.44694
311.07962
309.12122
307.45933
306.02338
304.76617
303.65448
302.66403
301.77649
300.97764
300.25621
299.60307
299.01073
298.47294
297.98445
297.54077
297.13806
296.77297
296.4426
296.14443
295.87622
295.636
295.42204
295.23279
295.06688
294.92312
294.80041
326.33643
320.523
316.60554
313.66632
311.32407
309.38556
307.73965
306.31661
305.06978
303.96639
302.98248
302.09998
301.30491
300.58617
299.9348
299.34346
298.80603
298.31735
297.87304
297.46933
297.10297
296.7711
296.47125
296.20122
295.9591
295.74317
295.55192
295.384
295.2382
295.11346
326.40859
320.65751
316.78165
313.87309
311.5546
309.63503
308.00442
306.59382
305.3571
304.26188
303.2845
302.40714
301.61601
300.90019
300.25088
299.66085
299.1241
298.63557
298.19097
297.7866
297.41927
297.0862
296.78495
296.51338
296.2696
296.05192
295.85885
295.68906
295.54136
295.41468
326.47664
320.78438
316.94781
314.06824
311.77229
309.87075
308.25479
306.85616
305.62926
304.54204
303.57113
302.69895
301.91187
301.19914
300.55209
299.96361
299.4278
298.9397
298.49509
298.09034
297.72232
297.38831
297.08591
296.81303
296.56779
296.34855
296.15383
295.98232
295.83284
295.70433
326.5409
320.9042
317.10476
314.25265
311.97809
310.09371
308.49175
307.10465
305.88723
304.80782
303.8433
302.97628
302.19332
301.48379
300.83916
300.25242
299.71777
299.23033
298.78594
298.38104
298.01258
297.67785
297.37452
297.10052
296.85401
296.63337
296.43715
296.26405
296.1129
295.98266
326.60165
321.01748
317.25318
314.42708
312.17283
310.30479
308.71622
307.34018
306.13193
305.06012
304.10187
303.23996
302.46113
301.75489
301.11279
300.52794
299.99461
299.508
299.06403
298.65919
298.29047
297.95522
297.65114
297.3762
297.12859
296.90671
296.70912
296.53455
296.38184
296.24994
326.65914
321.12468
317.39366
314.59222
312.35727
310.5048
308.92901
307.56358
306.36418
305.29973
304.3476
303.49075
302.71604
302.01311
301.37362
300.79076
300.25889
299.77326
299.32986
298.92525
298.55644
298.22083
297.91617
297.64044
297.39187
297.16887
296.97004
296.79411
296.63993
296.50647
326.71359
321.22621
317.52673
314.74869
312.53207
310.69442
309.13085
307.77559
306.5847
305.52739
304.58122
303.72933
302.9587
302.25909
301.62226
301.04147
300.51115
300.02662
299.58393
299.17967
298.8109
298.47508
298.16997
297.89358
297.64418
297.42019
297.22023
297.04303
296.88747
296.75252
326.76519
321.32244
317.65286
314.89703
312.69784
310.87432
309.32241
307.97689
306.79419
305.74377
304.80339
303.95635
303.18975
302.49344
301.85928
301.2806
300.75191
300.26857
299.82668
299.42288
299.05429
298.71837
298.41292
298.136
297.88587
297.66099
297.45999
297.28163
297.12477
296.98841
326.81412
321.41369
317.77249
315.03776
312.85514
311.04506
309.50429
308.1681
306.99326
305.94949
305.01473
304.1724
303.40975
302.71672
302.08522
301.50869
300.98166
300.49958
300.05858
299.65533
299.287
298.95108
298.6454
298.36804
298.11728
297.89161
297.68966
297.51021
297.35213
297.21443
326.86055
321.50028
317.88601
315.17131
313.00446
311.20719
309.67705
308.34978
307.18249
306.14512
305.21578
304.37805
303.61926
302.92944
302.3006
301.72622
301.20089
300.72011
300.28005
299.87743
299.50943
299.1736
298.86777
298.59005
298.33875
298.11237
297.90955
297.72908
297.56986
297.43089
326.90462
321.58246
317.99378
315.29812
313.14625
311.36119
309.84118
308.52245
307.3624
306.33118
305.40709
304.57381
303.81878
303.13212
302.5059
301.93365
301.41004
300.93059
300.49151
300.08957
299.72197
299.38629
299.08039
298.80239
298.55062
298.3236
298.11999
297.93857
297.77827
297.63809
326.94646
321.6605
318.09611
315.41855
313.28094
311.5075
309.99717
308.68659
307.53347
306.50818
305.58913
304.76016
304.00879
303.32521
302.70156
302.13143
301.60953
301.13143
300.69337
300.29215
299.925
299.58952
299.28361
299.00539
298.75322
298.52562
298.32128
298.13898
297.97766
297.83633
326.98619
321.73462
318.19331
315.53295
313.40891
311.64655
310.14544
308.84266
307.69617
306.67655
305.76237
304.93756
304.18973
303.50916
302.88803
302.31999
301.79979
301.32304
300.88601
300.48554
300.11888
299.78365
299.47777
299.19938
298.94687
298.71875
298.51374
298.33062
298.16834
298.02592
327.02394
321.80503
318.28566
315.64165
313.53053
311.7787
310.28639
308.99105
307.85092
306.83674
305.92724
305.10644
304.36204
303.68438
303.06571
302.49972
301.9812
301.50579
301.06981
300.6701
300.30396
299.96902
299.66321
299.38471
299.13189
298.90331
298.69767
298.5138
298.35061
298.20714
327.0598
321.87193
318.37341
315.74495
313.6461
311.90432
310.4204
309.13216
307.9981
306.98915
306.08413
305.26719
304.5261
303.85127
303.23499
302.671
302.15414
301.68006
301.24512
300.84619
300.48059
300.14596
299.84026
299.56168
299.30861
299.07961
298.8734
298.6888
298.52476
298.38031
327.09387
321.9355
318.45679
315.84312
313.75596
312.02373
310.54781
309.26635
308.1381
307.13413
306.23342
305.42019
304.6823
304.0102
303.39625
302.83421
302.31896
301.8462
301.41229
301.01415
300.64909
300.3148
300.00924
299.73061
299.47732
299.24794
299.0412
298.85593
298.69108
298.54569
327.12625
321.9959
318.53603
315.93642
313.86037
312.13725
310.66894
309.39395
308.27124
307.27206
306.37548
305.56581
304.831
304.16153
303.54982
302.98969
302.47601
302.00454
301.57166
301.1743
300.8098
300.47585
300.17045
299.8918
299.63832
299.4086
299.20137
299.01547
298.84986
298.70358
327.15701
322.0533
318.61133
316.02509
313.95962
312.24516
310.7841
309.51529
308.39787
307.40325
306.51062
305.70438
304.97252
304.3056
303.69606
303.13776
302.62563
302.15541
301.72354
301.32695
300.96301
300.62943
300.3242
300.04555
299.79191
299.56188
299.35419
299.1677
299.00137
298.85425
327.18624
322.10784
318.68289
316.10936
314.05395
312.34773
310.89358
309.63065
308.51828
307.52803
306.63918
305.83622
305.1072
304.44272
303.83528
303.27876
302.76811
302.29913
301.86824
301.47242
301.10903
300.77582
300.47077
300.19215
299.93838
299.70806
299.49995
299.31291
299.1459
298.99797
327.21401
322.15967
318.75089
316.18944
314.14359
312.44521
310.99765
309.74032
308.63277
307.64668
306.76146
305.96163
305.23533
304.57321
303.96779
303.41298
302.90378
302.43599
302.00606
301.61099
301.24816
300.91531
300.61046
300.33188
300.07799
299.84742
299.63892
299.45135
299.2837
299.13501
327.24038
322.2089
318.81549
316.26553
314.22877
312.53786
311.09656
309.84457
308.74161
307.7595
306.87773
306.08091
305.35721
304.69735
304.09387
303.54072
303.03291
302.56628
302.13729
301.74295
301.38066
301.04818
300.74354
300.465
300.21102
299.98021
299.77135
299.58329
299.41503
299.26562
327.26544
322.25567
318.87687
316.33781
314.30971
312.62589
311.19055
309.94364
308.84506
307.86674
306.98827
306.19432
305.47312
304.81542
304.2138
303.66225
303.15579
302.69027
302.26219
301.86857
301.50681
301.1747
300.87027
300.59179
300.33773
300.10671
299.8975
299.70899
299.54015
299.39005
327.28923
322.30009
318.93516
316.40648
314.38659
312.70952
311.27985
310.03777
308.94337
307.96867
307.09334
306.30213
305.58332
304.92769
304.32786
303.77784
303.27267
302.80823
302.38104
301.98811
301.62688
301.29513
300.9909
300.71249
300.45836
300.22715
300.01763
299.82868
299.65929
299.50855
327.31181
322.34227
318.99051
316.47168
314.4596
312.78895
311.36467
310.1272
309.03676
308.06551
307.19318
306.4046
305.68807
305.03442
304.4363
303.88774
303.38382
302.92043
302.49408
302.10182
301.7411
301.40971
301.1057
300.82736
300.57317
300.34178
300.13196
299.94261
299.77271
299.62135
327.33325
322.38231
319.04307
316.5336
314.52893
312.86437
311.44522
310.21213
309.12547
308.1575
307.28803
306.50194
305.78759
305.13584
304.53936
303.99221
303.48949
303.02709
302.60156
302.20996
301.84973
301.51869
301.21488
300.93662
300.68239
300.45084
300.24074
300.05101
299.88062
299.72867
327.35359
322.42031
319.09295
316.59236
314.59475
312.93598
311.5217
310.29277
309.2097
308.24485
307.37811
306.5944
305.88213
305.23219
304.63728
304.09147
303.5899
303.12846
302.70372
302.31275
301.953
301.6223
301.3187
301.04052
300.78625
300.55455
300.3442
300.1541
299.98325
299.83075
327.37289
322.45637
319.14028
316.64813
314.6572
313.00393
311.59428
310.36931
309.28966
308.32778
307.46363
306.68219
305.9719
305.32368
304.73027
304.18576
303.68528
303.22476
302.80079
302.41042
302.05114
301.72076
301.41737
301.13927
300.88498
300.65313
300.44254
300.2521
300.08082
299.92779
327.39118
322.49057
319.18518
316.70104
314.71646
313.06841
311.66315
310.44193
309.36553
308.40648
307.5448
306.76552
306.05712
305.41055
304.81856
304.27528
303.77585
303.31622
302.89297
302.50318
302.14435
301.81429
301.5111
301.23309
300.97877
300.7468
300.53599
300.34523
300.17354
300.02001
327.40852
322.52299
319.22776
316.75121
314.77265
313.12956
311.72847
310.51082
309.43751
308.48114
307.62181
306.84458
306.13798
305.49298
304.90236
304.36025
303.86182
303.40304
302.98048
302.59126
302.23286
301.90311
301.60011
301.32219
301.06785
300.83576
300.62474
300.43368
300.2616
300.1076
327.42496
322.55373
319.26812
316.79877
314.82593
313.18754
311.79041
310.57615
309.50576
308.55194
307.69484
306.91957
306.21468
305.57117
304.98185
304.44086
303.94339
303.48541
303.06353
302.67484
302.31685
301.9874
301.68459
301.40676
301.15241
300.92021
300.70899
300.51765
300.3452
300.19075
327.44052
322.58285
319.30637
316.84384
314.87642
313.24248
311.84911
310.63806
309.57046
308.61906
307.76408
306.99067
306.2874
305.64531
305.05722
304.51731
304.02075
303.56354
303.1423
302.75412
302.39653
302.06737
301.76475
301.48699
301.23263
301.00035
300.78893
300.59732
300.42453
300.26966
327.45525
322.61043
319.34259
316.88654
314.92425
313.29454
311.90473
310.69673
309.63176
308.68266
307.82969
307.05804
306.35632
305.71558
305.12867
304.58977
304.09409
303.63761
303.21698
302.82929
302.47208
302.1432
301.84075
301.56309
301.30872
301.07634
300.86476
300.6729
300.49978
300.3445
327.46919
322.63654
319.37689
316.92696
314.96954
313.34383
311.9574
310.75229
309.68982
308.7429
307.89184
307.12186
306.42161
305.78215
305.19636
304.65843
304.16357
303.7078
303.28774
302.90053
302.54369
302.21507
301.91279
301.63521
301.38084
301.14838
300.93663
300.74453
300.57111
300.41546
327.48237
322.66124
319.40935
316.96522
315.01241
313.39049
312.00725
310.80488
309.74478
308.79993
307.95068
307.18229
306.48343
305.84519
305.26046
304.72345
304.22938
303.77428
303.35477
302.96801
302.61151
302.28315
301.98104
301.70354
301.44917
301.21663
301.00473
300.81241
300.63869
300.48269
327.49483
322.6846
319.44004
317.00141
315.05296
313.43463
312.05442
310.85464
309.79679
308.8539
308.00636
307.23948
306.54193
305.90486
305.32113
304.78499
304.29168
303.83721
303.41823
303.03189
302.67573
302.34761
302.04566
301.76824
301.51387
301.28126
301.06922
300.87669
300.7027
300.54635
327.50659
322.70668
319.46907
317.03563
315.0913
313.47637
312.09902
310.9017
309.84597
308.90493
308.05902
307.29357
306.59728
305.9613
305.37853
304.84322
304.35061
303.89674
303.47827
303.09234
302.7365
302.40861
302.10681
301.82946
301.5751
301.34242
301.13025
300.93753
300.76328
300.60661
327.5177
322.72754
319.49649
317.06797
315.12754
313.51582
312.14118
310.94618
309.89246
308.95318
308.10881
307.3447
306.6496
306.01466
305.4328
304.89827
304.40634
303.95305
303.53505
303.14951
302.79396
302.4663
302.16465
301.88738
301.63302
301.40028
301.18799
300.99507
300.82058
300.66361
327.52817
322.74723
319.52238
317.0985
315.16176
313.55308
312.181
310.98819
309.93638
308.99876
308.15584
307.39301
306.69903
306.06508
305.48408
304.9503
304.45901
304.00625
303.58871
303.20353
302.84828
302.52083
302.21932
301.94212
301.68777
301.45497
301.24256
301.04948
300.87475
300.71751
327.53804
322.7658
319.54681
317.12732
315.19407
313.58826
312.2186
311.02786
309.97785
309.0418
308.20025
307.43863
306.74572
306.11269
305.53251
304.99943
304.50875
304.05651
303.6394
303.25457
302.89959
302.57234
302.27096
301.99383
301.73949
301.50665
301.29413
301.10088
300.92594
300.76842
327.54734
322.78332
319.56986
317.15451
315.22454
313.62144
312.25407
311.06529
310.01697
309.0824
308.24216
307.48169
306.78977
306.15763
305.57821
305.04581
304.5557
304.10395
303.68724
303.30275
302.94803
302.62097
302.31972
302.04266
301.78832
301.55543
301.34281
301.14941
300.97426
300.8165
327.55608
322.79982
319.59158
317.18013
315.25327
313.65273
312.28751
311.10058
310.05386
309.1207
308.28168
307.52229
306.83132
306.20001
305.62132
305.08955
304.59998
304.14869
303.73237
303.34819
302.99372
302.66684
302.36572
302.08872
301.8344
301.60146
301.38874
301.1952
301.01986
300.86186
327.5643
322.81534
319.61203
317.20427
315.28033
313.6822
312.31902
311.13383
310.08863
309.15678
308.31893
307.56055
306.87048
306.23995
305.66195
305.13077
304.64172
304.19087
303.77492
303.39103
303.03679
302.71009
302.40909
302.13215
301.87783
301.64486
301.43205
301.23837
301.06286
300.90464
327.57202
322.82995
319.63127
317.22699
315.30581
313.70995
312.34868
311.16514
310.12136
309.19076
308.354
307.59658
306.90736
306.27757
305.70022
305.16961
304.68104
304.2306
303.81499
303.43139
303.07737
302.75084
302.44994
302.17306
301.91876
301.68574
301.47286
301.27905
301.10337
300.94494
327.57926
322.84368
319.64936
317.24835
315.32977
313.73605
312.37658
311.19459
310.15216
309.22273
308.387
307.63049
306.94206
306.31297
305.73623
305.20615
304.71804
304.268
303.85271
303.46938
303.11557
302.78919
302.4884
302.21158
301.95728
301.72424
301.51127
301.31735
301.14151
300.98288
327.58604
322.85656
319.66636
317.26842
315.35228
313.76058
312.40282
311.22228
310.18111
309.25279
308.41803
307.66237
306.97469
306.34626
305.7701
305.24052
304.75284
304.30316
303.88819
303.5051
303.15149
302.82526
302.52457
302.2478
301.99352
301.76044
301.54741
301.35338
301.17739
301.01858
327.59238
322.86865
319.68231
317.28726
315.37342
313.78361
312.42745
311.24829
310.2083
309.28102
308.44717
307.69231
307.00534
306.37754
305.80192
305.27281
304.78554
304.33621
303.92152
303.53867
303.18525
302.85916
302.55857
302.28185
302.02758
301.79447
301.58137
301.38724
301.21111
301.05213
327.59831
322.87997
319.69726
317.30493
315.39326
313.80522
312.45056
311.27269
310.23382
309.30752
308.47452
307.72042
307.03412
306.40689
305.83178
305.30312
304.81623
304.36723
303.95282
303.57019
303.21695
302.89099
302.59049
302.31382
302.05956
301.82643
301.61327
301.41903
301.24278
301.08364
327.60385
322.89057
319.71126
317.32149
315.41184
313.82547
312.47222
311.29556
310.25775
309.33235
308.50017
307.74678
307.06109
306.43442
305.85979
305.33155
304.84502
304.39632
303.98217
303.59975
303.24668
302.92084
302.62042
302.34381
302.08956
301.8564
301.64318
301.44886
301.27249
301.1132
327.609
322.90047
319.72436
317.33698
315.42923
313.84444
312.49251
311.31698
310.28015
309.35562
308.52419
307.77146
307.08637
306.46021
305.88603
305.35817
304.87199
304.42358
304.00966
303.62745
303.27453
302.94882
302.64848
302.37191
302.11767
301.88449
301.67122
301.47682
301.30033
301.1409
327.6138
322.90971
319.7366
317.35146
315.44549
313.86216
312.51148
311.33701
310.3011
309.37738
308.54666
307.79455
307.11001
306.48433
305.91058
305.38309
304.89722
304.44909
304.0354
303.65337
303.3006
302.975
302.67474
302.39821
302.14398
301.91079
301.69747
301.50299
301.3264
301.16683
327.61825
322.91833
319.74802
317.36498
315.46068
313.87872
312.52919
311.35572
310.32068
309.39771
308.56766
307.81614
307.1321
306.50688
305.93352
305.40638
304.92081
304.47293
304.05946
303.67761
303.32497
302.99947
302.69928
302.4228
302.16858
301.93537
301.72201
301.52745
301.35077
301.19108
327.62237
322.92634
319.75865
317.37758
315.47484
313.89417
312.54572
311.37318
310.33895
309.41669
308.58725
307.83628
307.15273
306.52793
305.95494
305.42812
304.94283
304.49519
304.08191
303.70023
303.34773
303.02233
302.72221
302.44576
302.19155
301.95832
301.74492
301.5503
301.37352
301.21372
327.62619
322.93379
319.76855
317.3893
315.48802
313.90855
312.56112
311.38945
310.35597
309.43437
308.60551
307.85505
307.17195
306.54754
305.9749
305.44839
304.96336
304.51593
304.10285
303.72132
303.36894
303.04363
302.74358
302.46717
302.21297
301.97973
301.76629
301.57161
301.39475
301.23484
327.6297
322.9407
319.77774
317.4002
315.50027
313.92192
312.57544
311.40458
310.3718
309.45081
308.6225
307.87251
307.18983
306.5658
305.99348
305.46725
304.98246
304.53525
304.12234
303.74095
303.38869
303.06347
302.76347
302.4871
302.23292
301.99966
301.78618
301.59145
301.41451
301.25451
327.63294
322.94709
319.78625
317.41031
315.51164
313.93434
312.58873
311.41862
310.3865
309.46609
308.63828
307.88874
307.20645
306.58276
306.01074
305.48477
305.00022
304.5532
304.14045
303.7592
303.40705
303.08191
302.78197
302.50563
302.25146
302.01819
301.80468
301.60989
301.43289
301.27279
327.63591
322.95299
319.79413
317.41966
315.52218
313.94584
312.60105
311.43165
310.40013
309.48026
308.65291
307.90378
307.22186
306.59849
306.02675
305.50103
305.01669
304.56985
304.15726
303.77613
303.42408
303.09901
302.79913
302.52282
302.26866
302.03538
301.82185
301.62701
301.44994
301.28977
327.63862
322.95843
319.8014
317.42831
315.53191
313.95647
312.61244
311.44369
310.41274
309.49336
308.66645
307.91771
307.23612
306.61305
306.04158
305.51608
305.03193
304.58527
304.17282
303.79181
303.43985
303.11486
302.81502
302.53874
302.28459
302.05131
301.83775
301.64287
301.46574
301.30549
327.64109
322.96342
319.80809
317.43627
315.54088
313.96628
312.62295
311.45481
310.42439
309.50546
308.67896
307.93057
307.24929
306.6265
306.05527
305.52998
305.04602
304.59951
304.18719
303.80629
303.45442
303.1295
302.82971
302.55346
302.29932
302.06603
301.85244
301.65752
301.48034
301.32002
327.64333
322.968
319.81424
317.44359
315.54914
313.9753
312.63263
311.46504
310.4351
309.5166
308.69047
307.94241
307.26143
306.63889
306.06788
305.5428
305.059
304.61264
304.20044
303.81965
303.46785
303.14299
302.84325
302.56702
302.3129
302.0796
301.86599
301.67104
301.4938
301.33342
327.64536
322.97217
319.81986
317.4503
315.55671
313.98358
312.64151
311.47443
310.44495
309.52684
308.70105
307.95329
307.27258
306.65028
306.07948
305.55457
305.07093
304.6247
304.21263
303.83192
303.48021
303.1554
302.8557
302.5795
302.32538
302.09208
301.87846
301.68347
301.50619
301.34575
327.64717
322.97597
319.82498
317.45642
315.56362
313.99115
312.64963
311.48303
310.45396
309.53621
308.71074
307.96326
307.2828
306.66071
306.0901
305.56536
305.08187
304.63577
304.22379
303.84317
303.49153
303.16678
302.86712
302.59094
302.33683
302.10353
301.88989
301.69487
301.51755
301.35705
327.64879
322.9794
319.82964
317.46199
315.56992
313.99805
312.65704
311.49087
310.46218
309.54476
308.71958
307.97236
307.29212
306.67024
306.0998
305.57522
305.09186
304.64587
304.23399
303.85346
303.50187
303.17718
302.87755
302.6014
302.3473
302.11399
301.90033
301.7053
301.52793
301.36739
327.65022
322.98249
319.83385
317.46704
315.57564
314.00431
312.66376
311.498
310.46965
309.55253
308.72762
307.98064
307.3006
306.6789
306.10863
305.58419
305.10095
304.65506
304.24328
303.86281
303.51129
303.18664
302.88705
302.61092
302.35683
302.12352
301.90985
301.71479
301.53739
301.37681
327.65148
322.98526
319.83764
317.47159
315.58079
314.00997
312.66984
311.50444
310.4764
309.55956
308.7349
307.98813
307.30828
306.68675
306.11663
305.59231
305.10918
304.6634
304.25169
303.8713
303.51983
303.19522
302.89566
302.61955
302.36547
302.13216
301.91848
301.7234
301.54597
301.38535
327.65256
322.98772
319.84102
317.47566
315.58542
314.01505
312.6753
311.51023
310.48248
309.56589
308.74145
307.99487
307.3152
306.69382
306.12383
305.59963
305.11661
304.67091
304.25928
303.87895
303.52753
303.20296
302.90343
302.62733
302.37327
302.13996
301.92627
301.73117
301.55372
301.39306
327.65349
322.98988
319.84402
317.47929
315.58954
314.01958
312.68018
311.51541
310.48792
309.57156
308.74731
308.00091
307.3214
306.70015
306.13028
305.60619
305.12326
304.67764
304.26608
303.8858
303.53443
303.2099
302.91039
302.63432
302.38026
302.14695
301.93325
301.73814
301.56067
301.39998
327.65426
322.99177
319.84665
317.48249
315.59318
314.02359
312.6845
311.52
310.49274
309.57659
308.75252
308.00628
307.3269
306.70578
306.13602
305.61203
305.12918
304.68363
304.27213
303.89191
303.54058
303.21608
302.9166
302.64054
302.38649
302.15319
301.93948
301.74435
301.56686
301.40615
327.65489
322.99339
319.84895
317.48528
315.59637
314.02711
312.6883
311.52404
310.49699
309.58101
308.7571
308.01101
307.33176
306.71075
306.14109
305.61718
305.13441
304.68892
304.27748
303.8973
303.54601
303.22154
302.92209
302.64604
302.392
302.1587
301.94499
301.74985
301.57234
301.41161
327.65539
322.99476
319.85091
317.48769
315.59914
314.03016
312.6916
311.52755
310.50068
309.58487
308.7611
308.01513
307.336
306.71508
306.14551
305.62168
305.13897
304.69355
304.28215
303.90202
303.55076
303.22632
302.92688
302.65086
302.39682
302.16352
301.94981
301.75466
301.57714
301.41639
327.65575
322.9959
319.85257
317.48973
315.60149
314.03277
312.69442
311.53055
310.50385
309.58818
308.76454
308.01868
307.33964
306.71882
306.14932
305.62556
305.14291
304.69754
304.28619
303.90609
303.55487
303.23045
302.93103
302.65502
302.40099
302.16769
301.95398
301.75883
301.5813
301.42053
327.65599
322.99681
319.85392
317.49143
315.60345
314.03496
312.6968
311.53309
310.50652
309.59098
308.76745
308.02168
307.34273
306.72198
306.15255
305.62885
305.14625
304.70093
304.28961
303.90955
303.55835
303.23396
302.93456
302.65856
302.40454
302.17125
301.95753
301.76238
301.58484
301.42406
327.65612
322.9975
319.855
317.49279
315.60505
314.03674
312.69874
311.53517
310.50873
309.59328
308.76985
308.02417
307.34529
306.7246
306.15523
305.63158
305.14903
304.70374
304.29246
303.91243
303.56126
303.23688
302.9375
302.66151
302.4075
302.17421
301.9605
301.76534
301.58779
301.427
327.65613
322.99799
319.85581
317.49384
315.60629
314.03814
312.70028
311.53682
310.51048
309.59513
308.77177
308.02615
307.34734
306.72671
306.15739
305.63378
305.15127
304.70601
304.29476
303.91475
303.56361
303.23925
302.93988
302.6639
302.4099
302.17661
301.9629
301.76774
301.59019
301.4294
327.65604
322.99829
319.85637
317.4946
315.6072
314.03918
312.70142
311.53806
310.5118
309.59652
308.77323
308.02767
307.34891
306.72833
306.15905
305.63547
305.15299
304.70777
304.29654
303.91656
303.56542
303.24108
302.94172
302.66576
302.41176
302.17848
301.96478
301.76962
301.59207
301.43127
327.65584
322.9984
319.85669
317.49507
315.60779
314.03987
312.7022
311.53892
310.51272
309.5975
308.77426
308.02875
307.35002
306.72948
306.16023
305.63668
305.15423
304.70903
304.29782
303.91786
303.56674
303.24241
302.94307
302.66711
302.41312
302.17985
301.96614
301.77099
301.59344
301.43264
327.65556
322.99834
319.85677
317.49527
315.60808