/*--------------------------------*- C++ -*----------------------------------*\
| =========                 |                                                 |
| \\      /  F ield         | OpenFOAM: The Open Source CFD Toolbox           |
|  \\    /   O peration     | Version:  2506                                  |
|   \\  /    A nd           | Website:  www.openfoam.com                      |
|    \\/     M anipulation  |                                                 |
\*---------------------------------------------------------------------------*/
FoamFile
{
    version     2.0;
    format      ascii;
    arch        "LSB;label=32;scalar=64";
    class       volScalarField;
    location    "29000/water";
    object      alphat;
}
// * * * * * * * * * * * * * * * * * * * * * * * * * * * * * * * * * * * * * //

dimensions      [1 -1 -1 0 0 0 0];

internalField   nonuniform List<scalar> 
2600
(
0.040489031
0.04048893
0.040488932
0.040488969
0.04048893
0.040488424
0.040485257
0.04046703
0.040362559
0.039762099
0.036475623
0.024118064
0.014862723
0.039376404
0.039376463
0.039376584
0.03937667
0.03937627
0.039373342
0.039357935
0.03928206
0.038918252
0.037247647
0.030707814
0.017504579
0.016810247
0.03845331
0.038453299
0.038453385
0.038453188
0.038451259
0.038441479
0.038397507
0.038208927
0.037432867
0.034484227
0.025768479
0.01464355
0.017680736
0.037674097
0.037673994
0.037673876
0.037672833
0.03766736
0.037643826
0.037549741
0.037190974
0.035896577
0.031717985
0.022022178
0.013507107
0.017935556
0.037006829
0.037006634
0.03700605
0.037003229
0.036991211
0.03694503
0.036777672
0.036201229
0.034343725
0.029136321
0.019390213
0.01332192
0.01787019
0.036428097
0.036427705
0.036426239
0.036420305
0.036397905
0.036319194
0.03605724
0.035231095
0.03281421
0.026833154
0.017684561
0.01376901
0.017658004
0.035920433
0.035919673
0.03591673
0.035905979
0.035868817
0.035747845
0.035374204
0.034281783
0.031338745
0.024847734
0.016751764
0.014701365
0.017395975
0.035470606
0.03546924
0.035464057
0.035446499
0.035390052
0.035218253
0.034721129
0.033357857
0.029935921
0.02320089
0.016491475
0.016024754
0.017137191
0.035068412
0.03506614
0.035057811
0.035031314
0.034951338
0.034722033
0.034094772
0.032463227
0.028616047
0.021918169
0.016839593
0.01764423
0.016909598
0.034705855
0.034702323
0.034689851
0.034652315
0.034545228
0.034254009
0.03349406
0.031599319
0.027389013
0.021039007
0.017742707
0.01944683
0.016725717
0.034376582
0.0343714
0.034353768
0.03430331
0.034166516
0.033811296
0.032918607
0.030765036
0.026274288
0.020612421
0.019134169
0.021310298
0.0165878
0.034075484
0.034068256
0.034044512
0.033979658
0.033811775
0.033392551
0.032367695
0.029958513
0.025310237
0.020682514
0.02092045
0.023125093
0.01649134
0.03379842
0.033788771
0.033758129
0.033677993
0.033478994
0.032997353
0.031839672
0.029180919
0.024557973
0.021270679
0.022983308
0.024813262
0.016428198
0.033542011
0.033529635
0.033491576
0.033396025
0.033167279
0.032625685
0.031331906
0.02844226
0.024095308
0.02236241
0.02519592
0.026333969
0.016389375
0.033303501
0.033288203
0.033242589
0.033132389
0.0328766
0.032277488
0.030841496
0.027768047
0.024001078
0.023903802
0.027443847
0.027676786
0.016366908
0.033080659
0.033062404
0.03300959
0.032886524
0.032607559
0.031952311
0.030367145
0.027204004
0.02433601
0.025808536
0.029640409
0.028850257
0.01635471
0.032871707
0.032850677
0.032791627
0.032658586
0.032361164
0.031649138
0.029912405
0.026815113
0.025128027
0.027972561
0.031731261
0.029871995
0.016348606
0.032675278
0.032651931
0.032588332
0.032449362
0.032138606
0.031366538
0.029490156
0.026676984
0.02636662
0.030291378
0.033689748
0.030762439
0.016345973
0.032490392
0.032465523
0.0323999
0.032260198
0.031941021
0.031103392
0.02912715
0.026861559
0.028006319
0.032674378
0.035508202
0.031541613
0.016345289
0.03231644
0.032291251
0.032227075
0.032092906
0.0317693
0.030860474
0.028866523
0.027422393
0.029976611
0.035052626
0.037189756
0.032227633
0.016345749
0.032153193
0.032129365
0.032071151
0.03194966
0.031623986
0.030643052
0.028765902
0.028384667
0.032194875
0.037379729
0.038742713
0.03283612
0.016346971
0.032000817
0.031980587
0.031933965
0.031832869
0.031505423
0.030464306
0.02889021
0.02974227
0.034578897
0.03962804
0.040177389
0.033380111
0.016348812
0.031859898
0.031846136
0.031817892
0.031745018
0.031414333
0.030348689
0.029300797
0.031461311
0.037056245
0.041783222
0.041504536
0.033870256
0.016351246
0.031731488
0.031727775
0.031725824
0.031688525
0.03135306
0.03033369
0.030044465
0.033487926
0.039569152
0.043839375
0.042734578
0.034315152
0.016354289
0.031617156
0.031627852
0.031661123
0.031665646
0.031327617
0.030468392
0.031145813
0.035757864
0.042075208
0.045795594
0.043877213
0.034721702
0.016357969
0.031519059
0.031549348
0.031627545
0.031678558
0.031350387
0.030808118
0.032604586
0.038205565
0.044545299
0.047653853
0.044941234
0.035095454
0.016362307
0.03144002
0.031495925
0.031629136
0.031729781
0.031442848
0.031406234
0.034397784
0.040771063
0.046960466
0.049417771
0.045934485
0.035440886
0.01636731
0.031383622
0.031471952
0.031670108
0.031823119
0.03163718
0.032305489
0.036485152
0.043403918
0.049308925
0.051091865
0.046863895
0.035761638
0.016372969
0.03135431
0.031482518
0.031754744
0.031965285
0.031975485
0.03353143
0.038816235
0.046064362
0.05158377
0.052681067
0.047735562
0.036060692
0.016379266
0.031357497
0.031533412
0.031887426
0.032168112
0.032505946
0.03508941
0.041337346
0.048722492
0.053781404
0.054190404
0.048554837
0.036340517
0.016386174
0.031399659
0.031631056
0.032072921
0.032450914
0.033276475
0.036965352
0.043997169
0.051356524
0.055900494
0.05562481
0.049326441
0.036603249
0.016393659
0.031488426
0.031782428
0.032317109
0.032842098
0.03432751
0.039129416
0.046750333
0.053950902
0.057941209
0.056988873
0.05005408
0.036848497
0.016401672
0.03163262
0.031994973
0.032628307
0.033378942
0.035685987
0.0415413
0.049558967
0.056494685
0.05990472
0.058286906
0.050741228
0.037078062
0.016410157
0.031842263
0.032276619
0.03301916
0.034104837
0.037361927
0.044155836
0.052392716
0.058980328
0.061792817
0.059522759
0.051390028
0.037293994
0.01641906
0.032128529
0.03263602
0.033508769
0.035064178
0.039348109
0.046927806
0.055227861
0.061402785
0.063607644
0.060699938
0.052002678
0.037497696
0.016428334
0.032503668
0.033083202
0.034124293
0.036296096
0.041622402
0.049815359
0.058046137
0.063758863
0.065351548
0.061821639
0.052582581
0.037690194
0.016437945
0.032980999
0.033630793
0.034901054
0.037828729
0.044151814
0.05278187
0.060833587
0.066046681
0.067026702
0.062889501
0.053132469
0.03787253
0.016447871
0.033575091
0.0342958
0.03588036
0.039675445
0.046897153
0.055796505
0.063579601
0.068265333
0.06863557
0.063907356
0.053654302
0.038045473
0.016458088
0.034302365
0.0351016
0.037105063
0.041833716
0.049817344
0.058833934
0.066276154
0.070414395
0.07017911
0.064878398
0.054149995
0.038209783
0.016468569
0.035182274
0.036079349
0.038613756
0.0442865
0.052872733
0.061873597
0.068917177
0.072494027
0.07166019
0.06580521
0.054621165
0.038366085
0.016479288
0.036239038
0.037267807
0.040435151
0.047005433
0.056027175
0.064898916
0.071498028
0.074503822
0.073081484
0.066690101
0.055069327
0.038514917
0.016490218
0.037503414
0.038710786
0.042584042
0.049954862
0.059248939
0.067896466
0.074015185
0.076444644
0.074445478
0.06753512
0.05549582
0.038656742
0.016501334
0.039013498
0.040452266
0.045059716
0.053095832
0.062510849
0.070855338
0.076465327
0.078317614
0.075754307
0.068342169
0.055901827
0.038791953
0.01651261
0.040813302
0.042530158
0.047846809
0.0563893
0.065789811
0.07376651
0.078846469
0.080124255
0.07700987
0.06911294
0.056288385
0.038920882
0.016524019
0.042948312
0.044970319
0.050918053
0.059798379
0.069066323
0.076621971
0.081156919
0.081865796
0.078213927
0.069848943
0.056656395
0.039043804
0.016535536
0.045458367
0.047782284
0.05423794
0.063289385
0.072323489
0.079415207
0.083396344
0.083543329
0.07936802
0.070551491
0.057006629
0.039160949
0.016547136
0.048369478
0.05095755
0.057766451
0.066832233
0.075546552
0.082140742
0.085564133
0.085157809
0.080473485
0.071221709
0.057339736
0.039272497
0.016558794
0.0516869
0.054470394
0.061462099
0.070399914
0.078721985
0.084794909
0.087659694
0.086709991
0.081531431
0.071860534
0.057656249
0.039378585
0.016570485
0.055391462
0.058280528
0.06528366
0.073967535
0.081839604
0.087374104
0.089682324
0.088200396
0.082542729
0.072468717
0.057956588
0.039479309
0.016582185
0.05944002
0.062336486
0.069190787
0.077513997
0.084890566
0.089874875
0.091631143
0.089629281
0.083508004
0.073046821
0.058241063
0.039574724
0.016593867
0.063769455
0.066579708
0.073146286
0.081021465
0.087866728
0.092293801
0.093505045
0.090996618
0.084427624
0.073595225
0.058509873
0.039664846
0.016605507
0.068304141
0.070949113
0.077116107
0.084473702
0.090760475
0.094627426
0.095302668
0.092302087
0.085301703
0.074114118
0.058763112
0.039749649
0.016617076
0.072963931
0.075384318
0.081068511
0.087855764
0.09356461
0.096872238
0.097022402
0.093545078
0.086130104
0.074603512
0.05900077
0.039829072
0.016628545
0.077671182
0.079828331
0.084974017
0.091153804
0.096272312
0.099024694
0.098662422
0.09472472
0.086912457
0.075063246
0.059222737
0.039903016
0.016639885
0.082355811
0.084229549
0.08880551
0.094354982
0.098877142
0.10108128
0.10022075
0.095839928
0.087648187
0.075493006
0.059428815
0.039971348
0.016651062
0.086958174
0.088543053
0.092538466
0.097447481
0.10137311
0.10303862
0.10169536
0.096889471
0.088336561
0.075892351
0.059618727
0.040033909
0.016662041
0.091430059
0.092731246
0.09615123
0.1004206
0.10375478
0.10489358
0.10308426
0.097872064
0.088976749
0.076260749
0.059792142
0.040090516
0.016672786
0.095734348
0.096763921
0.099625271
0.10326491
0.10601734
0.1066434
0.10438565
0.098786463
0.089567895
0.076597628
0.059948695
0.040140979
0.016683256
0.099843894
0.1006179
0.10294533
0.10597237
0.10815677
0.1082858
0.10559803
0.099631578
0.090109204
0.076902424
0.060088023
0.040185107
0.016693412
0.10374006
0.10427638
0.10609945
0.10853647
0.11016993
0.10981912
0.1067203
0.10040657
0.090600019
0.077174647
0.060209797
0.04022273
0.016703211
0.1074112
0.10772814
0.10907888
0.1109523
0.1120546
0.11124238
0.10775188
0.10111097
0.091039907
0.077413935
0.06031376
0.040253707
0.016712613
0.11085129
0.11096666
0.11187786
0.11321658
0.11380958
0.11255532
0.10869275
0.1017447
0.091428724
0.077620112
0.060399757
0.040277948
0.016721578
0.11405865
0.11398931
0.11449336
0.11532761
0.11543464
0.11375845
0.10954349
0.10230818
0.09176667
0.077793226
0.060467771
0.040295422
0.016730069
0.117035
0.11679664
0.1169247
0.11728519
0.11693055
0.114853
0.11030532
0.10280232
0.092054321
0.077933589
0.060517938
0.040306167
0.016738053
0.11978462
0.11939163
0.11917328
0.1190905
0.118299
0.11584093
0.11098003
0.10322852
0.092292642
0.078041785
0.060550566
0.0403103
0.016745501
0.12231367
0.12177923
0.12124217
0.12074594
0.11954251
0.11672484
0.11156999
0.10358867
0.092482984
0.078118682
0.060566135
0.040308015
0.016752391
0.12462972
0.12396583
0.12313585
0.12225495
0.12066438
0.11750795
0.11207807
0.10388511
0.092627062
0.078165419
0.0605653
0.040299581
0.016758706
0.12674132
0.12595891
0.12485991
0.12362189
0.12166853
0.11819396
0.11250757
0.10412055
0.092726926
0.078183389
0.060548874
0.040285339
0.016764436
0.12865769
0.12776673
0.12642077
0.12485186
0.12255946
0.11878701
0.11286218
0.10429806
0.092784921
0.078174214
0.060517819
0.040265698
0.016769577
0.1303885
0.12939809
0.12782552
0.12595053
0.12334212
0.1192916
0.1131459
0.10442098
0.092803636
0.078139709
0.060473224
0.040241116
0.016774133
0.13194368
0.13086212
0.12908172
0.12692404
0.12402182
0.11971251
0.11336298
0.10449287
0.092785865
0.078081852
0.06041628
0.040212101
0.016778112
0.13333325
0.13216816
0.13019721
0.12777884
0.12460412
0.12005472
0.11351781
0.10451748
0.092734544
0.07800274
0.060348256
0.040179188
0.01678153
0.13456722
0.1333256
0.13118005
0.12852163
0.12509478
0.12032335
0.1136149
0.10449862
0.092652708
0.077904548
0.060270471
0.040142934
0.016784408
0.13565551
0.13434377
0.13203833
0.1291592
0.12549965
0.12052356
0.11365882
0.10444016
0.092543431
0.077789487
0.060184266
0.040103899
0.01678677
0.13660784
0.13523188
0.13278014
0.12969839
0.1258246
0.12066053
0.11365412
0.10434595
0.092409786
0.077659767
0.060090975
0.040062637
0.016788645
0.13743367
0.13599895
0.13341343
0.13014599
0.12607547
0.12073938
0.11360526
0.1042198
0.092254792
0.077517559
0.059991904
0.040019681
0.016790065
0.13814219
0.13665372
0.133946
0.13050867
0.126258
0.12076513
0.11351663
0.1040654
0.092081384
0.077364962
0.059888306
0.03997554
0.016791061
0.13874221
0.13720464
0.13438543
0.13079296
0.1263778
0.12074265
0.11339246
0.10388631
0.091892379
0.077203983
0.059781365
0.039930682
0.016791668
0.13924223
0.13765982
0.13473903
0.13100518
0.12644031
0.12067667
0.1132368
0.10368593
0.091690456
0.077036515
0.059672191
0.03988554
0.01679192
0.13965032
0.13802705
0.13501382
0.13115143
0.12645077
0.1205717
0.11305356
0.10346751
0.091478147
0.076864332
0.059561803
0.039840504
0.016791851
0.13997421
0.13831373
0.13521655
0.13123757
0.12641421
0.12043207
0.11284642
0.10323409
0.09125782
0.076689076
0.059451137
0.039795922
0.016791493
0.14022124
0.13852692
0.13535363
0.13126922
0.12633547
0.12026193
0.11261889
0.10298856
0.091031687
0.076512262
0.059341038
0.039752102
0.016790878
0.14039837
0.13867334
0.13543119
0.13125173
0.12621913
0.12006518
0.11237427
0.10273359
0.090801791
0.076335274
0.059232265
0.039709314
0.016790037
0.14051218
0.13875934
0.13545505
0.1311902
0.12606956
0.11984554
0.11211567
0.10247171
0.090570017
0.076159365
0.059125492
0.039667791
0.016789001
0.14056892
0.13879091
0.13543071
0.13108946
0.12589091
0.11960652
0.11184598
0.10220521
0.090338082
0.075985659
0.059021309
0.039627727
0.016787796
0.14057443
0.13877374
0.13536336
0.13095408
0.12568708
0.11935138
0.11156791
0.10193623
0.090107533
0.075815139
0.058920175
0.039589068
0.016786449
0.14053423
0.13871312
0.1352579
0.13078835
0.12546173
0.11908319
0.11128394
0.10166669
0.089879746
0.075648645
0.05882246
0.039551777
0.016784981
0.14045346
0.13861403
0.13511889
0.13059629
0.12521827
0.11880478
0.11099634
0.10139832
0.089655908
0.075486828
0.058728194
0.039516148
0.016783412
0.14033691
0.13848111
0.13495061
0.13038164
0.12495988
0.11851874
0.11070717
0.10113266
0.089437054
0.075330276
0.058637725
0.039482309
0.016781763
0.14018904
0.13831866
0.13475701
0.13014789
0.12468947
0.11822746
0.11041828
0.10087102
0.089223971
0.075179113
0.058551484
0.03945035
0.016780054
0.14001398
0.13813067
0.13454175
0.12989822
0.12440973
0.11793309
0.1101313
0.10061455
0.08901728
0.075034022
0.058469609
0.039420316
0.016778304
0.13981552
0.13792081
0.13430824
0.12963561
0.12412313
0.11763756
0.10984767
0.10036419
0.088817504
0.074895448
0.058392213
0.039392234
0.01677653
0.13959718
0.13769249
0.13405957
0.12936276
0.12383188
0.11734261
0.1095686
0.10012057
0.08862542
0.074763618
0.058319365
0.039366106
0.016774746
0.1393622
0.13744883
0.13379863
0.12908215
0.12353801
0.11704977
0.10929509
0.099884624
0.088441475
0.074638694
0.058251089
0.039341919
0.016772965
0.13911357
0.13719271
0.13352806
0.12879606
0.12324335
0.11676036
0.10902814
0.099657119
0.088266001
0.074520782
0.058187377
0.039319643
0.016771199
0.138854
0.13692678
0.13325025
0.12850654
0.12294949
0.11647552
0.10876881
0.0994386
0.088099247
0.074409934
0.058128192
0.039299237
0.016769457
0.13858604
0.13665344
0.1329674
0.12821541
0.12265783
0.1161966
0.1085179
0.09922951
0.087941389
0.074306159
0.058073472
0.039280653
0.016767749
0.13831194
0.13637488
0.13268143
0.1279243
0.12236991
0.11592464
0.10827608
0.099030197
0.087792534
0.07420942
0.058023133
0.039263834
0.016766081
0.13803376
0.13609305
0.13239418
0.12763491
0.12208703
0.11566057
0.10804391
0.098840919
0.087652728
0.07411964
0.057977069
0.039248715
0.016764461
0.13775338
0.1358098
0.13210738
0.12734871
0.12181032
0.11540517
0.10782184
0.098661849
0.087521951
0.074036705
0.057935156
0.039235227
0.016762894
0.13747254
0.13552683
0.1318226
0.12706702
0.12154079
0.11515909
0.10761021
0.09849308
0.08740013
0.073960465
0.057897251
0.039223294
0.016761385
0.13719284
0.13524568
0.13154123
0.126791
0.12127929
0.11492287
0.10740927
0.098334629
0.087287137
0.073890735
0.057863197
0.039212836
0.016759938
0.1369157
0.13496775
0.13126452
0.12652167
0.12102655
0.11469693
0.10721916
0.098186442
0.087182796
0.073827304
0.057832823
0.03920377
0.016758555
0.13664241
0.13469425
0.13099357
0.12625989
0.12078316
0.11448158
0.10703995
0.098048404
0.08708689
0.073769937
0.057805949
0.039196009
0.016757238
0.13637411
0.13442628
0.13072933
0.12600642
0.1205496
0.11427705
0.10687165
0.097920346
0.086999165
0.073718382
0.057782387
0.039189468
0.016755989
0.1361118
0.13416479
0.13047262
0.12576187
0.12032626
0.11408347
0.10671417
0.09780205
0.086919344
0.073672373
0.057761947
0.03918406
0.016754809
0.13585633
0.13391058
0.13022413
0.12552674
0.12011343
0.1139009
0.10656738
0.097693264
0.086847124
0.073631635
0.057744441
0.039179704
0.016753696
0.13560847
0.13366435
0.12998445
0.12530146
0.11991128
0.11372933
0.1064311
0.097593703
0.086782191
0.073595893
0.057729679
0.039176318
0.016752651
0.13536883
0.13342671
0.12975407
0.12508635
0.11971996
0.11356868
0.10630512
0.097503057
0.086724216
0.073564866
0.057717478
0.039173826
0.016751673
0.13513796
0.13319814
0.12953338
0.12488163
0.11953951
0.11341883
0.10618917
0.097420996
0.086672868
0.073538278
0.057707658
0.039172152
0.01675076
0.13491629
0.13297904
0.12932268
0.12468747
0.11936992
0.11327962
0.10608298
0.097347177
0.086627806
0.073515855
0.057700043
0.039171227
0.016749913
0.13470417
0.13276972
0.12912221
0.12450396
0.11921113
0.11315084
0.10598622
0.097281241
0.086588691
0.073497324
0.057694465
0.039170982
0.016749129
0.13450188
0.13257043
0.1289321
0.12433113
0.11906303
0.11303224
0.10589855
0.097222819
0.086555182
0.07348242
0.057690757
0.039171353
0.016748406
0.13430962
0.13238132
0.12875246
0.12416895
0.11892545
0.11292354
0.10581964
0.097171538
0.086526938
0.073470882
0.057688763
0.039172278
0.016747743
0.13412751
0.13220251
0.12858332
0.12401735
0.11879818
0.11282443
0.1057491
0.097127018
0.086503621
0.073462453
0.057688327
0.039173698
0.016747138
0.13395564
0.13203403
0.12842463
0.12387619
0.118681
0.11273459
0.10568656
0.097088878
0.0864849
0.073456887
0.057689304
0.039175558
0.016746589
0.133794
0.13187587
0.12827634
0.1237453
0.11857362
0.11265366
0.10563162
0.097056738
0.086470447
0.073453944
0.057691553
0.039177804
0.016746093
0.13364256
0.13172796
0.1281383
0.12362447
0.11847576
0.11258128
0.1055839
0.097030219
0.086459945
0.073453393
0.057694941
0.039180387
0.016745649
0.13350124
0.13159019
0.12801036
0.12351347
0.11838709
0.11251707
0.10554299
0.097008949
0.086453084
0.073455013
0.057699342
0.039183262
0.016745253
0.13336991
0.13146241
0.12789232
0.12341201
0.11830727
0.11246064
0.1055085
0.096992562
0.086449563
0.073458592
0.057704637
0.039186386
0.016744904
0.13324838
0.13134442
0.12778393
0.1233198
0.11823594
0.1124116
0.10548002
0.096980699
0.086449093
0.073463929
0.057710713
0.039189719
0.0167446
0.13313646
0.13123601
0.12768492
0.12323651
0.11817272
0.11236954
0.10545718
0.096973009
0.086451394
0.073470829
0.057717465
0.039193222
0.016744338
0.13303389
0.1311369
0.12759501
0.12316181
0.11811724
0.11233407
0.10543957
0.096969148
0.086456195
0.073479111
0.057724792
0.039196863
0.016744115
0.13294041
0.13104681
0.12751386
0.12309532
0.11806909
0.11230476
0.10542681
0.096968782
0.086463236
0.073488597
0.0577326
0.039200607
0.01674393
0.1328557
0.13096542
0.12744113
0.12303667
0.11802786
0.11228123
0.10541852
0.096971586
0.086472267
0.073499121
0.057740798
0.039204423
0.016743779
0.13277943
0.13089238
0.12737645
0.12298545
0.11799315
0.11226306
0.10541433
0.096977242
0.086483045
0.073510522
0.057749304
0.039208283
0.016743662
0.13271125
0.13082733
0.12731944
0.12294127
0.11796455
0.11224984
0.10541387
0.096985446
0.08649534
0.07352265
0.057758035
0.039212159
0.016743574
0.13265079
0.13076988
0.1272697
0.12290372
0.11794163
0.11224118
0.10541678
0.096995902
0.086508933
0.073535361
0.057766918
0.039216026
0.016743514
0.13259764
0.13071965
0.12722682
0.12287237
0.11792398
0.1122367
0.10542272
0.097008331
0.086523616
0.073548522
0.057775885
0.039219861
0.016743479
0.13255143
0.13067624
0.1271904
0.12284682
0.1179112
0.11223601
0.10543136
0.097022466
0.086539194
0.073562009
0.057784871
0.039223643
0.016743467
0.13251176
0.13063923
0.12716003
0.12282666
0.1179029
0.11223875
0.1054424
0.097038057
0.086555488
0.07357571
0.057793822
0.039227353
0.016743476
0.13247822
0.13060824
0.12713531
0.12281148
0.1178987
0.11224458
0.10545553
0.097054875
0.086572333
0.073589524
0.057802686
0.039230978
0.016743503
0.13245043
0.13058288
0.12711584
0.12280091
0.11789823
0.11225317
0.10547048
0.097072706
0.086589581
0.073603361
0.057811422
0.039234503
0.016743546
0.13242802
0.13056276
0.12710125
0.12279458
0.11790114
0.11226421
0.105487
0.097091356
0.086607099
0.073617142
0.057819994
0.03923792
0.016743604
0.13241062
0.13054752
0.12709118
0.12279214
0.11790712
0.11227743
0.10550485
0.097110652
0.086624769
0.0736308
0.057828373
0.039241221
0.016743675
0.13239788
0.13053681
0.12708527
0.12279325
0.11791586
0.11229256
0.10552383
0.097130433
0.086642486
0.073644278
0.057836534
0.039244402
0.016743757
0.13238947
0.13053029
0.1270832
0.1227976
0.11792707
0.11230934
0.10554373
0.097150557
0.086660158
0.073657526
0.057844459
0.039247459
0.01674385
0.13238507
0.13052765
0.12708465
0.12280489
0.11794048
0.11232756
0.10556437
0.097170893
0.086677702
0.073670498
0.057852129
0.039250377
0.016743951
0.13238436
0.13052857
0.12708932
0.12281482
0.11795583
0.11234699
0.10558559
0.097191321
0.086695041
0.073683155
0.057859525
0.039253136
0.016744059
0.13238705
0.13053275
0.12709691
0.12282713
0.11797287
0.11236743
0.10560723
0.097211727
0.086712103
0.073695456
0.057866614
0.039255749
0.016744174
0.13239283
0.1305399
0.12710713
0.12284154
0.11799137
0.11238868
0.10562913
0.097232004
0.086728823
0.073707364
0.057873383
0.039258221
0.016744294
0.13240141
0.13054972
0.1271197
0.12285779
0.1180111
0.11241056
0.10565114
0.097252052
0.08674513
0.073718824
0.057879838
0.039260551
0.016744418
0.13241251
0.13056192
0.12713435
0.12287563
0.11803184
0.11243288
0.10567315
0.097271773
0.086760965
0.073729818
0.057885971
0.039262741
0.016744546
0.13242583
0.13057623
0.1271508
0.12289482
0.11805338
0.11245547
0.105695
0.097291073
0.086776253
0.073740336
0.057891775
0.039264792
0.016744675
0.13244109
0.13059237
0.1271688
0.1229151
0.11807551
0.11247817
0.10571658
0.09730986
0.086790967
0.073750356
0.057897245
0.039266704
0.016744806
0.13245802
0.13061006
0.12718807
0.12293626
0.11809803
0.11250082
0.10573777
0.09732806
0.086805075
0.073759862
0.057902379
0.03926848
0.016744937
0.13247634
0.13062904
0.12720839
0.12295807
0.11812076
0.11252328
0.10575846
0.097345627
0.086818547
0.073768844
0.057907177
0.039270123
0.016745067
0.13249578
0.13064905
0.1272295
0.12298032
0.11814354
0.11254541
0.10577858
0.097362511
0.086831358
0.073777296
0.057911643
0.039271634
0.016745197
0.13251611
0.13066986
0.12725119
0.12300282
0.11816619
0.11256709
0.10579805
0.097378672
0.086843491
0.073785215
0.057915779
0.039273017
0.016745324
0.13253708
0.13069123
0.12727323
0.12302538
0.11818856
0.11258824
0.10581681
0.097394076
0.086854933
0.073792602
0.057919592
0.039274277
0.016745449
0.13255846
0.13071294
0.12729544
0.12304783
0.11821056
0.11260876
0.10583482
0.097408699
0.086865679
0.073799463
0.057923089
0.039275416
0.01674557
0.13258007
0.1307348
0.12731764
0.12307004
0.11823206
0.1126286
0.10585203
0.097422521
0.086875727
0.073805802
0.057926276
0.039276438
0.016745688
0.1326017
0.13075665
0.12733968
0.12309189
0.11825298
0.11264769
0.1058684
0.097435533
0.086885079
0.07381163
0.057929164
0.039277348
0.016745802
0.13262322
0.13077832
0.12736142
0.12311326
0.11827325
0.11266597
0.10588392
0.097447729
0.086893743
0.073816957
0.05793176
0.039278149
0.016745911
0.1326445
0.13079971
0.12738277
0.12313408
0.11829279
0.11268343
0.10589857
0.097459113
0.08690173
0.073821797
0.057934075
0.039278846
0.016746015
0.13266545
0.13082071
0.12740364
0.12315428
0.11831158
0.11270003
0.10591235
0.097469697
0.08690906
0.073826169
0.057936123
0.039279444
0.016746114
0.13268598
0.13084127
0.12742397
0.12317381
0.11832958
0.11271577
0.10592528
0.097479501
0.086915756
0.073830094
0.057937917
0.039279949
0.016746207
0.13270607
0.13086134
0.12744372
0.12319266
0.11834678
0.11273066
0.10593736
0.097488555
0.086921848
0.073833599
0.057939475
0.039280369
0.016746295
0.13272568
0.1308809
0.12746288
0.1232108
0.1183632
0.11274472
0.10594864
0.097496895
0.086927374
0.073836712
0.057940817
0.039280711
0.016746378
0.13274482
0.13089993
0.12748144
0.12322826
0.11837884
0.11275798
0.10595915
0.097504564
0.086932372
0.073839467
0.057941964
0.039280987
0.016746456
0.13276348
0.13091845
0.12749941
0.12324503
0.11839375
0.11277047
0.10596894
0.097511607
0.086936886
0.073841898
0.057942938
0.039281204
0.016746529
0.13278168
0.13093647
0.1275168
0.12326115
0.11840793
0.11278224
0.10597805
0.097518069
0.086940956
0.073844036
0.05794376
0.039281374
0.016746598
0.13279941
0.13095397
0.12753361
0.12327662
0.11842142
0.11279331
0.10598651
0.097523992
0.08694462
0.073845913
0.05794445
0.039281503
0.016746663
0.13281667
0.13097097
0.12754985
0.12329145
0.11843424
0.11280372
0.10599437
0.097529408
0.086947908
0.073847551
0.057945023
0.039281599
0.016746726
0.13283342
0.13098742
0.1275655
0.12330563
0.11844638
0.11281347
0.10600164
0.097534339
0.086950841
0.073848969
0.057945491
0.039281666
0.016746786
0.1328496
0.13100329
0.1275805
0.12331914
0.11845784
0.11282256
0.10600833
0.097538798
0.086953432
0.073850175
0.057945857
0.039281706
0.016746843
0.13286514
0.13101849
0.12759482
0.12333193
0.11846858
0.11283098
0.10601442
0.097542785
0.086955682
0.073851171
0.057946124
0.039281717
0.016746898
0.13287995
0.13103295
0.12760838
0.12334395
0.11847857
0.11283871
0.10601992
0.09754629
0.086957587
0.073851953
0.057946287
0.039281696
0.01674695
0.13289391
0.13104657
0.12762109
0.12335514
0.11848776
0.11284571
0.10602479
0.097549302
0.086959136
0.073852514
0.05794634
0.03928164
0.016746999
0.13290692
0.13105926
0.12763288
0.12336543
0.11849612
0.11285196
0.10602903
0.097551806
0.08696032
0.073852845
0.057946275
0.039281544
0.016747043
0.13291889
0.13107092
0.12764368
0.12337477
0.11850359
0.11285742
0.1060326
0.097553795
0.086961134
0.073852941
0.057946089
0.039281404
0.016747083
0.13292975
0.13108149
0.12765343
0.12338312
0.11851016
0.1128621
0.10603552
0.097555271
0.086961578
0.073852802
0.057945779
0.039281218
0.016747118
0.13293945
0.13109094
0.1276621
0.12339048
0.11851584
0.112866
0.1060378
0.09755625
0.086961668
0.073852438
0.057945351
0.039280987
0.016747146
0.13294802
0.13109927
0.12766972
0.12339686
0.11852064
0.11286916
0.10603948
0.097556765
0.08696143
0.073851867
0.057944814
0.039280716
0.016747169
0.13295549
0.13110654
0.12767633
0.12340232
0.11852463
0.11287163
0.1060406
0.097556864
0.086960904
0.073851118
0.057944186
0.039280412
0.016747185
0.13296195
0.13111282
0.127682
0.12340694
0.11852789
0.11287349
0.10604124
0.09755661
0.086960139
0.073850228
0.057943488
0.039280084
0.016747196
0.13296753
0.13111823
0.12768686
0.12341081
0.11853051
0.11287483
0.10604149
0.097556074
0.086959194
0.073849237
0.057942746
0.039279744
0.016747203
0.13297237
0.13112292
0.12769103
0.12341407
0.11853262
0.11287576
0.10604142
0.097555332
0.086958129
0.073848191
0.057941988
0.039279403
0.016747206
0.13297665
0.13112703
0.12769465
0.12341684
0.11853431
0.11287637
0.10604114
0.097554457
0.086957001
0.07384713
0.057941239
0.039279075
0.016747206
0.1329805
0.13113072
0.12769786
0.12341924
0.1185357
0.11287676
0.10604072
0.097553513
0.08695586
0.07384609
0.05794052
0.039278766
0.016747205
0.13298408
0.13113411
0.12770078
0.12342137
0.11853687
0.112877
0.10604022
0.097552549
0.086954744
0.073845097
0.057939847
0.039278486
0.016747204
0.13298747
0.1311373
0.12770349
0.12342332
0.1185379
0.11287715
0.10603968
0.097551599
0.086953675
0.073844165
0.057939229
0.039278236
0.016747204
0.13299076
0.13114036
0.12770605
0.12342513
0.11853882
0.11287723
0.10603912
0.097550674
0.08695266
0.073843298
0.057938666
0.039278015
0.016747205
0.13299395
0.13114331
0.12770849
0.12342681
0.11853964
0.11287725
0.10603854
0.097549769
0.086951693
0.073842488
0.057938151
0.039277821
0.016747207
0.13299704
0.13114614
0.12771078
0.12342835
0.11854034
0.11287719
0.10603793
0.097548863
0.086950751
0.073841717
0.057937672
0.039277646
0.016747211
0.13299996
0.1311488
0.1277129
0.12342971
0.11854088
0.11287702
0.10603725
0.097547926
0.086949809
0.073840962
0.057937213
0.039277482
0.016747215
0.13300264
0.13115121
0.12771477
0.12343085
0.11854123
0.11287669
0.10603645
0.097546922
0.086948834
0.073840199
0.057936756
0.03927732
0.016747219
0.13300499
0.1311533
0.12771633
0.12343169
0.11854132
0.11287615
0.10603551
0.097545817
0.086947798
0.073839405
0.057936286
0.039277153
0.016747222
0.13300692
0.13115498
0.1277175
0.12343218
0.11854112
0.11287538
0.10603438
0.097544585
0.086946679
0.073838561
0.057935791
0.039276974
0.016747224
0.13300834
0.13115619
0.12771823
0.12343228
0.11854059
0.11287435
0.10603306
0.097543211
0.086945465
0.073837657
0.057935261
0.039276778
0.016747223
0.13300923
0.13115688
0.12771849
0.12343198
0.11853972
0.11287305
0.10603154
0.097541694
0.086944153
0.07383669
0.057934694
0.039276561
0.016747219
0.13300955
0.13115703
0.12771827
0.12343126
0.11853852
0.11287149
0.10602983
0.09754005
0.086942757
0.073835669
0.057934091
0.039276323
0.016747211
0.13300932
0.13115668
0.1277176
0.12343017
0.11853703
0.11286973
0.10602798
0.09753831
0.0869413
0.073834608
0.057933463
0.039276072
0.016747201
0.13300861
0.13115586
0.12771653
0.12342875
0.11853529
0.11286779
0.10602602
0.097536513
0.086939816
0.073833534
0.057932828
0.039275817
0.016747187
0.13300748
0.13115466
0.12771513
0.12342709
0.11853338
0.11286576
0.10602402
0.097534708
0.086938341
0.073832477