/*--------------------------------*- C++ -*----------------------------------*\
| =========                 |                                                 |
| \\      /  F ield         | OpenFOAM: The Open Source CFD Toolbox           |
|  \\    /   O peration     | Version:  2506                                  |
|   \\  /    A nd           | Website:  www.openfoam.com                      |
|    \\/     M anipulation  |                                                 |
\*---------------------------------------------------------------------------*/
FoamFile
{
    version     2.0;
    format      ascii;
    arch        "LSB;label=32;scalar=64";
    class       volScalarField;
    location    "29000/water";
    object      epsilon;
}
// * * * * * * * * * * * * * * * * * * * * * * * * * * * * * * * * * * * * * //

dimensions      [0 2 -3 0 0 0 0];

internalField   nonuniform List<scalar> 
2600
(
8.8079773e-05
8.8079245e-05
8.8079271e-05
8.807949e-05
8.8079744e-05
8.8080245e-05
8.8082926e-05
8.8104349e-05
8.8272771e-05
8.9512908e-05
9.8428186e-05
0.00017145296
0.0010138716
6.7789348e-05
6.7791881e-05
6.7793339e-05
6.7794963e-05
6.7796901e-05
6.7799886e-05
6.7810178e-05
6.7875511e-05
6.8312468e-05
7.1039872e-05
8.7857083e-05
0.00021159534
0.0014669324
5.3500886e-05
5.3503148e-05
5.3504846e-05
5.3506859e-05
5.3509287e-05
5.3513643e-05
5.3532992e-05
5.3656306e-05
5.4399641e-05
5.8506995e-05
8.1500797e-05
0.00023956052
0.0017068244
4.3127504e-05
4.3128883e-05
4.3130503e-05
4.3132598e-05
4.3135149e-05
4.3140834e-05
4.3171684e-05
4.3362646e-05
4.4413342e-05
4.9710824e-05
7.7552644e-05
0.00025818579
0.0017816909
3.539909e-05
3.5400132e-05
3.5401605e-05
3.5403513e-05
3.5405834e-05
3.5412916e-05
3.5457613e-05
3.5722605e-05
3.7073304e-05
4.3450503e-05
7.5629286e-05
0.00027290618
0.0017622817
2.9510599e-05
2.9511446e-05
2.95127e-05
2.9514227e-05
2.9516143e-05
2.9525119e-05
2.9586798e-05
2.9933924e-05
3.159515e-05
3.9095388e-05
7.5939385e-05
0.00028837858
0.0017002497
2.4935213e-05
2.4935877e-05
2.4936847e-05
2.4937875e-05
2.4939416e-05
2.4951342e-05
2.503458e-05
2.5477125e-05
2.7489448e-05
3.6318413e-05
7.8818158e-05
0.0003073199
0.0016256765
2.1318423e-05
2.1318913e-05
2.1319549e-05
2.132003e-05
2.1321464e-05
2.1338095e-05
2.144948e-05
2.2008273e-05
2.4447975e-05
3.4968795e-05
8.4593389e-05
0.00033066897
0.0015541994
1.8415642e-05
1.8415958e-05
1.8416233e-05
1.8416208e-05
1.8418091e-05
1.8442025e-05
1.8590687e-05
1.9295945e-05
2.2279378e-05
3.5010665e-05
9.3512814e-05
0.00035786641
0.0014930959
1.6054297e-05
1.6054439e-05
1.6054351e-05
1.6053968e-05
1.6057197e-05
1.6092028e-05
1.6290179e-05
1.7183376e-05
2.0872546e-05
3.6486908e-05
0.00010564207
0.00038720676
0.0014449141
1.411016e-05
1.4110129e-05
1.4109712e-05
1.4109249e-05
1.4115119e-05
1.4165612e-05
1.4429188e-05
1.5565379e-05
2.0175367e-05
3.9486471e-05
0.00012074249
0.00041640751
0.0014094648
1.249217e-05
1.2491978e-05
1.249131e-05
1.24912e-05
1.2501471e-05
1.2573786e-05
1.2923263e-05
1.4374121e-05
2.0181311e-05
4.4103574e-05
0.00013819401
0.0004433175
0.0013850187
1.1132483e-05
1.1132152e-05
1.1131368e-05
1.1132227e-05
1.1149209e-05
1.1251189e-05
1.1712642e-05
1.3570321e-05
2.0918928e-05
5.0386672e-05
0.00015703479
0.00046647967
0.0013691707
9.9797899e-06
9.9793621e-06
9.9786681e-06
9.9813266e-06
1.0007987e-05
1.0149541e-05
1.0756002e-05
1.3137755e-05
2.2440689e-05
5.8285038e-05
0.00017613324
0.00048532287
0.0013594869
8.994766e-06
8.994305e-06
8.9939894e-06
8.9995396e-06
9.0396464e-06
9.2332357e-06
1.0026406e-05
1.3079617e-05
2.4808572e-05
6.7609619e-05
0.00019442665
0.00050000486
0.0013539038
8.1468971e-06
8.1464947e-06
8.1469469e-06
8.1567947e-06
8.2150975e-06
8.4763588e-06
9.5087285e-06
1.3415553e-05
2.807526e-05
7.8026842e-05
0.0002111215
0.00051110137
0.0013508788
7.4122408e-06
7.412023e-06
7.4137548e-06
7.4296903e-06
7.5121568e-06
7.8606834e-06
9.1980664e-06
1.4178291e-05
3.2262331e-05
8.9094589e-05
0.00022578147
0.00051932558
0.0013493668
6.7718206e-06
6.7719549e-06
6.7756276e-06
6.7999151e-06
6.9140283e-06
7.3743439e-06
9.0987625e-06
1.5408888e-05
3.7339829e-05
0.00010033156
0.00023829849
0.00052535583
0.0013487149
6.2104575e-06
6.2111621e-06
6.2176208e-06
6.2531142e-06
6.4082476e-06
7.0110033e-06
9.2236697e-06
1.7149876e-05
4.3213606e-05
0.00011129559
0.0002487951
0.00052976262
0.0013485457
5.7159095e-06
5.7174657e-06
5.7277834e-06
5.7780724e-06
5.9859581e-06
6.7693776e-06
9.5932706e-06
1.9436233e-05
4.9726068e-05
0.00012164394
0.00025751549
0.00053299526
0.0013486594
5.2782322e-06
5.2809984e-06
5.2965329e-06
5.3661281e-06
5.6414368e-06
6.6530083e-06
1.0234238e-05
2.2285131e-05
5.6672017e-05
0.00013115952
0.00026474159
0.0005353945
0.0013489619
4.889296e-06
4.893728e-06
4.9161934e-06
5.0107595e-06
5.3718124e-06
6.6701645e-06
1.1177042e-05
2.5686554e-05
6.3825678e-05
0.00013974422
0.00027074338
0.00053721258
0.0013494179
4.5424222e-06
4.549097e-06
4.5806559e-06
4.707302e-06
5.1769356e-06
6.8337316e-06
1.2452335e-05
2.9597477e-05
7.097079e-05
0.00014739148
0.0002757568
0.0005386328
0.0013500205
4.2321037e-06
4.2417515e-06
4.2851315e-06
4.4527719e-06
5.0593678e-06
7.1609028e-06
1.4086152e-05
3.394183e-05
7.7925114e-05
0.00015415333
0.00027997823
0.00053978641
0.0013507744
3.9537926e-06
3.9673375e-06
4.0259782e-06
4.2457763e-06
5.0244498e-06
7.6724686e-06
1.6094424e-05
3.8616919e-05
8.4553952e-05
0.00016011197
0.00028356674
0.00054076616
0.0013516866
3.7037376e-06
3.7223496e-06
3.8005873e-06
4.0864974e-06
5.0804008e-06
8.3914976e-06
1.8477844e-05
4.3504911e-05
9.0772061e-05
0.00016536002
0.00028664926
0.00054163685
0.0013527623
3.4788613e-06
3.504022e-06
3.6073203e-06
3.9767408e-06
5.2383695e-06
9.3412706e-06
2.1218352e-05
4.8486364e-05
9.6537095e-05
0.00016998886
0.00028932619
0.00054244334
0.0013540034
3.2766694e-06
3.3102566e-06
3.445492e-06
3.9200366e-06
5.5123349e-06
1.0542478e-05
2.4278371e-05
5.3452376e-05
0.00010183911
0.00017408281
0.00029167657
0.00054321637
0.0013554084
3.0951868e-06
3.1395803e-06
3.315394e-06
3.9217755e-06
5.9187331e-06
1.2009945e-05
2.7603266e-05
5.8312862e-05
0.0001066899
0.0001777168
0.00029376257
0.00054397675
0.0013569728
2.9329181e-06
2.991133e-06
3.2183574e-06
3.9893516e-06
6.47568e-06
1.3749403e-05
3.112658e-05
6.3000085e-05
0.00011111418
0.00018095591
0.00029563313
0.00054473837
0.0013586903
2.7888292e-06
2.8646819e-06
3.1568532e-06
4.1322629e-06
7.2016966e-06
1.5755029e-05
3.4776808e-05
6.7468124e-05
0.00011514328
0.00018385586
0.00029732666
0.00054550992
0.0013605531
2.6623516e-06
2.7606641e-06
3.1346228e-06
4.3621019e-06
8.1139274e-06
1.8008404e-05
3.8484156e-05
7.1689805e-05
0.00011881108
0.00018646428
0.00029887505
0.00054629402
0.0013625491
2.5534087e-06
2.680258e-06
3.1568304e-06
4.6923495e-06
9.2259798e-06
2.0479254e-05
4.21859e-05
7.5652556e-05
0.00012215122
0.00018882083
0.00030030032
0.00054708344
0.001364665
2.4624667e-06
2.6254826e-06
3.2302146e-06
5.1378782e-06
1.0545685e-05
2.3127918e-05
4.5829653e-05
7.935444e-05
0.00012519597
0.00019095973
0.00030162122
0.00054787013
0.0013668874
2.3906118e-06
2.5993266e-06
3.3632045e-06
5.7140889e-06
1.2073206e-05
2.5908984e-05
4.9374528e-05
8.2800768e-05
0.00012797522
0.0001929092
0.00030285019
0.00054865288
0.0013692048
2.3396576e-06
2.6059009e-06
3.5659449e-06
6.4356563e-06
1.379994e-05
2.8775319e-05
5.2790669e-05
8.6001444e-05
0.00013051585
0.0001946916
0.00030399377
0.00054944273
0.0013716092
2.3122834e-06
2.6506068e-06
3.8501616e-06
7.3149529e-06
1.5708513e-05
3.1681692e-05
5.6057927e-05
8.8969442e-05
0.00013284315
0.00019632773
0.00030505437
0.00055025018
0.0013740956
2.312204e-06
2.740297e-06
4.2287854e-06
8.3603378e-06
1.7773921e-05
3.4587408e-05
5.9163895e-05
9.1718486e-05
0.000134977
0.00019782951
0.00030604752
0.00055107622
0.0013766577
2.3443664e-06
2.8833942e-06
4.7152658e-06
9.5746042e-06
1.9965609e-05
3.7457895e-05
6.2102576e-05
9.4263948e-05
0.00013693775
0.00019920349
0.00030698676
0.00055192215
0.0013792894
2.4151613e-06
3.0899098e-06
5.3225441e-06
1.0953904e-05
2.2249993e-05
4.026506e-05
6.4872079e-05
9.6618925e-05
0.00013873802
0.00020046565
0.00030788006
0.00055278756
0.0013819844
2.5326204e-06
3.371289e-06
6.0617306e-06
1.2487421e-05
2.4593018e-05
4.2987258e-05
6.7474462e-05
9.8797813e-05
0.00014038632
0.00020163083
0.00030873382
0.00055367121
0.0013847362
2.7065544e-06
3.7399969e-06
6.9406287e-06
1.4157864e-05
2.6962172e-05
4.560817e-05
6.9912765e-05
0.00010081055
0.00014189658
0.00020271014
0.00030955281
0.00055457138
0.0013875385
2.9485501e-06
4.208776e-06
7.9623501e-06
1.5942734e-05
2.9328091e-05
4.8116704e-05
7.2192973e-05
0.00010266311
0.00014328329
0.00020371267
0.00031034059
0.00055548596
0.0013903847
3.2717205e-06
4.7895533e-06
9.1242819e-06
1.7815986e-05
3.1665001e-05
5.0504533e-05
7.431848e-05
0.00010436656
0.0001445581
0.0002046458
0.00031109971
0.0005564126
0.0013932686
3.6900856e-06
5.4920727e-06
1.0417683e-05
1.9750012e-05
3.3951699e-05
5.2768183e-05
7.6289669e-05
0.00010593299
0.00014573089
0.00020551555
0.00031183197
0.00055734877
0.0013961839
4.2174845e-06
6.3224277e-06
1.1827951e-05
2.171714e-05
3.6170246e-05
5.4901159e-05
7.8113758e-05
0.00010737249
0.00014680994
0.00020632674
0.00031253851
0.00055829181
0.0013991243
4.8660258e-06
7.2817743e-06
1.3335593e-05
2.3691123e-05
3.8306688e-05
5.6898168e-05
7.9798305e-05
0.0001086939
0.00014780214
0.00020708321
0.00031321994
0.00055923891
0.0014020836
5.6442492e-06
8.3655563e-06
1.4917865e-05
2.564878e-05
4.0344257e-05
5.8760207e-05
8.1350099e-05
0.00010990478
0.00014871322
0.00020778792
0.00031387636
0.00056018713
0.0014050556
6.5553591e-06
9.5634596e-06
1.6550685e-05
2.756532e-05
4.2272541e-05
6.0488808e-05
8.2775228e-05
0.00011101156
0.00014954783
0.00020844308
0.00031450745
0.00056113341
0.0014080338
7.5961532e-06
1.0860441e-05
1.8207368e-05
2.9419101e-05
4.4084529e-05
6.2085814e-05
8.4079034e-05
0.0001120196
0.00015030969
0.00020905022
0.00031511249
0.00056207453
0.0014110119
8.7563151e-06
1.223555e-05
1.9861231e-05
3.1193216e-05
4.5774964e-05
6.355318e-05
8.5266111e-05
0.00011293328
0.00015100165
0.00020961023
0.00031569038
0.00056300711
0.0014139831
1.0017521e-05
1.3664334e-05
2.1488448e-05
3.2873858e-05
4.7340053e-05
6.4892867e-05
8.6340347e-05
0.00011375612
0.0001516258
0.00021012347
0.00031623966
0.00056392754
0.0014169405
1.1355901e-05
1.512121e-05
2.3068171e-05
3.4450178e-05
4.8777289e-05
6.6106812e-05
8.7304984e-05
0.00011449085
0.00015218355
0.00021058975
0.00031675852
0.00056483203
0.0014198766
1.2744265e-05
1.6581081e-05
2.4582902e-05
3.5914123e-05
5.0085354e-05
6.719697e-05
8.8162738e-05
0.00011513953
0.00015267569
0.00021100843
0.00031724482
0.00056571652
0.0014227834
1.4154481e-05
1.8020637e-05
2.6018604e-05
3.7260265e-05
5.1264092e-05
6.8165414e-05
8.8915933e-05
0.0001157037
0.00015310253
0.00021137849
0.00031769617
0.00056657676
0.0014256524
1.555958e-05
1.9419302e-05
2.7364606e-05
3.8485598e-05
5.231449e-05
6.901445e-05
8.9566666e-05
0.0001161845
0.00015346401
0.0002116986
0.0003181099
0.00056740825
0.0014284744
1.6935339e-05
2.0759786e-05
2.8613378e-05
3.9589304e-05
5.323867e-05
6.9746758e-05
9.011699e-05
0.00011658289
0.00015375983
0.00021196725
0.00031848325
0.00056820637
0.0014312397
1.8261268e-05
2.2028325e-05
2.9760206e-05
4.0572478e-05
5.4039842e-05
7.0365497e-05
9.0569079e-05
0.00011689975
0.00015398962
0.00021218285
0.00031881339
0.00056896643
0.0014339377
1.9521047e-05
2.3214635e-05
3.0802835e-05
4.1437841e-05
5.4722227e-05
7.0874392e-05
9.0925392e-05
0.00011713614
0.00015415307
0.00021234391
0.0003190976
0.00056968382
0.0014365579
2.0702515e-05
2.4311687e-05
3.1741085e-05
4.2189435e-05
5.5290937e-05
7.1277772e-05
9.118879e-05
0.00011729336
0.00015425015
0.00021244916
0.00031933341
0.00057035412
0.0014390892
2.1797369e-05
2.5315352e-05
3.2576489e-05
4.2832331e-05
5.5751827e-05
7.1580557e-05
9.1362624e-05
0.00011737319
0.00015428119
0.00021249773
0.00031951872
0.00057097329
0.0014415207
2.2800692e-05
2.6223983e-05
3.331194e-05
4.3372361e-05
5.6111335e-05
7.1788217e-05
9.1450774e-05
0.00011737786
0.00015424703
0.00021248925
0.00031965199
0.00057153784
0.0014438418
2.3710402e-05
2.7037977e-05
3.3951387e-05
4.3815873e-05
5.6376314e-05
7.190669e-05
9.1457654e-05
0.00011731022
0.00015414911
0.00021242399
0.0003197323
0.00057204492
0.0014460425
2.4526701e-05
2.775936e-05
3.4499554e-05
4.4169529e-05
5.6553869e-05
7.1942282e-05
9.1388169e-05
0.00011717368
0.00015398951
0.0002123029
0.00031975952
0.0005724925
0.0014481139
2.5251562e-05
2.8391404e-05
3.4961708e-05
4.4440131e-05
5.6651214e-05
7.1901561e-05
9.1247657e-05
0.00011697222
0.000153771
0.00021212769
0.00031973427
0.00057287943
0.001450048
2.5888279e-05
2.8938288e-05
3.5343457e-05
4.4634488e-05
5.6675548e-05
7.1791238e-05
9.1041808e-05
0.00011671035
0.00015349696
0.00021190077
0.00031965802
0.00057320545
0.0014518387
2.6441085e-05
2.9404819e-05
3.5650594e-05
4.4759306e-05
5.6633953e-05
7.1618073e-05
9.0776562e-05
0.000116393
0.00015317138
0.0002116253
0.000319533
0.00057347125
0.0014534811
2.6914837e-05
2.9796199e-05
3.5888961e-05
4.4821111e-05
5.653331e-05
7.1388772e-05
9.0458022e-05
0.00011602549
0.00015279876
0.00021130501
0.00031936219
0.00057367838
0.0014549722
2.7314773e-05
3.0117839e-05
3.6064348e-05
4.4826187e-05
5.638024e-05
7.110991e-05
9.009235e-05
0.00011561336
0.00015238401
0.00021094422
0.00031914919
0.00057382923
0.001456311
2.7646313e-05
3.0375213e-05
3.6182418e-05
4.4780539e-05
5.6181062e-05
7.078786e-05
8.9685682e-05
0.00011516233
0.00015193235
0.00021054766
0.00031889816
0.00057392688
0.0014574979
2.7914912e-05
3.0573746e-05
3.6248644e-05
4.4689864e-05
5.5941754e-05
7.0428741e-05
8.9244047e-05
0.00011467815
0.00015144919
0.00021012034
0.00031861362
0.00057397501
0.0014585352
2.8125955e-05
3.0718739e-05
3.6268273e-05
4.4559534e-05
5.5667944e-05
7.0038377e-05
8.8773293e-05
0.00011416655
0.00015094004
0.00020966748
0.00031830039
0.00057397775
0.0014594268
2.8284672e-05
3.08153e-05
3.6246291e-05
4.4394591e-05
5.5364894e-05
6.9622259e-05
8.8279032e-05
0.00011363312
0.00015041035
0.00020919433
0.00031796341
0.00057393954
0.0014601779
2.839609e-05
3.086831e-05
3.6187411e-05
4.4199743e-05
5.5037499e-05
6.9185533e-05
8.7766592e-05
0.00011308326
0.00014986549
0.00020870611
0.0003176076
0.000573865
0.0014607948
2.846499e-05
3.0882397e-05
3.6096059e-05
4.3979365e-05
5.469029e-05
6.873298e-05
8.7240976e-05
0.00011252208
0.00014931059
0.00020820786
0.0003172378
0.00057375876
0.0014612848
2.8495888e-05
3.0861915e-05
3.5976373e-05
4.3737513e-05
5.4327438e-05
6.8269015e-05
8.6706841e-05
0.00011195443
0.00014875052
0.00020770437
0.00031685862
0.00057362538
0.0014616558
2.8493023e-05
3.0810944e-05
3.5832204e-05
4.3477925e-05
5.3952767e-05
6.7797681e-05
8.6168477e-05
0.00011138476
0.00014818984
0.00020720014
0.00031647441
0.00057346926
0.0014619164
2.8460354e-05
3.0733283e-05
3.566712e-05
4.3204036e-05
5.3569765e-05
6.7322662e-05
8.5629802e-05
0.00011081718
0.00014763272
0.00020669929
0.00031608913
0.00057329454
0.001462075
2.840156e-05
3.0632459e-05
3.5484417e-05
4.2918991e-05
5.3181596e-05
6.6847286e-05
8.5094356e-05
0.00011025539
0.00014708295
0.00020620555
0.00031570642
0.00057310509
0.0014621407
2.8320046e-05
3.051173e-05
3.5287122e-05
4.2625656e-05
5.2791117e-05
6.6374538e-05
8.4565309e-05
0.00010970274
0.0001465439
0.00020572225
0.00031532949
0.00057290447
0.0014621221
2.8218955e-05
3.0374097e-05
3.5078013e-05
4.2326633e-05
5.2400894e-05
6.5907076e-05
8.4045471e-05
0.00010916214
0.00014601854
0.00020525228
0.00031496115
0.0005726959
0.0014620281
2.8101174e-05
3.0222313e-05
3.4859623e-05
4.2024274e-05
5.2013217e-05
6.5447248e-05
8.3537301e-05
0.00010863614
0.00014550944
0.00020479813
0.00031460381
0.0005724823
0.001461867
2.796935e-05
3.0058896e-05
3.4634256e-05
4.1720696e-05
5.1630115e-05
6.4997104e-05
8.3042927e-05
0.00010812695
0.00014501877
0.00020436187
0.00031425951
0.00057226624
0.001461647
2.78259e-05
2.9886141e-05
3.4404e-05
4.1417791e-05
5.1253374e-05
6.4558418e-05
8.2564158e-05
0.00010763638
0.00014454832
0.00020394519
0.00031392989
0.00057205001
0.0014613761
2.7673022e-05
2.9706132e-05
3.4170737e-05
4.1117244e-05
5.0884552e-05
6.4132704e-05
8.2102511e-05
0.00010716593
0.00014409952
0.0002035494
0.00031361623
0.00057183551
0.0014610617
2.7512715e-05
2.9520753e-05
3.3936156e-05
4.0820545e-05
5.0524994e-05
6.3721234e-05
8.1659223e-05
0.00010671681
0.00014367348
0.00020317551
0.0003133196
0.00057162415
0.0014607103
2.7346781e-05
2.9331705e-05
3.3701768e-05
4.0529001e-05
5.0175849e-05
6.3325057e-05
8.1235274e-05
0.00010628992
0.00014327098
0.00020282414
0.00031304052
0.00057141603
0.0014603277
2.7176849e-05
2.9140512e-05
3.3468913e-05
4.024375e-05
4.9838082e-05
6.2945014e-05
8.0831412e-05
0.0001058859
0.00014289258
0.00020249581
0.00031277939
0.00057120896
0.001459919
2.7004376e-05
2.8948538e-05
3.3238775e-05
3.9965771e-05
4.9512492e-05
6.258176e-05
8.0448169e-05
0.00010550516
0.00014253848
0.0002021904
0.00031253528
0.00057100451
0.0014594891
2.6830668e-05
2.8756994e-05
3.3012395e-05
3.9695901e-05
4.9199724e-05
6.2235779e-05
8.0085899e-05
0.00010514794
0.00014220887
0.00020190803
0.00031230615
0.00057080573
0.0014590436
2.6656887e-05
2.8566955e-05
3.2790675e-05
3.9434842e-05
4.8900284e-05
6.1907408e-05
7.9744784e-05
0.00010481426
0.00014190347
0.00020164705
0.00031209288
0.00057061413
0.0014585871
2.648406e-05
2.8379363e-05
3.2574398e-05
3.9183176e-05
4.8614552e-05
6.1596841e-05
7.942484e-05
0.00010450392
0.00014162176
0.00020140649
0.00031189594
0.0005704308
0.0014581241
2.6313094e-05
2.8195044e-05
3.2364232e-05
3.8941375e-05
4.83428e-05
6.1304166e-05
7.9125999e-05
0.0001042167
0.00014136227
0.00020118632
0.00031171542
0.00057025649
0.0014576586
2.6144785e-05
2.8014715e-05
3.2160742e-05
3.8709813e-05
4.8085202e-05
6.102936e-05
7.8848012e-05
0.00010395156
0.00014112451
0.00020098622
0.00031155114
0.00057009166
0.0014571938
2.5979824e-05
2.7838993e-05
3.1964399e-05
3.8488774e-05
4.7841835e-05
6.077229e-05
7.8590354e-05
0.00010370767
0.00014090801
0.00020080571
0.00031140277
0.00056993657
0.0014567331
2.5818808e-05
2.7668406e-05
3.1775591e-05
3.8278463e-05
4.7612713e-05
6.0532712e-05
7.8352163e-05
0.0001034845
0.00014071216
0.00020064415
0.0003112698
0.00056979135
0.0014562789
2.5662253e-05
2.7503402e-05
3.1594635e-05
3.8079036e-05
4.7397758e-05
6.0309957e-05
7.8132957e-05
0.00010328146
0.00014053626
0.00020050081
0.00031115168
0.00056965599
0.0014558336
2.5510598e-05
2.734436e-05
3.1421799e-05
3.7890532e-05
4.7196569e-05
6.0103634e-05
7.7932192e-05
0.00010309786
0.00014037952
0.00020037489
0.00031104772
0.00056953039
0.0014553993
2.5364224e-05
2.7191601e-05
3.1257209e-05
3.7712805e-05
4.7008889e-05
5.9913312e-05
7.7749268e-05
0.00010293294
0.00014024107
0.0002002655
0.00031095723
0.00056941436
0.0014549777
2.522341e-05
2.7045316e-05
3.1100909e-05
3.7545741e-05
4.6834426e-05
5.9738518e-05
7.7583542e-05
0.00010278593
0.00014012004
0.00020017175
0.00031087943
0.00056930766
0.0014545702
2.508836e-05
2.6905639e-05
3.0952909e-05
3.7389194e-05
4.6672857e-05
5.9578745e-05
7.743433e-05
0.00010265599
0.00014001548
0.00020009269
0.00031081355
0.00056920998
0.0014541778
2.4959224e-05
2.6772661e-05
3.0813182e-05
3.7242984e-05
4.6523825e-05
5.9433455e-05
7.7300921e-05
0.00010254225
0.00013992644
0.00020002737
0.00031075879
0.00056912095
0.0014538016
2.4836105e-05
2.6646432e-05
3.0681668e-05
3.71069e-05
4.6386947e-05
5.9302082e-05
7.7182578e-05
0.00010244384
0.00013985196
0.00019997482
0.00031071434
0.00056904021
0.0014534421
2.4719068e-05
2.6526962e-05
3.0558273e-05
3.6980705e-05
4.6261815e-05
5.9184042e-05
7.707855e-05
0.00010235987
0.00013979108
0.00019993412
0.00031067943
0.00056896733
0.0014530997
2.4608141e-05
2.6414232e-05
3.0442874e-05
3.6864135e-05
4.6148001e-05
5.9078734e-05
7.6988072e-05
0.00010228945
0.00013974283
0.00019990432
0.00031065327
0.00056890191
0.0014527749
2.4503322e-05
2.6308192e-05
3.0335324e-05
3.6756906e-05
4.6045059e-05
5.8985543e-05
7.6910379e-05
0.0001022317
0.00013970628
0.00019988451
0.00031063513
0.00056884355
0.0014524677
2.4404579e-05
2.6208763e-05
3.023545e-05
3.6658713e-05
4.595253e-05
5.890385e-05
7.6844702e-05
0.00010218573
0.00013968051
0.00019987384
0.00031062428
0.00056879183
0.0014521781
2.4311854e-05
2.6115845e-05
3.014306e-05
3.6569237e-05
4.5869944e-05
5.8833029e-05
7.679028e-05
0.00010215071
0.00013966462
0.00019987144
0.00031062006
0.00056874637
0.0014519061
2.4225066e-05
2.6029314e-05
3.0057942e-05
3.6488144e-05
4.5796823e-05
5.8772457e-05
7.674636e-05
0.00010212577
0.00013965775
0.00019987653
0.0003106218
0.00056870678
0.0014516516
2.4144115e-05
2.5949028e-05
2.9979871e-05
3.6415089e-05
4.5732686e-05
5.8721512e-05
7.67122e-05
0.0001021101
0.00013965907
0.00019988832
0.0003106289
0.00056867272
0.0014514142
2.4068879e-05
2.5874828e-05
2.9908605e-05
3.6349719e-05
4.5677047e-05
5.8679579e-05
7.6687075e-05
0.00010210291
0.00013966777
0.00019990609
0.00031064078
0.00056864381
0.0014511937
2.3999223e-05
2.5806541e-05
2.9843892e-05
3.6291674e-05
4.5629422e-05
5.8646049e-05
7.6670277e-05
0.00010210343
0.00013968309
0.00019992914
0.00031065689
0.00056861972
0.0014509898
2.3934996e-05
2.5743978e-05
2.9785473e-05
3.6240591e-05
4.558933e-05
5.8620328e-05
7.6661119e-05
0.00010211093
0.0001397043
0.00019995683
0.00031067672
0.0005686001
0.0014508018
2.3876035e-05
2.5686944e-05
2.9733078e-05
3.6196103e-05
4.5556294e-05
5.8601831e-05
7.6658935e-05
0.0001021247
0.00013973072
0.00019998853
0.00031069978
0.00056858464
0.0014506295
2.3822166e-05
2.5635231e-05
2.9686432e-05
3.6157843e-05
4.5529843e-05
5.8589989e-05
7.6663082e-05
0.00010214406
0.00013976169
0.00020002368
0.00031072562
0.00056857302
0.0014504723
2.3773204e-05
2.5588624e-05
2.9645257e-05
3.6125445e-05
4.5509514e-05
5.858425e-05
7.6672943e-05
0.00010216838
0.00013979659
0.00020006174
0.00031075383
0.00056856493
0.0014503296
2.3728961e-05
2.5546903e-05
2.9609272e-05
3.6098548e-05
4.5494853e-05
5.8584079e-05
7.6687926e-05
0.00010219705
0.00013983484
0.00020010219
0.000310784
0.0005685601
0.0014502009
2.3689237e-05
2.5509843e-05
2.9578196e-05
3.607679e-05
4.548542e-05
5.858896e-05
7.6707468e-05
0.00010222948
0.00013987592
0.00020014459
0.00031081578
0.00056855824
0.0014500856
2.3653831e-05
2.5477215e-05
2.9551744e-05
3.6059821e-05
4.5480783e-05
5.8598397e-05
7.6731031e-05
0.00010226515
0.0001399193
0.0002001885
0.00031084884
0.00056855908
0.0014499831
2.3622539e-05
2.544879e-05
2.9529639e-05
3.6047291e-05
4.5480526e-05
5.8611913e-05
7.6758105e-05
0.00010230354
0.00013996453
0.00020023352
0.00031088287
0.00056856238
0.0014498928
2.359515e-05
2.5424336e-05
2.95116e-05
3.6038863e-05
4.5484246e-05
5.8629055e-05
7.678821e-05
0.00010234417
0.00014001116
0.0002002793
0.00031091758
0.00056856789
0.001449814
2.3571457e-05
2.5403621e-05
2.9497355e-05
3.6034206e-05
4.5491557e-05
5.8649389e-05
7.6820891e-05
0.00010238661
0.00014005881
0.00020032549
0.00031095271
0.00056857538
0.0014497461
2.355125e-05
2.5386418e-05
2.9486633e-05
3.6033e-05
4.5502085e-05
5.8672506e-05
7.6855722e-05
0.00010243044
0.0001401071
0.0002003718
0.00031098803
0.00056858463
0.0014496884
2.3534319e-05
2.5372497e-05
2.947917e-05
3.6034933e-05
4.5515475e-05
5.8698016e-05
7.6892306e-05
0.00010247528
0.0001401557
0.00020041795
0.00031102332
0.00056859541
0.0014496405
2.3520457e-05
2.5361635e-05
2.9474709e-05
3.6039706e-05
4.5531387e-05
5.8725554e-05
7.6930271e-05
0.00010252079
0.00014020429
0.0002004637
0.00031105838
0.00056860752
0.0014496015
2.350946e-05
2.5353611e-05
2.9472998e-05
3.6047032e-05
4.55495e-05
5.8754775e-05
7.6969272e-05
0.00010256663
0.00014025261
0.00020050881
0.00031109302
0.00056862076
0.0014495708
2.3501126e-05
2.534821e-05
2.9473796e-05
3.6056633e-05
4.5569507e-05
5.8785358e-05
7.7008991e-05
0.00010261252
0.0001403004
0.0002005531
0.00031112709
0.00056863493
0.0014495478
2.3495257e-05
2.5345221e-05
2.9476866e-05
3.6068248e-05
4.5591121e-05
5.8817003e-05
7.7049135e-05
0.00010265819
0.00014034744
0.00020059638
0.00031116045
0.00056864985
0.001449532
2.349166e-05
2.534444e-05
2.9481983e-05
3.6081625e-05
4.5614072e-05
5.8849432e-05
7.7089438e-05
0.00010270341
0.00014039353
0.00020063851
0.00031119296
0.00056866538
0.0014495225
2.3490147e-05
2.5345668e-05
2.9488932e-05
3.6096527e-05
4.5638106e-05
5.888239e-05
7.7129655e-05
0.00010274795
0.00014043851
0.00020067935
0.00031122454
0.00056868134
0.001449519
2.3490537e-05
2.5348716e-05
2.9497504e-05
3.6112729e-05
4.5662988e-05
5.891564e-05
7.7169567e-05
0.00010279164
0.00014048222
0.00020071881
0.00031125509
0.00056869762
0.0014495209
2.3492653e-05
2.53534e-05
2.9507503e-05
3.6130022e-05
4.5688499e-05
5.8948968e-05
7.7208978e-05
0.00010283429
0.00014052454
0.00020075678
0.00031128454
0.00056871411
0.0014495275
2.3496326e-05
2.5359545e-05
2.9518743e-05
3.6148207e-05
4.5714438e-05
5.8982179e-05
7.7247711e-05
0.00010287578
0.00014056536
0.00020079321
0.00031131284
0.00056873069
0.0014495385
2.3501395e-05
2.5366982e-05
2.9531046e-05
3.6167101e-05
4.5740618e-05
5.9015096e-05
7.7285612e-05
0.00010291598
0.0001406046
0.00020082804
0.00031133995
0.0005687473
0.0014495535
2.3507704e-05
2.5375553e-05
2.9544247e-05
3.6186532e-05
4.576687e-05
5.9047561e-05
7.7322545e-05
0.00010295478
0.00014064218
0.00020086122
0.00031136584
0.00056876385
0.0014495719
2.3515105e-05
2.5385106e-05
2.955819e-05
3.6206342e-05
4.579304e-05
5.9079433e-05
7.7358392e-05
0.0001029921
0.00014067806
0.00020089274
0.00031139049
0.00056878029
0.0014495935
2.3523457e-05
2.5395499e-05
2.9572728e-05
3.6226384e-05
4.5818988e-05
5.9110587e-05
7.7393053e-05
0.00010302786
0.00014071218
0.00020092258
0.0003114139
0.00056879656
0.0014496178
2.3532627e-05
2.5406596e-05
2.9587726e-05
3.6246524e-05
4.5844587e-05
5.9140914e-05
7.7426443e-05
0.00010306201
0.00014074454
0.00020095072
0.00031143604
0.00056881256
0.0014496446
2.354249e-05
2.5418271e-05
2.9603057e-05
3.626664e-05
4.5869725e-05
5.9170318e-05
7.7458491e-05
0.00010309451
0.0001407751
0.00020097718
0.00031145693
0.00056882817
0.0014496733
2.3552925e-05
2.5430406e-05
2.9618604e-05
3.6286619e-05
4.5894301e-05
5.9198719e-05
7.7489139e-05
0.00010312532
0.00014080388
0.00020100196
0.00031147655
0.00056884309
0.0014497037
2.3563823e-05
2.544289e-05
2.9634259e-05
3.6306361e-05
4.5918229e-05
5.9226047e-05
7.7518344e-05
0.00010315444
0.00014083085
0.00020102507
0.00031149483
0.00056885726
0.0014497353
2.357508e-05
2.5455621e-05
2.9649923e-05
3.6325776e-05
4.5941431e-05
5.9252247e-05
7.7546073e-05
0.00010318185
0.00014085606
0.00020104654
0.00031151165
0.00056887082
0.0014497678
2.3586597e-05
2.5468502e-05
2.9665506e-05
3.6344782e-05
4.5963842e-05
5.9277272e-05
7.7572305e-05
0.00010320755
0.00014087951
0.00020106633
0.00031152706
0.00056888379
0.0014498011
2.3598286e-05
2.5481448e-05
2.9680926e-05
3.6363308e-05
4.5985406e-05
5.930109e-05
7.7597032e-05
0.00010323156
0.00014090122
0.0002010844
0.00031154115
0.0005688962
0.0014498348
2.3610064e-05
2.5494377e-05
2.9696111e-05
3.6381294e-05
4.600608e-05
5.9323677e-05
7.7620255e-05
0.00010325391
0.00014092118
0.00020110082
0.00031155399
0.00056890804
0.0014498687
2.3621856e-05
2.5507218e-05
2.9710995e-05
3.6398685e-05
4.6025828e-05
5.9345019e-05
7.7641977e-05
0.00010327459
0.0001409394
0.00020111567
0.00031156565
0.00056891932
0.0014499026
2.3633591e-05
2.5519905e-05
2.972552e-05
3.6415438e-05
4.6044623e-05
5.9365113e-05
7.7662224e-05
0.00010329361
0.00014095595
0.00020112905
0.00031157617
0.00056893002
0.0014499363
2.3645209e-05
2.5532379e-05
2.9739637e-05
3.6431516e-05
4.606245e-05
5.9383964e-05
7.7680979e-05
0.000103311
0.00014097091
0.00020114101
0.00031158563
0.00056894015
0.0014499696
2.3656654e-05
2.5544588e-05
2.9753304e-05
3.6446894e-05
4.6079299e-05
5.9401564e-05
7.7698261e-05
0.00010332683
0.00014098435
0.00020115163
0.00031159407
0.00056894969
0.0014500022
2.3667876e-05
2.5556489e-05
2.9766485e-05
3.646155e-05
4.6095158e-05
5.9417912e-05
7.7714111e-05
0.00010334115
0.00014099633
0.00020116098
0.00031160154
0.00056895865
0.0014500342
2.3678833e-05
2.5568044e-05
2.9779154e-05
3.6475464e-05
4.6110017e-05
5.943303e-05
7.7728573e-05
0.00010335403
0.00014100693
0.00020116913
0.0003116081
0.00056896703
0.0014500652
2.368949e-05
2.557922e-05
2.9791281e-05
3.6488617e-05
4.612388e-05
5.9446946e-05
7.7741694e-05
0.00010336553
0.00014101622
0.00020117616
0.0003116138
0.00056897484
0.0014500954
2.3699813e-05
2.5589985e-05
2.9802845e-05
3.6501003e-05
4.6136759e-05
5.9459691e-05
7.7753527e-05
0.00010337571
0.00014102428
0.00020118214
0.00031161869
0.00056898208
0.0014501244
2.3709772e-05
2.5600316e-05
2.9813829e-05
3.6512621e-05
4.6148671e-05
5.9471302e-05
7.7764126e-05
0.00010338465
0.00014103118
0.00020118712
0.00031162282
0.00056898877
0.0014501523
2.3719344e-05
2.5610192e-05
2.9824223e-05
3.6523473e-05
4.6159637e-05
5.9481819e-05
7.7773547e-05
0.00010339241
0.000141037
0.00020119119
0.00031162624
0.00056899491
0.001450179
2.3728508e-05
2.5619597e-05
2.9834022e-05
3.653357e-05
4.6169685e-05
5.9491287e-05
7.7781849e-05
0.00010339907
0.0001410418
0.0002011944
0.00031162901
0.00056900055
0.0014502045
2.3737251e-05
2.5628521e-05
2.9843224e-05
3.6542923e-05
4.6178842e-05
5.949975e-05
7.7789091e-05
0.00010340468
0.00014104565
0.00020119684
0.00031163119
0.00056900571
0.0014502288
2.374556e-05
2.5636958e-05
2.9851833e-05
3.655155e-05
4.6187141e-05
5.9507256e-05
7.7795336e-05
0.00010340933
0.00014104864
0.00020119855
0.00031163282
0.00056901042
0.001450252
2.3753429e-05
2.5644906e-05
2.9859856e-05
3.6559468e-05
4.6194615e-05
5.9513854e-05
7.7800642e-05
0.00010341308
0.00014105083
0.00020119962
0.00031163397
0.00056901474
0.001450274
2.3760854e-05
2.5652364e-05
2.98673e-05
3.6566701e-05
4.6201301e-05
5.9519592e-05
7.7805071e-05
0.00010341599
0.00014105228
0.0002012001
0.00031163468
0.0005690187
0.0014502949
2.3767834e-05
2.5659336e-05
2.9874179e-05
3.6573272e-05
4.6207235e-05
5.9524521e-05
7.7808681e-05
0.00010341812
0.00014105306
0.00020120004
0.00031163501
0.00056902234
0.0014503149
2.3774369e-05
2.5665827e-05
2.9880506e-05
3.6579204e-05
4.6212454e-05
5.9528688e-05
7.7811531e-05
0.00010341955
0.00014105323
0.00020119951
0.000311635
0.0005690257
0.0014503339
2.3780464e-05