/*--------------------------------*- C++ -*----------------------------------*\
| =========                 |                                                 |
| \\      /  F ield         | OpenFOAM: The Open Source CFD Toolbox           |
|  \\    /   O peration     | Version:  2506                                  |
|   \\  /    A nd           | Website:  www.openfoam.com                      |
|    \\/     M anipulation  |                                                 |
\*---------------------------------------------------------------------------*/
FoamFile
{
    version     2.0;
    format      ascii;
    arch        "LSB;label=32;scalar=64";
    class       volScalarField;
    location    "29000/water";
    object      k;
}
// * * * * * * * * * * * * * * * * * * * * * * * * * * * * * * * * * * * * * //

dimensions      [0 2 -2 0 0 0 0];

internalField   nonuniform List<scalar> 
2600
(
0.0001992401
0.00019923925
0.00019923929
0.00019923963
0.00019923982
0.00019923914
0.00019923438
0.00019921375
0.00019914651
0.00019904325
0.00019990841
0.00021454267
0.00040955349
0.00017237279
0.00017237614
0.00017237826
0.00017238051
0.0001723821
0.00017237949
0.00017235884
0.00017227555
0.000172027
0.00017162102
0.00017329371
0.00020304806
0.00052391648
0.00015132731
0.00015133049
0.00015133306
0.00015133552
0.00015133516
0.00015132207
0.00015126283
0.00015106462
0.00015055477
0.00014985944
0.0001528957
0.00019760629
0.00057958156
0.00013448336
0.00013448533
0.00013448764
0.00013448905
0.00013448325
0.00013445009
0.00013432997
0.00013398205
0.00013321503
0.00013247936
0.00013787909
0.00019702317
0.00059640815
0.00012075551
0.00012075697
0.00012075853
0.00012075718
0.00012074152
0.0001206782
0.00012048052
0.00011997843
0.0001190486
0.00011870929
0.00012776334
0.00020116854
0.00059206885
0.0001093899
0.00010939088
0.000109391
0.00010938492
0.00010935483
0.00010925313
0.00010897207
0.00010834649
0.00010742643
0.0001080609
0.00012226457
0.00021023394
0.00057809221
9.984982e-05
9.9850093e-05
9.9847944e-05
9.9835056e-05
9.9786463e-05
9.9641865e-05
9.9284958e-05
9.859999e-05
9.7925044e-05
0.00010022517
0.00012123091
0.00022425603
0.00056106272
9.1744874e-05
9.174416e-05
9.1738826e-05
9.1717148e-05
9.1647174e-05
9.1460104e-05
9.1049018e-05
9.0398665e-05
9.0258419e-05
9.5030413e-05
0.00012461431
0.00024286356
0.00054449405
8.4785472e-05
8.4783454e-05
8.4774018e-05
8.4741918e-05
8.4649457e-05
8.4426122e-05
8.3996574e-05
8.3502376e-05
8.4241543e-05
9.2421343e-05
0.00013239492
0.00026511347
0.00053012765
7.8752977e-05
7.8749319e-05
7.8734951e-05
7.8691403e-05
7.8577619e-05
7.8330528e-05
7.7932172e-05
7.7743318e-05
7.9771153e-05
9.2438123e-05
0.00014444361
0.00028951151
0.0005186607
7.3479682e-05
7.3474066e-05
7.3454131e-05
7.3398964e-05
7.3267704e-05
7.3016085e-05
7.2712929e-05
7.3009357e-05
7.6815021e-05
9.5182833e-05
0.00016036324
0.00031428525
0.00051014247
6.8835097e-05
6.8827266e-05
6.8801436e-05
6.8735571e-05
6.8593744e-05
6.836405e-05
6.8235745e-05
6.9234209e-05
7.5403716e-05
0.00010076472
0.00017939076
0.00033780739
0.0005042266
6.4716374e-05
6.4706175e-05
6.4674551e-05
6.4600233e-05
6.4458202e-05
6.4284863e-05
6.4429045e-05
6.6391811e-05
7.5619872e-05
0.0001092241
0.00020043528
0.00035894529
0.00050037283
6.1041501e-05
6.1028932e-05
6.0992164e-05
6.091321e-05
6.0785257e-05
6.0711783e-05
6.1247563e-05
6.4493003e-05
7.7580808e-05
0.00012045028
0.00022225715
0.00037717552
0.0004980107
5.7744396e-05
5.7729653e-05
5.7689074e-05
5.7611142e-05
5.751606e-05
5.7596592e-05
5.8669223e-05
6.3582872e-05
8.1411587e-05
0.00013412437
0.00024370832
0.00039247762
0.00049664628
5.4771313e-05
5.4754847e-05
5.4712615e-05
5.4643526e-05
5.4605384e-05
5.4906753e-05
5.6693486e-05
6.3736861e-05
8.7208044e-05
0.00014971788
0.00026392364
0.00040513366
0.00049590625
5.2078186e-05
5.206076e-05
5.2020025e-05
5.1970154e-05
5.2019282e-05
5.2623661e-05
5.5340605e-05
6.5053659e-05
9.4994187e-05
0.00016655656
0.0002823955
0.00041554871
0.00049553614
4.9628635e-05
4.9611393e-05
4.9576492e-05
4.9559258e-05
4.9733503e-05
5.0741693e-05
5.4651195e-05
6.7643173e-05
0.00010468474
0.00018392817
0.00029893687
0.00042413794
0.00049537652
4.7392458e-05
4.7377004e-05
4.7353699e-05
4.7386176e-05
4.773248e-05
4.9267886e-05
5.4685329e-05
7.1608744e-05
0.00011606686
0.00020119288
0.00031358495
0.0004312733
0.0004953351
4.5344476e-05
4.5332971e-05
4.5328746e-05
4.5432431e-05
4.600877e-05
4.8222045e-05
5.5520139e-05
7.7024464e-05
0.0001288111
0.00021785899
0.00032650009
0.00043726613
0.00049536293
4.3463657e-05
4.3458933e-05
4.3483358e-05
4.3685127e-05
4.4562868e-05
4.7637066e-05
5.7244889e-05
8.3911109e-05
0.00014251076
0.00023360813
0.00033789057
0.00044236711
0.00049543702
4.1732429e-05
4.173814e-05
4.1803329e-05
4.2136614e-05
4.3403329e-05
4.7559128e-05
5.9952701e-05
9.2216777e-05
0.00015673762
0.00024827797
0.00034796834
0.00044677301
0.00049554866
4.0136167e-05
4.015697e-05
4.0278148e-05
4.0784372e-05
4.2547129e-05
4.8047289e-05
6.3728704e-05
0.00010180889
0.00017109625
0.00026182259
0.0003569282
0.00045063571
0.00049569617
3.8662802e-05
3.8704582e-05
3.8900797e-05
3.9631107e-05
4.2020194e-05
4.9171842e-05
6.8635434e-05
0.00011248166
0.0001852623
0.00027427018
0.00036494029
0.00045407114
0.00049588069
3.7302531e-05
3.7372692e-05
3.7667676e-05
3.8685008e-05
4.1857944e-05
5.1010818e-05
7.469775e-05
0.00012397798
0.00019899862
0.00028568913
0.00037214923
0.00045716736
0.00049610392
3.6047628e-05
3.6155447e-05
3.6578682e-05
3.7960181e-05
4.2105653e-05
5.364414e-05
8.189077e-05
0.00013601989
0.00021215194
0.00029616534
0.00037867608
0.00045999117
0.00049636709
3.4892327e-05
3.5049398e-05
3.5637397e-05
3.7477201e-05
4.2818255e-05
5.7145347e-05
9.0134493e-05
0.00014833915
0.00022463803
0.00030578894
0.00038462123
0.0004625934
0.00049667064
3.383279e-05
3.4053568e-05
3.4851411e-05
3.7263736e-05
4.4059204e-05
6.1571464e-05
9.9297385e-05
0.00016070076
0.00023642317
0.00031464714
0.00039006764
0.00046501299
0.00049701416
3.2867148e-05
3.316962e-05
3.4232754e-05
3.7355161e-05
4.589791e-05
6.6952454e-05
0.00010920862
0.0001729158
0.00024750738
0.00032282078
0.00039508379
0.00046727997
0.00049739654
3.1995627e-05
3.2402111e-05
3.3798454e-05
3.7794961e-05
4.8405427e-05
7.3282438e-05
0.00011967597
0.00018484396
0.00025791154
0.00033038288
0.00039972634
0.00046941774
0.00049781615
3.1220754e-05
3.1758868e-05
3.3571165e-05
3.8634688e-05
5.16483e-05
8.0515036e-05
0.00013050501
0.00019638897
0.00026766839
0.00033739836
0.00040404224
0.00047144508
0.00049827105
3.0547674e-05
3.1251458e-05
3.3579858e-05
3.9933127e-05
5.5680954e-05
8.8564414e-05
0.00014151527
0.00020749041
0.00027681665
0.00034392427
0.00040806987
0.00047336165
0.00049875826
2.9984563e-05
3.0895778e-05
3.386046e-05
4.1754321e-05
6.0537582e-05
9.7312151e-05
0.00015255089
0.00021811502
0.00028539699
0.00035000997
0.00041183983
0.00047517683
0.00049927448
2.9543171e-05
3.071274e-05
3.4456302e-05
4.4164148e-05
6.6225003e-05
0.00010661843
0.0001634853
0.00022824915
0.00029345002
0.00035569879
0.00041537498
0.00047690098
0.00049981638
2.9239498e-05
3.0729039e-05
3.5418147e-05
4.7225361e-05
7.2718213e-05
0.00011633497
0.00017422102
0.00023789273
0.0003010146
0.00036102773
0.000418694
0.00047854313
0.00050038114
2.9094594e-05
3.097795e-05
3.6803499e-05
5.099133e-05
7.995988e-05
0.00012631696
0.00018468652
0.0002470547
0.00030812684
0.00036602759
0.0004218162
0.0004801151
0.00050096676
2.9135495e-05
3.1500044e-05
3.8674857e-05
5.5499184e-05
8.7864162e-05
0.00013643209
0.00019483196
0.00025575015
0.00031482084
0.00037072329
0.00042475509
0.00048162855
0.000501572
2.939623e-05
3.2343667e-05
4.1096627e-05
6.0763499e-05
9.632407e-05
0.00014656574
0.00020462432
0.00026399671
0.00032112526
0.00037513788
0.00042753008
0.00048308916
0.00050219529
2.9918839e-05
3.3564906e-05
4.413058e-05
6.6771879e-05
0.00010522078
0.00015662302
0.00021404418
0.00027181505
0.00032706606
0.00037928747
0.00043015898
0.00048450265
0.00050283511
3.0754239e-05
3.5226721e-05
4.7830027e-05
7.3483548e-05
0.00011443287
0.00016652783
0.00022308101
0.00027922363
0.00033266468
0.00038319523
0.0004326545
0.00048587307
0.00050348988
3.1962692e-05
3.7396837e-05
5.2233342e-05
8.083145e-05
0.00012384408
0.00017622136
0.00023173237
0.0002862417
0.00033793723
0.00038688253
0.00043502774
0.00048720352
0.00050415803
3.3613501e-05
4.0144086e-05
5.7357843e-05
8.872739e-05
0.00013334836
0.00018565851
0.00023999855
0.00029288457
0.000342906
0.00039036649
0.00043728791
0.00048849634
0.00050483797
3.5783405e-05
4.353307e-05
6.3195306e-05
9.706923e-05
0.00014285306
0.00019480683
0.00024788469
0.00029916232
0.00034759331
0.00039366188
0.0004394427
0.00048975325
0.00050552812
3.8553066e-05
4.7617431e-05
6.9710115e-05
0.00010574826
0.00015227866
0.00020364078
0.0002553933
0.00030509328
0.00035201759
0.00039678118
0.00044149842
0.00049097545
0.00050622692
4.2001155e-05
5.2432563e-05
7.684072e-05
0.00011465641
0.00016156002
0.00021214495
0.00026252194
0.00031069683
0.000356195
0.00039973504
0.0004434603
0.00049216367
0.00050693283
4.6195921e-05
5.7988964e-05
8.4503816e-05
0.00012369061
0.00017064178
0.00022029902
0.00026928194
0.00031598929
0.00036013925
0.00040253238
0.00044533252
0.00049331826
0.00050764432
5.1185019e-05
6.4267712e-05
9.2600636e-05
0.00013275649
0.00017947939
0.00022808589
0.00027568471
0.00032098503
0.00036386202
0.00040518056
0.00044711836
0.00049443921
0.00050835988
5.698536e-05
7.1219289e-05
0.00010102457
0.00014177165
0.00018802208
0.00023550303
0.00028174031
0.0003256963
0.00036737304
0.00040768556
0.00044882026
0.00049552615
0.00050907799
6.3575476e-05
7.8766077e-05
0.00010966807
0.00015065101
0.000196237
0.00024254864
0.00028745746
0.0003301333
0.00037068023
0.00041005205
0.00045043988
0.00049657837
0.00050979712
7.089348e-05
8.680902e-05
0.00011841799
0.00015932163
0.00020409989
0.00024922138
0.00029284335
0.00033430427
0.00037378984
0.00041228348
0.00045197812
0.00049759484
0.00051051571
7.8838255e-05
9.5225368e-05
0.00012716547
0.00016772588
0.00021159052
0.00025551998
0.00029790357
0.00033821554
0.00037670648
0.00041438213
0.00045343518
0.00049857418
0.00051123213
8.7271737e-05
0.00010388137
0.00013581416
0.00017581506
0.00021869191
0.00026144296
0.00030264213
0.00034187166
0.00037943324
0.00041634918
0.00045481054
0.00049951469
0.00051194472
9.6036178e-05
0.00011264288
0.00014427884
0.00018354849
0.00022538998
0.00026698861
0.00030706159
0.00034527554
0.0003819718
0.00041818477
0.00045610302
0.0005004143
0.00051265168
0.00010496809
0.00012138217
0.00015248587
0.000190893
0.00023167333
0.00027215515
0.00031116331
0.00034842865
0.0003843226
0.00041988807
0.00045731082
0.00050127062
0.00051335112
0.00011391058
0.00012998321
0.00016037324
0.00019782235
0.00023753333
0.00027694108
0.0003149478
0.00035133128
0.00038648498
0.00042145743
0.00045843153
0.00050208094
0.00051404099
0.00012272248
0.00013834517
0.00016789034
0.00020431695
0.00024296424
0.00028134552
0.00031841516
0.00035398296
0.00038845747
0.00042289053
0.00045946233
0.00050284227
0.00051471912
0.00013128388
0.00014638428
0.00017499754
0.00021036346
0.00024796341
0.00028536876
0.00032156552
0.0003563828
0.0003902381
0.00042418458
0.0004604
0.00050355143
0.00051538317
0.00013949843
0.0001540343
0.0001816656
0.00021595443
0.00025253143
0.00028901263
0.00032439962
0.00035852998
0.00039182475
0.0004253366
0.00046124121
0.00050420513
0.00051603068
0.00014729306
0.00016124584
0.00018787484
0.00022108784
0.00025667212
0.00029228087
0.00032691922
0.00036042417
0.0003932155
0.00042634373
0.00046198268
0.00050480014
0.00051665911
0.00015461612
0.000167985
0.00019361429
0.00022576658
0.0002603925
0.00029517937
0.00032912753
0.00036206601
0.00039440909
0.00042720349
0.0004626214
0.00050533342
0.00051726586
0.00016143466
0.00017423144
0.0001988806
0.00022999795
0.00026370257
0.00029771632
0.00033102948
0.00036345743
0.00039540518
0.00042791418
0.00046315496
0.0005058023
0.00051784835
0.00016773139
0.00017997639
0.00020367701
0.000233793
0.00026661505
0.00029990214
0.00033263193
0.00036460193
0.00039620477
0.00042847509
0.00046358168
0.00050620464
0.00051840407
0.00017350162
0.00018522053
0.00020801223
0.00023716595
0.00026914504
0.00030174942
0.00033394372
0.00036550478
0.00039681032
0.00042888676
0.00046390088
0.00050653899
0.0005189307
0.00017875056
0.00018997212
0.00021189945
0.0002401336
0.00027130958
0.00030327264
0.00033497561
0.00036617311
0.00039722596
0.00042915114
0.00046411303
0.00050680468
0.00051942613
0.00018349094
0.00019424522
0.00021535538
0.00024271476
0.0002731273
0.00030448796
0.00033574013
0.0003666158
0.00039745752
0.00042927168
0.0004642198
0.00050700191
0.00051988853
0.00018774097
0.00019805828
0.00021839934
0.00024492973
0.00027461801
0.00030541287
0.0003362514
0.00036684346
0.00039751247
0.00042925335
0.00046422411
0.00050713178
0.00052031644
0.00019152277
0.00020143282
0.00022105259
0.00024679983
0.00027580233
0.00030606587
0.00033652485
0.00036686818
0.00039739987
0.00042910254
0.00046413012
0.00050719627
0.00052070877
0.00019486101
0.00020439245
0.00022333763
0.00024834703
0.00027670136
0.00030646618
0.00033657695
0.00036670336
0.0003971301
0.00042882699
0.00046394313
0.00050719822
0.00052106486
0.00019778194
0.00020696207
0.00022527771
0.00024959356
0.00027733638
0.00030663343
0.0003364249
0.0003663634
0.00039671476
0.00042843559
0.00046366944
0.00050714122
0.00052138445
0.00020031258
0.00020916719
0.00022689636
0.00025056166
0.00027772863
0.00030658739
0.0003360864
0.00036586348
0.00039616635
0.00042793821
0.00046331625
0.00050702953
0.00052166771
0.00020248012
0.00021103344
0.00022821712
0.00025127334
0.00027789904
0.00030634775
0.00033557934
0.00036521924
0.00039549806
0.00042734543
0.00046289141
0.00050686796
0.00052191522
0.00020431151
0.00021258621
0.00022926314
0.00025175016
0.00027786814
0.00030593392
0.00033492157
0.00036444657
0.00039472348
0.00042666835
0.00046240329
0.00050666169
0.0005221279
0.00020583308
0.00021385033
0.0002300571
0.00025201309
0.00027765583
0.0003053648
0.00033413071
0.00036356135
0.00039385638
0.00042591832
0.0004618605
0.0005064162
0.00052230702
0.00020707037
0.0002148499
0.00023062094
0.00025208239
0.00027728129
0.0003046587
0.00033322391
0.00036257919
0.00039291045
0.00042510675
0.00046127178
0.00050613705
0.0005224541
0.00020804788
0.00021560807
0.00023097576
0.00025197748
0.00027676289
0.00030383316
0.00033221773
0.00036151528
0.00039189908
0.00042424483
0.00046064573
0.00050582978
0.0005225709
0.00020878901
0.00021614698
0.00023114176
0.00025171691
0.00027611809
0.00030290487
0.00033112797
0.00036038419
0.00039083521
0.00042334343
0.0004599907
0.00050549976
0.00052265934
0.00020931598
0.00021648768
0.00023113813
0.00025131826
0.00027536344
0.0003018896
0.00032996959
0.00035919975
0.00038973113
0.00042241287
0.00045931462
0.00050515214
0.00052272142
0.00020964979
0.00021665007
0.00023098303
0.00025079814
0.00027451446
0.00030080217
0.00032875662
0.00035797497
0.00038859842
0.00042146286
0.00045862493
0.00050479173
0.00052275924
0.00020981017
0.0002166529
0.00023069358
0.00025017214
0.00027358571
0.00029965636
0.00032750214
0.00035672193
0.0003874478
0.00042050238
0.00045792849
0.00050442295
0.0005227749
0.00020981567
0.00021651375
0.00023028582
0.00024945488
0.00027259076
0.00029846499
0.00032621821
0.00035545178
0.00038628915
0.00041953966
0.00045723154
0.00050404984
0.0005227705
0.00020968359
0.00021624909
0.00022977479
0.00024865999
0.00027154216
0.00029723987
0.00032491594
0.00035417471
0.00038513147
0.00041858216
0.00045653969
0.00050367603
0.00052274811
0.0002094301
0.00021587428
0.00022917448
0.00024780013
0.00027045155
0.00029599184
0.00032360543
0.00035289997
0.00038398286
0.00041763653
0.00045585794
0.00050330477
0.00052270974
0.00020907022
0.00021540361
0.00022849792
0.00024688702
0.00026932961
0.00029473079
0.00032229586
0.00035163587
0.00038285055
0.00041670866
0.00045519066
0.00050293889
0.00052265733
0.0002086179
0.00021485031
0.00022775715
0.00024593148
0.00026818613
0.0002934657
0.00032099546
0.00035038982
0.00038174092
0.0004158037
0.00045454164
0.00050258089
0.00052259276
0.00020808602
0.00021422667
0.00022696334
0.00024494346
0.00026703005
0.00029220468
0.00031971159
0.00034916834
0.0003806595
0.00041492604
0.00045391407
0.00050223283
0.00052251778
0.0002074865
0.00021354397
0.00022612671
0.00024393206
0.00026586944
0.00029095497
0.00031845072
0.0003479771
0.00037961103
0.00041407938
0.00045331048
0.00050189502
0.00052243398
0.00020683028
0.00021281262
0.00022525665
0.00024290555
0.00026471159
0.00028972301
0.00031721852
0.00034682096
0.00037859947
0.00041326665
0.00045273267
0.00050156725
0.00052234273
0.0002061274
0.00021204212
0.00022436174
0.00024187145
0.00026356302
0.00028851446
0.00031601986
0.00034570401
0.00037762805
0.00041249014
0.00045218104
0.00050125044
0.00052224522
0.00020538702
0.00021124116
0.00022344976
0.00024083649
0.0002624295
0.00028733423
0.00031485887
0.00034462956
0.00037669925
0.00041175133
0.00045165627
0.0005009461
0.00052214268
0.00020461749
0.00021041761
0.00022252774
0.00023980672
0.00026131611
0.00028618654
0.00031373898
0.00034360032
0.00037581497
0.00041105066
0.00045115854
0.00050065615
0.00052203638
0.00020382637
0.00020957863
0.000221602
0.00023878752
0.00026022729
0.00028507498
0.00031266299
0.00034261828
0.00037497614
0.00041038834
0.00045068903
0.00050038153
0.0005219275
0.00020302052
0.00020873063
0.00022067823
0.00023778362
0.00025916685
0.00028400251
0.00031163308
0.00034168479
0.00037418316
0.00040976457
0.00045024852
0.00050012291
0.00052181706
0.0002022061
0.00020787941
0.00021976146
0.0002367992
0.00025813809
0.00028297159
0.0003106509
0.00034080054
0.00037343573
0.00040917994
0.00044983733
0.00049988063
0.00052170601
0.00020138866
0.00020703015
0.00021885619
0.0002358379
0.00025714376
0.00028198412
0.00030971745
0.00033996545
0.00037273414
0.00040863459
0.00044945546
0.00049965481
0.00052159515
0.00020057315
0.00020618746
0.00021796637
0.00023490286
0.00025618614
0.00028104151
0.00030883313
0.00033917947
0.00037207846
0.00040812828
0.00044910262
0.00049944539
0.00052148522
0.00019976402
0.00020535545
0.00021709549
0.00023399675
0.00025526707
0.00028014467
0.00030799782
0.00033844267
0.00037146841
0.00040766054
0.00044877832
0.00049925216
0.00052137684
0.00019896518
0.00020453774
0.00021624656
0.00023312188
0.00025438793
0.00027929373
0.00030721172
0.00033775483
0.00037090341
0.00040723063
0.00044848191
0.00049907481
0.00052127058
0.00019818013
0.00020373753
0.00021542225
0.00023228001
0.00025354935
0.00027848911
0.00030647473
0.00033711541
0.00037038264
0.00040683764
0.0004482126
0.00049891294
0.0005211669
0.00019741194
0.0002029576
0.0002146246
0.00023147234
0.00025275207
0.00027773096
0.00030578647
0.00033652362
0.00036990508
0.00040648047
0.00044796947
0.00049876606
0.00052106623
0.00019666315
0.00020220018
0.00021385531
0.00023069999
0.00025199656
0.00027701917
0.00030514632
0.00033597845
0.00036946949
0.00040615789
0.0004477515
0.00049863363
0.0005209689
0.00019593593
0.00020146716
0.00021311579
0.00022996378
0.00025128304
0.00027635336
0.00030455342
0.00033547871
0.00036907449
0.00040586854
0.00044755757
0.00049851502
0.00052087519
0.0001952321
0.00020076012
0.00021240718
0.00022926429
0.0002506115
0.00027573296
0.00030400671
0.00033502299
0.00036871855
0.00040561094
0.00044738651
0.00049840958
0.00052078531
0.00019455318
0.00020008037
0.00021173036
0.00022860186
0.00024998168
0.00027515717
0.00030350496
0.00033460979
0.00036840002
0.00040538356
0.00044723709
0.0004983166
0.00052069943
0.00019390043
0.00019942897
0.00021108597
0.0002279766
0.00024939313
0.00027462501
0.00030304679
0.00033423743
0.00036811717
0.00040518478
0.00044710804
0.00049823537
0.00052061766
0.00019327484
0.00019880672
0.00021047442
0.00022738841
0.00024884522
0.00027413537
0.00030263067
0.00033390417
0.00036786822
0.00040501298
0.00044699809
0.00049816515
0.00052054007
0.0001926772
0.00019821419
0.00020989591
0.00022683701
0.00024833715
0.00027368697
0.00030225499
0.00033360821
0.00036765134
0.00040486652
0.00044690597
0.00049810523
0.00052046668
0.00019210805
0.00019765175
0.00020935046
0.00022632196
0.00024786799
0.00027327845
0.00030191804
0.00033334766
0.00036746467
0.00040474376
0.00044683044
0.00049805489
0.00052039752
0.00019156775
0.0001971196
0.00020883791
0.00022584266
0.00024743669
0.00027290834
0.00030161808
0.00033312064
0.00036730638
0.00040464309
0.00044677029
0.00049801347
0.00052033256
0.00019105649
0.00019661775
0.00020835796
0.00022539838
0.00024704207
0.00027257509
0.0003013533
0.00033292525
0.00036717464
0.00040456293
0.00044672433
0.0004979803
0.00052027175
0.00019057428
0.00019614606
0.00020791015
0.00022498829
0.0002466829
0.00027227713
0.00030112187
0.0003327596
0.00036706765
0.00040450174
0.00044669143
0.00049795474
0.00052021505
0.000190121
0.00019570427
0.00020749393
0.00022461145
0.00024635786
0.00027201281
0.00030092197
0.00033262179
0.00036698365
0.00040445804
0.0004466705
0.00049793621
0.00052016238
0.00018969639
0.00019529197
0.00020710862
0.00022426683
0.00024606557
0.00027178046
0.00030075176
0.00033250998
0.00036692091
0.00040443038
0.00044666049
0.0004979241
0.00052011364
0.00018930009
0.00019490865
0.00020675344
0.00022395334
0.00024580462
0.00027157841
0.0003006094
0.00033242232
0.00036687777
0.00040441738
0.00044666039
0.00049791787
0.00052006874
0.00018893161
0.00019455372
0.00020642756
0.00022366981
0.00024557353
0.00027140496
0.00030049309
0.00033235705
0.00036685258
0.00040441768
0.00044666924
0.00049791698
0.00052002757
0.00018859037
0.00019422648
0.00020613003
0.00022341506
0.00024537083
0.00027125843
0.00030040105
0.00033231241
0.00036684379
0.00040443002
0.00044668613
0.00049792092
0.00051998999
0.00018827572
0.00019392615
0.00020585989
0.00022318782
0.00024519502
0.00027113713
0.00030033152
0.0003322867
0.00036684989
0.00040445317
0.00044671018
0.0004979292
0.00051995589
0.00018798692
0.0001936519
0.0002056161
0.00022298681
0.0002450446
0.00027103939
0.00030028279
0.0003322783
0.00036686942
0.00040448596
0.00044674058
0.00049794135
0.00051992513
0.00018772318
0.00019340283
0.00020539756
0.00022281075
0.00024491806
0.00027096359
0.00030025319
0.00033228562
0.00036690102
0.00040452729
0.00044677654
0.00049795695
0.00051989756
0.00018748364
0.00019317801
0.00020520318
0.0002226583
0.00024481392
0.00027090813
0.00030024112
0.00033230715
0.00036694335
0.00040457612
0.00044681734
0.00049797559
0.00051987304
0.00018726739
0.00019297645
0.00020503182
0.00022252817
0.00024473068
0.00027087142
0.00030024501
0.00033234144
0.00036699518
0.00040463147
0.0004468623
0.00049799689
0.00051985143
0.00018707351
0.00019279714
0.00020488231
0.00022241901
0.0002446669
0.00027085195
0.00030026336
0.00033238711
0.00036705531
0.00040469242
0.00044691077
0.00049802048
0.00051983257
0.00018690102
0.00019263903
0.00020475349
0.00022232953
0.00024462114
0.00027084824
0.00030029473
0.00033244284
0.00036712265
0.00040475809
0.00044696216
0.00049804602
0.00051981633
0.00018674892
0.00019250106
0.00020464418
0.00022225841
0.000244592
0.00027085884
0.00030033772
0.00033250737
0.00036719613
0.00040482769
0.00044701592
0.0004980732
0.00051980254
0.00018661617
0.00019238216
0.0002045532
0.00022220437
0.00024457812
0.00027088239
0.00030039101
0.00033257952
0.00036727476
0.00040490044
0.00044707151
0.00049810171
0.00051979107
0.00018650176
0.00019228123
0.00020447939
0.00022216614
0.00024457816
0.00027091753
0.00030045335
0.00033265816
0.00036735761
0.00040497564
0.00044712845
0.00049813126
0.00051978174
0.00018640463
0.0001921972
0.00020442156
0.00022214247
0.00024459083
0.00027096299
0.00030052352
0.00033274223
0.0003674438
0.00040505262
0.00044718628
0.00049816158
0.00051977441
0.00018632373
0.00019212896
0.00020437857
0.00022213214
0.00024461489
0.00027101755
0.0003006004
0.00033283074
0.00036753252
0.00040513076
0.00044724457
0.00049819241
0.00051976894
0.00018625802
0.00019207545
0.00020434929
0.00022213398
0.00024464912
0.00027108003
0.00030068289
0.00033292274
0.00036762301
0.0004052095
0.00044730294
0.00049822352
0.00051976516
0.00018620645
0.0001920356
0.0002043326
0.00022214683
0.00024469238
0.00027114933
0.00030077
0.00033301739
0.00036771457
0.00040528831
0.00044736103
0.00049825467
0.00051976293
0.00018616801
0.00019200836
0.00020432742
0.0002221696
0.00024474358
0.00027122441
0.00030086078
0.00033311386
0.00036780658
0.00040536673
0.00044741852
0.00049828569
0.00051976212
0.00018614168
0.00019199272
0.00020433272
0.00022220122
0.00024480167
0.0002713043
0.00030095435
0.00033321144
0.00036789844
0.00040544433
0.00044747513
0.00049831639
0.00051976258
0.00018612651
0.00019198768
0.00020434748
0.00022224068
0.00024486568
0.00027138807
0.00030104993
0.00033330945
0.00036798965
0.00040552074
0.00044753061
0.00049834663
0.00051976419
0.00018612154
0.0001919923
0.00020437074
0.00022228704
0.00024493469
0.00027147489
0.00030114678
0.0003334073
0.00036807976
0.00040559566
0.00044758477
0.00049837629
0.00051976684
0.00018612586
0.00019200566
0.0002044016
0.00022233939
0.00024500784
0.00027156399
0.00030124424
0.00033350447
0.00036816836
0.0004056688
0.00044763744
0.00049840527
0.00051977042
0.00018613861
0.00019202688
0.00020443918
0.0002223969
0.00024508436
0.00027165467
0.00030134171
0.00033360047
0.00036825513
0.00040573995
0.00044768849
0.00049843349
0.00051977482
0.00018615896
0.00019205515
0.00020448266
0.00022245877
0.0002451635
0.00027174628
0.00030143866
0.0003336949
0.00036833975
0.00040580892
0.00044773781
0.00049846089
0.00051977996
0.0001861861
0.00019208966
0.00020453128
0.00022252428
0.0002452446
0.00027183823
0.00030153461
0.00033378741
0.000368422
0.00040587555
0.00044778531
0.00049848743
0.00051978576
0.00018621929
0.00019212968
0.00020458431
0.00022259273
0.00024532705
0.00027193001
0.00030162915
0.00033387766
0.00036850165
0.00040593972
0.00044783092
0.00049851297
0.00051979213
0.00018625781
0.0001921745
0.00020464106
0.00022266349
0.00024541027
0.00027202113
0.00030172188
0.0003339654
0.00036857852
0.00040600132
0.00044787456
0.00049853734
0.00051979897
0.00018630098
0.00019222345
0.0002047009
0.00022273597
0.00024549374
0.00027211116
0.00030181248
0.00033405037
0.00036865245
0.00040606024
0.0004479161
0.00049856047
0.00051980619
0.00018634814
0.00019227589
0.00020476322
0.00022280963
0.00024557698
0.00027219969
0.00030190065
0.00033413236
0.00036872331
0.00040611639
0.00044795545
0.00049858238
0.00051981372
0.00018639869
0.00019233122
0.00020482746
0.00022288393
0.00024565955
0.00027228639
0.00030198611
0.0003342112
0.00036879097
0.00040616965
0.00044799252
0.00049860312
0.00051982149
0.00018645203
0.00019238887
0.00020489308
0.00022295842
0.00024574106
0.00027237092
0.00030206863
0.00033428671
0.00036885533
0.00040621993
0.00044802733
0.00049862271
0.00051982943
0.00018650761
0.0001924483
0.00020495959
0.00022303265
0.00024582112
0.000272453
0.00030214801
0.00033435876
0.00036891626
0.00040626715
0.00044805993
0.00049864116
0.00051983748
0.00018656489
0.00019250901
0.00020502652
0.00022310621
0.00024589941
0.00027253239
0.00030222407
0.00033442723
0.00036897366
0.00040631134
0.00044809033
0.0004986585
0.00051984559
0.0001866234
0.00019257053
0.00020509343
0.00022317873
0.00024597563
0.00027260885
0.00030229665
0.00033449201
0.0003690275
0.00040635253
0.00044811858
0.00049867472
0.0005198537
0.00018668266
0.00019263241
0.00020515994
0.00022324989
0.00024604953
0.00027268221
0.00030236564
0.00033455299
0.00036907781
0.00040639078
0.00044814472
0.00049868984
0.00051986176
0.00018674224
0.00019269424
0.00020522568
0.00022331937
0.00024612088
0.00027275232
0.00030243091
0.00033461017
0.00036912462
0.00040642615
0.0004481688
0.00049870387
0.00051986973
0.00018680176
0.00019275566
0.00020529032
0.00022338693
0.00024618949
0.00027281901
0.00030249238
0.00033466357
0.000369168
0.00040645869
0.00044819087
0.00049871684
0.00051987757
0.00018686084
0.00019281632
0.00020535358
0.00022345233
0.00024625516
0.00027288217
0.00030255006
0.00033471323
0.000369208
0.00040648848
0.000448211
0.00049872876
0.00051988523
0.00018691917
0.00019287592
0.00020541519
0.00022351535
0.00024631777
0.00027294177
0.00030260395
0.00033475921
0.00036924472
0.00040651562
0.00044822925
0.00049873967
0.00051989269
0.00018697646
0.0001929342
0.00020547493
0.00022357582
0.0002463772
0.00027299776
0.00030265409
0.00033480159
0.00036927825
0.00040654018
0.00044824568
0.00049874958
0.00051989991
0.00018703245
0.00019299092
0.00020553259
0.00022363361
0.00024643339
0.00027305015
0.00030270053
0.00033484044
0.00036930868
0.00040656226
0.00044826036
0.00049875853
0.00051990688
0.00018708693
0.00019304586
0.00020558801
0.00022368862
0.00024648632
0.00027309898
0.00030274335
0.00033487587
0.00036933613
0.00040658197
0.00044827338
0.00049876654
0.00051991358
0.0001871397
0.00019309888
0.00020564108
0.00022374077
0.00024653597
0.00027314428
0.00030278263
0.000334908
0.00036936071
0.00040659941
0.0004482848
0.00049877366
0.00051991998
0.00018719063
0.00019314985
0.00020569171
0.00022379005
0.00024658238
0.00027318614
0.0003028185
0.00033493697
0.00036938257
0.0004066147
0.00044829471
0.00049877993
0.00051992609
0.0001872396
0.00019319866
0.00020573984
0.00022383645
0.00024662559
0.00027322465
0.00030285107
0.00033496291
0.00036940185
0.00040662797
0.00044830322
0.0004987854
0.0005199319
0.00018728654
0.00019324528
0.00020578546
0.00022387999
0.00024666568
0.00027325993
0.0003028805
0.00033498599
0.00036941871
0.00040663936
0.00044831042
0.00049879013
0.00051993741
0.00018733141
0.00019328967
0.00020582858
0.00022392073
0.00024670275
0.00027329211
0.00030290696
0.00033500638
0.00036943332
0.00040664901
0.00044831644
0.0004987942
0.00051994264
0.00018737419
0.00019333183
0.00020586922
0.00022395873
0.00024673691
0.00027332136
0.0003029306
0.00033502427
0.00036944584
0.00040665707
0.00044832139
0.00049879768
0.0005199476
0.00018741488
0.00019337178
0.00020590744
0.0002239941
0.00024676828
0.00027334782
0.00030295162
0.00033503984
0.00036945645
0.00040666371
0.0004483254
0.00049880066
0.00051995232
0.0001874535
0.00019340954