/*--------------------------------*- C++ -*----------------------------------*\
| =========                 |                                                 |
| \\      /  F ield         | OpenFOAM: The Open Source CFD Toolbox           |
|  \\    /   O peration     | Version:  2506                                  |
|   \\  /    A nd           | Website:  www.openfoam.com                      |
|    \\/     M anipulation  |                                                 |
\*---------------------------------------------------------------------------*/
FoamFile
{
    version     2.0;
    format      ascii;
    arch        "LSB;label=32;scalar=64";
    class       volScalarField;
    location    "29000/water";
    object      nut;
}
// * * * * * * * * * * * * * * * * * * * * * * * * * * * * * * * * * * * * * //

dimensions      [0 2 -1 0 0 0 0];

internalField   nonuniform List<scalar> 
2600
(
4.0562043e-05
4.0561942e-05
4.0561944e-05
4.0561981e-05
4.0561942e-05
4.0561434e-05
4.0558261e-05
4.0540002e-05
4.0435343e-05
3.98338e-05
3.6541397e-05
2.4161555e-05
1.4889524e-05
3.944741e-05
3.9447468e-05
3.944759e-05
3.9447676e-05
3.9447275e-05
3.9444342e-05
3.9428907e-05
3.9352895e-05
3.8988431e-05
3.7314814e-05
3.0763187e-05
1.7536144e-05
1.684056e-05
3.852265e-05
3.852264e-05
3.8522725e-05
3.8522528e-05
3.8520597e-05
3.8510798e-05
3.8466747e-05
3.8277827e-05
3.7500368e-05
3.454641e-05
2.5814945e-05
1.4669956e-05
1.7712619e-05
3.7742032e-05
3.774193e-05
3.7741811e-05
3.7740766e-05
3.7735283e-05
3.7711707e-05
3.7617453e-05
3.7258039e-05
3.5961308e-05
3.177518e-05
2.2061889e-05
1.3531464e-05
1.7967898e-05
3.7073562e-05
3.7073366e-05
3.7072781e-05
3.7069955e-05
3.7057916e-05
3.7011651e-05
3.6843992e-05
3.6266509e-05
3.4405655e-05
2.9188861e-05
1.9425178e-05
1.3345943e-05
1.7902414e-05
3.6493786e-05
3.6493393e-05
3.6491924e-05
3.648598e-05
3.646354e-05
3.6384687e-05
3.612226e-05
3.5294625e-05
3.2873382e-05
2.6881541e-05
1.771645e-05
1.3793839e-05
1.7689846e-05
3.5985207e-05
3.5984445e-05
3.5981496e-05
3.5970726e-05
3.5933497e-05
3.5812307e-05
3.5437992e-05
3.4343601e-05
3.1395257e-05
2.4892541e-05
1.6781972e-05
1.4727875e-05
1.7427344e-05
3.5534568e-05
3.55332e-05
3.5528007e-05
3.5510417e-05
3.5453869e-05
3.5281761e-05
3.478374e-05
3.3418009e-05
2.9989903e-05
2.3242727e-05
1.6521213e-05
1.605365e-05
1.7168093e-05
3.5131649e-05
3.5129373e-05
3.5121029e-05
3.5094485e-05
3.5014364e-05
3.4784646e-05
3.4156253e-05
3.2521766e-05
2.8667649e-05
2.1957692e-05
1.6869959e-05
1.7676047e-05
1.694009e-05
3.4768438e-05
3.47649e-05
3.4752406e-05
3.4714802e-05
3.4607522e-05
3.4315777e-05
3.3554458e-05
3.16563e-05
2.7438403e-05
2.1076946e-05
1.7774701e-05
1.9481897e-05
1.6755877e-05
3.4438571e-05
3.443338e-05
3.4415717e-05
3.4365168e-05
3.4228127e-05
3.3872266e-05
3.2977968e-05
3.0820513e-05
2.6321667e-05
2.0649591e-05
1.9168673e-05
2.1348725e-05
1.6617712e-05
3.4136931e-05
3.4129689e-05
3.4105903e-05
3.4040932e-05
3.3872746e-05
3.3452766e-05
3.2426062e-05
3.0012536e-05
2.5355877e-05
2.0719809e-05
2.0958175e-05
2.3166793e-05
1.6521078e-05
3.3859367e-05
3.3849701e-05
3.3819003e-05
3.3738723e-05
3.3539365e-05
3.3056856e-05
3.1897087e-05
2.923354e-05
2.4602257e-05
2.1309035e-05
2.3024752e-05
2.4858007e-05
1.6457822e-05
3.3602495e-05
3.3590098e-05
3.355197e-05
3.3456247e-05
3.3227088e-05
3.2684517e-05
3.1388405e-05
2.8493549e-05
2.4138758e-05
2.2402735e-05
2.5241354e-05
2.6381455e-05
1.6418929e-05
3.3363555e-05
3.334823e-05
3.3302533e-05
3.3192135e-05
3.2935885e-05
3.2335692e-05
3.0897111e-05
2.781812e-05
2.4044358e-05
2.3946907e-05
2.7493335e-05
2.7726694e-05
1.6396422e-05
3.3140311e-05
3.3122024e-05
3.3069114e-05
3.2945826e-05
3.2666358e-05
3.2009929e-05
3.0421904e-05
2.725306e-05
2.4379894e-05
2.5855075e-05
2.9693858e-05
2.8902281e-05
1.6384202e-05
3.2930983e-05
3.2909915e-05
3.2850758e-05
3.2717477e-05
3.2419519e-05
3.1706209e-05
2.9966345e-05
2.6863467e-05
2.5173339e-05
2.8023003e-05
3.1788481e-05
2.9925862e-05
1.6378086e-05
3.27342e-05
3.2710811e-05
3.2647097e-05
3.2507877e-05
3.219656e-05
3.14231e-05
2.9543334e-05
2.6725089e-05
2.6414166e-05
3.0346001e-05
3.3750499e-05
3.0817911e-05
1.6375449e-05
3.254898e-05
3.2524066e-05
3.2458325e-05
3.2318371e-05
3.1998619e-05
3.1159479e-05
2.9179674e-05
2.6909997e-05
2.8056821e-05
3.2733298e-05
3.5572232e-05
3.159849e-05
1.6374764e-05
3.2374714e-05
3.234948e-05
3.2285189e-05
3.2150777e-05
3.1826588e-05
3.0916123e-05
2.8918576e-05
2.7471842e-05
3.0030666e-05
3.5115835e-05
3.7256818e-05
3.2285747e-05
1.6375224e-05
3.2211173e-05
3.2187303e-05
3.2128983e-05
3.2007273e-05
3.1681012e-05
3.0698309e-05
2.8817774e-05
2.8435852e-05
3.225293e-05
3.7447134e-05
3.8812576e-05
3.2895331e-05
1.6376448e-05
3.2058522e-05
3.2038256e-05
3.199155e-05
3.1890271e-05
3.1562235e-05
3.0519241e-05
2.8942306e-05
2.9795903e-05
3.4641251e-05
3.9699499e-05
4.0249838e-05
3.3440303e-05
1.6378293e-05
3.1917349e-05
3.1903563e-05
3.1875268e-05
3.1802263e-05
3.147098e-05
3.0403415e-05
2.9353634e-05
3.1518043e-05
3.7123066e-05
4.1858567e-05
4.1579379e-05
3.3931333e-05
1.6380731e-05
3.1788707e-05
3.1784988e-05
3.1783034e-05
3.1745667e-05
3.1409597e-05
3.0388389e-05
3.0098643e-05
3.3548313e-05
3.9640505e-05
4.3918429e-05
4.2811639e-05
3.4377031e-05
1.6383779e-05
3.167417e-05
3.1684884e-05
3.1718215e-05
3.1722747e-05
3.1384108e-05
3.0523334e-05
3.1201977e-05
3.5822344e-05
4.215108e-05
4.5878175e-05
4.3956335e-05
3.4784314e-05
1.6387467e-05
3.1575896e-05
3.1606239e-05
3.1684577e-05
3.1735683e-05
3.1406919e-05
3.0863672e-05
3.266338e-05
3.8274459e-05
4.4625625e-05
4.7739784e-05
4.5022274e-05
3.515874e-05
1.6391813e-05
3.1496714e-05
3.155272e-05
3.1686171e-05
3.1786998e-05
3.1499547e-05
3.1462868e-05
3.4459812e-05
4.0844583e-05
4.7045147e-05
4.9506883e-05
4.6017316e-05
3.5504794e-05
1.6396824e-05
3.1440215e-05
3.1528703e-05
3.1727217e-05
3.1880504e-05
3.169423e-05
3.2363744e-05
3.6550944e-05
4.3482186e-05
4.9397841e-05
5.1183996e-05
4.6948403e-05
3.5826125e-05
1.6402494e-05
3.141085e-05
3.1539289e-05
3.1812006e-05
3.2022926e-05
3.2033145e-05
3.3591895e-05
3.888623e-05
4.6147428e-05
5.1676788e-05
5.2776064e-05
4.7821641e-05
3.6125718e-05
1.6408802e-05
3.1414042e-05
3.1590274e-05
3.1944927e-05
3.2226119e-05
3.2564562e-05
3.5152685e-05
4.1411888e-05
4.881035e-05
5.3878386e-05
5.4288123e-05
4.8642393e-05
3.6406048e-05
1.6415722e-05
3.1456281e-05
3.1688095e-05
3.2130756e-05
3.2509431e-05
3.333648e-05
3.703201e-05
4.4076507e-05
5.1449132e-05
5.6001297e-05
5.5725115e-05
4.9415388e-05
3.6669254e-05
1.642322e-05
3.1545208e-05
3.1839739e-05
3.2375385e-05
3.2901321e-05
3.4389411e-05
3.9199976e-05
4.6834635e-05
5.4048189e-05
5.8045691e-05
5.7091638e-05
5.0144339e-05
3.6914944e-05
1.6431248e-05
3.1689662e-05
3.2052667e-05
3.2687144e-05
3.3439133e-05
3.5750338e-05
4.1616209e-05
4.9648334e-05
5.6596559e-05
6.0012743e-05
5.8392012e-05
5.0832727e-05
3.7144923e-05
1.6439749e-05
3.1899683e-05
3.2334822e-05
3.3078702e-05
3.4166337e-05
3.74293e-05
4.423546e-05
5.2487193e-05
5.9086684e-05
6.1904245e-05
5.9630093e-05
5.1482697e-05
3.7361244e-05
1.6448668e-05
3.2186464e-05
3.2694871e-05
3.3569193e-05
3.5127407e-05
3.9419063e-05
4.7012428e-05
5.5327451e-05
6.1513509e-05
6.3722344e-05
6.0809395e-05
5.2096452e-05
3.7565314e-05
1.6457958e-05
3.256228e-05
3.3142859e-05
3.4185828e-05
3.6361547e-05
4.1697457e-05
4.9905188e-05
5.8150808e-05
6.3873836e-05
6.5469393e-05
6.1933119e-05
5.26774e-05
3.7758158e-05
1.6467586e-05
3.3040472e-05
3.3691438e-05
3.4963989e-05
3.7896943e-05
4.423143e-05
5.2877049e-05
6.0943285e-05
6.6165779e-05
6.7147568e-05
6.3002907e-05
5.322828e-05
3.7940824e-05
1.6477531e-05
3.3635636e-05
3.4357644e-05
3.5945061e-05
3.9746989e-05
4.698172e-05
5.589712e-05
6.3694251e-05
6.8388432e-05
6.8759337e-05
6.4022596e-05
5.3751054e-05
3.8114079e-05
1.6487766e-05
3.436422e-05
3.5164897e-05
3.7171972e-05
4.1909152e-05
4.9907177e-05
5.8940026e-05
6.6395666e-05
7.0541369e-05
7.030566e-05
6.499539e-05
5.424764e-05
3.8278685e-05
1.6498266e-05
3.5245716e-05
3.6144409e-05
3.8683386e-05
4.436636e-05
5.2968076e-05
6.1985171e-05
6.9041451e-05
7.2624751e-05
7.178941e-05
6.5923873e-05
5.471966e-05
3.8435268e-05
1.6509004e-05
3.6304386e-05
3.733501e-05
4.0508065e-05
4.7090195e-05
5.6128206e-05
6.5015945e-05
7.1626956e-05
7.463817e-05
7.3213268e-05
6.6810359e-05
5.516863e-05
3.8584369e-05
1.6519954e-05
3.7571042e-05
3.8780591e-05
4.2660831e-05
5.0044943e-05
5.9355779e-05
6.80189e-05
7.4148653e-05
7.6582493e-05
7.4579722e-05
6.7656902e-05
5.5595892e-05
3.872645e-05
1.653109e-05
3.9083848e-05
4.0525211e-05
4.514097e-05
5.3191577e-05
6.2623571e-05
7.0983107e-05
7.6603213e-05
7.845884e-05
7.5890911e-05
6.8465406e-05
5.6002632e-05
3.8861905e-05
1.6542386e-05
4.0886898e-05
4.260685e-05
4.7933089e-05
5.6490984e-05
6.5908446e-05
7.3899529e-05
7.8988648e-05
8.0268739e-05
7.7148737e-05
6.9237568e-05
5.6389887e-05
3.8991065e-05
1.6553816e-05
4.3025758e-05
4.5051411e-05
5.1009871e-05
5.9906211e-05
6.9190867e-05
7.6760139e-05
8.1303265e-05
8.201342e-05
7.8354966e-05
6.9974898e-05
5.675856e-05
3.911421e-05
1.6565353e-05
4.5540339e-05
4.7868447e-05
5.4335744e-05
6.3403511e-05
7.2453906e-05
7.9558412e-05
8.3546728e-05
8.3693978e-05
7.951114e-05
7.0678713e-05
5.7109426e-05
3.9231566e-05
1.6576974e-05
4.84567e-05
5.1049439e-05
5.7870618e-05
6.6952748e-05
7.5682781e-05
8.2288862e-05
8.5718426e-05
8.5311369e-05
8.0618599e-05
7.1350139e-05
5.7443133e-05
3.9343315e-05
1.6588653e-05
5.1780104e-05
5.4568618e-05
6.1572931e-05
7.0526863e-05
7.886394e-05
8.4947815e-05
8.7817766e-05
8.686635e-05
8.1678453e-05
7.1990116e-05
5.7760217e-05
3.9449594e-05
1.6600366e-05
5.5491346e-05
5.8385622e-05
6.5401383e-05
7.4100916e-05
8.1987181e-05
8.7531661e-05
8.9844043e-05
8.8359443e-05
8.2691574e-05
7.2599396e-05
5.8061098e-05
3.95505e-05
1.6612087e-05
5.9547205e-05
6.2448894e-05
6.9315555e-05
7.7653774e-05
8.5043645e-05
9.0036942e-05
9.1796377e-05
8.9790904e-05
8.3658589e-05
7.3178543e-05
5.8346086e-05
3.9646087e-05
1.662379e-05
6.3884447e-05
6.6699768e-05
7.3278186e-05
8.1167567e-05
8.8025173e-05
9.2460229e-05
9.3673657e-05
9.1160708e-05
8.4579867e-05
7.3727935e-05
5.861538e-05
3.9736371e-05
1.6635451e-05
6.842731e-05
7.1077052e-05
7.7255167e-05
8.4626029e-05
9.0924138e-05
9.4798062e-05
9.5474522e-05
9.2468531e-05
8.5455523e-05
7.4247764e-05
5.8869076e-05
3.9821327e-05
1.664704e-05
7.3095503e-05
7.5520254e-05
8.1214698e-05
8.801419e-05
9.373333e-05
9.7046923e-05
9.7197357e-05
9.3713763e-05
8.6285418e-05
7.473804e-05
5.9107163e-05
3.9900894e-05
1.665853e-05
7.7811243e-05
7.9972281e-05
8.5127246e-05
9.1318177e-05
9.6445914e-05
9.920326e-05
9.8840334e-05
9.4895532e-05
8.7069181e-05
7.5198603e-05
5.932953e-05
3.9974971e-05
1.6669891e-05
8.2504319e-05
8.4381435e-05
8.8965648e-05
9.4525127e-05
9.9055442e-05
0.00010126356
0.00010040147
9.6012751e-05
8.7806238e-05
7.5629138e-05
5.953598e-05
4.0043426e-05
1.6681088e-05
8.7114981e-05
8.8702718e-05
9.2705335e-05
9.7623203e-05
0.00010155591
0.00010322443
0.00010187874
9.7064187e-05
8.8495853e-05
7.6029203e-05
5.9726234e-05
4.01061e-05
1.6692087e-05
9.159493e-05
9.2898464e-05
9.6324615e-05
0.00010060169
0.00010394187
0.00010508273
0.00010327014
9.8048551e-05
8.9137195e-05
7.6398266e-05
5.9899962e-05
4.0162809e-05
1.6702851e-05
9.5906981e-05
9.693841e-05
9.980492e-05
0.00010345113
0.00010620851
0.0001068357
0.00010457388
9.8964599e-05
8.9729408e-05
7.6735752e-05
6.0056797e-05
4.0213363e-05
1.671334e-05
0.00010002394
0.00010079934
0.00010313097
0.00010616346
0.00010835181
0.00010848107
0.00010578845
9.9811238e-05
9.0271693e-05
7.7041098e-05
6.0196377e-05
4.0257571e-05
1.6723514e-05
0.00010392713
0.00010446442
0.00010629077
0.00010873218
0.00011036859
0.00011001715
0.00010691274
0.00010058763
9.0763393e-05
7.7313812e-05
6.031837e-05
4.0295261e-05
1.6733331e-05
0.00010760489
0.0001079224
0.00010927557
0.00011115237
0.00011225666
0.00011144298
0.00010794618
0.0001012933
9.1204074e-05
7.7553532e-05
6.042252e-05
4.0326295e-05
1.674275e-05
0.00011105118
0.00011116676
0.00011207961
0.00011342073
0.0001140148
0.00011275829
0.00010888875
0.00010192817
9.1593592e-05
7.776008e-05
6.0508673e-05
4.0350579e-05
1.6751732e-05
0.00011426432
0.00011419487
0.00011469982
0.00011553557
0.0001156428
0.00011396358
0.00010974103
0.00010249267
9.1932148e-05
7.7933507e-05
6.0576809e-05
4.0368084e-05
1.6760238e-05
0.00011724604
0.00011700725
0.00011713554
0.00011749669
0.00011714141
0.0001150601
0.00011050423
0.0001029877
9.2220317e-05
7.8074122e-05
6.0627067e-05
4.0378849e-05
1.6768236e-05
0.00012000062
0.00011960693
0.00011938818
0.00011930525
0.00011851232
0.00011604982
0.00011118016
0.00010341467
9.2459068e-05
7.8182514e-05
6.0659753e-05
4.038299e-05
1.6775698e-05
0.00012253424
0.00012199883
0.0001214608
0.00012096367
0.00011975808
0.00011693533
0.00011177118
0.00010377547
9.2649753e-05
7.8259549e-05
6.0675351e-05
4.03807e-05
1.67826e-05
0.00012485446
0.00012418938
0.0001233579
0.0001224754
0.00012088196
0.00011771985
0.00011228017
0.00010407244
9.2794091e-05
7.8306371e-05
6.0674514e-05
4.0372251e-05
1.6788926e-05
0.00012696987
0.00012618605
0.00012508506
0.00012384481
0.00012188793
0.00011840709
0.00011271044
0.0001043083
9.2894136e-05
7.8324373e-05
6.0658058e-05
4.0357984e-05
1.6794666e-05
0.00012888969
0.00012799713
0.00012664873
0.000125077
0.00012278047
0.00011900121
0.0001130657
0.00010448613
9.2952235e-05
7.8315181e-05
6.0626948e-05
4.0338307e-05
1.6799817e-05
0.00013062363
0.00012963142
0.00012805602
0.00012617765
0.00012356454
0.00011950671
0.00011334993
0.00010460927
9.2970984e-05
7.8280614e-05
6.0582272e-05
4.0313681e-05
1.680438e-05
0.00013218161
0.0001310981
0.00012931448
0.00012715291
0.00012424546
0.00011992838
0.0001135674
0.0001046813
9.2953181e-05
7.8222653e-05
6.0525225e-05
4.0284613e-05
1.6808367e-05
0.00013357368
0.00013240649
0.00013043199
0.00012800926
0.00012482882
0.00012027121
0.00011372251
0.00010470595
9.2901768e-05
7.8143398e-05
6.0457078e-05
4.0251641e-05
1.6811791e-05
0.00013480988
0.00013356602
0.0001314166
0.00012875338
0.00012532036
0.00012054032
0.00011381978
0.00010468705
9.2819783e-05
7.8045029e-05
6.0379153e-05
4.0215321e-05
1.6814674e-05
0.00013590013
0.00013458602
0.00013227643
0.0001293921
0.00012572596
0.00012074089
0.00011386378
0.00010462849
9.271031e-05
7.792976e-05
6.0292793e-05
4.0176216e-05
1.6817041e-05
0.00013685417
0.00013547574
0.00013301957
0.00012993227
0.00012605149
0.00012087811
0.00011385906
0.00010453412
9.2576423e-05
7.7799807e-05
6.0199334e-05
4.0134879e-05
1.6818919e-05
0.0001376815
0.00013624419
0.000133654
0.00013038067
0.00012630281
0.0001209571
0.00011381012
0.00010440774
9.242115e-05
7.7657342e-05
6.0100084e-05
4.0091847e-05
1.6820341e-05
0.00013839129
0.00013690014
0.00013418754
0.00013074401
0.00012648567
0.0001209829
0.00011372133
0.00010425306
9.2247429e-05
7.750447e-05
5.9996299e-05
4.0047625e-05
1.6821339e-05
0.0001389924
0.00013745205
0.00013462776
0.00013102881
0.00012660569
0.00012096038
0.00011359693
0.00010407364
9.2058083e-05
7.73432e-05
5.9889166e-05
4.0002687e-05
1.6821948e-05
0.00013949331
0.00013790806
0.000134982
0.00013124141
0.00012666831
0.00012089428
0.000113441
0.0001038729
9.1855797e-05
7.7175431e-05
5.9779794e-05
3.9957464e-05
1.68222e-05
0.00013990214
0.00013827595
0.00013525729
0.00013138793
0.00012667879
0.00012078912
0.00011325742
0.00010365409
9.1643104e-05
7.7002937e-05
5.9669208e-05
3.9912346e-05
1.6822131e-05
0.00014022662
0.00013856314
0.00013546037
0.00013147423
0.00012664217
0.00012064924
0.00011304991
0.00010342025
9.1422381e-05
7.6827365e-05
5.9558342e-05
3.9867684e-05
1.6821772e-05
0.00014047409
0.00013877672
0.0001355977
0.00013150593
0.00012656328
0.00012047879
0.00011282197
0.00010317427
9.1195839e-05
7.6650233e-05
5.9448044e-05
3.9823785e-05
1.6821156e-05
0.00014065154
0.0001389234
0.00013567541
0.00013148841
0.00012644673
0.00012028169
0.00011257691
0.00010291885
9.0965529e-05
7.6472925e-05
5.9339075e-05
3.978092e-05
1.6820314e-05
0.00014076556
0.00013900955
0.00013569931
0.00013142677
0.0001262969
0.00012006166
0.00011231784
0.00010265649
9.0733337e-05
7.6296699e-05
5.923211e-05
3.9739322e-05
1.6819275e-05
0.0001408224
0.00013904119
0.00013567492
0.00013132585
0.00012611792
0.0001198222
0.00011204767
0.00010238951
9.0500984e-05
7.612268e-05
5.9127739e-05
3.9699185e-05
1.6818068e-05
0.00014082792
0.00013902398
0.00013560746
0.00013119022
0.00012591373
0.0001195666
0.00011176909
0.00010212004
9.0270019e-05
7.5951852e-05
5.9026423e-05
3.9660457e-05
1.6816719e-05
0.00014078765
0.00013896325
0.0001355018
0.00013102419
0.00012568797
0.00011929793
0.00011148461
0.00010185002
9.0041821e-05
7.5785058e-05
5.8928531e-05
3.9623099e-05
1.6815248e-05
0.00014070673
0.00013886398
0.00013536255
0.00013083179
0.00012544407
0.00011901901
0.0001111965
0.00010158117
8.981758e-05
7.5622949e-05
5.8834096e-05
3.9587405e-05
1.6813677e-05
0.00014058997
0.00013873082
0.00013519396
0.00013061676
0.00012518521
0.00011873246
0.00011090681
0.00010131503
8.9598331e-05
7.5466115e-05
5.8743463e-05
3.9553505e-05
1.6812025e-05
0.00014044184
0.00013856808
0.00013500001
0.00013038257
0.00012491432
0.00011844065
0.00011061739
0.00010105292
8.9384864e-05
7.5314679e-05
5.8657067e-05
3.9521489e-05
1.6810313e-05
0.00014026646
0.00013837975
0.00013478437
0.00013013246
0.00012463408
0.00011814575
0.00011032989
0.00010079598
8.91778e-05
7.5169327e-05
5.8575044e-05
3.9491401e-05
1.6808559e-05
0.00014006764
0.00013816952
0.00013455043
0.00012986937
0.00012434695
0.00011784969
0.00011004575
0.00010054517
8.8977664e-05
7.5030503e-05
5.8497509e-05
3.9463267e-05
1.6806782e-05
0.00013984891
0.00013794078
0.00013430131
0.00012959603
0.00012405518
0.00011755421
0.00010976617
0.00010030111
8.8785234e-05
7.4898435e-05
5.8424529e-05
3.9437093e-05
1.6804995e-05
0.00013961351
0.00013769669
0.00013403991
0.00012931492
0.00012376078
0.00011726084
0.00010949218
0.00010006474
8.8600957e-05
7.4773286e-05
5.835613e-05
3.9412862e-05
1.6803211e-05
0.00013936442
0.0001374401
0.00013376884
0.00012902831
0.00012346559
0.0001169709
0.00010922475
9.9836825e-05
8.8425166e-05
7.4655161e-05
5.8292303e-05
3.9390546e-05
1.6801441e-05
0.00013910439
0.00013717369
0.00013349053
0.00012873827
0.0001231712
0.00011668556
0.00010896495
9.9617912e-05
8.8258111e-05
7.4544114e-05
5.8233011e-05
3.9370104e-05
1.6799697e-05
0.00013883594
0.00013689986
0.00013320717
0.00012844661
0.00012287902
0.00011640613
0.00010871358
9.9408445e-05
8.8099969e-05
7.4440151e-05
5.8178193e-05
3.9351486e-05
1.6797985e-05
0.00013856135
0.0001366208
0.00013292069
0.00012815498
0.00012259057
0.00011613368
0.00010847133
9.9208773e-05
8.7950846e-05
7.4343238e-05
5.8127763e-05
3.9334636e-05
1.6796314e-05
0.00013828267
0.00013633846
0.00013263292
0.00012786506
0.00012230718
0.00011586914
0.00010823874
9.9019153e-05
8.7810787e-05
7.4253296e-05
5.8081616e-05
3.931949e-05
1.6794691e-05
0.00013800178
0.00013605469
0.0001323456
0.00012757835
0.00012202997
0.00011561327
0.00010801627
9.883976e-05
8.7679775e-05
7.4170212e-05
5.8039627e-05
3.9305978e-05
1.6793121e-05
0.00013772044
0.00013577122
0.0001320603
0.00012729615
0.00012175996
0.00011536675
0.00010780426
9.8670687e-05
8.7557734e-05
7.4093834e-05
5.8001654e-05
3.9294024e-05
1.679161e-05
0.00013744023
0.00013548956
0.00013177843
0.00012701964
0.00012149799
0.0001151301
0.00010760295
9.851195e-05
8.7444538e-05
7.4023978e-05
5.7967539e-05
3.9283547e-05
1.679016e-05
0.00013716259
0.00013521113
0.00013150123
0.00012674982
0.00012124479
0.00011490376
0.0001074125
9.8363496e-05
8.7340008e-05
7.3960433e-05
5.793711e-05
3.9274464e-05
1.6788775e-05
0.00013688881
0.00013493714
0.00013122979
0.00012648757
0.00012100096
0.00011468802
0.00010723297
9.822521e-05
8.7243929e-05
7.3902963e-05
5.7910187e-05
3.9266689e-05
1.6787456e-05
0.00013662003
0.00013466869
0.00013096507
0.00012623364
0.00012076698
0.00011448312
0.00010706436
9.809692e-05
8.7156046e-05
7.3851314e-05
5.7886583e-05
3.9260136e-05
1.6786205e-05
0.00013635724
0.00013440672
0.00013070789
0.00012598864
0.00012054324
0.00011428919
0.0001069066
9.7978411e-05
8.7076081e-05
7.3805222e-05
5.7866106e-05
3.9254719e-05
1.6785022e-05
0.00013610131
0.00013415205
0.00013045896
0.0001257531
0.00012033002
0.00011410629
0.00010675954
9.7869429e-05
8.7003731e-05
7.3764411e-05
5.7848568e-05
3.9250355e-05
1.6783907e-05
0.000135853
0.00013390538
0.00013021885
0.00012552741
0.00012012751
0.00011393441
0.00010662302
9.7769688e-05
8.693868e-05
7.3728604e-05
5.783378e-05
3.9246963e-05
1.678286e-05
0.00013561293
0.00013366731
0.00012998805
0.00012531191
0.00011993584
0.00011377347
0.00010649681
9.7678879e-05
8.6880601e-05
7.3697522e-05
5.7821557e-05
3.9244466e-05
1.678188e-05
0.00013538164
0.00013343833
0.00012976696
0.00012510682
0.00011975507
0.00011362335
0.00010638066
9.759667e-05
8.682916e-05
7.3670886e-05
5.7811719e-05
3.9242789e-05
1.6780966e-05
0.00013515957
0.00013321883
0.00012955589
0.00012491231
0.00011958518
0.00011348389
0.00010627427
9.7522718e-05
8.6784017e-05
7.3648422e-05
5.7804091e-05
3.9241862e-05
1.6780117e-05
0.00013494707
0.00013300914
0.00012935505
0.00012472847
0.0001194261
0.00011335488
0.00010617733
9.7456663e-05
8.6744832e-05
7.3629858e-05
5.7798502e-05
3.9241617e-05
1.6779331e-05
0.00013474442
0.00013280948
0.0001291646
0.00012455533
0.00011927773
0.00011323606
0.00010608952
9.7398136e-05
8.6711262e-05
7.3614927e-05
5.7794788e-05
3.9241989e-05
1.6778607e-05
0.00013455181
0.00013262004
0.00012898464
0.00012439286
0.0001191399
0.00011312716
0.00010601046
9.7346763e-05
8.6682967e-05
7.3603368e-05
5.779279e-05
3.9242915e-05
1.6777943e-05
0.00013436938
0.00013244091
0.00012881519
0.00012424098
0.0001190124
0.00011302788
0.00010593979
9.7302162e-05
8.6659608e-05
7.3594924e-05
5.7792353e-05
3.9244338e-05
1.6777337e-05
0.00013419719
0.00013227212
0.00012865622
0.00012409957
0.00011889501
0.00011293787
0.00010587714
9.7263953e-05
8.6640853e-05
7.3589348e-05
5.7793332e-05
3.9246201e-05
1.6776787e-05
0.00013403526
0.00013211367
0.00012850765
0.00012396844
0.00011878744
0.0001128568
0.0001058221
9.7231755e-05
8.6626375e-05
7.35864e-05
5.7795585e-05
3.9248451e-05
1.677629e-05
0.00013388355
0.00013196549
0.00012836937
0.0001238474
0.0001186894
0.00011278429
0.00010577429
9.7205188e-05
8.6615854e-05
7.3585848e-05
5.7798979e-05
3.9251039e-05
1.6775845e-05
0.00013374198
0.00013182748
0.0001282412
0.00012373619
0.00011860057
0.00011271996
0.00010573331
9.718388e-05
8.660898e-05
7.358747e-05
5.7803388e-05
3.9253919e-05
1.6775449e-05
0.0001336104
0.00013169947
0.00012812294
0.00012363455
0.00011852061
0.00011266343
0.00010569875
9.7167463e-05
8.6605453e-05
7.3591056e-05
5.7808692e-05
3.9257049e-05
1.67751e-05
0.00013348866
0.00013158127
0.00012801435
0.00012354217
0.00011844915
0.0001126143
0.00010567023
9.7155579e-05
8.6604982e-05
7.3596402e-05
5.781478e-05
3.9260387e-05
1.6774795e-05
0.00013337653
0.00013147266
0.00012791517
0.00012345874
0.00011838582
0.00011257217
0.00010564734
9.7147875e-05
8.6607287e-05
7.3603315e-05
5.7821543e-05
3.9263897e-05
1.6774532e-05
0.00013327378
0.00013137337
0.0001278251
0.0001233839
0.00011833023
0.00011253663
0.0001056297
9.7144007e-05
8.6612097e-05
7.3611612e-05
5.7828884e-05
3.9267544e-05
1.6774309e-05
0.00013318013
0.00013128312
0.0001277438
0.00012331729
0.00011828199
0.00011250728
0.00010561692
9.7143641e-05
8.6619151e-05
7.3621115e-05
5.7836706e-05
3.9271295e-05
1.6774123e-05
0.00013309527
0.00013120158
0.00012767094
0.00012325853
0.00011824069
0.0001124837
0.00010560862
9.7146449e-05
8.6628197e-05
7.3631658e-05
5.7844919e-05
3.9275118e-05
1.6773973e-05
0.00013301887
0.00013112841
0.00012760614
0.00012320723
0.00011820592
0.0001124655
0.00010560442
9.7152116e-05
8.6638995e-05
7.364308e-05
5.785344e-05
3.9278985e-05
1.6773855e-05
0.00013295056
0.00013106324
0.00012754903
0.00012316297
0.00011817727
0.00011245225
0.00010560395
9.7160335e-05
8.6651313e-05
7.3655229e-05
5.7862187e-05
3.9282868e-05
1.6773767e-05
0.00013288999
0.00013100569
0.0001274992
0.00012312535
0.00011815431
0.00011244358
0.00010560687
9.717081e-05
8.666493e-05
7.3667963e-05
5.7871086e-05
3.9286743e-05
1.6773707e-05
0.00013283675
0.00013095537
0.00012745625
0.00012309394
0.00011813663
0.00011243909
0.00010561282
9.7183261e-05
8.6679639e-05
7.3681148e-05
5.7880069e-05
3.9290584e-05
1.6773672e-05
0.00013279046
0.00013091188
0.00012741976
0.00012306834
0.00011812383
0.0001124384
0.00010562148
9.7197421e-05
8.6695245e-05
7.369466e-05
5.7889072e-05
3.9294373e-05
1.677366e-05
0.00013275071
0.00013087481
0.00012738933
0.00012304814
0.00011811551
0.00011244114
0.00010563254
9.7213041e-05
8.6711569e-05
7.3708385e-05
5.7898038e-05
3.929809e-05
1.6773669e-05
0.00013271711
0.00013084376
0.00012736456
0.00012303294
0.0001181113
0.00011244698
0.00010564569
9.7229889e-05
8.6728444e-05
7.3722224e-05
5.7906918e-05
3.9301721e-05
1.6773696e-05
0.00013268927
0.00013081835
0.00012734506
0.00012302235
0.00011811083
0.00011245559
0.00010566067
9.7247752e-05
8.6745724e-05
7.3736086e-05
5.791567e-05
3.9305252e-05
1.6773739e-05
0.00013266682
0.00013079819
0.00012733044
0.00012301601
0.00011811375
0.00011246665
0.00010567721
9.7266436e-05
8.6763273e-05
7.3749892e-05
5.7924258e-05
3.9308675e-05
1.6773797e-05
0.00013264939
0.00013078293
0.00012732035
0.00012301357
0.00011811974
0.00011247989
0.0001056951
9.7285766e-05
8.6780975e-05
7.3763575e-05
5.7932651e-05
3.9311983e-05
1.6773868e-05
0.00013263663
0.0001307722
0.00012731444
0.00012301468
0.00011812849
0.00011249505
0.00010571411
9.7305583e-05
8.6798724e-05
7.3777077e-05
5.7940828e-05
3.9315169e-05
1.677395e-05
0.0001326282
0.00013076567
0.00012731236
0.00012301904
0.00011813972
0.00011251186
0.00010573405
9.7325743e-05
8.6816428e-05
7.3790348e-05
5.7948767e-05
3.9318232e-05
1.6774043e-05
0.00013262379
0.00013076303
0.00012731382
0.00012302633
0.00011815315
0.00011253012
0.00010575473
9.7346116e-05
8.6834003e-05
7.3803344e-05
5.7956451e-05
3.9321155e-05
1.6774144e-05
0.00013262308
0.00013076395
0.0001273185
0.00012303629
0.00011816853
0.00011254958
0.00010577599
9.7366581e-05
8.6851373e-05
7.3816024e-05
5.796386e-05
3.9323919e-05
1.6774253e-05
0.00013262577
0.00013076814
0.0001273261
0.00012304862
0.00011818561
0.00011257006
0.00010579766
9.7387023e-05
8.6868467e-05
7.3828347e-05
5.7970962e-05
3.9326537e-05
1.6774368e-05
0.00013263156
0.00013077529
0.00012733634
0.00012306305
0.00011820414
0.00011259135
0.0001058196
9.7407338e-05
8.6885216e-05
7.3840276e-05
5.7977743e-05
3.9329013e-05
1.6774488e-05
0.00013264016
0.00013078513
0.00012734893
0.00012307933
0.00011822391
0.00011261326
0.00010584166
9.7427421e-05
8.6901553e-05
7.3851757e-05
5.798421e-05
3.9331348e-05
1.6774613e-05
0.00013265128
0.00013079736
0.00012736361
0.00012309721
0.00011824468
0.00011263563
0.0001058637
9.7447178e-05
8.6917416e-05
7.3862771e-05
5.7990354e-05
3.9333542e-05
1.677474e-05
0.00013266463
0.0001308117
0.00012738009
0.00012311643
0.00011826626
0.00011265826
0.00010588559
9.7466513e-05
8.6932732e-05
7.3873308e-05
5.7996168e-05
3.9335596e-05
1.677487e-05
0.00013267992
0.00013082786
0.00012739811
0.00012313675
0.00011828842
0.000112681
0.00010590721
9.7485334e-05
8.6947472e-05
7.3883346e-05
5.8001648e-05
3.9337512e-05
1.6775001e-05
0.00013269687
0.00013084558
0.00012741743
0.00012315794
0.00011831099
0.00011270369
0.00010592845
9.7503566e-05
8.6961606e-05
7.3892869e-05
5.8006791e-05
3.9339291e-05
1.6775132e-05
0.00013271522
0.0001308646
0.00012743778
0.00012317979
0.00011833376
0.00011272619
0.00010594917
9.7521165e-05
8.6975102e-05
7.3901867e-05
5.8011598e-05
3.9340936e-05
1.6775263e-05
0.00013273471
0.00013088465
0.00012745893
0.00012320209
0.00011835658
0.00011274836
0.00010596932
9.7538079e-05
8.6987936e-05
7.3910334e-05
5.8016072e-05
3.934245e-05
1.6775392e-05
0.00013275507
0.00013090549
0.00012748065
0.00012322463
0.00011837927
0.00011277008
0.00010598883
9.7554269e-05
8.7000091e-05
7.3918268e-05
5.8020215e-05
3.9343836e-05
1.677552e-05
0.00013277607
0.0001309269
0.00012750274
0.00012324722
0.00011840169
0.00011279126
0.00010600763
9.7569701e-05
8.7011554e-05
7.3925669e-05
5.8024035e-05
3.9345098e-05
1.6775645e-05
0.0001327975
0.00013094865
0.00012752499
0.00012326972
0.00011842372
0.00011281183
0.00010602567
9.7584351e-05
8.7022319e-05
7.3932541e-05
5.8027538e-05
3.9346239e-05
1.6775767e-05
0.00013281914
0.00013097055
0.00012754723
0.00012329197
0.00011844526
0.0001128317
0.0001060429
9.7598198e-05
8.7032385e-05
7.3938892e-05
5.8030732e-05
3.9347263e-05
1.6775885e-05
0.00013284082
0.00013099243
0.0001275693
0.00012331385
0.00011846622
0.00011285082
0.00010605931
9.7611233e-05
8.7041754e-05
7.394473e-05
5.8033624e-05
3.9348175e-05
1.6775999e-05
0.00013286238
0.00013101414
0.00012759109
0.00012333527
0.00011848652
0.00011286914
0.00010607485
9.7623451e-05
8.7050434e-05
7.3950067e-05
5.8036225e-05
3.9348977e-05
1.6776108e-05
0.0001328837
0.00013103557
0.00012761247
0.00012335612
0.0001185061
0.00011288662
0.00010608953
9.7634856e-05
8.7058436e-05
7.3954916e-05
5.8038545e-05
3.9349675e-05
1.6776212e-05
0.00013290468
0.00013105662
0.00012763338
0.00012337636
0.00011852492
0.00011290325
0.00010610334
9.7645459e-05
8.7065778e-05
7.3959296e-05
5.8040596e-05
3.9350274e-05
1.6776311e-05
0.00013292525
0.00013107721
0.00012765375
0.00012339593
0.00011854295
0.00011291902
0.00010611628
9.7655281e-05
8.7072486e-05
7.3963228e-05
5.8042393e-05
3.935078e-05
1.6776405e-05
0.00013294537
0.00013109732
0.00012767354
0.0001234148
0.00011856019
0.00011293394
0.00010612839
9.7664351e-05
8.707859e-05
7.3966739e-05
5.8043954e-05
3.9351201e-05
1.6776493e-05
0.00013296502
0.00013111691
0.00012769273
0.00012343298
0.00011857664
0.00011294802
0.00010613969
9.7672706e-05
8.7084125e-05
7.3969858e-05
5.8045299e-05
3.9351544e-05
1.6776576e-05
0.00013298419
0.00013113598
0.00012771132
0.00012345047
0.00011859231
0.00011296131
0.00010615022
9.7680388e-05
8.7089133e-05
7.3972618e-05
5.8046448e-05
3.935182e-05
1.6776654e-05
0.00013300289
0.00013115453
0.00012772932
0.00012346727
0.00011860724
0.00011297382
0.00010616003
9.7687444e-05
8.7093655e-05
7.3975053e-05
5.8047423e-05
3.9352038e-05
1.6776727e-05
0.00013302112
0.00013117258
0.00012774674