/*--------------------------------*- C++ -*----------------------------------*\
| =========                 |                                                 |
| \\      /  F ield         | OpenFOAM: The Open Source CFD Toolbox           |
|  \\    /   O peration     | Version:  2506                                  |
|   \\  /    A nd           | Website:  www.openfoam.com                      |
|    \\/     M anipulation  |                                                 |
\*---------------------------------------------------------------------------*/
FoamFile
{
    version     2.0;
    format      ascii;
    arch        "LSB;label=32;scalar=64";
    class       surfaceScalarField;
    location    "29000/water";
    object      phi;
}
// * * * * * * * * * * * * * * * * * * * * * * * * * * * * * * * * * * * * * //

dimensions      [1 0 -1 0 0 0 0];

oriented        oriented;

internalField   nonuniform List<scalar> 
4987
(
-6.9167736e-06
0.00085760419
-2.7656569e-05
0.0024926737
-6.1431121e-05
0.0040117068
-0.0001075903
0.0054211695
-0.00016565319
0.0067272392
-0.00023525167
0.0079357375
-0.00031606519
0.0090521266
-0.00040763483
0.010081416
-0.00050867084
0.011027654
-0.00061447105
0.011892066
-0.00070641237
0.012665127
-0.00069017742
0.01327532
0.013255156
-6.4252098e-06
0.00086402939
-2.4701717e-05
0.0025109502
-5.3973207e-05
0.0040409782
-9.3433184e-05
0.0054606295
-0.00014227852
0.0067760845
-0.00019970621
0.0079931652
-0.00026484255
0.0091172629
-0.00033648012
0.010153054
-0.00041221923
0.011103393
-0.0004856843
0.011965531
-0.00053558126
0.012715024
-0.00047144624
0.013211185
0.01278371
-6.163969e-06
0.00087019336
-2.380905e-05
0.0025285953
-5.2164898e-05
0.0040693341
-9.0528704e-05
0.0054989933
-0.00013822172
0.0068237775
-0.00019455674
0.0080495002
-0.00025870612
0.0091814123
-0.00032929751
0.010223645
-0.00040329175
0.011177387
-0.00047276141
0.012035
-0.00051220841
0.012754471
-0.00042242593
0.013121403
0.012361284
-6.1054147e-06
0.00087629878
-2.3924376e-05
0.0025464143
-5.2620538e-05
0.0040980303
-9.1395558e-05
0.0055377683
-0.00013947504
0.006871857
-0.00019604176
0.0081060669
-0.00026004543
0.009245416
-0.00032969289
0.010293293
-0.00040116834
0.011248863
-0.00046497904
0.012098811
-0.00049117541
0.012780667
-0.00037835999
0.013008587
0.011982924
-5.9919785e-06
0.00088229076
-2.3432324e-05
0.0025638546
-5.1502782e-05
0.0041261007
-8.9417765e-05
0.0055756833
-0.0001363976
0.0069188369
-0.00019157934
0.0081612487
-0.00025377584
0.0093076125
-0.0003208868
0.010360404
-0.00038849227
0.011316468
-0.0004456482
0.012155967
-0.00045837524
0.012793394
-0.00033102689
0.012881239
0.011651897
-5.8197986e-06
0.00088811056
-2.2720415e-05
0.0025807553
-4.9911333e-05
0.0041532916
-8.6629802e-05
0.0056124017
-0.00013209822
0.0069643053
-0.00018540983
0.0082145603
-0.00024524284
0.0093674455
-0.00030921061
0.010424371
-0.00037232044
0.011379578
-0.00042207813
0.012205725
-0.00042081904
0.012792135
-0.00028517409
0.012745594
0.011366723
-5.6148952e-06
0.00089372545
-2.1923414e-05
0.0025970638
-4.8158186e-05
0.0041795264
-8.35701e-05
0.0056478136
-0.00012737381
0.007008109
-0.00017860877
0.0082657952
-0.00023581604
0.0094246528
-0.00029633568
0.010484891
-0.0003545854
0.011437828
-0.00039630862
0.012247448
-0.00038067559
0.012776502
-0.00024201049
0.012606929
0.011124713
-5.4046947e-06
0.00089913014
-2.1106786e-05
0.0026127659
-4.6361915e-05
0.0042047815
-8.0433154e-05
0.0056818849
-0.00012252438
0.0070502002
-0.00017161842
0.0083148893
-0.0002261212
0.0094791555
-0.00028309872
0.010541869
-0.00033629459
0.011491024
-0.00036936757
0.012280521
-0.00033930313
0.012746438
-0.00020218079
0.012469807
0.010922532
-5.2040372e-06
0.00090433418
-2.0322449e-05
0.0026278843
-4.4632486e-05
0.0042290916
-7.7407183e-05
0.0057146596
-0.000117836
0.007090629
-0.00016484161
0.0083618949
-0.00021669175
0.0095310057
-0.00027015443
0.010595331
-0.00031814583
0.011539015
-0.00034189245
0.012304267
-0.00029797663
0.012702522
-0.00016629141
0.012338121
0.010756241
-5.0193755e-06
0.00090935356
-1.9599432e-05
0.0026424643
-4.3036007e-05
0.0042525281
-7.4608171e-05
0.0057462317
-0.00011348606
0.0071295069
-0.00015852683
0.0084069356
-0.0002078498
0.0095803287
-0.00025787593
0.010645357
-0.00030047882
0.011581618
-0.00031421626
0.012318005
-0.00025799659
0.012646302
-0.00013488814
0.012215013
0.010621352
-4.8544123e-06
0.00091420797
-1.8953518e-05
0.0026565634
-4.1607992e-05
0.0042751826
-7.2098327e-05
0.0057767221
-0.00010956978
0.0071669784
-0.00015280648
0.0084501723
-0.00019976083
0.009627283
-0.00024643025
0.010692027
-0.00028338283
0.01161857
-0.00028657101
0.012321193
-0.00022065197
0.012580383
-0.00010831398
0.012102675
0.010513038
-4.7104908e-06
0.00091891846
-1.8389641e-05
0.0026702426
-4.0359025e-05
0.004297152
-6.9895774e-05
0.0058062588
-0.00010611414
0.0072031967
-0.00014771517
0.0084917734
-0.00019245611
0.0096720239
-0.00023580475
0.010735375
-0.00026674607
0.011649512
-0.00025920371
0.012313651
-0.00018698909
0.012508168
-8.6549236e-05
0.012002235
0.010426489
-4.5864894e-06
0.00092350495
-1.7903118e-05
0.0026835592
-3.9278552e-05
0.0043185274
-6.7981782e-05
0.0058349621
-0.00010308929
0.0072383042
-0.0001432058
0.0085318899
-0.00018585427
0.0097146724
-0.00022583645
0.010775358
-0.0002503233
0.011673999
-0.00023244679
0.012295774
-0.00015760689
0.012433329
-6.9195209e-05
0.011913823
0.010357294
-4.4797101e-06
0.00092798466
-1.7483378e-05
0.0026965629
-3.8343222e-05
0.0043393873
-6.6315361e-05
0.0058629342
-0.00010043089
0.0072724198
-0.00013918123
0.0085706402
-0.00017980338
0.0097552946
-0.00021627053
0.010811825
-0.0002338457
0.011691574
-0.00020673154
0.01226866
-0.0001326094
0.012359206
-5.5603112e-05
0.011836817
0.010301691
-4.3869484e-06
0.00093237161
-1.7117944e-05
0.0027092939
-3.7525518e-05
0.0043597948
-6.4848148e-05
0.0058902568
-9.8062773e-05
0.0073056344
-0.00013552609
0.0086081035
-0.00017412332
0.0097938918
-0.00020682318
0.010844525
-0.00021713162
0.011701882
-0.00018252415
0.012234052
-0.00011170489
0.012288387
-4.5044656e-05
0.011770157
0.010256646
-4.3051909e-06
0.0009366768
-1.679506e-05
0.0027217838
-3.6799451e-05
0.0043797992
-6.3534223e-05
0.0059169916
-9.5911855e-05
0.007338012
-0.0001321276
0.0086443193
-0.00016863371
0.0098303979
-0.0001972305
0.010873121
-0.00020015793
0.01170481
-0.0001602209
0.012194115
-9.4372482e-05
0.012222539
-3.6838818e-05
0.011712623
0.010219807
-4.231915e-06
0.00094090871
-1.6504851e-05
0.0027340567
-3.6143084e-05
0.0043994375
-6.2334437e-05
0.005943183
-9.3914665e-05
0.0073695922
-0.00012888455
0.0086792892
-0.00016316714
0.0098646805
-0.00018728235
0.010897237
-0.00018307194
0.011700599
-0.00014006424
0.012151108
-8.0017928e-05
0.012162492
-3.0412511e-05
0.011663018
0.010189395
-4.1651418e-06
0.00094507385
-1.6239539e-05
0.0027461311
-3.5538992e-05
0.0044187369
-6.1217189e-05
0.0059688612
-9.2018424e-05
0.0074003935
-0.00012570858
0.0087129793
-0.00015757395
0.0098965459
-0.00017684648
0.010916509
-0.00016614712
0.0116899
-0.0001221172
0.012107078
-6.807824e-05
0.012108453
-2.5313025e-05
0.011620253
0.010164082
-4.1033746e-06
0.00094917723
-1.5993201e-05
0.0027580209
-3.4973726e-05
0.0044377174
-6.0157434e-05
0.0059940449
-9.0179432e-05
0.0074304155
-0.00012252186
0.0087453217
-0.00015172469
0.0099257487
-0.00016588459
0.010930669
-0.00014970629
0.011673722
-0.00010629217
0.012063664
-5.807152e-05
0.012060233
-2.119692e-05
0.011583378
0.010142885
-4.0454971e-06
0.00095322273
-1.5761374e-05
0.0027697368
-3.4436919e-05
0.004456393
-5.9135102e-05
0.006018743
-8.8360527e-05
0.0074596409
-0.00011925379
0.008776215
-0.00014551369
0.0099520086
-0.00015445694
0.010939612
-0.00013404493
0.01165331
-9.2406388e-05
0.012022025
-4.9608154e-05
0.012017435
-1.7811014e-05
0.011551581
0.010125074
-3.9906706e-06
0.0009572134
-1.5540649e-05
0.0027812868
-3.3920384e-05
0.0044747727
-5.8133471e-05
0.0060429561
-8.6528476e-05
0.0074880359
-0.00011583835
0.0088055249
-0.00013886507
0.0099750353
-0.00014270996
0.010943457
-0.0001193799
0.01162998
-8.0236228e-05
0.011982881
-4.2382124e-05
0.01197958
-1.4972586e-05
0.011524171
0.010110101
-3.9382461e-06
0.00096115164
-1.5328322e-05
0.0027926768
-3.3417324e-05
0.0044928617
-5.7137748e-05
0.0060666766
-8.4651726e-05
0.0075155499
-0.00011221299
0.0088330861
-0.00013174064
0.009994563
-0.00013084741
0.010942564
-0.00010583199
0.011604964
-6.9555655e-05
0.011946605
-3.6155818e-05
0.011946181
-1.255151e-05
0.011500567
0.01009755
-3.8876949e-06
0.00096503934
-1.512212e-05
0.0028039113
-3.2921708e-05
0.0045106613
-5.613392e-05
0.0060898888
-8.2698664e-05
0.0075421146
-0.00010831969
0.0088587072
-0.00012414735
0.010010391
-0.00011909198
0.010937509
-9.3435697e-05
0.011579308
-6.0156888e-05
0.011913326
-3.0745122e-05
0.011916769
-1.0455501e-05
0.011480277
0.010087094
-3.838557e-06
0.00096887789
-1.4919993e-05
0.0028149927
-3.2427784e-05
0.0045281691
-5.510785e-05
0.0061125688
-8.0636494e-05
0.0075676432
-0.00010410814
0.0088821788
-0.00011614034
0.010022423
-0.00010764918
0.010929017
-8.2162717e-05
0.011553821
-5.1858104e-05
0.011883022
-2.6007008e-05
0.011890918
-8.6187514e-06
0.011462889
0.010078476
-3.7904019e-06
0.0009726683
-1.4719951e-05
0.0028259223
-3.1929704e-05
0.0045453788
-5.4044564e-05
0.0061346837
-7.8430836e-05
0.0075920295
-9.9540733e-05
0.0089032887
-0.00010781835
0.0100307
-9.6682479e-05
0.010917882
-7.1946843e-05
0.011529086
-4.4503958e-05
0.011855579
-2.1829745e-05
0.011868244
-6.9937076e-06
0.011448053
0.010071482
-3.7428001e-06
0.0009764111
-1.4519945e-05
0.0028366994
-3.1421227e-05
0.0045622801
-5.2927708e-05
0.0061561902
-7.6046257e-05
0.0076151481
-9.4598626e-05
0.0089218411
-9.9310963e-05
0.010035413
-8.6303357e-05
0.010904874
-6.2703778e-05
0.011505486
-3.796313e-05
0.011830838
-1.8125325e-05
0.011848406
-5.5452893e-06
0.011435473
0.010065937
-3.6952978e-06
0.00098010639
-1.4317763e-05
0.0028473219
-3.0895462e-05
0.0045788578
-5.1739149e-05
0.0061770339
-7.34478e-05
0.0076368567
-8.9287317e-05
0.0089376806
-9.0760482e-05
0.010036886
-7.6573763e-05
0.010890687
-5.4344021e-05
0.011483256
-3.212505e-05
0.011808619
-1.4823682e-05
0.011831104
-4.2469975e-06
0.011424896
0.01006169
-3.6473965e-06
0.00098375379
-1.4110936e-05
0.0028577854
-3.0344642e-05
0.0045950915
-5.0458785e-05
0.006197148
-7.0603636e-05
0.0076570016
-8.3639735e-05
0.0089507167
-8.2303602e-05
0.01003555
-6.7515805e-05
0.010875899
-4.6780168e-05
0.011462521
-2.6896732e-05
0.011788736
-1.1868359e-05
0.011816076
-3.0782563e-06
0.011416106
0.010058611
-3.5985288e-06
0.00098735232
-1.3896642e-05
0.0028680835
-2.9759896e-05
0.0046109548
-4.9064619e-05
0.0062164527
-6.7488583e-05
0.0076754255
-7.7715072e-05
0.0089609432
-7.4057337e-05
0.010031892
-5.912331e-05
0.010860965
-3.9930394e-05
0.011443328
-2.2199855e-05
0.011771005
-9.2132835e-06
0.011803089
-2.0226654e-06
0.011408916
0.010056589
-3.5480257e-06
0.00099090034
-1.3671564e-05
0.0028782071
-2.9130949e-05
0.0046264142
-4.7533111e-05
0.0062348549
-6.4087911e-05
0.0076919803
-7.1592547e-05
0.0089684478
-6.6111092e-05
0.010026411
-5.1371384e-05
0.010846226
-3.3718975e-05
0.011425675
-1.7967097e-05
0.011755253
-6.8191923e-06
0.011791942
-1.0665722e-06
0.011403163
0.010055522
-3.4950998e-06
0.00099439544
-1.343182e-05
0.0028881438
-2.8446032e-05
0.0046414284
-4.5840365e-05
0.0062522492
-6.0401302e-05
0.0077065412
-6.536229e-05
0.0089734088
-5.8525784e-05
0.010019574
-4.4224381e-05
0.010831924
-2.8076923e-05
0.011409528
-1.414003e-05
0.011741316
-4.6491658e-06
0.011782451
-1.6922649e-07
0.011398683
0.010055353
-3.4388798e-06
0.00099783432
-1.3173132e-05
0.002897878
-2.769244e-05
0.0046559477
-4.3964997e-05
0.0062685218
-5.6447132e-05
0.0077190234
-5.9117564e-05
0.0089760792
-5.1340498e-05
0.010011797
-3.7645565e-05
0.010818229
-2.294747e-05
0.01139483
-1.0674766e-05
0.011729044
-2.681095e-06
0.011774457
6.6545202e-07
0.011395337
0.010056018
-3.3783148e-06
0.0010012126
-1.2890438e-05
0.0029073902
-2.6855995e-05
0.0046699132
-4.1889312e-05
0.0062835551
-5.2260839e-05
0.0077293949
-5.2943429e-05
0.0089767618
-4.4574253e-05
0.010003428
-3.1595994e-05
0.010805251
-1.8279606e-05
0.011381514
-7.5311696e-06
0.011718295
-8.8302129e-07
0.011767809
1.4049877e-06
0.011393049
0.010057423
-3.3120984e-06
0.0010045247
-1.2577618e-05
0.0029166557
-2.5921008e-05
0.0046832566
-3.9601336e-05
0.0062972354
-4.7891276e-05
0.0077376848
-4.6909588e-05
0.0089757801
-3.8229288e-05
0.0099947476
-2.6033927e-05
0.010793056
-1.4024269e-05
0.011369504
-4.6695337e-06
0.011708941
7.7466779e-07
0.011762365
2.066737e-06
0.011391756
0.01005949
-3.2386928e-06
0.0010077634
-1.2227714e-05
0.0029256447
-2.4871688e-05
0.0046959006
-3.7098721e-05
0.0063094625
-4.3397669e-05
0.0077439838
-4.1070816e-05
0.0089734533
-3.2299145e-05
0.0099859759
-2.0920728e-05
0.010781677
-1.0139944e-05
0.011358723
-2.0591247e-06
0.01170086
2.2780036e-06
0.011758028
2.6638808e-06
0.011391371
0.010062154
-3.1562772e-06
0.0010109197
-1.1832823e-05
0.0029343212
-2.369304e-05
0.0047077608
-3.4390258e-05
0.0063201597
-3.8842821e-05
0.0077484364
-3.5466334e-05
0.0089700768
-2.6770491e-05
0.00997728
-1.6218816e-05
0.010771126
-6.5853474e-06
0.01134909
3.4751641e-07
0.011693927
3.6322524e-06
0.011754743
3.2023376e-06
0.011391801
0.010065356
-3.0627119e-06
0.0010139824
-1.1384179e-05
0.0029426427
-2.2372404e-05
0.0047187491
-3.1496504e-05
0.0063292838
-3.4287361e-05
0.0077512272
-3.0121869e-05
0.0089659113
-2.1625943e-05
0.0099687841
-1.1894067e-05
0.010761394
-3.3303342e-06
0.011340526
2.5510802e-06
0.011688045
4.8616612e-06
0.011752432
3.689836e-06
0.011392972
0.010069046
-2.955534e-06
0.001016938
-1.0872489e-05
0.0029505597
-2.0901464e-05
0.004728778
-2.844895e-05
0.0063368313
-2.9785803e-05
0.0077525641
-2.5052612e-05
0.0089611781
-1.6845486e-05
0.009960577
-7.9112392e-06
0.01075246
-3.2674938e-07
0.011332941
4.5433853e-06
0.011683175
5.975351e-06
0.011751
4.13132e-06
0.011394816
0.010073177
-2.8319478e-06
0.0010197699
-1.0288359e-05
0.0029580161
-1.9277899e-05
0.0047377676
-2.5286906e-05
0.0063428403
-2.5383503e-05
0.0077526607
-2.026501e-05
0.0089560596
-1.2407974e-05
0.00995272
-4.2418922e-06
0.010744293
2.4380166e-06
0.011326262
6.3569982e-06
0.011679256
6.9857704e-06
0.011750371
4.5313261e-06
0.011397271
0.010077709
-2.6889073e-06
0.0010224588
-9.6232128e-06
0.0029649504
-1.7507133e-05
0.0047456515
-2.2054217e-05
0.0063473874
-2.1116479e-05
0.0077517229
-1.5759131e-05
0.0089507023
-8.289683e-06
0.0099452505
-8.4671791e-07
0.01073685
4.9536718e-06
0.011320461
8.0064847e-06
0.011676204
7.9030762e-06
0.011750475
4.8939937e-06
0.01140028
0.010082603
-2.5232506e-06
0.0010249821
-8.8703656e-06
0.0029712975
-1.5602914e-05
0.004752384
-1.8795226e-05
0.0063505797
-1.7011664e-05
0.0077499394
-1.1530733e-05
0.0089452213
-4.4700313e-06
0.0099381898
2.290949e-06
0.010730089
7.249496e-06
0.011315503
9.5068728e-06
0.011673946
8.7354321e-06
0.011751246
5.2223304e-06
0.011403793
0.010087825
-2.3319751e-06
0.001027314
-8.0264262e-06
0.0029769919
-1.3587011e-05
0.0047579446
-1.5551704e-05
0.0063525444
-1.30878e-05
0.0077474755
-7.5700563e-06
0.0089397036
-9.1687174e-07
0.0099315366
5.1653299e-06
0.010724007
9.3448461e-06
0.011311323
1.0871948e-05
0.011672419
9.4906026e-06
0.011752628
5.5193424e-06
0.011407764
0.010093344
-2.1126548e-06
0.0010294267
-7.0926621e-06
0.002981972
-1.1487683e-05
0.0047623396
-1.2360767e-05
0.0063534174
-9.3574536e-06
0.0077444721
-3.8681036e-06
0.0089342142
2.3811833e-06
0.0099252873
7.7971132e-06
0.010718591
1.1256312e-05
0.011307864
1.211324e-05
0.011671562
1.0174987e-05
0.011754566
5.7874243e-06
0.011412152
0.010099132
-1.8640277e-06
0.0010312907
-6.0761531e-06
0.0029861841
-9.3374805e-06
0.004765601
-9.2535967e-06
0.0063533336
-5.8255922e-06
0.0077410441
-4.0088432e-07
0.0089287895
5.4171397e-06
0.0099194693
1.0206071e-05
0.010713802
1.299912e-05
0.011305071
1.3241021e-05
0.01167132
1.0794267e-05
0.011757013
6.0287166e-06
0.011416917
0.010105161
-1.5866527e-06
0.0010328774
-4.9902403e-06
0.0029895877
-7.1706331e-06
0.0047677814
-6.2552765e-06
0.0063524182
-2.4927421e-06
0.0077372816
2.8316809e-06
0.0089234651
8.2067929e-06
0.0099140942
1.2408941e-05
0.0107096
1.4586638e-05
0.011302893
1.4264263e-05
0.011671643
1.135336e-05
0.011759924
6.245066e-06
0.011422026
0.010111406
-1.2835183e-06
0.0010341609
-3.8541853e-06
0.0029921583
-5.0207827e-06
0.004768948
-3.3849464e-06
0.0063507824
6.4622506e-07
0.0077332504
5.8153828e-06
0.008918296
1.0765936e-05
0.0099091436
1.4420846e-05
0.010705945
1.6030834e-05
0.011301283
1.5191008e-05
0.011672482
1.1856706e-05
0.011763258
6.4381644e-06
0.011427444
0.010117844
-9.6035089e-07
0.0010351212
-2.6918237e-06
0.0029938898
-2.9183399e-06
0.0047691745
-6.5060142e-07
0.0063485146
3.5782652e-06
0.0077290216
8.5629366e-06
0.0089133113
1.3108589e-05
0.009904598
1.6254546e-05
0.010702799
1.7341544e-05
0.011300196
1.60277e-05
0.011673796
1.2307733e-05
0.011766978
6.6092298e-06
0.011433143
0.010124453
-6.2535314e-07
0.0010357466
-1.5291175e-06
0.0029947936
-8.8736089e-07
0.0047685327
1.9291069e-06
0.0063456982
6.2873313e-06
0.0077246633
1.1084084e-05
0.0089085145
1.5247513e-05
0.0099004346
1.7921734e-05
0.010700125
1.8527765e-05
0.01129959
1.6780266e-05
0.011675544
1.2709649e-05
0.011771048
6.75946e-06
0.011439093
0.010131213
-2.8821845e-07
0.0010360348
-3.9067536e-07
0.002994896
1.0457174e-06
0.0047670963
4.3266838e-06
0.0063424172
8.7771353e-06
0.0077202129
1.3387473e-05
0.0089039042
1.7193149e-05
0.0098966289
1.9431856e-05
0.010697886
1.9596643e-05
0.011299425
1.7453273e-05
0.011677687
1.3064796e-05
0.011775437
6.889633e-06
0.011445268
0.010138102
4.0781409e-08
0.001035994
6.966597e-07
0.0029942401
2.848601e-06
0.0047649444
6.5296154e-06
0.0063387362
1.1049527e-05
0.007715693
1.548031e-05
0.0088994734
1.8954072e-05
0.0098931551
2.0792556e-05
0.010696048
2.0553846e-05
0.011299664
1.8050242e-05
0.011680191
1.3374891e-05
0.011780112
7.000279e-06
0.011451643
0.010145102
3.5067442e-07
0.0010356434
1.7048684e-06
0.002992886
4.4970925e-06
0.0047621522
8.5307914e-06
0.0063347025
1.310573e-05
0.007711118
1.7368024e-05
0.0088952111
2.0536749e-05
0.0098899864
2.2009489e-05
0.010694575
2.1403412e-05
0.01130027
1.8573489e-05
0.011683021
1.3640884e-05
0.011785045
7.0915475e-06
0.011458192
0.010152194
6.3199371e-07
0.0010350114
2.6137981e-06
0.0029909042
5.9771995e-06
0.0047587888
1.0324516e-05
0.0063303552
1.4946289e-05
0.0077064963
1.905427e-05
0.0088911031
2.1945523e-05
0.0098870951
2.3086281e-05
0.010693434
2.2147667e-05
0.011301209
1.9024057e-05
0.011686144
1.3862912e-05
0.011790206
7.1632321e-06
0.011464892
0.010159357
8.7876378e-07
0.0010341326
3.4113846e-06
0.0029883715
7.2795538e-06
0.0047549206
1.1906917e-05
0.0063257278
1.6571509e-05
0.0077018317
2.0541361e-05
0.0088871333
2.3183005e-05
0.0098844535
2.4024852e-05
0.010692593
2.2787494e-05
0.011302446
1.9401886e-05
0.01168953
1.4040381e-05
0.011795568
7.2147482e-06
0.011471717
0.010166572
1.0879028e-06
0.0010330447
4.0915564e-06
0.0029853679
8.399514e-06
0.0047506126
1.3276261e-05
0.0063208511
1.7981842e-05
0.0076971261
2.1830625e-05
0.0088832845
2.4250331e-05
0.0098820338
2.4825577e-05
0.010692017
2.3322382e-05
0.011303949
1.9705848e-05
0.011693146
1.4172015e-05
0.011801101
7.245249e-06
0.011478644
0.010173817
1.2588971e-06
0.0010317858
4.6536655e-06
0.0029819731
9.3370951e-06
0.0047459292
1.4433348e-05
0.0063157548
1.9178471e-05
0.007692381
2.2923013e-05
0.00887954
2.514773e-05
0.0098798091
2.548776e-05
0.010691677
2.3750848e-05
0.011305686
1.9934005e-05
0.011696963
1.4255963e-05
0.011806779
7.2535407e-06
0.011485647
0.010181071
1.393215e-06
0.0010303926
5.1015192e-06
0.0029782648
1.0096606e-05
0.0047409341
1.5381731e-05
0.0063104697
2.0163801e-05
0.0076875989
2.3819623e-05
0.0088758841
2.5874963e-05
0.0098777537
2.6009981e-05
0.010691542
2.4070621e-05
0.011307626
2.0083791e-05
0.01170095
1.4289967e-05
0.011812573
7.2382949e-06
0.011492698
0.010188309
1.4936562e-06
0.0010288989
5.4422433e-06
0.0029743162
1.0686075e-05
0.0047356903
1.6127827e-05
0.0063050279
2.0941957e-05
0.0076827848
2.4522358e-05
0.0088723037
2.6432005e-05
0.0098758441
2.6390712e-05
0.010691584
2.4279228e-05
0.011309737
2.0152397e-05
0.011705077
1.4271583e-05
0.011818454
7.1980568e-06
0.011499772
0.010195507
1.5637644e-06
0.0010273352
5.6851382e-06
0.0029701948
1.1116467e-05
0.004730259
1.6680753e-05
0.0062994636
2.1519047e-05
0.0076779465
2.5034372e-05
0.0088687884
2.6819531e-05
0.0098740589
2.6628766e-05
0.010691774
2.4374316e-05
0.011311991
2.0137076e-05
0.011709314
1.4198426e-05
0.011824393
7.1314628e-06
0.011506839
0.010202639
1.6073723e-06
0.0010257278
5.840679e-06
0.0029659615
1.1400859e-05
0.0047246988
1.7052023e-05
0.0062938125
2.1903308e-05
0.0076730952
2.5360496e-05
0.0088653312
2.7039457e-05
0.00987238
2.6723859e-05
0.01069209
2.4354202e-05
0.011314361
2.0035569e-05
0.011713633
1.4068445e-05
0.01183036
7.0373123e-06
0.01151387
0.010209676
1.628284e-06
0.0010240995
5.9197086e-06
0.0029616701
1.1553599e-05
0.0047190649
1.7255057e-05
0.006288111
2.2105015e-05
0.0076682452
2.550741e-05
0.0088619288
2.7095267e-05
0.0098707921
2.6676996e-05
0.010692508
2.4218244e-05
0.01131682
1.9846431e-05
0.011718005
1.3880192e-05
0.011836326
6.9147428e-06
0.011520835
0.010216591
1.6300786e-06
0.0010224694
5.9328524e-06
0.0029573673
1.1589568e-05
0.0047134082
1.7304636e-05
0.006282396
2.2136239e-05
0.0076634136
2.548368e-05
0.0088585814
2.6992217e-05
0.0098692836
2.6490756e-05
0.01069301
2.3967137e-05
0.011319344
1.9569315e-05
0.011722402
1.3633027e-05
0.011842262
6.7633576e-06
0.011527705
0.010223354
1.6160072e-06
0.0010208534
5.890132e-06
0.0029530932
1.1523579e-05
0.0047077747
1.7216345e-05
0.0062767032
2.201051e-05
0.0076586195
2.5299647e-05
0.0088552923
2.6737409e-05
0.0098678458
2.6169484e-05
0.010693578
2.3603173e-05
0.01132191
1.9205203e-05
0.0117268
1.3327291e-05
0.01184814
6.5832718e-06
0.011534449
0.010229937
1.5889509e-06
0.0010192645
5.8007398e-06
0.0029488814
1.1369912e-05
0.0047022056
1.7006047e-05
0.0062710671
2.1742393e-05
0.0076538831
2.4967167e-05
0.0088520675
2.6339685e-05
0.0098664733
2.5719294e-05
0.010694198
2.3130295e-05
0.011324499
1.8756497e-05
0.011731174
1.2964402e-05
0.011853932
6.3752108e-06
0.011541038
0.010236312
1.5514206e-06
0.001017713
5.6729362e-06
0.0029447599
1.1142002e-05
0.0046967365
1.6689437e-05
0.0062655196
2.1347069e-05
0.0076492255
2.4499312e-05
0.0088489152
2.5809448e-05
0.0098651632
2.5147995e-05
0.01069486
2.2554096e-05
0.011327093
1.8227059e-05
0.011735501
1.2546878e-05
0.011859613
6.1404961e-06
0.011547445
0.010242453
1.5055776e-06
0.0010162075
5.5140318e-06
0.0029407515
1.0852249e-05
0.0046913983
1.6281694e-05
0.0062600902
2.0839938e-05
0.0076446672
2.3910014e-05
0.0088458452
2.51584e-05
0.0098639148
2.4464921e-05
0.010695553
2.1881739e-05
0.011329676
1.7622154e-05
0.011739761
1.2078309e-05
0.011865156
5.8810143e-06
0.011553642
0.010248334
1.4532667e-06
0.0010147542
5.3304202e-06
0.0029368743
1.0511915e-05
0.0046862168
1.5797212e-05
0.0062548049
2.0236254e-05
0.0076402282
2.3213687e-05
0.0088428677
2.4399203e-05
0.0098627293
2.3680655e-05
0.010696272
2.1121711e-05
0.011332235
1.6948297e-05
0.011743934
1.1563265e-05
0.011870541
5.599214e-06
0.011559606
0.010253933
1.3960531e-06
0.0010133582
5.1276467e-06
0.0029331427
1.013111e-05
0.0046812133
1.5249431e-05
0.0062496866
1.9550854e-05
0.0076359268
2.2424927e-05
0.0088399937
2.35452e-05
0.009861609
2.2806789e-05
0.01069701
2.0283671e-05
0.011334758
1.6213102e-05
0.011748005
1.100716e-05
0.011875747
5.2979674e-06
0.011565315
0.010259231
1.3352585e-06
0.0010120229
4.9104856e-06
0.0029295675
9.7188139e-06
0.004676405
1.4650732e-05
0.0062447546
1.879791e-05
0.0076317796
2.1558184e-05
0.0088372334
2.2610056e-05
0.0098605571
2.1855582e-05
0.010697764
1.9378112e-05
0.011337235
1.5425043e-05
0.011751958
1.0416108e-05
0.011880756
4.9805386e-06
0.011570751
0.010264212
1.2719941e-06
0.0010107509
4.6830239e-06
0.0029261565
9.2829344e-06
0.0046718051
1.4012381e-05
0.0062400252
1.7990765e-05
0.0076278012
2.0627505e-05
0.0088345966
2.1607465e-05
0.0098595772
2.0839658e-05
0.010698532
1.8416096e-05
0.011339659
1.45932e-05
0.011755781
9.7967179e-06
0.011885553
4.6504738e-06
0.011575897
0.010268862
1.2071921e-06
0.0010095437
4.4487461e-06
0.0029229149
8.830389e-06
0.0046674234
1.3344539e-05
0.006235511
1.7141832e-05
0.0076240039
1.9646356e-05
0.0088320921
2.0550915e-05
0.0098586726
1.9771749e-05
0.010699311
1.7409007e-05
0.011342022
1.372703e-05
0.011759463
9.1558989e-06
0.011890124
4.311422e-06
0.011580741
0.010273174
1.1416304e-06
0.0010084021
4.2106019e-06
0.0029198459
8.367173e-06
0.0046632669
1.2656255e-05
0.006231222
1.6262474e-05
0.0076203977
1.8627382e-05
0.0088297272
1.945336e-05
0.0098578466
1.8664324e-05
0.0107001
1.6368139e-05
0.011344318
1.2836037e-05
0.011762995
8.5006499e-06
0.011894459
3.9671509e-06
0.011585275
0.010277141
1.0759562e-06
0.0010073261
3.9710815e-06
0.0029169508
7.8984583e-06
0.0046593395
1.1955539e-05
0.0062271649
1.5363015e-05
0.0076169902
1.7582358e-05
0.0088275079
1.8327128e-05
0.0098571019
1.7529454e-05
0.010700898
1.5304597e-05
0.011346543
1.1929594e-05
0.01176637
7.8378489e-06
0.011898551
3.6212724e-06
0.011589491
0.010280762
1.0107045e-06
0.0010063154
3.7322687e-06
0.0029142292
7.4286612e-06
0.0046556431
1.1249391e-05
0.0062233441
1.4452686e-05
0.0076137869
1.6522024e-05
0.0088254385
1.7183655e-05
0.0098564402
1.637849e-05
0.010701703
1.4228876e-05
0.011348692
1.1016633e-05
0.011769582
7.1740622e-06
0.011902394
3.2772709e-06
0.011593388
0.010284039
9.4631587e-07
0.0010053691
3.4959016e-06
0.0029116797
6.9615355e-06
0.0046521775
1.0543892e-05
0.0062197618
1.353968e-05
0.0076107912
1.5456107e-05
0.0088235221
1.6033466e-05
0.0098558629
1.5221993e-05
0.010702515
1.3150841e-05
0.011350764
1.0105516e-05
0.011772627
6.5153794e-06
0.011905984
2.9382859e-06
0.011596965
0.010286978
8.8314952e-07
0.0010044859
3.2634141e-06
0.0029092994
6.5002352e-06
0.0046489406
9.8442539e-06
0.0062164178
1.2631162e-05
0.0076080042
1.439325e-05
0.00882176
1.4886038e-05
0.0098553701
1.4069565e-05
0.010703331
1.2079474e-05
0.011352754
9.2038605e-06
0.011775503
5.8673082e-06
0.01190932
2.6071387e-06
0.011600226
0.010289585
8.2149657e-07
0.0010036645
3.0359811e-06
0.0029070849
6.0473909e-06
0.0046459292
9.1549128e-06
0.0062133102
1.1733336e-05
0.0076054258
1.3341061e-05
0.0088201523
1.3749804e-05
0.0098549613
1.29298e-05
0.010704151
1.1022821e-05
0.011354661
8.3184549e-06
0.011778207
5.2346932e-06
0.011912404
2.2862634e-06
0.011603174
0.010291871
7.6159046e-07
0.0010029029
2.814557e-06
0.0029050319
5.6051792e-06
0.0046431386
8.4796103e-06
0.0062104358
1.0851535e-05
0.0076030539
1.2306171e-05
0.0088186977
1.2632196e-05
0.0098546353
1.1810317e-05
0.010704973
9.9880278e-06
0.011356483
7.4552596e-06
0.01178074
4.6216984e-06
0.011915238
1.9776533e-06
0.011605818
0.010293849
7.0361545e-07
0.0010021992
2.5999048e-06
0.0029031356
5.1753736e-06
0.0046405631
7.8214547e-06
0.0062077897
9.9902627e-06
0.0076008851
1.1294254e-05
0.0088173937
1.1539623e-05
0.0098543899
1.0717702e-05
0.010705795
8.9812269e-06
0.011358219
6.6193673e-06
0.011783102
4.0318381e-06
0.011917825
1.6829998e-06
0.011608167
0.010295532
6.4771495e-07
0.0010015515
2.3926286e-06
0.0029013907
4.7594108e-06
0.0046381964
7.1830191e-06
0.0062053661
9.153316e-06
0.0075989148
1.0310162e-05
0.0088162368
1.0477615e-05
0.0098542225
9.6576582e-06
0.010706615
8.0077339e-06
0.011359869
5.8151039e-06
0.011785295
3.4679955e-06
0.011920172
1.4035702e-06
0.011610231
0.010296935
5.9399684e-07
0.0010009575
2.1931933e-06
0.0028997915
4.3584263e-06
0.0046360311
6.5663856e-06
0.0062031582
8.3438247e-06
0.0075971374
9.3579419e-06
0.0088152227
9.4508175e-06
0.0098541296
8.634974e-06
0.010707431
7.0719617e-06
0.011361432
5.0460254e-06
0.011787321
2.9324889e-06
0.011922286
1.1403699e-06
0.011612023
0.010298076
5.4253903e-07
0.001000415
2.0019455e-06
0.0028983321
3.9732978e-06
0.0046340598
5.9732126e-06
0.0062011583
7.5643341e-06
0.0075955462
8.440934e-06
0.0088143461
8.4630859e-06
0.0098541075
7.6536263e-06
0.01070824
6.1775506e-06
0.011362908
4.3150006e-06
0.011789183
2.4271244e-06
0.011924174
8.9413338e-07
0.011613556
0.01029897
4.9339371e-07
0.0009999216
1.8191315e-06
0.0028970064
3.6046823e-06
0.0046322742
5.4047882e-06
0.0061993582
6.8168734e-06
0.0075941342
7.5618404e-06
0.0088136011
7.5175655e-06
0.0098541517
6.716847e-06
0.010709041
5.3274255e-06
0.011364298
3.6242639e-06
0.011790886
1.953217e-06
0.011925845
6.6530404e-07
0.011614844
0.010299635
4.4659068e-07
0.00099947501
1.6449074e-06
0.0028958081
3.2530359e-06
0.0046306661
4.8620585e-06
0.0061977491
6.1029815e-06
0.0075928932
6.722745e-06
0.0088129814
6.6166842e-06
0.0098542578
5.8271132e-06
0.010709831
4.5237606e-06
0.011365601
2.9754189e-06
0.011792435
1.5116591e-06
0.011927309
4.5418553e-07
0.011615902
0.010300089
4.0214243e-07
0.00099907287
1.47936e-06
0.0028947309
2.9186588e-06
0.0046292268
4.3457034e-06
0.0061963221
5.4238178e-06
0.0075918151
5.9252578e-06
0.0088124799
5.7623435e-06
0.0098544207
4.9863575e-06
0.010710607
3.7682483e-06
0.011366819
2.3696548e-06
0.011793833
1.1030583e-06
0.011928575
2.6094091e-07
0.011616744
0.01030035
3.6004563e-07
0.00099871282
1.3225131e-06
0.0028937684
2.601707e-06
0.0046279476
3.8561512e-06
0.0061950676
4.7801731e-06
0.0075908911
5.1705142e-06
0.0088120896
4.9558921e-06
0.0098546353
4.1959349e-06
0.010711367
3.0620175e-06
0.011367953
1.8077766e-06
0.011795088
7.2809051e-07
0.011929655
8.8212515e-08
0.011617384
0.010300438
3.2027934e-07
0.00099839254
1.1743172e-06
0.0028929144
2.3021688e-06
0.0046268197
3.3935335e-06
0.0061939763
4.1723947e-06
0.0075901122
4.4590601e-06
0.0088118029
4.197957e-06
0.0098548964
3.4563757e-06
0.010712108
2.4053306e-06
0.011369004
1.289685e-06
0.011796203
3.8652816e-07
0.011930558
-6.3078081e-08
0.011617833
0.010300375
2.8280623e-07
0.00099810974
1.0346548e-06
0.0028921625
2.0198744e-06
0.0046258345
2.9577003e-06
0.0061930384
3.6004024e-06
0.0075894695
3.7908642e-06
0.0088116125
3.4884602e-06
0.0098551988
2.7674228e-06
0.010712829
1.7977082e-06
0.011369974
8.1504883e-07
0.011797186
8.0436561e-08