/*--------------------------------*- C++ -*----------------------------------*\
| =========                 |                                                 |
| \\      /  F ield         | OpenFOAM: The Open Source CFD Toolbox           |
|  \\    /   O peration     | Version:  2506                                  |
|   \\  /    A nd           | Website:  www.openfoam.com                      |
|    \\/     M anipulation  |                                                 |
\*---------------------------------------------------------------------------*/
FoamFile
{
    version     2.0;
    format      ascii;
    arch        "LSB;label=32;scalar=64";
    class       volScalarField;
    location    "29000/water";
    object      T;
}
// * * * * * * * * * * * * * * * * * * * * * * * * * * * * * * * * * * * * * //

dimensions      [0 0 0 1 0 0 0];

internalField   nonuniform List<scalar> 
2600
(
333.15
333.15
333.15
333.15
333.15
333.15
333.15
333.14999
333.14998
333.14991
333.14959
333.14804
333.13783
333.15
333.15
333.15
333.15
333.15
333.15
333.14999
333.14998
333.14992
333.14971
333.14893
333.14549
333.12879
333.15
333.15
333.15
333.15
333.15
333.15
333.14999
333.14995
333.14983
333.14942
333.14806
333.14258
333.12149
333.15
333.15
333.15
333.15
333.15
333.14999
333.14997
333.1499
333.14969
333.14905
333.14703
333.13947
333.11531
333.15
333.15
333.15
333.15
333.14999
333.14998
333.14995
333.14983
333.14951
333.14861
333.14585
333.13627
333.10996
333.15
333.15
333.15
333.15
333.14999
333.14997
333.14991
333.14974
333.1493
333.1481
333.14452
333.13306
333.10529
333.15
333.15
333.15
333.14999
333.14998
333.14995
333.14987
333.14963
333.14904
333.14751
333.14306
333.12989
333.1012
333.15
333.15
333.15
333.14999
333.14998
333.14993
333.14981
333.1495
333.14876
333.14684
333.14144
333.12682
333.09767
333.15
333.15
333.15
333.14999
333.14996
333.1499
333.14974
333.14935
333.14843
333.14608
333.13967
333.12389
333.09464
333.15
333.15
333.14999
333.14998
333.14995
333.14987
333.14966
333.14918
333.14805
333.14522
333.13777
333.12113
333.09208
333.15
333.15
333.14999
333.14997
333.14993
333.14983
333.14957
333.14898
333.14762
333.14423
333.13575
333.11859
333.08996
333.15
333.14999
333.14999
333.14997
333.14991
333.14978
333.14946
333.14876
333.14713
333.14311
333.13368
333.11627
333.0882
333.14999
333.14999
333.14998
333.14995
333.14988
333.14972
333.14934
333.1485
333.14656
333.14186
333.13158
333.11418
333.08675
333.14999
333.14999
333.14998
333.14994
333.14985
333.14965
333.1492
333.1482
333.1459
333.14048
333.12953
333.11231
333.08556
333.14999
333.14999
333.14997
333.14992
333.14982
333.14957
333.14904
333.14786
333.14514
333.13899
333.12757
333.11064
333.08457
333.14999
333.14998
333.14996
333.1499
333.14977
333.14949
333.14886
333.14746
333.14427
333.13744
333.12571
333.10915
333.08375
333.14999
333.14998
333.14995
333.14988
333.14973
333.14938
333.14864
333.147
333.1433
333.13585
333.12398
333.10781
333.08306
333.14998
333.14997
333.14994
333.14985
333.14967
333.14927
333.1484
333.14647
333.14223
333.13427
333.12238
333.10661
333.08248
333.14998
333.14996
333.14992
333.14982
333.1496
333.14913
333.14811
333.14585
333.14108
333.13271
333.1209
333.10554
333.08198
333.14997
333.14995
333.1499
333.14979
333.14953
333.14898
333.14778
333.14515
333.13986
333.13121
333.11954
333.10456
333.08155
333.14996
333.14994
333.14988
333.14974
333.14944
333.1488
333.14739
333.14437
333.13861
333.12978
333.11829
333.10368
333.08117
333.14995
333.14993
333.14986
333.1497
333.14934
333.14859
333.14695
333.14351
333.13734
333.12843
333.11714
333.10288
333.08085
333.14994
333.14991
333.14983
333.14964
333.14923
333.14834
333.14644
333.14258
333.13608
333.12715
333.11608
333.10214
333.08056
333.14993
333.1499
333.1498
333.14958
333.14909
333.14806
333.14586
333.1416
333.13484
333.12594
333.11509
333.10147
333.08032
333.14992
333.14988
333.14976
333.1495
333.14894
333.14773
333.14521
333.14058
333.13364
333.1248
333.11418
333.10085
333.0801
333.1499
333.14985
333.14972
333.14941
333.14876
333.14735
333.1445
333.13953
333.13247
333.12373
333.11332
333.10028
333.07991
333.14988
333.14983
333.14967
333.14931
333.14854
333.14692
333.14373
333.13848
333.13135
333.12273
333.11253
333.09975
333.07974
333.14986
333.1498
333.14961
333.14919
333.1483
333.14643
333.14291
333.13743
333.13028
333.12178
333.11179
333.09926
333.07959
333.14984
333.14976
333.14954
333.14906
333.14802
333.14589
333.14205
333.13639
333.12925
333.12089
333.11109
333.09881
333.07946
333.14981
333.14972
333.14946
333.14889
333.14769
333.14528
333.14116
333.13537
333.12827
333.12004
333.11044
333.09838
333.07935
333.14977
333.14967
333.14937
333.14871
333.14731
333.14463
333.14026
333.13438
333.12733
333.11924
333.10983
333.09799
333.07925
333.14973
333.14961
333.14926
333.14849
333.14689
333.14392
333.13935
333.13341
333.12644
333.11849
333.10925
333.09762
333.07916
333.14968
333.14954
333.14913
333.14823
333.14641
333.14318
333.13843
333.13248
333.12558
333.11777
333.1087
333.09727
333.07909
333.14963
333.14946
333.14898
333.14794
333.14589
333.14241
333.13753
333.13157
333.12476
333.11709
333.10818
333.09694
333.07902
333.14956
333.14936
333.1488
333.14761
333.14531
333.14161
333.13663
333.1307
333.12398
333.11644
333.10769
333.09663
333.07896
333.14948
333.14925
333.1486
333.14723
333.14469
333.1408
333.13576
333.12985
333.12323
333.11582
333.10722
333.09634
333.07891
333.14939
333.14911
333.14836
333.1468
333.14403
333.13998
333.13489
333.12904
333.12252
333.11523
333.10678
333.09606
333.07887
333.14928
333.14896
333.14808
333.14632
333.14334
333.13916
333.13405
333.12825
333.12183
333.11467
333.10635
333.0958
333.07883
333.14915
333.14877
333.14777
333.1458
333.14262
333.13834
333.13323
333.12749
333.12117
333.11412
333.10595
333.09555
333.0788
333.149
333.14856
333.1474
333.14523
333.14188
333.13753
333.13243
333.12676
333.12053
333.11361
333.10556
333.09531
333.07877
333.14881
333.1483
333.14699
333.14462
333.14113
333.13672
333.13165
333.12605
333.11992
333.11311
333.10519
333.09508
333.07874
333.14859
333.148
333.14653
333.14398
333.14036
333.13592
333.13089
333.12536
333.11933
333.11263
333.10483
333.09486
333.07871
333.14833
333.14766
333.14603
333.1433
333.13959
333.13514
333.13015
333.12469
333.11876
333.11217
333.10449
333.09465
333.07869
333.14802
333.14726
333.14547
333.1426
333.13882
333.13437
333.12942
333.12405
333.11821
333.11172
333.10415
333.09445
333.07866
333.14766
333.14681
333.14487
333.14188
333.13805
333.13361
333.12872
333.12343
333.11768
333.11129
333.10383
333.09425
333.07864
333.14724
333.14631
333.14423
333.14114
333.13728
333.13287
333.12804
333.12282
333.11717
333.11088
333.10352
333.09406
333.07862
333.14676
333.14575
333.14355
333.14039
333.13652
333.13214
333.12737
333.12224
333.11667
333.11047
333.10322
333.09387
333.07859
333.14621
333.14513
333.14284
333.13963
333.13576
333.13142
333.12672
333.12167
333.11618
333.11008
333.10293
333.09369
333.07857
333.14559
333.14445
333.1421
333.13886
333.13501
333.13072
333.12609
333.12111
333.11571
333.1097
333.10264
333.09351
333.07854
333.1449
333.14373
333.14134
333.13809
333.13426
333.13003
333.12546
333.12057
333.11526
333.10933
333.10236
333.09334
333.07851
333.14415
333.14296
333.14055
333.13731
333.13352
333.12935
333.12486
333.12004
333.11481
333.10897
333.10209
333.09316
333.07848
333.14335
333.14215
333.13974
333.13653
333.13279
333.12868
333.12426
333.11952
333.11437
333.10861
333.10182
333.09299
333.07845
333.1425
333.1413
333.13892
333.13575
333.13207
333.12803
333.12368
333.11902
333.11394
333.10826
333.10155
333.09282
333.07841
333.1416
333.14043
333.13808
333.13497
333.13135
333.12738
333.12311
333.11852
333.11352
333.10792
333.10129
333.09265
333.07837
333.14068
333.13953
333.13723
333.13418
333.13064
333.12674
333.12255
333.11803
333.11311
333.10759
333.10104
333.09249
333.07833
333.13973
333.13862
333.13638
333.1334
333.12994
333.12611
333.12199
333.11755
333.11271
333.10725
333.10078
333.09232
333.07828
333.13877
333.13769
333.13552
333.13263
333.12924
333.12549
333.12145
333.11708
333.11231
333.10693
333.10053
333.09215
333.07823
333.1378
333.13676
333.13467
333.13185
333.12854
333.12488
333.12091
333.11662
333.11191
333.1066
333.10028
333.09198
333.07817
333.13683
333.13583
333.13381
333.13108
333.12785
333.12427
333.12037
333.11615
333.11152
333.10628
333.10003
333.09181
333.07811
333.13586
333.1349
333.13295
333.13031
333.12717
333.12367
333.11985
333.1157
333.11113
333.10596
333.09978
333.09163
333.07804
333.1349
333.13398
333.13211
333.12955
333.12649
333.12307
333.11933
333.11525
333.11075
333.10564
333.09953
333.09146
333.07796
333.13394
333.13306
333.13126
333.12879
333.12582
333.12248
333.11881
333.1148
333.11037
333.10533
333.09928
333.09128
333.07788
333.133
333.13216
333.13043
333.12804
333.12515
333.12189
333.11829
333.11436
333.10999
333.10501
333.09902
333.09109
333.07779
333.13208
333.13127
333.12961
333.1273
333.12449
333.12131
333.11778
333.11391
333.10961
333.10469
333.09877
333.09091
333.0777
333.13117
333.1304
333.1288
333.12656
333.12384
333.12073
333.11728
333.11347
333.10923
333.10438
333.09851
333.09071
333.0776
333.13028
333.12954
333.128
333.12584
333.12319
333.12016
333.11678
333.11304
333.10886
333.10406
333.09825
333.09052
333.07749
333.12941
333.1287
333.12722
333.12513
333.12256
333.11959
333.11628
333.1126
333.10848
333.10374
333.09799
333.09032
333.07737
333.12856
333.12788
333.12645
333.12442
333.12192
333.11903
333.11578
333.11217
333.1081
333.10342
333.09772
333.09011
333.07724
333.12773
333.12707
333.12569
333.12373
333.1213
333.11847
333.11529
333.11173
333.10773
333.10309
333.09745
333.0899
333.0771
333.12691
333.12628
333.12495
333.12305
333.12068
333.11792
333.1148
333.1113
333.10735
333.10277
333.09718
333.08968
333.07696
333.12612
333.1255
333.12422
333.12238
333.12008
333.11738
333.11432
333.11087
333.10697
333.10244
333.0969
333.08945
333.0768
333.12534
333.12475
333.12351
333.12172
333.11948
333.11684
333.11383
333.11044
333.1066
333.10211
333.09662
333.08922
333.07664
333.12458
333.12401
333.12281
333.12107
333.11889
333.1163
333.11335
333.11002
333.10622
333.10178
333.09634
333.08899
333.07647
333.12384
333.12329
333.12212
333.12043
333.1183
333.11578
333.11288
333.10959
333.10584
333.10145
333.09605
333.08875
333.07629
333.12312
333.12258
333.12145
333.11981
333.11773
333.11525
333.1124
333.10917
333.10546
333.10111
333.09575
333.0885
333.07611
333.12241
333.12189
333.12079
333.11919
333.11716
333.11473
333.11194
333.10874
333.10508
333.10077
333.09546
333.08824
333.07591
333.12172
333.12122
333.12015
333.11859
333.1166
333.11422
333.11147
333.10832
333.1047
333.10043
333.09515
333.08798
333.07571
333.12105
333.12056
333.11951
333.11799
333.11605
333.11371
333.11101
333.1079
333.10432
333.10009
333.09485
333.08772
333.07549
333.12039
333.11991
333.11889
333.11741
333.1155
333.11321
333.11055
333.10748
333.10394
333.09974
333.09454
333.08745
333.07527
333.11974
333.11928
333.11829
333.11684
333.11497
333.11272
333.11009
333.10706
333.10355
333.0994
333.09423
333.08717
333.07505
333.11911
333.11866
333.11769
333.11627
333.11444
333.11222
333.10963
333.10664
333.10317
333.09905
333.09391
333.08689
333.07481
333.11849
333.11805
333.1171
333.11571
333.11392
333.11174
333.10918
333.10623
333.10279
333.09869
333.09359
333.0866
333.07457
333.11789
333.11746
333.11653
333.11517
333.1134
333.11126
333.10874
333.10581
333.1024
333.09834
333.09326
333.08631
333.07432
333.1173
333.11687
333.11596
333.11463
333.11289
333.11078
333.10829
333.1054
333.10202
333.09798
333.09294
333.08601
333.07407
333.11672
333.1163
333.11541
333.1141
333.11239
333.11031
333.10785
333.10498
333.10163
333.09763
333.09261
333.08571
333.07381
333.11615
333.11574
333.11486
333.11357
333.11189
333.10984
333.10741
333.10457
333.10125
333.09727
333.09227
333.08541
333.07354
333.11559
333.11519
333.11433
333.11306
333.1114
333.10937
333.10697
333.10416
333.10086
333.0969
333.09194
333.0851
333.07327
333.11504
333.11464
333.1138
333.11255
333.11092
333.10891
333.10653
333.10375
333.10047
333.09654
333.0916
333.08479
333.07299
333.1145
333.11411
333.11328
333.11205
333.11044
333.10846
333.1061
333.10334
333.10009
333.09618
333.09125
333.08447
333.07271
333.11397
333.11359
333.11277
333.11155
333.10996
333.108
333.10567
333.10293
333.0997
333.09581
333.09091
333.08415
333.07242
333.11344
333.11307
333.11226
333.11107
333.10949
333.10755
333.10524
333.10252
333.09931
333.09544
333.09056
333.08383
333.07213
333.11293
333.11256
333.11176
333.11058
333.10903
333.10711
333.10482
333.10212
333.09893
333.09508
333.09022
333.0835
333.07183
333.11242
333.11206
333.11127
333.1101
333.10857
333.10667
333.10439
333.10171
333.09854
333.09471
333.08986
333.08317
333.07153
333.11192
333.11156
333.11079
333.10963
333.10811
333.10623
333.10397
333.10131
333.09815
333.09434
333.08951
333.08284
333.07123
333.11143
333.11107
333.11031
333.10916
333.10766
333.10579
333.10355
333.1009
333.09776
333.09396
333.08916
333.0825
333.07092
333.11094
333.11059
333.10983
333.1087
333.10721
333.10535
333.10313
333.1005
333.09737
333.09359
333.0888
333.08217
333.07061
333.11046
333.11011
333.10936
333.10824
333.10676
333.10492
333.10271
333.10009
333.09699
333.09322
333.08845
333.08183
333.0703
333.10999
333.10964
333.1089
333.10779
333.10632
333.10449
333.1023
333.09969
333.0966
333.09285
333.08809
333.08149
333.06998
333.10952
333.10918
333.10844
333.10734
333.10588
333.10407
333.10188
333.09929
333.09621
333.09247
333.08773
333.08114
333.06966
333.10905
333.10872
333.10799
333.10689
333.10544
333.10364
333.10147
333.09889
333.09582
333.0921
333.08737
333.0808
333.06933
333.1086
333.10826
333.10754
333.10645
333.10501
333.10322
333.10106
333.09849
333.09543
333.09172
333.087
333.08045
333.06901
333.10814
333.10781
333.10709
333.10601
333.10458
333.1028
333.10065
333.09809
333.09505
333.09134
333.08664
333.0801
333.06868
333.10769
333.10736
333.10664
333.10557
333.10415
333.10238
333.10024
333.09769
333.09466
333.09097
333.08628
333.07975
333.06835
333.10724
333.10691
333.1062
333.10514
333.10373
333.10196
333.09983
333.09729
333.09427
333.09059
333.08591
333.0794
333.06801
333.1068
333.10647
333.10577
333.10471
333.1033
333.10155
333.09942
333.0969
333.09388
333.09021
333.08554
333.07905
333.06768
333.10636
333.10604
333.10533
333.10428
333.10288
333.10113
333.09902
333.0965
333.09349
333.08983
333.08518
333.07869
333.06734
333.10592
333.1056
333.1049
333.10386
333.10246
333.10072
333.09861
333.0961
333.09311
333.08946
333.08481
333.07834
333.067
333.10549
333.10517
333.10447
333.10343
333.10204
333.10031
333.09821
333.09571
333.09272
333.08908
333.08444
333.07798
333.06666
333.10506
333.10474
333.10405
333.10301
333.10163
333.0999
333.09781
333.09531
333.09233
333.0887
333.08407
333.07762
333.06631
333.10463
333.10431
333.10363
333.10259
333.10121
333.09949
333.09741
333.09492
333.09194
333.08832
333.0837
333.07726
333.06597
333.10421
333.10389
333.1032
333.10217
333.1008
333.09908
333.097
333.09452
333.09156
333.08794
333.08333
333.0769
333.06562
333.10378
333.10347
333.10278
333.10176
333.10039
333.09868
333.0966
333.09413
333.09117
333.08756
333.08296
333.07654
333.06527
333.10336
333.10305
333.10237
333.10134
333.09998
333.09827
333.0962
333.09374
333.09078
333.08718
333.08259
333.07618
333.06492
333.10294
333.10263
333.10195
333.10093
333.09957
333.09787
333.09581
333.09334
333.0904
333.0868
333.08222
333.07582
333.06457
333.10253
333.10221
333.10154
333.10052
333.09916
333.09747
333.09541
333.09295
333.09001
333.08642
333.08185
333.07545
333.06422
333.10211
333.1018
333.10113
333.10011
333.09876
333.09706
333.09501
333.09256
333.08962
333.08604
333.08147
333.07509
333.06386
333.1017
333.10139
333.10071
333.0997
333.09835
333.09666
333.09461
333.09217
333.08924
333.08566
333.0811
333.07472
333.0635
333.10129
333.10098
333.10031
333.09929
333.09795
333.09626
333.09422
333.09177
333.08885
333.08528
333.08073
333.07436
333.06315
333.10088
333.10057
333.0999
333.09889
333.09754
333.09586
333.09382
333.09138
333.08847
333.0849
333.08035
333.07399
333.06279
333.10047
333.10016
333.09949
333.09848
333.09714
333.09546
333.09343
333.09099
333.08808
333.08452
333.07998
333.07362
333.06243
333.10006
333.09975
333.09908
333.09808
333.09674
333.09506
333.09303
333.0906
333.08769
333.08414
333.0796
333.07325
333.06206
333.09965
333.09934
333.09868
333.09768
333.09634
333.09467
333.09264
333.09021
333.08731
333.08376
333.07923
333.07288
333.0617
333.09925
333.09894
333.09827
333.09727
333.09594
333.09427
333.09224
333.08982
333.08692
333.08338
333.07885
333.07251
333.06133
333.09884
333.09854
333.09787
333.09687
333.09554
333.09387
333.09185
333.08943
333.08654
333.083
333.07848
333.07214
333.06097
333.09844
333.09813
333.09747
333.09647
333.09514
333.09348
333.09146
333.08904
333.08615
333.08262
333.0781
333.07177
333.0606
333.09803
333.09773
333.09707
333.09607
333.09474
333.09308
333.09106
333.08865
333.08577
333.08224
333.07772
333.0714
333.06023
333.09763
333.09733
333.09667
333.09567
333.09435
333.09269
333.09067
333.08826
333.08538
333.08186
333.07735
333.07103
333.05986
333.09723
333.09693
333.09627
333.09527
333.09395
333.09229
333.09028
333.08788
333.085
333.08147
333.07697
333.07065
333.05949
333.09683
333.09653
333.09587
333.09488
333.09355
333.0919
333.08989
333.08749
333.08461
333.08109
333.07659
333.07028
333.05912
333.09643
333.09613
333.09547
333.09448
333.09316
333.0915
333.0895
333.0871
333.08423
333.08071
333.07621
333.0699
333.05874
333.09603
333.09573
333.09507
333.09408
333.09276
333.09111
333.08911
333.08671
333.08384
333.08033
333.07583
333.06952
333.05837
333.09563
333.09533
333.09467
333.09368
333.09237
333.09072
333.08872
333.08632
333.08345
333.07995
333.07545
333.06915
333.05799
333.09523
333.09493
333.09428
333.09329
333.09197
333.09032
333.08832
333.08593
333.08307
333.07956
333.07507
333.06877
333.05761
333.09484
333.09453
333.09388
333.09289
333.09158
333.08993
333.08793
333.08555
333.08268
333.07918
333.07469
333.06839
333.05723
333.09444
333.09414
333.09348
333.0925
333.09118
333.08954
333.08754
333.08516
333.0823
333.0788
333.07431
333.06801
333.05685
333.09404
333.09374
333.09309
333.0921
333.09079
333.08915
333.08715
333.08477
333.08191
333.07841
333.07393
333.06763
333.05647
333.09365
333.09334
333.09269
333.09171
333.0904
333.08876
333.08676
333.08438
333.08153
333.07803
333.07355
333.06725
333.05608
333.09325
333.09295
333.0923
333.09131
333.09
333.08836
333.08637
333.084
333.08114
333.07765
333.07317
333.06687
333.0557
333.09285
333.09255
333.0919
333.09092
333.08961
333.08797
333.08598
333.08361
333.08076
333.07726
333.07278
333.06648
333.05531
333.09246
333.09216
333.09151
333.09053
333.08922
333.08758
333.0856
333.08322
333.08037
333.07688
333.0724
333.0661
333.05492
333.09206
333.09176
333.09111
333.09013
333.08883
333.08719
333.08521
333.08283
333.07998
333.07649
333.07201
333.06571
333.05453
333.09167
333.09137
333.09072
333.08974
333.08843
333.0868
333.08482
333.08244
333.0796
333.07611
333.07163
333.06533
333.05414
333.09127
333.09097
333.09032
333.08935
333.08804
333.08641
333.08443
333.08206
333.07921
333.07572
333.07124
333.06494
333.05374
333.09088
333.09058
333.08993
333.08895
333.08765
333.08602
333.08404
333.08167
333.07882
333.07534
333.07086
333.06455
333.05335
333.09049
333.09019
333.08954
333.08856
333.08726
333.08563
333.08365
333.08128
333.07844
333.07495
333.07047
333.06416
333.05295
333.09009
333.08979
333.08914
333.08817
333.08687
333.08524
333.08326
333.08089
333.07805
333.07456
333.07008
333.06377
333.05255
333.0897
333.0894
333.08875
333.08778
333.08648
333.08485
333.08287
333.0805
333.07766
333.07417
333.06969
333.06338
333.05215
333.08931
333.08901
333.08836
333.08738
333.08608
333.08446
333.08248
333.08011
333.07727
333.07378
333.0693
333.06298
333.05175
333.08891
333.08861
333.08797
333.08699
333.08569
333.08407
333.08209
333.07972
333.07688
333.0734
333.06891
333.06259
333.05134
333.08852
333.08822
333.08757
333.0866
333.0853
333.08368
333.0817
333.07934
333.07649
333.07301
333.06852
333.06219
333.05093
333.08813
333.08783
333.08718
333.08621
333.08491
333.08328
333.08131
333.07895
333.0761
333.07262
333.06813
333.0618
333.05053
333.08773
333.08744
333.08679
333.08582
333.08452
333.08289
333.08092
333.07856
333.07571
333.07222
333.06773
333.0614
333.05011
333.08734
333.08704
333.0864
333.08543
333.08413
333.0825
333.08053
333.07817
333.07532
333.07183
333.06734
333.061
333.0497
333.08695
333.08665
333.08601
333.08503
333.08374
333.08211
333.08014
333.07778
333.07493
333.07144
333.06694
333.0606
333.04929
333.08656
333.08626
333.08561
333.08464
333.08335
333.08172
333.07975
333.07738
333.07454
333.07105
333.06655
333.06019
333.04887
333.08616
333.08587
333.08522
333.08425
333.08296
333.08133
333.07936
333.07699
333.07415
333.07065
333.06615
333.05979
333.04845
333.08577
333.08547
333.08483
333.08386
333.08256
333.08094
333.07897
333.0766
333.07376
333.07026
333.06575
333.05938
333.04802
333.08538
333.08508
333.08444
333.08347
333.08217
333.08055
333.07857
333.07621
333.07336
333.06986
333.06535
333.05898
333.0476
333.08499
333.08469
333.08405
333.08308
333.08178
333.08016
333.07818
333.07582
333.07297
333.06947
333.06495
333.05857
333.04717
333.0846
333.0843
333.08365
333.08268
333.08139
333.07976
333.07779
333.07542
333.07257
333.06907
333.06455
333.05816
333.04674
333.0842
333.08391
333.08326
333.08229
333.081
333.07937
333.0774
333.07503
333.07218
333.06867
333.06414
333.05774
333.04631
333.08381
333.08351
333.08287
333.0819
333.0806
333.07898
333.077
333.07463
333.07178
333.06827
333.06374
333.05733
333.04587
333.08342
333.08312
333.08248
333.08151
333.08021
333.07859
333.07661
333.07424
333.07138
333.06787
333.06333
333.05691
333.04543
333.08303
333.08273
333.08209
333.08111
333.07982
333.07819
333.07622
333.07384
333.07099
333.06747
333.06293
333.05649
333.04499
333.08263
333.08234
333.08169
333.08072
333.07943
333.0778
333.07582
333.07345
333.07059
333.06706
333.06252
333.05607
333.04454
333.08224
333.08194
333.0813
333.08033
333.07903
333.07741
333.07543
333.07305
333.07019
333.06666
333.0621
333.05565
333.0441
333.08185
333.08155
333.08091
333.07994
333.07864
333.07701
333.07503
333.07265
333.06979
333.06626
333.06169
333.05523
333.04364
333.08146
333.08116
333.08051
333.07954
333.07825
333.07662
333.07464
333.07226
333.06939
333.06585
333.06128
333.0548
333.04319
333.08106
333.08077
333.08012
333.07915
333.07785
333.07622
333.07424
333.07186
333.06898
333.06544
333.06086
333.05437
333.04273
333.08067
333.08037
333.07973
333.07876
333.07746
333.07583
333.07384
333.07146
333.06858
333.06503
333.06044
333.05394
333.04227
333.08028
333.07998
333.07933
333.07836
333.07706
333.07543
333.07344
333.07105
333.06817
333.06462
333.06003
333.0535
333.0418
333.07988
333.07959
333.07894
333.07797
333.07667
333.07503
333.07304
333.07065
333.06777
333.06421
333.0596
333.05307
333.04133
333.07949
333.07919
333.07855
333.07757
333.07627
333.07464
333.07264
333.07025
333.06736
333.0638
333.05918
333.05263
333.04086
333.0791
333.0788
333.07815
333.07718
333.07587
333.07424
333.07224
333.06985
333.06695
333.06338
333.05875
333.05218
333.04038
333.0787
333.0784
333.07776
333.07678
333.07548
333.07384
333.07184
333.06944
333.06654
333.06296
333.05833
333.05174
333.0399
333.07831
333.07801
333.07736
333.07638
333.07508
333.07344
333.07144
333.06904
333.06613
333.06254
333.0579
333.05129
333.03941
333.07791
333.07761
333.07697
333.07599
333.07468
333.07304
333.07104
333.06863
333.06572
333.06212
333.05747
333.05084
333.03892
333.07752
333.07722
333.07657
333.07559
333.07428
333.07264
333.07063
333.06822
333.0653
333.0617
333.05703
333.05038
333.03842
333.07712
333.07682
333.07617
333.07519
333.07388
333.07224
333.07023
333.06781
333.06489
333.06128
333.05659
333.04993
333.03792
333.07673
333.07643
333.07578
333.07479
333.07348
333.07183
333.06982
333.0674
333.06447
333.06085
333.05615
333.04946
333.03741
333.07633
333.07603
333.07538
333.07439
333.07308
333.07143
333.06941
333.06699
333.06405
333.06042
333.05571
333.049
333.0369
333.07593
333.07563
333.07498
333.07399
333.07268
333.07102
333.06901
333.06657
333.06363
333.05999
333.05527
333.04853
333.03638
333.07553
333.07523
333.07458
333.07359
333.07228
333.07062
333.0686
333.06616
333.06321
333.05956
333.05482
333.04806
333.03585
333.07514
333.07483
333.07418
333.07319
333.07187
333.07021
333.06819
333.06574
333.06279
333.05913
333.05437
333.04758
333.03532
333.07474
333.07443
333.07378
333.07279
333.07147
333.0698
333.06777
333.06532
333.06236
333.05869
333.05392
333.0471
333.03478
333.07434
333.07403
333.07338
333.07239
333.07106
333.0694
333.06736
333.06491
333.06193
333.05825
333.05346
333.04661
333.03424
333.07394
333.07363
333.07298
333.07198
333.07066
333.06899
333.06695
333.06448
333.0615
333.05781
333.053
333.04612
333.03368
333.07354
333.07323
333.07257
333.07158
333.07025
333.06857
333.06653
333.06406
333.06107
333.05736
333.05253
333.04563
333.03312
333.07313
333.07283
333.07217
333.07117
333.06984
333.06816
333.06611
333.06364
333.06063
333.05691
333.05206
333.04513
333.03255
333.07273
333.07243
333.07177
333.07077
333.06943
333.06775
333.06569
333.06321
333.0602
333.05646
333.05159
333.04462
333.03197
333.07233
333.07202
333.07136
333.07036
333.06902
333.06733
333.06527
333.06278
333.05976
333.05601
333.05112
333.04411
333.03138
333.07192
333.07162
333.07095
333.06995
333.06861
333.06692
333.06485
333.06235
333.05931
333.05555
333.05063
333.04359
333.03078
333.07152
333.07121
333.07055
333.06954
333.06819
333.0665
333.06442
333.06191
333.05887
333.05509
333.05015
333.04306
333.03016
333.07111
333.0708
333.07014
333.06913
333.06778
333.06608
333.06399
333.06148
333.05842
333.05462
333.04966
333.04253
333.02953
333.0707
333.0704
333.06973
333.06872
333.06736
333.06565
333.06357
333.06104
333.05797
333.05415
333.04916
333.04198
333.02889
333.0703
333.06999
333.06932
333.0683
333.06694
333.06523
333.06313
333.0606
333.05751
333.05368
333.04865
333.04143
333.02822
333.06989
333.06958
333.0689
333.06789
333.06652
333.06481
333.0627
333.06015
333.05706
333.0532
333.04814
333.04086
333.02753
333.06948
333.06916
333.06849
333.06747
333.0661
333.06438
333.06226
333.05971
333.05659
333.05271
333.04762
333.04028
333.02681
333.06906
333.06875
333.06807
333.06705
333.06568
333.06395
333.06183
333.05926
333.05612
333.05222
333.04709
333.03968
333.02603
333.06865
333.06834
333.06766
333.06663
333.06526
333.06352
333.06139
333.0588
333.05565
333.05172
333.04655
333.03906
333.02517
)
;

boundaryField
{
    water_inlet
    {
        type            fixedValue;
        value           uniform 333.15;
    }
    water_outlet
    {
        type            zeroGradient;
    }
    water_wedge1
    {
        type            wedge;
    }
    water_wedge2
    {
        type            wedge;
    }
    water_to_rock
    {
        type            compressible::turbulentTemperatureRadCoupledMixed;
        refValue        nonuniform List<scalar> 
200
(
315.50182
319.11908
320.92538
322.02237
322.78259
323.35579
323.81258
324.19088
324.51312
324.79353
325.04167
325.26417
325.46582
325.65017
325.81991
325.97715
326.12354
326.26044
326.38895
326.50998
326.62431
326.73258
326.83534
326.93306
327.02615
327.11496
327.19982
327.28098
327.35869
327.43318
327.50462
327.5732
327.63907
327.70238
327.76326
327.82182
327.87818
327.93243
327.98468
328.03501
328.0835
328.13023
328.17528
328.2187
328.26057
328.30094
328.33987
328.37742
328.41364
328.44857
328.48226
328.51477
328.54612
328.57637
328.60554
328.63369
328.66083
328.68702
328.71227
328.73663
328.76011
328.78276
328.8046
328.82566
328.84595
328.86551
328.88437
328.90254
328.92004
328.9369
328.95315
328.96879
328.98385
328.99835
329.0123
329.02572
329.03864
329.05106
329.06301
329.07449
329.08553
329.09613
329.10631
329.11608
329.12546
329.13445
329.14307
329.15133
329.15925
329.16682
329.17406
329.18099
329.1876
329.19391
329.19993
329.20565
329.2111
329.21628
329.2212
329.22585
329.23025
329.23441
329.23832
329.242
329.24545
329.24868
329.25168
329.25446
329.25703
329.25939
329.26154
329.26349
329.26524
329.26679
329.26814
329.2693
329.27027
329.27105
329.27163
329.27203
329.27225
329.27227
329.27211
329.27177
329.27124
329.27052
329.26962
329.26852
329.26725
329.26578
329.26412
329.26227
329.26022
329.25798
329.25554
329.2529
329.25005
329.247
329.24374
329.24027
329.23657
329.23266
329.22851
329.22414
329.21953
329.21468
329.20959
329.20424
329.19863
329.19276
329.18661
329.18018
329.17347
329.16646
329.15915
329.15152
329.14357
329.13529
329.12666
329.11768
329.10834
329.09862
329.08851
329.07799
329.06706
329.05569
329.04388
329.0316
329.01883
329.00556
328.99177
328.97743
328.96252
328.94702
328.93089
328.91411
328.89665
328.87846
328.85952
328.83976
328.81915
328.79764
328.77515
328.75161
328.72695
328.70106
328.67383
328.64512
328.61476
328.58255
328.54823
328.51144
328.47173
328.42847
328.3807
328.32697
328.26472
328.18898
328.08819
327.92999
)
;
        refGradient     uniform 0;
        valueFraction   nonuniform List<scalar> 
200
(
0.021313587
0.018349032
0.017286587
0.016999676
0.017072311
0.017312679
0.017619574
0.017934173
0.018220835
0.018459614
0.01864309
0.018773723
0.018860286
0.018913928
0.018945118
0.018962099
0.018970608
0.018974281
0.018975235
0.018974594
0.018972889
0.01897032
0.018966927
0.018962686
0.018957559
0.018951519
0.01894456
0.018936694
0.018927949
0.018918366
0.018907994
0.018896903
0.018885173
0.018872882
0.018860098
0.018846868
0.018833224
0.018819204
0.018804843
0.018790181
0.018775253
0.018760098
0.018744752
0.018729251
0.018713631
0.018697926
0.018682171
0.018666398
0.018650643
0.018634938
0.01861932
0.018603823
0.018588486
0.018573349
0.018558455
0.018543848
0.018529577
0.018515694
0.018502248
0.018489294
0.018476883
0.018465064
0.018453885
0.018443387
0.018433604
0.018424565
0.018416289
0.018408787
0.018402062
0.018396107
0.018390909
0.018386445
0.018382688
0.018379604
0.018377156
0.018375304
0.018374003
0.018373211
0.018372884