/*--------------------------------*- C++ -*----------------------------------*\
| =========                 |                                                 |
| \\      /  F ield         | OpenFOAM: The Open Source CFD Toolbox           |
|  \\    /   O peration     | Version:  2506                                  |
|   \\  /    A nd           | Website:  www.openfoam.com                      |
|    \\/     M anipulation  |                                                 |
\*---------------------------------------------------------------------------*/
FoamFile
{
    version     2.0;
    format      ascii;
    arch        "LSB;label=32;scalar=64";
    class       volScalarField;
    location    "23000/water";
    object      alphat;
}
// * * * * * * * * * * * * * * * * * * * * * * * * * * * * * * * * * * * * * //

dimensions      [1 -1 -1 0 0 0 0];

internalField   nonuniform List<scalar> 
6000
(
0.041292847
0.041292824
0.041292831
0.041292856
0.041292889
0.041292932
0.041292983
0.041293016
0.041292808
0.041290571
0.041271537
0.041111294
0.0397723
0.030564074
0.013464793
0.040788543
0.040788537
0.040788576
0.040788654
0.040788758
0.040788888
0.04078902
0.040788972
0.040787494
0.040776037
0.040696382
0.040161217
0.036863805
0.023766469
0.015141611
0.04033569
0.040335696
0.040335761
0.040335884
0.040336044
0.040336229
0.04033633
0.040335685
0.040330323
0.040296649
0.040097616
0.038983223
0.033614213
0.0194951
0.016360294
0.039926215
0.039926219
0.039926301
0.039926459
0.03992666
0.039926848
0.039926701
0.039924457
0.039910659
0.039835636
0.039448738
0.037597438
0.030384627
0.016783058
0.017196555
0.039553796
0.039553808
0.039553906
0.039554093
0.039554312
0.039554413
0.039553622
0.0395481
0.039519187
0.039379112
0.038737841
0.036066498
0.027427863
0.015063192
0.01773179
0.039213273
0.039213296
0.039213408
0.039213613
0.039213809
0.039213657
0.039211571
0.039200298
0.039147643
0.038916647
0.037965398
0.034462847
0.024852826
0.013984463
0.018040007
0.038900366
0.038900399
0.038900521
0.038900723
0.038900826
0.038900159
0.038895819
0.03887551
0.038788999
0.038441492
0.037140256
0.032849727
0.022675913
0.013336844
0.018183117
0.038611532
0.038611573
0.038611697
0.038611866
0.038611765
0.038610199
0.038602307
0.038568928
0.038437606
0.037950377
0.036275872
0.031274836
0.020870828
0.012994967
0.018210197
0.038343817
0.038343862
0.038343975
0.038344065
0.038343601
0.038340605
0.038327517
0.03827644
0.038089201
0.037442856
0.03538704
0.029770035
0.019396999
0.012882914
0.018158676
0.038094736
0.03809478
0.038094862
0.038094803
0.038093753
0.038088644
0.038068396
0.037994592
0.037740813
0.036920505
0.03448763
0.028354169
0.018213448
0.012953916
0.018056304
0.037862183
0.037862216
0.037862238
0.037861935
0.037860009
0.037851941
0.037822294
0.037720559
0.037390607
0.036386134
0.033589398
0.02703684
0.017284481
0.013178532
0.017923231
0.03764436
0.037644371
0.037644291
0.037643618
0.037640447
0.037628426
0.037586933
0.037452106
0.037037684
0.035843147
0.032701562
0.025821837
0.016581272
0.013537499
0.017773886
0.037439726
0.037439699
0.03743946
0.037438254
0.037433393
0.037416287
0.037360374
0.037187532
0.036681868
0.035295042
0.031830871
0.02470985
0.016081614
0.014017191
0.017618497
0.037246949
0.037246861
0.037246392
0.037244452
0.037237378
0.037213943
0.037140989
0.036925609
0.0363235
0.034745073
0.030981931
0.023700436
0.015768976
0.014606606
0.017464261
0.037064871
0.037064693
0.037063903
0.037060987
0.037051109
0.037020016
0.036927437
0.036665512
0.035963258
0.03419604
0.030157673
0.022793377
0.015631332
0.015295285
0.017316197
0.03689248
0.036892177
0.036890955
0.036886782
0.036873442
0.036833316
0.036718634
0.03640675
0.035602004
0.033650187
0.029359858
0.021989539
0.015659917
0.016071914
0.01717775
0.036728885
0.036728414
0.036726628
0.036720878
0.03670337
0.036652818
0.036513731
0.036149096
0.035240656
0.033109157
0.028589603
0.021291346
0.015847992
0.016923492
0.017051196
0.036573301
0.03657261
0.036570106
0.036562424
0.036540005
0.036477653
0.03631208
0.035892529
0.034880099
0.032574024
0.027847913
0.02070292
0.016189617
0.01783505
0.016937916
0.036425028
0.036424056
0.036420663
0.036410663
0.036382564
0.036307092
0.036113215
0.03563717
0.034521109
0.032045349
0.027136212
0.020229919
0.016678486
0.018789895
0.016838558
0.036283441
0.03628212
0.036277645
0.036264917
0.036230367
0.036140535
0.03591682
0.035383242
0.034164308
0.031523285
0.026456862
0.019879123
0.017306891
0.019770317
0.016753165
0.036147982
0.036146234
0.036140468
0.036124584
0.036082821
0.035977497
0.035722708
0.035131018
0.033810124
0.031007717
0.025813646
0.019657797
0.018064912
0.0207586
0.016681265
0.036018143
0.036015885
0.036008605
0.035989127
0.035939416
0.035817597
0.035530799
0.034880794
0.033458783
0.030498445
0.025212142
0.019572905
0.018939949
0.021738147
0.016621966
0.03589347
0.03589061
0.035881581
0.035858069
0.035799718
0.035660549
0.035341095
0.034632853
0.033110301
0.029995409
0.024659951
0.019630248
0.019916664
0.02269449
0.016574063
0.035773545
0.035769987
0.035758968
0.035730991
0.035663366
0.035506152
0.035153669
0.034387441
0.032764498
0.029498968
0.024166686
0.019833637
0.020977366
0.023616003
0.016536152
0.035657992
0.035653635
0.035640383
0.035607524
0.035530063
0.035354279
0.034968643
0.03414475
0.03242103
0.029010211
0.023743688
0.020184173
0.022102784
0.024494228
0.016506745
0.035546464
0.035541207
0.035525479
0.035487349
0.035399574
0.035204869
0.034786172
0.033904896
0.032079439
0.028531302
0.023403466
0.020679734
0.023273104
0.025323802
0.016484372
0.035438647
0.035432386
0.035413948
0.035370193
0.035271718
0.035057919
0.034606436
0.03366791
0.03173923
0.028065808
0.023158914
0.021314706
0.0244691
0.026102089
0.016467662
0.035334251
0.035326887
0.035305516
0.035255823
0.03514637
0.034913479
0.03442962
0.033433727
0.031399978
0.02761899
0.023022388
0.022080017
0.02567317
0.026828633
0.016455398
0.035233012
0.035224448
0.035199939
0.03514405
0.035023453
0.034771643
0.034255909
0.033202186
0.031061475
0.027197981
0.02300477
0.022963453
0.026870128
0.027504567
0.016446544
0.035134691
0.035124836
0.035097009
0.035034724
0.034902936
0.03463254
0.03408547
0.032973033
0.030723902
0.0268118
0.023114633
0.02395025
0.02804767
0.028132079
0.016440248
0.035039067
0.03502784
0.034996542
0.034927732
0.034784832
0.034496333
0.033918446
0.032745938
0.030388046
0.026471167
0.023357597
0.025023883
0.02919649
0.028713983
0.016435834
0.034945943
0.034933275
0.034898386
0.034822996
0.034669194
0.034363211
0.033754944
0.032520522
0.030055535
0.026188099
0.023735915
0.026166983
0.030310099
0.029253407
0.016432778
0.034855141
0.034840974
0.034802418
0.034720475
0.034556112
0.034233382
0.033595029
0.032296402
0.029729078
0.025975302
0.024248334
0.02736225
0.031384439
0.029753594
0.016430685
0.034766502
0.034750797
0.03470854
0.034620164
0.034445715
0.034107066
0.033438713
0.032073259
0.029412693
0.025845434
0.02489019
0.028593298
0.032417399
0.030217765
0.016429265
0.034679887
0.034662624
0.034616684
0.034522088
0.034338162
0.033984492
0.033285952
0.031850929
0.029111867
0.025810314
0.025653731
0.029845306
0.033408314
0.030649046
0.016428312
0.034595176
0.034576356
0.034526808
0.034426308
0.034233647
0.033865888
0.033136649
0.03162952
0.028833633
0.025880169
0.026528619
0.031105458
0.034357529
0.031050409
0.016427682
0.034512269
0.034491917
0.034438897
0.034332917
0.034132389
0.033751478
0.032990657
0.031409555
0.028586515
0.02606301
0.027502554
0.032363144
0.035266042
0.031424648
0.01642728
0.034431083
0.034409252
0.034352965
0.034242042
0.034034637
0.033641469
0.032847794
0.031192142
0.028380315
0.026364175
0.028561978
0.033609948
0.036135248
0.031774346
0.016427047
0.034351558
0.034328331
0.034269052
0.034153841
0.033940664
0.03353605
0.032707869
0.03097915
0.028225759
0.02678609
0.029692788
0.034839473
0.03696677
0.032101874
0.01642695
0.034273652
0.034249145
0.03418723
0.034068505
0.03385076
0.033435383
0.03257072
0.030773393
0.028133997
0.02732822
0.030880993
0.036047067
0.037762344
0.032409381
0.016426974
0.034197344
0.03417171
0.034107598
0.033986257
0.033765237
0.033339598
0.032436275
0.030578781
0.028116032
0.027987224
0.032113284
0.037229503
0.038523755
0.032698799
0.016427117
0.034122637
0.034096065
0.034030285
0.033907355
0.033684417
0.033248788
0.032304627
0.030400435
0.028182107
0.02875725
0.03337746
0.038384662
0.039252794
0.032971855
0.016427382
0.034049553
0.034022276
0.033955452
0.033832084
0.033608631
0.033163012
0.03217613
0.030244714
0.02834114
0.029630358
0.034662707
0.039511265
0.039951228
0.033230086
0.016427779
0.03397814
0.033950437
0.033883292
0.033760766
0.033538214
0.033082299
0.032051523
0.030119154
0.028600247
0.030597021
0.035959727
0.04060864
0.040620777
0.033474856
0.016428318
0.033908471
0.033880668
0.033814033
0.033693749
0.033473498
0.033006661
0.031932061
0.03003229
0.028964396
0.031646652
0.037260744
0.041676558
0.0412631
0.033707373
0.01642901
0.033840644
0.033813121
0.033747936
0.033631414
0.033414804
0.032936115
0.031819661
0.029993369
0.029436211
0.032768129
0.038559405
0.042715108
0.041879779
0.033928705
0.016429865
0.033774787
0.03374798
0.033685299
0.033574167
0.033362441
0.032870717
0.031717044
0.030011961
0.030015933
0.033950283
0.039850628
0.043724612
0.042472314
0.034139802
0.016430892
0.033711057
0.03368546
0.033626458
0.03352244
0.033316699
0.032810615
0.031627853
0.030097519
0.030701523
0.035182301
0.041130415
0.044705564
0.043042113
0.034341502
0.016432097
0.033649643
0.033625814
0.033571787
0.033476689
0.033277844
0.032756113
0.031556734
0.030258904
0.031488878
0.036454044
0.042395663
0.045658586
0.043590498
0.034534553
0.016433487
0.03359077
0.033569333
0.033521698
0.033437387
0.03324612
0.032707756
0.031509357
0.030503938
0.032372144
0.037756266
0.043643994
0.046584395
0.044118699
0.034719618
0.016435064
0.033534699
0.033516348
0.033476647
0.033405019
0.033221753
0.032666433
0.031492358
0.030839027
0.033344087
0.039080734
0.044873611
0.047483769
0.044627864
0.034897289
0.016436831
0.033481731
0.033467235
0.033437127
0.033380083
0.033204961
0.032633491
0.031513197
0.031268865
0.034396491
0.040420264
0.046083175
0.048357533
0.045119059
0.035068096
0.016438788
0.033432211
0.033422413
0.033403675
0.033363076
0.033195977
0.032610856
0.031579923
0.031796264
0.035520554
0.041768689
0.047271716
0.04920653
0.045593277
0.035232514
0.016440933
0.033386531
0.033382352
0.033376864
0.033354497
0.033195078
0.03260115
0.031700871
0.03242209
0.036707255
0.043120787
0.048438562
0.050031614
0.046051437
0.035390968
0.016443266
0.033345134
0.033347573
0.033357309
0.033354836
0.033202628
0.032607792
0.031884307
0.033145318
0.037947675
0.04447218
0.049583281
0.050833633
0.046494397
0.035543844
0.016445782
0.033308518
0.033318652
0.033345661
0.033364571
0.033219143
0.032635061
0.032138042
0.033963178
0.039233251
0.045819222
0.050705639
0.051613421
0.046922952
0.035691489
0.016448478
0.033277237
0.03329622
0.033342601
0.033384174
0.033245363
0.03268811
0.03246907
0.034871382
0.040555967
0.047158892
0.05180556
0.052371795
0.04733784
0.035834219
0.016451351
0.033251914
0.033280969
0.033348845
0.033414106
0.033282345
0.032772916
0.032883246
0.035864398
0.041908472
0.048488701
0.0528831
0.053109547
0.047739749
0.03597232
0.016454394
0.033233235
0.033273652
0.033365128
0.033454835
0.033331563
0.032896165
0.033385033
0.036935759
0.043284141
0.049806604
0.053938419
0.053827443
0.048129319
0.036106053
0.016457603
0.033221962
0.033275082
0.033392211
0.033506851
0.033395016
0.03306505
0.033977334
0.038078364
0.044677086
0.051110935
0.054971757
0.054526219
0.048507145
0.036235658
0.016460974
0.033218934
0.033286139
0.033430864
0.033570696
0.033475331
0.033287021
0.034661421
0.039284778
0.046082131
0.052400342
0.055983418
0.055206587
0.048873783
0.036361356
0.016464499
0.033225073
0.033307763
0.033481871
0.033647008
0.033575845
0.033569484
0.035436951
0.040547492
0.047494762
0.053673745
0.056973754
0.055869226
0.049229756
0.036483354
0.016468174
0.033241386
0.033340956
0.033546021
0.033736578
0.03370066
0.033919477
0.036302066
0.041859137
0.048911068
0.054930292
0.05794315
0.056514769
0.049575443
0.036601083
0.01647199
0.033268972
0.03338678
0.033624112
0.033840421
0.033854652
0.034343362
0.037253557
0.043212657
0.050327672
0.056169323
0.058892008
0.057143807
0.049911242
0.036714879
0.016475942
0.033309024
0.033446355
0.033716953
0.033959861
0.034043421
0.034846539
0.038287076
0.044601425
0.051741667
0.05739034
0.059820746
0.057756912
0.050237556
0.036825046
0.016480019
0.03336283
0.033520853
0.033825376
0.034096628
0.034273183
0.035433219
0.039397375
0.046019315
0.053150559
0.058592979
0.060729792
0.058354635
0.050554797
0.036931851
0.016484214
0.033431775
0.033611491
0.033950258
0.034252955
0.034550592
0.036106274
0.040578559
0.047460739
0.054552213
0.059776993
0.061619575
0.058937454
0.050862924
0.037035581
0.016488518
0.033517344
0.033719533
0.034092549
0.034431665
0.034882517
0.036867154
0.041824324
0.048920651
0.055944807
0.060942228
0.062490517
0.059505811
0.051162152
0.037136397
0.016492923
0.033621114
0.033846282
0.034253324
0.034636251
0.035275767
0.037715885
0.04312818
0.050394527
0.057326793
0.062088607
0.063343036
0.060060164
0.051452982
0.037234385
0.016497425
0.033744758
0.03399308
0.034433836
0.034870908
0.035736814
0.038651139
0.04448364
0.051878338
0.058696859
0.063216115
0.064177553
0.060600974
0.051735851
0.037329654
0.016502019
0.033890035
0.034161309
0.034635592
0.035140534
0.036271506
0.039670362
0.045884371
0.053368507
0.0600539
0.064324795
0.064994472
0.061128573
0.052011163
0.037422331
0.0165067
0.034058787
0.034352406
0.034860442
0.035450673
0.036884818
0.040769941
0.047324308
0.054861871
0.06139699
0.065414726
0.065794143
0.061642947
0.052279305
0.037512563
0.016511467
0.034252938
0.034567873
0.035110665
0.035807393
0.037580648
0.041945411
0.048797738
0.056355639
0.062725356
0.066486017
0.066576929
0.062144667
0.052540483
0.037600453
0.016516317
0.034474482
0.034809315
0.035389066
0.036217116
0.038361674
0.043191655
0.050299338
0.057847355
0.064038356
0.067538804
0.067343213
0.062634244
0.052794917
0.037686088
0.016521247
0.03472549
0.035078475
0.035699052
0.036686392
0.039229276
0.044503118
0.051824204
0.059334858
0.065335461
0.068573251
0.068093394
0.063112137
0.053042836
0.037769546
0.016526253
0.035008111
0.035377301
0.036044684
0.037221647
0.040183535
0.045873993
0.053367851
0.060816256
0.066616244
0.069589501
0.06882737
0.063578807
0.05328449
0.037850923
0.016531331
0.03532459
0.035708009
0.036430697
0.037828912
0.041223288
0.047298393
0.054926197
0.06228989
0.06788035
0.070587708
0.069545619
0.064034565
0.053520087
0.037930306
0.016536479
0.035677287
0.036073176
0.036862464
0.038513564
0.042346234
0.048770488
0.056495549
0.063754305
0.069127489
0.071568061
0.070248613
0.064479709
0.053749815
0.038007771
0.016541693
0.036068722
0.036475822
0.037345904
0.0392801
0.043549089
0.050284611
0.05807257
0.065208225
0.070357433
0.072530785
0.070936787
0.064914535
0.05397385
0.03808338
0.016546969
0.036501629
0.036919505
0.037887339
0.04013195
0.044827757
0.051835339
0.059654259
0.066650547
0.07157
0.073475727
0.071610523
0.065339341
0.054192383
0.038157196
0.016552305
0.036979024
0.037408385
0.038493286
0.041071363
0.046177515
0.053417545
0.061237918
0.068080293
0.072765014
0.074403188
0.072270171
0.065754389
0.05440559
0.038229281
0.016557696
0.037504285
0.037947269
0.039170217
0.042099339
0.047593198
0.055026427
0.062821117
0.069496596
0.073942365
0.075313493
0.072916047
0.066159928
0.054613631
0.038299687
0.01656314
0.038081239
0.038541606
0.039924298
0.043215645
0.049069365
0.056657519
0.064401679
0.070898703
0.07510191
0.076206924
0.073548449
0.0665562
0.054816652
0.038368466
0.016568632
0.038714235
0.039197428
0.040761122
0.044418872
0.050600457
0.058306695
0.065977656
0.072285945
0.076243439
0.077083726
0.074167653
0.066943445
0.055014794
0.038435662
0.01657417
0.039408189
0.039921224
0.041685466
0.045706547
0.052180913
0.059970151
0.067547278
0.073657702
0.077366975
0.077944205
0.074773922
0.067321889
0.055208189
0.038501318
0.016579751
0.040168598
0.040719751
0.042701085
0.047075278
0.053805274
0.06164439
0.069108948
0.075013441
0.078472605
0.078788616
0.075367508
0.067691736
0.055396963
0.038565473
0.01658537
0.041001481
0.041599794
0.043810571
0.048520921
0.05546826
0.063326225
0.07066126
0.076352561
0.07956026
0.079617162
0.075948662
0.068053183
0.055581229
0.038628161
0.016591025
0.041913255
0.042567874
0.045015258
0.050038745
0.057164817
0.065012719
0.072202872
0.077674598
0.080630131
0.080430046
0.076517619
0.068406418
0.055761094
0.038689414
0.016596712
0.04291053
0.043629947
0.046315206
0.051623604
0.058890142
0.066701163
0.073732565
0.078979242
0.081682351
0.081227469
0.077074598
0.068751613
0.055936658
0.038749263
0.016602429
0.043999832
0.044791103
0.047709233
0.053270088
0.060639726
0.068389123
0.0752492
0.080266022
0.082716969
0.082009629
0.077619803
0.069088931
0.056108014
0.038807734
0.016608172
0.04518727
0.046055291
0.049195002
0.054972654
0.062409319
0.070074284
0.076751677
0.081534842
0.083734046
0.082776706
0.078153428
0.069418522
0.056275246
0.038864851
0.016613937
0.046478159
0.0474251
0.050769143
0.056725732
0.064194933
0.071754499
0.078239057
0.082785577
0.084733649
0.083528869
0.078675653
0.069740524
0.056438431
0.038920634
0.016619723
0.047876657
0.048901593
0.052427398
0.058523827
0.065992886
0.073427801
0.079710317
0.084018004
0.085715841
0.084266274
0.079186642
0.070055067
0.056597641
0.038975103
0.016625525
0.049385428
0.050484224
0.054164767
0.060361538
0.067799632
0.075092232
0.081164969
0.085231942
0.086680673
0.08498906
0.079686545
0.070362266
0.056752939
0.039028274
0.016631341
0.051005369
0.052170822
0.055975678
0.062233669
0.069611912
0.076745843
0.08260239
0.086427214
0.087628186
0.085697355
0.080175501
0.070662228
0.056904383
0.039080161
0.016637167
0.052735432
0.053957639
0.057854089
0.064135124
0.071426501
0.078387241
0.084021972
0.087603646
0.088558406
0.086391267
0.08065363
0.070955047
0.057052024
0.039130776
0.016643001
0.054572565
0.05583947
0.059793654
0.066061021
0.073240171
0.080015136
0.085423137
0.088761058
0.089471348
0.087070889
0.081121041
0.071240807
0.057195908
0.039180127
0.016648839
0.056511748
0.057809793
0.061787722
0.068006441
0.075050349
0.081628268
0.08680533
0.089899261
0.090367006
0.087736296
0.081577824
0.071519582
0.057336071
0.039228222
0.016654679
0.058546149
0.059860953
0.063829426
0.069966592
0.076854664
0.083225439
0.088168004
0.091018056
0.091245359
0.088387544
0.082024056
0.071791433
0.057472546
0.039275065
0.016660517
0.060667304
0.061984238
0.065911624
0.071937313
0.078650864
0.084805503
0.08951062
0.092117231
0.092106365
0.089024672
0.082459798
0.07205641
0.05760536
0.039320659
0.01666635
0.062865323
0.064170254
0.068027489
0.073914593
0.080436797
0.086367353
0.090832641
0.093196559
0.092949961
0.089647696
0.082885094
0.072314554
0.05773453
0.039365003
0.016672175
0.065129352
0.066409207
0.070170239
0.075894565
0.082210406
0.087909918
0.092133527
0.094255793
0.093776063
0.090256614
0.083299974
0.072565892
0.057860069
0.039408095
0.016677989
0.067447957
0.068691091
0.07233318
0.077873486
0.08396971
0.089432152
0.093412735
0.09529467
0.094584564
0.090851402
0.083704447
0.072810441
0.057981985
0.039449931
0.016683788
0.069809476
0.071005884
0.074509742
0.079847731
0.085712793
0.090933032
0.094669717
0.096312908
0.095375335
0.091432017
0.08409851
0.073048206
0.058100276
0.039490502
0.01668957
0.07220233
0.07334373
0.076693516
0.081813782
0.087437802
0.092411556
0.095903917
0.097310204
0.096148225
0.091998392
0.084482141
0.07327918
0.058214936
0.0395298
0.01669533
0.074615287
0.075695097
0.07887829
0.083768228
0.089142933
0.093866737
0.097114774
0.09828624
0.096903061
0.092550443
0.084855302
0.073503346
0.058325951
0.039567812
0.016701064
0.077037668
0.078050902
0.081058092
0.085707765
0.090826433
0.095297606
0.098301725
0.099240681
0.09763965
0.093088064
0.085217938
0.073720673
0.058433302
0.039604524
0.016706771
0.079459497
0.080402617
0.083227224
0.087629197
0.092486594
0.096703209
0.0994642
0.10017318
0.098357779
0.093611132
0.085569981
0.073931121
0.058536962
0.039639918
0.016712444
0.081871601
0.082742333
0.085380296
0.089529451
0.094121758
0.098082615
0.10060164
0.10108337
0.099057222
0.094119507
0.085911345
0.07413464
0.058636899
0.039673976
0.016718081
0.084265671
0.085062815
0.087512256
0.091405582
0.095730321
0.099434911
0.10171347
0.1019709
0.099737738
0.094613033
0.086241933
0.074331168
0.058733075
0.039706676
0.016723677
0.086634273
0.08735752
0.089618417
0.093254792
0.097310734
0.10075921
0.10279916
0.10283539
0.10039908
0.095091543
0.086561635
0.074520635
0.058825446
0.039737994
0.016729227
0.088970845
0.089620604
0.091694471
0.095074436
0.098861514
0.10205467
0.10385815
0.10367649
0.10104098
0.09555486
0.086870333
0.074702962
0.058913963
0.039767904
0.016734728
0.091269665
0.091846905
0.093736503
0.096862041
0.10038125
0.10332047
0.10488995
0.10449382
0.1016632
0.0960028
0.087167898
0.074878065
0.058998573
0.039796379
0.016740174
0.093525801
0.094031924
0.095740994
0.098615315
0.10186861
0.10455583
0.10589405
0.10528706
0.10226548
0.096435177
0.087454197
0.075045853
0.059079219
0.03982339
0.016745561
0.095735061
0.096171784
0.097704817
0.10033216
0.10332235
0.10576003
0.10687
0.10605587
0.10284756
0.096851805
0.087729095
0.075206232
0.059155842
0.039848907
0.016750882
0.097893929
0.098263195
0.099625234
0.10201067
0.10474132
0.10693241
0.10781737
0.10679996
0.10340923
0.097252505
0.087992456
0.075359105
0.059228381
0.0398729
0.016756134
0.099999506
0.10030341
0.10149988
0.10364914
0.10612448
0.10807234
0.10873578
0.10751904
0.10395026
0.097637103
0.088244147
0.075504377
0.059296774
0.039895338
0.01676131
0.10204945
0.10229017
0.10332674
0.10524607
0.10747089
0.10917929
0.1096249
0.10821289
0.10447047
0.098005442
0.088484042
0.075641955
0.059360961
0.039916191
0.016766405
0.1040419
0.10422167
0.10510414
0.10680018
0.10877972
0.11025276
0.11048443
0.10888128
0.10496968
0.098357379
0.088712023
0.075771749
0.059420882
0.03993543
0.016771414
0.10597547
0.10609652
0.10683074
0.10831036
0.11005025
0.11129237
0.11131414
0.10952407
0.10544776
0.098692793
0.088927986
0.075893677
0.059476483
0.039953026
0.01677633
0.10784912
0.10791367
0.10850545
0.10977572
0.1112819
0.11229777
0.11211384
0.11014113
0.10590461
0.099011585
0.089131841
0.076007666
0.059527712
0.039968954
0.016781148
0.10966218
0.10967242
0.1101275
0.11119554
0.11247417
0.1132687
0.11288341
0.11073238
0.10634016
0.099313685
0.089323517
0.076113654
0.059574526
0.039983191
0.016785862
0.11141428
0.11137234
0.11169632
0.11256928
0.11362671
0.11420498
0.11362278
0.1112978
0.10675437
0.099599049
0.089502963
0.076211592
0.059616888
0.039995719
0.016790467
0.11310531
0.11301326
0.11321161
0.11389658
0.11473925
0.11510652
0.11433194
0.11183741
0.10714727
0.099867668
0.089670151
0.076301447
0.059654769
0.04000652
0.016794957
0.11473537
0.11459522
0.11467322
0.11517722
0.11581165
0.11597327
0.11501094
0.11235127
0.10751891
0.10011956
0.089825077
0.0763832
0.059688152
0.040015585
0.016799326
0.11630478
0.11611846
0.11608124
0.11641114
0.11684388
0.11680528
0.11565989
0.11283951
0.10786937
0.10035479
0.089967764
0.076456854
0.059717029
0.040022907
0.01680357
0.11781403
0.11758341
0.11743587
0.11759842
0.11783597
0.11760267
0.11627895
0.1133023
0.10819879
0.10057344
0.090098261
0.076522427
0.059741405
0.040028486
0.016807684
0.11926374
0.11899062
0.11873748
0.11873924
0.1187881
0.11836563
0.11686834
0.11373984
0.10850736
0.10077564
0.090216646
0.076579959
0.059761296
0.040032326
0.016811663
0.12065468
0.12034078
0.11998658
0.11983391
0.1197005
0.11909441
0.11742832
0.11415239
0.10879529
0.10096156
0.090323023
0.076629512
0.059776733
0.040034439
0.016815503
0.1219877
0.12163469
0.12118377
0.12088286
0.12057349
0.11978931
0.11795923
0.11454027
0.10906283
0.10113138
0.090417528
0.076671167
0.059787758
0.040034842
0.016819199
0.12326377
0.12287323
0.12232975
0.12188659
0.12140747
0.12045073
0.11846142
0.11490381
0.10931028
0.10128533
0.09050032
0.076705025
0.059794429
0.040033557
0.01682275
0.12448392
0.12405738
0.12342532
0.1228457
0.12220291
0.12107908
0.11893531
0.1152434
0.10953798
0.10142369
0.090571589
0.076731211
0.059796816
0.040030616
0.016826151
0.12564926
0.12518818
0.12447134
0.12376083
0.12296036
0.12167485
0.11938137
0.11555945
0.10974628
0.10154673
0.090631548
0.076749867
0.059795001
0.040026052
0.016829401
0.12676094
0.12626673
0.12546875
0.12463273
0.12368039
0.12223856
0.11980007
0.11585243
0.10993558
0.10165479
0.090680438
0.076761155
0.05978908
0.040019908
0.016832497
0.12782015
0.12729417
0.12641854
0.12546219
0.12436367
0.12277079
0.12019196
0.11612282
0.11010632
0.1017482
0.090718521
0.076765256
0.059779162
0.04001223
0.016835437
0.12882813
0.12827167
0.12732173
0.12625005
0.12501087
0.12327214
0.12055759
0.11637113
0.11025892
0.10182733
0.09074608
0.076762369
0.059765366
0.040003071
0.016838222
0.12978616
0.12920047
0.1281794
0.12699719
0.12562273
0.12374326
0.12089755
0.11659791
0.11039388
0.10189259
0.090763421
0.076752707
0.059747821
0.039992488
0.01684085
0.13069551
0.13008178
0.12899264
0.12770452
0.12620003
0.12418483
0.12121247
0.11680371
0.11051169
0.10194439
0.090770866
0.0767365
0.05972667
0.039980541
0.016843322
0.1315575
0.13091688
0.12976259
0.12837301
0.12674356
0.12459755
0.12150297
0.11698912
0.11061285
0.10198315
0.090768753
0.07671399
0.059702059
0.039967297
0.016845638
0.13237343
0.13170703
0.1304904
0.12900364
0.12725415
0.12498215
0.12176973
0.11715474
0.11069791
0.10200933
0.090757434
0.076685429
0.059674145
0.039952824
0.016847798
0.13314462
0.13245351
0.13117722
0.12959739
0.12773266
0.12533936
0.1220134
0.11730117
0.1107674
0.10202338
0.090737274
0.076651082
0.059643092
0.039937192
0.016849806
0.13387241
0.13315761
0.13182423
0.13015529
0.12817994
0.12566996
0.12223469
0.11742904
0.11082188
0.10202577
0.090708649
0.076611221
0.059609069
0.039920478
0.016851662
0.13455811
0.13382061
0.13243261
0.13067836
0.12859689
0.12597472
0.12243429
0.117539
0.11086191
0.10201698
0.090671941
0.076566124
0.059572248
0.039902755
0.016853369
0.13520305
0.13444379
0.13300354
0.13116764
0.1289844
0.12625443
0.1226129
0.11763166
0.11088805
0.10199751
0.090627539
0.076516077
0.059532807
0.0398841
0.01685493
0.13580853
0.13502843
0.13353819
0.13162418
0.12934338
0.12650988
0.12277125
0.11770769
0.11090089
0.10196783
0.090575837
0.076461367
0.059490926
0.039864592
0.016856347
0.13637586
0.1355758
0.13403776
0.13204901
0.12967472
0.12674186
0.12291005
0.11776773
0.11090099
0.10192844
0.090517231
0.076402285
0.059446783
0.039844308
0.016857624
0.13690632
0.13608715
0.1345034
0.13244317
0.12997935
0.12695119
0.12303001
0.11781242
0.11088894
0.10187983
0.090452119
0.076339122
0.05940056
0.039823325
0.016858766
0.13740121
0.13656373
0.13493629
0.13280772
0.13025816
0.12713866
0.12313186
0.11784241
0.1108653
0.1018225
0.090380898
0.07627217
0.059352439
0.039801721
0.016859774
0.13786176
0.13700677
0.13533756
0.13314366
0.13051207
0.12730507
0.1232163
0.11785835
0.11083064
0.10175693
0.090303963
0.076201717
0.059302596
0.039779571
0.016860655
0.13828924
0.13741748
0.13570837
0.13345204
0.13074198
0.12745122
0.12328406
0.11786088
0.11078554
0.1016836
0.090221704
0.076128052
0.05925121
0.039756951
0.016861411
0.13868486
0.13779707
0.13604982
0.13373387
0.13094878
0.1275779
0.12333584
0.11785062
0.11073055
0.101603
0.09013451
0.076051457
0.059198455
0.039733931
0.016862049
0.13904982
0.1381467
0.13636304
0.13399014
0.13113337
0.1276859
0.12337233
0.1178282
0.11066622
0.10151561
0.090042761
0.075972211
0.059144499
0.039710584
0.016862571
0.13938532
0.13846755
0.13664911
0.13422185
0.13129661
0.12777598
0.12339423
0.11779424
0.1105931
0.10142187
0.089946831
0.075890586
0.05908951
0.039686977
0.016862983
0.13969252
0.13876073
0.1369091
0.13442998
0.13143938
0.12784892
0.12340222
0.11774935
0.11051173
0.10132226
0.089847089
0.075806848
0.059033649
0.039663177
0.016863289
0.13997254
0.13902737
0.13714407
0.13461547
0.13156252
0.12790546
0.12339697
0.11769412
0.11042263
0.10121722
0.089743891
0.075721258
0.058977073
0.039639246
0.016863495
0.14022651
0.13926856
0.13735505
0.13477928
0.13166688
0.12794637
0.12337914
0.11762914
0.11032631
0.10110718
0.089637587
0.075634068
0.058919931
0.039615245
0.016863605
0.14045552
0.13948537
0.13754305
0.13492232
0.13175328
0.12797235
0.12334938
0.11755499
0.11022327
0.10099258
0.089528517
0.07554552
0.058862369
0.039591232
0.016863624
0.14066063
0.13967884
0.13770905
0.13504551
0.13182253
0.12798413
0.12330832
0.11747222
0.11011402
0.10087381
0.089417009
0.075455849
0.058804526
0.03956726
0.016863557
0.14084289
0.13984999
0.13785404
0.13514972
0.13187542
0.12798242
0.12325658
0.11738139
0.10999902
0.1007513
0.089303382
0.075365284
0.058746534
0.039543381
0.016863408
0.14100331
0.13999981
0.13797894
0.13523583
0.13191273
0.12796789
0.12319477
0.11728303
0.10987873
0.10062542
0.089187943
0.075274039
0.058688519
0.039519642
0.016863183
0.14114288
0.14012928
0.13808469
0.13530469
0.13193522
0.12794122
0.12312349
0.11717766
0.10975362
0.10049656
0.089070988
0.075182323
0.058630602
0.03949609
0.016862885
0.14126256
0.14023934
0.13817218
0.13535712
0.13194363
0.12790307
0.12304331
0.11706579
0.10962412
0.10036507
0.0889528
0.075090334
0.058572894
0.039472765
0.016862519
0.1413633
0.14033092
0.13824229
0.13539392
0.13193869
0.12785408
0.1229548
0.11694791
0.10949065
0.10023132
0.088833652
0.074998261
0.058515502
0.039449708
0.01686209
0.141446
0.14040489
0.13829586
0.13541588
0.13192109
0.12779487
0.1228585
0.1168245
0.10935362
0.10009563
0.088713804
0.074906282
0.058458526
0.039426952
0.016861602
0.14151156
0.14046215
0.13833373
0.13542377
0.13189152
0.12772605
0.12275495
0.11669602
0.10921342
0.099958328
0.088593505
0.074814566
0.058402059
0.039404532
0.016861059
0.14156083
0.14050353
0.1383567
0.13541832
0.13185066
0.12764821
0.12264467
0.11656293
0.10907044
0.099819731
0.088472991
0.074723274
0.058346187
0.039382478