/*--------------------------------*- C++ -*----------------------------------*\
| =========                 |                                                 |
| \\      /  F ield         | OpenFOAM: The Open Source CFD Toolbox           |
|  \\    /   O peration     | Version:  2506                                  |
|   \\  /    A nd           | Website:  www.openfoam.com                      |
|    \\/     M anipulation  |                                                 |
\*---------------------------------------------------------------------------*/
FoamFile
{
    version     2.0;
    format      ascii;
    arch        "LSB;label=32;scalar=64";
    class       volScalarField;
    location    "23000/water";
    object      T;
}
// * * * * * * * * * * * * * * * * * * * * * * * * * * * * * * * * * * * * * //

dimensions      [0 0 0 1 0 0 0];

internalField   nonuniform List<scalar> 
6000
(
333.15
333.15
333.15
333.15
333.15
333.15
333.15
333.15
333.15
333.15
333.15
333.14998
333.14989
333.14924
333.14256
333.15
333.15
333.15
333.15
333.15
333.15
333.15
333.15
333.15
333.15
333.14999
333.14994
333.14968
333.14816
333.13667
333.15
333.15
333.15
333.15
333.15
333.15
333.15
333.15
333.15
333.14999
333.14997
333.14987
333.14939
333.14689
333.13172
333.15
333.15
333.15
333.15
333.15
333.15
333.15
333.15
333.15
333.14999
333.14994
333.14976
333.14903
333.14547
333.1274
333.15
333.15
333.15
333.15
333.15
333.15
333.15
333.15
333.14999
333.14997
333.1499
333.14963
333.1486
333.14396
333.12352
333.15
333.15
333.15
333.15
333.15
333.15
333.15
333.15
333.14999
333.14996
333.14985
333.14947
333.14812
333.14237
333.11999
333.15
333.15
333.15
333.15
333.15
333.15
333.15
333.14999
333.14998
333.14994
333.14978
333.14929
333.1476
333.14073
333.11675
333.15
333.15
333.15
333.15
333.15
333.15
333.15
333.14999
333.14997
333.14991
333.1497
333.14909
333.14703
333.13906
333.11374
333.15
333.15
333.15
333.15
333.15
333.15
333.15
333.14999
333.14996
333.14987
333.14961
333.14886
333.14643
333.13737
333.11094
333.15
333.15
333.15
333.15
333.15
333.15
333.14999
333.14998
333.14994
333.14983
333.14951
333.14862
333.14578
333.13567
333.10832
333.15
333.15
333.15
333.15
333.15
333.15
333.14999
333.14998
333.14993
333.14978
333.1494
333.14836
333.1451
333.13397
333.10588
333.15
333.15
333.15
333.15
333.15
333.15
333.14999
333.14997
333.1499
333.14973
333.14928
333.14807
333.14437
333.13227
333.10359
333.15
333.15
333.15
333.15
333.15
333.14999
333.14998
333.14996
333.14988
333.14967
333.14915
333.14777
333.14361
333.1306
333.10145
333.15
333.15
333.15
333.15
333.15
333.14999
333.14998
333.14994
333.14985
333.14961
333.14901
333.14745
333.1428
333.12894
333.09946
333.15
333.15
333.15
333.15
333.15
333.14999
333.14997
333.14993
333.14982
333.14954
333.14886
333.1471
333.14196
333.12731
333.09761
333.15
333.15
333.15
333.15
333.15
333.14999
333.14997
333.14991
333.14978
333.14946
333.1487
333.14673
333.14107
333.12572
333.0959
333.15
333.15
333.15
333.15
333.14999
333.14998
333.14996
333.1499
333.14974
333.14938
333.14852
333.14634
333.14013
333.12417
333.09432
333.15
333.15
333.15
333.15
333.14999
333.14998
333.14995
333.14988
333.1497
333.14929
333.14834
333.14591
333.13916
333.12267
333.09286
333.15
333.15
333.15
333.15
333.14999
333.14998
333.14994
333.14985
333.14965
333.1492
333.14814
333.14546
333.13815
333.12122
333.09154
333.15
333.15
333.15
333.14999
333.14999
333.14997
333.14993
333.14983
333.1496
333.1491
333.14793
333.14497
333.1371
333.11982
333.09033
333.15
333.15
333.15
333.14999
333.14999
333.14997
333.14992
333.1498
333.14955
333.14899
333.1477
333.14444
333.13602
333.11848
333.08923
333.15
333.15
333.15
333.14999
333.14998
333.14996
333.1499
333.14977
333.14949
333.14887
333.14745
333.14388
333.13491
333.11721
333.08824
333.15
333.15
333.15
333.14999
333.14998
333.14995
333.14989
333.14974
333.14943
333.14875
333.14719
333.14328
333.1338
333.116
333.08734
333.15
333.15
333.14999
333.14999
333.14998
333.14994
333.14987
333.14971
333.14936
333.14861
333.1469
333.14264
333.13267
333.11485
333.08654
333.15
333.15
333.14999
333.14999
333.14997
333.14993
333.14985
333.14967
333.14929
333.14847
333.14659
333.14195
333.13155
333.11377
333.08581
333.15
333.15
333.14999
333.14998
333.14997
333.14992
333.14983
333.14963
333.14921
333.14831
333.14625
333.14123
333.13043
333.11275
333.08515
333.15
333.15
333.14999
333.14998
333.14996
333.14991
333.14981
333.14959
333.14913
333.14815
333.14589
333.14047
333.12933
333.11179
333.08456
333.15
333.14999
333.14999
333.14998
333.14996
333.1499
333.14979
333.14954
333.14904
333.14797
333.14549
333.13968
333.12826
333.11089
333.08403
333.15
333.14999
333.14999
333.14998
333.14995
333.14989
333.14976
333.14949
333.14895
333.14777
333.14507
333.13886
333.12722
333.11003
333.08355
333.14999
333.14999
333.14999
333.14997
333.14994
333.14987
333.14973
333.14944
333.14884
333.14756
333.14461
333.13801
333.12621
333.10923
333.08311
333.14999
333.14999
333.14998
333.14997
333.14993
333.14986
333.1497
333.14939
333.14873
333.14733
333.14412
333.13716
333.12523
333.10848
333.08271
333.14999
333.14999
333.14998
333.14996
333.14992
333.14984
333.14967
333.14932
333.14862
333.14708
333.14359
333.13629
333.1243
333.10777
333.08235
333.14999
333.14999
333.14998
333.14996
333.14991
333.14982
333.14964
333.14926
333.14849
333.14681
333.14304
333.13542
333.1234
333.1071
333.08202
333.14999
333.14999
333.14998
333.14995
333.1499
333.1498
333.1496
333.14919
333.14835
333.14652
333.14245
333.13456
333.12254
333.10646
333.08171
333.14999
333.14998
333.14997
333.14995
333.14989
333.14978
333.14956
333.14911
333.1482
333.1462
333.14184
333.1337
333.12172
333.10587
333.08143
333.14999
333.14998
333.14997
333.14994
333.14988
333.14976
333.14952
333.14903
333.14803
333.14586
333.1412
333.13286
333.12093
333.1053
333.08117
333.14999
333.14998
333.14997
333.14993
333.14987
333.14974
333.14947
333.14895
333.14786
333.14549
333.14054
333.13203
333.12018
333.10476
333.08094
333.14998
333.14998
333.14996
333.14993
333.14985
333.14971
333.14942
333.14885
333.14766
333.1451
333.13987
333.13122
333.11946
333.10425
333.08072
333.14998
333.14998
333.14996
333.14992
333.14984
333.14968
333.14937
333.14875
333.14746
333.14467
333.13918
333.13043
333.11878
333.10377
333.08051
333.14998
333.14997
333.14995
333.14991
333.14982
333.14965
333.14931
333.14864
333.14723
333.14423
333.13849
333.12966
333.11812
333.10331
333.08032
333.14998
333.14997
333.14995
333.1499
333.1498
333.14962
333.14925
333.14852
333.14698
333.14376
333.13779
333.12892
333.11749
333.10288
333.08014
333.14997
333.14996
333.14994
333.14989
333.14978
333.14958
333.14918
333.14839
333.14672
333.14326
333.1371
333.1282
333.11689
333.10246
333.07998
333.14997
333.14996
333.14993
333.14988
333.14976
333.14954
333.14911
333.14824
333.14643
333.14275
333.1364
333.1275
333.11631
333.10206
333.07982
333.14997
333.14996
333.14993
333.14986
333.14974
333.1495
333.14903
333.14809
333.14612
333.14222
333.13572
333.12682
333.11576
333.10169
333.07968
333.14996
333.14995
333.14992
333.14985
333.14972
333.14946
333.14895
333.14792
333.14579
333.14167
333.13504
333.12617
333.11523
333.10132
333.07955
333.14996
333.14995
333.14991
333.14984
333.14969
333.14941
333.14886
333.14774
333.14544
333.14111
333.13437
333.12554
333.11472
333.10098
333.07942
333.14995
333.14994
333.1499
333.14982
333.14966
333.14936
333.14876
333.14754
333.14507
333.14054
333.13371
333.12493
333.11423
333.10065
333.07931
333.14995
333.14993
333.14989
333.1498
333.14963
333.1493
333.14865
333.14733
333.14468
333.13997
333.13307
333.12433
333.11375
333.10033
333.0792
333.14994
333.14993
333.14988
333.14979
333.1496
333.14924
333.14854
333.1471
333.14427
333.13939
333.13244
333.12376
333.1133
333.10003
333.07909
333.14994
333.14992
333.14987
333.14977
333.14957
333.14918
333.14841
333.14686
333.14384
333.13881
333.13182
333.12321
333.11286
333.09973
333.079
333.14993
333.14991
333.14986
333.14974
333.14953
333.14911
333.14827
333.14659
333.1434
333.13823
333.13122
333.12267
333.11244
333.09945
333.07891
333.14993
333.1499
333.14984
333.14972
333.14949
333.14903
333.14812
333.14631
333.14294
333.13765
333.13063
333.12215
333.11203
333.09918
333.07883
333.14992
333.14989
333.14983
333.1497
333.14944
333.14894
333.14796
333.14601
333.14247
333.13707
333.13006
333.12165
333.11164
333.09892
333.07875
333.14991
333.14988
333.14981
333.14967
333.14939
333.14885
333.14779
333.14569
333.14199
333.1365
333.1295
333.12116
333.11126
333.09868
333.07868
333.1499
333.14987
333.1498
333.14964
333.14934
333.14876
333.1476
333.14536
333.1415
333.13594
333.12895
333.12069
333.11089
333.09843
333.07861
333.14989
333.14986
333.14978
333.14961
333.14928
333.14865
333.1474
333.14501
333.14101
333.13539
333.12842
333.12023
333.11054
333.0982
333.07854
333.14988
333.14985
333.14976
333.14958
333.14922
333.14853
333.14718
333.14464
333.14051
333.13484
333.1279
333.11979
333.1102
333.09798
333.07848
333.14987
333.14983
333.14974
333.14954
333.14916
333.14841
333.14695
333.14426
333.14001
333.1343
333.1274
333.11936
333.10986
333.09776
333.07843
333.14986
333.14982
333.14971
333.1495
333.14908
333.14827
333.1467
333.14387
333.13951
333.13377
333.1269
333.11894
333.10954
333.09756
333.07838
333.14985
333.1498
333.14969
333.14946
333.149
333.14812
333.14643
333.14346
333.139
333.13325
333.12642
333.11854
333.10923
333.09736
333.07833
333.14983
333.14978
333.14966
333.14941
333.14892
333.14797
333.14615
333.14304
333.1385
333.13274
333.12595
333.11814
333.10893
333.09716
333.07829
333.14982
333.14976
333.14963
333.14936
333.14883
333.14779
333.14586
333.14262
333.138
333.13224
333.1255
333.11776
333.10863
333.09697
333.07824
333.1498
333.14974
333.1496
333.1493
333.14872
333.14761
333.14555
333.14219
333.13751
333.13174
333.12505
333.11738
333.10835
333.09679
333.07821
333.14978
333.14972
333.14956
333.14924
333.14861
333.14741
333.14523
333.14175
333.13702
333.13126
333.12462
333.11702
333.10807
333.09661
333.07817
333.14976
333.1497
333.14952
333.14918
333.1485
333.1472
333.14489
333.14131
333.13653
333.13079
333.12419
333.11666
333.1078
333.09644
333.07814
333.14974
333.14967
333.14948
333.1491
333.14837
333.14698
333.14454
333.14086
333.13605
333.13032
333.12378
333.11632
333.10754
333.09628
333.07811
333.14972
333.14964
333.14944
333.14903
333.14823
333.14674
333.14418
333.14041
333.13557
333.12987
333.12337
333.11598
333.10728
333.09612
333.07808
333.14969
333.14961
333.14939
333.14894
333.14808
333.14648
333.14381
333.13996
333.1351
333.12942
333.12298
333.11566
333.10703
333.09596
333.07805
333.14967
333.14957
333.14933
333.14885
333.14792
333.14621
333.14343
333.13951
333.13464
333.12898
333.12259
333.11534
333.10679
333.09581
333.07803
333.14964
333.14954
333.14928
333.14875
333.14774
333.14593
333.14304
333.13906
333.13418
333.12855
333.12221
333.11503
333.10656
333.09566
333.07801
333.14961
333.1495
333.14921
333.14864
333.14756
333.14564
333.14265
333.13862
333.13373
333.12813
333.12184
333.11472
333.10633
333.09552
333.07799
333.14957
333.14945
333.14914
333.14852
333.14736
333.14533
333.14225
333.13817
333.13329
333.12772
333.12148
333.11442
333.1061
333.09538
333.07797
333.14953
333.1494
333.14907
333.1484
333.14715
333.14501
333.14184
333.13773
333.13285
333.12732
333.12113
333.11413
333.10588
333.09525
333.07795
333.14949
333.14935
333.14899
333.14826
333.14692
333.14468
333.14144
333.13729
333.13242
333.12692
333.12079
333.11385
333.10567
333.09511
333.07793
333.14944
333.14929
333.1489
333.14811
333.14668
333.14434
333.14102
333.13685
333.13199
333.12653
333.12045
333.11357
333.10546
333.09499
333.07792
333.14939
333.14923
333.1488
333.14795
333.14643
333.14399
333.14061
333.13642
333.13157
333.12615
333.12012
333.1133
333.10526
333.09486
333.0779
333.14934
333.14916
333.14869
333.14778
333.14616
333.14364
333.1402
333.13599
333.13116
333.12577
333.11979
333.11303
333.10506
333.09474
333.07789
333.14928
333.14908
333.14858
333.14759
333.14588
333.14327
333.13978
333.13557
333.13076
333.12541
333.11947
333.11277
333.10486
333.09462
333.07788
333.14921
333.149
333.14845
333.1474
333.14559
333.1429
333.13937
333.13515
333.13036
333.12505
333.11916
333.11252
333.10467
333.0945
333.07787
333.14914
333.14891
333.14832
333.14719
333.14529
333.14252
333.13895
333.13473
333.12996
333.12469
333.11886
333.11227
333.10449
333.09439
333.07785
333.14906
333.14881
333.14817
333.14696
333.14498
333.14214
333.13854
333.13432
333.12958
333.12434
333.11856
333.11203
333.1043
333.09428
333.07784
333.14897
333.1487
333.14801
333.14673
333.14466
333.14176
333.13813
333.13391
333.1292
333.124
333.11826
333.11179
333.10412
333.09417
333.07783
333.14888
333.14858
333.14784
333.14648
333.14433
333.14137
333.13772
333.13351
333.12882
333.12366
333.11798
333.11155
333.10395
333.09406
333.07782
333.14877
333.14845
333.14765
333.14621
333.14399
333.14098
333.13731
333.13311
333.12845
333.12333
333.11769
333.11132
333.10378
333.09396
333.07782
333.14866
333.14831
333.14746
333.14594
333.14364
333.14059
333.13691
333.13272
333.12809
333.12301
333.11741
333.1111
333.10361
333.09385
333.07781
333.14853
333.14816
333.14725
333.14565
333.14328
333.14019
333.13651
333.13233
333.12773
333.12269
333.11714
333.11088
333.10344
333.09375
333.0778
333.14839
333.14799
333.14702
333.14535
333.14292
333.1398
333.13611
333.13195
333.12737
333.12238
333.11687
333.11066
333.10328
333.09365
333.07779
333.14824
333.14781
333.14678
333.14504
333.14255
333.1394
333.13571
333.13157
333.12703
333.12207
333.11661
333.11044
333.10312
333.09355
333.07778
333.14807
333.14762
333.14653
333.14472
333.14218
333.13901
333.13531
333.13119
333.12668
333.12177
333.11635
333.11023
333.10296
333.09346
333.07777
333.14789
333.1474
333.14626
333.14439
333.1418
333.13861
333.13492
333.13082
333.12635
333.12147
333.1161
333.11003
333.10281
333.09336
333.07776
333.14769
333.14718
333.14598
333.14404
333.14142
333.13822
333.13454
333.13046
333.12601
333.12117
333.11585
333.10982
333.10265
333.09327
333.07776
333.14748
333.14694
333.14568
333.14369
333.14104
333.13782
333.13415
333.1301
333.12568
333.12088
333.1156
333.10962
333.1025
333.09318
333.07775
333.14725
333.14668
333.14537
333.14334
333.14065
333.13743
333.13377
333.12974
333.12536
333.1206
333.11536
333.10942
333.10235
333.09309
333.07774
333.147
333.1464
333.14505
333.14297
333.14026
333.13703
333.13339
333.12939
333.12504
333.12032
333.11512
333.10923
333.10221
333.093
333.07773
333.14673
333.14611
333.14471
333.1426
333.13987
333.13664
333.13301
333.12904
333.12473
333.12004
333.11488
333.10904
333.10206
333.09291
333.07772
333.14644
333.1458
333.14436
333.14222
333.13947
333.13625
333.13264
333.12869
333.12441
333.11977
333.11465
333.10885
333.10192
333.09282
333.07771
333.14613
333.14547
333.144
333.14183
333.13908
333.13586
333.13227
333.12835
333.12411
333.1195
333.11442
333.10866
333.10178
333.09274
333.0777
333.14581
333.14513
333.14363
333.14144
333.13868
333.13548
333.13191
333.12802
333.1238
333.11923
333.11419
333.10848
333.10164
333.09265
333.07769
333.14546
333.14477
333.14325
333.14104
333.13828
333.13509
333.13154
333.12768
333.12351
333.11897
333.11397
333.1083
333.10151
333.09256
333.07768
333.1451
333.14439
333.14286
333.14064
333.13789
333.13471
333.13118
333.12735
333.12321
333.11871
333.11375
333.10812
333.10137
333.09248
333.07767
333.14472
333.144
333.14246
333.14024
333.13749
333.13433
333.13083
333.12703
333.12292
333.11846
333.11353
333.10794
333.10124
333.0924
333.07765
333.14432
333.1436
333.14205
333.13983
333.13709
333.13395
333.13047
333.1267
333.12263
333.1182
333.11332
333.10776
333.1011
333.09231
333.07764
333.14391
333.14318
333.14163
333.13941
333.13669
333.13357
333.13012
333.12638
333.12234
333.11795
333.1131
333.10759
333.10097
333.09223
333.07763
333.14348
333.14275
333.1412
333.139
333.13629
333.13319
333.12977
333.12607
333.12206
333.1177
333.11289
333.10742
333.10084
333.09215
333.07761
333.14304
333.14231
333.14077
333.13858
333.13589
333.13282
333.12943
333.12575
333.12178
333.11746
333.11269
333.10725
333.10071
333.09206
333.0776
333.14259
333.14186
333.14033
333.13816
333.13549
333.13244
333.12909
333.12544
333.1215
333.11722
333.11248
333.10708
333.10058
333.09198
333.07758
333.14212
333.1414
333.13988
333.13773
333.13509
333.13207
333.12874
333.12513
333.12123
333.11698
333.11228
333.10691
333.10046
333.0919
333.07756
333.14165
333.14094
333.13944
333.1373
333.13469
333.1317
333.12841
333.12483
333.12096
333.11674
333.11207
333.10675
333.10033
333.09182
333.07754
333.14117
333.14047
333.13898
333.13687
333.13429
333.13133
333.12807
333.12452
333.12069
333.11651
333.11187
333.10658
333.1002
333.09174
333.07752
333.14068
333.13999
333.13852
333.13644
333.13389
333.13096
333.12773
333.12422
333.12042
333.11627
333.11168
333.10642
333.10008
333.09165
333.0775
333.14018
333.1395
333.13806
333.13601
333.13349
333.1306
333.1274
333.12392
333.12015
333.11604
333.11148
333.10626
333.09995
333.09157
333.07748
333.13968
333.13902
333.1376
333.13558
333.13309
333.13023
333.12707
333.12363
333.11989
333.11581
333.11128
333.1061
333.09983
333.09149
333.07746
333.13918
333.13853
333.13713
333.13515
333.13269
333.12987
333.12674
333.12333
333.11963
333.11558
333.11109
333.10594
333.09971
333.09141
333.07744
333.13867
333.13803
333.13667
333.13471
333.13229
333.12951
333.12641
333.12304
333.11937
333.11536
333.1109
333.10578
333.09958
333.09133
333.07741
333.13817
333.13754
333.1362
333.13428
333.1319
333.12915
333.12609
333.12275
333.11911
333.11513
333.1107
333.10562
333.09946
333.09124
333.07739
333.13766
333.13705
333.13573
333.13385
333.1315
333.12879
333.12576
333.12246
333.11886
333.11491
333.11051
333.10546
333.09934
333.09116
333.07736
333.13715
333.13655
333.13527
333.13342
333.13111
333.12843
333.12544
333.12217
333.1186
333.11469
333.11032
333.1053
333.09922
333.09108
333.07733
333.13665
333.13606
333.1348
333.13298
333.13071
333.12807
333.12512
333.12188
333.11835
333.11447
333.11013
333.10515
333.09909
333.09099
333.0773
333.13614
333.13557
333.13433
333.13255
333.13032
333.12772
333.1248
333.1216
333.1181
333.11425
333.10995
333.10499
333.09897
333.09091
333.07727
333.13564
333.13508
333.13387
333.13212
333.12993
333.12736
333.12448
333.12131
333.11784
333.11403
333.10976
333.10484
333.09885
333.09082
333.07724
333.13514
333.13459
333.13341
333.1317
333.12954
333.12701
333.12416
333.12103
333.11759
333.11381
333.10957
333.10468
333.09872
333.09074
333.0772
333.13464
333.1341
333.13295
333.13127
333.12915
333.12666
333.12385
333.12075
333.11735
333.11359
333.10939
333.10453
333.0986
333.09065
333.07717
333.13415
333.13362
333.13249
333.13085
333.12876
333.1263
333.12353
333.12047
333.1171
333.11338
333.1092
333.10437
333.09848
333.09056
333.07713
333.13366
333.13314
333.13204
333.13042
333.12837
333.12596
333.12322
333.12019
333.11685
333.11316
333.10902
333.10422
333.09836
333.09047
333.07709
333.13317
333.13267
333.13159
333.13
333.12799
333.12561
333.12291
333.11991
333.11661
333.11295
333.10883
333.10406
333.09823
333.09038
333.07705
333.13269
333.1322
333.13114
333.12959
333.12761
333.12526
333.1226
333.11963
333.11636
333.11273
333.10865
333.10391
333.09811
333.09029
333.077
333.13221
333.13173
333.13069
333.12917
333.12723
333.12492
333.12229
333.11936
333.11612
333.11252
333.10846
333.10375
333.09798
333.0902
333.07696
333.13173
333.13127
333.13025
333.12876
333.12685
333.12458
333.12198
333.11908
333.11587
333.1123
333.10828
333.10359
333.09786
333.09011
333.07691
333.13126
333.13081
333.12982
333.12835
333.12648
333.12424
333.12167
333.11881
333.11563
333.11209
333.10809
333.10344
333.09773
333.09002
333.07686
333.1308
333.13035
333.12938
333.12795
333.1261
333.1239
333.12137
333.11854
333.11539
333.11188
333.10791
333.10328
333.0976
333.08992
333.07681
333.13034
333.1299
333.12895
333.12755
333.12573
333.12356
333.12107
333.11826
333.11515
333.11167
333.10773
333.10313
333.09748
333.08982
333.07676
333.12989
333.12946
333.12853
333.12715
333.12537
333.12323
333.12076
333.11799
333.11491
333.11146
333.10754
333.10297
333.09735
333.08973
333.0767
333.12944
333.12902
333.12811
333.12675
333.125
333.12289
333.12046
333.11772
333.11467
333.11124
333.10736
333.10281
333.09722
333.08963
333.07665
333.129
333.12858
333.12769
333.12636
333.12464
333.12256
333.12016
333.11746
333.11443
333.11103
333.10717
333.10266
333.09709
333.08953
333.07659
333.12856
333.12815
333.12728
333.12597
333.12428
333.12223
333.11987
333.11719
333.11419
333.11082
333.10699
333.1025
333.09696
333.08943
333.07653
333.12812
333.12773
333.12687
333.12559
333.12392
333.12191
333.11957
333.11692
333.11395
333.11061
333.1068
333.10234
333.09682
333.08932
333.07646
333.1277
333.12731
333.12647
333.12521
333.12357
333.12158
333.11928
333.11666
333.11371
333.1104
333.10662
333.10218
333.09669
333.08922
333.0764
333.12727
333.12689
333.12607
333.12483
333.12322
333.12126
333.11898
333.11639
333.11348
333.11019
333.10644
333.10202
333.09656
333.08911
333.07633
333.12685
333.12648
333.12567
333.12446
333.12287
333.12094
333.11869
333.11613
333.11324
333.10998
333.10625
333.10186
333.09642
333.089
333.07626
333.12644
333.12608
333.12528
333.12409
333.12253
333.12063
333.1184
333.11587
333.11301
333.10977
333.10607
333.1017
333.09629
333.0889
333.07618
333.12603
333.12568
333.12489
333.12372
333.12219
333.12031
333.11811
333.11561
333.11277
333.10956
333.10588
333.10154
333.09615
333.08878
333.07611
333.12563
333.12528
333.12451
333.12336
333.12185
333.12
333.11783
333.11535
333.11254
333.10935
333.1057
333.10138
333.09601
333.08867
333.07603
333.12523
333.12489
333.12414
333.123
333.12151
333.11969
333.11754
333.11509
333.1123
333.10914
333.10551
333.10121
333.09587
333.08856
333.07595
333.12484
333.1245
333.12376
333.12265
333.12118
333.11938
333.11726
333.11483
333.11207
333.10893
333.10532
333.10105
333.09573
333.08844
333.07587
333.12445
333.12412
333.12339
333.1223
333.12085
333.11907
333.11698
333.11457
333.11184
333.10872
333.10514
333.10089
333.09559
333.08833
333.07579
333.12407
333.12374
333.12303
333.12195
333.12052
333.11877
333.1167
333.11432
333.11161
333.10852
333.10495
333.10072
333.09545
333.08821
333.0757
333.12369
333.12337
333.12267
333.1216
333.1202
333.11847
333.11642
333.11406
333.11137
333.10831
333.10476
333.10056
333.0953
333.08809
333.07561
333.12332
333.123
333.12231
333.12126
333.11988
333.11817
333.11615
333.11381
333.11114
333.1081
333.10458
333.10039
333.09516
333.08796
333.07552
333.12295
333.12264
333.12196
333.12093
333.11956
333.11787
333.11587
333.11356
333.11091
333.10789
333.10439
333.10022
333.09501
333.08784
333.07543
333.12259
333.12228
333.12161
333.12059
333.11924
333.11758
333.1156
333.11331
333.11068
333.10768
333.1042
333.10006
333.09486
333.08772
333.07533
333.12223
333.12193
333.12126
333.12026
333.11893
333.11728
333.11533
333.11306
333.11046
333.10747
333.10401
333.09989
333.09471
333.08759
333.07523
333.12187
333.12158
333.12092
333.11993
333.11862
333.11699
333.11506
333.11281
333.11023
333.10727
333.10383
333.09972
333.09457
333.08746
333.07514
333.12152
333.12123
333.12059
333.11961
333.11831
333.11671
333.11479
333.11256
333.11
333.10706
333.10364
333.09955
333.09441
333.08733
333.07503
333.12118
333.12089
333.12025
333.11929
333.11801
333.11642
333.11452
333.11231
333.10977
333.10685
333.10345
333.09938
333.09426
333.0872
333.07493
333.12083
333.12055
333.11992
333.11897
333.11771
333.11614
333.11426
333.11207
333.10955
333.10664
333.10326
333.09921
333.09411
333.08707
333.07482
333.12049
333.12021
333.1196
333.11866
333.11741
333.11585
333.114
333.11183
333.10932
333.10644
333.10307
333.09904
333.09396
333.08693
333.07471
333.12016
333.11988
333.11927
333.11835
333.11711
333.11558
333.11373
333.11158
333.1091
333.10623
333.10288
333.09886
333.0938
333.0868
333.0746
333.11983
333.11956
333.11895
333.11804
333.11682
333.1153
333.11347
333.11134
333.10887
333.10602
333.10269
333.09869
333.09365
333.08666
333.07449
333.1195
333.11923
333.11864
333.11774
333.11653
333.11502
333.11322
333.1111
333.10865
333.10582
333.1025
333.09852
333.09349
333.08652
333.07438
333.11918
333.11891
333.11833
333.11743
333.11624
333.11475
333.11296
333.11086
333.10843
333.10561
333.10231
333.09834
333.09333
333.08638
333.07426
333.11886
333.1186
333.11802
333.11714
333.11596
333.11448
333.1127
333.11062
333.1082
333.1054
333.10212
333.09817
333.09317
333.08624
333.07414
333.11854
333.11828
333.11771
333.11684
333.11567
333.11421
333.11245
333.11038
333.10798
333.1052
333.10193
333.09799
333.09301
333.08609
333.07402
333.11823
333.11797
333.11741
333.11655
333.11539
333.11394
333.1122
333.11015
333.10776
333.10499
333.10174
333.09782
333.09285
333.08595
333.0739
333.11792
333.11767
333.11711
333.11626
333.11511
333.11368
333.11195
333.10991
333.10754
333.10479
333.10155
333.09764
333.09269
333.0858
333.07378
333.11761
333.11736
333.11681
333.11597
333.11484
333.11341
333.1117
333.10968
333.10732
333.10458
333.10136
333.09746
333.09253
333.08566
333.07365
333.11731
333.11706
333.11652
333.11568
333.11456
333.11315
333.11145
333.10944
333.1071
333.10437
333.10116
333.09728
333.09236
333.08551
333.07353
333.11701
333.11677
333.11623
333.1154
333.11429
333.11289
333.1112
333.10921
333.10688
333.10417
333.10097
333.09711
333.0922
333.08536
333.0734
333.11672
333.11647
333.11594
333.11512
333.11402
333.11263
333.11096
333.10898
333.10666
333.10396
333.10078
333.09693
333.09203
333.08521
333.07327
333.11642
333.11618
333.11565
333.11484
333.11375
333.11238
333.11071
333.10875
333.10645
333.10376
333.10059
333.09675
333.09187
333.08506
333.07314
333.11613
333.11589
333.11537
333.11457
333.11349
333.11212
333.11047
333.10852
333.10623
333.10355
333.1004
333.09657
333.0917
333.08491
333.073
333.11584
333.11561
333.11509
333.11429
333.11322
333.11187
333.11023
333.10829
333.10601
333.10335
333.1002
333.09639
333.09153
333.08475
333.07287
333.11556
333.11533
333.11481
333.11402
333.11296
333.11162
333.10999
333.10806
333.10579
333.10315
333.10001
333.09621
333.09136
333.0846
333.07273
333.11528
333.11505
333.11453
333.11375
333.1127
333.11137
333.10975
333.10783
333.10558
333.10294
333.09982
333.09603
333.09119
333.08444
333.0726
333.115
333.11477
333.11426
333.11349
333.11244
333.11112
333.10951
333.1076
333.10536
333.10274
333.09963
333.09584
333.09102
333.08428
333.07246
333.11472
333.11449
333.11399
333.11322
333.11219
333.11087
333.10928
333.10738
333.10515
333.10253
333.09943
333.09566
333.09085
333.08413
333.07232
333.11444
333.11422
333.11372
333.11296
333.11193
333.11063
333.10904
333.10715
333.10493
333.10233
333.09924
333.09548
333.09068
333.08397
333.07218
333.11417
333.11395
333.11346
333.1127
333.11168
333.11038
333.10881
333.10693
333.10472
333.10213
333.09905
333.0953
333.09051
333.08381
333.07203
333.1139
333.11368
333.11319
333.11244
333.11143
333.11014
333.10857
333.1067
333.10451
333.10192
333.09885
333.09511
333.09033
333.08365
333.07189
333.11364
333.11342
333.11293
333.11219
333.11118
333.1099
333.10834
333.10648
333.10429
333.10172
333.09866
333.09493
333.09016
333.08348
333.07174
333.11337
333.11315
333.11267
333.11193
333.11093
333.10966
333.10811
333.10626
333.10408
333.10152
333.09846
333.09474
333.08999
333.08332
333.0716
333.11311
333.11289
333.11241
333.11168
333.11068
333.10942
333.10788
333.10604
333.10387
333.10131
333.09827
333.09456
333.08981
333.08316
333.07145
333.11285
333.11263
333.11216
333.11143
333.11044
333.10918
333.10765
333.10582
333.10366
333.10111
333.09808
333.09437
333.08964
333.08299
333.0713
333.11259
333.11237
333.1119
333.11118
333.1102
333.10895
333.10742
333.1056
333.10345
333.10091
333.09788
333.09419
333.08946
333.08283
333.07115
333.11233
333.11212
333.11165
333.11093
333.10995
333.10871
333.10719
333.10538
333.10323
333.1007
333.09769
333.094
333.08928
333.08266
333.071
333.11207
333.11186
333.1114
333.11068
333.10971
333.10848
333.10697
333.10516
333.10302
333.1005
333.09749
333.09382
333.08911
333.0825
333.07085
333.11182
333.11161
333.11115
333.11044
333.10947
333.10825
333.10674
333.10494
333.10281
333.1003
333.0973
333.09363
333.08893
333.08233
333.07069
333.11157
333.11136
333.1109
333.1102
333.10924
333.10802
333.10652
333.10473
333.1026
333.1001
333.0971
333.09345
333.08875
333.08216
333.07054
333.11132
333.11111
333.11066
333.10996
333.109
333.10778
333.10629
333.10451
333.10239
333.09989
333.09691
333.09326
333.08857
333.08199
333.07039
333.11107
333.11087
333.11041
333.10972
333.10877
333.10756
333.10607
333.10429
333.10218
333.09969
333.09672
333.09307
333.0884
333.08182
333.07023
333.11083
333.11062
333.11017
333.10948
333.10853
333.10733
333.10585
333.10408
333.10198
333.09949
333.09652
333.09288
333.08822
333.08166
333.07007
333.11058
333.11038
333.10993
333.10924
333.1083
333.1071
333.10563
333.10386
333.10177
333.09929
333.09633
333.0927
333.08804
333.08148
333.06992
333.11034
333.11014
333.10969
333.109
333.10807
333.10687
333.10541
333.10365
333.10156
333.09909
333.09613
333.09251
333.08786
333.08131
333.06976
333.1101
333.1099
333.10945
333.10877
333.10784
333.10665
333.10519
333.10343
333.10135
333.09889
333.09594
333.09232
333.08768
333.08114
333.0696
333.10986
333.10966
333.10922
333.10853
333.10761
333.10642
333.10497
333.10322
333.10114
333.09868
333.09574
333.09213
333.0875
333.08097
333.06944
333.10962
333.10942
333.10898
333.1083
333.10738
333.1062
333.10475
333.10301
333.10094
333.09848
333.09555
333.09194
333.08731
333.0808
333.06928
333.10938
333.10919
333.10875
333.10807
333.10715
333.10598
333.10453
333.10279
333.10073
333.09828
333.09535
333.09176
333.08713
333.08062
333.06911
333.10915
333.10895
333.10851
333.10784
333.10693
333.10575
333.10431
333.10258
333.10052
333.09808
333.09516
333.09157
333.08695
333.08045
333.06895
333.10891
333.10872
333.10828
333.10761
333.1067
333.10553
333.1041
333.10237
333.10032
333.09788
333.09496
333.09138
333.08677
333.08028
333.06879
333.10868
333.10848
333.10805
333.10738
333.10648
333.10531
333.10388
333.10216
333.10011
333.09768
333.09477
333.09119
333.08659
333.0801
333.06862