/*--------------------------------*- C++ -*----------------------------------*\
| =========                 |                                                 |
| \\      /  F ield         | OpenFOAM: The Open Source CFD Toolbox           |
|  \\    /   O peration     | Version:  2506                                  |
|   \\  /    A nd           | Website:  www.openfoam.com                      |
|    \\/     M anipulation  |                                                 |
\*---------------------------------------------------------------------------*/
FoamFile
{
    version     2.0;
    format      ascii;
    arch        "LSB;label=32;scalar=64";
    class       volVectorField;
    location    "23000/water";
    object      U;
}
// * * * * * * * * * * * * * * * * * * * * * * * * * * * * * * * * * * * * * //

dimensions      [0 1 -1 0 0 0 0];

internalField   nonuniform List<vector> 
6000
(
(0.25028648 -3.4193492e-05 -2.9143463e-18)
(0.25028875 -7.4648812e-05 -4.4853515e-18)
(0.25029344 -0.00011804414 -8.5332806e-19)
(0.25030059 -0.00016540046 2.2118625e-19)
(0.25031046 -0.00021487336 -8.5794815e-20)
(0.25032332 -0.00026685039 2.4650879e-20)
(0.25033948 -0.00032192175 -8.1500058e-20)
(0.25035939 -0.00038078672 3.9482256e-20)
(0.25038356 -0.00044434477 3.0366454e-20)
(0.25041254 -0.00051362452 -9.431561e-20)
(0.25044587 -0.0005867756 -5.9349994e-20)
(0.25047643 -0.00065822056 6.3781265e-20)
(0.25046276 -0.00078466513 -1.0842681e-19)
(0.25013031 -0.0015987837 6.3577955e-20)
(0.24584996 0.0019968142 3.6364496e-20)
(0.25104035 -3.7261304e-05 -3.2045899e-18)
(0.25104514 -8.989598e-05 -2.9883745e-18)
(0.2510558 -0.00014352114 -1.2070408e-18)
(0.25107219 -0.00020025424 6.9064076e-19)
(0.2510947 -0.0002571822 4.1652528e-19)
(0.25112368 -0.00031440571 2.4123227e-19)
(0.25115965 -0.00037188242 -1.7594368e-19)
(0.25120324 -0.00042947839 -1.0168186e-19)
(0.2512551 -0.00048709454 2.5470929e-19)
(0.25131538 -0.00054561245 -1.117955e-19)
(0.25138039 -0.00060405492 -1.2566599e-19)
(0.25142587 -0.00063755822 -2.2589389e-20)
(0.25133175 -0.00059164843 -1.5703429e-19)
(0.25037931 -0.0014370973 8.0361826e-21)
(0.24194277 0.00099520264 2.5104233e-20)
(0.25195051 -3.6589029e-05 -1.6562734e-18)
(0.25195563 -9.0250613e-05 3.4189742e-18)
(0.25196731 -0.00014313025 1.045977e-18)
(0.25198528 -0.00019912656 -2.6651273e-19)
(0.25200977 -0.00025508716 5.5726708e-19)
(0.25204101 -0.0003112558 -8.4719922e-19)
(0.25207932 -0.00036762123 -8.1154712e-19)
(0.25212505 -0.00042413945 -9.4324917e-19)
(0.25217823 -0.00048056787 -3.0859413e-19)
(0.25223708 -0.00053775721 -1.6497129e-19)
(0.25229114 -0.00060007155 -5.0086953e-19)
(0.25229033 -0.00065419843 -6.3891148e-19)
(0.25200573 -0.00054460881 -5.9063729e-19)
(0.25014357 -0.0012195308 -2.3727025e-19)
(0.23758495 0.00043820543 -1.6489968e-19)
(0.25283353 -3.7446604e-05 3.6324555e-18)
(0.25283867 -9.3611088e-05 1.6484397e-18)
(0.25285018 -0.00014906892 1.8531376e-18)
(0.25286783 -0.00020791578 -4.364941e-19)
(0.25289182 -0.00026672308 4.7728489e-19)
(0.25292238 -0.00032582165 -5.3509195e-19)
(0.25295982 -0.00038519269 -7.5063936e-19)
(0.25300432 -0.00044485276 -5.9963614e-19)
(0.25305525 -0.00050441426 -6.4117027e-19)
(0.25310809 -0.00056332944 5.1538294e-20)
(0.25314261 -0.00062607506 -3.9584808e-19)
(0.25307635 -0.00069910336 -5.3466737e-19)
(0.25255493 -0.0005845712 -5.3689779e-19)
(0.24963188 -0.001063787 -2.5518141e-19)
(0.23320285 0.0001058672 -2.7423592e-19)
(0.25372643 -3.8342944e-05 1.2893646e-17)
(0.2537317 -9.6368692e-05 2.4701074e-18)
(0.25374347 -0.00015372841 2.0662899e-18)
(0.25376156 -0.00021453144 1.2704283e-18)
(0.25378616 -0.00027516439 4.0164422e-19)
(0.25381749 -0.00033599427 8.2689886e-19)
(0.25385581 -0.00039694563 1.3011578e-19)
(0.25390101 -0.00045805575 2.780402e-19)
(0.25395133 -0.00051907431 1.6346668e-19)
(0.25399821 -0.00057855465 1.3338109e-19)
(0.25400834 -0.00063773998 9.9354198e-20)
(0.25386022 -0.0007177221 5.0135307e-21)
(0.25305737 -0.00062191547 -8.3458847e-20)
(0.24895451 -0.00093835859 -9.1290956e-20)
(0.22897365 -8.3792338e-05 -1.1272091e-19)
(0.25464474 -3.866162e-05 -1.2614383e-18)
(0.25465014 -9.7320119e-05 -2.2282972e-18)
(0.2546622 -0.00015516462 6.5500947e-19)
(0.25468073 -0.00021648309 1.2584797e-18)
(0.2547059 -0.00027758564 -3.8341331e-19)
(0.25473792 -0.000338881 3.3402726e-19)
(0.25477689 -0.00040025681 1.3424486e-19)
(0.25482222 -0.000461728 -4.892373e-20)
(0.25487049 -0.00052322808 2.2273391e-19)
(0.2549078 -0.000583188 2.2682249e-19)
(0.25488519 -0.00063896641 3.2213745e-20)
(0.25463685 -0.00071821651 -9.425145e-20)
(0.25350729 -0.0006469875 -1.9325922e-19)
(0.248129 -0.00083894719 -7.6802078e-21)
(0.2249409 -0.00018589273 3.9966515e-20)
(0.25557031 -3.8595293e-05 -7.0289014e-18)
(0.25557581 -9.7309346e-05 -4.1890974e-18)
(0.25558805 -0.00015511983 -8.0900441e-19)
(0.25560682 -0.00021642526 -1.7373136e-19)
(0.2556323 -0.0002774936 -1.1164675e-18)
(0.25566463 -0.00033876345 1.2605274e-19)
(0.25570371 -0.00040009734 3.5828903e-19)
(0.25574825 -0.00046144626 -1.7415841e-19)
(0.25579256 -0.00052279714 -2.883186e-20)
(0.25581623 -0.0005828814 -7.3380406e-20)
(0.25575267 -0.00063600478 -8.8030238e-20)
(0.25538743 -0.00071016267 1.8114138e-20)
(0.25388915 -0.00066107344 -2.8086389e-20)
(0.24716598 -0.00076077854 -3.0496153e-20)
(0.22112141 -0.00023459296 9.6342228e-20)
(0.25649134 -3.8297107e-05 4.6045741e-18)
(0.25649692 -9.6712128e-05 2.8399787e-18)
(0.25650928 -0.00015419069 2.1442685e-18)
(0.25652824 -0.00021515485 7.3198414e-20)
(0.25655393 -0.00027585718 -2.8950908e-19)
(0.25658641 -0.0003367553 3.2870272e-19)
(0.25662528 -0.00039769653 6.1555045e-19)
(0.2566683 -0.00045856441 3.0952122e-20)
(0.25670691 -0.00051927104 -8.4906323e-20)
(0.25671305 -0.00057893859 -4.7211741e-19)
(0.25660095 -0.00063003278 8.5973246e-20)
(0.25610359 -0.00069722485 8.8461531e-20)
(0.25419746 -0.0006651972 7.4317202e-20)
(0.24608527 -0.00069788903 -2.8660188e-20)
(0.21752738 -0.00025081848 7.2262618e-20)
(0.25740382 -3.7852859e-05 3.1102478e-19)
(0.25740947 -9.5689494e-05 -8.544913e-19)
(0.25742193 -0.00015257331 9.200176e-19)
(0.25744104 -0.00021291358 4.6048613e-19)
(0.25746687 -0.00027297291 2.907956e-19)
(0.25749936 -0.0003332193 3.0006727e-19)
(0.2575377 -0.00039348924 5.5866304e-19)
(0.2575784 -0.00045361302 3.5284871e-19)
(0.25760945 -0.00051335259 9.133464e-20)
(0.25759421 -0.00057212214 1.9736983e-19)
(0.25742635 -0.00062159363 2.4286999e-19)
(0.25678237 -0.00068144217 4.7442902e-20)
(0.25443121 -0.00066103685 -2.1130394e-20)
(0.24490935 -0.00064561644 -1.4131663e-21)
(0.21416513 -0.00024776584 -5.5707339e-20)
(0.25830515 -3.7308638e-05 1.8174269e-19)
(0.25831084 -9.4372769e-05 -2.0224208e-18)
(0.25832339 -0.00015047649 -1.3549899e-18)
(0.2583426 -0.00020999612 8.8495859e-20)
(0.25836849 -0.00026922145 -7.0762319e-19)
(0.25840083 -0.00032862339 2.6034238e-19)
(0.25843826 -0.00038802595 5.6350339e-19)
(0.25847573 -0.00044722018 6.2188544e-19)
(0.25849727 -0.00050579279 3.2770536e-19)
(0.25845683 -0.00056328987 3.6799917e-19)
(0.25822634 -0.00061131676 1.8196966e-19)
(0.25742154 -0.00066417743 1.1394205e-19)
(0.2545896 -0.00065044234 2.0043294e-20)
(0.24365871 -0.00060064453 -6.109493e-20)
(0.21103455 -0.00023378679 -1.4866389e-19)
(0.259193 -3.6693881e-05 4.7333824e-18)
(0.25919873 -9.285746e-05 4.5159565e-18)
(0.25921134 -0.00014806165 -1.1548661e-18)
(0.25923061 -0.00020663289 3.5779392e-19)
(0.25925648 -0.0002648995 9.9735475e-19)
(0.25928848 -0.00032332972 4.4266384e-19)
(0.25932457 -0.00038173097 3.9076845e-19)
(0.25935785 -0.00043986308 5.9985506e-19)
(0.25936788 -0.00049714489 1.8352592e-19)
(0.25929853 -0.00055310431 7.9452103e-20)
(0.2589988 -0.00059970361 9.1751257e-20)
(0.25801896 -0.00064623362 1.2493589e-19)
(0.25467145 -0.00063499349 7.2427988e-20)
(0.24235144 -0.00056062195 -1.006092e-20)
(0.20813123 -0.0002141088 -4.3951128e-20)
(0.26006576 -3.6034055e-05 3.6462032e-18)
(0.26007152 -9.1214285e-05 3.8361527e-18)
(0.26008417 -0.00014544281 -3.4406411e-20)
(0.26010346 -0.00020298347 3.7863021e-19)
(0.26012923 -0.00026021093 8.7925295e-19)
(0.2601607 -0.0003175869 3.8930496e-19)
(0.26019497 -0.00037489796 9.6158815e-20)
(0.26022303 -0.0004318747 3.5598921e-19)
(0.26021952 -0.00048779067 2.6374396e-19)
(0.26011767 -0.00054204301 -1.02906e-19)
(0.25974224 -0.00058714002 -6.6255125e-21)
(0.25857279 -0.00062806077 9.539675e-20)
(0.25467557 -0.00061594005 4.9048649e-20)
(0.24100379 -0.00052390611 3.3327039e-20)
(0.20544863 -0.00019196316 5.9138292e-20)
(0.2609225 -3.5349633e-05 4.6417439e-18)
(0.26092828 -8.9497287e-05 4.2731715e-18)
(0.26094096 -0.00014270541 2.9165981e-19)
(0.26096023 -0.00019916671 1.0332192e-18)
(0.2609858 -0.00025530722 7.1777158e-19)
(0.2610165 -0.00031157922 4.7393002e-19)
(0.26104844 -0.00036774517 4.288524e-20)
(0.2610702 -0.00042350433 -3.5204764e-21)
(0.26105114 -0.00047801113 2.9191138e-19)
(0.26091327 -0.00053046086 -2.5256108e-19)
(0.2604557 -0.00057393662 -1.9453974e-20)
(0.2590814 -0.00060990566 5.9638714e-20)
(0.2546009 -0.00059424331 2.7006704e-20)
(0.23963056 -0.00048937354 3.3145093e-20)
(0.20297926 -0.00016931833 6.9189094e-20)
(0.26176274 -3.4655539e-05 3.8463909e-18)
(0.26176854 -8.7746856e-05 3.3513515e-18)
(0.26178122 -0.00013991377 -6.2229371e-19)
(0.26180042 -0.00019527247 9.036904e-19)
(0.26182568 -0.00025030306 9.7965277e-19)
(0.26185536 -0.00030544608 4.919726e-19)
(0.26188442 -0.00036043768 2.7216051e-19)
(0.26189878 -0.00041494196 -9.2217308e-20)
(0.26186213 -0.00046801763 1.4762948e-19)
(0.2616848 -0.00051862213 -1.5345149e-19)
(0.26113855 -0.00056034346 1.29535e-20)
(0.25954316 -0.00059189152 4.3003716e-20)
(0.25444651 -0.0005706321 1.1948331e-19)
(0.23824529 -0.00045627776 5.3314727e-20)
(0.20071509 -0.00014735259 9.2587117e-20)
(0.26258633 -3.3963061e-05 2.2038958e-18)
(0.26259213 -8.5993781e-05 1.2360818e-18)
(0.26260479 -0.00013711719 2.6037347e-18)
(0.26262388 -0.00019136968 5.8843959e-19)
(0.2626487 -0.00024528655 -9.9972802e-19)
(0.26267708 -0.00029929459 3.9322358e-19)
(0.26270267 -0.00035310243 2.9488371e-19)
(0.26270848 -0.00040633486 2.1179224e-19)
(0.26265224 -0.00045797299 1.4449415e-19)
(0.26243199 -0.00050672605 9.607795e-20)
(0.26179026 -0.00054656345 1.9719425e-19)
(0.25995633 -0.0005740675 1.6176156e-19)
(0.25421177 -0.00054566294 1.2135293e-19)
(0.23686046 -0.00042415213 1.743729e-19)
(0.19864765 -0.0001267576 1.2468417e-19)
(0.26339335 -3.32814e-05 3.7753477e-18)
(0.26339915 -8.4262741e-05 5.4421658e-18)
(0.26341177 -0.0001343551 2.2497357e-18)
(0.26343068 -0.0001875135 5.9744703e-19)
(0.26345493 -0.00024032822 7.3970368e-19)
(0.26348171 -0.00029321054 4.0514544e-19)
(0.2635032 -0.00034584107 4.1645067e-19)
(0.2634993 -0.00039780175 1.9636131e-19)
(0.26342146 -0.00044800829 8.5142006e-20)
(0.26315482 -0.00049492779 1.6705717e-19)
(0.26241041 -0.00053276478 2.9202469e-19)
(0.26031893 -0.00055643964 1.9153708e-19)
(0.2538966 -0.000519773 8.795934e-20)
(0.23548766 -0.00039274464 1.5409835e-19)
(0.19676807 -0.00010792878 6.7010544e-20)
(0.26418413 -3.2618312e-05 2.940737e-18)
(0.26418991 -8.2574226e-05 3.0736732e-18)
(0.26420246 -0.00013166021 5.0187365e-19)
(0.26422112 -0.0001837496 1.7020628e-19)
(0.26424465 -0.00023548649 7.4796796e-19)
(0.2642695 -0.00028726512 1.360952e-19)
(0.26428624 -0.00033873796 6.9286903e-19)
(0.26427145 -0.00038944152 2.6141317e-19)
(0.26416998 -0.0004382328 1.1653638e-19)
(0.26385341 -0.00048335173 1.8217325e-20)
(0.26299854 -0.00051908846 2.1635083e-19)
(0.26062878 -0.00053898815 1.5396092e-19)
(0.25350187 -0.00049331965 1.8054081e-19)
(0.2341376 -0.00036197184 2.9723779e-20)
(0.19506692 -9.1079355e-05 2.7474136e-20)
(0.26495914 -3.1980325e-05 2.2617631e-18)
(0.2649649 -8.0945389e-05 2.2754609e-18)
(0.26497734 -0.00012905989 1.2533687e-18)
(0.26499568 -0.00018011622 1.0320369e-18)
(0.26501831 -0.00023081031 6.9194413e-19)
(0.26504088 -0.00028151807 2.573473e-19)
(0.2650522 -0.00033186392 5.1778461e-19)
(0.2650253 -0.00038133727 4.7293506e-19)
(0.26489816 -0.00042873842 2.8957069e-20)
(0.26452796 -0.00047209828 1.3254986e-19)
(0.26355413 -0.00050565096 2.0401064e-19)
(0.2608835 -0.00052167636 2.0939852e-19)
(0.25302971 -0.00046660631 1.2774837e-19)
(0.23282016 -0.00033188327 5.6938944e-20)
(0.19353413 -7.6303785e-05 5.0069739e-20)
(0.26571903 -3.1372765e-05 4.0197349e-18)
(0.26572475 -7.9390278e-05 3.5106844e-18)
(0.26573705 -0.00012657658 4.4027817e-19)
(0.26575498 -0.00017664472 1.3976086e-18)
(0.26577653 -0.00022633987 9.4212084e-19)
(0.26579644 -0.0002760185 6.956421e-19)
(0.26580163 -0.0003252772 2.7438129e-19)
(0.26576141 -0.00037355728 2.6675046e-19)
(0.26560652 -0.00041960061 1.1910546e-19)
(0.26517878 -0.00046124611 1.0931906e-19)
(0.26407657 -0.00049254343 1.5295762e-19)
(0.26108058 -0.00050445572 1.245825e-19)
(0.25248384 -0.00043989699 4.8648659e-20)
(0.23154421 -0.00030262987 1.0958251e-19)
(0.19215888 -6.3609731e-05 1.992981e-19)
(0.26646455 -3.0799673e-05 6.7677271e-18)
(0.26647021 -7.791971e-05 1.4564379e-18)
(0.26648233 -0.00012422759 3.3681753e-18)
(0.26649975 -0.0001733593 1.9169481e-18)
(0.26652002 -0.00022210618 -4.2661995e-19)
(0.26653688 -0.0002708044 1.259272e-18)
(0.26653522 -0.00031902283 1.1120967e-18)
(0.26648042 -0.00036615421 8.8948756e-19)
(0.26629564 -0.00041087723 7.6986383e-19)
(0.26580617 -0.00045085191 -2.2733601e-19)
(0.26456508 -0.00047982866 3.5018395e-19)
(0.26121753 -0.00048726982 2.9574446e-19)
(0.25186982 -0.00041342264 3.580331e-19)
(0.23031742 -0.00027443217 4.1332723e-19)
(0.1909297 -5.2932833e-05 3.5973795e-19)
(0.26719653 -3.0263687e-05 3.9456e-18)
(0.26720212 -7.6541023e-05 -1.717459e-18)
(0.26721401 -0.00012202465 2.6940206e-18)
(0.26723083 -0.00017027641 1.4043369e-18)
(0.2672496 -0.00021813033 4.9623521e-19)
(0.26726299 -0.00026590165 9.7940882e-19)
(0.26725373 -0.0003131315 1.1737164e-18)
(0.26718309 -0.00035916374 7.3576128e-19)
(0.26696618 -0.00040260692 5.9716089e-19)
(0.26641044 -0.00044094906 4.1944933e-20)
(0.26501868 -0.00046753759 1.8353259e-19)
(0.26129202 -0.00047005901 3.6350012e-19)
(0.25119506 -0.00038738325 4.3755283e-19)
(0.2291461 -0.00024754676 4.3245188e-19)
(0.18983455 -4.4145099e-05 2.7527234e-19)
(0.26791589 -2.9765991e-05 -7.9652849e-19)
(0.26792138 -7.5257932e-05 -8.186267e-19)
(0.26793299 -0.00011997376 7.6487558e-19)
(0.26794908 -0.00016740448 3.0261958e-19)
(0.26796613 -0.00021442312 1.3428888e-18)
(0.26797562 -0.00026132351 5.7296144e-19)
(0.267958 -0.00030761887 3.18503e-19)
(0.26787018 -0.00035260382 2.0432484e-19)
(0.2676188 -0.00039480805 -1.0644867e-19)
(0.2669918 -0.00043154706 1.6922014e-20)
(0.26543617 -0.00045566687 -3.6674837e-20)
(0.2613021 -0.00045276643 1.3745107e-19)
(0.2504687 -0.00036194908 9.6338912e-20)
(0.22803501 -0.00022223217 7.9436166e-20)
(0.18886112 -3.7064085e-05 1.276266e-19)
(0.26862352 -2.9306383e-05 5.0963834e-18)
(0.2686289 -7.4070661e-05 1.4198292e-18)
(0.26864017 -0.00011807532 2.3604961e-18)
(0.26865542 -0.00016474412 2.5615676e-18)
(0.26867049 -0.00021098532 1.7580879e-18)
(0.26867563 -0.000257071 1.5040331e-18)
(0.26864885 -0.00030248606 8.5629168e-19)
(0.26854251 -0.00034647515 9.7242172e-19)
(0.26825414 -0.00038747924 5.7223532e-19)
(0.26755035 -0.00042263245 -2.4931994e-19)
(0.2658161 -0.00044417904 2.74971e-19)
(0.26124652 -0.00043534493 3.1837527e-19)
(0.24970133 -0.00033726333 3.6842812e-19)
(0.22698727 -0.00019871676 3.7566199e-19)
(0.18799711 -3.1466398e-05 1.9957708e-19)
(0.26932033 -2.888346e-05 1.8746487e-18)
(0.26932558 -7.2976355e-05 -2.7802344e-19)
(0.26933645 -0.00011632481 9.2074149e-19)
(0.26935072 -0.00016228909 2.6349918e-18)
(0.26936357 -0.0002078089 1.8753134e-18)
(0.26936389 -0.00025313433 1.54309e-18)
(0.26932713 -0.0002977213 1.1096627e-18)
(0.26920083 -0.00034076321 1.0166569e-18)
(0.2688728 -0.00038060158 5.3633271e-19)
(0.26808605 -0.00041417146 1.6665536e-19)
(0.26615679 -0.00043300583 1.8071574e-19)
(0.26112496 -0.00041776402 2.661568e-19)
(0.24890441 -0.00031344658 4.2380131e-19)
(0.22600436 -0.0001771726 3.961351e-19)
(0.18723056 -2.7105585e-05 2.4117489e-19)
(0.27000719 -2.849491e-05 7.2732783e-19)
(0.27001228 -7.1969742e-05 3.4113238e-18)
(0.27002267 -0.00011471384 3.6371682e-18)
(0.27003582 -0.0001600277 1.9832619e-18)
(0.27004618 -0.00020487885 1.0065525e-18)
(0.27004119 -0.00024949515 1.6174565e-18)
(0.2699936 -0.00029330262 1.1888277e-18)
(0.26984584 -0.00033544136 1.0554803e-18)
(0.26947524 -0.00037414208 3.3870871e-19)
(0.2685986 -0.00040611399 1.9958967e-19)
(0.26645635 -0.00042205446 2.1191767e-19)
(0.2609383 -0.00040001524 2.4691015e-19)
(0.24808975 -0.00029060213 3.9155834e-19)
(0.22508629 -0.00015769827 3.7921948e-19)
(0.18655015 -2.3732128e-05 3.1134831e-19)
(0.27068489 -2.8137825e-05 7.6438459e-18)
(0.2706898 -7.1043905e-05 4.0587707e-18)
(0.27069965 -0.00011323138 4.6152104e-18)
(0.27071153 -0.00015794462 2.9254889e-18)
(0.2707191 -0.00020217544 1.2592446e-18)
(0.27070829 -0.00024612933 2.1326206e-18)
(0.27064898 -0.00028920108 1.836095e-18)
(0.27047818 -0.00033047455 1.4548418e-18)
(0.27006181 -0.00036805783 1.0751768e-18)
(0.26908753 -0.00039839812 5.1233433e-20)
(0.26671278 -0.00041121648 5.8124317e-19)
(0.26068881 -0.00038211515 5.5127205e-19)
(0.24726882 -0.00026882041 6.2421679e-19)
(0.22423175 -0.00014031231 6.155321e-19)
(0.18594537 -2.1112146e-05 4.6609577e-19)
(0.27135418 -2.7809011e-05 2.9285928e-18)
(0.27135887 -7.019104e-05 4.092655e-18)
(0.2713681 -0.00011186497 2.3458644e-18)
(0.27137855 -0.00015602246 1.7557872e-18)
(0.27138303 -0.00019967637 2.0923516e-18)
(0.27136587 -0.00024300948 1.1281168e-18)
(0.27129391 -0.00028538386 1.2683076e-18)
(0.27109836 -0.00032582299 9.452175e-19)
(0.27063272 -0.00036230005 6.3073257e-19)
(0.26955206 -0.00039095432 4.4606653e-20)
(0.26692403 -0.00040037783 3.0343756e-19)
(0.26038022 -0.00036410564 3.1529989e-19)
(0.24645221 -0.00024818088 3.0159687e-19)
(0.22343841 -0.00012495718 1.8623269e-19)
(0.18540672 -1.904183e-05 2.6346169e-19)
(0.27201571 -2.7505235e-05 1.4295596e-18)
(0.27202015 -6.9403099e-05 4.4903135e-18)
(0.27202866 -0.00011060176 3.3650231e-18)
(0.27203751 -0.00015424331 2.2535774e-18)
(0.2720386 -0.00019735858 2.4738586e-18)
(0.27201452 -0.00024010733 1.2026501e-18)
(0.27192892 -0.00028181693 1.3193729e-18)
(0.2717068 -0.00032144525 9.8859392e-19)
(0.27118802 -0.00035681747 5.088854e-19)
(0.2699912 -0.00038370884 2.0452689e-19)
(0.26708822 -0.000389429 2.3849864e-19)
(0.26001771 -0.00034605163 4.1767652e-19)
(0.24564917 -0.00022875086 2.5401105e-19)
(0.22270325 -0.00011151161 2.8658375e-19)
(0.18492573 -1.7355843e-05 1.4121029e-19)
(0.27267005 -2.7223403e-05 1.4737181e-18)
(0.27267421 -6.8672268e-05 4.6263381e-19)
(0.27268192 -0.00010942927 1.2528283e-18)
(0.27268898 -0.00015258973 2.5103076e-18)
(0.27268634 -0.00019519966 2.3488122e-18)
(0.27265476 -0.00023739527 1.1907852e-18)
(0.27255447 -0.00027846699 1.2081473e-18)
(0.2723038 -0.00031730047 9.5156412e-19)
(0.27172757 -0.00035155883 5.2226859e-19)
(0.27040369 -0.00037658611 7.6053482e-19)
(0.26720375 -0.00037827411 2.0659647e-19)
(0.25960771 -0.00032803713 3.4733109e-19)
(0.24486735 -0.00021058184 3.0747748e-19)
(0.22202277 -9.9808138e-05 3.0887277e-19)
(0.18449494 -1.5929483e-05 1.0877779e-19)
(0.27331772 -2.6960666e-05 3.2112055e-18)
(0.27332155 -6.7991273e-05 3.2609016e-18)
(0.27332837 -0.00010833587 2.8733172e-18)
(0.27333345 -0.00015104547 2.2963002e-18)
(0.27332673 -0.00019317869 1.2560767e-18)
(0.27328702 -0.00023484751 1.3975102e-18)
(0.27317093 -0.0002753027 9.1834648e-19)
(0.27288957 -0.00031334989 8.2327927e-19)
(0.27225107 -0.00034647442 6.0545858e-19)
(0.27078808 -0.00036951039 5.6138774e-19)
(0.26726952 -0.00036683813 3.1549296e-19)
(0.25915765 -0.0003101602 3.7283214e-19)
(0.24411266 -0.00019370463 4.4951786e-19)
(0.22139331 -8.9652401e-05 2.8966109e-19)
(0.1841079 -1.4675689e-05 1.7267643e-19)
(0.27395916 -2.6714475e-05 7.2482887e-18)
(0.27396262 -6.7353542e-05 4.3634358e-18)
(0.27396843 -0.00010731104 4.5687012e-18)
(0.27397134 -0.00014959583 3.3580413e-18)
(0.27396016 -0.00019127671 1.4926203e-18)
(0.27391168 -0.00023244055 2.2469638e-18)
(0.2737786 -0.00027229533 1.700449e-18)
(0.27346419 -0.00030955757 1.4116002e-18)
(0.27275806 -0.00034151676 1.0071322e-18)
(0.27114274 -0.00036240704 1.6464353e-19)
(0.26728512 -0.00035507155 6.6956091e-19)
(0.25867552 -0.00029252748 7.6417347e-19)
(0.24338933 -0.00017812521 6.2586544e-19)
(0.22081116 -8.0841191e-05 7.17817e-19)
(0.18375901 -1.3538667e-05 5.2495401e-19)
(0.27459475 -2.648259e-05 2.7204872e-19)
(0.2745978 -6.675326e-05 4.5245302e-18)
(0.27460249 -0.0001063455 2.1649953e-18)
(0.274603 -0.0001482278 1.9524889e-18)
(0.27458699 -0.00018947691 2.0665095e-18)
(0.27452902 -0.00023015345 1.0959019e-18)
(0.27437767 -0.00026941895 1.2136009e-18)
(0.27402763 -0.00030589064 7.2395399e-19)
(0.27324789 -0.00033664079 4.9009303e-19)
(0.27146593 -0.00035520381 2.920235e-19)
(0.26725094 -0.00034295249 2.3237171e-19)
(0.25816956 -0.00027524859 4.3911378e-19)
(0.24270004 -0.00016382254 3.4283062e-19)
(0.22027275 -7.3177109e-05 4.3405291e-19)
(0.18344349 -1.2486088e-05 4.020516e-19)
(0.27522481 -2.6263071e-05 6.4950436e-19)
(0.27522741 -6.6185367e-05 5.3276149e-18)
(0.27523087 -0.00010543114 3.2364072e-18)
(0.27522875 -0.00014693 2.5172758e-18)
(0.27520748 -0.00018776456 2.1972385e-18)
(0.2751393 -0.00022796774 1.5154273e-18)
(0.27496829 -0.00026665041 1.3316245e-18)
(0.27457978 -0.00030231921 5.6403423e-19)
(0.27371976 -0.0003318036 6.0260572e-19)
(0.27175586 -0.00034783257 5.5181983e-19)
(0.26716832 -0.00033048644 3.0379057e-19)
(0.25764777 -0.0002584306 4.2817823e-19)
(0.24204621 -0.0001507494 4.6441115e-19)
(0.21977469 -6.6478884e-05 2.1971266e-19)
(0.18315725 -1.1501421e-05 3.2418869e-19)
(0.27584964 -2.6054261e-05 2.5895139e-18)
(0.27585173 -6.5645512e-05 1.460281e-18)
(0.27585383 -0.00010456099 1.7944946e-18)
(0.27584885 -0.00014569263 2.8251316e-18)
(0.27582189 -0.00018612688 2.607459e-18)
(0.2757427 -0.00022586725 1.6122981e-18)
(0.27555053 -0.00026396905 1.13099e-18)
(0.27512041 -0.00029881615 6.1469051e-19)
(0.27417268 -0.00032696406 8.0181271e-19)
(0.27201082 -0.00034023144 8.439562e-19)
(0.26703956 -0.00031770398 3.8523902e-19)
(0.25711762 -0.00024217267 2.4989646e-19)
(0.24142819 -0.00013883591 2.72056e-19)
(0.21931381 -6.0587303e-05 9.8731252e-20)
(0.18289682 -1.057747e-05 2.9875401e-19)
(0.27646948 -2.5854749e-05 6.1450628e-18)
(0.27647102 -6.5129981e-05 4.6977771e-18)
(0.27647162 -0.00010372909 3.3674065e-18)
(0.27646352 -0.00014450731 2.1552476e-18)
(0.2764304 -0.00018455289 1.6695216e-18)
(0.27633935 -0.00022383791 1.3981596e-18)
(0.27612438 -0.00026135648 9.5322282e-19)
(0.27564919 -0.00029535665 7.7291856e-19)
(0.27460555 -0.00032208226 8.488582e-19)
(0.27222923 -0.0003323472 6.8457725e-19)
(0.26686787 -0.00030465719 5.0937413e-19)
(0.25658579 -0.00022656125 4.0705077e-19)
(0.2408456 -0.00012799526 3.0838315e-19)
(0.21888719 -5.5367366e-05 2.4357401e-19)
(0.18265925 -9.7115798e-06 2.1827572e-19)
(0.27708455 -2.5663344e-05 9.9818618e-18)
(0.27708548 -6.4635631e-05 6.2747082e-18)
(0.27708444 -0.0001029304 5.1496768e-18)
(0.27707295 -0.00014336686 3.1968247e-18)
(0.27703318 -0.00018303314 1.8119863e-18)
(0.27692935 -0.00022186743 2.4304076e-18)
(0.2766898 -0.00025879623 1.7870043e-18)
(0.27616569 -0.00029191777 1.49704e-18)
(0.27501711 -0.00031711916 1.1594802e-18)
(0.27240981 -0.00032413774 5.9043163e-19)
(0.26665728 -0.00029141517 8.0405603e-19)
(0.256058 -0.00021166603 9.1541036e-19)
(0.24029748 -0.00011813047 8.287844e-19)
(0.21849214 -5.0707643e-05 7.6405953e-19)
(0.18244204 -8.9025334e-06 4.1387239e-19)
(0.27769504 -2.5479044e-05 -1.0886685e-18)
(0.27769529 -6.4159807e-05 4.8414114e-18)
(0.27769247 -0.00010216064 2.9671091e-18)
(0.27767729 -0.00014226521 2.3084742e-18)
(0.27763035 -0.0001815595 2.8732663e-18)
(0.27751275 -0.00021994503 1.5843387e-18)
(0.27724666 -0.00025627339 1.1582083e-18)
(0.27666938 -0.00028847796 1.0333435e-18)
(0.275406 -0.00031203634 5.9045971e-19)
(0.27255164 -0.0003155742 4.1578127e-19)
(0.26641246 -0.00027805925 4.1604317e-19)
(0.25553894 -0.0001975371 3.8594596e-19)
(0.23978254 -0.00010914112 3.8611801e-19)
(0.21812621 -4.6517861e-05 4.9654846e-19)
(0.18224308 -8.1488546e-06 3.2793921e-19)
(0.27830111 -2.5301005e-05 2.3703435e-19)
(0.27830062 -6.3700269e-05 3.2876195e-18)
(0.27829586 -0.0001014162 3.6340119e-18)
(0.2782767 -0.00014119716 2.6415028e-18)
(0.278222 -0.00018012493 2.317562e-18)
(0.27808956 -0.00021806116 1.3284642e-18)
(0.2777948 -0.00025377436 1.1607544e-18)
(0.27715962 -0.0002850166 1.0224882e-18)
(0.27577079 -0.00030679609 6.9639832e-19)
(0.27265429 -0.00030664248 3.4988205e-19)
(0.26613848 -0.00026467813 5.3535133e-19)
(0.2550323 -0.00018420368 4.2704199e-19)
(0.23929925 -0.00010092916 4.8409241e-19)
(0.21778713 -4.2725645e-05 4.2071476e-19)
(0.18206056 -7.4481432e-06 3.0482931e-19)
(0.27890291 -2.5128516e-05 2.2563514e-18)
(0.27890162 -6.3255127e-05 1.4088747e-18)
(0.27889474 -0.00010069401 1.7363948e-18)
(0.27887126 -0.00014015826 2.6350964e-18)
(0.27880821 -0.00017872332 2.0076133e-18)
(0.27865976 -0.00021620724 1.4431344e-18)
(0.27833397 -0.00025128651 1.2630615e-18)
(0.27763569 -0.00028151345 1.1435411e-18)
(0.27611001 -0.00030136189 9.215127e-19)
(0.2727179 -0.00029734386 9.5601985e-19)
(0.26584062 -0.00025136317 5.1356772e-19)
(0.25454084 -0.00017167439 5.1437045e-19)
(0.23884602 -9.340316e-05 6.5825632e-19)
(0.21747286 -3.9273088e-05 4.8579724e-19)
(0.18189296 -6.7970331e-06 2.7577262e-19)
(0.27950056 -2.4960972e-05 -1.8261602e-18)
(0.2794984 -6.2822774e-05 4.3867272e-18)
(0.27948922 -9.9991432e-05 1.4171464e-18)
(0.27946108 -0.00013914466 1.8714712e-18)
(0.279389 -0.00017734922 2.3467876e-18)
(0.27922329 -0.00021437542 9.7332604e-19)
(0.27886389 -0.00024879793 5.7268664e-19)
(0.27809674 -0.00027794828 7.0412014e-19)
(0.27642222 -0.00029569921 3.1957686e-19)
(0.27274323 -0.00028769474 8.6796245e-19)
(0.2655241 -0.00023820406 3.4443707e-20)
(0.25406651 -0.00015993912 1.0810535e-19)
(0.23842119 -8.6481052e-05 2.5315086e-19)
(0.21718151 -3.6113612e-05 1.5810368e-19)
(0.18173897 -6.1914739e-06 1.4895727e-19)
(0.28009418 -2.4797856e-05 5.7064025e-19)
(0.28009107 -6.2401834e-05 2.5021205e-18)
(0.28007941 -9.9306213e-05 3.4167002e-18)
(0.28004623 -0.00013815299 1.8153899e-18)
(0.27996442 -0.00017599777 2.1938488e-18)
(0.27978006 -0.00021255837 1.0062272e-18)
(0.2793842 -0.00024629715 5.6110957e-19)
(0.27854186 -0.00027430051 3.3167009e-19)
(0.27670605 -0.00028977676 1.6949785e-19)
(0.27273166 -0.0002777256 7.5598696e-19)
(0.26519392 -0.00022528491 1.7782577e-19)
(0.25361059 -0.00014897206 -3.4637038e-20)
(0.23802316 -8.0091231e-05 -9.392827e-20)
(0.21691137 -3.3209339e-05 6.8766477e-20)
(0.18159747 -5.627098e-06 1.5345302e-19)
(0.28068388 -2.4638721e-05 3.4852258e-18)
(0.28067974 -6.1991114e-05 2.7409081e-18)
(0.28066539 -9.8636369e-05 3.0834869e-18)
(0.28062676 -0.00013718022 1.4440821e-18)
(0.28053445 -0.00017466447 1.7518769e-18)
(0.28032993 -0.00021074911 1.1124296e-18)
(0.27989449 -0.00024377295 8.0731554e-19)
(0.27897002 -0.0002705489 3.4236588e-19)
(0.27696025 -0.00028356785 3.5658214e-19)
(0.27268518 -0.00026747915 5.8373066e-19)
(0.26485469 -0.00021268092 2.8150757e-19)
(0.25317379 -0.00013873548 -8.2463231e-20)
(0.23765034 -7.4172515e-05 -3.0550131e-19)
(0.2166609 -3.052903e-05 5.8720892e-20)
(0.18146749 -5.0995654e-06 1.299087e-19)
(0.28126974 -2.4483172e-05 3.0022105e-18)
(0.28126449 -6.1589566e-05 5.4851506e-18)
(0.28124722 -9.7980135e-05 3.3839711e-18)
(0.28120271 -0.00013622364 4.286341e-19)
(0.28109907 -0.00017334514 6.0137027e-19)
(0.28087275 -0.00020894082 4.0249071e-19)
(0.28039427 -0.00024121406 -2.4546213e-20)
(0.27938014 -0.00026667151 3.3018957e-20)
(0.27718382 -0.00027705191 -4.8403726e-21)
(0.27260633 -0.00025700811 1.8817223e-20)
(0.26451052 -0.00020045586 -2.278202e-19)
(0.25275643 -0.00012918378 -3.9070257e-19)
(0.23730122 -6.8673275e-05 -4.2675178e-19)
(0.21642866 -2.8046559e-05 -2.7288383e-19)
(0.18134818 -4.6048119e-06 -4.5188598e-20)
(0.28185185 -2.4330856e-05 2.7035422e-18)
(0.28184539 -6.1196251e-05 5.3701231e-18)
(0.28182498 -9.7335907e-05 3.6015415e-18)
(0.28177412 -0.00013528067 9.7371197e-19)
(0.28165823 -0.00017203573 8.3989201e-19)
(0.2814083 -0.00020712676 4.2496014e-19)
(0.28088299 -0.00023860899 -2.3484594e-19)
(0.27977106 -0.0002626457 2.1267398e-20)
(0.27737601 -0.00027021574 2.6585849e-20)
(0.27249806 -0.00024637257 1.0027874e-19)
(0.26416497 -0.0001886604 -2.2764155e-19)
(0.2523585 -0.00012026722 -1.7030494e-19)
(0.23697438 -6.3550126e-05 -3.2418319e-19)
(0.21621337 -2.5739816e-05 -2.5479204e-19)
(0.18123881 -4.1392042e-06 -7.1134258e-20)
(0.28243029 -2.4181448e-05 6.240411e-18)
(0.28242252 -6.0810308e-05 6.444838e-18)
(0.28239871 -9.6702197e-05 3.510467e-18)
(0.28234099 -0.00013434892 2.5498498e-18)
(0.28221186 -0.00017073227 2.0538509e-18)
(0.28193636 -0.00020530013 1.3974935e-18)
(0.28136003 -0.00023594579 8.1519023e-19)
(0.2801416 -0.00025844846 5.9825533e-19)
(0.27753642 -0.00026305461 5.9456935e-19)
(0.27236366 -0.00023563725 -1.0455401e-20)
(0.26382105 -0.00017733136 1.6166145e-19)
(0.25197976 -0.0001119352 3.1492969e-19)
(0.23666845 -5.8766491e-05 2.3134303e-20)
(0.21601387 -2.358992e-05 -5.4386256e-20)
(0.1811387 -3.6995983e-06 4.7669532e-20)
(0.28300512 -2.4034648e-05 3.7210034e-18)
(0.28299594 -6.0430938e-05 3.5816814e-18)
(0.28296845 -9.6077596e-05 3.381059e-18)
(0.28290332 -0.00013342601 2.6845453e-18)
(0.28275987 -0.00016943078 2.2524744e-18)
(0.28245663 -0.00020345398 1.5520776e-18)
(0.28182471 -0.00023321186 1.1266211e-18)
(0.28049057 -0.0002540569 4.431502e-19)
(0.27766504 -0.00025557285 4.9642055e-19)
(0.27220658 -0.0002248688 2.7389205e-19)
(0.26348123 -0.00016649191 3.3010743e-19)
(0.25161982 -0.00010413863 4.0901052e-20)
(0.23638216 -5.4291233e-05 1.4120446e-19)
(0.21582908 -2.1580661e-05 4.9607632e-20)
(0.18104728 -3.2833433e-06 -8.8427993e-22)
(0.2835764 -2.3890167e-05 2.9395479e-18)
(0.28356569 -6.0057379e-05 2.7813514e-18)
(0.28353424 -9.5460738e-05 3.6029376e-18)
(0.2834611 -0.00013250962 3.1083883e-18)
(0.28330215 -0.00016812719 2.3677732e-18)
(0.28296879 -0.00020158114 1.4608693e-18)