/*--------------------------------*- C++ -*----------------------------------*\
| =========                 |                                                 |
| \\      /  F ield         | OpenFOAM: The Open Source CFD Toolbox           |
|  \\    /   O peration     | Version:  2506                                  |
|   \\  /    A nd           | Website:  www.openfoam.com                      |
|    \\/     M anipulation  |                                                 |
\*---------------------------------------------------------------------------*/
FoamFile
{
    version     2.0;
    format      ascii;
    arch        "LSB;label=32;scalar=64";
    class       volScalarField;
    location    "16000/rock";
    object      T;
}
// * * * * * * * * * * * * * * * * * * * * * * * * * * * * * * * * * * * * * //

dimensions      [0 0 0 1 0 0 0];

internalField   nonuniform List<scalar> 
16000
(
317.74691
306.97848
301.15807
297.53195
295.06902
293.29634
291.96607
290.93568
290.11744
289.45444
288.9082
288.45179
288.06587
287.73617
287.45196
287.20504
286.98903
286.79891
286.63067
286.48106
286.34746
286.2277
286.11998
286.02279
285.93488
285.85516
285.78273
285.7168
285.65669
285.6018
285.5516
285.50563
285.46346
285.4247
285.38896
285.35587
285.32501
285.29588
285.26784
285.23978
320.43165
309.7041
303.49103
299.50418
296.75586
294.76089
293.25568
292.08546
291.15369
290.39717
289.7729
289.25066
288.80863
288.43068
288.10466
287.82125
287.5732
287.35478
287.16142
286.98944
286.8358
286.69805
286.57412
286.46229
286.36112
286.26936
286.18599
286.11009
286.04087
285.97767
285.91987
285.86695
285.8184
285.77379
285.73268
285.69463
285.65921
285.62587
285.59398
285.56263
321.96631
311.71198
305.41565
301.232
298.28701
296.12081
294.47187
293.18188
292.15002
291.30933
290.61372
290.03053
289.53604
289.11263
288.74695
288.42874
288.14999
287.90436
287.68677
287.49312
287.32005
287.16481
287.02509
286.89897
286.78483
286.6813
286.5872
286.50151
286.42338
286.35202
286.28676
286.22701
286.17221
286.12187
286.07552
286.03268
285.99288
285.9556
285.92024
285.8861
322.9498
313.2224
306.99898
302.73342
299.66513
297.37409
295.61142
294.22169
293.10353
292.1884
291.42849
290.78958
290.24657
289.78071
289.37772
289.02656
288.71859
288.44693
288.20608
287.99157
287.79972
287.62753
287.47248
287.33247
287.2057
287.09068
286.9861
286.89086
286.80399
286.72464
286.65208
286.58564
286.52474
286.46881
286.41736
286.36989
286.32591
286.2849
286.24634
286.20969
323.64103
314.39328
308.31086
304.03635
300.90033
298.5235
296.67418
295.20361
294.01257
293.03271
292.21567
291.5264
290.93896
290.43382
289.99601
289.61387
289.27826
288.98185
288.71879
288.48426
288.27436
288.08583
287.91596
287.76247
287.62344
287.49724
287.38246
287.27789
287.18249
287.09535
287.01565
286.94269
286.87582
286.81446
286.75806
286.70611
286.65811
286.61358
286.57203
286.53303
324.16157
315.3289
309.41085
305.1706
302.00655
299.57507
297.66229
296.12795
294.8766
293.84138
292.97425
292.24
291.61229
291.07111
290.60103
290.18996
289.82835
289.50855
289.22437
288.97075
288.74355
288.53932
288.35516
288.18866
288.03776
287.90072
287.77603
287.6624
287.5587
287.46396
287.37731
287.29798
287.22531
287.15865
287.09745
287.04118
286.98933
286.94143
286.89705
286.8558
324.57368
316.09719
310.34577
306.1637
302.99879
300.53655
298.57951
296.99629
295.69606
294.61422
293.70375
292.92976
292.26588
291.69191
291.19216
290.75425
290.36835
290.02653
289.72238
289.45063
289.20693
288.98766
288.78979
288.61076
288.44841
288.30089
288.1666
288.04417
287.93241
287.83028
287.73687
287.65136
287.57304
287.50125
287.4354
287.37494
287.31938
287.26826
287.22116
287.17774
324.91207
316.74291
311.15122
307.03943
303.89163
301.41642
299.43055
297.81109
296.47208
295.35163
294.40414
293.5954
292.89934
292.29578
291.76893
291.30628
290.8978
290.53539
290.21245
289.92354
289.66416
289.43055
289.21956
289.02851
288.85514
288.69751
288.55395
288.42301
288.30344
288.19415
288.09418
288.00267
287.91886
287.84209
287.77173
287.70724
287.64811
287.59388
287.54416
287.49862
325.1976
317.29628
311.85396
307.81753
304.69832
302.22309
300.22055
298.57537
297.20635
296.05444
295.07573
294.23695
293.51251
292.88245
292.33104
291.84571
291.41636
291.03478
290.69423
290.38916
290.11495
289.86772
289.64421
289.44167
289.25773
289.09038
288.93788
288.79873
288.67162
288.5554
288.44907
288.35174
288.26263
288.18103
288.10631
288.03791
287.97532
287.91809
287.86584
287.81823
325.44362
317.77826
312.47419
308.51413
305.43055
302.96456
300.95474
299.29247
297.9009
296.72385
295.71917
294.85469
294.10544
293.45183
292.87829
292.37231
291.92378
291.52444
291.16748
290.84725
290.55905
290.29892
290.06353
289.85002
289.65597
289.47931
289.31822
289.17116
289.03677
288.91386
288.80139
288.69844
288.60419
288.51792
288.43899
288.36681
288.30088
288.24074
288.18602
288.13639
325.65914
318.20377
313.02724
309.1423
306.09839
303.64813
301.63822
299.96579
298.55798
297.36127
296.33531
295.44908
294.67835
294.00397
293.41063
292.88596
292.4199
292.00418
291.63197
291.29759
290.99625
290.72396
290.4773
290.25337
290.04969
289.86411
289.6948
289.54015
289.39875
289.26939
289.15099
289.04261
288.9434
288.85262
288.7696
288.69377
288.6246
288.56165
288.50452
288.45291
325.8505
318.58376
313.52488
309.71261
306.71044
304.28033
302.27575
300.59872
299.1799
297.96826
296.92516
296.02075
295.2316
294.53905
293.92812
293.38662
292.90461
292.47387
292.08757
291.74001
291.42639
291.14266
290.88536
290.65155
290.43871
290.24464
290.06746
289.90553
289.75741
289.62185
289.49774
289.38412
289.28012
289.18498
289.09803
289.01866
288.94636
288.88067
288.8212
288.76764
326.02232
318.92642
313.97627
310.23365
307.27395
304.86695
302.87174
301.19451
299.76902
298.54647
297.48985
296.57047
295.76567
295.05735
294.43088
293.87434
293.3779
292.93344
292.53417
292.1744
291.84933
291.55488
291.28757
291.04443
290.82289
290.62074
290.43606
290.26717
290.11261
289.9711
289.84151
289.72284
289.61423
289.51488
289.42412
289.34134
289.266
289.19766
289.1359
289.08042
326.17805
319.23801
314.38864
310.7124
307.79508
305.41307
303.4302
301.75623
300.3276
299.09756
298.03058
297.09905
296.28111
295.55923
294.91915
294.34923
293.8398
293.38287
292.97172
292.60068
292.26496
291.9605
291.6838
291.43186
291.20211
290.99229
290.80047
290.62494
290.46422
290.31701
290.18216
290.05865
289.94559
289.8422
289.74776
289.66168
289.5834
289.51247
289.44849
289.39112
326.32035
319.52339
314.76772
311.1546
308.27904
305.92312
303.95474
302.28672
300.85785
299.62318
298.54855
297.60738
296.77856
296.04512
295.39321
294.81145
294.29041
293.8222
293.40019
293.01879
292.67323
292.35945
292.07396
291.81376
291.57625
291.35918
291.16058
290.97874
290.81215
290.65948
290.51959
290.39143
290.2741
290.1668
290.06883
289.97955
289.89842
289.82498
289.75882
289.6996
326.45128
319.78645
315.11816
311.565
308.73022
306.40095
304.44858
302.78859
301.36183
300.12493
299.04498
298.09635
297.25867
296.51549
295.85337
295.26123
294.72985
294.25148
293.81962
293.42872
293.07408
292.75166
292.45797
292.19003
291.94523
291.72131
291.5163
291.32845
291.15627
290.9984
290.85369
290.72107
290.59965
290.48859
290.3872
290.29484
290.21096
290.13508
290.06679
290.00574
326.57249
320.03027
315.44376
311.94753
309.15239
306.84992
304.91461
303.26424
301.84146
300.60434
299.52107
298.5669
297.72214
296.97086
296.30002
295.69883
295.15829
294.67083
294.23005
293.8305
293.46751
293.13709
292.83579
292.56062
292.30898
292.07861
291.86753
291.674
291.4965
291.33368
291.18435
291.04748
290.92212
290.80746
290.70278
290.60745
290.52089
290.44264
290.37227
290.30943
326.68532
320.25738
315.74762
312.30549
309.54872
307.27294
305.35538
303.71583
302.29855
301.06286
299.97797
299.01992
298.16966
297.41175
296.73354
296.12453
295.57595
295.08039
294.63158
294.22416
293.85353
293.51574
293.20738
292.92547
292.66743
292.431
292.2142
292.01529
291.83275
291.66522
291.5115
291.37055
291.24143
291.12332
291.01547
290.91726
290.82812
290.74756
290.67516
290.61057
326.79083
320.46986
316.03235
312.64166
309.92197
307.67258
305.77316
304.14533
302.73475
301.50186
300.41678
299.4563
298.60193
297.83871
297.15435
296.53865
295.98304
295.48031
295.0243
294.60976
294.23217
293.88761
293.57273
293.28456
293.02054
292.77843
292.55626
292.35227
292.16495
291.99295
291.83506
291.69022
291.5575
291.43606
291.32518
291.2242
291.13256
291.04976
290.97538
290.90905
326.88991
320.66943
316.3001
312.95841
310.2745
308.05105
306.16998
304.55452
303.15158
301.92262
300.83858
299.8769
299.01964
298.25228
297.56287
296.9415
296.37982
295.87078
295.40836
294.9874
294.60347
294.25273
293.93183
293.63786
293.36829
293.12087
292.89364
292.68488
292.49305
292.3168
292.15494
292.00639
291.87023
291.74562
291.63181
291.52816
291.4341
291.34913
291.27281
291.20478
326.98332
320.85752
316.55273
313.25774
310.60833
308.41031
306.54762
304.94498
303.55043
302.32632
301.24434
300.28254
299.42346
298.653
297.95955
297.33344
296.76655
296.25199
295.78388
295.35718
294.96752
294.61113
294.2847
293.98538
293.71064
293.45827
293.22632
293.01306
292.81698
292.63672
292.47108
292.31902
292.17957
292.05191
291.9353
291.82908
291.73268
291.6456
291.56739
291.49769
327.07165
321.03537
316.7918
313.5414
310.92524
308.75207
306.9077
305.31818
303.93258
302.71407
301.63502
300.674
299.81405
299.04141
298.3448
297.71479
297.14348
296.62415
296.15103
295.71921
295.32438
294.96286
294.63138
294.32713
294.04761
293.79063
293.55426
293.33679
293.13669
292.95264
292.78344
292.62802
292.48544
292.35488
292.23557
292.12688
292.02822
291.93909
291.85904
291.7877
327.15545
321.204
317.01864
313.81088
311.22678
309.07784
307.25162
305.67541
304.29919
303.0869
302.01148
301.05205
300.19203
299.41803
298.71905
298.08592
297.51091
296.98747
296.50998
296.07361
295.67416
295.30799
294.97191
294.66313
294.37919
294.11793
293.87744
293.65602
293.45216
293.26454
293.09195
292.93335
292.7878
292.65445
292.53257
292.42149
292.32065
292.22953
292.14768
292.07473
327.23514
321.36431
317.23441
314.06746
311.51428
309.38895
307.58067
306.01785
304.65134
303.44574
302.37456
301.41738
300.558
299.78336
299.08272
298.44715
297.86911
297.34219
296.86091
296.42053
296.01695
295.64659
295.30632
294.9934
294.7054
294.44018
294.19586
293.97075
293.76336
293.57237
293.39659
293.23497
293.08658
292.95058
292.82622
292.71286
292.60991
292.51686
292.43326
292.35873
327.3111
321.51706
317.44011
314.31229
311.78894
309.6866
307.89598
306.34656
304.98998
303.79146
302.72502
301.77065
300.91253
300.13788
299.43623
298.79884
298.21835
297.68852
297.20398
296.7601
296.35286
295.97875
295.63469
295.31799
295.02625
294.75738
294.5095
294.28095
294.07025
293.8761
293.6973
293.53283
293.38174
293.24321
293.11649
293.00093
292.89595
292.80103
292.71572
292.63963
327.38367
321.66293
317.63661
314.54636
312.05181
309.97182
308.19857
306.6625
305.316
304.12486
303.06357
302.11251
301.25617
300.48207
299.77996
299.1413
298.55892
298.02671
297.5394
297.09249
296.68202
296.30455
295.95708
295.63694
295.34179
295.06955
294.81838
294.58663
294.37284
294.17571
293.99408
293.8269
293.67326
293.53231
293.40333
293.28566
293.17871
293.08197
292.995
292.91739
327.45312
321.80248
317.82468
314.77054
312.3038
310.24556
308.48935
306.96655
305.63022
304.44669
303.39088
302.44353
301.58944
300.81637
300.1143
299.47488
298.8911
298.35696
297.86735
297.41783
297.00454
296.6241
296.27357
295.95032
295.65205
295.37672
295.1225
294.88778
294.6711
294.47119
294.28689
294.11716
293.96109
293.81784
293.6867
293.567
293.45816
293.35966
293.27106
293.19196
327.51971
321.93623
318.00499
314.9856
312.54575
310.50866
308.76914
307.25948
305.93337
304.75762
303.70757
302.76427
301.91281
301.1412
300.43961
299.79988
299.21514
298.67952
298.18802
297.73629
297.32055
296.9375
296.58423
296.25817
295.95707
295.67891
295.42188
295.1844
294.96505
294.76253
294.57571
294.40358
294.2452
294.09978
293.96657
293.84492
293.73425
293.63405
293.54387
293.4633
327.58365
322.06462
318.17813
315.19223
312.77839
310.76186
309.03871
307.54203
306.22612
305.05828
304.0142
303.07524
302.22676
301.45698
300.75626
300.11662
299.53131
298.9946
298.50159
298.04802
297.63018
297.24484
296.88914
296.56057
296.2569
295.97615
295.71655
295.47653
295.25467
295.04972
294.86055
294.68614
294.52559
294.37809
294.2429
294.11938
294.00696
293.90511
293.81338
293.73137
327.64513
322.18807
318.34464
315.39104
313.00237
311.00584
309.2987
307.81483
306.50911
305.34925
304.31131
303.37693
302.53171
301.76408
301.06459
300.42538
299.83987
299.30243
298.80826
298.35318
297.93356
297.54624
297.1884
296.85759
296.5516
296.2685
296.00654
295.76416
295.53999
295.33277
295.14139
294.96484
294.80223
294.65275
294.51568
294.39038
294.27625
294.1728
294.07957
293.99615
327.70434
322.30692
318.50499
315.58257
313.21829
311.24122
309.54974
308.07849
306.78289
305.63107
304.59939
303.66979
302.82807
302.06288
301.3649
300.72646
300.14106
299.60322
299.1082
298.65192
298.23083
297.8418
297.4821
297.14929
296.84123
296.55599
296.29187
296.04733
295.82101
295.61168
295.41823
295.23967
295.07512
294.92376
294.78489
294.65787
294.54211
294.43711
294.34241
294.25761
327.76143
322.42148
318.65959
315.76732
313.42668
311.46854
309.79237
308.33355
307.04799
305.90422
304.87891
303.95424
303.11624
302.35371
301.65753
301.02012
300.43514
299.89717
299.4016
298.9444
298.5221
298.13164
297.77032
297.43575
297.12583
296.83867
296.57258
296.32606
296.09776
295.88646
295.69108
295.51063
295.34424
295.1911
295.05052
294.92185
294.80452
294.69802
294.60189
294.51573
327.81652
322.53206
318.80884
315.94573
313.62801
311.6883
310.02711
308.5805
307.30489
306.16916
305.15029
304.23068
303.39656
302.63691
301.94275
301.30663
300.72232
300.1845
299.68863
299.23078
298.80753
298.41587
298.05316
297.71706
297.40549
297.11659
296.84872
296.60038
296.37025
296.15713
295.95994
295.77772
295.60959
295.45477
295.31256
295.18231
295.06346
294.9555
294.85798
294.77049
327.86977
322.63889
318.95306
316.1182
313.82273
311.90095
310.2544
308.8198
307.55402
306.42631
305.41392
304.49947
303.66938
302.91279
302.22085
301.58624
301.00283
300.46539
299.96947
299.5112
299.08723
298.6946
298.33072
297.99329
297.68026
297.38982
297.12033
296.87033
296.63852
296.42371
296.22484
296.04095
295.87119
295.71477
295.571
295.43924
295.31893
295.20956
295.11068
295.02189
327.92126
322.74222
319.09258
316.28509
314.01123
312.10692
310.47468
309.05186
307.7958
306.67607
305.67017
304.76096
303.93502
303.18164
302.4921
301.8592
301.27689
300.74005
300.24429
299.78582
299.36133
298.96794
298.60309
298.26451
297.95021
297.65839
297.38745
297.13595
296.90259
296.68622
296.48578
296.30034
296.12903
295.9711
295.82584
295.69263
295.57091
295.46018
295.35998
295.26991
327.97112
322.84225
319.22766
316.44672
314.19386
312.30657
310.68832
309.27707
308.0306
306.91879
305.9194
305.01548
304.19378
303.44374
302.75675
302.12572
301.5447
301.00865
300.51325
300.05477
299.62997
299.23601
298.87036
298.53083
298.21542
297.92238
297.65014
297.39726
297.16249
296.94468
296.74279
296.55588
296.38313
296.22376
296.07708
295.94249
295.81942
295.70736
295.60587
295.51455
328.01943
322.93917
319.35858
316.6034
314.37095
312.50025
310.89567
309.49578
308.25876
307.1548
306.16191
305.26332
304.44594
303.69934
303.01504
302.38604
301.80647
301.27138
300.77651
300.31821
299.89327
299.4989
299.13264
298.79231
298.47595
298.18185
297.90844
297.65433
297.41827
297.19913
296.99588
296.80761
296.63349
296.47276
296.32474
296.18882
296.06444
295.9511
295.84836
295.75581
328.06629
323.03317
319.48555
316.7554
314.54281
312.68828
311.09707
309.70832
308.48061
307.38443
306.39801
305.50477
304.69177
303.9487
303.2672
302.64035
302.06238
301.5284
301.03423
300.57626
300.15134
299.75674
299.39002
299.04904
298.73188
298.43684
298.1624
297.90718
297.66995
297.44958
297.24509
297.05555
296.88014
296.71812
296.56882
296.43163
296.30599
296.19141
296.08744
295.99369
328.11176
323.12439
319.60879
316.90297
314.7097
312.87095
311.29281
309.91498
308.69644
307.60796
306.62798
305.7401
304.93152
304.19206
303.51344
302.88886
302.31261
301.77988
301.28655
300.82906
300.40432
300.00962
299.64259
299.3011
298.98327
298.68744
298.41209
298.15587
297.91757
297.69609
297.49043
297.29971
297.12309
296.95986
296.80933
296.67092
296.54407
296.42829
296.32313
296.22819
328.15593
323.21299
319.7285
317.04633
314.87189
313.04852
311.48316
310.11605
308.90653
307.82565
306.85207
305.96955
305.16542
304.42962
303.75398
303.13176
302.55735
302.02599
301.53363
301.07675
300.65231
300.25766
299.89044
299.54857
299.23021
298.9337
298.65756
298.40045
298.16119
297.93868
297.73195
297.54012
297.36237
297.19798
297.0463
296.90672
296.7787
296.66175
296.55543
296.45933
328.19885
323.2991
319.84486
317.18571
315.0296
313.22125
311.66838
310.31178
309.11113
308.03777
307.07053
306.19335
305.3937
304.66161
303.989
303.36924
302.79676
302.26688
301.77559
301.31945
300.89544
300.50096
300.13367
299.79155
299.47276
299.17568
298.89885
298.64096
298.40083
298.17739
297.96967
297.7768
297.59799
297.43252
297.27973
297.13903
297.00988
296.8918
296.78435
296.68712
328.2406
323.38284
319.95803
317.32128
315.18305
313.38935
311.84871
310.5024
309.31049
308.24454
307.2836
306.41174
305.61656
304.88821
304.2187
303.60146
303.031
302.50269
302.01258
301.55728
301.13382
300.73961
300.37238
300.0301
299.711
299.41346
299.13604
298.87746
298.63655
298.41226
298.20363
298.0098
297.82999
297.66349
297.50964
297.36787
297.23764
297.11846
297.00991
296.91157
328.28122
323.46433
320.06816
317.45324
315.33244
313.55305
312.02436
310.68816
309.50482
308.44618
307.49147
306.6249
305.83421
305.10963
304.44325
303.82859
303.26021
302.73356
302.24473
301.79037
301.36754
300.97371
300.60664
300.26432
299.945
299.64709
299.36918
299.11
298.86839
298.64333
298.43386
298.23914
298.05839
297.89092
297.73607
297.59327
297.46199
297.34175
297.23212
297.13269
328.32078
323.54366
320.17539
317.58175
315.47794
313.71253
312.19554
310.86924
309.69434
308.64291
307.69435
306.83305
306.04682
305.32602
304.66282
304.05078
303.48457
302.95964
302.47217
302.01882
301.59673
301.20338
300.83654
300.49427
300.17482
299.87664
299.59832
299.33862
299.0964
298.87064
298.6604
298.46485
298.28323
298.11483
297.95903
297.81525
297.68296
297.56169
297.451
297.35051
328.35931
323.62094
320.27986
317.70695
315.61974
313.86798
312.36244
311.04585
309.87923
308.8349
307.89244
307.03635
306.25459
305.53757
304.87756
304.2682
303.70419
303.18106
302.69501
302.24277
301.82149
301.42869
301.06218
300.72004
300.40055
300.10218
299.82353
299.56339
299.32062
299.09423
298.88329
298.68698
298.50453
298.33526
298.17855
298.03382
297.90056
297.77829
297.66658
297.56504
328.39687
323.69627
320.38168
317.82901
315.75798
314.01957
312.52524
311.21815
310.05968
309.02235
308.0859
307.23499
306.45766
305.74443
305.08763
304.48097
303.91921
303.39794
302.91338
302.4623
302.0419
301.64974
301.28364
300.94171
300.62226
300.32376
300.04486
299.78435
299.54111
299.31415
299.10257
298.90554
298.72232
298.55224
298.39466
298.24903
298.11483
297.99158
297.87887
297.77631
328.43349
323.76971
320.48097
317.94803
315.89282
314.16745
312.68409
311.38633
310.23586
309.20542
308.27491
307.42912
306.6562
305.94675
305.29318
304.68925
304.12978
303.6104
303.12738
302.67753
302.25809
301.86662
301.501
301.15936
300.84001
300.54146
300.26238
300.00156
299.75791
299.53044
299.31827
299.12059
298.93665
298.76579
298.60739
298.46089
298.32578
298.20159
298.08791
297.98433
328.46921
323.84135
320.57783
318.06416
316.02439
314.31178
312.83915
311.55054
310.40793
309.38426
308.45962
307.6189
306.85036
306.14468
305.49434
304.89316
304.336
303.81855
303.33713
302.88857
302.47013
302.07942
301.71435
301.37305
301.05387
300.75534
300.47613
300.21507
299.97106
299.74315
299.53045
299.33216
299.14755
298.97595
298.81676
298.66943
298.53344
298.40834
298.29371
298.18915
328.50408
323.91126
320.67236
318.1775
316.15283
314.45269
312.99056
311.71093
310.57603
309.55904
308.64018
307.80447
307.04028
306.33835
305.69124
305.09282
304.53801
304.02252
303.54273
303.0955
302.67812
302.28823
301.92376
301.58286
301.26391
300.96546
300.68619
300.42493
300.18063
299.95232
299.73914
299.54029
299.35504
299.18275
299.02282
298.87468
298.73785
298.61187
298.4963
298.39077
328.53811
323.97951
320.76464
318.28816
316.27824
314.5903
313.13847
311.86763
310.74031
309.72988
308.81673
307.98598
307.22609
306.52789
305.884
305.28835
304.7359
304.22242
303.74429
303.29843
302.88215
302.49313
302.12931
301.78887
301.4702
301.17188
300.8926
300.63121
300.38666
300.15801
299.94438
299.74501
299.55918
299.38624
299.22559
299.07669
298.93904
298.81219
298.69571
298.58924
328.57136
324.04617
320.85477
318.39625
316.40075
314.72475
313.283
312.02078
310.90091
309.89693
308.9894
308.16355
307.40792
306.71344
306.07276
305.47988
304.9298
304.41833
303.9419
303.49744
303.08231
302.6942
302.33107
301.99114
301.67281
301.37466
301.09543
300.83395
300.5892
300.36024
300.14623
299.94638
299.76
299.58644
299.4251
299.27547
299.13703
299.00934
298.89198
298.78457
328.60383
324.11128
320.94282
318.50185
316.52045
314.85614
313.42426
312.1705
311.05793
310.06031
309.15831
308.3373
307.5859
306.89509
306.25761
305.6675
305.1198
304.61037
304.13566
303.69264
303.27869
302.89153
302.52914
302.18975
301.8718
301.57388
301.29472
301.0332
300.7883
300.55908
300.34472
300.14443
299.95753
299.78339
299.62141
299.47106
299.33186
299.20335
299.08512
298.97681
328.63557
324.17492
321.02887
318.60506
316.63746
314.98457
313.56237
312.31691
311.21151
310.22014
309.32359
308.50735
307.76013
307.07297
306.43867
305.85132
305.30602
304.79863
304.32565
303.8841
303.47136
303.08518
302.72357
302.38477
302.06724
301.76958
301.49055
301.22903
300.98401
300.75457
300.53989
300.33921
300.15183
299.97713
299.81453
299.6635
299.52355
299.39425
299.27519
299.16597
328.6666
324.23712
321.11298
318.70595
316.75185
315.11016
313.69744
312.4601
311.36176
310.37652
309.48535
308.67382
307.93073
307.24719
306.61605
306.03145
305.48853
304.9832
304.51198
304.07191
303.66041
303.27524
302.91444
302.57627
302.25919
301.96183
301.68296
301.42148
301.17638
300.94676
300.7318
300.53074
300.34292
300.16769
300.0045
299.85282
299.71216
299.58209
299.46219
299.3521
328.69694
324.29794
321.19523
318.80462
316.86372
315.233
313.82956
312.6002
311.50877
310.52957
309.6437
308.83681
308.09779
307.41784
306.78984
306.20799
305.66745
305.16417
304.69472
304.25615
303.84591
303.46178
303.10181
302.7643
302.44771
302.15069
301.87202
301.61061
301.36546
301.13569
300.92048
300.71909
300.53084
300.35513
300.19137
300.03905
299.8977
299.76688
299.64618
299.53523
328.72661
324.35742
321.27568
318.90112
316.97315
315.35317
313.95883
312.73729
311.65266
310.67939
309.79872
308.99642
308.26143
307.58502
306.96014
306.38101
305.84285
305.34164
304.87396
304.4369
304.02794
303.64487
303.28577
302.94893
302.63286
302.33621
302.05777
301.79646
301.5513
301.32141
301.10598
300.90429
300.71565
300.53947
300.37517
300.22225
300.08023
299.94867
299.82718
299.71539
328.75565
324.41562
321.35438
318.99554
317.08023
315.47075
314.08533
312.87148
311.79351
310.82608
309.95053
309.15274
308.42173
307.74883
307.12704
306.55062
306.01482
305.51567
305.04978
304.61424
304.20657
303.82458
303.46636
303.13024
302.81471
302.51845
302.24027
301.97909
301.73395
301.50397
301.28836
301.08638
300.89738
300.72075
300.55594
300.40243
300.25976
300.12749
300.00523
299.89261
328.78406
324.47256
321.43139
319.08793
317.18501
315.58584
314.20916
313.00283
311.93141
310.96972
310.09921
309.30587
308.57879
307.90936
307.29062
306.71689
306.18345
305.68636
305.22224
304.78824
304.38188
304.00098
303.64367
303.30827
302.99332
302.69748
302.41958
302.15856
301.91346
301.68342
301.46764
301.2654
301.07606
300.89902
300.73371
300.57964
300.43634
300.30338
300.18037
300.06693
328.81186
324.52829
321.50677
319.17837
317.28758
315.6985
314.33039
313.13145
312.06646
311.1104
310.24486
309.4559
308.73269
308.06669
307.45097
306.87991
306.34882
305.85377
305.39144
304.95898
304.55393
304.17414
303.81775
303.4831
303.16873
302.87334
302.59574
302.33491
302.08988
301.85979
301.64387
301.44141
301.25175
301.07431
300.90853
300.75392
300.61001
300.47637
300.35262
300.23839
328.83909
324.58285
321.58055
319.2669
317.388
315.80881
314.44911
313.25741
312.19873
311.2482
310.38755
309.6029
308.88352
308.2209
307.60818
307.03976
306.511
306.01799
305.55744
305.12652
304.72279
304.34412
303.98866
303.65478
303.34102
303.04608
302.76882
302.50819
302.26325
302.03314
301.81711
301.61444
301.42449
301.24667
301.08044
300.9253
300.78079
300.6465
300.52203
300.40702
328.86574
324.63627
321.6528
319.35359
317.48633
315.91683
314.56537
313.38078
312.3283
311.38322
310.52736
309.74696
309.03135
308.37207
307.76232
307.19652
306.67007
306.17909
305.72031
305.29093
304.88852
304.51099
304.15647
303.82337
303.51023
303.21578
302.93886
302.67845
302.43362
302.20352
301.98739
301.78453
301.59431
301.41613
301.24946
301.09382
300.94874
300.81381
300.68863
300.57286
328.89185
324.68858
321.72355
319.43849
317.58264
316.02264
314.67925
313.50164
312.45524
311.51551
310.66437
309.88816
309.17626
308.52028
307.91345
307.35025
306.82609
306.33714
305.88013
305.45228
305.0512
304.6748
304.32124
303.98893
303.67642
303.38246
303.10591
302.84575
302.60104
302.37097
302.15476
301.95173
301.76125
301.58274
301.41566
301.25952
301.11389
300.97833
300.85247
300.73594
328.91742
324.73981
321.79285
319.52164
317.67698
316.12628
314.79082
313.62005
312.57963
311.64515
310.79866
310.02657
309.31833
308.6656
308.06167
307.50103
306.97915
306.49219
306.03694
305.61064
305.21088
304.83562
304.48302
304.15151
303.83965
303.5462
303.27003
303.01012
302.76556
302.53553
302.31926
302.11608
301.92536
301.74653
301.57905
301.42245
301.27627
301.1401
301.01356
300.8963
328.94246
324.79001
321.86074
319.60311
317.7694
316.22783
314.90014
313.73609
312.70153
311.77221
310.93029
310.16225
309.45762
308.80811
308.20703
307.64893
307.1293
306.64433
306.19083
305.76605
305.36763
304.9935
304.64187
304.31117
303.99997
303.70704
303.43126
303.17163
302.92723
302.69725
302.48094
302.27763
302.08668
301.90755
301.73969
301.58263
301.43592
301.29916
301.17196
301.05397
328.96701
324.83918
321.92725
319.68292
317.85995
316.32734
315.00727
313.84981
312.82101
311.89676
311.05933
310.29528
309.59421
308.94786
308.3496
307.79401
307.27661
306.79361
306.34185
305.91859
305.52149
305.14851
304.79785
304.46796
304.15743
303.86503
303.58966
303.3303
303.08608
302.85617
302.63984
302.4364
302.24526
302.06583
301.8976
301.7401
301.59288
301.45554
301.3277
301.209
328.99106
324.88737
321.99242
319.76114
317.9487
316.42486
315.11227
313.96127
312.93812
312.01886
311.18585
310.42573
309.72815
309.08492
308.48944
307.93634
307.42114
306.9401
306.49006
306.06832
305.67254
305.30069
304.95101
304.62193
304.31208
304.02022
303.74526
303.48621
303.24217
303.01235
302.796
302.59246
302.40112
302.22142
302.05284
301.89491
301.7472
301.60929
301.48081
301.36141
329.01463
324.93459
322.0563
319.8378
318.03567
316.52044
315.21518
314.07053
313.05294
312.13857
311.3099
310.55364
309.85951
309.21935
308.62663
308.07597
307.56295
307.08385
306.63553
306.21529
305.82082
305.45011
305.1014
304.77315
304.46398
304.17266
303.89813
303.63938
303.39554
303.16581
302.94946
302.74583
302.55431
302.37435
302.20544
302.04709
301.89889
301.76043
301.63133
301.51125
329.03774
324.98088
322.11891
319.91294
318.12093
316.61414
315.31607
314.17765
313.16551
312.25595
311.43155
310.67909
309.98835
309.35122
308.76121
308.21297
307.70211
307.22492
306.7783
306.35955
305.96639
305.59682
305.24908
304.92165
304.61316
304.3224
304.0483
303.78987
303.54624
303.31661
303.10027
302.89656
302.70488
302.52467
302.35543
302.19669
302.04801
301.90901
301.77931
301.65856
329.06039
325.02626
322.18028
319.98659
318.20451
316.70599
315.41499
314.28268
313.27589
312.37106
311.55085
310.80213
310.11472
309.48059
308.89324
308.3474
307.83866
307.36338
306.91843
306.50117
306.10931
305.74086
305.3941
305.06749
304.75969
304.46949
304.19582
303.93771
303.6943
303.46479
303.24848
303.0447
302.85286
302.67241
302.50286
302.34373
302.1946
302.05507
301.92477
301.80336
329.08259
325.07074
322.24045
320.0588
318.28645
316.79606
315.51198
314.38567
313.38414
312.48395
311.66786
310.92281
310.23869
309.6075
309.02279
308.4793
307.97267
307.49926
307.05598
306.64019
306.24962
305.8823
305.5365
305.21072
304.9036
304.61396
304.34074
304.08296
303.83977
303.61039
303.39411
303.19027
302.99829
302.81762
302.64776
302.48826
302.33868
302.19863
302.06775
301.9457
329.10437
325.11435
322.29944
320.12961
318.3668
316.88437
315.60709
314.48667
313.4903
312.59467
311.78263
311.0412
310.36031
309.73202
309.1499
308.60874
308.10419
307.63263
307.19099
306.77666
306.38737
306.02117
305.67634
305.35138
305.04495
304.75588
304.4831
304.22566
303.9827
303.75345
303.53721
303.33332
303.14121
302.96032
302.79018
302.63031
302.4803
302.33975
302.2083
302.08561
329.12572
325.15712
322.35729
320.19904
318.44559
316.97097
315.70036
314.58572
313.59442
312.70326
311.89521
311.15733
310.47963
309.85419
309.27463
308.73576
308.23326
307.76354
307.32353
306.91064
306.52262
306.15753
305.81366
305.48952
305.18378
304.89527
304.62294
304.36585
304.12313
303.89402
303.67782
303.4739
303.28166
303.10057
302.93014
302.76992
302.61948
302.47844
302.34643
302.22312
329.14666
325.19906
322.41402
320.26713
318.52286
317.05591
315.79184
314.68287
313.69655
312.80979
312.00565
311.27127
310.5967
309.97407
309.39703
308.86042
308.35995
307.89203
307.45364
307.04217
306.65541
306.29142
305.94851
305.62518
305.32014
305.0322
304.76032
304.50357
304.26109
304.03213
303.81599
303.61203
303.41968
303.2384
303.0677
302.90713
302.75628
302.61476
302.4822
302.35828
329.16719
325.2402
322.46965
320.33391
318.59864
317.13921
315.88156
314.77817
313.79673
312.9143
312.114
311.38306
310.71157
310.0917
309.51715
308.98277
308.48429
308.01816
307.58136
307.17131
306.7858
306.4229
306.08093
305.75842
305.45406