/*--------------------------------*- C++ -*----------------------------------*\
| =========                 |                                                 |
| \\      /  F ield         | OpenFOAM: The Open Source CFD Toolbox           |
|  \\    /   O peration     | Version:  2506                                  |
|   \\  /    A nd           | Website:  www.openfoam.com                      |
|    \\/     M anipulation  |                                                 |
\*---------------------------------------------------------------------------*/
FoamFile
{
    version     2.0;
    format      ascii;
    arch        "LSB;label=32;scalar=64";
    class       volScalarField;
    location    "4000/rock";
    object      T;
}
// * * * * * * * * * * * * * * * * * * * * * * * * * * * * * * * * * * * * * //

dimensions      [0 0 0 1 0 0 0];

internalField   nonuniform List<scalar> 
16000
(
317.65006
306.78495
300.89635
297.21774
294.71229
292.904
291.54321
290.48624
289.64455
288.96069
288.39574
287.9225
287.52136
287.17786
286.88113
286.62285
286.39653
286.19706
286.02035
285.86312
285.72267
285.59679
285.48364
285.38169
285.28964
285.20638
285.13099
285.06264
285.00064
284.94437
284.89329
284.84692
284.80482
284.76657
284.73178
284.70006
284.67099
284.64405
284.61859
284.59349
320.32003
309.48083
303.18904
299.14162
296.34424
294.30818
292.76776
291.56686
290.60803
289.82744
289.1816
288.63993
288.18034
287.78647
287.44601
287.14948
286.88953
286.66032
286.45721
286.27642
286.11488
285.97007
285.83988
285.72255
285.6166
285.52076
285.43396
285.35527
285.28388
285.21909
285.16028
285.10689
285.05842
285.0144
284.97438
284.93792
284.90456
284.87376
284.84484
284.81692
321.83995
311.459
305.07344
300.82114
297.82055
295.60779
293.91894
292.59418
291.53167
290.6637
289.94364
289.33843
288.82404
288.38259
288.00055
287.66748
287.37524
287.11738
286.88874
286.68511
286.50309
286.33984
286.19303
286.06068
285.94112
285.83296
285.73498
285.64614
285.56553
285.49237
285.42597
285.36569
285.31098
285.26131
285.2162
285.17516
285.1377
285.10329
285.0713
285.04105
322.80869
312.93975
306.61658
302.2743
299.14387
296.80079
294.99354
293.56497
292.41255
291.46693
290.6797
290.01619
289.45094
288.96492
288.54364
288.17588
287.85284
287.56752
287.31431
287.08865
286.8868
286.70567
286.5427
286.39571
286.2629
286.1427
286.03379
285.93501
285.84538
285.76403
285.69018
285.62316
285.56234
285.50717
285.45711
285.41165
285.37028
285.33248
285.2977
285.26538
323.48516
314.08097
307.88832
303.52903
300.32434
297.89001
295.99141
294.47792
293.24902
292.23548
291.38825
290.67179
290.05979
289.53238
289.07435
288.67387
288.32159
288.0101
287.73337
287.48653
287.26557
287.06717
286.88854
286.72735
286.58164
286.44972
286.33014
286.22168
286.12323
286.03387
285.95275
285.87914
285.81237
285.75184
285.69697
285.64724
285.60214
285.56115
285.52378
285.48956
323.99093
314.98696
308.94821
304.61511
301.37587
298.88144
296.91471
295.33337
294.04058
292.96847
292.06829
291.30427
290.64965
290.0841
289.59188
289.16073
288.78088
288.44455
288.14542
287.87832
287.63901
287.42396
287.23022
287.05529
286.89707
286.75377
286.62383
286.50592
286.39889
286.30172
286.21351
286.13348
286.06091
285.99517
285.93565
285.88181
285.83312
285.78911
285.74929
285.71329
324.38826
315.72563
309.84306
305.56011
302.31351
299.78285
297.76719
296.1329
294.78764
293.66572
292.71934
291.913
291.21989
290.61943
290.09563
289.6359
289.23018
288.87041
288.55001
288.26361
288.00675
287.77573
287.56744
287.37926
287.20895
287.05463
286.91463
286.78756
286.67218
286.56741
286.47231
286.38603
286.30783
286.23702
286.173
286.11519
286.06307
286.01616
285.97403
285.93631
324.71187
316.34177
310.60848
306.38779
303.15179
300.60273
298.55357
296.87898
295.49136
294.32764
293.34138
292.49773
291.77011
291.13795
290.58514
290.09892
289.66905
289.28725
288.94677
288.64204
288.36846
288.12217
287.89993
287.699
287.51705
287.35207
287.20235
287.0664
286.94292
286.83078
286.72898
286.63664
286.55297
286.47726
286.40887
286.34724
286.29182
286.24214
286.19778
286.1584
324.98262
316.86558
311.27126
307.11791
303.90401
301.3495
299.27901
297.57465
296.15344
294.95508
293.93475
293.05848
292.30015
291.63939
291.06011
290.54948
290.09717
289.69477
289.33539
289.01334
288.72388
288.46303
288.22745
288.01429
287.82114
287.6459
287.4868
287.34226
287.21095
287.09167
286.98338
286.88516
286.79619
286.71574
286.64314
286.5778
286.5192
286.46685
286.42036
286.37936
325.21385
317.31802
311.85157
307.76659
304.58184
302.03115
299.94874
298.22323
296.7759
295.54922
294.50007
293.59553
292.81008
292.12367
291.52035
290.98734
290.51428
290.09269
289.71561
289.37724
289.07275
288.79807
288.54977
288.32493
288.12104
287.93595
287.7678
287.61499
287.47611
287.34993
287.23537
287.13146
287.03736
286.95232
286.87565
286.80674
286.74507
286.69015
286.64158
286.59902
325.4146
317.71405
312.36475
308.34691
305.19538
302.65499
300.56785
298.82814
297.361
296.11149
295.03822
294.10938
293.30013
292.59085
291.96583
291.4124
290.92023
290.48085
290.08724
289.73355
289.41488
289.12711
288.86672
288.63073
288.41657
288.22203
288.0452
287.88443
287.73826
287.60543
287.4848
287.3754
287.27635
287.18687
287.10626
287.03392
286.96928
286.91188
286.86131
286.81721
325.5912
318.06459
312.82259
308.86946
305.7532
303.22756
301.14113
299.39279
297.91108
296.64347
295.55022
294.60065
293.77066
293.04111
292.3966
291.82462
291.31494
290.85912
290.45013
290.08211
289.75011
289.44997
289.17812
288.93153
288.70758
288.504
288.31886
288.15045
287.99727
287.85802
287.73156
287.61686
287.51303
287.41927
287.33486
287.25919
287.1917
287.1319
287.07937
287.03377
325.74827
318.37785
313.23425
309.34281
306.26259
303.75467
301.67298
299.92042
298.42848
297.1468
296.03721
295.0701
294.22216
293.47476
292.81282
292.22406
291.69839
291.22743
290.80419
290.4228
290.07832
289.76653
289.48385
289.2272
288.99393
288.78174
288.58864
288.4129
288.253
288.10759
287.97551
287.85571
287.74727
287.64939
287.56132
287.48244
287.41218
287.35006
287.29564
287.24857
325.88927
318.66008
313.60695
309.77397
306.72971
304.24139
302.16743
300.4141
298.91549
297.62316
296.50037
295.51858
294.6552
293.89214
293.2147
292.61085
292.07063
291.58579
291.14938
290.75557
290.39941
290.07669
289.78379
289.51762
289.27551
289.05512
288.85443
288.67169
288.50534
288.35403
288.21655
288.09184
287.97898
287.87711
287.78552
287.70355
287.63062
287.56624
287.50998
287.46148
326.01686
318.91617
313.94645
310.16868
307.15975
304.69216
302.62809
300.8767
299.37431
298.07421
296.94095
295.94697
295.07042
294.29372
293.60255
292.98515
292.43176
291.93422
291.48569
291.08036
290.71332
290.38036
290.07786
289.80271
289.55222
289.32404
289.11613
288.9267
288.7542
288.59722
288.45457
288.32515
288.20803
288.10234
288.00735
287.92239
287.84688
287.78033
287.72228
287.67237
326.13311
319.14998
314.25739
310.53167
307.55714
305.11083
303.05818
301.31083
299.80701
298.50154
297.36015
296.35618
295.46847
294.67996
293.9767
293.3472
292.78191
292.27282
291.81315
291.39718
291.02003
290.6775
290.36599
290.08238
289.82398
289.58841
289.37364
289.17785
288.99946
288.83708
288.68947
288.55554
288.43433
288.32497
288.2267
288.13887
288.06088
287.99221
287.93242
287.88114
326.23967
319.36463
314.54357
310.86691
307.92563
305.50078
303.46061
301.71888
300.21553
298.9067
297.75918
296.74714
295.85007
295.05138
294.33752
293.69727
293.12128
292.60168
292.13183
291.70606
291.31953
290.96809
290.64815
290.35659
290.09072
289.84817
289.62689
289.42505
289.24107
289.07352
288.92118
288.78292
288.65778
288.5449
288.44349
288.35289
288.27249
288.20178
288.14031
288.08768
326.33787
319.56263
314.80811
311.17768
308.26841
305.86493
303.83792
302.10304
300.60167
299.29115
298.13921
297.12077
296.21591
295.40853
294.68542
294.03565
293.45007
292.92097
292.44182
292.00704
291.61184
291.25212
290.9243
290.62529
290.3524
290.10326
289.87582
289.66824
289.47893
289.30647
289.1496
289.00721
288.87832
288.76205
288.65762
288.56435
288.48164
288.40895
288.34583
288.29189
326.4288
319.74607
315.0536
311.46679
308.58825
306.20582
304.19241
302.46527
300.9671
299.65626
298.50134
297.47795
296.56671
295.75195
295.02083
294.36266
293.76852
293.23085
292.74324
292.3002
291.89701
291.5296
291.19444
290.88847
290.60898
290.35364
290.12037
289.90735
289.71299
289.53584
289.37466
289.22833
289.09585
288.97633
288.86901
288.77318
288.68823
288.61363
288.54892
288.49369
326.51334
319.91666
315.28223
311.73659
308.88749
306.52571
304.52609
302.80736
301.31334
300.00332
298.84665
297.81955
296.90316
296.08221
295.34417
294.67864
294.07688
293.5315
293.03622
292.58563
292.17508
291.80057
291.4586
291.14611
290.86044
290.59926
290.3605
290.14235
289.94319
289.7616
289.59632
289.44622
289.3103
289.18769
289.07758
288.97929
288.89219
288.81575
288.74949
288.693
326.59223
320.07587
315.49584
311.9891
309.16818
306.82654
304.84077
303.13091
301.6418
300.33353
299.17614
298.14641
297.22594
296.39984
295.65589
294.98393
294.37542
293.82314
293.32091
292.86344
292.44615
292.06508
291.71678
291.39823
291.10678
290.84012
290.59619
290.37318
290.16949
289.98368
289.8145
289.66082
289.52163
289.39605
289.28328
289.18262
289.09345
289.01522
288.94745
288.88974
326.66611
320.22491
315.69599
312.22607
309.4321
307.11003
305.13806
303.43738
301.95374
300.64799
299.49075
298.45932
297.53571
296.70539
295.95642
295.27888
294.66443
294.10598
293.5975
293.13376
292.7103
292.32318
291.96903
291.64484
291.348
291.0762
290.82742
290.59983
290.39185
290.20205
290.02917
289.87207
289.72976
289.60135
289.48603
289.3831
289.29193
289.21198
289.14276
289.08385
326.73548
320.36482
315.88402
312.44898
309.6808
307.3777
305.41938
303.72808
302.25036
300.94773
299.79137
298.75903
297.8331
296.99938
296.2462
295.56386
294.94418
294.38025
293.86614
293.39673
292.96762
292.57496
292.21539
291.88597
291.5841
291.30751
291.05416
290.82228
290.61025
290.41667
290.24028
290.07994
289.93466
289.80354
289.68578
289.58068
289.4876
289.40598
289.33534
289.27526
326.80079
320.4965
316.06111
312.65915
309.91563
307.63089
305.68601
304.00418
302.53272
301.23371
300.07883
299.04626
298.11873
297.28234
296.52566
295.8392
295.21497
294.64618
294.12702
293.65249
293.21824
292.82049
292.45594
292.12167
291.81513
291.53405
291.27644
291.0405
290.82467
290.62752
290.4478
290.28439
290.13629
290.00259
289.8825
289.77531
289.68038
289.59716
289.52515
289.46392
326.86243
320.6207
316.22824
312.85771
310.13777
307.87079
305.9391
304.26677
302.80179
301.5068
300.35391
299.32168
298.39318
297.55475
296.79521
296.10526
295.47707
294.904
294.38034
293.90119
293.46227
293.05987
292.69073
292.35198
292.0411
291.75584
291.49424
291.25451
291.03509
290.83457
290.65171
290.48539
290.33459
290.19844
290.07613
289.96694
289.87024
289.78547
289.71213
289.64979
326.92072
320.73811
316.38631
313.04566
310.34829
308.09846
306.17966
304.51679
303.05846
301.7678
300.61733
299.58594
298.65699
297.81708
297.05526
296.36238
295.73079
295.15396
294.6263
294.14299
293.69984
293.29319
292.91984
292.57696
292.26205
291.97291
291.70758
291.46429
291.2415
291.03782
290.85199
290.6829
290.52956
290.39107
290.26664
290.15554
290.05714
289.97088
289.89625
289.83282
326.97594
320.84931
316.53606
313.22387
310.54811
308.31483
306.40862
304.75514
303.30357
302.01747
300.86975
299.83961
298.91069
298.0698
297.30619
296.61089
295.97639
295.39628
294.86508
294.37805
293.93108
293.52057
293.14336
292.79667
292.47805
292.1853
291.91648
291.66987
291.44392
291.23725
291.04862
290.87693
290.72117
290.58046
290.45399
290.34107
290.24104
290.15334
290.07747
290.01297
327.02835
320.9548
316.67819
313.39311
310.73807
308.52076
306.62681
304.98261
303.53784
302.25649
301.1118
300.08327
299.15477
298.31334
297.54839
296.85113
296.21416
295.63121
295.09688
294.60654
294.15612
293.7421
293.36137
293.01119
292.68912
292.39303
292.12098
291.87126
291.64235
291.43288
291.24161
291.06744
290.90939
290.76657
290.63818
290.52351
290.42191
290.33283
290.25575
290.19022
327.07816
321.05504
316.81329
313.55409
310.9189
308.71699
306.83499
305.19991
303.76196
302.48549
301.34407
300.31744
299.3897
298.5481
297.78221
297.08339
296.44436
295.85897
295.32191
294.82861
294.37511
293.95791
293.57397
293.22058
292.89535
292.59615
292.32109
292.06848
291.8368
291.62469
291.43094
291.25444
291.09423
290.9494
290.81917
290.70283
290.59974
290.50932
290.43107
290.36454
327.12557
321.15043
316.9419
313.70742
311.09126
308.90422
307.03382
305.40772
303.97656
302.70507
301.56708
300.5426
299.61593
298.77449
298.00801
297.30799
296.66727
296.07979
295.54034
295.04444
294.58817
294.16811
293.78125
293.42492
293.09678
292.79471
292.51687
292.26155
292.02728
291.81271
291.61662
291.43793
291.27566
291.12894
290.99696
290.87903
290.7745
290.6828
290.60342
290.5359
327.17075
321.24133
317.06448
313.85364
311.25575
309.08305
307.22392
305.60662
304.18221
302.91575
301.78135
300.75922
299.83386
298.99287
298.22612
297.52521
296.88313
296.2939
295.75239
295.25419
294.79546
294.37282
293.9833
293.6243
293.29348
292.98877
292.70834
292.45052
292.21383
291.99694
291.79866
291.6179
291.45369
291.30517
291.17154
291.05208
290.94618
290.85324
290.77276
290.70429
327.21387
321.32805
317.18147
313.99325
311.41291
309.25403
307.40585
305.79717
304.37944
303.11804
301.98733
300.96772
300.0439
299.2036
298.43684
297.73535
297.0922
296.5015
295.95823
295.45803
294.9971
294.57215
294.18024
293.81879
293.48552
293.17838
292.89556
292.63541
292.39646
292.17742
291.97707
291.79437
291.62833
291.4781
291.34289
291.22199
291.11476
291.02064
290.93911
290.8697
327.25505
321.41089
317.29324
314.1267
311.56322
309.41769
307.58013
305.97986
304.56874
303.31241
302.18546
301.16851
300.2464
299.40701
298.64049
297.93866
297.29471
296.70283
296.15805
295.65611
295.19325
294.76623
294.37215
294.00849
293.67298
293.36361
293.07857
292.81626
292.57522
292.35415
292.15188
291.96734
291.79958
291.64773
291.51102
291.38874
291.28025
291.18499
291.10243
291.03212
327.29443
321.4901
317.40015
314.25439
311.70711
309.57446
307.7472
306.15517
304.75055
303.49927
302.37614
301.36196
300.44172
299.60343
298.83735
298.13542
297.4909
296.89807
296.35204
295.84859
295.38404
294.95517
294.55916
294.19348
293.85593
293.5445
293.25743
292.99311
292.75012
292.52717
292.32309
292.13683
291.96744
291.81407
291.67594
291.55234
291.44265
291.34629
291.26274
291.19155
327.33213
321.56593
317.5025
314.37669
311.845
309.72478
307.90751
306.3235
304.92528
303.67903
302.55975
301.54842
300.63018
299.79314
299.02769
298.32586
297.68098
297.08742
296.54036
296.03563
295.5696
295.1391
294.74135
294.37386
294.03444
293.72114
293.43219
293.16602
292.92122
292.69651
292.49074
292.30287
292.13195
291.97713
291.83765
291.7128
291.60195
291.50453
291.42003
291.34798
327.36824
321.63857
317.60058
314.49392
311.97723
309.86902
308.06144
306.48525
305.09331
303.85204
302.73664
301.72823
300.81208
299.97644
299.21178
298.51022
297.86518
297.27109
296.72319
296.21738
295.75007
295.31814
294.91883
294.5497
294.2086
293.89358
293.6029
293.33503
293.08855
292.8622
292.65485
292.46546
292.2931
292.13692
291.99616
291.87012
291.75816
291.65973
291.57431
291.50143
327.40287
321.70822
317.69465
314.60639
312.10415
310.00753
308.20935
306.64078
305.25501
304.01866
302.90714
301.90169
300.98773
300.1536
299.38986
298.68873
298.04369
297.44925
296.9007
296.39399
295.92558
295.49239
295.0917
294.72111
294.37848
294.06189
293.76964
293.50019
293.25215
293.02428
292.81546
292.62465
292.45093
292.29346
292.15149
292.02431
291.9113
291.8119
291.72558
291.65189
327.4361
321.77507
317.78494
314.71437
312.22606
310.14063
308.35156
306.79042
305.41068
304.1792
303.07154
302.06909
301.15738
300.32486
299.56217
298.8616
298.21672
297.62209
297.07305
296.56561
296.09626
295.66198
295.26008
294.88817
294.54416
294.22614
293.93245
293.66154
293.41207
293.18279
292.97259
292.78045
292.60545
292.44677
292.30365
292.17539
292.06137
291.96103
291.87386
291.79937
327.46801
321.83927
317.87167
314.81813
312.34323
310.26863
308.48838
306.93447
305.56064
304.33396
303.23014
302.23071
301.3213
300.49046
299.72892
299.02905
298.38446
297.78977
297.2404
296.73237
296.26225
295.82702
295.42405
295.05097
294.70572
294.38641
294.09139
293.81916
293.56836
293.33777
293.12628
292.9329
292.7567
292.59688
292.45266
292.32338
292.2084
292.10716
292.01915
291.9439
327.49867
321.90096
317.95504
314.91789
312.45593
310.39178
308.62009
307.07322
305.70517
304.48321
303.38319
302.38679
301.47973
300.65065
299.89035
299.19126
298.54708
297.95247
297.40289
296.89442
296.42366
295.98763
295.58372
295.20961
294.86324
294.54276
294.24654
293.97308
293.72106
293.48925
293.27657
293.08202
292.90471
292.7438
292.59855
292.46829
292.35239
292.25029
292.16148
292.08548
327.52816
321.9603
318.03523
315.01386
312.56439
310.51035
308.74695
307.20693
305.84453
304.6272
303.53096
302.53758
301.6329
300.80562
300.04663
299.34843
298.70476
298.11035
297.56068
297.05189
296.58062
296.14391
295.73919
295.36417
295.0168
294.69527
294.39795
294.12338
293.87022
293.63729
293.4235
293.22787
293.04949
292.88757
292.74135
292.61016
292.49338
292.39045
292.30086
292.22413
327.55653
322.0174
318.1124
315.10625
312.66882
310.62456
308.86921
307.33584
305.97895
304.76618
303.67367
302.68331
301.78101
300.95559
300.19798
299.50074
298.85768
298.26355
297.71391
297.20491
296.73324
296.29597
295.89056
295.51473
295.16648
294.84401
294.54569
294.2701
294.01591
293.78193
293.56711
293.37046
293.1911
293.02821
292.88107
292.74899
292.63138
292.52765
292.43731
292.35988
327.58385
322.07237
318.18672
315.19524
312.76944
310.73463
308.98707
307.46018
306.10868
304.90037
303.81154
302.82418
301.92429
301.10075
300.34456
299.64836
299.00598
298.41223
297.86271
297.35361
296.88164
296.44392
296.03792
295.6614
295.31236
294.98904
294.68983
294.4133
294.15816
293.92323
293.70745
293.50985
293.32956
293.16577
293.01775
292.88484
292.76641
292.66193
292.57086
292.49275
327.61016
322.12533
318.25832
315.28099
312.86642
310.84076
309.10076
307.58017
306.23392
305.02999
303.94478
302.96039
302.0629
301.24127
300.48656
299.79145
299.14982
298.55654
298.00722
297.49811
297.02594
296.58786
296.18137
295.80425
295.45453
295.13044
294.83042
294.55305
294.29703
294.06121
293.84454
293.64607
293.4649
293.30027
293.15142
293.01771
292.89852
292.7933
292.70153
292.62276
327.63552
322.17637
318.32734
315.36366
312.95994
310.94313
309.21047
307.69599
306.35486
305.15522
304.07358
303.09214
302.19705
301.37735
300.62414
299.93016
299.28935
298.6966
298.14757
297.63853
297.16625
296.7279
296.321
295.94337
295.59305
295.26829
294.96754
294.68939
294.43258
294.19595
293.97846
293.77916
293.59718
293.43174
293.28212
293.14765
293.02772
292.9218
292.82936
292.74993
327.65997
322.22559
318.39389
315.4434
313.05017
311.04192
309.31636
307.80784
306.47171
305.27626
304.19812
303.21959
302.3269
301.50913
300.75746
300.06466
299.42471
298.83255
298.28387
297.77498
297.30266
296.86412
296.45691
296.07885
295.728
295.40265
295.10125
294.82241
294.56486
294.32748
294.10923
293.90916
293.72642
293.56023
293.40987
293.27468
293.15406
293.04745
292.95436
292.87431
327.68356
322.27307
318.45811
315.52035
313.13725
311.1373
309.41863
307.91588
306.58462
305.39327
304.31858
303.34293
302.45261
301.63678
300.88666
300.19508
299.55604
298.96452
298.41626
297.90758
297.43529
296.99664
296.58918
296.21076
295.85947
295.53359
295.23161
294.95214
294.69393
294.45586
294.2369
294.03612
293.85267
293.68577
293.53471
293.39884
293.27755
293.17029
293.07657
292.99591
327.70632
322.31889
318.52009
315.59462
313.22132
311.2294
309.51741
308.02028
306.69377
305.50643
304.43512
303.4623
302.57434
301.76045
301.0119
300.32155
299.68346
299.09264
298.54484
298.03643
297.56424
297.12554
296.7179
296.33919
295.98752
295.66119
295.35869
295.07865
294.81984
294.58114
294.36153
294.16009
293.97597
293.80841
293.65669
293.52016
293.39823
293.29036
293.19602
293.11477
327.72829
322.36312
318.57992
315.66634
313.30252
311.31837
309.61287
308.1212
306.7993
305.61588
304.54789
303.57786
302.69224
301.88027
301.1333
300.44421
299.8071
299.21701
298.66973
298.16164
297.68961
297.25091
296.84315
296.46422
296.11223
295.78551
295.48255
295.20201
294.94265
294.70337
294.48316
294.28111
294.09637
293.92818
293.77583
293.63869
293.51615
293.40767
293.31275
293.23092
327.74951
322.40584
318.63772
315.73562
313.38097
311.40435
309.70513
308.21877
306.90137
305.72178
304.65703
303.68975
302.80644
301.99639
301.251
300.56318
299.92708
299.33776
298.79103
298.28331
297.81148
297.37285
296.96503
296.58593
296.23368
295.90662
295.60327
295.32227
295.06241
294.8226
294.60184
294.39922
294.2139
294.04512
293.89219
293.75445
293.63133
293.52228
293.42679
293.3444
327.77
322.44711
318.69355
315.80256
313.45679
311.48745
309.79434
308.31312
307.00011
305.82425
304.76268
303.7981
302.91707
302.10893
301.36512
300.67859
300.04351
299.45498
298.90885
298.40154
297.92996
297.49144
297.08361
296.70439
296.35194
296.02459
295.72089
295.43949
295.17918
294.9389
294.71763
294.51447
294.32861
294.15928
294.00579
293.8675
293.74382
293.63421
293.53817
293.45524
327.7898
322.48699
318.74751
315.86727
313.53007
311.5678
309.8806
308.4044
307.09565
305.92343
304.86498
303.90305
303.02426
302.21802
301.47578
300.79054
300.1565
299.5688
299.02329
298.51642
298.04514
297.60677
297.19897
296.81969
296.46707
296.13949
295.83548
295.55373
295.29302
295.05229
294.83056
294.62691
294.44054
294.27069
294.11668
293.97785
293.85365
293.74351
293.64694
293.56348
327.80894
322.52554
318.79968
315.92982
313.60094
311.64551
309.96404
308.49271
307.18811
306.01945
304.96404
304.00471
303.12814
302.32376
301.58309
300.89915
300.26617
299.6793
299.13444
298.62805
298.15709
297.71892
297.3112
296.93188
296.57915
296.25138
295.94712
295.66505
295.40398
295.16286
294.94069
294.73659
294.54975
294.37941
294.2249
294.08557
293.96085
293.8502
293.75312
293.66915
327.82745
322.56281
318.85011
315.9903
313.66947
311.72067
310.04478
308.57816
307.27761
306.11241
305.05998
304.1032
303.22881
302.42628
301.68716
301.00452
300.3726
299.78659
299.2424
298.73652
298.26592
297.82797
297.42036
297.04106
296.68826
296.36033
296.05585
295.7735
295.51212
295.27063
295.04807
294.84355
294.65627
294.48547
294.33049
294.19068
294.06548
293.95434
293.85676
293.7723
327.84534
322.59885
318.89889
316.04881
313.73577
311.7934
310.1229
308.66087
307.36425
306.20244
305.15291
304.19863
303.32638
302.52568
301.7881
301.10675
300.47591
299.89077
299.34726
298.8419
298.37169
297.934
297.52654
297.14729
296.79444
296.4664
296.16174
295.87916
295.61749
295.37567
295.15275
294.94784
294.76015
294.58892
294.4335
294.29323
294.16756
294.05595
293.9579
293.87295
327.86265
322.63371
318.94607
316.10541
313.79991
311.86377
310.19851
308.74094
307.44815
306.28962
305.24294
304.29111
303.42096
302.62206
301.88601
301.20595
300.57617
299.99191
299.44911
298.9443
298.4745
298.03709
297.62981
297.25063
296.89778
296.56966
296.26485
295.98206
295.72014
295.47803
295.25478
295.04952
294.86144
294.68981
294.53396
294.39326
294.26715
294.15508
294.05657
293.97115
327.87939
322.66743
318.99172
316.16017
313.86198
311.93188
310.2717
308.81846
307.52939
306.37407
305.33016
304.38073
303.51264
302.71552
301.98098
301.3022
300.67349
300.09011
299.54802
299.04378
298.57441
298.13732
297.73024
297.35117
296.99834
296.67017
296.36524
296.08228
295.82013
295.57776
295.35421
295.14861
294.96018
294.78817
294.63192
294.49082
294.36428
294.25177
294.15282
294.06695
327.89559
322.70006
319.0359
316.21317
313.92206
311.9978
310.34255
308.89353
307.60807
306.45588
305.41468
304.46759
303.60153
302.80615
302.0731
301.39559
300.76795
300.18546
299.6441
299.14043
298.67151
298.23475
297.82789
297.44895
297.09617
296.76798
296.46296
296.17986
295.91752
295.67491
295.45109
295.24519
295.05642
294.88406
294.72743
294.58593
294.45899
294.34607
294.24668
294.16036
327.91127
322.73165
319.07865
316.26446
313.98021
312.06163
310.41116
308.96623
307.68429
306.53514
305.49658
304.55178
303.68771
302.89404
302.16247
301.48621
300.85964
300.27803
299.7374
299.23433
298.76587
298.32945
297.92284
297.54406
297.19136
296.86316
296.55809
296.27486
296.01236
295.76954
295.54546
295.33928
295.1502
294.97751
294.82053
294.67866
294.55132
294.438
294.33819
294.25145
327.92644
322.76221
319.12003
316.31412
314.03651
312.12343
310.47761
309.03663
307.75812
306.61194
305.57595
304.63339
303.77126
302.97928
302.24916
301.57414
300.94863
300.36791
299.82801
299.32554
298.85755
298.4215
298.01516
297.63656
297.28394
296.95578
296.65066
296.36734
296.10469
295.86168
295.63739
295.43094
295.24158
295.06857
294.91126
294.76903
294.64132
294.52761
294.4274
294.34024
327.94112
322.7918
319.1601
316.3622
314.09103
312.18327
310.54195
309.10483
307.82964
306.68635
305.65288
304.71251
303.85228
303.06195
302.33326
301.65947
301.035
300.45517
299.91601
299.41414
298.94664
298.51097
298.10491
297.72649
297.374
297.04588
296.74074
296.45735
296.19458
295.95141
295.7269
295.52022
295.33059
295.15729
294.99966
294.85709
294.72903
294.61494
294.51434
294.42678
327.95534
322.82045
319.19888
316.40875
314.14381
312.24123
310.60428
309.1709
307.89894
306.75846
305.72744
304.7892
303.93084
303.14213
302.41484
301.74226
301.11883
300.53988
300.00146
299.5002
299.0332
298.59791
298.19215
297.81394
297.46158
297.13352
296.82839
296.54494
296.28207
296.03875
295.81407
295.60717
295.41728
295.24371
295.08578
294.94289
294.81448
294.70003
294.59906
294.51111
327.9691
322.84818
319.23644
316.45382
314.19493
312.29736
310.66465
309.2349
307.96609
306.82834
305.7997
304.86355
304.00701
303.21989
302.49399
301.8226
301.2002
300.62212
300.08444
299.58379
299.11728
298.6824
298.27694
297.89896
297.54674
297.21877
296.91365
296.63017
296.36722
296.12377
295.89892
295.69182
295.50171
295.32787
295.16965
295.02646
294.89773
294.78293
294.6816
294.59327
327.98243
322.87504
319.27281
316.49747
314.24445
312.35173
310.72313
309.29691
308.03115
306.89606
305.86975
304.93564
304.08088
303.29531
302.57076
301.90056
301.27916
300.70195
300.165
299.66497
299.19897
298.76449
298.35935
297.9816
297.62955
297.30167
296.99659
296.71309
296.45007
296.20651
295.98151
295.77423
295.5839
295.40982
295.25134
295.10785
294.9788
294.86368
294.76199
294.67329
327.99533
322.90105
319.30803
316.53975
314.2924
312.4044
310.77978
309.35699
308.0942
306.9617
305.93765
305.00552
304.1525
303.36846
302.64524
301.97619
301.3558
300.77945
300.24323
299.74381
299.27832
298.84425
298.43943
298.06193
297.71005
297.38228
297.07725
296.79375
296.53068
296.28703
296.06189
295.85444
295.66391
295.4896
295.33087
295.1871
295.05775
294.94231
294.84028
294.75123
328.00782
322.92624
319.34214
316.5807
314.33885
312.45541
310.83467
309.41521
308.1553
307.02532
306.00347
305.07328
304.22196
303.43941
302.71749
302.04958
301.43017
300.85467
300.31918
299.82037
299.35539
298.92174
298.51725
298.14
297.78831
297.46065
297.15569
296.8722
296.60909
296.36536
296.14011
295.9325
295.74179
295.56726
295.40828
295.26425
295.13462
295.01887
294.91651
294.82711
328.01992
322.95063
319.37518
316.62036
314.38385
312.50484
310.88785
309.47161
308.21451
307.08697
306.06728
305.13897
304.28931
303.50822
302.78758
302.12078
301.50235
300.92768
300.39291
299.89471
299.43024
298.99701
298.59285
298.21587
297.86437
297.53684
297.23195
296.94849
296.68535
296.44155
296.2162
296.00845
295.81757
295.64284
295.48363
295.33935
295.20944
295.09339
294.99072
294.90098
328.03164
322.97426
319.40718
316.65878
314.42743
312.55272
310.93937
309.52627
308.27189
307.14673
306.12913
305.20266
304.35462
303.57495
302.85556
302.18986
301.57238
300.99854
300.46448
299.96689
299.50292
299.07011
298.6663
298.28959
297.93828
297.6109
297.30609
297.02266
296.75951
296.51566
296.29021
296.08234
295.89129
295.71638
295.55696
295.41243
295.28226
295.16592
295.06295
294.97288
328.04299
322.99714
319.43818
316.696
314.46966
312.59911
310.98929
309.57923
308.32749
307.20465
306.18908
305.2644
304.41794
303.63967
302.92151
302.25688
301.64033
301.06731
300.53395
300.03696
299.57351
299.14112
298.73765
298.36121
298.01011
297.68287
297.37816
297.09477
296.83162
296.58773
296.3622
296.15421
295.96301
295.78792
295.62829
295.48354
295.35312
295.2365
295.13323
295.04285
328.05398
323.0193
319.4682
316.73205
314.51056
312.64405
311.03766
309.63055
308.38138
307.26079
306.2472
305.32427
304.47934
303.70243
302.98547
302.32189
301.70627
301.13405
300.60138
300.10499
299.64203
299.21007
298.80695
298.43078
298.0799
297.75281
297.4482
297.16487
296.90172
296.6578
296.43219
296.2241
296.03277
295.85751
295.69769
295.55272
295.42205
295.30517
295.20161
295.11092
328.06462
323.04077
319.49729
316.76697
314.55019
312.68759
311.08453
309.68028
308.4336
307.3152
306.30353
305.3823
304.53888
303.76329
303.0475
302.38496
301.77024
301.19881
300.66683
300.17102
299.70857
299.27702
298.87424
298.49836
298.14769
297.82077
297.51627
297.23299
296.96986
296.72591
296.50025
296.29206
296.1006
295.92519
295.76518
295.62
295.4891
295.37197
295.26813
295.17714
328.07493
323.06157
319.52546
316.8008
314.58858
312.72977
311.12993
309.72847
308.48421
307.36793
306.35813
305.43856
304.5966
303.82231
303.10766
302.44613
301.83229
301.26164
300.73033
300.23511
299.77315
299.34202
298.93959
298.56399
298.21354
297.88679
297.5824
297.29919
297.03609
296.79212
296.5664
296.35813
296.16655
295.99099
295.83081
295.68543
295.55431
295.43693
295.33282
295.24155
328.08491
323.08171
319.55274
316.83357
314.62577
312.77064
311.17393
309.77516
308.53325
307.41904
306.41106
305.49309
304.65256
303.87953
303.166
302.50546
301.89249
301.3226
300.79196
300.2973
299.83584
299.40513
299.00304
298.62772
298.2775
297.95091
297.64664
297.36351
297.10044
296.85646
296.6307
296.42235
296.23066
296.05496
295.89462
295.74905
295.61771
295.5001
295.39573
295.30418
328.09458
323.10121
319.57917
316.86531
314.66179
312.81023
311.21655
309.8204
308.58078
307.46856
306.46236
305.54595
304.70681
303.93501
303.22258
302.563
301.95089
301.38174
300.85175
300.35766
299.89668
299.46638
299.06464