/*--------------------------------*- C++ -*----------------------------------*\
| =========                 |                                                 |
| \\      /  F ield         | OpenFOAM: The Open Source CFD Toolbox           |
|  \\    /   O peration     | Version:  2506                                  |
|   \\  /    A nd           | Website:  www.openfoam.com                      |
|    \\/     M anipulation  |                                                 |
\*---------------------------------------------------------------------------*/
FoamFile
{
    version     2.0;
    format      ascii;
    arch        "LSB;label=32;scalar=64";
    class       volScalarField;
    location    "6.3072e+07/water";
    object      alphat;
}
// * * * * * * * * * * * * * * * * * * * * * * * * * * * * * * * * * * * * * //

dimensions      [1 -1 -1 0 0 0 0];

internalField   nonuniform List<scalar> 
6000
(
0.041292846
0.041292823
0.041292834
0.041292853
0.041292892
0.041292932
0.041292982
0.041293015
0.04129281
0.04129057
0.041271539
0.041111293
0.039772303
0.030564073
0.013464793
0.040788543
0.040788536
0.040788574
0.040788656
0.04078876
0.040788888
0.040789021
0.040788974
0.040787495
0.040776037
0.040696383
0.040161219
0.036863804
0.023766469
0.015141611
0.040335689
0.040335695
0.04033576
0.040335884
0.040336043
0.04033623
0.04033633
0.040335685
0.040330321
0.040296649
0.040097618
0.038983221
0.033614213
0.0194951
0.016360294
0.039926214
0.03992622
0.039926303
0.039926457
0.039926658
0.039926847
0.039926703
0.039924459
0.039910659
0.039835637
0.039448738
0.037597436
0.030384625
0.016783058
0.017196556
0.039553796
0.039553808
0.039553905
0.039554095
0.039554314
0.039554412
0.039553621
0.039548098
0.039519185
0.039379114
0.038737842
0.036066499
0.027427861
0.015063192
0.01773179
0.039213275
0.039213295
0.039213406
0.039213613
0.039213811
0.039213658
0.03921157
0.0392003
0.039147642
0.038916647
0.0379654
0.034462847
0.024852827
0.013984463
0.018040007
0.038900365
0.038900399
0.038900521
0.038900725
0.038900826
0.03890016
0.038895817
0.038875509
0.038789001
0.038441494
0.037140254
0.032849726
0.022675912
0.013336843
0.018183117
0.038611534
0.038611574
0.038611699
0.038611866
0.038611763
0.038610198
0.038602305
0.038568925
0.038437608
0.037950375
0.036275874
0.031274836
0.020870827
0.012994966
0.018210197
0.038343815
0.038343864
0.038343975
0.038344067
0.0383436
0.038340605
0.038327517
0.038276441
0.038089204
0.037442856
0.035387037
0.029770035
0.019397
0.012882914
0.018158676
0.038094739
0.038094777
0.03809486
0.038094801
0.038093757
0.038088642
0.038068396
0.037994591
0.037740811
0.036920504
0.034487631
0.028354169
0.018213447
0.012953916
0.018056303
0.037862186
0.037862217
0.037862238
0.037861938
0.037860011
0.03785194
0.037822294
0.037720556
0.037390609
0.036386137
0.033589398
0.027036839
0.017284482
0.013178533
0.017923231
0.037644359
0.037644371
0.037644293
0.03764362
0.037640444
0.037628424
0.03758693
0.037452109
0.037037685
0.035843147
0.032701562
0.025821837
0.016581272
0.013537499
0.017773886
0.037439724
0.037439702
0.037439458
0.037438257
0.037433391
0.037416288
0.037360371
0.037187531
0.036681864
0.035295042
0.031830871
0.02470985
0.016081614
0.014017191
0.017618497
0.037246949
0.037246861
0.037246392
0.037244452
0.037237378
0.037213942
0.037140989
0.036925609
0.0363235
0.034745072
0.030981931
0.023700436
0.015768976
0.014606606
0.017464261
0.037064872
0.037064694
0.037063904
0.037060987
0.037051109
0.037020016
0.036927436
0.036665512
0.035963259
0.03419604
0.030157673
0.022793377
0.015631331
0.015295285
0.017316197
0.036892479
0.036892176
0.036890955
0.036886781
0.036873442
0.036833316
0.036718633
0.03640675
0.035602003
0.033650187
0.029359859
0.021989538
0.015659916
0.016071914
0.017177749
0.036728886
0.036728415
0.036726628
0.036720878
0.036703369
0.036652817
0.036513731
0.036149095
0.035240656
0.033109158
0.028589603
0.021291346
0.015847992
0.016923493
0.017051197
0.036573301
0.03657261
0.036570107
0.036562424
0.036540004
0.036477653
0.03631208
0.035892529
0.034880098
0.032574024
0.027847913
0.020702919
0.016189617
0.017835049
0.016937915
0.036425029
0.036424056
0.036420662
0.036410664
0.036382565
0.036307093
0.036113216
0.03563717
0.03452111
0.032045348
0.027136212
0.020229919
0.016678487
0.018789895
0.016838558
0.03628344
0.03628212
0.036277645
0.036264918
0.036230368
0.036140535
0.03591682
0.035383242
0.034164307
0.031523285
0.026456863
0.019879123
0.017306891
0.019770316
0.016753166
0.036147983
0.036146235
0.036140469
0.036124584
0.036082821
0.035977498
0.035722709
0.035131018
0.033810123
0.031007716
0.025813645
0.019657797
0.018064912
0.0207586
0.016681265
0.036018144
0.036015886
0.036008605
0.035989126
0.035939416
0.035817596
0.035530798
0.034880794
0.033458783
0.030498445
0.025212142
0.019572905
0.018939948
0.021738147
0.016621966
0.035893469
0.035890609
0.035881582
0.035858068
0.035799719
0.035660549
0.035341094
0.034632853
0.033110302
0.029995409
0.024659951
0.019630248
0.019916664
0.02269449
0.016574063
0.035773546
0.035769987
0.035758968
0.03573099
0.035663367
0.035506152
0.035153669
0.034387442
0.032764499
0.029498969
0.024166685
0.019833636
0.020977366
0.023616003
0.016536152
0.035657992
0.035653635
0.035640384
0.035607525
0.035530062
0.035354278
0.034968644
0.034144751
0.032421031
0.029010211
0.023743687
0.020184173
0.022102786
0.024494228
0.016506746
0.035546465
0.035541208
0.035525478
0.035487349
0.035399574
0.035204867
0.034786171
0.033904897
0.032079438
0.028531302
0.023403466
0.020679735
0.023273105
0.025323801
0.016484372
0.035438647
0.035432387
0.035413948
0.035370193
0.035271718
0.035057919
0.034606435
0.033667908
0.03173923
0.028065808
0.023158914
0.021314707
0.0244691
0.026102089
0.016467662
0.03533425
0.035326887
0.035305516
0.035255823
0.03514637
0.034913479
0.03442962
0.033433726
0.031399978
0.02761899
0.023022388
0.022080017
0.025673171
0.026828633
0.016455397
0.035233013
0.035224448
0.03519994
0.03514405
0.035023453
0.034771643
0.034255909
0.033202185
0.031061474
0.027197981
0.023004769
0.022963451
0.026870127
0.027504568
0.016446544
0.035134691
0.035124836
0.035097008
0.035034724
0.034902936
0.034632539
0.03408547
0.032973033
0.030723903
0.026811801
0.023114633
0.023950248
0.028047669
0.028132079
0.016440248
0.035039067
0.03502784
0.034996542
0.034927732
0.034784832
0.034496333
0.033918445
0.032745938
0.030388047
0.026471168
0.023357596
0.025023882
0.02919649
0.028713982
0.016435834
0.034945943
0.034933275
0.034898386
0.034822995
0.034669193
0.034363212
0.033754944
0.032520522
0.030055535
0.0261881
0.023735914
0.026166981
0.030310098
0.029253406
0.016432779
0.034855141
0.034840975
0.034802417
0.034720475
0.034556112
0.034233382
0.03359503
0.032296401
0.029729078
0.025975301
0.024248333
0.027362251
0.031384438
0.029753594
0.016430685
0.034766502
0.034750798
0.03470854
0.034620164
0.034445715
0.034107066
0.033438712
0.032073259
0.029412692
0.025845434
0.024890187
0.028593299
0.032417398
0.030217766
0.016429266
0.034679887
0.034662624
0.034616684
0.034522088
0.034338163
0.033984492
0.033285952
0.031850929
0.029111866
0.025810314
0.025653733
0.029845304
0.033408312
0.030649045
0.016428312
0.034595176
0.034576356
0.034526808
0.034426307
0.034233646
0.033865888
0.033136649
0.03162952
0.028833632
0.025880169
0.026528618
0.031105459
0.03435753
0.031050409
0.016427682
0.034512269
0.034491916
0.034438897
0.034332917
0.034132389
0.033751477
0.032990657
0.031409555
0.028586514
0.026063009
0.027502551
0.032363143
0.035266041
0.031424647
0.01642728
0.034431083
0.034409252
0.034352964
0.034242042
0.034034636
0.033641468
0.032847795
0.031192142
0.028380315
0.026364174
0.028561978
0.033609947
0.036135249
0.031774346
0.016427047
0.034351557
0.034328332
0.034269052
0.034153841
0.033940664
0.03353605
0.032707868
0.030979149
0.028225759
0.026786088
0.029692787
0.034839473
0.03696677
0.032101874
0.016426949
0.034273652
0.034249146
0.03418723
0.034068505
0.033850759
0.033435384
0.03257072
0.030773393
0.028133996
0.02732822
0.03088099
0.036047064
0.037762343
0.032409381
0.016426974
0.034197345
0.034171709
0.034107598
0.033986258
0.033765237
0.033339598
0.032436275
0.030578782
0.028116032
0.027987222
0.032113281
0.037229503
0.038523753
0.032698798
0.016427118
0.034122637
0.034096064
0.034030285
0.033907355
0.033684418
0.033248789
0.032304627
0.030400435
0.028182107
0.028757247
0.033377457
0.038384662
0.039252792
0.032971854
0.016427382
0.034049552
0.034022276
0.033955451
0.033832084
0.033608631
0.033163013
0.03217613
0.030244714
0.028341138
0.029630354
0.034662704
0.039511262
0.039951227
0.033230086
0.016427779
0.03397814
0.033950436
0.033883293
0.033760766
0.033538214
0.0330823
0.032051523
0.030119154
0.028600246
0.030597019
0.035959724
0.040608638
0.040620777
0.033474855
0.016428318
0.03390847
0.033880668
0.033814032
0.033693749
0.033473498
0.033006661
0.031932061
0.03003229
0.028964397
0.031646651
0.037260743
0.041676557
0.041263099
0.033707372
0.016429009
0.033840645
0.033813121
0.033747936
0.033631413
0.033414805
0.032936115
0.031819662
0.029993369
0.029436211
0.032768129
0.038559403
0.042715105
0.041879778
0.033928705
0.016429865
0.033774787
0.033747979
0.0336853
0.033574167
0.033362441
0.032870718
0.031717044
0.030011962
0.030015934
0.033950281
0.039850625
0.043724609
0.042472313
0.034139801
0.016430892
0.033711057
0.033685459
0.033626458
0.03352244
0.033316699
0.032810616
0.031627854
0.03009752
0.030701524
0.035182299
0.041130414
0.044705564
0.043042112
0.034341501
0.016432097
0.033649644
0.033625813
0.033571786
0.033476689
0.033277845
0.032756113
0.031556735
0.030258905
0.031488879
0.036454044
0.042395661
0.045658585
0.043590497
0.034534553
0.016433487
0.033590769
0.033569334
0.033521698
0.033437386
0.033246121
0.032707757
0.031509359
0.030503941
0.032372144
0.037756267
0.043643993
0.046584395
0.044118698
0.034719617
0.016435065
0.033534699
0.033516348
0.033476646
0.03340502
0.033221754
0.032666434
0.03149236
0.030839029
0.033344089
0.039080735
0.044873609
0.047483766
0.044627865
0.034897288
0.016436832
0.03348173
0.033467236
0.033437128
0.033380083
0.033204962
0.032633493
0.031513199
0.031268868
0.034396494
0.040420265
0.046083175
0.048357533
0.04511906
0.035068096
0.016438788
0.033432211
0.033422412
0.033403675
0.033363077
0.033195978
0.032610857
0.031579926
0.031796267
0.035520559
0.041768692
0.047271717
0.049206528
0.045593278
0.035232514
0.016440933
0.03338653
0.033382352
0.033376864
0.033354499
0.033195078
0.032601153
0.031700875
0.032422095
0.036707261
0.043120789
0.048438564
0.050031614
0.046051437
0.035390969
0.016443266
0.033345134
0.033347573
0.033357309
0.033354836
0.03320263
0.032607796
0.031884312
0.033145323
0.037947678
0.044472183
0.049583283
0.050833633
0.046494398
0.035543845
0.016445782
0.033308518
0.033318652
0.033345661
0.033364572
0.033219144
0.032635065
0.032138047
0.033963184
0.039233256
0.045819225
0.050705642
0.051613421
0.046922951
0.035691489
0.016448478
0.033277237
0.03329622
0.033342601
0.033384175
0.033245365
0.032688114
0.032469076
0.034871389
0.04055597
0.047158897
0.051805562
0.052371796
0.047337841
0.03583422
0.016451351
0.033251914
0.033280969
0.033348844
0.033414108
0.033282348
0.032772922
0.032883254
0.035864407
0.041908481
0.048488705
0.052883105
0.053109549
0.047739749
0.03597232
0.016454395
0.033233236
0.033273651
0.033365128
0.033454838
0.033331567
0.032896172
0.033385042
0.036935768
0.043284151
0.049806607
0.053938424
0.053827447
0.04812932
0.036106053
0.016457604
0.033221961
0.033275082
0.03339221
0.033506853
0.03339502
0.033065056
0.033977344
0.038078374
0.044677091
0.05111094
0.054971759
0.054526224
0.048507147
0.036235659
0.016460973
0.033218933
0.03328614
0.033430864
0.033570699
0.033475336
0.033287029
0.034661432
0.039284789
0.046082139
0.05240035
0.055983421
0.055206589
0.048873785
0.036361358
0.016464499
0.033225072
0.033307764
0.033481871
0.03364701
0.03357585
0.033569493
0.035436963
0.040547499
0.047494773
0.053673751
0.056973758
0.055869229
0.049229759
0.036483356
0.016468173
0.033241386
0.033340957
0.033546021
0.03373658
0.033700665
0.033919487
0.03630208
0.041859148
0.048911075
0.054930298
0.057943156
0.056514771
0.049575446
0.036601085
0.01647199
0.033268971
0.033386781
0.033624112
0.033840422
0.033854657
0.034343373
0.037253569
0.043212668
0.050327679
0.056169333
0.058892015
0.057143812
0.049911244
0.036714881
0.016475942
0.033309023
0.033446355
0.033716955
0.033959864
0.034043428
0.03484655
0.038287089
0.044601438
0.051741678
0.057390348
0.059820754
0.057756917
0.05023756
0.036825047
0.01648002
0.033362829
0.033520852
0.033825377
0.034096631
0.034273189
0.035433229
0.039397389
0.046019329
0.053150566
0.058592986
0.0607298
0.058354637
0.050554802
0.036931852
0.016484215
0.033431774
0.033611491
0.033950259
0.034252958
0.0345506
0.036106285
0.040578572
0.047460751
0.054552222
0.059777004
0.06161958
0.058937458
0.050862927
0.037035584
0.016488518
0.033517344
0.033719534
0.03409255
0.034431668
0.034882524
0.036867166
0.041824336
0.048920662
0.055944818
0.060942236
0.062490521
0.059505815
0.051162154
0.037136398
0.016492924
0.033621114
0.033846283
0.034253325
0.034636254
0.035275774
0.037715896
0.043128193
0.05039454
0.057326801
0.062088615
0.063343042
0.060060167
0.051452985
0.037234387
0.016497425
0.033744758
0.03399308
0.034433835
0.03487091
0.03573682
0.038651149
0.044483655
0.05187835
0.058696868
0.063216121
0.06417756
0.060600976
0.051735855
0.037329656
0.016502019
0.033890035
0.034161309
0.034635591
0.035140537
0.036271511
0.03967037
0.045884384
0.053368519
0.060053911
0.064324804
0.06499448
0.061128574
0.052011165
0.037422333
0.0165067
0.034058786
0.034352405
0.034860439
0.035450673
0.036884823
0.04076995
0.047324322
0.054861877
0.061396996
0.065414732
0.065794152
0.061642952
0.052279307
0.037512563
0.016511468
0.034252935
0.034567873
0.035110664
0.035807392
0.037580652
0.041945418
0.048797745
0.056355645
0.062725364
0.066486021
0.066576933
0.062144669
0.052540485
0.037600454
0.016516317
0.034474479
0.034809312
0.035389063
0.036217113
0.038361675
0.04319166
0.050299343
0.057847359
0.064038363
0.067538811
0.067343217
0.062634247
0.052794921
0.03768609
0.016521247
0.034725487
0.03507847
0.035699047
0.036686387
0.039229275
0.044503119
0.051824208
0.059334866
0.065335463
0.068573251
0.068093397
0.063112139
0.053042837
0.037769548
0.016526253
0.035008108
0.035377297
0.036044679
0.037221641
0.040183532
0.045873992
0.053367856
0.060816262
0.066616249
0.069589504
0.068827374
0.06357881
0.053284492
0.037850924
0.016531332
0.035324583
0.035708002
0.036430688
0.037828903
0.041223283
0.047298391
0.054926201
0.062289891
0.067880352
0.070587712
0.069545623
0.064034565
0.053520088
0.037930307
0.016536479
0.035677279
0.036073167
0.036862452
0.038513554
0.042346228
0.048770486
0.056495549
0.063754307
0.069127489
0.071568062
0.070248617
0.064479712
0.053749816
0.038007771
0.016541694
0.036068713
0.036475812
0.037345891
0.039280086
0.043549078
0.050284604
0.058072566
0.065208223
0.07035743
0.072530783
0.07093679
0.064914535
0.053973852
0.038083381
0.016546969
0.036501618
0.036919492
0.037887323
0.040131934
0.044827746
0.051835334
0.059654252
0.066650541
0.071569997
0.073475727
0.071610521
0.065339341
0.054192383
0.038157198
0.016552305
0.03697901
0.037408369
0.038493266
0.041071344
0.046177501
0.05341754
0.061237909
0.068080285
0.072765009
0.074403181
0.072270168
0.065754387
0.054405591
0.03822928
0.016557696
0.037504268
0.03794725
0.039170194
0.042099317
0.04759318
0.055026416
0.062821108
0.06949659
0.073942359
0.075313486
0.072916045
0.066159926
0.054613631
0.038299687
0.016563139
0.038081218
0.038541583
0.039924272
0.04321562
0.049069344
0.056657499
0.064401671
0.070898691
0.075101906
0.076206916
0.073548446
0.066556195
0.05481665
0.038368465
0.016568632
0.03871421
0.039197402
0.040761092
0.044418844
0.050600433
0.05830668
0.06597764
0.072285933
0.076243433
0.077083721
0.074167649
0.066943443
0.055014791
0.038435661
0.016574171
0.039408162
0.039921194
0.041685431
0.045706516
0.052180886
0.059970135
0.067547263
0.073657691
0.077366967
0.077944197
0.074773916
0.067321885
0.055208187
0.038501318
0.016579751
0.040168566
0.040719716
0.042701049
0.047075243
0.053805247
0.061644372
0.069108929
0.075013425
0.078472591
0.078788609
0.075367502
0.067691727
0.055396959
0.038565471
0.01658537
0.041001445
0.041599753
0.043810529
0.048520884
0.055468229
0.063326202
0.070661244
0.076352543
0.079560245
0.079617146
0.075948656
0.068053176
0.055581225
0.038628158
0.016591025
0.041913214
0.04256783
0.045015215
0.050038709
0.057164788
0.065012696
0.072202851
0.077674581
0.080630114
0.080430037
0.07651761
0.068406409
0.055761089
0.038689412
0.016596712
0.042910483
0.043629899
0.04631516
0.051623565
0.05889011
0.066701134
0.073732543
0.078979222
0.081682334
0.081227454
0.077074588
0.068751608
0.055936653
0.038749262
0.016602429
0.043999782
0.044791051
0.047709185
0.053270045
0.060639691
0.068389096
0.075249176
0.080266002
0.082716956
0.082009615
0.077619793
0.069088923
0.056108008
0.038807732
0.016608172
0.045187216
0.046055238
0.049194953
0.054972613
0.062409288
0.070074252
0.076751652
0.081534823
0.08373403
0.082776695
0.078153418
0.069418513
0.05627524
0.038864848
0.016613937
0.046478101
0.047425044
0.050769093
0.056725692
0.064194896
0.071754476
0.078239038
0.082785556
0.084733629
0.083528853
0.078675643
0.069740513
0.056438423
0.038920632
0.016619723
0.047876599
0.048901537
0.052427349
0.058523784
0.06599285
0.073427774
0.079710297
0.084017988
0.085715827
0.084266261
0.07918663
0.07005506
0.056597635
0.038975101
0.016625525
0.049385368
0.050484168
0.054164719
0.060361504
0.067799601
0.07509221
0.081164945
0.08523192
0.086680659
0.08498905
0.079686531
0.070362258
0.056752931
0.039028272
0.016631341
0.051005309
0.052170766
0.05597563
0.062233628
0.069611879
0.076745815
0.082602369
0.086427198
0.087628172
0.085697337
0.080175491
0.070662217
0.056904377
0.039080158
0.016637166
0.052735374
0.053957586
0.057854045
0.064135085
0.071426473
0.078387219
0.084021955
0.087603628
0.088558392
0.086391252
0.080653622
0.070955039
0.05705202
0.039130773
0.016643001
0.054572511
0.05583942
0.059793615
0.066060995
0.073240144
0.080015113
0.085423117
0.08876104
0.089471333
0.087070875
0.081121028
0.071240799
0.057195901
0.039180124
0.016648839
0.056511699
0.057809749
0.061787686
0.068006414
0.075050326
0.081628253
0.086805316
0.089899249
0.090366997
0.087736287
0.081577813
0.071519577
0.057336065
0.03922822
0.016654679
0.058546106
0.059860915
0.063829395
0.06996657
0.076854648
0.083225424
0.088167989
0.091018045
0.091245348
0.08838754
0.08202405
0.071791426
0.057472543
0.039275064
0.016660516
0.060667269
0.061984206
0.065911599
0.071937289
0.078650847
0.084805487
0.089510608
0.092117225
0.09210636
0.089024661
0.082459791
0.072056405
0.057605356
0.039320657
0.01666635
0.062865295
0.064170229
0.06802747
0.07391458
0.080436782
0.086367341
0.090832631
0.093196549
0.092949956
0.089647691
0.082885092
0.072314547
0.057734526
0.039365001
0.016672174
0.065129335
0.066409188
0.070170231
0.075894549
0.0822104
0.087909908
0.092133519
0.094255788
0.093776058
0.090256611
0.083299969
0.072565888
0.057860067
0.039408094
0.016677989
0.067447949
0.068691083
0.072333168
0.077873481
0.083969707
0.089432147
0.09341273
0.095294669
0.094584565
0.090851405
0.083704446
0.072810439
0.057981984
0.039449931
0.016683788
0.069809476
0.071005879
0.074509744
0.079847735
0.085712795
0.090933036
0.09466972
0.09631291
0.095375338
0.091432014
0.084098507
0.073048205
0.058100273
0.039490502
0.01668957
0.072202344
0.073343727
0.07669352
0.081813787
0.087437807
0.092411563
0.095903916
0.097310207
0.096148226
0.091998395
0.084482141
0.073279181
0.058214936
0.0395298
0.01669533
0.074615308
0.075695111
0.078878306
0.083768234
0.08914294
0.093866742
0.09711478
0.098286244
0.096903068
0.092550443
0.084855306
0.073503347
0.058325951
0.039567813
0.016701065
0.077037702
0.07805092
0.081058112
0.085707774
0.090826444
0.095297612
0.098301734
0.099240691
0.097639657
0.093088066
0.085217943
0.073720678
0.058433303
0.039604524
0.01670677
0.079459529
0.080402642
0.083227247
0.087629211
0.09248661
0.096703218
0.099464213
0.10017319
0.098357789
0.093611136
0.085569984
0.073931126
0.058536962
0.039639919
0.016712444
0.081871641
0.082742359
0.085380317
0.089529468
0.094121776
0.098082628
0.10060165
0.10108338
0.09905723
0.094119516
0.085911351
0.074134645
0.058636899
0.039673978
0.016718081
0.084265712
0.085062848
0.087512279
0.091405603
0.09573034
0.099434928
0.10171349
0.10197091
0.099737751
0.094613043
0.08624194
0.074331172
0.058733078
0.039706677
0.016723677
0.086634316
0.087357559
0.089618446
0.093254817
0.097310758
0.10075923
0.10279917
0.10283541
0.10039909
0.095091556
0.08656164
0.074520641
0.058825447
0.039737995
0.016729228
0.088970895
0.089620643
0.091694505
0.095074458
0.098861532
0.10205469
0.10385817
0.1036765
0.101041
0.095554874
0.086870339
0.074702966
0.058913966
0.039767905
0.016734728
0.091269716
0.09184695
0.093736539
0.096862063
0.10038127
0.10332049
0.10488996
0.10449384
0.10166322
0.096002812
0.087167908
0.074878069
0.058998575
0.039796379
0.016740175
0.093525854
0.094031962
0.095741025
0.098615345
0.10186863
0.10455585
0.10589407
0.10528708
0.10226549
0.09643519
0.087454205
0.075045862
0.059079223
0.039823392
0.016745561
0.09573511
0.096171819
0.097704853
0.10033219
0.10332237
0.10576005
0.10687002
0.10605589
0.10284758
0.096851818
0.087729105
0.075206239
0.059155844
0.039848908
0.016750882
0.097893977
0.09826323
0.099625263
0.10201069
0.10474134
0.10693243
0.10781739
0.10679998
0.10340924
0.097252515
0.087992463
0.075359111
0.059228385
0.039872902
0.016756134
0.099999548
0.10030344
0.10149991
0.10364917
0.10612451
0.10807236
0.10873581
0.10751906
0.10395028
0.097637116
0.08824416
0.075504384
0.059296779
0.03989534
0.01676131
0.10204949
0.10229021
0.10332677
0.1052461
0.10747091
0.1091793
0.10962492
0.1082129
0.10447049
0.098005459
0.088484049
0.075641963
0.059360967
0.039916193
0.016766405
0.10404193
0.10422171
0.10510417
0.1068002
0.10877974
0.11025278
0.11048445
0.1088813
0.10496969
0.098357389
0.088712032
0.07577176
0.059420887
0.039935432
0.016771414
0.1059755
0.10609655
0.10683077
0.10831038
0.11005027
0.11129239
0.11131415
0.10952409
0.10544778
0.098692804
0.088927996
0.075893687
0.059476488
0.039953028
0.01677633
0.10784914
0.1079137
0.10850547
0.10977574
0.11128192
0.11229778
0.11211386
0.11014114
0.10590462
0.099011597
0.089131849
0.076007672
0.059527719
0.039968956
0.016781147
0.10966219
0.10967245
0.11012752
0.11119556
0.11247419
0.11326871
0.11288342
0.11073239
0.10634017
0.099313693
0.089323527
0.076113663
0.059574532
0.039983195
0.016785863
0.11141429
0.11137235
0.11169633
0.1125693
0.11362672
0.11420499
0.11362279
0.11129781
0.10675439
0.099599061
0.089502974
0.076211601
0.059616895
0.039995722
0.016790467
0.11310532
0.11301327
0.11321161
0.11389658
0.11473926
0.11510652
0.11433195
0.11183742
0.10714729
0.099867679
0.089670162
0.076301456
0.059654773
0.040006522
0.016794957
0.11473537
0.11459521
0.11467322
0.11517722
0.11581166
0.11597327
0.11501095
0.11235128
0.10751891
0.10011957
0.089825087
0.076383207
0.059688156
0.040015588
0.016799326
0.11630477
0.11611846
0.11608123
0.11641113
0.11684388
0.11680528
0.1156599
0.11283951
0.10786937
0.1003548
0.089967772
0.076456859
0.059717032
0.040022909
0.016803571
0.11781401
0.11758341
0.11743586
0.1175984
0.11783597
0.11760267
0.11627895
0.1133023
0.1081988
0.10057344
0.090098265
0.076522433
0.059741407
0.040028488
0.016807684
0.11926373
0.11899061
0.11873747
0.11873923
0.1187881
0.11836563
0.11686833
0.11373983
0.10850736
0.10077565
0.090216651
0.076579963
0.059761299
0.040032328
0.016811663
0.12065465
0.12034076
0.11998657
0.1198339
0.11970048
0.11909439
0.11742831
0.11415238
0.10879528
0.10096155
0.090323026
0.076629513
0.059776733
0.040034439
0.016815503
0.12198767
0.12163466
0.12118374
0.12088284
0.12057347
0.1197893
0.11795921
0.11454026
0.10906282
0.10113138
0.090417526
0.076671167
0.059787758
0.040034842
0.016819199
0.12326374
0.1228732
0.12232972
0.12188657
0.12140745
0.12045071
0.11846141
0.11490379
0.10931028
0.10128533
0.090500316
0.076705023
0.059794428
0.040033557
0.01682275
0.1244839
0.12405735
0.12342529
0.12284568
0.12220289
0.12107906
0.1189353
0.11524338
0.10953797
0.10142368
0.09057158
0.076731208
0.059796814
0.040030615
0.016826151
0.12564924
0.12518816
0.12447132
0.12376081
0.12296034
0.12167482
0.11938135
0.11555944
0.10974627
0.10154672
0.090631541
0.076749859
0.059794997
0.04002605
0.016829401
0.12676092
0.12626671
0.12546873
0.12463271
0.12368037
0.12223854
0.11980005
0.11585242
0.10993557
0.10165477
0.090680429
0.076761147
0.059789075
0.040019906
0.016832497
0.12782013
0.12729415
0.12641852
0.12546217
0.12436364
0.12277076
0.12019194
0.1161228
0.1101063
0.10174818
0.090718512
0.07676525
0.059779155
0.040012228
0.016835437
0.12882812
0.12827166
0.12732171
0.12625004
0.12501085
0.12327212
0.12055757
0.11637112
0.11025891
0.10182732
0.090746067
0.076762361
0.05976536
0.040003068
0.016838222
0.12978615
0.12920045
0.12817939
0.12699717
0.12562272
0.12374325
0.12089753
0.1165979
0.11039387
0.10189257
0.090763412
0.076752695
0.059747815
0.039992484
0.016840851
0.13069551
0.13008177
0.12899263
0.12770451
0.12620002
0.12418483
0.12121246
0.1168037
0.11051167
0.10194437
0.090770855
0.076736488
0.059726664
0.039980538
0.016843322
0.1315575
0.13091688
0.12976259
0.128373
0.12674355
0.12459755
0.12150296
0.11698911
0.11061284
0.10198314
0.090768741
0.076713979
0.059702053
0.039967294
0.016845638
0.13237343
0.13170703
0.1304904
0.12900364
0.12725415
0.12498215
0.12176972
0.11715473
0.1106979
0.10200931
0.090757421
0.076685422
0.059674139
0.03995282
0.016847798
0.13314463
0.13245352
0.13117723
0.12959739
0.12773266
0.12533936
0.12201339
0.11730116
0.11076739
0.10202337
0.090737266
0.076651072
0.059643088
0.039937189
0.016849806
0.13387243
0.13315762
0.13182423
0.13015529
0.12817994
0.12566997
0.12223469
0.11742904
0.11082188
0.10202577
0.090708645
0.076611214
0.059609063
0.039920476
0.016851662
0.13455813
0.13382063
0.13243263
0.13067837
0.1285969
0.12597473
0.12243429
0.117539
0.11086191
0.10201698
0.090671941
0.076566119
0.059572244
0.039902752
0.016853369
0.13520307
0.13444381
0.13300355
0.13116766
0.12898442
0.12625444
0.12261291
0.11763167
0.11088806
0.10199751
0.090627539
0.076516076
0.059532807
0.039884099
0.01685493
0.13580855
0.13502845
0.13353821
0.1316242
0.12934339
0.12650989
0.12277127
0.1177077
0.1109009
0.10196784
0.09057584
0.07646137
0.059490926
0.039864591
0.016856347
0.13637588
0.13557581
0.13403777
0.13204903
0.12967474
0.12674188
0.12291006
0.11776774
0.110901
0.10192844
0.090517235
0.076402286
0.059446784
0.039844309
0.016857625
0.13690634
0.13608716
0.13450342
0.1324432
0.12997936
0.12695121
0.12303002
0.11781244
0.11088895
0.10187984
0.090452126
0.076339125
0.059400564
0.039823326
0.016858765
0.13740122
0.13656374
0.13493631
0.13280774
0.13025818
0.12713867
0.12313187
0.11784243
0.11086531
0.10182251
0.09038091
0.076272173
0.059352442
0.039801723
0.016859774
0.13786177
0.13700679
0.13533758
0.13314367
0.13051209
0.12730509
0.12321632
0.11785837
0.11083066
0.10175694
0.090303972
0.076201725
0.059302601
0.039779574
0.016860655
0.13828924
0.1374175
0.13570838
0.13345206
0.13074199
0.12745124
0.12328408
0.11786089
0.11078556
0.10168362
0.090221715
0.076128059
0.059251216
0.039756953
0.016861411
0.13868486
0.13779708
0.13604983
0.13373388
0.1309488
0.12757791
0.12333585
0.11785063
0.11073057
0.10160302
0.09013452
0.076051466
0.05919846
0.039733934
0.016862048
0.13904983
0.1381467
0.13636304
0.13399014
0.13113338
0.1276859
0.12337234
0.11782821
0.11066623
0.10151562
0.090042771
0.075972223
0.059144507
0.039710587
0.01686257
0.13938532
0.13846755
0.13664911
0.13422186
0.13129661
0.12777599
0.12339424
0.11779425
0.11059311
0.10142189
0.089946843
0.075890595
0.059089516
0.039686981
0.016862983
0.13969252
0.13876073
0.13690909
0.13442997
0.13143938
0.12784892
0.12340223
0.11774935
0.11051174
0.10132227
0.089847096
0.075806857
0.059033655
0.03966318
0.01686329
0.13997253
0.13902737
0.13714406
0.13461546
0.13156252
0.12790547
0.12339698
0.11769412
0.11042263
0.10121722
0.089743897
0.075721267
0.058977076
0.039639248
0.016863495
0.1402265
0.13926855
0.13735504
0.13477927
0.13166687
0.12794636
0.12337914
0.11762914
0.11032631
0.10110718
0.089637594
0.075634074
0.058919935
0.039615247
0.016863606
0.14045551
0.13948535
0.13754303
0.1349223
0.13175327
0.12797234
0.12334937
0.11755498
0.11022327
0.10099258
0.08952852
0.07554552
0.058862371
0.039591233
0.016863625
0.14066062
0.13967882
0.13770904
0.13504549
0.13182252
0.12798412
0.1233083
0.11747221
0.11011401
0.10087381
0.089417012
0.075455849
0.058804527
0.039567261
0.016863557
0.14084287
0.13984997
0.13785402
0.1351497
0.1318754
0.1279824
0.12325657
0.11738138
0.10999901
0.1007513
0.08930338
0.075365282
0.058746533
0.039543381
0.016863409
0.14100329
0.13999979
0.13797892
0.13523582
0.13191272
0.12796788
0.12319476
0.11728302
0.10987872
0.10062541
0.089187938
0.075274036
0.058688517
0.039519642
0.016863182
0.14114286
0.14012927
0.13808468
0.13530468
0.13193521
0.12794121
0.12312348
0.11717765
0.10975361
0.10049654
0.08907098
0.075182319
0.058630598
0.039496088
0.016862885
0.14126255
0.14023932
0.13817216
0.1353571
0.13194362
0.12790306
0.12304329
0.11706577
0.1096241
0.10036505
0.088952792
0.075090327
0.058572889
0.039472763
0.016862518
0.14136329
0.1403309
0.13824228
0.1353939
0.13193867
0.12785407
0.12295479
0.1169479
0.10949063
0.10023131
0.088833641
0.074998255
0.058515496
0.039449705
0.016862089
0.141446
0.14040489
0.13829585
0.13541587
0.13192108
0.12779486
0.1228585
0.11682449
0.1093536
0.10009561
0.088713794
0.074906274
0.05845852
0.039426949
0.016861601
0.14151156
0.14046214
0.13833373
0.13542376
0.13189151
0.12772604
0.12275494
0.11669601
0.10921341
0.099958315
0.088593492
0.074814559
0.058402053
0.039404529
0.016861058
0.14156082
0.14050352
0.1383567
0.13541832
0.13185066
0.12764821
0.12264465
0.11656291
0.10907043
0.099819714
0.08847298
0.074723264
0.058346181
0.039382475