/*--------------------------------*- C++ -*----------------------------------*\
| =========                 |                                                 |
| \\      /  F ield         | OpenFOAM: The Open Source CFD Toolbox           |
|  \\    /   O peration     | Version:  2506                                  |
|   \\  /    A nd           | Website:  www.openfoam.com                      |
|    \\/     M anipulation  |                                                 |
\*---------------------------------------------------------------------------*/
FoamFile
{
    version     2.0;
    format      ascii;
    arch        "LSB;label=32;scalar=64";
    class       volScalarField;
    location    "6.3072e+07/water";
    object      nut;
}
// * * * * * * * * * * * * * * * * * * * * * * * * * * * * * * * * * * * * * //

dimensions      [0 2 -1 0 0 0 0];

internalField   nonuniform List<scalar> 
6000
(
4.1367307e-05
4.1367284e-05
4.1367295e-05
4.1367315e-05
4.1367353e-05
4.1367393e-05
4.1367444e-05
4.1367476e-05
4.1367271e-05
4.1365027e-05
4.1345962e-05
4.1185427e-05
3.9844022e-05
3.0619188e-05
1.3489074e-05
4.0862095e-05
4.0862088e-05
4.0862126e-05
4.0862208e-05
4.0862312e-05
4.086244e-05
4.0862573e-05
4.0862526e-05
4.0861044e-05
4.0849566e-05
4.0769769e-05
4.0233639e-05
3.6930278e-05
2.3809325e-05
1.5168915e-05
4.0408424e-05
4.040843e-05
4.0408495e-05
4.040862e-05
4.0408778e-05
4.0408966e-05
4.0409067e-05
4.040842e-05
4.0403047e-05
4.0369313e-05
4.0169923e-05
3.9053518e-05
3.3674828e-05
1.9530255e-05
1.6389796e-05
3.9998211e-05
3.9998217e-05
3.99983e-05
3.9998454e-05
3.9998655e-05
3.9998845e-05
3.9998701e-05
3.9996452e-05
3.9982628e-05
3.990747e-05
3.9519873e-05
3.7665233e-05
3.0439416e-05
1.6813322e-05
1.7227565e-05
3.9625122e-05
3.9625133e-05
3.962523e-05
3.9625421e-05
3.962564e-05
3.9625739e-05
3.9624946e-05
3.9619413e-05
3.9590448e-05
3.9450124e-05
3.8807695e-05
3.6131536e-05
2.7477321e-05
1.5090355e-05
1.7763765e-05
3.9283986e-05
3.9284006e-05
3.9284117e-05
3.9284325e-05
3.9284524e-05
3.928437e-05
3.9282278e-05
3.9270988e-05
3.9218235e-05
3.8986823e-05
3.8033861e-05
3.4524992e-05
2.4897643e-05
1.400968e-05
1.8072538e-05
3.8970512e-05
3.8970546e-05
3.8970668e-05
3.8970872e-05
3.8970974e-05
3.8970306e-05
3.8965955e-05
3.8945611e-05
3.8858947e-05
3.8510813e-05
3.7207227e-05
3.2908962e-05
2.2716802e-05
1.3360893e-05
1.8215906e-05
3.868116e-05
3.86812e-05
3.8681326e-05
3.8681493e-05
3.8681389e-05
3.8679822e-05
3.8671914e-05
3.8638474e-05
3.8506921e-05
3.8018809e-05
3.6341289e-05
3.1331232e-05
2.0908462e-05
1.3018399e-05
1.8243035e-05
3.8412958e-05
3.8413008e-05
3.8413118e-05
3.8413211e-05
3.8412743e-05
3.8409742e-05
3.8396631e-05
3.8345463e-05
3.8157888e-05
3.7510375e-05
3.5450849e-05
2.9823718e-05
1.9431978e-05
1.2906145e-05
1.8191421e-05
3.8163433e-05
3.8163471e-05
3.8163554e-05
3.8163495e-05
3.8162449e-05
3.8157325e-05
3.8137043e-05
3.8063104e-05
3.7808867e-05
3.6987081e-05
3.4549821e-05
2.8405298e-05
1.8246291e-05
1.2977275e-05
1.8088863e-05
3.793046e-05
3.7930491e-05
3.7930513e-05
3.7930212e-05
3.7928282e-05
3.7920197e-05
3.7890497e-05
3.7788575e-05
3.7458034e-05
3.645175e-05
3.3649968e-05
2.7085593e-05
1.731565e-05
1.3202297e-05
1.7955551e-05
3.7712241e-05
3.7712253e-05
3.7712175e-05
3.77115e-05
3.7708319e-05
3.7696277e-05
3.7654708e-05
3.7519644e-05
3.7104473e-05
3.5907781e-05
3.2760531e-05
2.58684e-05
1.6611172e-05
1.3561911e-05
1.7805936e-05
3.7507237e-05
3.7507215e-05
3.750697e-05
3.7505767e-05
3.7500893e-05
3.7483759e-05
3.7427741e-05
3.7254589e-05
3.6748011e-05
3.5358688e-05
3.188827e-05
2.4754408e-05
1.6110613e-05
1.4042468e-05
1.7650268e-05
3.7314114e-05
3.7314026e-05
3.7313556e-05
3.7311613e-05
3.7304527e-05
3.7281048e-05
3.7207963e-05
3.6992195e-05
3.6389e-05
3.4807726e-05
3.1037799e-05
2.3743174e-05
1.5797411e-05
1.4632945e-05
1.7495754e-05
3.7131709e-05
3.713153e-05
3.7130739e-05
3.7127817e-05
3.7117921e-05
3.7086772e-05
3.6994025e-05
3.6731629e-05
3.602811e-05
3.4257704e-05
3.0212054e-05
2.2834479e-05
1.5659518e-05
1.5322866e-05
1.7347422e-05
3.6959005e-05
3.6958702e-05
3.6957479e-05
3.6953297e-05
3.6939934e-05
3.6899735e-05
3.6784846e-05
3.6472401e-05
3.5666202e-05
3.3710866e-05
2.9412802e-05
2.2029191e-05
1.5688154e-05
1.6100896e-05
1.7208725e-05
3.6795117e-05
3.6794645e-05
3.6792855e-05
3.6787095e-05
3.6769554e-05
3.6718912e-05
3.6579574e-05
3.6214281e-05
3.5304204e-05
3.3168861e-05
2.8641157e-05
2.1329739e-05
1.587657e-05
1.695401e-05
1.7081944e-05
3.6639252e-05
3.663856e-05
3.6636052e-05
3.6628355e-05
3.6605895e-05
3.6543432e-05
3.6377559e-05
3.5957252e-05
3.4942996e-05
3.2632763e-05
2.7898129e-05
2.0740252e-05
1.6218811e-05
1.786721e-05
1.6968459e-05
3.6490712e-05
3.6489737e-05
3.6486337e-05
3.6476321e-05
3.6448171e-05
3.6372563e-05
3.6178337e-05
3.5701433e-05
3.458336e-05
3.2103134e-05
2.7185145e-05
2.0266398e-05
1.6708562e-05
1.8823778e-05
1.6868922e-05
3.6348868e-05
3.6347546e-05
3.6343062e-05
3.6330313e-05
3.6295701e-05
3.6205706e-05
3.5981587e-05
3.5447047e-05
3.4225913e-05
3.1580129e-05
2.6504571e-05
1.991497e-05
1.73381e-05
1.9805967e-05
1.6783376e-05
3.6213166e-05
3.6211415e-05
3.6205639e-05
3.6189726e-05
3.6147888e-05
3.6042374e-05
3.5787126e-05
3.5194367e-05
3.3871091e-05
3.1063631e-05
2.5860194e-05
1.9693245e-05
1.8097488e-05
2.0796033e-05
1.6711346e-05
3.6083094e-05
3.6080831e-05
3.6073538e-05
3.6054023e-05
3.6004224e-05
3.5882184e-05
3.5594868e-05
3.4943693e-05
3.3519117e-05
3.0553441e-05
2.5257606e-05
1.96082e-05
1.8974101e-05
2.1777346e-05
1.6651939e-05
3.5958194e-05
3.5955329e-05
3.5946285e-05
3.5922728e-05
3.5864275e-05
3.5724854e-05
3.5404823e-05
3.4695304e-05
3.3170008e-05
3.0049498e-05
2.4704419e-05
1.9665646e-05
1.9952579e-05
2.2735414e-05
1.660395e-05
3.5838055e-05
3.5834489e-05
3.582345e-05
3.5795421e-05
3.5727677e-05
3.5570178e-05
3.521706e-05
3.4449451e-05
3.2823582e-05
2.9552163e-05
2.4210264e-05
1.9869401e-05
2.1015194e-05
2.3658589e-05
1.6565971e-05
3.5722292e-05
3.5717927e-05
3.5704653e-05
3.5671734e-05
3.5594132e-05
3.541803e-05
3.5031701e-05
3.4206323e-05
3.2479495e-05
2.9062523e-05
2.3786503e-05
2.022057e-05
2.2142642e-05
2.4538397e-05
1.6536512e-05
3.5610564e-05
3.5605297e-05
3.5589539e-05
3.5551342e-05
3.5463408e-05
3.526835e-05
3.4848899e-05
3.3966036e-05
3.2137285e-05
2.8582751e-05
2.3445668e-05
2.0717025e-05
2.3315073e-05
2.5369466e-05
1.6514097e-05
3.5502552e-05
3.549628e-05
3.5477808e-05
3.5433974e-05
3.5335322e-05
3.5121137e-05
3.4668839e-05
3.3728619e-05
3.1796464e-05
2.8116417e-05
2.3200675e-05
2.1353143e-05
2.4513224e-05
2.6149157e-05
1.6497357e-05
3.5397966e-05
3.539059e-05
3.536918e-05
3.5319398e-05
3.5209747e-05
3.4976437e-05
3.4491705e-05
3.3494015e-05
3.14566e-05
2.7668794e-05
2.3063903e-05
2.2119832e-05
2.5719466e-05
2.6877012e-05
1.648507e-05
3.5296546e-05
3.5287966e-05
3.5263414e-05
3.5207423e-05
3.5086609e-05
3.4834344e-05
3.4317681e-05
3.3262057e-05
3.1117485e-05
2.7247026e-05
2.3046252e-05
2.3004859e-05
2.691858e-05
2.7554165e-05
1.6476202e-05
3.5198047e-05
3.5188175e-05
3.5160297e-05
3.50979e-05
3.4965875e-05
3.469499e-05
3.4146934e-05
3.3032491e-05
3.0779306e-05
2.6860149e-05
2.3156315e-05
2.3993436e-05
2.8098246e-05
2.8182808e-05
1.6469894e-05
3.5102251e-05
3.5091004e-05
3.5059649e-05
3.4990715e-05
3.4847558e-05
3.4558538e-05
3.3979608e-05
3.2804987e-05
3.0442844e-05
2.6518902e-05
2.3399716e-05
2.5069006e-05
2.9249139e-05
2.876576e-05
1.6465471e-05
3.5008959e-05
3.4996268e-05
3.4961316e-05
3.488579e-05
3.473171e-05
3.4425177e-05
3.3815812e-05
3.2579164e-05
3.0109732e-05
2.6235324e-05
2.3778716e-05
2.6214166e-05
3.0364755e-05
2.9306158e-05
1.6462411e-05
3.4917994e-05
3.4903801e-05
3.4865175e-05
3.4783085e-05
3.4618425e-05
3.4295113e-05
3.365561e-05
3.235464e-05
2.9782687e-05
2.6022141e-05
2.4292059e-05
2.7411592e-05
3.1441032e-05
2.9807247e-05
1.6460314e-05
3.4829195e-05
3.4813462e-05
3.4771128e-05
3.4682592e-05
3.4507829e-05
3.416857e-05
3.349901e-05
3.2131095e-05
2.9465731e-05
2.589204e-05
2.493507e-05
2.864486e-05
3.2475855e-05
3.0272256e-05
1.6458892e-05
3.4742423e-05
3.4725129e-05
3.4679106e-05
3.458434e-05
3.4400083e-05
3.4045775e-05
3.3345975e-05
3.1908364e-05
2.9164362e-05
2.5856856e-05
2.5699993e-05
2.9899122e-05
3.3468556e-05
3.0704313e-05
1.6457936e-05
3.4657559e-05
3.4638706e-05
3.4589068e-05
3.4488387e-05
3.4295378e-05
3.3926956e-05
3.3196402e-05
3.1686556e-05
2.8885627e-05
2.5926837e-05
2.6576455e-05
3.1161549e-05
3.4419485e-05
3.1106401e-05
1.6457305e-05
3.4574503e-05
3.4554114e-05
3.4500999e-05
3.4394828e-05
3.4193938e-05
3.381234e-05
3.3050148e-05
3.1466195e-05
2.8638062e-05
2.6110007e-05
2.7552145e-05
3.2421502e-05
3.5329634e-05
3.1481313e-05
1.6456902e-05
3.4493171e-05
3.4471301e-05
3.4414911e-05
3.4303789e-05
3.4096009e-05
3.3702132e-05
3.2907027e-05
3.124839e-05
2.8431492e-05
2.6411715e-05
2.8613482e-05
3.3670554e-05
3.620041e-05
3.1831643e-05
1.6456669e-05
3.4413502e-05
3.4390234e-05
3.4330847e-05
3.4215428e-05
3.4001867e-05
3.3596524e-05
3.2766849e-05
3.1035012e-05
2.8276657e-05
2.683439e-05
2.9746331e-05
3.4902297e-05
3.703343e-05
3.2159761e-05
1.6456571e-05
3.4335455e-05
3.4310905e-05
3.4248878e-05
3.4129939e-05
3.3911801e-05
3.3495676e-05
3.2629453e-05
3.0828885e-05
2.8184728e-05
2.7377499e-05
3.0936676e-05
3.6112066e-05
3.7830438e-05
3.2467823e-05
1.6456595e-05
3.4259011e-05
3.4233329e-05
3.4169102e-05
3.4047544e-05
3.3826124e-05
3.3399717e-05
3.2494765e-05
3.0633923e-05
2.8166732e-05
2.803769e-05
3.2171189e-05
3.7296637e-05
3.8593221e-05
3.2757762e-05
1.645674e-05
3.4184168e-05
3.4157548e-05
3.409165e-05
3.3968499e-05
3.3745159e-05
3.3308745e-05
3.236288e-05
3.0455255e-05
2.8232926e-05
2.8809104e-05
3.3437644e-05
3.8453879e-05
3.9323575e-05
3.303131e-05
1.6457005e-05
3.4110952e-05
3.4083627e-05
3.4016682e-05
3.3893092e-05
3.3669235e-05
3.3222814e-05
3.2234152e-05
3.0299252e-05
2.8392244e-05
2.9683785e-05
3.472521e-05
3.9582511e-05
4.0023269e-05
3.3290008e-05
1.6457402e-05
3.4039411e-05
3.4011657e-05
3.3944393e-05
3.3821645e-05
3.3598692e-05
3.3141955e-05
3.210932e-05
3.0173466e-05
2.865182e-05
3.0652193e-05
3.6024568e-05
4.0681866e-05
4.0694026e-05
3.3535219e-05
1.6457942e-05
3.3969615e-05
3.3941763e-05
3.3875007e-05
3.3754508e-05
3.3533859e-05
3.306618e-05
3.1989642e-05
3.0086446e-05
2.9016626e-05
3.1703718e-05
3.7327933e-05
4.175171e-05
4.1337506e-05
3.3768155e-05
1.6458635e-05
3.3901668e-05
3.3874095e-05
3.3808792e-05
3.3692059e-05
3.347506e-05
3.2995507e-05
3.187704e-05
3.0047455e-05
2.9489292e-05
3.2827218e-05
3.8628935e-05
4.2792131e-05
4.1955297e-05
3.3989886e-05
1.6459492e-05
3.3835691e-05
3.3808835e-05
3.3746043e-05
3.363471e-05
3.3422602e-05
3.2929992e-05
3.1774238e-05
3.0066081e-05
3.007006e-05
3.4011502e-05
3.9922486e-05
4.3803455e-05
4.2548901e-05
3.4201364e-05
1.6460521e-05
3.3771846e-05
3.3746202e-05
3.3687094e-05
3.3582889e-05
3.3376778e-05
3.2869781e-05
3.1684886e-05
3.0151793e-05
3.0756886e-05
3.5245741e-05
4.1204582e-05
4.4786179e-05
4.3119727e-05
3.4403428e-05
1.6461728e-05
3.3710323e-05
3.3686448e-05
3.3632324e-05
3.3537056e-05
3.3337853e-05
3.281518e-05
3.161364e-05
3.0313469e-05
3.1545661e-05
3.6519779e-05
4.2472111e-05
4.5740918e-05
4.3669101e-05
3.4596827e-05
1.646312e-05
3.3651342e-05
3.3629868e-05
3.3582146e-05
3.3497682e-05
3.3306072e-05
3.2766737e-05
3.1566178e-05
3.0558947e-05
3.2430519e-05
3.7824351e-05
4.3722694e-05
4.6668398e-05
4.4198254e-05
3.4782226e-05
1.6464701e-05
3.359517e-05
3.3576786e-05
3.3537013e-05
3.3465257e-05
3.3281661e-05
3.2725339e-05
3.1549148e-05
3.089464e-05
3.3404216e-05
3.9151207e-05
4.4954527e-05
4.7569391e-05
4.470834e-05
3.4960217e-05
1.6466472e-05
3.3542106e-05
3.3527585e-05
3.3497424e-05
3.3440276e-05
3.3264839e-05
3.2692339e-05
3.1570025e-05
3.1325253e-05
3.4458519e-05
4.0493153e-05
4.6166274e-05
4.8444734e-05
4.520042e-05
3.5131333e-05
1.6468431e-05
3.3492497e-05
3.3482681e-05
3.346391e-05
3.3423239e-05
3.3255838e-05
3.2669662e-05
3.1636872e-05
3.1853604e-05
3.5584612e-05
4.1844011e-05
4.7356959e-05
4.9295259e-05
4.5675493e-05
3.5296047e-05
1.647058e-05
3.3446735e-05
3.3442549e-05
3.343705e-05
3.3414645e-05
3.3254937e-05
3.2659941e-05
3.175804e-05
3.248056e-05
3.6773453e-05
4.3198546e-05
4.8525911e-05
5.0121833e-05
4.6134479e-05
3.5454787e-05
1.6472917e-05
3.3405263e-05
3.3407707e-05
3.341746e-05
3.3414983e-05
3.3262503e-05
3.2666595e-05
3.1941807e-05
3.3205092e-05
3.8016107e-05
4.4552377e-05
4.9672693e-05
5.0925298e-05
4.6578238e-05
3.5607939e-05
1.6475438e-05
3.3368581e-05
3.3378733e-05
3.3405792e-05
3.3424737e-05
3.3279046e-05
3.2693914e-05
3.2196e-05
3.4024428e-05
3.9304003e-05
4.5901848e-05
5.0797077e-05
5.1706493e-05
4.7007565e-05
3.575585e-05
1.6478139e-05
3.3337244e-05
3.3356262e-05
3.3402726e-05
3.3444375e-05
3.3305314e-05
3.2747059e-05
3.2527626e-05
3.493427e-05
4.0629103e-05
4.7243936e-05
5.189898e-05
5.2466235e-05
4.7423203e-05
3.5898838e-05
1.6481017e-05
3.3311876e-05
3.3340983e-05
3.340898e-05
3.3474362e-05
3.3342364e-05
3.283202e-05
3.294255e-05
3.5929079e-05
4.1984052e-05
4.8576142e-05
5.2978467e-05
5.3205319e-05
4.7825836e-05
3.6037187e-05
1.6484066e-05
3.3293163e-05
3.3333651e-05
3.3425294e-05
3.3515165e-05
3.3391672e-05
3.2955492e-05
3.3445243e-05
3.7002372e-05
4.3362202e-05
4.9896421e-05
5.4035688e-05
5.3924511e-05
4.8216109e-05
3.6171161e-05
1.6487281e-05
3.3281868e-05
3.3335085e-05
3.3452425e-05
3.3567274e-05
3.345524e-05
3.3124681e-05
3.4038613e-05
3.8147039e-05
4.4757655e-05
5.1203106e-05
5.5070886e-05
5.4624548e-05
4.8594617e-05
3.6301001e-05
1.6490656e-05
3.3278835e-05
3.3346163e-05
3.3491148e-05
3.3631235e-05
3.35357e-05
3.3347054e-05
3.4723935e-05
3.9355629e-05
4.6165236e-05
5.2494841e-05
5.6084373e-05
5.530614e-05
4.8961917e-05
3.6426926e-05
1.6494188e-05
3.3284985e-05
3.3367826e-05
3.3542247e-05
3.3707684e-05
3.3636396e-05
3.3630027e-05
3.5500865e-05
4.0620616e-05
4.7580418e-05
5.3770538e-05
5.7076496e-05
5.5969975e-05
4.9318532e-05
3.6549145e-05
1.649787e-05
3.3301329e-05
3.3401079e-05
3.3606512e-05
3.3797415e-05
3.3761436e-05
3.3980652e-05
3.6367542e-05
4.1934631e-05
4.8999274e-05
5.5029351e-05
5.8047642e-05
5.6616681e-05
4.9664842e-05
3.6667085e-05
1.6501693e-05
3.3328963e-05
3.3446986e-05
3.3684745e-05
3.3901444e-05
3.3915705e-05
3.4405303e-05
3.7320746e-05
4.3290591e-05
5.0418432e-05
5.627062e-05
5.8998211e-05
5.7246856e-05
5.0001246e-05
3.6781087e-05
1.6505652e-05
3.3369088e-05
3.3506667e-05
3.3777755e-05
3.4021102e-05
3.4104816e-05
3.4909387e-05
3.835613e-05
4.4681865e-05
5.1834981e-05
5.7493837e-05
5.9928625e-05
5.7861067e-05
5.032815e-05
3.6891451e-05
1.6509737e-05
3.3422991e-05
3.3581298e-05
3.3886373e-05
3.4158116e-05
3.4334992e-05
3.5497124e-05
3.9468432e-05
4.6102314e-05
5.324641e-05
5.8698643e-05
6.0839311e-05
5.8459865e-05
5.0645964e-05
3.6998449e-05
1.651394e-05
3.349206e-05
3.3672101e-05
3.401148e-05
3.4314724e-05
3.4612903e-05
3.6171393e-05
4.0651745e-05
4.7546335e-05
5.4650593e-05
5.9884796e-05
6.1730695e-05
5.9043737e-05
5.0954646e-05
3.7102368e-05
1.6518251e-05
3.3577784e-05
3.3780339e-05
3.4154027e-05
3.4493757e-05
3.4945426e-05
3.6933647e-05
4.1899755e-05
4.9008878e-05
5.60457e-05
6.105213e-05
6.2603207e-05
5.9613119e-05
5.1254412e-05
3.7203364e-05
1.6522665e-05
3.3681741e-05
3.3907316e-05
3.4315092e-05
3.4698712e-05
3.5339385e-05
3.7783907e-05
4.3205963e-05
5.0485414e-05
5.7430176e-05
6.2200576e-05
6.3457265e-05
6.016847e-05
5.1545767e-05
3.7301529e-05
1.6527174e-05
3.3805608e-05
3.4054377e-05
3.4495927e-05
3.4933791e-05
3.5801262e-05
3.8720846e-05
4.456387e-05
5.1971899e-05
5.8802713e-05
6.3330115e-05
6.4293288e-05
6.0710254e-05
5.1829147e-05
3.739697e-05
1.6531776e-05
3.3951147e-05
3.422291e-05
3.4698048e-05
3.5203904e-05
3.6336918e-05
3.9741905e-05
4.5967125e-05
5.3464755e-05
6.0162203e-05
6.4440797e-05
6.5111681e-05
6.1238804e-05
5.2104954e-05
3.7489814e-05
1.6536466e-05
3.4120203e-05
3.4414351e-05
3.4923301e-05
3.5514599e-05
3.6951336e-05
4.0843468e-05
4.7409659e-05
5.4960806e-05
6.150771e-05
6.5532691e-05
6.5912795e-05
6.175411e-05
5.237358e-05
3.7580208e-05
1.6541242e-05
3.4314702e-05
3.4630207e-05
3.5173978e-05
3.5871961e-05
3.7648419e-05
4.2021056e-05
4.888574e-05
5.6457268e-05
6.2838474e-05
6.6605912e-05
6.6696987e-05
6.2256731e-05
5.2635228e-05
3.7668257e-05
1.65461e-05
3.4536645e-05
3.4872082e-05
3.5452878e-05
3.6282421e-05
3.843085e-05
4.3269546e-05
5.0390046e-05
5.7951672e-05
6.415384e-05
6.76606e-05
6.7464653e-05
6.2747192e-05
5.2890123e-05
3.7754047e-05
1.6551039e-05
3.4788105e-05
3.5141725e-05
3.5763421e-05
3.6752542e-05
3.9300015e-05
4.4583369e-05
5.191766e-05
5.9441861e-05
6.5453279e-05
6.8696906e-05
6.8216186e-05
6.3225946e-05
5.3138487e-05
3.7837655e-05
1.6556054e-05
3.5071236e-05
3.5441091e-05
3.6109676e-05
3.7288761e-05
4.0255993e-05
4.5956714e-05
5.3464091e-05
6.0925929e-05
6.6736375e-05
6.9714991e-05
6.8951487e-05
6.3693458e-05
5.3380577e-05
3.7919178e-05
1.6561142e-05
3.5388282e-05
3.5772393e-05
3.6496381e-05
3.7897118e-05
4.1297619e-05
4.7383681e-05
5.5025246e-05
6.2402215e-05
6.8002757e-05
7.0714999e-05
6.967103e-05
6.4150035e-05
5.3616598e-05
3.7998705e-05
1.6566298e-05
3.5741614e-05
3.6138216e-05
3.6928924e-05
3.8583003e-05
4.2422588e-05
4.8858431e-05
5.6597425e-05
6.3869271e-05
6.9252142e-05
7.1697117e-05
7.0375292e-05
6.4595985e-05
5.384674e-05
3.8076308e-05
1.6571522e-05
3.6133754e-05
3.6541587e-05
3.7413234e-05
3.9350918e-05
4.3627608e-05
5.037528e-05
5.8177285e-05
6.532581e-05
7.0484302e-05
7.2661574e-05
7.1064707e-05
6.5031592e-05
5.407118e-05
3.8152054e-05
1.6576807e-05
3.6567439e-05
3.6986066e-05
3.7955643e-05
4.0204302e-05
4.4908581e-05
5.1928806e-05
5.9761823e-05
6.6770728e-05
7.1699055e-05
7.3608222e-05
7.1739652e-05
6.5457164e-05
5.4290105e-05
3.8226004e-05
1.6582153e-05
3.7045692e-05
3.7475825e-05
3.8562678e-05
4.1145406e-05
4.626077e-05
5.3513865e-05
6.1348336e-05
6.8203051e-05
7.2896223e-05
7.4537349e-05
7.2400489e-05
6.5872959e-05
5.4503697e-05
3.8298217e-05
1.6587554e-05
3.7571898e-05
3.8015678e-05
3.9240827e-05
4.2175233e-05
4.7679002e-05
5.5125642e-05
6.293439e-05
6.9621909e-05
7.4075695e-05
7.5449295e-05
7.3047531e-05
6.6279229e-05
5.4712113e-05
3.8368751e-05
1.6593007e-05
3.8149888e-05
3.8611083e-05
3.9996265e-05
4.3293549e-05
4.9157828e-05
5.6759666e-05
6.4517803e-05
7.1026539e-05
7.5237333e-05
7.6344336e-05
7.3681072e-05
6.6676212e-05
5.4915497e-05
3.8437653e-05
1.6598509e-05
3.8784022e-05
3.9268085e-05
4.0834594e-05
4.4498942e-05
5.0691678e-05
5.8411821e-05
6.6096614e-05
7.2416282e-05
7.6380919e-05
7.7222722e-05
7.4301392e-05
6.7064159e-05
5.5113996e-05
3.850497e-05
1.6604058e-05
3.9479225e-05
3.9993182e-05
4.17606e-05
4.5788936e-05
5.2274981e-05
6.0078276e-05
6.7669067e-05
7.3790513e-05
7.7506479e-05
7.8084749e-05
7.4908752e-05
6.7443283e-05
5.5307741e-05
3.8570745e-05
1.6609648e-05
4.0241e-05
4.0793144e-05
4.2778049e-05
4.7160132e-05
5.3902271e-05
6.1755532e-05
6.923355e-05
7.5148693e-05
7.8614096e-05
7.8930685e-05
7.5503408e-05
6.7813792e-05
5.5496854e-05
3.8635014e-05
1.6615277e-05
4.1075381e-05
4.1674768e-05
4.388953e-05
4.8608379e-05
5.5568252e-05
6.3440395e-05
7.0788664e-05
7.6490225e-05
7.9703711e-05
7.9760715e-05
7.608561e-05
6.8175892e-05
5.5681451e-05
3.8697814e-05
1.6620943e-05
4.1988794e-05
4.2644591e-05
4.5096389e-05
5.0128941e-05
5.726787e-05
6.512993e-05
7.233305e-05
7.7814647e-05
8.077551e-05
8.0575072e-05
7.665559e-05
6.8529763e-05
5.586164e-05
3.8759179e-05
1.662664e-05
4.2987861e-05
4.3708574e-05
4.6398678e-05
5.1716655e-05
5.8996304e-05
6.6821413e-05
7.3865501e-05
7.9121641e-05
8.1829627e-05
8.1373927e-05
7.7213572e-05
6.8875584e-05
5.6037521e-05
3.8819136e-05
1.6632367e-05
4.4079125e-05
4.487182e-05
4.7795216e-05
5.3366104e-05
6.0749039e-05
6.8512418e-05
7.5384868e-05
8.0410742e-05
8.2866115e-05
8.2157498e-05
7.7759761e-05
6.9213507e-05
5.6209184e-05
3.8877712e-05
1.663812e-05
4.52687e-05
4.6138287e-05
4.9283663e-05
5.5071742e-05
6.2521827e-05
7.0200613e-05
7.6890054e-05
8.168185e-05
8.3885023e-05
8.2925962e-05
7.8294348e-05
6.9543692e-05
5.6376718e-05
3.8934931e-05
1.6643896e-05
4.6561913e-05
4.7510563e-05
5.0860642e-05
5.6827982e-05
6.4310655e-05
7.1883867e-05
7.8380122e-05
8.2934838e-05
8.4886425e-05
8.3679476e-05
7.8817514e-05
6.9866272e-05
5.6540195e-05
3.8990815e-05
1.6649692e-05
4.7962933e-05
4.8989718e-05
5.2521888e-05
5.8629317e-05
6.6111852e-05
7.3560183e-05
7.9854034e-05
8.4169493e-05
8.5870393e-05
8.4418214e-05
7.9329423e-05
7.0181386e-05
5.6699694e-05
3.9045383e-05
1.6655504e-05
4.9474422e-05
5.0575203e-05
5.4262391e-05
6.0470351e-05
6.7921861e-05
7.522762e-05
8.1311305e-05
8.5385614e-05
8.6836966e-05
8.5142307e-05
7.9830226e-05
7.0489138e-05
5.6855271e-05
3.9098649e-05
1.6661331e-05
5.1097284e-05
5.2264843e-05
5.6076568e-05
6.2345851e-05
6.9737406e-05
7.6884207e-05
8.2751322e-05
8.6583047e-05
8.7786187e-05
8.5851871e-05
8.0320067e-05
7.0789639e-05
5.700699e-05
3.9150629e-05
1.6667167e-05
5.2830469e-05
5.4054885e-05
5.795837e-05
6.4250736e-05
7.1555273e-05
7.8528571e-05
8.4173467e-05
8.7761599e-05
8.8718084e-05
8.6547037e-05
8.079906e-05
7.1082988e-05
5.7154899e-05
3.9201336e-05
1.6673012e-05
5.4670919e-05
5.5940112e-05
5.9901438e-05
6.618012e-05
7.3372214e-05
8.01594e-05
8.5577156e-05
8.8921098e-05
8.9632672e-05
8.7227886e-05
8.1267309e-05
7.1369263e-05
5.7299039e-05
3.9250775e-05
1.6678861e-05
5.6613603e-05
5.7913994e-05
6.1899105e-05
6.8129047e-05
7.518566e-05
8.1775449e-05
8.6961847e-05
9.0061359e-05
9.0529951e-05
8.7894498e-05
8.1724918e-05
7.1648544e-05
5.7439456e-05
3.9298958e-05
1.6684711e-05
5.8651679e-05
5.9968859e-05
6.3944495e-05
7.0092737e-05
7.6993236e-05
8.33755e-05
8.8326978e-05
9.1182173e-05
9.1409886e-05
8.8546924e-05
8.2171959e-05
7.1920883e-05
5.757618e-05
3.9345886e-05
1.6690559e-05
6.0776667e-05
6.2095978e-05
6.6030454e-05
7.2067009e-05
7.8792673e-05
8.4958412e-05
8.9672018e-05
9.2283335e-05
9.227245e-05
8.9185194e-05
8.2608487e-05
7.218634e-05
5.7709233e-05
3.9391562e-05
1.6696403e-05
6.2978657e-05
6.4285943e-05
6.8150141e-05
7.4047866e-05
8.0581829e-05
8.6523082e-05
9.0996425e-05
9.3364605e-05
9.3117568e-05
8.9809348e-05
8.3034554e-05
7.2444948e-05
5.7838636e-05
3.9435986e-05
1.6702238e-05
6.5246779e-05
6.652894e-05
7.0296765e-05
7.6031406e-05
8.2358646e-05
8.8068431e-05
9.2299658e-05
9.4425754e-05
9.3945159e-05
9.0419366e-05
8.3450179e-05
7.2696742e-05
5.7964403e-05
3.9479157e-05
1.6708063e-05
6.7569574e-05
6.881495e-05
7.2463602e-05
7.8013906e-05
8.4121125e-05
8.9593415e-05
9.3581176e-05
9.5466509e-05
9.4755124e-05
9.1015233e-05
8.3855385e-05
7.2941734e-05
5.808654e-05
3.9521069e-05
1.6713873e-05
6.993536e-05
7.113392e-05
7.4644104e-05
7.999172e-05
8.5867356e-05
9.109701e-05
9.4840433e-05
9.6486586e-05
9.5547323e-05
9.1596889e-05
8.4250157e-05
7.3179929e-05
5.8205042e-05
3.9561713e-05
1.6719665e-05
7.2332543e-05
7.3475984e-05
7.6831817e-05
8.1961317e-05
8.7595479e-05
9.2578204e-05
9.6076854e-05
9.7485681e-05
9.6321605e-05
9.2164291e-05
8.4634483e-05
7.3411321e-05
5.8319912e-05
3.9601082e-05
1.6725436e-05
7.4749857e-05
7.5831608e-05
7.9020543e-05
8.3919289e-05
8.9303686e-05
9.4036006e-05
9.7289902e-05
9.8463479e-05
9.7077808e-05
9.2717334e-05
8.5008321e-05
7.3635892e-05
5.8431127e-05
3.9639163e-05
1.6731181e-05
7.717662e-05
7.8191665e-05
8.1204279e-05
8.5862327e-05
9.0990226e-05
9.5469457e-05
9.8478996e-05
9.9419647e-05
9.7815725e-05
9.3255927e-05
8.5371612e-05
7.3853614e-05
5.8538673e-05
3.9675941e-05
1.6736897e-05
7.9602814e-05
8.0547628e-05
8.3377326e-05
8.7787228e-05
9.2653387e-05
9.6877597e-05
9.9643571e-05
0.00010035383
9.8535152e-05
9.377994e-05
8.5724287e-05
7.4064442e-05
5.8642518e-05
3.9711399e-05
1.6742581e-05
8.2019276e-05
8.2891564e-05
8.5534279e-05
8.9690912e-05
9.42915e-05
9.8259496e-05
0.00010078306
0.00010126566
9.9235854e-05
9.4289237e-05
8.606627e-05
7.4268328e-05
5.8742636e-05
3.974552e-05
1.6748228e-05
8.4417663e-05
8.5216238e-05
8.7670085e-05
9.157043e-05
9.5902965e-05
9.9614233e-05
0.0001018969
0.00010215479
9.9917602e-05
9.4783653e-05
8.6397456e-05
7.4465209e-05
5.8838988e-05
3.9778278e-05
1.6753833e-05
8.6790539e-05
8.7515086e-05
8.978005e-05
9.3422978e-05
9.7486233e-05
0.00010094092
0.00010298454
0.00010302084
0.00010058013
9.5263029e-05
8.6717732e-05
7.465502e-05
5.8931523e-05
3.9809653e-05
1.6759395e-05
8.9131331e-05
8.9782251e-05
9.1859853e-05
9.52459e-05
9.9039804e-05
0.00010223872
0.00010404545
0.00010386346
0.0001012232
9.5727183e-05
8.7026987e-05
7.4837674e-05
5.9020202e-05
3.9839617e-05
1.6764905e-05
9.1434297e-05
9.2012573e-05
9.3905569e-05
9.7036729e-05
0.00010056228
0.0001035068
0.0001050791
0.00010468227
0.00010184654
9.6175929e-05
8.7325093e-05
7.5013093e-05
5.9104964e-05
3.9868142e-05
1.6770361e-05
9.3694504e-05
9.4201524e-05
9.5913669e-05
9.8793173e-05
0.00010205232
0.00010474439
0.00010608502
0.00010547694
0.0001024499
9.6609086e-05
8.7611907e-05
7.5181188e-05
5.9185758e-05
3.9895203e-05
1.6775757e-05
9.5907744e-05
9.634524e-05
9.7881039e-05
0.00010051311
0.00010350869
0.00010595076
0.00010706273
0.00010624713
0.00010303304
9.7026466e-05
8.7887302e-05
7.5341855e-05
5.9262517e-05
3.9920765e-05
1.6781088e-05
9.8070504e-05
9.8440423e-05
9.9804912e-05
0.00010219464
0.00010493022
0.00010712525
0.00010801181
0.00010699257
0.00010359572
9.7427885e-05
8.8151135e-05
7.5495002e-05
5.9335188e-05
3.9944802e-05
1.6786349e-05
0.00010017987
0.00010048431
0.00010168294
0.00010383607
0.00010631588
0.00010826724
0.00010893188
0.00010771295
0.00010413773
9.7813179e-05
8.8403286e-05
7.5640537e-05
5.9403705e-05
3.9967281e-05
1.6791535e-05
0.00010223351
0.00010247466
0.0001035131
0.00010543588
0.00010766471
0.00010937618
0.0001098226
0.00010840804
0.00010465887
9.8182187e-05
8.8643608e-05
7.5778364e-05
5.9468009e-05
3.9988172e-05
1.6796639e-05
0.00010422954
0.00010440965
0.0001052937
0.00010699279
0.0001089759
0.00011045159
0.00011068368
0.00010907764
0.00010515898
9.8534752e-05
8.8872002e-05
7.5908395e-05
5.9528038e-05
4.0007445e-05
1.6801657e-05
0.0001061666
0.00010628787
0.00010702341
0.00010850569
0.00011024872
0.00011149308
0.00011151488
0.00010972159
0.00010563793
9.8870771e-05
8.9088355e-05
7.6030542e-05
5.9583739e-05
4.0025073e-05
1.6806581e-05
0.00010804362
0.00010810829
0.00010870114
0.00010997369
0.00011148258
0.00011250028
0.00011231602
0.00011033975
0.0001060956
9.9190139e-05
8.9292576e-05
7.6144732e-05
5.9635062e-05
4.004103e-05
1.6811408e-05
0.00010985994
0.00010987021
0.00011032611
0.00011139607
0.00011267701
0.00011347297
0.00011308698
0.00011093207
0.00010653193
9.949278e-05
8.94846e-05
7.6250915e-05
5.968196e-05
4.0055294e-05
1.6816132e-05
0.0001116152
0.00011157319
0.00011189775
0.00011277229
0.00011383162
0.00011441093
0.00011382768
0.0001114985
0.00010694689
9.9778662e-05
8.966437e-05
7.634903e-05
5.9724399e-05
4.0067844e-05
1.6820744e-05
0.00011330927
0.00011321706
0.00011341576
0.00011410197
0.00011494617
0.00011531409
0.00011453812
0.00011203909
0.0001073405
0.00010004776
8.9831859e-05
7.6439046e-05
5.9762346e-05
4.0078664e-05
1.6825243e-05
0.00011494226
0.00011480185
0.00011488001
0.00011538491
0.00011602049
0.0001161824
0.00011521834
0.00011255387
0.0001077128
0.00010030011
8.9987064e-05
7.6520945e-05
5.9795788e-05
4.0087746e-05
1.682962e-05
0.0001165145
0.00011632785
0.00011629055
0.00011662105
0.00011705458
0.00011701591
0.00011586846
0.00011304299
0.00010806389
0.00010053576
9.0130006e-05
7.659473e-05
5.9824717e-05
4.009508e-05
1.6833872e-05
0.00011802646
0.00011779544
0.00011764763
0.00011781046
0.00011804846
0.00011781474
0.00011648863
0.00011350661
0.00010839391
0.0001007548
9.0260734e-05
7.6660422e-05
5.9849136e-05
4.010067e-05
1.6837993e-05
0.00011947879
0.00011920518
0.00011895158
0.00011895335
0.0001190023
0.00011857907
0.00011707908
0.00011394494
0.00010870303
0.00010095737
9.0379334e-05
7.6718056e-05
5.9869064e-05
4.0104516e-05
1.6841979e-05
0.00012087222
0.00012055777
0.00012020293
0.00012004999
0.00011991633
0.00011930915
0.00011764006
0.00011435823
0.00010899147
0.00010114361
9.04859e-05
7.6767695e-05
5.9884525e-05
4.0106631e-05
1.6845825e-05
0.00012220765
0.000121854
0.00012140227
0.00012110082
0.00012079089
0.00012000531
0.00011817192
0.0001147468
0.00010925949
0.00010131374
9.0580571e-05
7.6809424e-05
5.989557e-05
4.0107035e-05
1.6849528e-05
0.00012348602
0.00012309478
0.00012255031
0.00012210636
0.00012162638
0.00012066791
0.00011867502
0.00011511099
0.00010950739
0.00010146797
9.066351e-05
7.6843341e-05
5.9902252e-05
4.0105747e-05
1.6853086e-05
0.00012470838
0.00012428106
0.00012364785
0.0001230672
0.00012242325
0.0001212974
0.00011914977
0.0001154512
0.00010973549
0.00010160657
9.0734903e-05
7.6869573e-05
5.9904642e-05
4.01028e-05
1.6856493e-05
0.00012587581
0.00012541391
0.00012469577
0.00012398398
0.00012318207
0.00012189423
0.00011959662
0.00011576782
0.00010994417
0.00010172983
9.0794972e-05
7.6888257e-05
5.9902822e-05
4.0098227e-05
1.6859748e-05
0.0001269895
0.0001264944
0.00012569499
0.00012485746
0.0001239034
0.00012245897
0.00012001608
0.00011606133
0.00011013381
0.00010183808
9.0843948e-05
7.6899567e-05
5.9896889e-05
4.0092071e-05
1.686285e-05
0.00012805062
0.00012752369
0.00012664648
0.00012568841
0.0001245879
0.00012299215
0.00012040867
0.0001163322
0.00011030485
0.00010193165
9.08821e-05
7.6903677e-05
5.9886952e-05
4.008438e-05
1.6865796e-05
0.00012906042
0.00012850296
0.0001275513
0.0001264777
0.00012523627
0.00012349441
0.00012077496
0.00011658096
0.00011045773
0.00010201094
9.0909705e-05
7.6900782e-05
5.9873132e-05
4.0075204e-05
1.6868585e-05
0.00013002018
0.00012943343
0.00012841053
0.00012722618
0.00012584925
0.00012396639
0.00012111554
0.00011680815
0.00011059293
0.00010207631
9.0927081e-05
7.6891099e-05
5.9855555e-05
4.00646e-05
1.6871219e-05
0.00013093119
0.00013031634
0.00012922524
0.00012793479
0.00012642759
0.00012440876
0.00012143103
0.00011701433
0.00011071095
0.0001021282
9.0934537e-05
7.6874862e-05
5.9834365e-05
4.0052633e-05
1.6873695e-05
0.00013179474
0.00013115295
0.00012999658
0.00012860449
0.0001269721
0.00012482223
0.00012172206
0.00011720007
0.00011081231
0.00010216704
9.0932419e-05
7.6852313e-05
5.980971e-05
4.0039365e-05
1.6876015e-05
0.00013261213
0.00013194453
0.0001307257
0.00012923627
0.00012748362
0.00012520752
0.0001219893
0.00011736599
0.00011089752
0.00010219326
9.0921079e-05