/*--------------------------------*- C++ -*----------------------------------*\
| =========                 |                                                 |
| \\      /  F ield         | OpenFOAM: The Open Source CFD Toolbox           |
|  \\    /   O peration     | Version:  2506                                  |
|   \\  /    A nd           | Website:  www.openfoam.com                      |
|    \\/     M anipulation  |                                                 |
\*---------------------------------------------------------------------------*/
FoamFile
{
    version     2.0;
    format      ascii;
    arch        "LSB;label=32;scalar=64";
    class       volScalarField;
    location    "6.3072e+07/water";
    object      T;
}
// * * * * * * * * * * * * * * * * * * * * * * * * * * * * * * * * * * * * * //

dimensions      [0 0 0 1 0 0 0];

internalField   nonuniform List<scalar> 
6000
(
333.15
333.15
333.15
333.15
333.15
333.15
333.15
333.15
333.15
333.15
333.15
333.14998
333.14989
333.14924
333.14256
333.15
333.15
333.15
333.15
333.15
333.15
333.15
333.15
333.15
333.15
333.14999
333.14994
333.14968
333.14816
333.13667
333.15
333.15
333.15
333.15
333.15
333.15
333.15
333.15
333.15
333.14999
333.14997
333.14987
333.14939
333.14689
333.13172
333.15
333.15
333.15
333.15
333.15
333.15
333.15
333.15
333.15
333.14999
333.14994
333.14976
333.14903
333.14547
333.1274
333.15
333.15
333.15
333.15
333.15
333.15
333.15
333.15
333.14999
333.14997
333.1499
333.14963
333.1486
333.14396
333.12352
333.15
333.15
333.15
333.15
333.15
333.15
333.15
333.15
333.14999
333.14996
333.14985
333.14947
333.14812
333.14237
333.11999
333.15
333.15
333.15
333.15
333.15
333.15
333.15
333.14999
333.14998
333.14994
333.14978
333.14929
333.1476
333.14073
333.11675
333.15
333.15
333.15
333.15
333.15
333.15
333.15
333.14999
333.14997
333.14991
333.1497
333.14909
333.14703
333.13906
333.11374
333.15
333.15
333.15
333.15
333.15
333.15
333.15
333.14999
333.14996
333.14987
333.14961
333.14886
333.14643
333.13737
333.11094
333.15
333.15
333.15
333.15
333.15
333.15
333.14999
333.14998
333.14994
333.14983
333.14951
333.14862
333.14578
333.13567
333.10832
333.15
333.15
333.15
333.15
333.15
333.15
333.14999
333.14998
333.14993
333.14978
333.1494
333.14836
333.1451
333.13397
333.10588
333.15
333.15
333.15
333.15
333.15
333.15
333.14999
333.14997
333.1499
333.14973
333.14928
333.14807
333.14437
333.13227
333.10359
333.15
333.15
333.15
333.15
333.15
333.14999
333.14998
333.14996
333.14988
333.14967
333.14915
333.14777
333.14361
333.1306
333.10146
333.15
333.15
333.15
333.15
333.15
333.14999
333.14998
333.14994
333.14985
333.14961
333.14901
333.14745
333.1428
333.12894
333.09947
333.15
333.15
333.15
333.15
333.15
333.14999
333.14997
333.14993
333.14982
333.14954
333.14886
333.1471
333.14196
333.12732
333.09762
333.15
333.15
333.15
333.15
333.15
333.14999
333.14997
333.14991
333.14978
333.14946
333.1487
333.14673
333.14107
333.12573
333.0959
333.15
333.15
333.15
333.15
333.14999
333.14998
333.14996
333.1499
333.14974
333.14938
333.14852
333.14634
333.14013
333.12417
333.09432
333.15
333.15
333.15
333.15
333.14999
333.14998
333.14995
333.14988
333.1497
333.14929
333.14834
333.14591
333.13916
333.12267
333.09287
333.15
333.15
333.15
333.15
333.14999
333.14998
333.14994
333.14985
333.14965
333.1492
333.14814
333.14546
333.13815
333.12122
333.09154
333.15
333.15
333.15
333.14999
333.14999
333.14997
333.14993
333.14983
333.1496
333.1491
333.14793
333.14497
333.1371
333.11982
333.09034
333.15
333.15
333.15
333.14999
333.14999
333.14997
333.14992
333.1498
333.14955
333.14899
333.1477
333.14445
333.13602
333.11849
333.08924
333.15
333.15
333.15
333.14999
333.14998
333.14996
333.1499
333.14977
333.14949
333.14887
333.14745
333.14388
333.13492
333.11721
333.08825
333.15
333.15
333.15
333.14999
333.14998
333.14995
333.14989
333.14974
333.14943
333.14875
333.14719
333.14328
333.1338
333.116
333.08735
333.15
333.15
333.14999
333.14999
333.14998
333.14994
333.14987
333.14971
333.14936
333.14861
333.1469
333.14264
333.13267
333.11486
333.08655
333.15
333.15
333.14999
333.14999
333.14997
333.14993
333.14985
333.14967
333.14929
333.14847
333.14659
333.14195
333.13155
333.11378
333.08582
333.15
333.15
333.14999
333.14998
333.14997
333.14992
333.14983
333.14963
333.14921
333.14831
333.14625
333.14123
333.13043
333.11276
333.08517
333.15
333.15
333.14999
333.14998
333.14996
333.14991
333.14981
333.14959
333.14913
333.14815
333.14589
333.14047
333.12934
333.1118
333.08458
333.15
333.14999
333.14999
333.14998
333.14996
333.1499
333.14979
333.14954
333.14904
333.14797
333.14549
333.13968
333.12826
333.11089
333.08404
333.15
333.14999
333.14999
333.14998
333.14995
333.14989
333.14976
333.14949
333.14895
333.14777
333.14507
333.13886
333.12722
333.11004
333.08356
333.14999
333.14999
333.14999
333.14997
333.14994
333.14987
333.14973
333.14944
333.14884
333.14756
333.14461
333.13802
333.12621
333.10924
333.08312
333.14999
333.14999
333.14998
333.14997
333.14993
333.14986
333.1497
333.14939
333.14873
333.14733
333.14412
333.13716
333.12524
333.10849
333.08273
333.14999
333.14999
333.14998
333.14996
333.14992
333.14984
333.14967
333.14933
333.14862
333.14708
333.14359
333.13629
333.1243
333.10778
333.08236
333.14999
333.14999
333.14998
333.14996
333.14991
333.14982
333.14964
333.14926
333.14849
333.14681
333.14304
333.13543
333.1234
333.10711
333.08203
333.14999
333.14999
333.14998
333.14995
333.1499
333.1498
333.1496
333.14919
333.14835
333.14652
333.14245
333.13456
333.12255
333.10647
333.08173
333.14999
333.14998
333.14997
333.14995
333.14989
333.14978
333.14956
333.14911
333.1482
333.1462
333.14184
333.1337
333.12172
333.10588
333.08145
333.14999
333.14998
333.14997
333.14994
333.14988
333.14976
333.14952
333.14903
333.14803
333.14586
333.1412
333.13286
333.12094
333.10531
333.08119
333.14999
333.14998
333.14997
333.14993
333.14987
333.14974
333.14947
333.14895
333.14786
333.14549
333.14054
333.13203
333.12019
333.10477
333.08095
333.14998
333.14998
333.14996
333.14993
333.14985
333.14971
333.14942
333.14885
333.14766
333.1451
333.13987
333.13122
333.11947
333.10427
333.08073
333.14998
333.14998
333.14996
333.14992
333.14984
333.14968
333.14937
333.14875
333.14746
333.14467
333.13918
333.13043
333.11878
333.10378
333.08053
333.14998
333.14997
333.14995
333.14991
333.14982
333.14965
333.14931
333.14864
333.14723
333.14423
333.13849
333.12967
333.11813
333.10332
333.08034
333.14998
333.14997
333.14995
333.1499
333.1498
333.14962
333.14925
333.14852
333.14698
333.14376
333.13779
333.12892
333.1175
333.10289
333.08016
333.14997
333.14996
333.14994
333.14989
333.14978
333.14958
333.14918
333.14839
333.14672
333.14326
333.1371
333.1282
333.1169
333.10247
333.08
333.14997
333.14996
333.14993
333.14988
333.14976
333.14954
333.14911
333.14824
333.14643
333.14275
333.13641
333.1275
333.11632
333.10208
333.07985
333.14997
333.14996
333.14993
333.14986
333.14974
333.1495
333.14903
333.14809
333.14612
333.14222
333.13572
333.12683
333.11577
333.1017
333.0797
333.14996
333.14995
333.14992
333.14985
333.14972
333.14946
333.14895
333.14792
333.14579
333.14167
333.13504
333.12618
333.11523
333.10134
333.07957
333.14996
333.14995
333.14991
333.14984
333.14969
333.14941
333.14886
333.14774
333.14544
333.14111
333.13437
333.12554
333.11472
333.10099
333.07945
333.14995
333.14994
333.1499
333.14982
333.14966
333.14936
333.14876
333.14755
333.14507
333.14054
333.13372
333.12493
333.11423
333.10066
333.07933
333.14995
333.14993
333.14989
333.1498
333.14963
333.1493
333.14865
333.14733
333.14468
333.13997
333.13307
333.12434
333.11376
333.10034
333.07922
333.14994
333.14993
333.14988
333.14979
333.1496
333.14924
333.14854
333.1471
333.14427
333.13939
333.13244
333.12377
333.11331
333.10004
333.07912
333.14994
333.14992
333.14987
333.14977
333.14957
333.14918
333.14841
333.14686
333.14384
333.13881
333.13183
333.12321
333.11287
333.09975
333.07903
333.14993
333.14991
333.14986
333.14975
333.14953
333.14911
333.14827
333.14659
333.1434
333.13823
333.13123
333.12268
333.11245
333.09947
333.07894
333.14993
333.1499
333.14984
333.14972
333.14949
333.14903
333.14812
333.14631
333.14294
333.13765
333.13064
333.12216
333.11204
333.0992
333.07885
333.14992
333.14989
333.14983
333.1497
333.14944
333.14894
333.14796
333.14601
333.14247
333.13708
333.13006
333.12166
333.11165
333.09894
333.07878
333.14991
333.14988
333.14981
333.14967
333.14939
333.14885
333.14779
333.1457
333.14199
333.13651
333.1295
333.12117
333.11127
333.09869
333.07871
333.1499
333.14987
333.1498
333.14964
333.14934
333.14876
333.1476
333.14536
333.1415
333.13594
333.12896
333.1207
333.11091
333.09845
333.07864
333.14989
333.14986
333.14978
333.14961
333.14928
333.14865
333.1474
333.14501
333.14101
333.13539
333.12843
333.12024
333.11055
333.09822
333.07858
333.14988
333.14985
333.14976
333.14958
333.14922
333.14853
333.14718
333.14464
333.14051
333.13484
333.12791
333.1198
333.11021
333.098
333.07852
333.14987
333.14983
333.14974
333.14954
333.14916
333.14841
333.14695
333.14426
333.14001
333.1343
333.1274
333.11937
333.10988
333.09778
333.07846
333.14986
333.14982
333.14971
333.1495
333.14908
333.14827
333.1467
333.14387
333.13951
333.13377
333.12691
333.11895
333.10955
333.09758
333.07841
333.14985
333.1498
333.14969
333.14946
333.149
333.14812
333.14644
333.14346
333.13901
333.13325
333.12643
333.11854
333.10924
333.09738
333.07836
333.14983
333.14978
333.14966
333.14941
333.14892
333.14797
333.14616
333.14305
333.13851
333.13274
333.12596
333.11815
333.10894
333.09718
333.07832
333.14982
333.14976
333.14963
333.14936
333.14883
333.14779
333.14586
333.14262
333.13801
333.13224
333.1255
333.11777
333.10865
333.097
333.07828
333.1498
333.14974
333.1496
333.1493
333.14872
333.14761
333.14555
333.14219
333.13751
333.13175
333.12506
333.11739
333.10836
333.09681
333.07824
333.14978
333.14972
333.14956
333.14924
333.14862
333.14741
333.14523
333.14175
333.13702
333.13126
333.12462
333.11703
333.10809
333.09664
333.07821
333.14976
333.1497
333.14952
333.14918
333.1485
333.1472
333.14489
333.14131
333.13653
333.13079
333.1242
333.11668
333.10782
333.09647
333.07818
333.14974
333.14967
333.14948
333.1491
333.14837
333.14698
333.14454
333.14086
333.13605
333.13033
333.12378
333.11633
333.10755
333.0963
333.07815
333.14972
333.14964
333.14944
333.14903
333.14823
333.14674
333.14418
333.14041
333.13558
333.12987
333.12338
333.116
333.1073
333.09614
333.07812
333.14969
333.14961
333.14939
333.14894
333.14808
333.14648
333.14381
333.13997
333.13511
333.12943
333.12299
333.11567
333.10705
333.09599
333.07809
333.14967
333.14958
333.14933
333.14885
333.14792
333.14621
333.14343
333.13952
333.13464
333.12899
333.1226
333.11535
333.10681
333.09584
333.07807
333.14964
333.14954
333.14928
333.14875
333.14774
333.14593
333.14304
333.13907
333.13419
333.12856
333.12222
333.11504
333.10657
333.09569
333.07805
333.14961
333.1495
333.14921
333.14864
333.14756
333.14564
333.14265
333.13862
333.13374
333.12814
333.12185
333.11473
333.10634
333.09555
333.07803
333.14957
333.14945
333.14914
333.14852
333.14736
333.14533
333.14225
333.13818
333.13329
333.12773
333.12149
333.11444
333.10612
333.09541
333.07801
333.14953
333.1494
333.14907
333.1484
333.14715
333.14501
333.14185
333.13773
333.13285
333.12732
333.12114
333.11415
333.1059
333.09527
333.07799
333.14949
333.14935
333.14899
333.14826
333.14692
333.14468
333.14144
333.13729
333.13242
333.12693
333.1208
333.11386
333.10569
333.09514
333.07798
333.14944
333.14929
333.1489
333.14811
333.14668
333.14434
333.14103
333.13686
333.132
333.12654
333.12046
333.11359
333.10548
333.09501
333.07796
333.14939
333.14923
333.1488
333.14795
333.14643
333.14399
333.14061
333.13642
333.13158
333.12616
333.12013
333.11332
333.10528
333.09489
333.07795
333.14934
333.14916
333.14869
333.14778
333.14616
333.14364
333.1402
333.136
333.13117
333.12578
333.1198
333.11305
333.10508
333.09477
333.07794
333.14928
333.14908
333.14858
333.14759
333.14589
333.14327
333.13979
333.13557
333.13076
333.12542
333.11949
333.11279
333.10488
333.09465
333.07793
333.14921
333.149
333.14845
333.1474
333.1456
333.1429
333.13937
333.13515
333.13036
333.12505
333.11917
333.11254
333.10469
333.09453
333.07791
333.14914
333.14891
333.14832
333.14719
333.14529
333.14253
333.13896
333.13474
333.12997
333.1247
333.11887
333.11229
333.10451
333.09442
333.0779
333.14906
333.14881
333.14817
333.14696
333.14498
333.14215
333.13855
333.13432
333.12958
333.12435
333.11857
333.11204
333.10433
333.09431
333.07789
333.14897
333.1487
333.14801
333.14673
333.14466
333.14176
333.13813
333.13392
333.1292
333.12401
333.11828
333.11181
333.10415
333.0942
333.07789
333.14888
333.14858
333.14784
333.14648
333.14433
333.14137
333.13773
333.13352
333.12883
333.12368
333.11799
333.11157
333.10397
333.09409
333.07788
333.14877
333.14845
333.14765
333.14621
333.14399
333.14098
333.13732
333.13312
333.12846
333.12335
333.11771
333.11134
333.1038
333.09399
333.07787
333.14866
333.14831
333.14746
333.14594
333.14364
333.14059
333.13691
333.13273
333.12809
333.12302
333.11743
333.11112
333.10363
333.09389
333.07786
333.14853
333.14816
333.14725
333.14565
333.14328
333.1402
333.13651
333.13234
333.12774
333.1227
333.11716
333.1109
333.10347
333.09379
333.07785
333.14839
333.14799
333.14702
333.14535
333.14292
333.1398
333.13611
333.13195
333.12738
333.12239
333.11689
333.11068
333.1033
333.09369
333.07784
333.14824
333.14781
333.14678
333.14504
333.14255
333.13941
333.13571
333.13158
333.12704
333.12208
333.11663
333.11046
333.10315
333.09359
333.07784
333.14807
333.14762
333.14653
333.14472
333.14218
333.13901
333.13532
333.1312
333.12669
333.12178
333.11637
333.11025
333.10299
333.0935
333.07783
333.14789
333.14741
333.14626
333.14439
333.14181
333.13861
333.13493
333.13083
333.12636
333.12148
333.11611
333.11005
333.10283
333.0934
333.07782
333.14769
333.14718
333.14598
333.14405
333.14142
333.13822
333.13454
333.13047
333.12602
333.12119
333.11586
333.10984
333.10268
333.09331
333.07781
333.14748
333.14694
333.14568
333.1437
333.14104
333.13782
333.13416
333.1301
333.12569
333.1209
333.11562
333.10964
333.10253
333.09322
333.07781
333.14725
333.14668
333.14537
333.14334
333.14065
333.13743
333.13377
333.12975
333.12537
333.12061
333.11537
333.10945
333.10238
333.09313
333.0778
333.147
333.1464
333.14505
333.14297
333.14026
333.13704
333.1334
333.1294
333.12505
333.12033
333.11514
333.10925
333.10224
333.09304
333.07779
333.14673
333.14611
333.14471
333.1426
333.13987
333.13665
333.13302
333.12905
333.12474
333.12006
333.1149
333.10906
333.1021
333.09295
333.07778
333.14644
333.1458
333.14436
333.14222
333.13948
333.13626
333.13265
333.1287
333.12443
333.11978
333.11467
333.10887
333.10195
333.09286
333.07777
333.14614
333.14547
333.144
333.14183
333.13908
333.13587
333.13228
333.12836
333.12412
333.11951
333.11444
333.10869
333.10181
333.09278
333.07776
333.14581
333.14513
333.14363
333.14144
333.13869
333.13548
333.13191
333.12803
333.12382
333.11925
333.11421
333.1085
333.10168
333.09269
333.07775
333.14547
333.14477
333.14325
333.14105
333.13829
333.1351
333.13155
333.12769
333.12352
333.11899
333.11399
333.10832
333.10154
333.09261
333.07774
333.1451
333.14439
333.14286
333.14065
333.13789
333.13471
333.13119
333.12736
333.12322
333.11873
333.11377
333.10814
333.1014
333.09252
333.07773
333.14472
333.144
333.14246
333.14024
333.13749
333.13433
333.13084
333.12704
333.12293
333.11847
333.11355
333.10796
333.10127
333.09244
333.07772
333.14432
333.1436
333.14205
333.13983
333.13709
333.13395
333.13048
333.12671
333.12264
333.11822
333.11334
333.10779
333.10114
333.09236
333.07771
333.14391
333.14318
333.14163
333.13942
333.13669
333.13358
333.13013
333.12639
333.12236
333.11797
333.11313
333.10762
333.10101
333.09227
333.07769
333.14348
333.14275
333.1412
333.139
333.13629
333.1332
333.12978
333.12608
333.12207
333.11772
333.11292
333.10744
333.10088
333.09219
333.07768
333.14304
333.14231
333.14077
333.13858
333.13589
333.13282
333.12944
333.12576
333.12179
333.11748
333.11271
333.10728
333.10075
333.09211
333.07767
333.14259
333.14187
333.14033
333.13816
333.13549
333.13245
333.1291
333.12545
333.12152
333.11724
333.1125
333.10711
333.10062
333.09203
333.07765
333.14212
333.14141
333.13989
333.13774
333.1351
333.13208
333.12875
333.12515
333.12124
333.117
333.1123
333.10694
333.10049
333.09195
333.07763
333.14165
333.14094
333.13944
333.13731
333.1347
333.13171
333.12842
333.12484
333.12097
333.11676
333.1121
333.10678
333.10037
333.09187
333.07762
333.14117
333.14047
333.13899
333.13688
333.1343
333.13134
333.12808
333.12454
333.1207
333.11653
333.1119
333.10661
333.10024
333.09179
333.0776
333.14068
333.13999
333.13853
333.13645
333.1339
333.13097
333.12775
333.12424
333.12044
333.11629
333.1117
333.10645
333.10012
333.0917
333.07758
333.14019
333.13951
333.13807
333.13602
333.1335
333.13061
333.12741
333.12394
333.12017
333.11606
333.1115
333.10629
333.09999
333.09162
333.07756
333.13969
333.13902
333.1376
333.13559
333.1331
333.13024
333.12708
333.12364
333.11991
333.11583
333.11131
333.10613
333.09987
333.09154
333.07754
333.13918
333.13853
333.13714
333.13515
333.1327
333.12988
333.12675
333.12335
333.11965
333.11561
333.11111
333.10597
333.09975
333.09146
333.07751
333.13868
333.13804
333.13667
333.13472
333.1323
333.12952
333.12643
333.12305
333.11939
333.11538
333.11092
333.10581
333.09962
333.09138
333.07749
333.13817
333.13755
333.13621
333.13429
333.13191
333.12916
333.1261
333.12276
333.11913
333.11516
333.11073
333.10565
333.0995
333.0913
333.07747
333.13767
333.13705
333.13574
333.13386
333.13151
333.1288
333.12578
333.12247
333.11887
333.11493
333.11054
333.10549
333.09938
333.09121
333.07744
333.13716
333.13656
333.13527
333.13342
333.13111
333.12844
333.12545
333.12219
333.11862
333.11471
333.11035
333.10534
333.09926
333.09113
333.07741
333.13665
333.13606
333.13481
333.13299
333.13072
333.12808
333.12513
333.1219
333.11837
333.11449
333.11016
333.10518
333.09914
333.09105
333.07738
333.13615
333.13557
333.13434
333.13256
333.13033
333.12773
333.12481
333.12161
333.11812
333.11427
333.10997
333.10503
333.09901
333.09096
333.07735
333.13565
333.13508
333.13388
333.13213
333.12994
333.12737
333.1245
333.12133
333.11786
333.11405
333.10979
333.10487
333.09889
333.09088
333.07732
333.13515
333.1346
333.13342
333.1317
333.12955
333.12702
333.12418
333.12105
333.11762
333.11383
333.1096
333.10472
333.09877
333.09079
333.07729
333.13465
333.13411
333.13296
333.13128
333.12916
333.12667
333.12386
333.12077
333.11737
333.11362
333.10942
333.10456
333.09865
333.09071
333.07725
333.13415
333.13363
333.1325
333.13085
333.12877
333.12632
333.12355
333.12049
333.11712
333.1134
333.10923
333.10441
333.09852
333.09062
333.07721
333.13366
333.13315
333.13205
333.13043
333.12838
333.12597
333.12324
333.12021
333.11687
333.11319
333.10905
333.10425
333.0984
333.09053
333.07717
333.13318
333.13268
333.1316
333.13001
333.128
333.12562
333.12293
333.11993
333.11663
333.11297
333.10886
333.1041
333.09828
333.09044
333.07713
333.13269
333.13221
333.13115
333.1296
333.12762
333.12528
333.12261
333.11965
333.11638
333.11276
333.10868
333.10394
333.09815
333.09036
333.07709
333.13222
333.13174
333.1307
333.12918
333.12724
333.12493
333.12231
333.11938
333.11614
333.11255
333.10849
333.10379
333.09803
333.09026
333.07705
333.13174
333.13128
333.13026
333.12877
333.12686
333.12459
333.122
333.1191
333.1159
333.11233
333.10831
333.10363
333.0979
333.09017
333.077
333.13127
333.13082
333.12983
333.12837
333.12649
333.12425
333.12169
333.11883
333.11565
333.11212
333.10813
333.10348
333.09778
333.09008
333.07695
333.13081
333.13036
333.12939
333.12796
333.12612
333.12391
333.12139
333.11856
333.11541
333.11191
333.10794
333.10332
333.09765
333.08999
333.0769
333.13035
333.12991
333.12896
333.12756
333.12575
333.12358
333.12108
333.11829
333.11517
333.1117
333.10776
333.10317
333.09753
333.08989
333.07685
333.1299
333.12947
333.12854
333.12716
333.12538
333.12324
333.12078
333.11802
333.11493
333.11149
333.10758
333.10301
333.0974
333.08979
333.0768
333.12945
333.12903
333.12812
333.12677
333.12502
333.12291
333.12048
333.11775
333.11469
333.11127
333.10739
333.10286
333.09727
333.08969
333.07674
333.12901
333.1286
333.1277
333.12638
333.12466
333.12258
333.12018
333.11748
333.11445
333.11106
333.10721
333.1027
333.09714
333.08959
333.07668
333.12857
333.12817
333.12729
333.12599
333.1243
333.12225
333.11989
333.11721
333.11422
333.11085
333.10703
333.10254
333.09701
333.08949
333.07662
333.12814
333.12774
333.12688
333.1256
333.12394
333.12193
333.11959
333.11695
333.11398
333.11064
333.10684
333.10238
333.09688
333.08939
333.07656
333.12771
333.12732
333.12648
333.12522
333.12359
333.1216
333.1193
333.11668
333.11374
333.11043
333.10666
333.10223
333.09675
333.08929
333.07649
333.12729
333.12691
333.12608
333.12485
333.12324
333.12128
333.119
333.11642
333.1135
333.11022
333.10647
333.10207
333.09661
333.08918
333.07643
333.12687
333.1265
333.12569
333.12447
333.12289
333.12096
333.11871
333.11615
333.11327
333.11001
333.10629
333.10191
333.09648
333.08908
333.07636
333.12646
333.12609
333.1253
333.12411
333.12255
333.12064
333.11842
333.11589
333.11303
333.1098
333.10611
333.10175
333.09634
333.08897
333.07629
333.12605
333.12569
333.12491
333.12374
333.1222
333.12033
333.11814
333.11563
333.1128
333.1096
333.10592
333.10159
333.09621
333.08886
333.07621
333.12565
333.1253
333.12453
333.12338
333.12187
333.12002
333.11785
333.11537
333.11257
333.10939
333.10574
333.10142
333.09607
333.08874
333.07613
333.12525
333.12491
333.12415
333.12302
333.12153
333.11971
333.11757
333.11511
333.11233
333.10918
333.10555
333.10126
333.09593
333.08863
333.07606
333.12486
333.12452
333.12378
333.12266
333.1212
333.1194
333.11728
333.11486
333.1121
333.10897
333.10536
333.1011
333.09579
333.08852
333.07598
333.12447
333.12414
333.12341
333.12231
333.12087
333.11909
333.117
333.1146
333.11187
333.10876
333.10518
333.10094
333.09565
333.0884
333.07589
333.12409
333.12376
333.12304
333.12197
333.12054
333.11879
333.11672
333.11435
333.11164
333.10855
333.10499
333.10077
333.09551
333.08828
333.07581
333.12371
333.12339
333.12268
333.12162
333.12022
333.11849
333.11645
333.11409
333.11141
333.10834
333.10481
333.10061
333.09536
333.08816
333.07572
333.12334
333.12302
333.12233
333.12128
333.1199
333.11819
333.11617
333.11384
333.11118
333.10814
333.10462
333.10044
333.09522
333.08804
333.07563
333.12297
333.12266
333.12198
333.12095
333.11958
333.11789
333.1159
333.11359
333.11095
333.10793
333.10443
333.10028
333.09507
333.08792
333.07554
333.12261
333.1223
333.12163
333.12061
333.11927
333.1176
333.11562
333.11334
333.11072
333.10772
333.10425
333.10011
333.09493
333.08779
333.07544
333.12225
333.12195
333.12128
333.12028
333.11895
333.11731
333.11535
333.11309
333.11049
333.10751
333.10406
333.09994
333.09478
333.08767
333.07535
333.12189
333.12159
333.12094
333.11996
333.11864
333.11702
333.11508
333.11284
333.11026
333.10731
333.10387
333.09977
333.09463
333.08754
333.07525
333.12154
333.12125
333.12061
333.11963
333.11834
333.11673
333.11482
333.11259
333.11004
333.1071
333.10368
333.0996
333.09448
333.08741
333.07515
333.12119
333.12091
333.12027
333.11931
333.11803
333.11645
333.11455
333.11235
333.10981
333.10689
333.1035
333.09943
333.09433
333.08728
333.07504
333.12085
333.12057
333.11994
333.119
333.11773
333.11616
333.11429
333.1121
333.10958
333.10669
333.10331
333.09926
333.09418
333.08715
333.07494
333.12051
333.12023
333.11962
333.11868
333.11743
333.11588
333.11402
333.11186
333.10936
333.10648
333.10312
333.09909
333.09402
333.08701
333.07483
333.12018
333.1199
333.1193
333.11837
333.11714
333.1156
333.11376
333.11162
333.10914
333.10627
333.10293
333.09892
333.09387
333.08688
333.07472
333.11985
333.11958
333.11898
333.11806
333.11685
333.11533
333.1135
333.11137
333.10891
333.10607
333.10274
333.09875
333.09371
333.08674
333.07461
333.11952
333.11925
333.11866
333.11776
333.11656
333.11505
333.11325
333.11113
333.10869
333.10586
333.10255
333.09858
333.09356
333.08661
333.0745
333.1192
333.11893
333.11835
333.11746
333.11627
333.11478
333.11299
333.11089
333.10847
333.10565
333.10236
333.0984
333.0934
333.08647
333.07438
333.11888
333.11862
333.11804
333.11716
333.11598
333.11451
333.11274
333.11066
333.10824
333.10545
333.10217
333.09823
333.09324
333.08632
333.07426
333.11857
333.11831
333.11773
333.11687
333.1157
333.11424
333.11248
333.11042
333.10802
333.10524
333.10198
333.09805
333.09308
333.08618
333.07415
333.11825
333.118
333.11743
333.11657
333.11542
333.11397
333.11223
333.11018
333.1078
333.10504
333.10179
333.09788
333.09292
333.08604
333.07403
333.11794
333.11769
333.11713
333.11628
333.11514
333.11371
333.11198
333.10995
333.10758
333.10483
333.1016
333.0977
333.09276
333.08589
333.0739
333.11764
333.11739
333.11684
333.11599
333.11486
333.11344
333.11173
333.10971
333.10736
333.10463
333.10141
333.09752
333.0926
333.08575
333.07378
333.11734
333.11709
333.11654
333.11571
333.11459
333.11318
333.11148
333.10948
333.10714
333.10442
333.10122
333.09735
333.09244
333.0856
333.07365
333.11704
333.11679
333.11625
333.11543
333.11432
333.11292
333.11124
333.10925
333.10692
333.10422
333.10103
333.09717
333.09227
333.08545
333.07353
333.11674
333.1165
333.11596
333.11515
333.11405
333.11267
333.11099
333.10902
333.10671
333.10401
333.10084
333.09699
333.09211
333.0853
333.0734
333.11645
333.11621
333.11568
333.11487
333.11378
333.11241
333.11075
333.10879
333.10649
333.10381
333.10064
333.09681
333.09194
333.08515
333.07327
333.11616
333.11592
333.1154
333.1146
333.11352
333.11216
333.11051
333.10856
333.10627
333.1036
333.10045
333.09663
333.09178
333.085
333.07313
333.11587
333.11564
333.11512
333.11432
333.11325
333.1119
333.11027
333.10833
333.10606
333.1034
333.10026
333.09645
333.09161
333.08485
333.073
333.11559
333.11535
333.11484
333.11405
333.11299
333.11165
333.11003
333.1081
333.10584
333.1032
333.10007
333.09627
333.09144
333.08469
333.07287
333.1153
333.11507
333.11456
333.11378
333.11273
333.1114
333.10979
333.10787
333.10563
333.10299
333.09988
333.09609
333.09127
333.08454
333.07273
333.11503
333.1148
333.11429
333.11352
333.11247
333.11116
333.10955
333.10765
333.10541
333.10279
333.09968
333.09591
333.0911
333.08438
333.07259
333.11475
333.11452
333.11402
333.11325
333.11222
333.11091
333.10931
333.10742
333.1052
333.10259
333.09949
333.09573
333.09093
333.08422
333.07245
333.11447
333.11425
333.11375
333.11299
333.11197
333.11066
333.10908
333.1072
333.10498
333.10238
333.0993
333.09555
333.09076
333.08407
333.07231
333.1142
333.11398
333.11349
333.11273
333.11171
333.11042
333.10885
333.10697
333.10477
333.10218
333.09911
333.09537
333.09059
333.08391
333.07217
333.11393
333.11371
333.11322
333.11248
333.11146
333.11018
333.10861
333.10675
333.10456
333.10198
333.09891
333.09518
333.09042
333.08375
333.07203
333.11367
333.11345
333.11296
333.11222
333.11121
333.10994
333.10838
333.10653
333.10434
333.10177
333.09872
333.095
333.09024
333.08359
333.07188
333.1134
333.11318
333.1127
333.11197
333.11097
333.1097
333.10815
333.10631
333.10413
333.10157
333.09853
333.09482
333.09007
333.08343
333.07174
333.11314
333.11292
333.11245
333.11171
333.11072
333.10946
333.10792
333.10608
333.10392
333.10137
333.09833
333.09463
333.0899
333.08326
333.07159
333.11288
333.11266
333.11219
333.11146
333.11048
333.10922
333.10769
333.10586
333.10371
333.10117
333.09814
333.09445
333.08972
333.0831
333.07144
333.11262
333.11241
333.11194
333.11121
333.11023
333.10899
333.10746
333.10565
333.1035
333.10096
333.09795
333.09426
333.08955
333.08294
333.07129
333.11236
333.11215
333.11168
333.11097
333.10999
333.10875
333.10724
333.10543
333.10329
333.10076
333.09775
333.09408
333.08937
333.08277
333.07114
333.11211
333.1119
333.11143
333.11072
333.10975
333.10852
333.10701
333.10521
333.10308
333.10056
333.09756
333.09389
333.0892
333.08261
333.07099
333.11186
333.11165
333.11119
333.11048
333.10951
333.10829
333.10679
333.10499
333.10287
333.10036
333.09737
333.09371
333.08902
333.08244
333.07084
333.11161
333.1114
333.11094
333.11023
333.10928
333.10806
333.10656
333.10477
333.10266
333.10016
333.09717
333.09352
333.08884
333.08227
333.07069
333.11136
333.11115
333.11069
333.10999
333.10904
333.10783
333.10634
333.10456
333.10245
333.09996
333.09698
333.09334
333.08867
333.0821
333.07053
333.11111
333.1109
333.11045
333.10975
333.10881
333.1076
333.10612
333.10434
333.10224
333.09975
333.09678
333.09315
333.08849
333.08194
333.07038
333.11086
333.11066
333.11021
333.10952
333.10857
333.10737
333.1059
333.10413
333.10203
333.09955
333.09659
333.09296
333.08831
333.08177
333.07022
333.11062
333.11042
333.10997
333.10928
333.10834
333.10714
333.10567
333.10391
333.10182
333.09935
333.0964
333.09278
333.08813
333.0816
333.07007
333.11038
333.11018
333.10973
333.10904
333.10811
333.10692
333.10545
333.1037
333.10162
333.09915
333.0962
333.09259
333.08795
333.08143
333.06991
333.11014
333.10994
333.10949
333.10881
333.10788
333.10669
333.10524
333.10349
333.10141
333.09895
333.09601
333.0924
333.08777
333.08126
333.06975
333.1099
333.1097
333.10926
333.10858
333.10765
333.10647
333.10502
333.10327
333.1012
333.09875
333.09581
333.09222
333.08759
333.08109
333.06959
333.10966
333.10946
333.10902
333.10834
333.10742
333.10625
333.1048
333.10306
333.101
333.09855
333.09562
333.09203
333.08741
333.08091
333.06943
333.10942
333.10923
333.10879
333.10811
333.1072
333.10602
333.10458
333.10285
333.10079
333.09835
333.09543
333.09184
333.08723
333.08074
333.06927
333.10919
333.10899
333.10856
333.10788
333.10697
333.1058
333.10436
333.10264
333.10058
333.09815
333.09523
333.09165
333.08705
333.08057
333.06911
333.10895
333.10876
333.10832
333.10766
333.10675
333.10558
333.10415
333.10243
333.10038
333.09795
333.09504
333.09146
333.08687
333.0804
333.06895
333.10872
333.10853
333.10809
333.10743
333.10652
333.10536
333.10393
333.10222
333.10017
333.09775
333.09484
333.09128
333.08669
333.08022