/*--------------------------------*- C++ -*----------------------------------*\
| =========                 |                                                 |
| \\      /  F ield         | OpenFOAM: The Open Source CFD Toolbox           |
|  \\    /   O peration     | Version:  2506                                  |
|   \\  /    A nd           | Website:  www.openfoam.com                      |
|    \\/     M anipulation  |                                                 |
\*---------------------------------------------------------------------------*/
FoamFile
{
    version     2.0;
    format      ascii;
    arch        "LSB;label=32;scalar=64";
    class       volScalarField;
    location    "6.3072e+07/water";
    object      wallHeatFlux;
}
// * * * * * * * * * * * * * * * * * * * * * * * * * * * * * * * * * * * * * //

dimensions      [1 0 -3 0 0 0 0];

internalField   uniform 0;

boundaryField
{
    water_inlet
    {
        type            calculated;
        value           uniform 0;
    }
    water_outlet
    {
        type            calculated;
        value           uniform 0;
    }
    water_wedge1
    {
        type            wedge;
    }
    water_wedge2
    {
        type            wedge;
    }
    water_to_rock
    {
        type            calculated;
        value           nonuniform List<scalar> 
400
(
-1092.9279
-906.0324
-798.23215
-728.67912
-679.42111
-642.14081
-612.44767
-587.93451
-567.18664
-549.23073
-533.46085
-519.40856
-506.81123
-495.36245
-484.87128
-475.22026
-466.28795
-457.98632
-450.20658
-442.96623
-436.09453
-429.6377
-423.48994
-417.68227
-412.13124
-406.86844
-401.78956
-396.93714
-392.30437
-387.83514
-383.56361
-379.38912
-375.38334
-371.53735
-367.81686
-364.1896
-360.68075
-357.26055
-353.98398
-350.79456
-347.66416
-344.64877
-341.69258
-338.82376
-336.0145
-333.32096
-330.65928
-328.05755
-325.5158
-323.06202
-320.64018
-318.2782
-315.97598
-313.7334
-311.5223
-309.37055
-307.27799
-305.18839
-303.15764
-301.18559
-299.24402
-297.36082
-295.50774
-293.68458
-291.91921
-290.15524
-288.44866
-286.74309
-285.09463
-283.50322
-281.91248
-280.3505
-278.81723
-277.34077
-275.83652
-274.41715
-273.02624
-271.63552
-270.24488
-268.91074
-267.60481
-266.32705
-265.07741
-263.82755
-262.60569
-261.4118
-260.21751
-259.07942
-257.94084
-256.83006
-255.74705
-254.69178
-253.63583
-252.60754
-251.57848
-250.57701
-249.60312
-248.65678
-247.70951
-246.78973
-245.86892
-245.00405
-244.08106
-243.24247
-242.40269
-241.56169
-240.74795
-239.96146
-239.17359
-238.38429
-237.62209
-236.88695
-236.15022
-235.44045
-234.72895
-234.0443
-233.35779
-232.66932
-232.00753
-231.37235
-230.76374
-230.12419
-229.51108
-228.89559
-228.30644
-227.74357
-227.17816
-226.61018
-226.03956
-225.52386
-224.97668
-224.48439
-223.96057
-223.46282
-222.96235
-222.48797
-222.01089
-221.55996
-221.10638
-220.65017
-220.19138
-219.75892
-219.35286
-218.94438
-218.50468
-218.12045
-217.70513
-217.31655
-216.9548
-216.56219
-216.22546
-215.85801
-215.48884
-215.1469
-214.8034
-214.4584
-214.14089
-213.82205
-213.50197
-213.18072
-212.88725
-212.62166
-212.32622
-212.00102
-211.73277
-211.46378
-211.1941
-210.92378
-210.68178
-210.41038
-210.16739
-209.92396
-209.68013
-209.43594
-209.22032
-208.97555
-208.75942
-208.57197
-208.32666
-208.13896
-207.92233
-207.73452
-207.5467
-207.33005
-207.17116
-206.98349
-206.82476
-206.60845
-206.47882
-206.29165
-206.1335
-205.97553
-205.81777
-205.66021
-205.50289
-205.37462
-205.2466
-205.11882
-204.96248
-204.83523
-204.70825
-204.58154
-204.45512
-204.35779
-204.23192
-204.10635
-204.00988
-203.91369
-203.78898
-203.69337
-203.59805
-203.50301
-203.43706
-203.34259
-203.2484
-203.1545
-203.08966
-203.0251
-202.93201
-202.86799
-202.80422
-202.74072
-202.67747
-202.64326
-202.55171
-202.4892
-202.45571
-202.42246
-202.36064
-202.29905
-202.29525
-202.26287
-202.20191
-202.16994
-202.13817
-202.13537
-202.10397
-202.07276
-202.0705
-202.01085
-202.00893
-202.00718
-202.00557
-202.00412
-201.97403
-201.97286
-201.97183
-201.97092
-201.99893
-201.99827
-201.99773
-201.9973
-202.02576
-202.05432
-202.0542
-202.08295
-202.11179
-202.14071
-202.16971
-202.1988
-202.25673
-202.28595
-202.31524
-202.34458
-202.40277
-202.46101
-202.49052
-202.54885
-202.57845
-202.66566
-202.72411
-202.78261
-202.84113
-202.92847
-202.98704
-203.04563
-203.13303
-203.22044
-203.30787
-203.3953
-203.48275
-203.57021
-203.65767
-203.77392
-203.86139
-203.97765
-204.06511
-204.18137
-204.29762
-204.41387
-204.53011
-204.64635
-204.79136
-204.93637
-205.05258
-205.19757
-205.34255
-205.45872
-205.63246
-205.74861
-205.92231
-206.06722
-206.2409
-206.41456
-206.5882
-206.73304
-206.90665
-207.13781
-207.31138
-207.48493
-207.68725
-207.88955
-208.09183
-208.29409
-208.49633
-208.72734
-208.92954
-209.1893
-209.39145
-209.62238
-209.88208
-210.11297
-210.37263
-210.63227
-210.89189
-211.1515
-211.41108
-211.69944
-211.98778
-212.27609
-212.5644
-212.85268
-213.16973
-213.48677
-213.80379
-214.14958
-214.46656
-214.81232
-215.12927
-215.50379
-215.87829
-216.22399
-216.59847
-217.00173
-217.37619
-217.77942
-218.18265
-218.61466
-219.01786
-219.44985
-219.88183
-220.34258
-220.80332
-221.26405
-221.75355
-222.24303
-222.7325
-223.22196
-223.76898
-224.2872
-224.83421
-225.38121
-225.957
-226.53279
-227.13737
-227.74197
-228.37536
-229.00876
-229.64218
-230.33318
-230.99539
-231.71518
-232.43496
-233.18352
-233.96084
-234.73814
-235.5442
-236.35022
-237.21379
-238.13492
-239.02723
-239.9771
-240.95577
-241.96323
-243.02831
-244.151
-245.30255
-246.51173
-247.77856
-249.13182
-250.57151
-252.12639
-253.76766
-255.61046
-257.59718
-259.92935
-262.63574
-265.97544
-270.46671
-277.26118
)
;
    }
}


// ************************************************************************* //
