/*--------------------------------*- C++ -*----------------------------------*\
| =========                 |                                                 |
| \\      /  F ield         | OpenFOAM: The Open Source CFD Toolbox           |
|  \\    /   O peration     | Version:  2506                                  |
|   \\  /    A nd           | Website:  www.openfoam.com                      |
|    \\/     M anipulation  |                                                 |
\*---------------------------------------------------------------------------*/
FoamFile
{
    version     2.0;
    format      ascii;
    arch        "LSB;label=32;scalar=64";
    class       volScalarField;
    location    "12000/rock";
    object      T;
}
// * * * * * * * * * * * * * * * * * * * * * * * * * * * * * * * * * * * * * //

dimensions      [0 0 0 1 0 0 0];

internalField   nonuniform List<scalar> 
16000
(
317.74085
306.96636
301.14169
297.51228
295.04669
293.27178
291.93959
290.90754
290.08783
289.42352
288.87611
288.41865
288.03177
287.7012
287.41621
287.16858
286.95193
286.76122
286.59245
286.44236
286.30833
286.18819
286.08012
285.98264
285.89446
285.81453
285.74191
285.67583
285.6156
285.56062
285.51037
285.46437
285.42221
285.38348
285.3478
285.31479
285.28404
285.25505
285.22716
285.1993
320.42466
309.69012
303.47212
299.48147
296.73009
294.73254
293.22513
292.05298
291.11952
290.36149
289.73587
289.21242
288.76928
288.39034
288.06341
287.77918
287.53038
287.31129
287.11732
286.94478
286.79066
286.65246
286.52814
286.41596
286.31449
286.22248
286.13889
286.06281
285.99346
285.93016
285.87229
285.81934
285.7708
285.72622
285.68517
285.64723
285.61193
285.57875
285.54705
285.51591
321.9584
311.69613
305.39422
301.20627
298.2578
296.08869
294.43724
293.14507
292.1113
291.26889
290.57175
289.98719
289.49145
289.06691
288.7002
288.38106
288.10147
287.85507
287.63679
287.44251
287.26889
287.11314
286.97297
286.84646
286.73198
286.62816
286.53381
286.44793
286.36964
286.29817
286.23284
286.17305
286.11826
286.06796
286.02169
285.97896
285.93931
285.9022
285.86705
285.83316
322.94096
313.2047
306.97503
302.70466
299.63248
297.33818
295.57272
294.18056
293.06025
292.14321
291.38159
290.74113
290.19673
289.72961
289.32547
288.97328
288.66436
288.39185
288.15022
287.93501
287.74254
287.56979
287.41424
287.27379
287.14664
287.03129
286.92644
286.83098
286.74393
286.66446
286.59182
286.52534
286.46444
286.40856
286.3572
286.30985
286.26603
286.22522
286.1869
286.15052
323.63127
314.37371
308.28439
304.00457
300.86425
298.48382
296.63141
295.15815
293.96474
292.98277
292.16383
291.47286
290.88389
290.37735
289.93827
289.55498
289.21832
288.92098
288.65705
288.42176
288.21116
288.02201
287.85159
287.69762
287.55817
287.43161
287.31653
287.21171
287.11612
287.02884
286.94905
286.87605
286.80918
286.74787
286.69156
286.63975
286.59194
286.54763
286.50634
286.46763
324.15088
315.30748
309.38187
305.1358
301.96703
299.53161
297.61545
296.07816
294.82422
293.78668
292.91749
292.18137
291.55197
291.00927
290.5378
290.12547
289.76272
289.44188
289.15676
288.9023
288.67434
288.46943
288.28467
288.11764
287.96629
287.82885
287.70383
287.58992
287.48602
287.39112
287.30437
287.225
287.15233
287.08573
287.02464
286.96851
286.91686
286.86921
286.82511
286.78418
324.56206
316.07391
310.31427
306.12588
302.95585
300.48932
298.5286
296.94218
295.63913
294.55478
293.64206
292.86604
292.20033
291.6247
291.12344
290.68416
290.29702
289.95408
289.64891
289.37624
289.13171
288.9117
288.71318
288.53358
288.37073
288.22278
288.08813
287.9654
287.85342
287.75112
287.6576
287.57205
287.49373
287.422
287.35626
287.29597
287.24063
287.18977
287.14298
287.09991
324.89953
316.71777
311.1172
306.99858
303.84525
301.36541
299.37558
297.75266
296.41061
295.28744
294.33752
293.5266
292.82856
292.22321
291.69473
291.2306
290.82077
290.45715
290.13311
289.8432
289.58293
289.34853
289.13683
288.94517
288.77126
288.61316
288.46921
288.33796
288.21814
288.10867
288.00858
287.91702
287.83322
287.75652
287.68628
287.62196
287.56306
287.50912
287.45973
287.41458
325.18413
317.26928
311.81743
307.77366
304.64852
302.16832
300.16151
298.51263
297.14034
295.98552
295.0042
294.16307
293.4365
292.80451
292.25135
291.76444
291.33365
290.95076
290.60903
290.30289
290.02772
289.77964
289.55538
289.35217
289.16765
288.9998
288.84689
288.7074
288.58002
288.46361
288.35715
288.25977
288.17066
288.08913
288.01455
287.94634
287.884
287.82707
287.77517
287.72798
325.42921
317.74939
312.43514
308.46725
305.37733
302.90603
300.89165
299.22541
297.83035
296.65018
295.64272
294.77572
294.0242
293.36854
292.79312
292.28545
291.83539
291.43465
291.07642
290.75505
290.46583
290.20479
289.96858
289.75436
289.5597
289.3825
289.22098
289.07355
288.93888
288.81576
288.70316
288.60014
288.5059
288.41971
288.34091
288.26894
288.20327
288.14346
288.08912
288.03993
325.6438
318.17305
312.98568
309.0924
306.04175
303.58583
301.57107
299.89442
298.48289
297.28287
296.25394
295.36503
294.59189
293.91532
293.31999
292.79352
292.32582
291.90861
291.53506
291.19946
290.89704
290.62378
290.37625
290.15157
289.94722
289.76109
289.5913
289.43626
289.29456
289.16499
289.04645
288.938
288.83879
288.74809
288.66523
288.58961
288.52073
288.45812
288.4014
288.35026
325.83423
318.55119
313.48081
309.6597
306.65037
304.21427
302.20455
300.52305
299.10028
297.88513
296.83888
295.93164
295.13992
294.44505
293.83201
293.2886
292.80486
292.37254
291.98481
291.63597
291.32119
291.03643
290.77822
290.54361
290.33006
290.13539
289.95771
289.79537
289.64693
289.51114
289.38689
289.2732
289.1692
289.07415
288.98735
288.90821
288.83621
288.77089
288.71186
288.65879
326.00512
318.89199
313.9297
310.17773
307.21047
304.79713
302.79649
301.11454
299.68487
298.45861
297.39867
296.47629
295.66878
294.958
294.32931
293.77075
293.27247
292.82635
292.42557
292.06444
291.73815
291.44261
291.17433
290.93034
290.70806
290.50528
290.32007
290.15075
289.99585
289.8541
289.72435
289.60561
289.497
289.39775
289.30715
289.22461
289.14959
289.08163
289.02034
288.96538
326.15992
319.20172
314.33955
310.65347
307.72818
305.3395
303.35091
301.67195
300.23893
299.00497
297.93449
296.9998
296.17901
295.45454
294.81212
294.24006
293.72871
293.27002
292.85728
292.4848
292.14781
291.8422
291.56448
291.31164
291.08111
290.87063
290.67825
290.50227
290.34119
290.19372
290.0587
289.93512
289.82207
289.71876
289.62451
289.53868
289.46073
289.39021
289.32671
289.2699
326.30128
319.48525
314.71613
311.09267
308.20873
305.84579
303.8714
302.19815
300.76466
299.52588
298.44756
297.50307
296.67126
295.93509
295.28072
294.69672
294.17365
293.70359
293.27992
292.89701
292.5501
292.23511
291.94855
291.68741
291.44909
291.23132
291.03213
290.84981
290.68284
290.52991
290.38984
290.2616
290.14428
290.03708
289.93929
289.85028
289.76951
289.69649
289.63084
289.5722
326.43128
319.74645
315.06407
311.50006
308.65651
306.31988
304.36121
302.69573
301.26412
300.02291
298.9391
297.987
297.14617
296.40014
295.73543
295.14095
294.60743
294.12713
293.69352
293.30105
292.94499
292.6213
292.32649
292.05757
291.81191
291.58726
291.38162
291.19328
291.0207
290.86255
290.71765
290.58495
290.46353
290.35259
290.25139
290.15931
290.07579
290.00036
289.9326
289.87217
326.55157
319.98842
315.38717
311.87959
309.07526
306.7651
304.8232
303.16709
301.73924
300.49761
299.4103
298.4525
297.60444
296.85018
296.17663
295.57299
295.03022
294.54074
294.09813
293.69693
293.33246
293.00072
292.69824
292.42204
292.1695
291.93836
291.72664
291.53258
291.35467
291.19155
291.04204
290.90507
290.77973
290.66518
290.5607
290.46566
290.37949
290.30171
290.23189
290.16969
326.66346
320.21369
315.68853
312.23455
309.4682
307.18439
305.25994
303.6144
302.19183
300.95142
299.86232
298.90047
298.04677
297.28575
296.60472
295.99314
295.44223
294.94457
294.49384
294.0847
293.71252
293.37336
293.06377
292.78078
292.52181
292.28457
292.0671
291.86765
291.68468
291.51683
291.36292
291.22187
291.09276
290.97476
290.86713
290.76923
290.68049
290.60042
290.5286
290.46467
326.76805
320.42432
315.97076
312.56773
309.83805
307.58029
305.67369
304.03962
302.62352
301.38573
300.29626
299.33181
298.47386
297.7074
297.02009
296.40172
295.84369
295.33876
294.88076
294.46442
294.08522
293.73922
293.42306
293.13377
292.86878
292.62583
292.40295
292.1984
292.01064
291.8383
291.6802
291.53527
291.40256
291.28124
291.17058
291.06992
290.97869
290.89641
290.82263
290.757
326.86621
320.62204
316.23603
312.88149
310.18718
307.95503
306.06649
304.44453
303.03585
301.80179
300.71318
299.74738
298.8864
298.11566
297.4232
296.79904
296.23484
295.72351
295.25901
294.83619
294.45059
294.09834
293.77611
293.48098
293.21039
292.9621
292.73415
292.52479
292.33249
292.15591
291.99383
291.84518
291.70903
291.58454
291.47096
291.36765
291.27402
291.18958
291.1139
291.04659
326.95869
320.80829
316.48617
313.17784
310.51763
308.31056
306.44012
304.83073
303.43022
302.20081
301.11408
300.14799
299.28505
298.51109
297.81445
297.18545
296.61594
296.099
295.62874
295.2001
294.8087
294.45075
294.12295
293.82241
293.54662
293.29335
293.06064
292.84676
292.65019
292.46958
292.30372
292.15155
292.01212
291.88459
291.76821
291.66234
291.56639
291.47986
291.40231
291.33336
327.0461
320.9843
316.72275
313.45852
310.83115
308.6486
306.79618
305.19966
303.80788
302.58388
301.49989
300.53444
299.67047
298.8942
298.19429
297.56129
296.98726
296.46545
295.99011
295.55627
295.15964
294.7965
294.46359
294.15808
293.87747
293.61955
293.3824
293.16428
292.96369
292.77927
292.60983
292.45431
292.31174
292.18131
292.06225
291.95392
291.85573
291.76717
291.6878
291.61724
327.12897
321.15109
316.9471
313.72501
311.12931
308.97065
307.1361
305.55263
304.17002
302.95203
301.87151
300.90747
300.0433
299.26553
298.56313
297.9269
297.34907
296.82308
296.34328
295.90482
295.5035
295.13565
294.79809
294.48801
294.20294
293.94071
293.69941
293.47732
293.27295
293.08494
292.91212
292.7534
292.60786
292.47465
292.35302
292.24232
292.14197
292.05144
291.9703
291.89815
327.20774
321.30957
317.16039
313.97862
311.41344
309.27805
307.46115
305.89082
304.51769
303.30619
302.22974
301.26779
300.40412
299.62558
298.92141
298.28263
297.70167
297.1721
296.68843
296.2459
295.84038
295.46829
295.12649
294.81222
294.52304
294.25682
294.01166
293.78586
293.57794
293.38655
293.21052
293.04879
292.90041
292.76455
292.64046
292.52749
292.42504
292.33261
292.24973
292.17604
327.28278
321.46049
317.36362
314.22048
311.68473
309.57199
307.77246
306.21529
304.85186
303.64725
302.57536
301.61607
300.75351
299.97483
299.26952
298.62881
298.04532
297.51276
297.02575
296.57964
296.17039
295.79449
295.44885
295.13075
294.83781
294.5679
294.31915
294.08989
293.87864
293.68408
293.50502
293.34043
293.18936
293.05097
292.92453
292.80937
292.7049
292.61061
292.52606
292.45083
327.35443
321.60452
317.55765
314.45158
311.94422
309.85351
308.07106
306.52699
305.17342
303.976
302.90908
301.95294
301.09201
300.31376
299.60787
298.96579
298.3803
297.84526
297.35541
296.90619
296.49366
296.11435
295.76524
295.44366
295.14726
294.87395
294.62188
294.3894
294.17504
293.97749
293.79559
293.62829
293.47466
293.33387
293.20517
293.08791
292.9815
292.88542
292.79922
292.7225
327.42297
321.74224
317.74325
314.6728
312.19286
310.12355
308.35786
306.8268
305.48319
304.29318
303.23156
302.27898
301.42015
300.6428
299.93684
299.29389
298.7069
298.16986
297.67761
297.22572
296.8103
296.42796
296.07573
295.751
295.45145
295.17501
294.91986
294.68439
294.46712
294.26678
294.0822
293.91234
293.75629
293.6132
293.48235
293.36307
293.25478
293.15697
293.06917
292.99098
327.48864
321.87417
317.92109
314.8849
312.43145
310.38296
308.63368
307.11551
305.78189
304.59947
303.54343
302.59474
301.73841
300.96238
300.25679
299.61342
299.02537
298.48676
297.99254
297.53837
297.12043
296.73542
296.38041
296.05283
295.7504
295.4711
295.21312
294.97487
294.7549
294.55194
294.36484
294.19257
294.03421
293.88895
293.75604
293.63483
293.52473
293.42523
293.33587
293.25624
327.55166
322.00075
318.09178
315.08858
312.66074
310.63248
308.89927
307.39384
306.07021
304.89549
303.84525
302.90074
302.04725
301.27292
300.56808
299.92469
299.33598
298.79619
298.30039
297.8443
297.4242
297.03684
296.67936
296.34921
296.04418
295.76226
295.50167
295.26085
295.03837
294.83296
294.6435
294.46895
294.30842
294.16108
294.0262
293.90314
293.7913
293.69017
293.59929
293.51825
327.61224
322.12237
318.25583
315.28444
312.88137
310.87278
309.1553
307.66243
306.34876
305.18184
304.13756
303.19747
302.34709
301.57479
300.87105
300.228
299.63899
299.09838
298.60133
298.14367
297.72173
297.33233
296.97265
296.64022
296.33283
296.04852
295.78555
295.54236
295.31754
295.10985
294.91817
294.74148
294.57889
294.42958
294.29283
294.16798
294.05446
293.95175
293.85939
293.77697
327.67054
322.23941
318.41372
315.47303
313.09395
311.10449
309.40238
307.92188
306.61812
305.45903
304.42085
303.48538
302.63837
301.86836
301.16603
300.52363
299.93464
299.39354
298.89557
298.43663
298.01315
297.62199
297.2604
296.92593
296.61642
296.32995
296.06479
295.81941
295.59243
295.38261
295.18885
295.01015
294.84561
294.69443
294.55589
294.42934
294.31421
294.20996
294.11616
294.03239
327.72671
322.35216
318.56588
315.65485
313.29901
311.32814
309.64107
308.17274
306.8788
305.72757
304.69558
303.76489
302.92144
302.15398
301.45333
300.81185
300.22318
299.68187
299.18327
298.72335
298.2986
297.90594
297.54268
297.20641
296.895
296.60657
296.33942
296.09203
295.86305
295.65125
295.45555
295.27496
295.10858
294.95563
294.81538
294.6872
294.57051
294.46478
294.36957
294.28447
327.7809
322.46093
318.71268
315.83033
313.49701
311.54424
309.87186
308.4155
307.13129
305.98791
304.96218
304.03639
303.19669
302.43198
301.73323
301.09294
300.50484
299.96359
299.46461
299.00397
298.5782
298.18429
297.81959
297.48174
297.16864
296.87845
296.60948
296.36025
296.12943
295.9158
295.71828
295.53591
295.3678
295.21317
295.07129
294.94155
294.82335
294.71619
294.61962
294.53321
327.83324
322.56595
318.85447
315.99987
313.68841
311.75324
310.09522
308.65062
307.37602
306.24047
305.22104
304.30026
303.46445
302.70267
302.00602
301.36714
300.77984
300.23888
299.73978
299.27864
298.85209
298.45715
298.09123
297.752
297.43741
297.14563
296.87503
296.62412
296.39159
296.17626
295.97706
295.79302
295.62327
295.46704
295.32362
295.19237
295.07273
294.96418
294.86628
294.7786
327.88383
322.66748
318.99155
316.16383
313.87359
311.95556
310.31157
308.87851
307.61341
306.48564
305.47254
304.55684
303.72503
302.96633
302.27197
301.63468
301.0484
300.50795
300.00893
299.54752
299.12039
298.72464
298.35769
298.01728
297.70138
297.40819
297.1361
296.88366
296.64957
296.43266
296.23188
296.04628
295.875
295.71725
295.57236
295.43968
295.31864
295.20875
295.10954
295.02061
327.93279
322.76571
319.12421
316.32255
314.05291
312.15158
310.52128
309.09955
307.84382
306.72378
305.71701
304.80645
303.97874
303.22326
302.53133
301.89581
301.31072
300.77098
300.27223
299.81075
299.38324
298.98686
298.61907
298.27765
297.9606
297.66616
297.39274
297.13891
296.90339
296.68503
296.48279
296.29572
296.12299
295.96381
295.81751
295.68346
295.56109
295.44989
295.34942
295.25926
327.9802
322.86084
319.25269
316.47632
314.2267
312.34163
310.72473
309.3141
308.06761
306.95523
305.95479
305.04939
304.22587
303.4737
302.78434
302.15074
301.56701
301.02814
300.52985
300.06846
299.64076
299.24392
298.87546
298.5332
298.21517
297.91963
297.64501
297.38993
297.1531
296.9334
296.7298
296.54136
296.36726
296.20673
296.05909
295.92372
295.80006
295.6876
295.5859
295.49454
328.02615
322.95305
319.37725
316.62542
314.39527
312.52603
310.92222
309.52249
308.28509
307.1803
306.18616
305.28596
304.46667
303.71791
303.03123
302.39968
301.81745
301.2796
300.78194
300.32081
299.89307
299.49593
299.12697
298.78401
298.46514
298.16864
297.89297
297.63674
297.39873
297.17779
296.97293
296.78322
296.60783
296.44602
296.29711
296.16048
296.03557
295.92189
295.81899
295.72646
328.07073
323.04248
319.49807
316.77009
314.55887
312.70508
311.11406
309.72501
308.49657
307.39928
306.4114
305.51641
304.70141
303.95612
303.27222
302.64283
302.06223
301.52555
301.02864
300.56792
300.14029
299.74301
299.37368
299.03017
298.71059
298.41326
298.13665
297.87941
297.64031
297.41824
297.21221
297.02131
296.84472
296.68169
296.53157
296.39373
296.26763
296.15277
296.0487
295.95501
328.114
323.1293
319.61538
316.91056
314.71778
312.87905
311.30052
309.92194
308.70231
307.61244
306.63079
305.741
304.9303
304.18855
303.50751
302.88039
302.30152
301.76613
301.27011
300.80993
300.38254
299.98525
299.61568
299.27176
298.9516
298.65356
298.37613
298.11798
297.8779
297.65479
297.44768
297.25566
297.07794
296.91377
296.76249
296.6235
296.49624
296.38024
296.27503
296.18021
328.15603
323.21363
319.72933
317.04705
314.87222
313.04817
311.48187
310.11355
308.90258
307.82002
306.84455
305.95995
305.15359
304.41542
303.7373
303.11252
302.5355
302.00149
301.50648
301.04697
300.61994
300.22276
299.85308
299.50885
299.18824
298.88959
298.61145
298.35249
298.11152
297.88747
297.67936
297.48631
297.30752
297.14227
296.98989
296.84979
296.72143
296.60431
296.49799
296.40207
328.19689
323.29559
319.8401
317.17975
315.0224
313.21269
311.65832
310.30007
309.09761
308.02227
307.05292
306.17349
305.37147
304.63692
303.96177
303.33941
302.76431
302.2318
301.73788
301.27915
300.8526
300.45564
300.08596
299.74154
299.42057
299.12143
298.84268
298.58301
298.34124
298.11633
297.9073
297.71328
297.5335
297.36722
297.2138
297.07264
296.94321
296.82501
296.71761
296.62061
328.23663
323.37531
319.94784
317.30883
315.16853
313.3728
311.83012
310.48171
309.28762
308.21941
307.25612
306.38183
305.58415
304.85323
304.18111
303.56123
302.98812
302.45718
301.96446
301.50659
301.08062
300.68398
300.31441
299.9699
299.64868
299.34914
299.06987
298.80957
298.56709
298.34139
298.13152
297.93661
297.75589
297.58864
297.43422
297.29205
297.16159
297.04235
296.9339
296.83583
328.27529
323.45288
320.05268
317.43448
315.31078
313.52871
311.99744
310.6587
309.47283
308.41164
307.45434
306.58515
305.7918
305.06454
304.39548
303.77812
303.20708
302.67778
302.18634
301.72942
301.30412
300.9079
300.53852
300.19402
299.87263
299.57278
299.29307
299.03224
298.78913
298.56272
298.35206
298.15632
297.97472
297.80656
297.6512
297.50805
297.3766
297.25635
297.14687
297.04776
328.31294
323.5284
320.15477
317.55682
315.44933
313.68059
312.1605
310.83122
309.65343
308.59915
307.64777
306.78364
305.99462
305.27102
304.60504
303.99025
303.42132
302.89373
302.40364
301.94775
301.5232
301.12748
300.75838
300.41397
300.0925
299.79243
299.51236
299.25106
299.00739
298.78034
298.56897
298.37246
298.19004
298.02101
297.86475
297.72067
297.58826
297.46703
297.35655
297.25642
328.34961
323.60196
320.25421
317.67602
315.58434
313.82862
312.31946
310.99946
309.82959
308.78212
307.83658
306.97748
306.19275
305.47282
304.80993
304.19775
303.63097
303.10515
302.61647
302.16169
301.73796
301.34281
300.97408
300.62983
300.30836
300.00813
299.72779
299.46609
299.22193
298.9943
298.78228
298.58506
298.40187
298.23202
298.0749
297.92993
297.7966
297.67442
297.56296
297.46183
328.38535
323.67365
320.35113
317.79221
315.71595
313.97296
312.47448
311.16357
310.0015
308.96072
308.02096
307.16683
306.38637
305.67009
305.01032
304.40076
303.83618
303.31217
302.82496
302.37133
301.94849
301.55399
301.18569
300.84167
300.52027
300.21997
299.93941
299.67739
299.4328
299.20465
298.99204
298.79415
298.61024
298.43962
298.28169
298.13586
298.00163
297.87853
297.76612
297.66401
328.4202
323.74354
320.44563
317.9055
315.8443
314.11374
312.62573
311.32373
310.1693
309.13511
308.20105
307.35184
306.57562
305.86299
305.20633
304.59942
304.03706
303.5149
303.02921
302.57679
302.1549
301.76111
301.39329
301.04959
300.72831
300.42799
300.14729
299.885
299.64004
299.41143
299.19828
298.99978
298.81519
298.64385
298.48514
298.33849
298.2034
298.0794
297.96607
297.86299
328.45419
323.8117
320.53779
318.01601
315.96952
314.25112
312.77334
311.48007
310.33315
309.30545
308.377
307.53265
306.76064
306.05164
305.3981
304.79384
304.23374
303.71346
303.22932
302.77817
302.35727
301.96424
301.59698
301.25363
300.93256
300.63228
300.35148
300.08898
299.84371
299.61469
299.40105
299.20198
299.01677
298.84474
298.68528
298.53785
298.40193
298.27706
298.16282
298.05881
328.48735
323.87821
320.62773
318.12385
316.09173
314.38521
312.91745
311.63274
310.49318
309.47186
308.54895
307.70941
306.94157
306.23617
305.58574
304.98416
304.42632
303.90795
303.4254
302.97556
302.5557
302.16348
301.79682
301.45389
301.13306
300.83288
300.55205
300.28939
300.04385
299.81447
299.60039
299.4008
299.215
299.04232
298.88216
298.73397
298.59725
298.47154
298.35641
298.25147
328.51972
323.94313
320.71551
318.22912
316.21105
314.51614
313.0582
311.78187
310.64954
309.63449
308.71703
307.88224
307.11853
306.41672
305.76939
305.17047
304.61492
304.09848
303.61755
303.16905
302.75028
302.35891
301.9929
301.65043
301.3299
301.02987
300.74904
300.48628
300.24052
300.01083
299.79634
299.59628
299.40992
299.23663
299.07579
298.92688
298.78939
298.66285
298.54686
298.44103
328.55133
324.00652
320.80122
318.33191
316.32757
314.64403
313.19568
311.92757
310.80235
309.79346
308.88138
308.05127
307.29165
306.59339
305.94915
305.3529
304.79964
304.28515
303.80587
303.35873
302.94108
302.55061
302.18529
301.84333
301.52313
301.22329
300.94253
300.6797
300.43377
300.20381
299.98896
299.78845
299.60158
299.42771
299.26623
299.11662
298.97838
298.85105
298.73422
298.6275
328.5822
324.06842
320.88493
318.43232
316.44139
314.76898
313.33003
312.06998
310.95172
309.9489
309.0421
308.21662
307.46104
306.76631
306.12514
305.53155
304.98058
304.46805
303.99044
303.54469
303.12819
302.73865
302.37406
302.03264
301.71283
301.41322
301.13256
300.86971
300.62365
300.39345
300.17828
299.97737
299.79002
299.61559
299.45351
299.30323
299.16426
299.03616
298.9185
298.81091
328.61237
324.1289
320.96672
318.53043
316.55262
314.89108
313.46134
312.20919
311.09777
310.1009
309.19931
308.37839
307.6268
306.93557
306.29745
305.70652
305.15784
304.64729
304.17135
303.72702
303.3117
302.92311
302.55928
302.21845
301.89906
301.59972
301.31919
301.05635
300.8102
300.5798
300.36434
300.16306
299.97526
299.80032
299.63765
299.48673
299.34706
299.21821
299.09975
298.99131
328.64184
324.18801
321.04666
318.62631
316.66133
315.01044
313.58972
312.34531
311.2406
310.24959
309.35312
308.53669
307.78905
307.10128
306.46619
305.8779
305.33151
304.82294
304.34869
303.9058
303.49167
303.10407
302.74103
302.40081
302.08187
301.78284
301.50248
301.23969
300.99348
300.76292
300.5472
300.34558
300.15736
299.98193
299.81871
299.66717
299.52682
299.39724
299.27799
299.16872
328.67066
324.24578
321.12479
318.72004
316.76762
315.12715
313.71526
312.47844
311.38031
310.39505
309.50362
308.69163
307.94789
307.26354
306.63146
306.04579
305.50169
304.99509
304.52255
304.0811
303.66819
303.2816
302.91937
302.57979
302.26133
301.96264
301.68249
301.41978
301.17353
300.94284
300.7269
300.52497
300.33636
300.16047
299.99671
299.84457
299.70358
299.57328
299.45327
299.34318
328.69883
324.30227
321.20118
318.81169
316.87155
315.24128
313.83804
312.60867
311.51701
310.53739
309.65093
308.8433
308.1034
307.42244
306.79333
306.21027
305.66845
305.16384
304.693
304.25301
303.84133
303.45576
303.09437
302.75546
302.43751
302.13918
301.85926
301.59666
301.35041
301.11962
300.90349
300.70127
300.5123
300.33596
300.1717
300.01899
299.87736
299.74637
299.62561
299.51472
328.72639
324.35751
321.2759
318.90132
316.9732
315.35293
313.95817
312.73608
311.65076
310.6767
309.79512
308.99179
308.25569
307.57808
306.95192
306.37144
305.83189
305.32925
304.86012
304.42159
304.01116
303.62663
303.2661
302.92788
302.61046
302.31252
302.03285
301.77039
301.52417
301.2933
301.077
300.87452
300.68521
300.50846
300.34371
300.19045
300.04821
299.91654
299.79505
299.68338
328.75334
324.41154
321.34898
318.98901
317.07265
315.46216
314.0757
312.86077
311.78168
310.81307
309.93628
309.13719
308.40483
307.73053
307.10728
306.52938
305.99208
305.49141
305.02398
304.58693
304.17775
303.79428
303.43462
303.0971
302.78024
302.4827
302.20332
301.94102
301.69485
301.46393
301.24748
301.04477
300.85515
300.678
300.51279
300.359
300.21616
300.08384
299.96164
299.84919
328.77972
324.46441
321.42048
319.0748
317.16996
315.56904
314.19073
312.98281
311.90983
310.94657
310.07451
309.27958
308.55091
307.87987
307.25952
306.68416
306.1491
305.65038
305.18467
304.74909
304.34117
303.95877
303.59999
303.2632
302.9469
302.6498
302.37072
302.10861
301.86251
301.63156
301.41498
301.21206
301.02214
300.84463
300.67897
300.52467
300.38125
300.24829
300.12539
300.01218
328.80553
324.51614
321.49045
319.15876
317.26519
315.67366
314.30331
313.10228
312.03529
311.0773
310.20987
309.41905
308.69402
308.0262
307.40869
306.83586
306.30302
305.80626
305.34224
304.90813
304.50148
304.12015
303.76228
303.42622
303.11051
302.81386
302.5351
302.27319
302.02718
301.79623
301.57955
301.37643
301.18624
301.00837
300.84229
300.68749
300.54352
300.40993
300.28635
300.17241
328.83079
324.56677
321.55893
319.24093
317.35841
315.77607
314.41354
313.21925
312.15814
311.20531
310.34245
309.55567
308.83422
308.16958
307.55489
306.98456
306.45392
305.95909
305.49677
305.06414
304.65875
304.2785
303.92154
303.58623
303.27112
302.97493
302.69651
302.43482
302.18893
301.95799
301.74122
301.53793
301.34748
301.16929
301.0028
300.84752
300.703
300.56881
300.44456
300.32989
328.85551
324.61633
321.62597
319.32137
317.44966
315.87633
314.52146
313.33378
312.27844
311.33069
310.47231
309.68951
308.97159
308.31008
307.69818
307.13032
306.60186
306.10896
305.64832
305.21716
304.81304
304.43388
304.07783
303.74328
303.42879
303.13308
302.85501
302.59356
302.34779
302.11687
301.90004
301.6966
301.50592
301.3274
301.16052
301.00479
300.85974
300.72496
300.60006
300.48468
328.87973
324.66485
321.6916
319.40013
317.53901
315.9745
314.62714
313.44595
312.39628
311.45351
310.59954
309.82064
309.1062
308.44779
307.83863
307.27321
306.74692
306.25592
305.79697
305.36726
304.96442
304.58634
304.23121
303.89743
303.58356
303.28834
303.01064
302.74944
302.50382
302.27294
302.05606
301.85248
301.66157
301.48276
301.31551
301.15933
301.01377
300.87841
300.75287
300.63679
328.90343
324.71237
321.75586
319.47725
317.62651
316.07064
314.73064
313.55582
312.5117
311.57383
310.72418
309.94914
309.23811
308.58275
307.97631
307.4133
306.88915
306.40005
305.94276
305.51451
305.11293
304.73594
304.38174
304.04873
303.73549
303.44077
303.16345
302.90251
302.65705
302.42624
302.20932
302.00562
301.8145
301.6354
301.46779
301.31118
301.16513
301.02921
300.90305
300.78628
328.92665
324.7589
321.8188
319.55278
317.71221
316.16481
314.83203
313.66344
312.62478
311.69171
310.84632
310.07506
309.3674
308.71505
308.11129
307.55066
307.02862
306.5414
306.08576
305.65896
305.25864
304.88274
304.52947
304.19723
303.88463
303.59042
303.31349
303.05283
302.80754
302.5768
302.35986
302.15605
301.96474
301.78537
301.61742
301.46039
301.31386
301.17739
301.05062
300.93318
328.9494
324.80447
321.88044
319.62676
317.79614
316.25705
314.93134
313.76888
312.73557
311.80722
310.96601
310.19847
309.49413
308.84473
308.24361
307.68534
307.1654
306.68003
306.22603
305.80067
305.40161
305.02679
304.67445
304.34299
304.03104
303.73734
303.46081
303.20044
302.95533
302.72467
302.50772
302.30382
302.11233
301.93271
301.76442
301.607
301.45999
301.32299
301.19562
301.07752
328.97167
324.84911
321.94083
319.69923
317.87837
316.34742
315.02865
313.87218
312.84413
311.92041
311.08332
310.31943
309.61835
308.97187
308.37335
307.8174
307.29953
306.816
306.36362
305.9397
305.54188
305.16815
304.81673
304.48606
304.17475
303.88158
303.60545
303.34538
303.10046
302.8699
302.65295
302.44896
302.25731
302.07745
301.90884
301.75103
301.60356
301.46604
301.33809
301.21934
328.9935
324.89284
321.99998
319.77023
317.95893
316.43596
315.12399
313.97341
312.95052
312.03135
311.19829
310.43799
309.74013
309.09652
308.50057
307.94691
307.43108
306.94936
306.4986
306.07609
305.67952
305.30687
304.95637
304.62648
304.31583
304.02319
303.74747
303.4877
303.24298
303.01252
302.79559
302.59153
302.39973
302.21963
302.05072
301.89253
301.74462
301.60659
301.47806
301.35869
329.01489
324.93569
322.05794
319.83979
318.03787
316.52271
315.21741
314.07262
313.05478
312.14008
311.31098
310.55422
309.85952
309.21873
308.62531
308.07391
307.5601
307.08018
306.63101
306.20991
305.81457
305.44299
305.09342
304.76431
304.45431
304.1622
303.8869
303.62744
303.38293
303.15259
302.93568
302.73156
302.53961
302.35929
302.19009
302.03154
301.8832
301.74467
301.61558
301.49558
329.03584
324.97768
322.11474
319.90796
318.11522
316.60773
315.30897
314.16984
313.15697
312.24665
311.42145
310.66817
309.97657
309.33856
308.74764
308.19847
307.68665
307.20851
306.76091
306.3412
305.94709
305.57657
305.22792
304.8996
304.59025
304.29868
304.0238
303.76465
303.52036
303.29014
303.07327
302.86909
302.67701
302.49648
302.327
302.16809
302.01933
301.88032
301.75068
301.63007
329.05638
325.01882
322.17039
319.97476
318.19103
316.69106
315.39871
314.26514
313.25714
312.35113
311.52975
310.77989
310.09134
309.45607
308.8676
308.32062
307.81078
307.33439
306.88835
306.47002
306.07712
305.70766
305.35992
305.03238
304.72369
304.43265
304.1582
303.89938
303.65531
303.42521
303.20838
303.00416
302.81196
302.63123
302.46147
302.30222
302.15305
302.01357
301.88339
301.76219
329.0765
325.05915
322.22494
320.04023
318.26533
316.77272
315.48667
314.35855
313.35533
312.45355
311.63593
310.88942
310.20388
309.5713
308.98525
308.44044
307.93253
307.45787
307.01338
306.59641
306.20471
305.83631
305.48948
305.16271
304.85468
304.56418
304.29015
304.03165
303.78781
303.55785
303.34107
303.13681
302.9445
302.76358
302.59356
302.43398
302.28441
302.14446
302.01376
301.89197
329.09623
325.09867
322.2784
320.1044
318.33815
316.85277
315.57289
314.45012
313.4516
312.55396
311.74004
310.99682
310.31424
309.68431
309.10063
308.55796
308.05196
307.57901
307.13604
306.72043
306.32992
305.96255