/*--------------------------------*- C++ -*----------------------------------*\
| =========                 |                                                 |
| \\      /  F ield         | OpenFOAM: The Open Source CFD Toolbox           |
|  \\    /   O peration     | Version:  2506                                  |
|   \\  /    A nd           | Website:  www.openfoam.com                      |
|    \\/     M anipulation  |                                                 |
\*---------------------------------------------------------------------------*/
FoamFile
{
    version     2.0;
    format      ascii;
    arch        "LSB;label=32;scalar=64";
    class       volScalarField;
    location    "8000/rock";
    object      T;
}
// * * * * * * * * * * * * * * * * * * * * * * * * * * * * * * * * * * * * * //

dimensions      [0 0 0 1 0 0 0];

internalField   nonuniform List<scalar> 
16000
(
317.72115
306.92701
301.08846
297.44838
294.97414
293.19199
291.8536
290.81614
289.99167
289.32312
288.7719
288.31102
287.92104
287.58767
287.30013
287.05019
286.83144
286.63883
286.46833
286.3167
286.18127
286.05988
285.95071
285.85226
285.76324
285.68258
285.60936
285.54279
285.48217
285.42691
285.37648
285.3304
285.28825
285.24962
285.21413
285.1814
285.15101
285.12246
285.0951
285.06783
320.40196
309.64472
303.41071
299.40774
296.64638
294.64048
293.1259
291.94752
291.00855
290.24563
289.61563
289.08822
288.64152
288.25933
287.92946
287.64257
287.39135
287.17006
286.97411
286.79978
286.64404
286.50441
286.37881
286.26552
286.16307
286.07023
285.98594
285.90929
285.8395
285.77587
285.7178
285.66475
285.61622
285.57176
285.53094
285.49331
285.45843
285.42577
285.39466
285.36422
321.9327
311.64469
305.32463
301.12271
298.16294
295.98435
294.32479
293.02555
291.98554
291.13759
290.43548
289.84643
289.34665
288.91844
288.5484
288.22624
287.9439
287.69502
287.47449
287.27818
287.10273
286.94535
286.80374
286.67596
286.56038
286.45562
286.36048
286.27396
286.19516
286.12332
286.05775
285.99786
285.94308
285.89292
285.84689
285.80453
285.76535
285.72882
285.69435
285.66125
322.91226
313.14721
306.89725
302.61128
299.52646
297.22158
295.44706
294.04699
292.91972
291.99647
291.2293
290.58384
290.03491
289.56369
289.15583
288.80026
288.48828
288.21298
287.96884
287.75136
287.55685
287.38228
287.22512
287.08325
286.95487
286.83847
286.73274
286.63655
286.54894
286.46906
286.39615
286.32955
286.26867
286.21294
286.16185
286.11491
286.07162
286.03147
285.99391
285.95841
323.59956
314.31019
308.19845
303.90138
300.7471
298.35497
296.49253
295.01054
293.80943
292.82061
291.99553
291.29903
290.70506
290.19399
289.7508
289.36378
289.02373
288.72331
288.4566
288.2188
288.00596
287.81479
287.64259
287.48705
287.34624
287.21851
287.10246
286.99685
286.90064
286.8129
286.73282
286.65968
286.59283
286.53168
286.47569
286.42433
286.37709
286.3335
286.29306
286.25533
324.11616
315.23792
309.28776
305.0228
301.83874
299.39051
297.46337
295.91653
294.65415
293.60911
292.73319
291.99101
291.35614
290.80848
290.33251
289.91609
289.54963
289.22543
288.93726
288.68006
288.44963
288.24252
288.05581
287.88706
287.73421
287.5955
287.46941
287.35464
287.25005
287.15465
287.06759
286.98807
286.91542
286.849
286.78824
286.73261
286.6816
286.63473
286.59156
286.5517
324.52434
315.99831
310.21199
306.00308
302.81643
300.33598
298.36334
296.76652
295.45431
294.3618
293.44178
292.65917
291.98751
291.4065
290.90034
290.45662
290.06544
289.71885
289.41037
289.13472
288.88751
288.66511
288.46447
288.283
288.11853
287.96919
287.83338
287.70971
287.59698
287.49415
287.40028
287.31456
287.23627
287.16473
287.09936
287.03961
286.98496
286.93495
286.88917
286.84726
324.85879
316.63614
311.00676
306.86599
303.69471
301.19984
299.19713
297.56299
296.21105
295.07907
294.12126
293.30323
292.59877
291.9876
291.45384
290.98491
290.57073
290.20316
289.87555
289.58243
289.31926
289.08228
288.86829
288.67461
288.49895
288.33936
288.19415
288.06187
287.94126
287.83121
287.73074
287.639
287.55523
287.47874
287.4089
287.34516
287.28701
287.23398
287.18569
287.14178
325.14037
317.18162
311.69884
307.63128
304.48686
301.99053
299.9699
298.30897
296.92605
295.76177
294.77198
293.92322
293.18976
292.55152
291.99268
291.50062
291.06516
290.67803
290.33247
290.02287
289.7446
289.49374
289.26701
289.06164
288.87525
288.70579
288.55153
288.41094
288.2827
288.16566
288.05881
287.96124
287.87216
287.79086
287.7167
287.64911
287.58757
287.53164
287.48091
287.43506
325.38244
317.65571
312.30841
308.31508
305.20457
302.71603
300.68688
299.00776
297.60135
296.41108
295.39456
294.51941
293.76052
293.09817
292.5167
292.00352
291.54846
291.14319
290.78087
290.4558
290.16326
289.89926
289.66042
289.44389
289.24722
289.06831
288.90534
288.75674
288.62115
288.49736
288.38433
288.28112
288.1869
288.10095
288.02261
287.9513
287.8865
287.82774
287.77465
287.7269
325.59402
318.07335
312.8508
308.93047
305.8579
303.38363
301.35315
299.6628
298.23919
297.02841
295.98985
295.09227
294.31129
293.62761
293.02583
292.4935
292.02048
291.59846
291.22054
290.88101
290.57506
290.29864
290.04832
289.82117
289.61469
289.42673
289.25541
289.09912
288.95645
288.82616
288.70716
288.5985
288.49932
288.40888
288.3265
288.25159
288.18362
288.12214
288.06675
288.01713
325.78143
318.44546
313.3378
309.48801
306.45544
303.99988
301.9735
300.27747
298.8419
297.61535
296.55889
295.64245
294.84241
294.14001
293.52012
292.97051
292.48112
292.0437
291.65135
291.29833
290.97982
290.69171
290.43053
290.19331
289.9775
289.78089
289.60159
289.43792
289.28845
289.1519
289.02716
288.91325
288.80929
288.71451
288.62822
288.54983
288.47881
288.41468
288.35705
288.3056
325.9493
318.78025
313.77856
309.99628
307.00447
304.57058
302.55233
300.85502
299.41182
298.17352
297.10278
296.17068
295.35438
294.63565
293.99973
293.4346
292.93037
292.47884
292.07318
291.70765
291.3774
291.07832
290.80691
290.56017
290.3355
290.13067
289.94374
289.77301
289.61702
289.47447
289.34421
289.22524
289.11666
289.0177
288.92765
288.8459
288.7719
288.70521
288.6454
288.59215
326.10108
319.08397
314.1803
310.46228
307.51113
305.10079
303.09364
301.39852
299.95124
298.70459
297.62273
296.6778
295.84776
295.11489
294.46486
293.88588
293.36825
292.90388
292.48599
292.10887
291.76771
291.45837
291.17735
290.92162
290.68856
290.47592
290.28173
290.10427
289.94205
289.79374
289.65818
289.53434
289.42133
289.31833
289.22464
289.13965
289.06279
288.99359
288.93166
288.87665
326.23944
319.36151
314.54877
310.89176
307.98064
305.59494
303.60105
301.91081
300.46234
299.21022
298.11995
297.1647
296.32316
295.57818
294.9158
294.32454
293.79487
293.31883
292.88975
292.50197
292.15067
291.83178
291.54175
291.27756
291.03658
290.81654
290.61545
290.43158
290.26341
290.10959
289.96895
289.84045
289.72317
289.61629
289.5191
289.43096
289.35133
289.27971
289.2157
289.15896
326.36643
319.61672
314.88862
311.28943
308.41739
306.0569
304.07779
302.3945
300.94719
299.692
298.59566
297.63228
296.78125
296.02598
295.35288
294.75078
294.21035
293.72378
293.2845
292.88691
292.52627
292.19847
291.90003
291.62791
291.37947
291.15244
290.94481
290.75485
290.581
290.42192
290.27643
290.14345
290.02207
289.91147
289.8109
289.71974
289.63741
289.56345
289.49741
289.43896
326.48371
319.8527
315.20362
311.65926
308.82513
306.49002
304.52674
302.85199
301.40772
300.15147
299.05106
298.08145
297.22273
296.4588
295.77648
295.16487
294.61487
294.11883
293.67029
293.26374
292.89447
292.55843
292.25215
291.97261
291.71716
291.48354
291.26973
291.07397
290.89474
290.73065
290.58051
290.44326
290.31795
290.20376
290.09994
290.00586
289.92093
289.84468
289.77668
289.71655
326.5926
320.07199
315.49692
312.00453
309.20708
306.89722
304.95044
303.28546
301.84574
300.59007
299.48729
298.51312
297.64829
296.87718
296.18698
295.56709
295.00863
294.50412
294.04721
293.63248
293.25529
292.91164
292.59808
292.31161
292.04959
291.80977
291.59012
291.38889
291.20453
291.03568
290.88111
290.73977
290.6107
290.49307
290.38613
290.28922
290.20179
290.12332
290.05339
289.99162
326.69419
320.27665
315.77108
312.32804
309.56595
307.28104
305.35119
303.69685
302.26289
301.00919
299.90547
298.92819
298.05863
297.28165
296.58481
295.95777
295.39187
294.87981
294.41536
293.9932
293.60877
293.25811
292.93781
292.64488
292.37673
292.13108
291.90593
291.69953
291.51032
291.33693
291.17816
291.03291
290.90024
290.77931
290.66937
290.56975
290.47988
290.39927
290.32745
290.26408
326.78936
320.46842
316.0283
312.63214
309.90412
307.64373
305.731
304.08796
302.6607
301.41009
300.30666
299.3275
298.45445
297.67278
296.97038
296.33721
295.76483
295.24608
294.77488
294.346
293.95496
293.59786
293.27133
292.97241
292.69853
292.44743
292.21711
292.00583
291.81204
291.63436
291.47157
291.3226
291.1865
291.06241
290.94958
290.84735
290.75513
290.67243
290.59879
290.53383
326.87885
320.64872
316.2704
312.91885
310.22362
307.98723
306.09167
304.46038
303.04057
301.79397
300.69185
299.71189
298.83642
298.05109
297.34414
296.70578
296.12777
295.60313
295.1259
294.69097
294.29393
293.93093
293.59866
293.2942
293.01499
292.75879
292.52363
292.30776
292.10963
291.92788
291.76129
291.60878
291.46939
291.34228
291.22668
291.12194
291.02746
290.94273
290.8673
290.80079
326.96328
320.81879
316.49896
313.1899
310.52623
308.31326
306.43479
304.81556
303.40376
302.16194
301.06198
300.08215
299.20518
298.41713
297.70652
297.06381
296.48096
295.95117
295.4686
295.02824
294.62575
294.25738
293.91984
293.61025
293.3261
293.06515
292.82545
292.60527
292.40306
292.21746
292.04726
291.89139
291.74887
291.61887
291.50062
291.39345
291.29679
291.21009
291.13293
291.0649
327.04317
320.97966
316.71531
313.44679
310.81348
308.62332
306.76179
305.15481
303.75145
302.51501
301.41795
300.43902
299.56137
298.77141
298.05793
297.41164
296.82469
296.29042
295.80313
295.35792
294.95053
294.57727
294.23491
293.9206
293.63186
293.3665
293.12256
292.89833
292.69228
292.50306
292.32944
292.17037
292.02487
291.89211
291.77132
291.66183
291.56305
291.47446
291.39559
291.32607
327.11897
321.13222
316.92061
313.69081
311.08672
308.91876
307.07394
305.47929
304.08471
302.85412
301.76056
300.78321
299.9056
299.11444
298.39881
297.74962
297.15922
296.6211
296.12968
295.68016
295.26837
294.89068
294.54391
294.22527
293.9323
293.66284
293.41495
293.18693
292.97728
292.78463
292.60779
292.44568
292.29735
292.16195
292.03873
291.92701
291.82619
291.73575
291.65524
291.58425
327.19105
321.27723
317.11586
313.9231
311.34715
309.20075
307.37239
305.79008
304.40449
303.18016
302.09059
301.11538
300.23842
299.44671
298.72956
298.0781
297.48485
296.94344
296.44843
295.99511
295.57938
295.19769
294.84692
294.52431
294.22744
293.95418
293.70261
293.47106
293.25802
293.06215
292.88226
292.71728
292.56626
292.42835
292.3028
292.18893
292.08615
291.99393
291.91182
291.83939
327.25975
321.41537
317.30193
314.14465
311.59581
309.47036
307.65814
306.08813
304.71169
303.49391
302.40875
301.43618
300.5604
299.76868
299.05058
298.39741
297.80185
297.25768
296.75957
296.30291
295.88368
295.4984
295.14399
294.81776
294.51731
294.24054
293.98556
293.75071
293.5345
293.33561
293.15284
292.98515
292.83157
292.69127
292.56349
292.44757
292.34289
292.24895
292.16526
292.09144
327.32533
321.54722
317.47959
314.35634
311.83363
309.72851
307.93212
306.37432
305.00713
303.79613
302.71571
301.74618
300.87204
300.08081
299.36225
298.70787
298.11049
297.56404
297.06329
296.60371
296.18139
295.7929
295.43521
295.10568
294.80195
294.52194
294.2638
294.02589
293.80672
293.60499
293.41951
293.24924
293.09324
292.95067
292.82076
292.70286
292.59637
292.50075
292.41554
292.34034
327.38806
321.67328
317.6495
314.55893
312.06143
309.97605
308.19516
306.64944
305.29153
304.08749
303.01208
302.04594
301.17384
300.38352
299.66495
299.0098
298.41105
297.86275
297.35977
296.89768
296.47265
296.08129
295.72065
295.38813
295.0814
294.79842
294.53736
294.29659
294.07466
293.87027
293.68225
293.50956
293.35126
293.20652
293.07459
292.95479
292.84654
292.74931
292.66262
292.58606
327.44815
321.794
317.81228
314.75312
312.27994
310.21372
308.44799
306.91421
305.56558
304.36862
303.29844
302.33598
301.46625
300.67721
299.95903
299.30351
298.7038
298.15403
297.64921
297.18498
296.75757
296.36368
296.00041
295.66518
295.35572
295.07001
294.80626
294.56285
294.33835
294.13147
293.94105
293.76607
293.6056
293.4588
293.32493
293.20333
293.09339
292.99459
292.90646
292.82858
327.5058
321.90979
317.96845
314.93951
312.48984
310.44221
308.69129
307.16927
305.82991
304.64011
303.57533
302.61678
301.74971
300.96228
300.24482
299.5893
298.98898
298.43811
297.93179
297.46575
297.0363
296.64019
296.27456
295.93689
295.62496
295.33676
295.07052
294.82467
294.59778
294.38857
294.19592
294.01878
293.85625
293.7075
293.57178
293.44844
293.33687
293.23656
293.14702
293.06785
327.56117
322.021
318.11847
315.11866
312.6917
310.66213
308.92567
307.41523
306.08506
304.90248
303.84324
302.8888
302.02464
301.2391
300.52267
299.86746
299.26684
298.7152
298.2077
297.74017
297.30897
296.91091
296.5432
296.20336
295.88918
295.59871
295.3302
295.08208
294.85297
294.6416
294.44684
294.26768
294.1032
293.95259
293.81512
293.69011
293.57698
293.4752
293.3843
293.30387
327.61443
322.12794
318.26278
315.29106
312.88606
310.87403
309.15168
307.65262
306.33158
305.15623
304.10262
303.15246
302.29141
301.508
300.79286
300.13825
299.53764
298.98551
298.47713
298.00838
297.5757
297.17597
296.80643
296.46464
296.14844
295.8559
295.58531
295.33512
295.10395
294.89056
294.69383
294.51276
294.34645
294.19408
294.05493
293.92833
293.81369
293.7105
293.61827
293.5366
327.66571
322.23091
318.40175
315.45714
313.0734
311.0784
309.36984
307.88195
306.56994
305.40181
304.35391
303.40815
302.55039
301.76932
301.05572
300.40194
299.8016
299.24925
298.74024
298.27054
297.83664
297.43548
297.06433
296.72082
296.40281
296.1084
295.83591
295.5838
295.35073
295.13546
294.9369
294.75404
294.58599
294.43196
294.29121
294.16308
294.047
293.94244
293.84892
293.76603
327.71515
322.33016
318.53572
315.6173
313.25416
311.27571
309.58059
308.10367
306.80058
305.63966
304.5975
303.65624
302.80192
302.02337
301.3115
300.65879
300.05895
299.50662
298.99722
298.5268
298.09192
297.68954
297.31701
296.97198
296.65235
296.35626
296.08203
295.82818
295.59335
295.37634
295.17605
294.99152
294.82184
294.66622
294.52395
294.39437
294.2769
294.17101
294.07623
293.99216
327.76285
322.42592
318.66501
315.77192
313.42873
311.46636
309.78436
308.3182
307.02391
305.87015
304.83377
303.89709
303.04632
302.27044
301.56049
300.90904
300.3099
299.7578
299.24824
298.77732
298.34166
297.93828
297.56457
297.21821
296.89714
296.59953
296.32374
296.06828
295.83183
295.61321
295.41132
295.22521
295.05399
294.89688
294.75316
294.62218
294.50337
294.3962
294.30021
294.21497
327.80892
322.5184
318.7899
315.92132
313.59747
311.65074
309.98155
308.52592
307.2403
306.09366
305.06305
304.13101
303.2839
302.51082
301.80293
301.15292
300.55466
300.00299
299.49346
299.02224
298.58599
298.1818
297.80709
297.45958
297.13725
296.83829
296.56107
296.30415
296.06622
295.84609
295.64272
295.45513
295.28247
295.12394
294.97884
294.84653
294.72643
294.61803
294.52084
294.43446
327.85345
322.60779
318.91064
316.06579
313.76071
311.82919
310.17248
308.72718
307.45011
306.31051
305.28568
304.35832
303.51493
302.74476
302.03907
301.39064
300.79344
300.24237
299.73304
299.26169
298.82504
298.42022
298.04468
297.69619
297.37275
297.07258
296.79408
296.53583
296.29653
296.07503
295.87027
295.6813
295.50727
295.34741
295.201
295.06741
294.94608
294.83647
294.73814
294.65064
327.89654
322.69428
319.02746
316.20561
313.91875
312.00202
310.35751
308.92232
307.65365
306.52103
305.50194
304.57928
303.73969
302.97252
302.26914
301.62242
301.02642
300.4761
299.96714
299.49583
299.05894
298.65364
298.27743
297.92811
297.60371
297.30247
297.02283
296.76337
296.52283
296.30005
296.094
295.90374
295.72843
295.5673
295.41964
295.28484
295.16232
295.05155
294.95209
294.86351
327.93825
322.77801
319.14059
316.34104
314.07186
312.16954
310.53692
309.11163
307.85123
306.72549
305.71213
304.79418
303.95842
303.19432
302.49335
301.84847
301.25379
300.70436
300.19591
299.72479
299.28781
298.88218
298.50544
298.15543
297.8302
297.52803
297.24736
296.98682
296.74513
296.52118
296.31394
296.12248
295.94597
295.78363
295.63479
295.49882
295.37515
295.26328
295.16272
295.07307
327.97867
322.85914
319.25021
316.47229
314.22031
312.332
310.71099
309.29539
308.04311
306.92418
305.9165
305.00326
304.17136
303.4104
302.71192
302.06896
301.47573
300.9273
300.4195
299.9487
299.51176
299.10594
298.72881
298.37824
298.05231
297.74932
297.46775
297.20622
296.9635
296.73847
296.53012
296.33754
296.15989
295.99643
295.84646
295.70938
295.58461
295.47165
295.37003
295.27934
328.01786
322.9378
319.3565
316.59959
314.36432
312.48966
310.87997
309.47386
308.22956
307.11734
306.11529
305.20675
304.37874
303.62096
302.92504
302.2841
301.6924
301.14509
300.63804
300.16768
299.73091
299.32502
298.94762
298.59661
298.2701
297.96641
297.68404
297.42163
297.17797
296.95195
296.74258
296.54895
296.37024
296.20571
296.05467
295.91652
295.79069
295.67668
295.57403
295.48232
328.05588
323.01412
319.45963
316.72313
314.5041
312.64274
311.04411
309.64729
308.41082
307.30522
306.30874
305.40487
304.58077
303.8262
303.13289
302.49404
301.90396
301.35787
300.85168
300.38187
299.94538
299.53953
299.16198
298.81063
298.48364
298.17936
297.89629
297.6331
297.38859
297.16166
296.95135
296.75674
296.57704
296.41149
296.25944
296.12027
295.99343
295.8784
295.77475
295.68204
328.09279
323.0882
319.55976
316.84309
314.63986
312.79145
311.20362
309.81589
308.5871
307.48802
306.49706
305.59785
304.77764
304.02631
303.33566
302.69895
302.11058
301.56579
301.06055
300.59138
300.15527
299.74957
299.37196
299.02039
298.69302
298.38824
298.10456
297.84068
297.5954
297.36765
297.15646
296.96095
296.78031
296.61381
296.46079
296.32065
296.19282
296.07682
295.97219
295.8785
328.12864
323.16015
319.65702
316.95962
314.77179
312.936
311.35871
309.97987
308.75863
307.66596
306.68045
305.78585
304.96954
304.22147
303.53351
302.89901
302.31239
301.76898
301.26477
300.79634
300.36069
299.95523
299.57766
299.22596
298.89831
298.59311
298.30891
298.04442
297.79845
297.56995
297.35796
297.16161
296.98009
296.81269
296.65876
296.51768
296.38891
296.27196
296.16637
296.07173
328.16347
323.23007
319.75155
317.0729
314.90004
313.07656
311.50957
310.13942
308.92558
307.83922
306.8591
305.96909
305.15665
304.41184
303.72661
303.09435
302.50954
301.96757
301.46447
300.99685
300.56176
300.15662
299.77918
299.42742
299.09958
298.79405
298.50941
298.24438
297.9978
297.76862
297.55589
297.35875
297.17642
297.00817
296.85336
296.71139
296.58172
296.46385
296.35733
296.26175
328.19735
323.29806
319.84346
317.18306
315.02479
313.21331
311.65636
310.29473
309.08815
308.008
307.03319
306.14771
305.33914
304.5976
303.91511
303.28512
302.70218
302.1617
301.65977
301.19302
300.75856
300.35382
299.97658
299.62486
299.29689
298.99111
298.70611
298.44061
298.19349
297.96369
297.75029
297.55242
297.36932
297.20027
297.04462
296.9018
296.77126
296.6525
296.54508
296.44859
328.2303
323.36419
319.93286
317.29023
315.14617
313.3464
311.79927
310.44597
309.24651
308.17246
307.20288
306.3219
305.51716
304.77888
304.09914
303.47146
302.89042
302.35148
301.85077
301.38498
300.9512
300.54694
300.16997
299.81835
299.49033
299.18437
298.89907
298.63318
298.38557
298.15521
297.94119
297.74265
297.55883
297.38902
297.23259
297.08895
296.95756
296.83795
296.72965
296.63227
328.26236
323.42854
320.01987
317.39454
315.26433
313.47598
311.93844
310.5933
309.40081
308.33276
307.36834
306.4918
305.69087
304.95584
304.27886
303.6535
303.07439
302.53704
302.03761
301.5728
301.13978
300.73605
300.35942
300.00796
299.67996
299.37388
299.08835
298.82212
298.57409
298.34323
298.12864
297.92948
297.74499
297.57446
297.41728
297.27286
297.14067
297.02022
296.91107
296.81281
328.29358
323.49119
320.10458
317.4961
315.3794
313.60219
312.07403
310.73685
309.55121
308.48905
307.52972
306.65756
305.86041
305.12862
304.4544
303.83137
303.25422
302.71848
302.22037
301.75661
301.32439
300.92124
300.54501
300.19378
299.86586
299.55972
299.27401
299.0075
298.7591
298.5278
298.31269
298.11295
297.92783
297.75664
297.59874
297.45357
297.3206
297.19934
297.08936
296.99024
328.32398
323.5522
320.18709
317.59503
315.4915
313.72516
312.20615
310.87678
309.69784
308.64147
307.68715
306.81932
306.02591
305.29733
304.62587
304.00518
303.43001
302.89592
302.39916
301.93649
301.50512
301.10261
300.72683
300.37588
300.04808
299.74194
299.45611
299.18938
298.94066
298.70896
298.49338
298.29311
298.1074
297.93557
297.777
297.63111
297.49739
297.37535
297.26455
297.16459
328.3536
323.61163
320.26747
317.69142
315.60073
313.84501
312.33495
311.01322
309.84085
308.79016
307.84077
306.97721
306.1875
305.46212
304.79341
304.17507
303.60188
303.06947
302.57408
302.11254
301.68206
301.28023
300.90495
300.55433
300.22671
299.92061
299.63471
299.3678
299.11881
298.88676
298.67076
298.46999
298.28373
298.1113
297.95208
297.80551
297.67106
297.54827
297.43668
297.3359
328.38247
323.66956
320.3458
317.78536
315.70721
313.96186
312.46054
311.14628
309.98036
308.93525
307.9907
307.13135
306.3453
305.62309
304.95712
304.34113
303.76994
303.23921
302.74523
302.28484
301.85529
301.45419
301.07944
300.72919
300.4018
300.0958
299.80987
299.54283
299.29361
299.06125
298.84486
298.64365
298.45687
298.28388
298.12404
297.97681
297.84166
297.71813
297.60578
297.5042
328.41061
323.72603
320.42217
317.87696
315.81103
314.0758
312.58303
311.27609
310.11648
309.07684
308.13706
307.28187
306.49943
305.78037
305.11711
304.50346
303.93429
303.40526
302.91271
302.4535
302.0249
301.62456
301.25039
300.90055
300.57342
300.26756
299.98164
299.71451
299.46511
299.23248
299.01574
298.81411
298.62686
298.45332
298.29291
298.14504
298.00922
297.88498
297.77187
297.66951
328.43805
323.78109
320.49664
317.96628
315.91229
314.18695
312.70254
311.40275
310.24932
309.21507
308.27997
307.42887
306.65001
305.93405
305.2735
304.66219
304.09502
303.5677
303.07659
302.61858
302.19098
301.79142
301.41786
301.06847
300.74165
300.43595
300.15009
299.88291
299.63336
299.40049
299.18344
298.98142
298.79373
298.61969
298.45871
298.31025
298.17378
298.04884
297.935
297.83187
328.46482
323.8348
320.56928
318.05342
316.01108
314.2954
312.81916
311.52638
310.37901
309.35003
308.41953
307.57246
306.79712
306.08425
305.42637
304.81739
304.25222
303.72662
303.23698
302.78019
302.35359
301.95484
301.58192
301.23301
300.90653
300.60104
300.31527
300.04807
299.7984
299.56533
299.348
299.14564
298.95752
298.78301
298.6215
298.47246
298.33536
298.20975
298.0952
297.99132
328.49094
323.8872
320.64016
318.13844
316.10748
314.40124
312.93298
311.64706
310.50563
309.48182
308.55585
307.71275
306.94088
306.23105
305.57583
304.96916
304.406
303.88212
303.39394
302.93839
302.51281
302.11491
301.74265
301.39425
301.06814
300.76288
300.47723
300.21005
299.9603
299.72706
299.50948
299.30679
299.11829
298.94333
298.78132
298.63171
298.49401
298.36775
298.25251
298.14789
328.51642
323.93833
320.70932
318.22142
316.20157
314.50455
313.04411
311.76489
310.62928
309.61055
308.68903
307.84983
307.08139
306.37456
305.72198
305.1176
304.55643
304.03427
303.54757
303.09326
302.66873
302.27169
301.90012
301.55225
301.22653
300.92154
300.63604
300.3689
300.1191
299.88572
299.66792
299.46494
299.27607
299.10068
298.93819
298.78805
298.64976
298.52287
298.40695
298.30161
328.5413
323.98824
320.77684
318.30241
316.29342
314.60541
313.15261
311.87996
310.75005
309.7363
308.81915
307.98379
307.21873
306.51487
305.86489
305.26279
304.7036
304.18316
303.69793
303.24489
302.82141
302.42524
302.05438
301.70707
301.38176
301.07707
300.79175
300.52468
300.27485
300.04136
299.82336
299.62011
299.4309
299.25512
299.09216
298.94151
298.80266
298.67515
298.55857
298.45253
328.56559
324.03697
320.84275
318.3815
316.38311
314.70391
313.25858
311.99236
310.86803
309.85917
308.9463
308.11472
307.35298
306.65206
306.00465
305.40481
304.8476
304.32887
303.84512
303.39333
302.97093
302.57564
302.20551
301.85878
301.53391
301.22953
300.9444
300.67743
300.4276
300.19402
299.97585
299.77235
299.58284
299.40667
299.24328
299.09213
298.95273
298.82463
298.70741
298.60067
328.58931
324.08455
320.90711
318.45872
316.47069
314.80011
313.36209
312.10216
310.98331
309.97923
309.07058
308.2427
307.48424
306.78621
306.14135
305.54375
304.98849
304.47147
303.98919
303.53867
303.11734
302.72296
302.35356
302.00742
301.68301
301.37897
301.09407
300.82721
300.5774
300.34375
300.12544
299.92172
299.73191
299.55538
299.39157
299.23995
299.10002
298.97134
298.85349
298.74608
328.61248
324.13102
320.96998
318.53415
316.55625
314.89409
313.46322
312.20945
311.09595
310.09657
309.19205
308.36783
307.61259
306.9174
306.27506
305.67967
305.12636
304.61103
304.13023
303.68098
303.26073
302.86725
302.49861
302.15308
301.82914
301.52545
301.24079
300.97407
300.7243
300.49061
300.27217
300.06824
299.87816
299.7013
299.53709
299.38501
299.24457
299.11532
298.99686
298.88879
328.63511
324.17641
321.03138
318.60784
316.63983
314.9859
313.56202
312.31428
311.20604
310.21126
309.3108
308.49016
307.7381
307.04572
306.40586
305.81266
305.26128
304.74764
304.2683
303.82031
303.40115
303.00859
302.6407
302.29579
301.97235
301.66902
301.38462
301.11806
300.86835
300.63463
300.41608
300.21197
300.02164
299.84446
299.67986
299.52734
299.38641
299.25662
299.13756
299.02884
328.65722
324.22076
321.09137
318.67983
316.7215
315.07561
313.65858
312.41674
311.31364
310.32338
309.4269
308.60979
307.86085
307.17123
306.53382
305.94279
305.39331
304.88134
304.40346
303.95674
303.53866
303.14702
302.77991
302.43563
302.11268
301.80975
301.52562
301.25922
301.0096
300.77587
300.55723
300.35295
300.16238
299.9849
299.81994
299.667
299.52558
299.39526
299.27561
299.16627
328.67882
324.26409
321.14999
318.75018
316.8013
315.16329
313.75295
312.51689
311.41883
310.43299
309.54043
308.72677
307.9809
307.29401
306.65901
306.07012
305.52253
305.01222
304.53579
304.09033
303.67333
303.28262
302.91628
302.57264
302.25021
301.94767
301.66382
301.39762
301.14809
300.91436
300.69565
300.49123
300.30043
300.12266
299.95736
299.80401
299.66213
299.53129
299.41107
299.30111
328.69993
324.30644
321.20728
318.81893
316.87929
315.24899
313.8452
312.6148
311.52167
310.54017
309.65144
308.84118
308.09833
307.41412
306.78151
306.19472
305.64899
305.14033
304.66534
304.22114
303.80522
303.41544
303.04988
302.70688
302.38497
302.08284
301.79929
301.53329
301.28387
301.05016
300.83139
300.62684
300.43584
300.2578
300.09216
299.93841
299.79609
299.66474
299.54397
299.4334
328.72057
324.34783
321.26327
318.88612
316.95553
315.33275
313.93538
312.71051
311.62222
310.64498
309.76
308.95308
308.2132
307.53163
306.90136
306.31666
305.77278
305.26574
304.79218
304.34923
303.93439
303.54553
303.18076
302.83841
302.51703
302.21531
301.93208
301.66629
301.41698
301.18331
300.9645
300.75982
300.56864
300.39034
300.22438
300.07026
299.92749
299.79566
299.67435
299.56318
328.74074
324.38828
321.318
318.95181
317.03006
315.41465
314.02354
312.8041
311.72054
310.74747
309.86619
309.06254
308.32557
307.6466
307.01864
306.436
305.89394
305.38851
304.91637
304.47465
304.06089
303.67296
303.30897
302.96728
302.64643
302.34514
302.06222
301.79665
301.54748
301.31386
301.09501
300.89023
300.69887
300.52033
300.35407
300.19958
300.05639
299.92408
299.80224
299.69049
328.76046
324.42783
321.37151
319.01602
317.10292
315.49471
314.10975
312.89561
311.8167
310.84771
309.97005
309.16962
308.43551
307.7591
307.13341
306.55279
306.01253
305.5087
305.03796
304.59747
304.18478
303.79777
303.43456
303.09353
302.77323
302.47236
302.18978
301.92444
301.67541
301.44185
301.22298
301.0181
300.82658
300.64781
300.48125
300.32641
300.18281
300.05004
299.92768
299.81536
328.77974
324.46649
321.42382
319.07881
317.17416
315.57301
314.19405
312.98511
311.91074
310.94576
310.07164
309.27437
308.54308
307.86917
307.24573
306.6671
306.12862
305.62636
305.15701
304.71774
304.30612
303.92002
303.5576
303.21723
302.89747
302.59704
302.31479
302.04969
301.80081
301.56732
301.34844
301.14348
300.9518
300.77281
300.60598
300.45079
300.3068
300.17357
300.05071
299.93784
328.79859
324.5043
321.47497
319.1402
317.24382
315.64957
314.27648
313.07263
312.00272
311.04166
310.17103
309.37685
308.64833
307.97689
307.35565
306.77899
306.24226
305.74155
305.27358
304.83552
304.42495
304.03976
303.67812
303.33841
303.0192
302.71921
302.4373
302.17245
301.92373
301.69032
301.47144
301.26641
301.07459
300.89539
300.72829
300.57277
300.4284
300.29473
300.17137
300.05795
328.81703
324.54127
321.52498
319.20024
317.31195
315.72444
314.35711
313.15824
312.09268
311.13548
310.26825
309.47712
308.75131
308.0823
307.46323
306.88851
306.3535
305.85433
305.38771
304.95084
304.54132
304.15705
303.79619
303.45714
303.13847
302.83892
302.55736
302.29276
302.04421
301.81088
301.59201
301.38692
301.19497
301.01558
300.84821
300.69238
300.54763
300.41353
300.28969
300.17574
328.83506
324.57742
321.5739
319.25895
317.37858
315.79767
314.43597
313.24198
312.18069
311.22725
310.36338
309.57523
308.85208
308.18545
307.56852
306.9957
306.46239
305.96474
305.49946
305.06378
304.6553
304.27192
303.91184
303.57345
303.25533
302.95622
302.67501
302.41067
302.16229
301.92906
301.71021
301.50506
301.31299
301.13341
300.9658
300.80966
300.66454
300.53003
300.40572
300.29124
328.85269
324.61278
321.62173
319.31637
317.44374
315.8693
314.51311
313.32389
312.26679
311.31704
310.45645
309.67123
308.9507
308.28641
307.67157
307.10063
306.569
306.07283
305.60888
305.17437
304.76692
304.38444
304.02512
303.68739
303.36982
303.07116
302.7903
302.52622
302.27803
302.04489
301.82607
301.62087
301.42869
301.24893
301.08108
300.92465
300.77918
300.64425
300.51948
300.4045
328.86993
324.64736
321.66852
319.37253
317.50748
315.93936
314.58857
313.40403
312.35102
311.40489
310.54752
309.76517
309.0472
308.38521
307.77243
307.20334
306.67336
306.17867
305.71602
305.28267
304.87623
304.49464