/*--------------------------------*- C++ -*----------------------------------*\
| =========                 |                                                 |
| \\      /  F ield         | OpenFOAM: The Open Source CFD Toolbox           |
|  \\    /   O peration     | Version:  2506                                  |
|   \\  /    A nd           | Website:  www.openfoam.com                      |
|    \\/     M anipulation  |                                                 |
\*---------------------------------------------------------------------------*/
FoamFile
{
    version     2.0;
    format      ascii;
    arch        "LSB;label=32;scalar=64";
    class       volScalarField;
    location    "22000/water";
    object      alphat;
}
// * * * * * * * * * * * * * * * * * * * * * * * * * * * * * * * * * * * * * //

dimensions      [1 -1 -1 0 0 0 0];

internalField   nonuniform List<scalar> 
1000
(
0.038690245
0.038689577
0.038688046
0.038679676
0.038634252
0.038395956
0.037190881
0.031863289
0.019099263
0.016301307
0.036437656
0.036436968
0.036430539
0.036397696
0.036243742
0.035561449
0.032798676
0.024476367
0.014644263
0.017654592
0.034756095
0.034752687
0.034735392
0.034658264
0.034338316
0.033096042
0.028914318
0.020078506
0.014287378
0.017671293
0.033455039
0.033447371
0.03341324
0.033276591
0.032760735
0.030940113
0.025769895
0.018271976
0.015951993
0.01730153
0.032418332
0.032405139
0.032350678
0.03215053
0.03143745
0.029070437
0.023556246
0.018635968
0.018861609
0.016925717
0.031571667
0.031552637
0.031479596
0.031226165
0.030328135
0.027485334
0.022555241
0.020803814
0.022278911
0.016666259
0.030866455
0.030843488
0.030761492
0.030477931
0.029402051
0.026292178
0.023061865
0.024243901
0.02554135
0.016525215
0.03027085
0.030249444
0.030178147
0.029894456
0.028644238
0.025787343
0.025138432
0.028280504
0.028304976
0.016463214
0.029764733
0.029755537
0.029725663
0.029468628
0.028107103
0.02635721
0.028508464
0.032334586
0.030519226
0.016442693
0.029337063
0.029357532
0.029409782
0.029196787
0.027981157
0.02823751
0.032681378
0.036080728
0.032267597
0.016440711
0.028984753
0.029060645
0.029241375
0.029099692
0.028583651
0.03137515
0.037164754
0.039413662
0.03365919
0.016446405
0.028712547
0.028878712
0.029233201
0.029270493
0.030215397
0.035478596
0.041608714
0.042341595
0.034787771
0.016455609
0.028533639
0.028833094
0.029403446
0.029913081
0.033002843
0.04016145
0.045828097
0.044910562
0.035723398
0.016467072
0.028470729
0.028950971
0.029795714
0.031303918
0.036852248
0.045075503
0.049751556
0.047172286
0.036515367
0.016480525
0.028557116
0.029264055
0.030516121
0.033675928
0.041512064
0.049977059
0.053365682
0.049173954
0.037197763
0.01649591
0.028837262
0.029812328
0.03175749
0.037114079
0.046676288
0.054725962
0.05668166
0.050955415
0.03779368
0.016513131
0.029366601
0.030660539
0.033764439
0.041531073
0.052070969
0.05925277
0.059719489
0.05254775
0.03831291
0.016531932
0.03021224
0.031928021
0.036741662
0.046714516
0.057495226
0.063527202
0.06250067
0.053971523
0.038771738
0.016552022
0.03146035
0.03380797
0.04076904
0.052403253
0.062820466
0.067538819
0.065043861
0.055249963
0.0391808
0.016573203
0.033237214
0.036537598
0.045775471
0.058353829
0.067969976
0.071287073
0.067367595
0.056402479
0.039547867
0.016595309
0.035735315
0.040316745
0.051571285
0.064375071
0.072897742
0.07477277
0.069492328
0.057443867
0.039878906
0.016618164
0.039206627
0.045225528
0.057909881
0.070330744
0.077571702
0.07800583
0.071434926
0.058386012
0.040178243
0.016641577
0.043889231
0.051190937
0.064545881
0.076123863
0.081973641
0.080997141
0.073208966
0.059238179
0.040448971
0.016665349
0.049893577
0.058010135
0.071268054
0.081682959
0.086094606
0.083755072
0.074824963
0.060007259
0.040693196
0.016689276
0.057121609
0.065404976
0.077905966
0.08695756
0.089927812
0.086285073
0.076290285
0.060697994
0.040912193
0.01671315
0.065269155
0.073077173
0.084332895
0.091910082
0.093464908
0.088589233
0.077609222
0.061313166
0.041106508
0.01673675
0.07390743
0.080754575
0.090454237
0.096507387
0.096695689
0.090666405
0.078783241
0.06185382
0.041276056
0.016759839
0.082593146
0.088207502
0.096193721
0.10072061
0.099609022
0.092513053
0.079811597
0.062319627
0.041420264
0.016782155
0.090953864
0.095254208
0.10149038
0.10452638
0.10219477
0.094124808
0.080692379
0.062709474
0.041538302
0.016803419
0.098725847
0.10176164
0.10629864
0.10790863
0.1044462
0.095498482
0.081423894
0.063022256
0.041629406
0.016823343
0.10575284
0.10764344
0.11058933
0.11086033
0.10636209
0.096634037
0.082006121
0.063257732
0.041693216
0.016841652
0.11196501
0.1128552
0.11435012
0.11338431
0.1079481
0.097536026
0.082441869
0.063417241
0.041730077
0.016858113
0.11735352
0.1173874
0.11758471
0.11549312
0.1092171
0.098214214
0.082737398
0.063504126
0.041741202
0.016872548
0.12194863
0.1212573
0.12031075
0.11720786
0.11018845
0.098683367
0.082902462
0.063523802
0.041728692
0.016884855
0.12580347
0.12450101
0.12255696
0.11855647
0.11088677
0.098962424
0.082949836
0.063483514
0.041695416
0.016895012
0.12898309
0.12716665
0.12436007
0.11957178
0.11134035
0.099073336
0.082894551
0.063391882
0.041644807
0.01690307
0.1315573
0.12930896
0.12576183
0.12028955
0.11157958
0.099039788
0.082752974
0.063258333
0.041580603
0.016909148
0.13359634
0.13098533
0.12680649
0.12074678
0.1116355
0.098886007
0.082541906
0.063092533
0.041506594
0.016913414
0.13516813
0.13225298
0.12753877
0.12098031
0.11153863
0.098635721
0.082277768
0.062903859
0.041426394
0.016916071
0.13633667
0.13316705
0.12800226
0.12102565
0.11131805
0.098311341
0.081975944
0.062700981
0.041343272
0.016917341
0.13716118
0.13377934
0.12823835
0.12091619
0.11100067
0.097933367
0.081650317
0.062491573
0.04126003
0.016917451
0.13769562
0.13413763
0.1282855
0.12068264
0.11061085
0.097520025
0.081312981
0.06228214
0.041178958
0.016916618
0.13798855
0.13428527
0.12817874
0.12035272
0.11017018
0.097087102
0.080974138
0.062077979
0.041101825
0.016915047
0.13808324
0.13426111
0.12794958
0.11995109
0.10969741
0.096647937
0.080642108
0.061883206
0.041029909
0.016912921
0.13801788
0.13409961
0.12762595
0.11949927
0.10920852
0.096213477
0.08032334
0.061700587
0.040962974
0.016910386
0.13782593
0.13383099
0.12723231
0.11901585
0.10871683
0.095792384
0.080022435
0.061531183
0.040902154
0.016907571
0.13753645
0.13348156
0.12678984
0.11851653
0.10823312
0.095391108
0.079741935
0.061377078
0.040847918
0.016904598
0.13717448
0.13307396
0.12631659
0.11801434
0.10776577
0.095013794
0.079484957
0.061239069
0.040800431
0.016901574
0.13676137
0.13262743
0.12582769
0.11751969
0.10732067
0.094664717
0.079252945
0.06111737
0.040759607
0.016898582
0.13631513
0.13215809
0.12533537
0.11704048
0.10690353
0.094346272
0.079046424
0.061011735
0.040725172
0.016895686
0.13585062
0.13167904
0.12484969
0.11658406
0.10651801
0.094059662
0.078865218
0.060921558
0.040696726
0.016892933
0.13538011
0.13120144
0.12437939
0.11615568
0.10616643
0.093805162
0.078708601
0.060845968
0.040673785
0.016890358
0.13491402
0.13073461
0.12393123
0.11575907
0.10584994
0.093582302
0.078575427
0.06078392
0.040655826
0.016887984
0.13446079
0.13028595
0.12351028
0.11539662
0.10556877
0.093390019
0.078464247
0.060734252
0.040642308
0.016885823
0.13402715
0.12986118
0.12312017
0.11506959
0.10532236
0.093226788
0.078373391
0.060695741
0.040632692
0.016883884
0.13361823
0.12946452
0.12276324
0.11477831
0.10510954
0.09309074
0.078301052
0.060667144
0.040626454
0.016882164
0.13323777
0.1290989
0.12244077
0.11452231
0.10492862
0.092979766
0.078245357
0.060647232
0.040623094
0.01688066
0.1328883
0.12876608
0.12215312
0.11430048
0.10477758
0.092891614
0.07820442
0.06063482
0.040622145
0.016879362
0.13257127
0.12846692
0.12189989
0.11411122
0.10465414
0.092823972
0.0781764
0.060628787
0.040623182
0.01687826
0.13228727
0.12820143
0.12168007
0.11395259
0.10455589
0.092774529
0.078159529
0.060628095
0.040625817
0.016877339
0.13203614
0.12796899
0.12149219
0.11382235
0.10448032
0.092741028
0.078152141
0.060631787
0.040629707
0.016876587
0.13181712
0.12776844
0.12133439
0.1137181
0.10442493
0.092721294
0.078152676
0.060638995
0.040634544
0.016875988
0.13162897
0.12759821
0.12120455
0.11363736
0.10438724
0.092713262
0.078159698
0.060648937
0.040640058
0.016875526
0.13147003
0.12745638
0.12110036
0.11357759
0.10436488
0.092714997
0.078171895
0.060660915
0.040646014
0.016875187
0.13133839
0.12734083
0.1210194
0.11353629
0.10435555
0.092724716
0.078188089
0.06067432
0.040652212
0.016874955
0.13123191
0.12724927
0.12095922
0.11351101
0.10435713
0.092740796
0.078207237
0.060688624
0.040658485
0.016874816
0.13114833
0.12717934
0.12091736
0.11349944
0.10436764
0.092761777
0.078228424
0.06070338
0.040664692
0.016874757
0.13108533
0.12712866
0.12089145
0.11349938
0.1043853
0.092786363
0.078250859
0.060718208
0.040670722
0.016874763
0.13104057
0.12709488
0.1208792
0.11350879
0.10440846
0.092813408
0.078273862
0.060732796
0.040676484
0.016874824
0.13101175
0.12707568
0.12087842
0.11352578
0.10443566
0.092841917
0.07829686
0.060746886
0.040681907
0.016874929
0.13099664
0.12706889
0.1208871
0.11354866
0.10446563
0.092871038
0.078319377
0.060760278
0.040686941
0.016875067
0.13099312
0.12707243
0.12090336
0.11357589
0.10449724
0.092900061
0.078341034
0.06077281
0.040691509
0.016875229
0.1309992
0.1270844
0.12092553
0.11360615
0.10452956
0.09292841
0.078361531
0.060784338
0.040695588
0.016875407
0.13101308
0.12710308
0.12095212
0.11363829
0.1045618
0.092955621
0.078380624
0.060794799
0.040699206
0.016875594
0.1310331
0.1271269
0.1209818
0.11367132
0.10459333
0.092981313
0.078398161
0.060804195
0.040702381
0.016875786
0.13105779
0.12715449
0.12101344
0.11370441
0.1046236
0.093005216
0.078414095
0.060812535
0.040705135
0.016875977
0.13108582
0.12718461
0.12104603
0.11373684
0.10465218
0.093027186
0.078428389
0.060819842
0.040707494
0.016876165
0.13111601
0.12721617
0.12107868
0.11376803
0.10467881
0.093047115
0.078441042
0.060826152
0.040709481
0.016876346
0.13114731
0.12724821
0.12111068
0.11379756
0.10470327
0.093064946
0.078452078
0.060831511
0.040711121
0.016876519
0.13117881
0.12727995
0.12114147
0.11382509
0.10472543
0.093080672
0.078461553
0.060835975
0.040712441
0.016876679
0.1312098
0.12731076
0.1211706
0.1138504
0.10474523
0.093094337
0.078469544
0.060839609
0.04071347
0.016876827
0.13123969
0.12734015
0.12119777
0.11387335
0.10476268
0.093106028
0.078476154
0.06084249
0.04071424
0.016876962
0.13126807
0.12736776
0.12122276
0.1138939
0.10477786
0.093115868
0.078481504
0.060844698
0.040714783
0.016877082
0.13129462
0.12739335
0.12124546
0.11391208
0.10479087
0.093124001
0.078485721
0.060846317
0.040715133
0.016877189
0.13131915
0.12741679
0.12126583
0.11392794
0.10480184
0.093130578
0.078488932
0.060847424
0.040715318
0.016877283
0.13134153
0.12743798
0.12128389
0.1139416
0.10481094
0.093135751
0.078491256
0.060848092
0.040715366
0.016877364
0.13136171
0.12745691
0.12129968
0.11395316
0.1048183
0.093139663
0.078492801
0.060848383
0.040715299
0.016877434
0.13137968
0.1274736
0.12131328
0.11396276
0.10482407
0.093142449
0.078493667
0.060848354
0.040715138
0.016877491
0.13139545
0.1274881
0.1213248
0.11397054
0.10482842
0.093144241
0.078493948
0.060848057
0.040714899
0.016877539
0.13140909
0.12750049
0.12133436
0.11397665
0.10483149
0.093145174
0.078493739
0.060847542
0.0407146
0.016877576
0.13142072
0.12751091
0.12134212
0.11398128
0.10483345
0.093145384
0.078493132
0.06084686
0.040714259
0.016877604
0.13143048
0.12751951
0.12134826
0.1139846
0.10483448
0.093145007
0.078492219
0.060846059
0.040713891
0.016877624
0.13143855
0.12752649
0.12135299
0.11398682
0.10483474
0.093144177
0.078491088
0.060845186
0.040713512
0.016877638
0.13144513
0.12753206
0.1213565
0.11398812
0.10483441
0.093143016
0.078489818
0.06084428
0.040713136
0.016877646
0.13145043
0.1275364
0.12135899
0.11398869
0.10483362
0.093141628
0.078488473
0.060843374
0.040712772
0.01687765
0.13145462
0.12753971
0.12136064
0.11398866
0.10483249
0.093140096
0.078487103
0.06084249
0.040712428
0.016877651
0.13145787
0.12754214
0.12136159
0.11398818
0.10483113
0.093138485
0.078485744
0.060841644
0.040712108
0.016877649
0.1314603
0.12754382
0.12136195
0.11398733
0.10482959
0.09313684
0.078484419
0.060840844
0.040711812
0.016877645
0.13146201
0.12754485
0.12136184
0.1139862
0.10482794
0.093135198
0.078483146
0.060840095
0.040711542
0.016877639
0.13146309
0.12754532
0.12136132
0.11398486
0.10482624
0.093133588
0.078481938
0.060839401
0.040711294
0.016877632
)
;

boundaryField
{
    water_inlet
    {
        type            calculated;
        value           uniform 0.041850807;
    }
    water_outlet
    {
        type            calculated;
        value           nonuniform List<scalar> 10(0.13146309 0.12754532 0.12136132 0.11398486 0.10482624 0.093133588 0.078481938 0.060839401 0.040711294 0.016877632);
    }
    water_wedge1
    {
        type            wedge;
    }
    water_wedge2
    {
        type            wedge;
    }
    water_to_rock
    {
        type            compressible::alphatWallFunction;
        value           nonuniform List<scalar> 
100
(
0.0020384971
0.0022594581
0.0022621707
0.0022020358
0.0021407413
0.0020983182
0.0020752203
0.0020650585
0.0020616936
0.0020613682
0.0020623019
0.0020638116
0.0020656908
0.0020678959
0.0020704174
0.0020732399
0.0020763209
0.0020796124
0.0020830821
0.0020867026
0.0020904451
0.0020942783
0.0020981693
0.0021020851
0.0021059915
0.0021098526
0.0021136295
0.0021172792
0.0021207559
0.0021240128
0.0021270055
0.0021296957
0.0021320549
0.0021340662
0.0021357259
0.0021370423
0.002138035
0.0021387317
0.0021391657
0.0021393732
0.0021393912
0.0021392553
0.0021389987
0.0021386512
0.0021382372
0.0021377772
0.0021372917
0.0021367977
0.0021363088
0.0021358355
0.0021353857
0.0021349649
0.002134577
0.0021342241
0.0021339072
0.0021336263
0.0021333805
0.0021331684
0.0021329882
0.0021328378
0.0021327149
0.002132617
0.0021325416
0.0021324862
0.0021324483
0.0021324256
0.0021324159
0.002132417
0.0021324269
0.002132444
0.0021324665
0.002132493
0.0021325221
0.0021325527
0.002132584
0.0021326153
0.0021326461
0.0021326757
0.0021327037
0.0021327299
0.002132754
0.0021327759
0.0021327956
0.0021328131
0.0021328286
0.0021328419
0.0021328532
0.0021328627
0.0021328704
0.0021328765
0.0021328811
0.0021328845
0.0021328869
0.0021328885
0.0021328893
0.0021328896
0.0021328893
0.0021328887
0.0021328877
0.0021328864
)
;
    }
}


// ************************************************************************* //
