/*--------------------------------*- C++ -*----------------------------------*\
| =========                 |                                                 |
| \\      /  F ield         | OpenFOAM: The Open Source CFD Toolbox           |
|  \\    /   O peration     | Version:  2506                                  |
|   \\  /    A nd           | Website:  www.openfoam.com                      |
|    \\/     M anipulation  |                                                 |
\*---------------------------------------------------------------------------*/
FoamFile
{
    version     2.0;
    format      ascii;
    arch        "LSB;label=32;scalar=64";
    class       volScalarField;
    location    "22000/water";
    object      epsilon;
}
// * * * * * * * * * * * * * * * * * * * * * * * * * * * * * * * * * * * * * //

dimensions      [0 2 -3 0 0 0 0];

internalField   nonuniform List<scalar> 
1000
(
7.2399316e-05
7.2397808e-05
7.2397502e-05
7.2398682e-05
7.2424146e-05
7.2686938e-05
7.4736184e-05
8.8973295e-05
0.00019794853
0.0013048048
4.7739543e-05
4.7745807e-05
4.7746167e-05
4.7748745e-05
4.7810065e-05
4.8371228e-05
5.2145894e-05
7.5319303e-05
0.00023607331
0.0016574915
3.3261229e-05
3.326441e-05
3.3263962e-05
3.3272039e-05
3.3396639e-05
3.4348946e-05
3.9973171e-05
7.1502248e-05
0.0002655004
0.0016622
2.4212884e-05
2.4213778e-05
2.421353e-05
2.4236018e-05
2.446883e-05
2.5979978e-05
3.4086798e-05
7.6375826e-05
0.00030233789
0.0015600262
1.8263229e-05
1.8263302e-05
1.8265922e-05
1.8318446e-05
1.8730723e-05
2.1090728e-05
3.2935651e-05
9.0423476e-05
0.00035053628
0.0014605604
1.4183053e-05
1.4183388e-05
1.4193787e-05
1.4301413e-05
1.5003315e-05
1.8678136e-05
3.6167874e-05
0.00011337671
0.0004023038
0.0013944163
1.1285033e-05
1.1287109e-05
1.1313191e-05
1.1514087e-05
1.2672049e-05
1.836063e-05
4.3854077e-05
0.00014255056
0.00044702314
0.0013593137
9.1651308e-06
9.1712237e-06
9.2251471e-06
9.5765178e-06
1.1437676e-05
2.0107239e-05
5.5828366e-05
0.00017322905
0.00047957609
0.0013440716
7.5754963e-06
7.5890768e-06
7.6892453e-06
8.2761051e-06
1.1198225e-05
2.404127e-05
7.1187098e-05
0.00020099049
0.0005008073
0.0013390511
6.3585386e-06
6.3848727e-06
6.5589457e-06
7.5064229e-06
1.1984526e-05
3.0236089e-05
8.8277262e-05
0.00022355879
0.00051392965
0.001338566
5.4111025e-06
5.4581715e-06
5.7474935e-06
7.2369278e-06
1.390666e-05
3.8515372e-05
0.00010524296
0.00024078267
0.00052197846
0.0013399576
4.6642397e-06
4.74413e-06
5.2100521e-06
7.4969427e-06
1.708699e-05
4.8355524e-05
0.00012068232
0.00025359532
0.00052708052
0.0013422095
4.0714678e-06
4.2024401e-06
4.9349806e-06
8.3622633e-06
2.1575461e-05
5.8975515e-05
0.00013393063
0.00026313418
0.00053055283
0.0013450164
3.6019036e-06
3.8114132e-06
4.9402447e-06
9.9351182e-06
2.7272232e-05
6.9567111e-05
0.0001449263
0.00027035433
0.00053316274
0.001348315
3.2363933e-06
3.5653608e-06
5.2715537e-06
1.2311461e-05
3.3901717e-05
7.9510725e-05
0.00015392446
0.00027595624
0.00053534069
0.0013520941
2.9656644e-06
3.4742246e-06
5.9984134e-06
1.5537515e-05
4.1062767e-05
8.8461012e-05
0.00016127358
0.00028042534
0.0005373166
0.0013563335
2.7900134e-06
3.5645551e-06
7.2040765e-06
1.9569993e-05
4.8330101e-05
9.6307051e-05
0.00016730378
0.00028408916
0.0005391777
0.001360972
2.7202661e-06
3.8804192e-06
8.9664011e-06
2.4261457e-05
5.5350052e-05
0.00010308383
0.00017229234
0.00028715793
0.00054093706
0.0013659397
2.7797402e-06
4.481968e-06
1.1330814e-05
2.9383077e-05
6.1887514e-05
0.00010889377
0.00017645203
0.00028975394
0.00054267269
0.0013711902
3.0065705e-06
5.4387041e-06
1.4283622e-05
3.4675071e-05
6.782089e-05
0.00011385666
0.0001799386
0.00029198046
0.00054443461
0.0013766842
3.4547987e-06
6.8148674e-06
1.7738642e-05
3.9899759e-05
7.3111894e-05
0.00011808677
0.00018285398
0.0002939417
0.0005462368
0.0013823799
4.1911643e-06
8.6476174e-06
2.1546251e-05
4.4874744e-05
7.7769198e-05
0.00012165885
0.00018531797
0.00029569758
0.00054807414
0.0013882308
5.2836022e-06
1.0924866e-05
2.5521731e-05
4.9478034e-05
8.180367e-05
0.00012466941
0.00018741283
0.00029728401
0.00054993268
0.001394188
6.7799205e-06
1.3574398e-05
2.9480221e-05
5.3622522e-05
8.5253075e-05
0.00012719924
0.0001891951
0.00029872087
0.00055179368
0.0014002014
8.683203e-06
1.6474011e-05
3.3249937e-05
5.7259464e-05
8.8166973e-05
0.00012930761
0.00019070214
0.00030001654
0.00055363474
0.0014062188
1.0937752e-05
1.9464157e-05
3.6694058e-05
6.0377111e-05
9.058653e-05
0.00013103643
0.00019195661
0.00030117043
0.00055543006
0.0014121847
1.3423175e-05
2.2384257e-05
3.9726915e-05
6.2977814e-05
9.2544712e-05
0.00013241414
0.00019297014
0.00030217513
0.00055715058
0.0014180378
1.598801e-05
2.5103445e-05
4.2303123e-05
6.5074376e-05
9.4068636e-05
0.00013345983
0.00019374677
0.00030301859
0.00055876493
0.0014237102
1.8484432e-05
2.7531341e-05
4.4410681e-05
6.6689235e-05
9.5183143e-05
0.0001341876
0.00019428674
0.00030368693
0.00056024128
0.0014291285
2.0793558e-05
2.9617694e-05
4.6063522e-05
6.7854274e-05
9.591444e-05
0.00013461092
0.00019459028
0.00030416769
0.00056155014
0.0014342175
2.2836367e-05
3.1345649e-05
4.7294001e-05
6.860992e-05
9.6292784e-05
0.00013474624
0.00019466118
0.00030445293
0.00056266738
0.001438905
2.4572638e-05
3.272296e-05
4.8145934e-05
6.9003177e-05
9.6353646e-05
0.00013461534
0.00019450933
0.00030454181
0.00056357695
0.0014431282
2.5993372e-05
3.3773655e-05
4.8668757e-05
6.9084939e-05
9.6137344e-05
0.00013424614
0.00019415196
0.00030444195
0.0005642726
0.001446839
2.7111384e-05
3.4531205e-05
4.8913131e-05
6.890717e-05
9.5687574e-05
0.00013367211
0.00019361352
0.0003041695
0.00056475846
0.0014500082
2.7952798e-05
3.5033445e-05
4.8927949e-05
6.8520437e-05
9.5049385e-05
0.00013293065
0.00019292428
0.00030374792
0.00056504819
0.0014526268
2.855049e-05
3.5319032e-05
4.875852e-05
6.7972051e-05
9.4267108e-05
0.000132061
0.0001921182
0.00030320588
0.00056516311
0.0014547063
2.8939542e-05
3.5425169e-05
4.8445608e-05
6.7304847e-05
9.3382562e-05
0.00013110201
0.00019123061
0.00030257472
0.00056512963
0.0014562757
2.9154357e-05
3.5386252e-05
4.8025063e-05
6.6556542e-05
9.2433734e-05
0.00013009033
0.00019029583
0.00030188595
0.00056497653
0.0014573777
2.9226987e-05
3.5233166e-05
4.7527818e-05
6.5759519e-05
9.1453932e-05
0.00012905891
0.00018934543
0.0003011691
0.00056473253
0.0014580646
2.918629e-05
3.4993033e-05
4.6980118e-05
6.494094e-05
9.0471397e-05
0.00012803614
0.00018840686
0.00030045019
0.00056442437
0.0014583932
2.9057611e-05
3.4689231e-05
4.6403865e-05
6.412305e-05
8.950927e-05
0.00012704539
0.00018750279
0.00029975085
0.00056407562
0.0014584217
2.8862792e-05
3.4341583e-05
4.5817036e-05
6.3323611e-05
8.8585825e-05
0.00012610502
0.00018665087
0.000299088
0.0005637061
0.0014582066
2.8620359e-05
3.3966647e-05
4.5234119e-05
6.2556393e-05
8.7714872e-05
0.00012522863
0.00018586392
0.00029847393
0.00056333177
0.0014578003
2.8345802e-05
3.3578044e-05
4.4666537e-05
6.183168e-05
8.6906252e-05
0.00012442551
0.00018515031
0.00029791668
0.00056296471
0.0014572505
2.8051904e-05
3.3186797e-05
4.4123064e-05
6.1156756e-05
8.6166359e-05
0.00012370115
0.00018451448
0.00029742035
0.00056260924
0.0014565953
2.7749061e-05
3.2801665e-05
4.36102e-05
6.0536376e-05
8.5498716e-05
0.00012305795
0.00018395784
0.00029698504
0.00056226349
0.0014558679
2.7445602e-05
3.2429453e-05
4.313253e-05
5.9973213e-05
8.4904519e-05
0.00012249583
0.00018347862
0.0002966046
0.00056194031
0.0014551003
2.7148084e-05
3.2075305e-05
4.2693042e-05
5.9468253e-05
8.4383081e-05
0.00012201234
0.00018307008
0.00029628035
0.00056164638
0.0014543195
2.6861554e-05
3.1742969e-05
4.2293417e-05
5.9021133e-05
8.3932084e-05
0.00012160124
0.00018272941
0.00029601103
0.00056138454
0.0014535471
2.6589804e-05
3.143505e-05
4.193434e-05
5.8630267e-05
8.3546418e-05
0.0001212585
0.00018245255
0.00029579343
0.00056115539
0.0014527997
2.6335601e-05
3.115323e-05
4.1615293e-05
5.8292259e-05
8.3222209e-05
0.00012097929
0.00018223432
0.00029562322
0.00056095812
0.0014520895
2.6100745e-05
3.0898069e-05
4.1334775e-05
5.8004133e-05
8.2955025e-05
0.00012075816
0.00018206893
0.00029549553
0.00056079106
0.0014514255
2.5886132e-05
3.0669454e-05
4.1091108e-05
5.7762548e-05
8.2740069e-05
0.00012058932
0.00018195036
0.00029540525
0.00056065205
0.0014508135
2.5692118e-05
3.0466866e-05
4.0882298e-05
5.7563901e-05
8.2572337e-05
0.00012046687
0.00018187258
0.00029534732
0.00056053863
0.001450257
2.5518628e-05
3.0289439e-05
4.0706101e-05
5.7404424e-05
8.244676e-05
0.00012038496
0.00018182974
0.00029531687
0.00056044823
0.0014497574
2.5365247e-05
3.0136029e-05
4.0560091e-05
5.7280276e-05
8.2358321e-05
0.00012033793
0.00018181629
0.00029530936
0.00056037828
0.0014493145
2.5231279e-05
3.0005274e-05
4.0441723e-05
5.7187618e-05
8.2302153e-05
0.00012032044
0.00018182709
0.0002953206
0.00056032631
0.0014489271
2.5115811e-05
2.9895652e-05
4.0348393e-05
5.7122686e-05
8.2273607e-05
0.00012032748
0.00018185745
0.00029534683
0.00056028999
0.0014485929
2.5017763e-05
2.9805524e-05
4.0277488e-05
5.7081843e-05
8.2268312e-05
0.00012035445
0.00018190312
0.00029538469
0.00056026715
0.001448309
2.4935932e-05
2.9733187e-05
4.0226433e-05
5.7061627e-05
8.228221e-05
0.00012039719
0.00018196035
0.00029543124
0.00056025577
0.0014480721
2.4869033e-05
2.9676906e-05
4.0192726e-05
5.7058778e-05
8.2311584e-05
0.00012045198
0.00018202584
0.0002954839
0.00056025398
0.0014478784
2.4815729e-05
2.9634949e-05
4.017397e-05
5.7070272e-05
8.2353065e-05
0.0001205155
0.00018209673
0.00029554047
0.00056026007
0.0014477243
2.4774664e-05
2.9605616e-05
4.0167897e-05
5.7093332e-05
8.2403645e-05
0.00012058487
0.00018217057
0.00029559907
0.00056027249
0.0014476055
2.4744492e-05
2.9587262e-05
4.0172389e-05
5.7125438e-05
8.2460668e-05
0.00012065763
0.00018224532
0.00029565814
0.00056028987
0.0014475182
2.472389e-05
2.9578318e-05
4.018549e-05
5.7164338e-05
8.2521823e-05
0.00012073168
0.00018231928
0.0002957164
0.00056031098
0.0014474586
2.4711584e-05
2.9577305e-05
4.0205414e-05
5.7208035e-05
8.2585126e-05
0.00012080528
0.0001823911
0.00029577282
0.00056033476
0.0014474228
2.4706361e-05
2.9582845e-05
4.0230554e-05
5.7254792e-05
8.2648904e-05
0.000120877
0.0001824597
0.00029582659
0.00056036027
0.0014474075
2.470708e-05
2.9593673e-05
4.0259479e-05
5.7303113e-05
8.2711771e-05
0.00012094572
0.00018252425
0.00029587711
0.00056038668
0.0014474092
2.4712682e-05
2.9608638e-05
4.029093e-05
5.7351736e-05
8.2772606e-05
0.00012101058
0.00018258418
0.00029592393
0.0005604133
0.0014474249
2.4722194e-05
2.9626708e-05
4.0323822e-05
5.7399613e-05
8.2830527e-05
0.00012107093
0.00018263909
0.00029596676
0.00056043956
0.0014474517
2.4734737e-05
2.9646967e-05
4.0357227e-05
5.7445898e-05
8.2884871e-05
0.00012112636
0.00018268876
0.00029600546
0.00056046498
0.0014474872
2.4749523e-05
2.9668617e-05
4.0390374e-05
5.7489929e-05
8.2935164e-05
0.00012117661
0.00018273312
0.00029603997
0.00056048905
0.0014475289
2.4765857e-05
2.9690973e-05
4.0422631e-05
5.7531205e-05
8.2981101e-05
0.00012122159
0.00018277221
0.00029607028
0.00056051106
0.0014475746
2.4783134e-05
2.9713454e-05
4.0453495e-05
5.7569371e-05
8.3022521e-05
0.00012126132
0.00018280617
0.0002960963
0.00056053094
0.0014476229
2.4800837e-05
2.9735579e-05
4.0482582e-05
5.7604199e-05
8.3059383e-05
0.00012129592
0.00018283509
0.00029611817
0.000560549
0.0014476722
2.4818528e-05
2.9756958e-05
4.0509613e-05
5.7635573e-05
8.3091748e-05
0.00012132553
0.00018285916
0.00029613634
0.00056056533
0.0014477216
2.4835849e-05
2.9777287e-05
4.05344e-05
5.766347e-05
8.3119708e-05
0.00012135032
0.00018287882
0.00029615116
0.00056057996
0.00144777
2.4852511e-05
2.9796338e-05
4.0556844e-05
5.7687904e-05
8.3143399e-05
0.00012137068
0.0001828945
0.00029616297
0.00056059291
0.0014478166
2.4868295e-05
2.9813955e-05
4.0576875e-05
5.7708946e-05
8.3163103e-05
0.00012138699
0.00018290662
0.00029617209
0.00056060421
0.0014478608
2.4883031e-05
2.9830014e-05
4.0594489e-05
5.7726764e-05
8.3179133e-05
0.00012139967
0.00018291557
0.00029617883
0.00056061394
0.0014479019
2.4896591e-05
2.984445e-05
4.0609747e-05
5.7741566e-05
8.3191826e-05
0.00012140912
0.00018292177
0.0002961835
0.00056062222
0.0014479398
2.4908898e-05
2.9857248e-05
4.0622751e-05
5.7753591e-05
8.3201528e-05
0.00012141573
0.0001829256
0.0002961864
0.00056062915
0.0014479743
2.4919917e-05
2.9868433e-05
4.0633637e-05
5.7763091e-05
8.3208582e-05
0.00012141989
0.00018292741
0.00029618779
0.00056063487
0.0014480054
2.492965e-05
2.9878061e-05
4.064256e-05
5.7770327e-05
8.3213324e-05
0.00012142197
0.00018292755
0.00029618793
0.00056063947
0.0014480331
2.4938124e-05
2.9886213e-05
4.0649688e-05
5.7775559e-05
8.3216076e-05
0.00012142229
0.00018292629
0.00029618703
0.00056064306
0.0014480574
2.4945389e-05
2.9892984e-05
4.0655198e-05
5.7779041e-05
8.3217141e-05
0.00012142117
0.00018292393
0.00029618529
0.00056064573
0.0014480784
2.4951512e-05
2.9898482e-05
4.0659268e-05
5.7781018e-05
8.3216802e-05
0.00012141888
0.00018292071
0.00029618289
0.00056064755
0.0014480963
2.4956573e-05
2.9902825e-05
4.0662074e-05
5.778172e-05
8.3215319e-05
0.00012141569
0.00018291683
0.00029617998
0.00056064864
0.0014481112
2.4960658e-05
2.9906131e-05
4.0663788e-05
5.7781366e-05
8.3212931e-05
0.00012141183
0.00018291251
0.00029617673
0.0005606491
0.0014481233
2.496386e-05
2.990852e-05
4.0664572e-05
5.7780156e-05
8.3209856e-05
0.0001214075
0.00018290792
0.00029617327
0.00056064906
0.0014481329
2.4966274e-05
2.9910111e-05
4.0664582e-05
5.7778274e-05
8.3206285e-05
0.00012140288
0.00018290321
0.00029616972
0.00056064864
0.0014481402
2.4967994e-05
2.9911016e-05
4.0663961e-05
5.7775882e-05
8.3202385e-05
0.00012139813
0.00018289851
0.0002961662
0.00056064795
0.0014481456
2.4969113e-05
2.9911345e-05
4.0662836e-05
5.7773126e-05
8.3198301e-05
0.00012139337
0.00018289392
0.00029616277
0.00056064707
0.0014481495
2.4969716e-05
2.9911194e-05
4.0661325e-05
5.777013e-05
8.3194153e-05
0.0001213887
0.00018288952
0.00029615951
0.00056064606
0.001448152
2.4969885e-05
2.9910656e-05
4.0659529e-05
5.7767001e-05
8.3190038e-05
0.00012138421
0.00018288536
0.00029615643
0.00056064496
0.0014481535
2.4969695e-05
2.9909811e-05
4.0657537e-05
5.7763826e-05
8.3186034e-05
0.00012137996
0.00018288149
0.00029615357
0.00056064379
0.001448154
2.4969213e-05
2.9908731e-05
4.0655424e-05
5.7760679e-05
8.3182204e-05
0.00012137598
0.00018287793
0.00029615094
0.00056064256
0.0014481536
2.4968501e-05
2.9907479e-05
4.0653255e-05
5.7757618e-05
8.3178593e-05
0.00012137231
0.0001828747
0.00029614854
0.0005606413
0.0014481526
2.4967613e-05
2.9906112e-05
4.0651085e-05
5.7754692e-05
8.3175238e-05
0.00012136897
0.00018287179
0.00029614638
0.00056064004
0.001448151
2.4966601e-05
2.9904682e-05
4.0648966e-05
5.7751948e-05
8.3172172e-05
0.00012136597
0.00018286921
0.00029614444
0.00056063875
0.0014481489
)
;

boundaryField
{
    water_inlet
    {
        type            turbulentMixingLengthDissipationRateInlet;
        mixingLength    0.005;
        phi             phi;
        k               k;
        value           uniform 0.00011791765;
    }
    water_outlet
    {
        type            inletOutlet;
        inletValue      uniform 0.0001;
        value           nonuniform List<scalar> 10(2.4966601e-05 2.9904682e-05 4.0648966e-05 5.7751948e-05 8.3172172e-05 0.00012136597 0.00018286921 0.00029614444 0.00056063875 0.0014481489);
    }
    water_wedge1
    {
        type            wedge;
    }
    water_wedge2
    {
        type            wedge;
    }
    water_to_rock
    {
        type            epsilonWallFunction;
        blending        stepwise;
        value           nonuniform List<scalar> 
100
(
0.0013048048
0.0016574915
0.0016622
0.0015600262
0.0014605604
0.0013944163
0.0013593137
0.0013440716
0.0013390511
0.001338566
0.0013399576
0.0013422095
0.0013450164
0.001348315
0.0013520941
0.0013563335
0.001360972
0.0013659397
0.0013711902
0.0013766842
0.0013823799
0.0013882308
0.001394188
0.0014002014
0.0014062188
0.0014121847
0.0014180378
0.0014237102
0.0014291285
0.0014342175
0.001438905
0.0014431282
0.001446839
0.0014500082
0.0014526268
0.0014547063
0.0014562757
0.0014573777
0.0014580646
0.0014583932
0.0014584217
0.0014582066
0.0014578003
0.0014572505
0.0014565953
0.0014558679
0.0014551003
0.0014543195
0.0014535471
0.0014527997
0.0014520895
0.0014514255
0.0014508135
0.001450257
0.0014497574
0.0014493145
0.0014489271
0.0014485929
0.001448309
0.0014480721
0.0014478784
0.0014477243
0.0014476055
0.0014475182
0.0014474586
0.0014474228
0.0014474075
0.0014474092
0.0014474249
0.0014474517
0.0014474872
0.0014475289
0.0014475746
0.0014476229
0.0014476722
0.0014477216
0.00144777
0.0014478166
0.0014478608
0.0014479019
0.0014479398
0.0014479743
0.0014480054
0.0014480331
0.0014480574
0.0014480784
0.0014480963
0.0014481112
0.0014481233
0.0014481329
0.0014481402
0.0014481456
0.0014481495
0.001448152
0.0014481535
0.001448154
0.0014481536
0.0014481526
0.001448151
0.0014481489
)
;
    }
}


// ************************************************************************* //
