/*--------------------------------*- C++ -*----------------------------------*\
| =========                 |                                                 |
| \\      /  F ield         | OpenFOAM: The Open Source CFD Toolbox           |
|  \\    /   O peration     | Version:  2506                                  |
|   \\  /    A nd           | Website:  www.openfoam.com                      |
|    \\/     M anipulation  |                                                 |
\*---------------------------------------------------------------------------*/
FoamFile
{
    version     2.0;
    format      ascii;
    arch        "LSB;label=32;scalar=64";
    class       volScalarField;
    location    "22000/water";
    object      k;
}
// * * * * * * * * * * * * * * * * * * * * * * * * * * * * * * * * * * * * * //

dimensions      [0 2 -2 0 0 0 0];

internalField   nonuniform List<scalar> 
1000
(
0.00017657855
0.00017657518
0.00017657131
0.00017655365
0.00017648098
0.00017625478
0.00017589507
0.00017764177
0.00020514192
0.00048657967
0.00013915035
0.00013915817
0.00013914641
0.00013908743
0.00013888206
0.0001383736
0.00013797747
0.00014325065
0.00019616755
0.00057072179
0.00011343696
0.00011343683
0.00011340783
0.00011329561
0.00011298241
0.0001124902
0.00011342551
0.0001264141
0.00020548438
0.00057180213
9.4956345e-05
9.4947216e-05
9.4898274e-05
9.4747992e-05
9.4461183e-05
9.4591105e-05
9.8882488e-05
0.00012463519
0.00023169877
0.00054812318
8.1180941e-05
8.1164581e-05
8.1102166e-05
8.0967055e-05
8.0960073e-05
8.2611694e-05
9.2930041e-05
0.00013695773
0.00027128502
0.00052456976
7.0599818e-05
7.0579371e-05
7.0523472e-05
7.0504812e-05
7.1168273e-05
7.5593984e-05
9.5291726e-05
0.00016203296
0.00031585955
0.00050861042
6.2267978e-05
6.2250532e-05
6.2239519e-05
6.2499631e-05
6.4399456e-05
7.3303892e-05
0.00010610166
0.00019613526
0.00035649782
0.00050003841
5.5571434e-05
5.5570244e-05
5.5667651e-05
5.6450669e-05
6.0388951e-05
7.5971286e-05
0.00012498748
0.0002335199
0.00038871394
0.00049629338
5.0098705e-05
5.0135844e-05
5.0440293e-05
5.2103022e-05
5.9190581e-05
8.3984352e-05
0.00015029949
0.00026896227
0.0004124697
0.00049505678
4.5567682e-05
4.5677871e-05
4.633753e-05
4.9391703e-05
6.1096063e-05
9.7486834e-05
0.00017920271
0.00029964255
0.0004296404
0.00049493727
4.178281e-05
4.2019045e-05
4.325219e-05
4.8416264e-05
6.6518161e-05
0.00011597915
0.0002086566
0.00032501692
0.00044222988
0.0004952802
3.8609685e-05
3.905145e-05
4.117458e-05
4.9422769e-05
7.5808324e-05
0.00013818988
0.00023641985
0.00034571975
0.00045177454
0.00049583491
3.5960361e-05
3.6725385e-05
4.0189426e-05
5.2767006e-05
8.9027809e-05
0.00016237177
0.00026138209
0.00036268771
0.00045931504
0.00049652595
3.3785885e-05
3.5046491e-05
4.0478191e-05
5.8837719e-05
0.00010576995
0.00018682812
0.00028330022
0.00037677327
0.0004655193
0.00049733745
3.2074344e-05
3.4079166e-05
4.2315936e-05
6.7933586e-05
0.0001251607
0.00021031399
0.00030238122
0.00038864907
0.00047080764
0.00049826635
3.0853751e-05
3.3954462e-05
4.604805e-05
8.0117998e-05
0.00014606368
0.00023213607
0.00031898691
0.00039881709
0.00047543886
0.0004993073
3.0199514e-05
3.4878879e-05
5.20342e-05
9.5115626e-05
0.00016736962
0.00025203064
0.00033348852
0.00040763772
0.00047952195
0.000500445
3.0245942e-05
3.7136014e-05
6.0556176e-05
0.00011231928
0.00018821094
0.00026998839
0.00034621453
0.00041534856
0.00048317112
0.00050166206
3.1199946e-05
4.1068977e-05
7.1707694e-05
0.00013091751
0.00020802813
0.00028612
0.00035742625
0.00042213429
0.00048649188
0.00050294679
3.3351699e-05
4.7031375e-05
8.53111e-05
0.00015007672
0.00022652194
0.00030057618
0.00036733106
0.00042815001
0.00048955823
0.00050428936
3.7070645e-05
5.5302071e-05
0.00010090998
0.00016908846
0.00024356844
0.00031350344
0.00037608897
0.00043353323
0.00049241589
0.00050567932
4.2767814e-05
6.5979652e-05
0.0001178507
0.00018743192
0.00025913462
0.00032501645
0.00038386987
0.0004383775
0.00049509106
0.00050710516
5.0805883e-05
7.8899558e-05
0.00013541267
0.00020475598
0.00027320804
0.00033526233
0.00039079748
0.00044274798
0.00049759782
0.00050855489
6.1362718e-05
9.3622922e-05
0.00015292651
0.00022080521
0.00028583339
0.00034436403
0.00039696129
0.00044668837
0.00049994154
0.00051001619
7.4303651e-05
0.00010951536
0.0001698051
0.00023542212
0.00029707762
0.00035241131
0.0004024226
0.00045022513
0.00050212056
0.00051147637
8.9143154e-05
0.00012582839
0.00018559503
0.00024853508
0.0003069913
0.00035946487
0.00040721912
0.00045337023
0.00050412698
0.00051292195
0.00010508522
0.00014184854
0.00019999855
0.0002601022
0.00031560896
0.00036556141
0.00041136936
0.00045612364
0.00050594738
0.0005143382
0.00012123811
0.00015699629
0.00021282838
0.00027010595
0.00032295479
0.00037072062
0.0004148778
0.00045847644
0.00050756418
0.0005157089
0.00013679921
0.00017085423
0.00022398871
0.00027855489
0.00032905184
0.00037495419
0.00041774167
0.00046041514
0.00050895793
0.00051701654
0.0001511645
0.00018316295
0.00023345995
0.00028548721
0.00033393219
0.00037827561
0.00041995859
0.00046192714
0.00051011059
0.00051824321
0.00016395682
0.00019379938
0.0002412846
0.0002909722
0.00033764495
0.00038070918
0.00042153416
0.00046300625
0.00051100898
0.00051937181
0.00017499958
0.00020274821
0.00024755294
0.00029510801
0.00034026051
0.00038229601
0.00042248772
0.00046365729
0.00051164787
0.00052038755
0.00018426775
0.00021007275
0.00025238906
0.00029801609
0.00034187027
0.00038309637
0.00042285531
0.00046389873
0.00051203178
0.00052127921
0.00019183783
0.00021588864
0.00025593808
0.00029983376
0.00034258297
0.00038318839
0.00042268956
0.00046376294
0.0005121754
0.00052204009
0.00019784675
0.00022034228
0.00025835535
0.00030070639
0.00034251886
0.00038266408
0.00042205706
0.00046329445
0.00051210246
0.0005226684
0.00020246182
0.00022359443
0.00025979794
0.00030078037
0.00034180338
0.00038162397
0.00042103404
0.0004625467
0.00051184362
0.0005231671
0.00020586062
0.00022580847
0.00026041836
0.0003001975
0.00034056124
0.00038017145
0.00041970145
0.00046157806
0.00051143376
0.00052354333
0.00020821834
0.00022714259
0.00026036025
0.00029909085
0.00033891155
0.00037840764
0.00041814013
0.00046044779
0.00051090919
0.00052380744
0.00020970034
0.00022774483
0.00025975565
0.00029758198
0.00033696424
0.00037642727
0.00041642676
0.00045921262
0.00051030513
0.00052397201
0.00021045815
0.0002277504
0.00025872347
0.00029577943
0.00033481769
0.00037431571
0.00041463078
0.00045792397
0.00050965379
0.00052405072
0.00021062772
0.00022728032
0.00025736886
0.000293778
0.00033255751
0.0003721472
0.00041281243
0.00045662628
0.00050898314
0.00052405755
0.00021032902
0.00022644119
0.00025578333
0.00029165887
0.00033025617
0.00036998409
0.00041102185
0.00045535616
0.00050831626
0.00052400601
0.00020966649
0.00022532557
0.00025404522
0.00028949014
0.00032797339
0.00036787692
0.00040929899
0.00045414229
0.00050767133
0.00052390868
0.00020872997
0.00022401277
0.00025222059
0.00028732776
0.00032575693
0.00036586509
0.0004076741
0.00045300581
0.00050706172
0.00052377694
0.00020759592
0.00022256988
0.00025036423
0.00028521661
0.00032364366
0.0003639777
0.00040616834
0.00045195995
0.00050648797
0.00052361994
0.00020632867
0.00022105292
0.00024852078
0.00028319173
0.0003216608
0.00036223491
0.00040479487
0.00045100866
0.00050595628
0.0005234456
0.00020498178
0.00021950803
0.00024672586
0.00028127951
0.00031982724
0.00036064886
0.00040355811
0.00045015492
0.00050547539
0.00052326159
0.00020359927
0.0002179726
0.00024500713
0.0002794988
0.0003181545
0.00035922385
0.00040245851
0.0004494027
0.00050504935
0.00052307439
0.00020221681
0.00021647633
0.00024338537
0.00027786193
0.0003166472
0.00035795879
0.00040149662
0.00044875184
0.00050467894
0.00052288917
0.00020086282
0.00021504231
0.0002418754
0.00027637512
0.0003153043
0.00035685224
0.00040066928
0.00044819903
0.00050436274
0.00052270991
0.00019955949
0.00021368785
0.00024048621
0.00027503945
0.00031412399
0.00035589935
0.00039997035
0.00044773881
0.00050409793
0.00052253958
0.00019832335
0.00021242466
0.00023922247
0.00027385436
0.00031310133
0.00035509257
0.00039939165
0.0004473643
0.00050388079
0.00052238027
0.00019716603
0.00021126048
0.00023808622
0.00027281651
0.00031222898
0.00035442248
0.00039892366
0.00044706783
0.00050370709
0.00052223342
0.00019609555
0.00021019997
0.00023707686
0.00027192029
0.0003114978
0.00035387836
0.00039855612
0.00044684131
0.0005035724
0.00052209985
0.00019511696
0.00020924508
0.00023619153
0.00027115832
0.00031089738
0.00035344874
0.00039827838
0.0004466766
0.00050347222
0.00052197993
0.00019423271
0.00020839551
0.00023542555
0.0002705219
0.00031041648
0.00035312176
0.00039807982
0.00044656568
0.00050340215
0.00052187362
0.00019344311
0.00020764909
0.00023477282
0.0002700014
0.00031004343
0.00035288556
0.00039795004
0.00044650089
0.00050335799
0.00052178061
0.00019274669
0.00020700208
0.00023422614
0.0002695866
0.00030976647
0.00035272856
0.00039787913
0.00044647502
0.0005033358
0.00052170037
0.00019214049
0.00020644958
0.00023377755
0.000269267
0.000309574
0.00035263963
0.00039785779
0.00044648142
0.00050333196
0.00052163221
0.00019162042
0.00020598573
0.0002334186
0.00026903212
0.00030945478
0.0003526083
0.00039787744
0.00044651405
0.00050334318
0.00052157533
0.00019118148
0.00020560404
0.00023314058
0.00026887162
0.00030939813
0.00035262482
0.00039793022
0.00044656744
0.00050336647
0.00052152884
0.00019081802
0.00020529759
0.00023293475
0.00026877554
0.00030939404
0.00035268026
0.00039800906
0.00044663674
0.00050339917
0.00052149181
0.00019052396
0.00020505922
0.00023279249
0.00026873438
0.00030943319
0.00035276648
0.00039810763
0.00044671763
0.0005034389
0.00052146329
0.00019029291
0.00020488169
0.00023270543
0.00026873923
0.00030950707
0.00035287619
0.00039822037
0.00044680638
0.0005034836
0.00052144233
0.00019011842
0.00020475784
0.00023266556
0.00026878182
0.00030960797
0.00035300296
0.00039834242
0.00044689976
0.00050353148
0.000521428
0.00018999404
0.00020468071
0.00023266535
0.0002688546
0.00030972905
0.00035314115
0.00039846965
0.00044699507
0.000503581
0.00052141942
0.00018991345
0.00020464362
0.00023269781
0.00026895074
0.00030986424
0.00035328592
0.00039859856
0.00044709005
0.00050363091
0.00052141573
0.0001898706
0.00020464029
0.00023275651
0.00026906413
0.00031000828
0.00035343316
0.00039872623
0.00044718283
0.00050368012
0.00052141614
0.0001898597
0.00020466482
0.0002328356
0.00026918942
0.00031015667
0.00035357943
0.0003988503
0.00044727193
0.00050372776
0.00052141991
0.00018987535
0.0002047118
0.00023292988
0.00026932191
0.00031030558
0.00035372191
0.00039896886
0.00044735618
0.00050377313
0.00052142636
0.00018991256
0.00020477631
0.0002330347
0.00026945762
0.00031045189
0.00035385835
0.00039908048
0.00044743474
0.00050381573
0.00052143488
0.00018996676
0.00020485392
0.00023314606
0.00026959319
0.00031059304
0.00035398705
0.00039918411
0.00044750696
0.00050385483
0.0005214449
0.00019003385
0.00020494074
0.00023326053
0.00026972588
0.00031072709
0.00035410675
0.00039927904
0.00044757232
0.00050388998
0.00052145589
0.00019011019
0.00020503338
0.00023337521
0.00026985349
0.00031085256
0.00035421662
0.00039936477
0.0004476305
0.00050392131
0.00052146747
0.00019019261
0.00020512892
0.00023348775
0.00026997434
0.00031096844
0.00035431611
0.00039944104
0.00044768162
0.00050394908
0.00052147931
0.00019027835
0.00020522491
0.00023359622
0.00027008716
0.00031107401
0.00035440489
0.00039950792
0.00044772605
0.00050397348
0.00052149116
0.00019036509
0.00020531931
0.00023369914
0.00027019104
0.00031116884
0.00035448296
0.00039956581
0.00044776415
0.00050399465
0.00052150279
0.00019045087
0.00020541047
0.00023379536
0.00027028533
0.00031125277
0.00035455067
0.00039961517
0.00044779631
0.00050401277
0.00052151399
0.00019053408
0.00020549706
0.00023388399
0.00027036969
0.00031132602
0.00035460847
0.00039965651
0.00044782293
0.00050402801
0.00052152459
0.00019061341
0.00020557803
0.00023396448
0.00027044413
0.00031138897
0.00035465695
0.00039969043
0.00044784446
0.00050404055
0.00052153449
0.00019068786
0.00020565265
0.00023403658
0.00027050887
0.00031144217
0.00035469678
0.00039971756
0.00044786137
0.00050405064
0.00052154361
0.00019075671
0.00020572048
0.00023410028
0.00027056431
0.00031148628
0.00035472871
0.00039973858
0.00044787416
0.00050405853
0.00052155189
0.00019081952
0.00020578131
0.00023415578
0.00027061098
0.00031152204
0.00035475354
0.00039975419
0.00044788334
0.00050406446
0.00052155935
0.00019087608
0.00020583516
0.00023420341
0.00027064952
0.00031155026
0.00035477206
0.00039976507
0.0004478894
0.00050406869
0.00052156598
0.00019092635
0.00020588217
0.00023424363
0.00027068062
0.00031157173
0.00035478506
0.00039977188
0.0004478928
0.00050407145
0.00052157181
0.00019097044
0.00020592261
0.00023427695
0.000270705
0.00031158724
0.00035479327
0.00039977522
0.00044789394
0.00050407295
0.00052157686
0.00019100855
0.00020595685
0.00023430393
0.00027072337
0.00031159754
0.00035479738
0.00039977562
0.00044789319
0.00050407336
0.00052158115
0.00019104098
0.00020598529
0.00023432515
0.00027073642
0.00031160335
0.00035479803
0.0003997736
0.00044789089
0.00050407284
0.00052158473
0.00019106808
0.00020600838
0.00023434121
0.00027074483
0.00031160533
0.0003547958
0.00039976959
0.00044788734
0.00050407157
0.00052158764
0.00019109026
0.00020602663
0.0002343527
0.00027074925
0.00031160414
0.00035479125
0.00039976404
0.00044788283
0.00050406971
0.00052158993
0.00019110795
0.00020604052
0.00023436023
0.00027075033
0.00031160037
0.0003547849
0.00039975735
0.00044787764
0.0005040674
0.00052159169
0.00019112163
0.00020605059
0.00023436437
0.00027074868
0.0003115946
0.00035477724
0.00039974989
0.00044787202
0.00050406481
0.00052159298
0.00019113178
0.00020605736
0.00023436569
0.00027074485
0.00031158734
0.0003547687
0.00039974199
0.00044786622
0.00050406208
0.00052159389
0.00019113887
0.00020606134
0.00023436473
0.00027073938
0.00031157908
0.00035475967
0.00039973395
0.00044786042
0.00050405929
0.00052159447
0.00019114337
0.000206063
0.00023436196
0.00027073272
0.0003115702
0.00035475047
0.00039972598
0.00044785476
0.00050405655
0.00052159479
0.00019114569
0.00020606276
0.00023435781
0.00027072525
0.00031156103
0.00035474133
0.00039971826
0.00044784934
0.00050405389
0.00052159489
0.00019114621
0.000206061
0.00023435263
0.0002707173
0.00031155182
0.00035473245
0.00039971091
0.00044784424
0.00050405136
0.00052159481
0.00019114525
0.00020605804
0.00023434674
0.00027070913
0.00031154278
0.00035472396
0.000399704
0.00044783948
0.00050404896
0.00052159456
0.0001911431
0.00020605417
0.00023434037
0.00027070093
0.00031153405
0.00035471595
0.00039969759
0.00044783509
0.00050404672
0.00052159418
0.00019114001
0.00020604962
0.00023433376
0.0002706929
0.00031152577
0.0003547085
0.00039969169
0.00044783107
0.00050404461
0.00052159369
)
;

boundaryField
{
    water_inlet
    {
        type            turbulentIntensityKineticEnergyInlet;
        intensity       0.05;
        value           uniform 0.000234375;
    }
    water_outlet
    {
        type            inletOutlet;
        inletValue      uniform 0.0001;
        value           nonuniform List<scalar> 10(0.00019114001 0.00020604962 0.00023433376 0.0002706929 0.00031152577 0.0003547085 0.00039969169 0.00044783107 0.00050404461 0.00052159369);
    }
    water_wedge1
    {
        type            wedge;
    }
    water_wedge2
    {
        type            wedge;
    }
    water_to_rock
    {
        type            kqRWallFunction;
        value           nonuniform List<scalar> 
100
(
0.00048657967
0.00057072179
0.00057180213
0.00054812318
0.00052456976
0.00050861042
0.00050003841
0.00049629338
0.00049505678
0.00049493727
0.0004952802
0.00049583491
0.00049652595
0.00049733745
0.00049826635
0.0004993073
0.000500445
0.00050166206
0.00050294679
0.00050428936
0.00050567932
0.00050710516
0.00050855489
0.00051001619
0.00051147637
0.00051292195
0.0005143382
0.0005157089
0.00051701654
0.00051824321
0.00051937181
0.00052038755
0.00052127921
0.00052204009
0.0005226684
0.0005231671
0.00052354333
0.00052380744
0.00052397201
0.00052405072
0.00052405755
0.00052400601
0.00052390868
0.00052377694
0.00052361994
0.0005234456
0.00052326159
0.00052307439
0.00052288917
0.00052270991
0.00052253958
0.00052238027
0.00052223342
0.00052209985
0.00052197993
0.00052187362
0.00052178061
0.00052170037
0.00052163221
0.00052157533
0.00052152884
0.00052149181
0.00052146329
0.00052144233
0.000521428
0.00052141942
0.00052141573
0.00052141614
0.00052141991
0.00052142636
0.00052143488
0.0005214449
0.00052145589
0.00052146747
0.00052147931
0.00052149116
0.00052150279
0.00052151399
0.00052152459
0.00052153449
0.00052154361
0.00052155189
0.00052155935
0.00052156598
0.00052157181
0.00052157686
0.00052158115
0.00052158473
0.00052158764
0.00052158993
0.00052159169
0.00052159298
0.00052159389
0.00052159447
0.00052159479
0.00052159489
0.00052159481
0.00052159456
0.00052159418
0.00052159369
)
;
    }
}


// ************************************************************************* //
