/*--------------------------------*- C++ -*----------------------------------*\
| =========                 |                                                 |
| \\      /  F ield         | OpenFOAM: The Open Source CFD Toolbox           |
|  \\    /   O peration     | Version:  2506                                  |
|   \\  /    A nd           | Website:  www.openfoam.com                      |
|    \\/     M anipulation  |                                                 |
\*---------------------------------------------------------------------------*/
FoamFile
{
    version     2.0;
    format      ascii;
    arch        "LSB;label=32;scalar=64";
    class       volScalarField;
    location    "22000/water";
    object      nut;
}
// * * * * * * * * * * * * * * * * * * * * * * * * * * * * * * * * * * * * * //

dimensions      [0 2 -1 0 0 0 0];

internalField   nonuniform List<scalar> 
1000
(
3.8760013e-05
3.8759344e-05
3.875781e-05
3.8749425e-05
3.8703919e-05
3.8465194e-05
3.7257946e-05
3.1920746e-05
1.9133704e-05
1.6330702e-05
3.6503362e-05
3.6502673e-05
3.6496232e-05
3.646333e-05
3.6309099e-05
3.5625575e-05
3.285782e-05
2.4520504e-05
1.467067e-05
1.7686427e-05
3.4818769e-05
3.4815355e-05
3.4798028e-05
3.4720761e-05
3.4400236e-05
3.3155723e-05
2.8966458e-05
2.0114713e-05
1.4313142e-05
1.7703159e-05
3.3515366e-05
3.3507685e-05
3.3473492e-05
3.3336597e-05
3.2819811e-05
3.0995905e-05
2.5816364e-05
1.8304925e-05
1.5980759e-05
1.7332729e-05
3.2476791e-05
3.2463574e-05
3.2409015e-05
3.2208505e-05
3.149414e-05
2.9122859e-05
2.3598724e-05
1.8669573e-05
1.8895621e-05
1.6956238e-05
3.1628598e-05
3.1609534e-05
3.1536362e-05
3.1282474e-05
3.0382824e-05
2.7534897e-05
2.2595914e-05
2.0841329e-05
2.2319086e-05
1.6696313e-05
3.0922115e-05
3.0899106e-05
3.0816963e-05
3.053289e-05
2.945507e-05
2.6339589e-05
2.3103451e-05
2.4287618e-05
2.5587407e-05
1.6555014e-05
3.0325436e-05
3.0303991e-05
3.0232565e-05
2.9948363e-05
2.869589e-05
2.5833844e-05
2.5183763e-05
2.83315e-05
2.8356017e-05
1.6492901e-05
2.9818406e-05
2.9809194e-05
2.9779266e-05
2.9521767e-05
2.8157787e-05
2.6404738e-05
2.8559872e-05
3.2392893e-05
3.057426e-05
1.6472344e-05
2.9389965e-05
2.9410471e-05
2.9462815e-05
2.9249436e-05
2.8031614e-05
2.8288429e-05
3.274031e-05
3.614579e-05
3.2325784e-05
1.6470358e-05
2.903702e-05
2.9113049e-05
2.9294104e-05
2.9152166e-05
2.8635194e-05
3.1431727e-05
3.7231772e-05
3.9484735e-05
3.3719886e-05
1.6476061e-05
2.8764323e-05
2.8930787e-05
2.9285916e-05
2.9323275e-05
3.0269883e-05
3.5542573e-05
4.1683745e-05
4.2417948e-05
3.4850502e-05
1.6485283e-05
2.8585092e-05
2.8885088e-05
2.9456468e-05
2.9967021e-05
3.3062356e-05
4.0233871e-05
4.5910736e-05
4.4991547e-05
3.5787817e-05
1.6496766e-05
2.8522069e-05
2.9003177e-05
2.9849443e-05
3.1360366e-05
3.6918702e-05
4.5156786e-05
4.984127e-05
4.725735e-05
3.6581213e-05
1.6510243e-05
2.8608612e-05
2.9316825e-05
3.0571149e-05
3.3736654e-05
4.1586921e-05
5.006718e-05
5.3461913e-05
4.9262627e-05
3.726484e-05
1.6525656e-05
2.8889262e-05
2.9866087e-05
3.1814756e-05
3.7181004e-05
4.6760457e-05
5.4824647e-05
5.6783871e-05
5.10473e-05
3.7861831e-05
1.6542908e-05
2.9419556e-05
3.0715827e-05
3.3825324e-05
4.1605964e-05
5.2164866e-05
5.9359618e-05
5.9827178e-05
5.2642507e-05
3.8381998e-05
1.6561743e-05
3.026672e-05
3.1985595e-05
3.6807916e-05
4.6798754e-05
5.7598904e-05
6.3641757e-05
6.2613374e-05
5.4068847e-05
3.8841653e-05
1.6581869e-05
3.1517081e-05
3.3868934e-05
4.0842557e-05
5.2497749e-05
6.2933747e-05
6.7660608e-05
6.5161151e-05
5.5349592e-05
3.9251453e-05
1.6603089e-05
3.3297149e-05
3.6603485e-05
4.5858015e-05
5.8459055e-05
6.8092542e-05
7.1415621e-05
6.7489075e-05
5.6504187e-05
3.9619182e-05
1.6625235e-05
3.5799755e-05
4.0389446e-05
5.1664281e-05
6.4491155e-05
7.3029194e-05
7.4907603e-05
6.961764e-05
5.7547452e-05
3.9950817e-05
1.6648131e-05
3.9277327e-05
4.530708e-05
5.8014307e-05
7.0457567e-05
7.7711583e-05
7.8146494e-05
7.1563741e-05
5.8491296e-05
4.0250694e-05
1.6671586e-05
4.3968374e-05
5.1283246e-05
6.4662274e-05
7.6261133e-05
8.212146e-05
8.1143199e-05
7.334098e-05
5.9345e-05
4.052191e-05
1.6695401e-05
4.9983548e-05
5.8114742e-05
7.1396568e-05
8.1830253e-05
8.6249856e-05
8.3906103e-05
7.495989e-05
6.0115467e-05
4.0766576e-05
1.6719371e-05
5.7224613e-05
6.5522917e-05
7.8046449e-05
8.7114366e-05
9.0089974e-05
8.6440666e-05
7.6427855e-05
6.0807447e-05
4.0985968e-05
1.6743288e-05
6.5386851e-05
7.3208949e-05
8.4484968e-05
9.2075818e-05
9.3633449e-05
8.8748981e-05
7.7749171e-05
6.1423729e-05
4.1180633e-05
1.6766931e-05
7.4040703e-05
8.0900195e-05
9.0617348e-05
9.6681413e-05
9.6870055e-05
9.0829899e-05
7.8925307e-05
6.1965357e-05
4.1350487e-05
1.6790061e-05
8.2742082e-05
8.8366562e-05
9.6367182e-05
0.00010090224
9.9788641e-05
9.2679877e-05
7.9955517e-05
6.2432004e-05
4.1494955e-05
1.6812418e-05
9.1117876e-05
9.5425975e-05
0.00010167339
0.00010471487
0.00010237906
9.4294538e-05
8.0837887e-05
6.2822555e-05
4.1613206e-05
1.683372e-05
9.8903874e-05
0.00010194514
0.00010649032
0.00010810322
0.00010463454
9.5670689e-05
8.1570721e-05
6.3135901e-05
4.1704474e-05
1.6853679e-05
0.00010594354
0.00010783755
0.00011078875
0.00011106024
0.00010655388
9.6808291e-05
8.2153999e-05
6.3371802e-05
4.1768399e-05
1.6872022e-05
0.00011216691
0.0001130587
0.00011455632
0.00011358877
0.00010814276
9.7711908e-05
8.2590532e-05
6.3531598e-05
4.1805327e-05
1.6888512e-05
0.00011756514
0.00011759908
0.00011779675
0.00011570138
0.00010941404
9.8391319e-05
8.2886594e-05
6.361864e-05
4.1816472e-05
1.6902973e-05
0.00012216853
0.00012147596
0.0001205277
0.00011741921
0.00011038715
9.8861317e-05
8.3051955e-05
6.3638351e-05
4.1803939e-05
1.6915303e-05
0.00012603033
0.00012472552
0.00012277796
0.00011877026
0.00011108673
9.9140878e-05
8.3099415e-05
6.3597991e-05
4.1770603e-05
1.6925478e-05
0.00012921567
0.00012739596
0.00012458432
0.00011978739
0.00011154113
9.9251989e-05
8.304403e-05
6.3506193e-05
4.1719903e-05
1.6933551e-05
0.00013179453
0.00012954213
0.00012598861
0.00012050646
0.00011178078
9.9218381e-05
8.2902198e-05
6.3372403e-05
4.1655583e-05
1.6939639e-05
0.00013383725
0.00013122153
0.00012703516
0.00012096452
0.0001118368
9.9064322e-05
8.269075e-05
6.3206304e-05
4.158144e-05
1.6943913e-05
0.00013541187
0.00013249147
0.00012776875
0.00012119847
0.00011173976
9.8813586e-05
8.2426135e-05
6.301729e-05
4.1501096e-05
1.6946574e-05
0.00013658252
0.00013340718
0.00012823307
0.00012124389
0.00011151878
9.8488621e-05
8.2123767e-05
6.2814047e-05
4.1417824e-05
1.6947847e-05
0.00013740852
0.00013402058
0.0001284696
0.00012113423
0.00011120083
9.8109965e-05
8.1797552e-05
6.260426e-05
4.1334432e-05
1.6947957e-05
0.00013794392
0.00013437951
0.00012851683
0.00012090026
0.00011081031
9.7695878e-05
8.1459608e-05
6.239445e-05
4.1253214e-05
1.6947123e-05
0.00013823738
0.00013452742
0.00012840988
0.00012056975
0.00011036885
9.7262174e-05
8.1120154e-05
6.2189921e-05
4.1175942e-05
1.6945549e-05
0.00013833223
0.00013450322
0.0001281803
0.00012016739
0.00010989523
9.6822217e-05
8.0787526e-05
6.1994797e-05
4.1103896e-05
1.6943419e-05
0.00013826676
0.00013434142
0.00012785609
0.00011971476
0.00010940545
9.6386973e-05
8.0468183e-05
6.1811848e-05
4.1036841e-05
1.694088e-05
0.00013807447
0.00013407232
0.00012746174
0.00011923046
0.00010891287
9.5965122e-05
8.0166736e-05
6.1642138e-05
4.097591e-05
1.6938059e-05
0.00013778447
0.00013372226
0.00012701848
0.00011873025
0.00010842829
9.5563121e-05
7.9885729e-05
6.1487756e-05
4.0921577e-05
1.6935082e-05
0.00013742183
0.00013331392
0.00012654437
0.00011822715
0.0001079601
9.5185127e-05
7.9628288e-05
6.1349498e-05
4.0874004e-05
1.6932052e-05
0.00013700798
0.00013286659
0.00012605459
0.00011773161
0.0001075142
9.4835421e-05
7.9395857e-05
6.1227579e-05
4.0833106e-05
1.6929054e-05
0.00013656094
0.0001323964
0.00012556138
0.00011725154
0.0001070963
9.4516401e-05
7.9188964e-05
6.1121754e-05
4.079861e-05
1.6926153e-05
0.00013609559
0.00013191649
0.00012507483
0.00011679429
0.00010671009
9.4229274e-05
7.9007432e-05
6.1031414e-05
4.0770112e-05
1.6923395e-05
0.00013562424
0.00013143803
0.00012460368
0.00011636514
0.00010635787
9.3974316e-05
7.8850532e-05
6.0955689e-05
4.074713e-05
1.6920815e-05
0.0001351573
0.00013097036
0.00012415471
0.00011596781
0.00010604082
9.3751054e-05
7.8717118e-05
6.0893528e-05
4.0729138e-05
1.6918437e-05
0.00013470326
0.00013052089
0.000123733
0.00011560471
0.00010575914
9.3558424e-05
7.8605737e-05
6.0843771e-05
4.0715596e-05
1.6916273e-05
0.00013426883
0.00013009535
0.00012334218
0.00011527709
0.00010551229
9.3394899e-05
7.8514717e-05
6.080519e-05
4.0705963e-05
1.6914329e-05
0.00013385918
0.00012969798
0.00012298461
0.00011498529
0.00010529907
9.3258606e-05
7.8442248e-05
6.0776542e-05
4.0699714e-05
1.6912607e-05
0.00013347803
0.00012933169
0.00012266157
0.00011472882
0.00010511783
9.3147431e-05
7.8386452e-05
6.0756594e-05
4.0696347e-05
1.69111e-05
0.00013312793
0.00012899828
0.00012237339
0.00011450659
0.00010496652
9.3059121e-05
7.8345442e-05
6.0744159e-05
4.0695397e-05
1.69098e-05
0.00013281033
0.00012869858
0.0001221197
0.000114317
0.00010484286
9.2991356e-05
7.8317371e-05
6.0738116e-05
4.0696435e-05
1.6908695e-05
0.00013252581
0.00012843261
0.00012189949
0.00011415807
0.00010474443
9.2941825e-05
7.830047e-05
6.0737422e-05
4.0699076e-05
1.6907773e-05
0.00013227423
0.00012819975
0.00012171127
0.0001140276
0.00010466872
9.2908263e-05
7.8293068e-05
6.0741121e-05
4.0702972e-05
1.690702e-05
0.00013205482
0.00012799884
0.00012155318
0.00011392316
0.00010461323
9.2888494e-05
7.8293605e-05
6.0748342e-05
4.0707818e-05
1.6906419e-05
0.00013186633
0.0001278283
0.00012142311
0.00011384228
0.00010457548
9.2880447e-05
7.8300639e-05
6.0758301e-05
4.0713342e-05
1.6905957e-05
0.0001317071
0.00012768621
0.00012131873
0.0001137824
0.00010455307
9.2882185e-05
7.8312858e-05
6.0770302e-05
4.0719309e-05
1.6905617e-05
0.00013157522
0.00012757045
0.00012123763
0.00011374102
0.00010454373
9.2891922e-05
7.8329081e-05
6.0783731e-05
4.0725518e-05
1.6905385e-05
0.00013146855
0.00012747873
0.00012117733
0.0001137157
0.00010454531
9.290803e-05
7.8348264e-05
6.0798061e-05
4.0731802e-05
1.6905246e-05
0.00013138482
0.00012740868
0.0001211354
0.0001137041
0.00010455585
9.292905e-05
7.8369489e-05
6.0812843e-05
4.073802e-05
1.6905186e-05
0.00013132171
0.00012735791
0.00012110945
0.00011370404
0.00010457353
9.295368e-05
7.8391965e-05
6.0827698e-05
4.0744061e-05
1.6905193e-05
0.00013127687
0.00012732406
0.00012109717
0.00011371347
0.00010459673
9.2980774e-05
7.8415009e-05
6.0842312e-05
4.0749833e-05
1.6905254e-05
0.000131248
0.00012730483
0.00012109639
0.0001137305
0.00010462399
9.3009334e-05
7.8438048e-05
6.0856428e-05
4.0755266e-05
1.6905359e-05
0.00013123286
0.00012729803
0.00012110508
0.00011375341
0.000104654
9.3038507e-05
7.8460606e-05
6.0869844e-05
4.076031e-05
1.6905497e-05
0.00013122933
0.00012730157
0.00012112138
0.0001137807
0.00010468567
9.3067583e-05
7.8482302e-05
6.0882399e-05
4.0764885e-05
1.690566e-05
0.00013123542
0.00012731357
0.00012114359
0.00011381101
0.00010471805
9.3095983e-05
7.8502837e-05
6.0893947e-05
4.0768973e-05
1.6905838e-05
0.00013124932
0.00012733228
0.00012117022
0.00011384321
0.00010475035
9.3123242e-05
7.8521963e-05
6.0904427e-05
4.0772597e-05
1.6906025e-05
0.00013126938
0.00012735614
0.00012119996
0.0001138763
0.00010478194
9.3148981e-05
7.8539532e-05
6.091384e-05
4.0775777e-05
1.6906217e-05
0.00013129412
0.00012738378
0.00012123166
0.00011390945
0.00010481226
9.3172927e-05
7.8555495e-05
6.0922195e-05
4.0778537e-05
1.6906409e-05
0.0001313222
0.00012741395
0.00012126431
0.00011394194
0.00010484089
9.3194937e-05
7.8569815e-05
6.0929515e-05
4.07809e-05
1.6906597e-05
0.00013135244
0.00012744557
0.00012129702
0.00011397318
0.00010486757
9.3214902e-05
7.858249e-05
6.0935836e-05
4.078289e-05
1.6906779e-05
0.0001313838
0.00012747767
0.00012132907
0.00011400276
0.00010489207
9.3232765e-05
7.8593547e-05
6.0941205e-05
4.0784533e-05
1.6906951e-05
0.00013141536
0.00012750947
0.00012135992
0.00011403034
0.00010491427
9.3248519e-05
7.8603038e-05
6.0945677e-05
4.0785856e-05
1.6907112e-05
0.0001314464
0.00012754033
0.0001213891
0.0001140557
0.00010493411
9.3262209e-05
7.8611043e-05
6.0949318e-05
4.0786887e-05
1.690726e-05
0.00013147635
0.00012756977
0.00012141632
0.00011407869
0.0001049516
9.3273921e-05
7.8617666e-05
6.0952204e-05
4.0787658e-05
1.6907395e-05
0.00013150478
0.00012759744
0.00012144135
0.00011409928
0.0001049668
9.3283779e-05
7.8623026e-05
6.0954416e-05
4.0788202e-05
1.6907516e-05
0.00013153138
0.00012762308
0.00012146409
0.00011411749
0.00010497983
9.3291926e-05
7.8627251e-05
6.0956038e-05
4.0788552e-05
1.6907623e-05
0.00013155595
0.00012764655
0.0001214845
0.00011413338
0.00010499083
9.3298516e-05
7.8630467e-05
6.0957147e-05
4.0788738e-05
1.6907717e-05
0.00013157837
0.00012766778
0.00012150259
0.00011414706
0.00010499994
9.3303698e-05
7.8632795e-05
6.0957816e-05
4.0788786e-05
1.6907798e-05
0.00013159859
0.00012768675
0.00012151841
0.00011415865
0.00010500731
9.3307616e-05
7.8634343e-05
6.0958107e-05
4.0788719e-05
1.6907868e-05
0.00013161659
0.00012770347
0.00012153204
0.00011416827
0.0001050131
9.3310407e-05
7.863521e-05
6.0958078e-05
4.0788557e-05
1.6907926e-05
0.00013163239
0.00012771799
0.00012154358
0.00011417606
0.00010501745
9.3312203e-05
7.8635492e-05
6.0957781e-05
4.0788318e-05
1.6907973e-05
0.00013164606
0.0001277304
0.00012155316
0.00011418218
0.00010502052
9.3313138e-05
7.8635283e-05
6.0957265e-05
4.0788019e-05
1.690801e-05
0.00013165771
0.00012774084
0.00012156093
0.00011418681
0.00010502249
9.3313348e-05
7.8634674e-05
6.0956582e-05
4.0787676e-05
1.6908038e-05
0.00013166748
0.00012774946
0.00012156708
0.00011419014
0.00010502352
9.3312971e-05
7.863376e-05
6.095578e-05
4.0787308e-05
1.6908059e-05
0.00013167557
0.00012775646
0.00012157182
0.00011419236
0.00010502379
9.3312139e-05
7.8632627e-05
6.0954905e-05
4.0786928e-05
1.6908072e-05
0.00013168216
0.00012776203
0.00012157534
0.00011419367
0.00010502345
9.3310976e-05
7.8631355e-05
6.0953998e-05
4.0786551e-05
1.6908081e-05
0.00013168747
0.00012776638
0.00012157783
0.00011419424
0.00010502266
9.3309585e-05
7.8630007e-05
6.0953089e-05
4.0786187e-05
1.6908085e-05
0.00013169167
0.00012776969
0.00012157948
0.00011419421
0.00010502153
9.3308051e-05
7.8628635e-05
6.0952204e-05
4.0785843e-05
1.6908086e-05
0.00013169492
0.00012777213
0.00012158043
0.00011419373
0.00010502016
9.3306436e-05
7.8627273e-05
6.0951356e-05
4.0785522e-05
1.6908084e-05
0.00013169736
0.00012777381
0.0001215808
0.00011419288
0.00010501862
9.3304788e-05
7.8625946e-05
6.0950555e-05
4.0785226e-05
1.690808e-05
0.00013169907
0.00012777484
0.00012158068
0.00011419175
0.00010501697
9.3303144e-05
7.8624671e-05
6.0949805e-05
4.0784955e-05
1.6908074e-05
0.00013170015
0.00012777531
0.00012158016
0.0001141904
0.00010501526
9.3301531e-05
7.862346e-05
6.0949109e-05
4.0784707e-05
1.6908067e-05
)
;

boundaryField
{
    water_inlet
    {
        type            calculated;
        value           uniform 4.1926275e-05;
    }
    water_outlet
    {
        type            calculated;
        value           nonuniform List<scalar> 10(0.00013170015 0.00012777531 0.00012158016 0.0001141904 0.00010501526 9.3301531e-05 7.862346e-05 6.0949109e-05 4.0784707e-05 1.6908067e-05);
    }
    water_wedge1
    {
        type            wedge;
    }
    water_wedge2
    {
        type            wedge;
    }
    water_to_rock
    {
        type            nutkWallFunction;
        blending        stepwise;
        value           nonuniform List<scalar> 
100
(
1.7358471e-06
1.9240026e-06
1.9263124e-06
1.8751056e-06
1.8229114e-06
1.7867867e-06
1.767118e-06
1.758465e-06
1.7555997e-06
1.7553225e-06
1.7561177e-06
1.7574032e-06
1.7590034e-06
1.7608811e-06
1.7630282e-06
1.7654317e-06
1.7680553e-06
1.7708581e-06
1.7738126e-06
1.7768956e-06
1.7800825e-06
1.7833465e-06
1.7866599e-06
1.7899943e-06
1.7933208e-06
1.7966086e-06
1.7998247e-06
1.8029326e-06
1.8058931e-06
1.8086665e-06
1.8112148e-06
1.8135057e-06
1.8155146e-06
1.8172273e-06
1.8186405e-06
1.8197616e-06
1.8206069e-06
1.8212001e-06
1.8215696e-06
1.8217464e-06
1.8217617e-06
1.821646e-06
1.8214274e-06
1.8211316e-06
1.820779e-06
1.8203873e-06
1.8199739e-06
1.8195532e-06
1.8191369e-06
1.8187339e-06
1.8183509e-06
1.8179926e-06
1.8176623e-06
1.8173618e-06
1.8170919e-06
1.8168527e-06
1.8166434e-06
1.8164628e-06
1.8163093e-06
1.8161813e-06
1.8160766e-06
1.8159933e-06
1.8159291e-06
1.8158819e-06
1.8158496e-06
1.8158303e-06
1.815822e-06
1.8158229e-06
1.8158314e-06
1.8158459e-06
1.8158651e-06
1.8158876e-06
1.8159124e-06
1.8159385e-06
1.8159651e-06
1.8159918e-06
1.816018e-06
1.8160432e-06
1.8160671e-06
1.8160894e-06
1.8161099e-06
1.8161285e-06
1.8161453e-06
1.8161603e-06
1.8161734e-06
1.8161847e-06
1.8161944e-06
1.8162025e-06
1.816209e-06
1.8162142e-06
1.8162181e-06
1.816221e-06
1.8162231e-06
1.8162244e-06
1.8162251e-06
1.8162253e-06
1.8162251e-06
1.8162246e-06
1.8162237e-06
1.8162226e-06
)
;
    }
}


// ************************************************************************* //
