/*--------------------------------*- C++ -*----------------------------------*\
| =========                 |                                                 |
| \\      /  F ield         | OpenFOAM: The Open Source CFD Toolbox           |
|  \\    /   O peration     | Version:  2506                                  |
|   \\  /    A nd           | Website:  www.openfoam.com                      |
|    \\/     M anipulation  |                                                 |
\*---------------------------------------------------------------------------*/
FoamFile
{
    version     2.0;
    format      ascii;
    arch        "LSB;label=32;scalar=64";
    class       volVectorField;
    location    "22000/water";
    object      U;
}
// * * * * * * * * * * * * * * * * * * * * * * * * * * * * * * * * * * * * * //

dimensions      [0 1 -1 0 0 0 0];

internalField   nonuniform List<vector> 
1000
(
(0.25225587 -0.00012859766 2.1731998e-18)
(0.25226258 -0.00027067835 1.3172744e-18)
(0.25227485 -0.00041450539 2.1106499e-18)
(0.25228819 -0.00055572715 5.3515659e-19)
(0.25229018 -0.00068575788 4.0699437e-19)
(0.25223998 -0.00079863171 -9.2923649e-21)
(0.25200713 -0.00089615193 -6.7419969e-20)
(0.25115686 -0.0010460356 -2.493015e-19)
(0.24780473 -0.0012820719 -1.106737e-19)
(0.23308261 0.0010121611 -2.6431576e-19)
(0.25653043 -7.7330439e-05 6.4722258e-19)
(0.25653977 -0.00018903828 1.7155977e-18)
(0.25655871 -0.00029096533 2.3826927e-18)
(0.25657276 -0.00039024482 7.1108564e-19)
(0.25654377 -0.00048175032 3.072653e-19)
(0.25636039 -0.00055898434 1.3806602e-19)
(0.25570613 -0.00060536485 -4.7957809e-20)
(0.25355952 -0.00065441344 -4.252489e-19)
(0.24574266 -0.00084724754 -2.1952771e-19)
(0.21968686 0.00025718816 -3.7230384e-19)
(0.26021787 -7.3909962e-05 -1.6188047e-18)
(0.26022468 -0.00018059828 1.0888098e-19)
(0.26023383 -0.00027741903 7.6862147e-19)
(0.26021807 -0.00037159731 6.6359048e-19)
(0.26010153 -0.00045735755 -3.3356047e-20)
(0.25968006 -0.00053044565 -1.1189694e-19)
(0.25840621 -0.00057093028 -1.6143033e-19)
(0.25452353 -0.00056554623 -4.0671877e-19)
(0.24186464 -0.00061987559 -4.2957658e-19)
(0.20839343 1.1253336e-05 -4.0263137e-19)
(0.26340526 -6.8946e-05 8.5209737e-20)
(0.26340956 -0.0001705851 6.3858692e-19)
(0.26340597 -0.0002627923 9.8819412e-19)
(0.2633478 -0.00035138367 8.8084106e-19)
(0.26310913 -0.00042951133 1.4234055e-19)
(0.26237281 -0.00049394971 -3.7814831e-19)
(0.26030371 -0.00052750919 -2.8162838e-19)
(0.25430844 -0.00049289772 -3.5197251e-19)
(0.23723184 -0.00045934069 -4.0804959e-19)
(0.19958848 -4.8875592e-05 -3.0271277e-19)
(0.26641628 -6.4388987e-05 -1.2554204e-18)
(0.26641555 -0.0001594688 1.4976675e-18)
(0.266392 -0.00024539868 9.2129737e-19)
(0.26627267 -0.00032748782 7.2365476e-19)
(0.26586988 -0.00039791775 2.7025772e-19)
(0.26472852 -0.00045250673 2.92448e-19)
(0.26164538 -0.00047360933 2.1547064e-20)
(0.25321243 -0.00041483889 -2.4067276e-19)
(0.23271017 -0.00033459319 -3.4812181e-19)
(0.19329523 -5.0633936e-05 -3.5494919e-19)
(0.26927574 -6.0867496e-05 3.6326546e-19)
(0.26926716 -0.00015024323 9.5092463e-19)
(0.26921481 -0.00023070438 4.122538e-19)
(0.26901237 -0.00030702734 2.6878551e-19)
(0.26839647 -0.00037050013 7.6110379e-20)
(0.26673517 -0.00041493296 4.4677063e-19)
(0.26236787 -0.00041871977 3.7352162e-20)
(0.25136276 -0.00033835236 -1.5266388e-19)
(0.22869803 -0.00023663099 -2.3258867e-19)
(0.18902133 -3.9496002e-05 -3.4080884e-19)
(0.27197991 -5.8057462e-05 2.9193891e-18)
(0.27196007 -0.0001428712 2.0013775e-18)
(0.27186829 -0.00021894811 -1.0297652e-19)
(0.2715565 -0.00029030322 3.4989629e-19)
(0.27066608 -0.00034728954 1.703328e-19)
(0.26833153 -0.00038068247 1.3929099e-19)
(0.2623985 -0.00036437244 -1.2713338e-19)
(0.24902639 -0.00026852487 -1.5932243e-19)
(0.22536099 -0.00016272753 -1.4232595e-19)
(0.18616825 -2.8774301e-05 -3.162468e-19)
(0.27455816 -5.5861799e-05 -4.184192e-19)
(0.2745228 -0.00013703201 1.4862071e-18)
(0.27437848 -0.00020952 2.7434366e-19)
(0.27392442 -0.00027640477 6.6177782e-19)
(0.27267857 -0.00032682046 4.7207331e-19)
(0.26947686 -0.00034738349 4.6715076e-19)
(0.26178466 -0.00031092562 7.4559064e-20)
(0.24657379 -0.00020816744 -1.4737362e-19)
(0.22271519 -0.00011049997 -2.5918044e-19)
(0.18425839 -2.0836013e-05 -2.672334e-19)
(0.27704027 -5.4085764e-05 -1.3979241e-19)
(0.27698407 -0.00013225443 5.6135342e-19)
(0.27677057 -0.00020162583 1.2716492e-18)
(0.2761317 -0.00026417299 2.6452485e-19)
(0.27442312 -0.00030720588 1.7823138e-19)
(0.27014171 -0.00031294772 1.1657182e-19)
(0.26068996 -0.00025925807 1.7104396e-20)
(0.24429831 -0.00015836503 -3.8114545e-20)
(0.22067583 -7.5409071e-05 1.0286998e-19)
(0.18296201 -1.5153786e-05 5.0213395e-21)
(0.2794434 -5.2555792e-05 3.2347974e-18)
(0.27935955 -0.00012814145 2.243291e-18)
(0.27905543 -0.00019460769 6.196829e-19)
(0.27817575 -0.00025259264 4.0308423e-20)
(0.27586796 -0.00028673495 1.1043346e-19)
(0.27032642 -0.00027659291 -2.1804743e-19)
(0.259335 -0.00021094185 -1.5576234e-19)
(0.24234214 -0.00011891426 -5.1141578e-20)
(0.21912382 -5.2173877e-05 -7.1736036e-20)
(0.182066 -1.0946854e-05 -1.3199768e-19)
(0.28177654 -5.1166652e-05 1.766166e-18)
(0.28165619 -0.00012441973 9.2410861e-19)
(0.2812333 -0.00018797304 -7.6421838e-20)
(0.28003901 -0.00024077467 8.9436007e-19)
(0.27697398 -0.00026417668 1.6722566e-19)
(0.27008762 -0.00023880461 3.0032231e-20)
(0.25792268 -0.00016762418 -1.2882626e-19)
(0.24073179 -8.8482562e-05 -2.2763738e-19)
(0.2179502 -3.6446984e-05 -3.8189554e-19)
(0.18143934 -7.700071e-06 -2.081217e-19)
(0.28404476 -4.985471e-05 2.6153757e-20)
(0.28387625 -0.00012089414 4.5175045e-19)
(0.28329739 -0.00018132901 2.5914248e-19)
(0.28169344 -0.00022787697 9.6630542e-19)
(0.27771473 -0.00023897359 2.7244031e-19)
(0.2695351 -0.0002008752 -3.1318891e-20)
(0.25659138 -0.00013036478 -8.3031605e-20)
(0.2394378 -6.5171007e-05 -3.1206846e-19)
(0.217069 -2.5325295e-05 -2.454415e-19)
(0.18100322 -5.1220743e-06 -1.8124637e-19)
(0.28625048 -4.8572049e-05 1.4729359e-18)
(0.28601827 -0.00011740086 5.5243892e-19)
(0.28523426 -0.00017430183 2.1822318e-19)
(0.28310493 -0.00021314175 9.9956501e-19)
(0.27809438 -0.00021129027 6.2870913e-19)
(0.26879942 -0.00016439769 1.4687734e-19)
(0.25541093 -9.9328844e-05 -3.0081613e-20)
(0.238414 -4.7155212e-05 -7.7784099e-20)
(0.21641537 -1.7078504e-05 -1.6285526e-19)
(0.18070891 -3.0434286e-06 -1.4643564e-19)
(0.28839355 -4.7270961e-05 1.4847392e-18)
(0.28807682 -0.00011377577 6.0622761e-19)
(0.28702341 -0.00016645985 3.492563e-19)
(0.28424077 -0.00019602597 6.4785224e-19)
(0.27815548 -0.00018188526 3.882331e-19)
(0.267996 -0.00013078972 3.0102449e-19)
(0.25440307 -7.3937203e-05 -3.4496694e-19)
(0.23761477 -3.3003981e-05 -5.4748758e-20)
(0.21594074 -1.0716112e-05 -2.113862e-19)
(0.18052448 -1.352861e-06 -2.594972e-19)
(0.29047097 -4.5891461e-05 1.2171938e-18)
(0.29004195 -0.00010982913 2.6291949e-18)
(0.28863779 -0.00015729312 4.9547286e-19)
(0.28508023 -0.00017633855 -7.5093847e-20)
(0.27797082 -0.00015188723 2.4059264e-19)
(0.26720626 -0.00010094691 -3.962785e-20)
(0.25356402 -5.3259068e-05 -3.3346271e-19)
(0.23700054 -2.1698947e-05 -2.1015774e-19)
(0.21560861 -5.6598847e-06 -1.4371352e-19)
(0.18042758 3.382955e-08 -1.4298291e-19)
(0.29247637 -4.4351535e-05 1.2327869e-18)
(0.29189831 -0.00010531339 2.6148473e-19)
(0.2900463 -0.00014628204 6.5688995e-19)
(0.2856247 -0.00015430643 1.1776041e-18)
(0.27762408 -0.00012253933 5.1733623e-19)
(0.26647733 -7.5147847e-05 -2.0003362e-19)
(0.25287924 -3.635779e-05 2.8499856e-20)
(0.23653863 -1.2544363e-05 -7.3319611e-20)
(0.2153911 -1.5276028e-06 -1.670161e-20)
(0.18040202 1.2057726e-06 8.2901788e-20)
(0.294399 -4.2542627e-05 1.0916873e-18)
(0.2936244 -9.9894536e-05 8.4195083e-19)
(0.29121909 -0.00013303025 7.9316544e-19)
(0.28590172 -0.00013054515 6.8594499e-19)
(0.27719084 -9.4943728e-05 3.3202948e-19)
(0.26583134 -5.3197846e-05 -1.1128154e-19)
(0.25233097 -2.2452203e-05 1.8775753e-20)
(0.23620236 -5.0197552e-06 -1.5619672e-19)
(0.2152645 1.8980139e-06 -1.0727051e-19)
(0.18043772 2.1938779e-06 -1.6906945e-19)
(0.29622248 -4.0322217e-05 5.8319133e-19)
(0.29519258 -9.3155265e-05 1.0859399e-18)
(0.29213503 -0.00011739287 6.2365726e-19)
(0.28595987 -0.00010594319 2.3993296e-19)
(0.2767282 -6.985681e-05 -3.7145477e-21)
(0.26527516 -3.464879e-05 8.6711598e-20)
(0.25190111 -1.0910092e-05 1.705055e-19)
(0.23596807 1.2326213e-06 -8.2994724e-20)
(0.21521692 4.7066268e-06 -1.0623697e-19)
(0.18052214 2.9889484e-06 -9.475943e-20)
(0.29792334 -3.7501202e-05 1.1016709e-18)
(0.29657068 -8.4660211e-05 6.4252116e-19)
(0.29278917 -9.955188e-05 3.8812324e-19)
(0.285857 -8.1495803e-05 2.0457143e-19)
(0.27627356 -4.7618943e-05 2.7079043e-19)
(0.26480713 -1.8983385e-05 2.0449441e-19)
(0.25157194 -1.2532196e-06 -4.9113258e-20)
(0.23582162 6.4213362e-06 2.5667642e-20)
(0.21523438 6.9897593e-06 -7.7801079e-20)
(0.18064613 3.6206941e-06 -1.3833561e-19)
(0.29946982 -3.3841458e-05 -1.1673781e-18)
(0.29772603 -7.4079889e-05 1.7171927e-18)
(0.29319627 -8.0019301e-05 1.465921e-19)
(0.28564802 -5.8125438e-05 -1.52231e-18)
(0.2758486 -2.8224775e-05 7.7728809e-20)
(0.2644212 -5.6897708e-06 -3.2997795e-19)
(0.25132937 6.8568641e-06 -9.4524225e-20)
(0.23575039 1.0705547e-05 -7.978042e-20)
(0.21530526 8.8456823e-06 -3.4221809e-20)
(0.18080246 4.1239054e-06 2.1252223e-21)
(0.30082183 -2.9094649e-05 4.9039858e-19)
(0.29863173 -6.1331797e-05 1.8759961e-18)
(0.29338821 -5.95667e-05 -2.070917e-19)
(0.28537716 -3.6522211e-05 -3.0967376e-19)
(0.27546382 -1.1416917e-05 -1.0188031e-19)
(0.26410765 5.6166856e-06 -2.0573209e-19)
(0.25116541 1.3623655e-05 -1.1055874e-19)
(0.23574183 1.4220136e-05 -1.0418271e-19)
(0.21542014 1.0355433e-05 -4.225489e-20)
(0.18098522 4.5267378e-06 1.2782525e-19)
(0.30193372 -2.3108605e-05 3.4775223e-18)
(0.29927336 -4.6684526e-05 6.9868304e-19)
(0.29340601 -3.9091644e-05 -4.672411e-20)
(0.28507545 -1.7047943e-05 1.3385396e-18)
(0.27512087 3.08323e-06 1.1988702e-18)
(0.26386444 1.5139636e-05 7.2931661e-19)
(0.25106783 1.9209358e-05 -7.968606e-20)
(0.23578541 1.7094518e-05 -7.266255e-20)
(0.21557122 1.1580928e-05 2.096576e-20)
(0.18118951 4.8479644e-06 -1.8763975e-20)
(0.30276108 -1.5977074e-05 -2.2108604e-18)
(0.29965285 -3.0773539e-05 -1.0705683e-18)
(0.29329054 -1.9437076e-05 -3.995576e-19)
(0.2847612 1.665011e-07 -7.3093536e-19)
(0.27482455 1.5439192e-05 3.4556493e-19)
(0.26368338 2.3069948e-05 3.1066915e-20)
(0.25102649 2.3800962e-05 2.2741519e-19)
(0.23587241 1.9433221e-05 1.8438084e-19)
(0.21575201 1.2564293e-05 1.6733174e-19)
(0.1814111 5.0988035e-06 1.5582667e-19)
(0.30327131 -8.1284289e-06 -3.5675824e-20)
(0.29978733 -1.448724e-05 1.4679445e-18)
(0.29307477 -1.3071013e-06 -1.0501166e-18)
(0.28444918 1.5037442e-05 -1.3880176e-18)
(0.27457432 2.5801772e-05 -1.4562149e-18)
(0.26355615 2.9611405e-05 -4.4737212e-19)
(0.25103262 2.7542562e-05 -1.6211772e-19)
(0.23599543 2.13095e-05 1.1970206e-19)
(0.21595698 1.3334666e-05 2.9034098e-20)
(0.18164631 5.2867638e-06 9.475351e-20)
(0.30345396 -2.4323063e-07 -7.5806404e-19)
(0.29970264 1.1312485e-06 1.1999389e-19)
(0.29278638 1.4660235e-05 -8.2205894e-19)
(0.28414893 2.7523469e-05 -1.017411e-18)
(0.2743656 3.4334375e-05 -1.1761651e-18)
(0.26347496 3.4927602e-05 -4.3198125e-19)
(0.25107851 3.0533934e-05 -6.207936e-20)
(0.2361481 2.2772263e-05 1.3067991e-20)
(0.21618128 1.39111e-05 -2.3989702e-20)
(0.1818918 5.4163644e-06 5.2224884e-20)
(0.30332516 6.8800523e-06 -2.635738e-18)
(0.29943298 1.4983185e-05 -1.540624e-18)
(0.29244691 2.7992109e-05 -1.3936302e-18)
(0.28386233 3.767482e-05 -1.8652551e-18)
(0.27419303 4.1185405e-05 -7.2131131e-19)
(0.26343257 3.9126369e-05 -7.5545804e-19)
(0.25115729 3.2834741e-05 -5.4162805e-20)
(0.23632474 2.3848039e-05 -1.557252e-20)
(0.21642055 1.4301901e-05 1.8211958e-21)
(0.18214443 5.4885133e-06 1.1902942e-19)
(0.30293058 1.2606221e-05 1.9227851e-18)
(0.29901536 2.6251545e-05 -3.4909407e-19)
(0.29206927 3.8506644e-05 -1.5126691e-18)
(0.28358878 4.5588723e-05 1.8790083e-19)
(0.27405097 4.645122e-05 7.6980583e-19)
(0.2634222 4.2266475e-05 4.8132998e-19)
(0.25126271 3.447212e-05 -3.9352555e-20)
(0.23652014 2.4543781e-05 -1.6042686e-19)
(0.21667062 1.450505e-05 -4.6080074e-20)
(0.18240104 5.5003929e-06 -4.9576954e-21)
(0.30233173 1.6685731e-05 -8.8387342e-19)
(0.29848539 3.4600034e-05 -1.352778e-18)
(0.29166298 4.6230746e-05 -1.0226944e-18)
(0.28332655 5.1359864e-05 -2.5428713e-19)
(0.27393383 5.0195017e-05 -1.7700999e-19)
(0.26343755 4.437864e-05 1.3174444e-19)
(0.25138894 3.5453155e-05 -7.2676016e-20)
(0.23672932 2.4853961e-05 -1.5214269e-19)
(0.21692736 1.4512096e-05 2.4293248e-20)
(0.18265835 5.4470427e-06 1.3666338e-20)
(0.30159334 1.9181784e-05 9.7786392e-19)
(0.29787665 4.0083768e-05 1.3310268e-18)
(0.29123639 5.1326664e-05 -1.5051937e-19)
(0.28307386 5.5102666e-05 -4.5975907e-19)
(0.27383649 5.2477847e-05 -1.3658101e-18)
(0.26347281 4.5486838e-05 -7.6188745e-19)
(0.25153051 3.5779112e-05 -5.3679077e-19)
(0.23694748 2.4769963e-05 -1.4528132e-19)
(0.21718657 1.4313604e-05 1.8189383e-20)
(0.18291285 5.3235047e-06 -1.4167084e-20)
(0.30077416 2.0343716e-05 1.4558181e-18)
(0.29722 4.3029248e-05 5.8201646e-19)
(0.29079792 5.4062623e-05 -1.0087627e-19)
(0.28282964 5.6974251e-05 -5.3814222e-19)
(0.27375459 5.338179e-05 -4.5482325e-19)
(0.2635228 4.5626733e-05 -9.2447653e-19)
(0.25168236 3.5459382e-05 -4.7330434e-19)
(0.2371699 2.4289594e-05 -5.1730847e-20)
(0.21744399 1.3904696e-05 -7.3075679e-21)
(0.18316088 5.1269468e-06 -1.4796486e-20)
(0.29992232 2.048367e-05 -2.574791e-18)
(0.29654268 4.3898529e-05 -1.8351321e-18)
(0.29035629 5.4779856e-05 -9.7183247e-19)
(0.28259386 5.7180766e-05 -2.2287543e-18)
(0.27368475 5.3022991e-05 -7.9565559e-19)
(0.26358306 4.485885e-05 -1.0671311e-18)
(0.25183982 3.4522298e-05 -2.8993051e-19)
(0.23739209 2.3424627e-05 -1.9740533e-19)
(0.21769541 1.3289447e-05 -9.0138444e-20)
(0.18339876 4.8583009e-06 8.7548453e-20)
(0.29907433 1.9896783e-05 2.3258655e-18)
(0.29586754 4.3179144e-05 5.1478802e-19)
(0.28992026 5.3854461e-05 -5.1382001e-19)
(0.28236753 5.5968474e-05 7.2978067e-19)
(0.27362457 5.1553344e-05 9.8456748e-19)
(0.26364989 4.3273674e-05 9.3037683e-19)
(0.25199878 3.3020277e-05 2.32578e-19)
(0.23760989 2.2204544e-05 6.303907e-20)
(0.21793685 1.2482994e-05 5.2568103e-20)
(0.18362299 4.5229422e-06 7.9593698e-21)
(0.29825624 1.8826414e-05 4.7816395e-19)
(0.29521271 4.1316565e-05 6.8685571e-19)
(0.28949802 5.1661539e-05 -2.0127007e-19)
(0.28215239 5.3605906e-05 9.2387328e-19)
(0.27357257 4.9153082e-05 7.930248e-19)
(0.26372035 4.0989248e-05 7.0684064e-19)
(0.25215571 3.1029343e-05 3.4542468e-19)
(0.23781957 2.0676517e-05 2.5826304e-19)
(0.21816468 1.1511496e-05 1.505076e-19)
(0.18383048 4.1305675e-06 5.59635e-20)
(0.29748551 1.7458314e-05 1.0588781e-18)
(0.29459174 3.8684221e-05 3.0699967e-18)
(0.28909674 4.8548103e-05 1.3681952e-18)
(0.28195056 5.0363958e-05 6.3873037e-19)
(0.273528 4.6018255e-05 -1.6389799e-19)
(0.26379223 3.8143447e-05 -1.9944385e-19)
(0.25230768 2.8644242e-05 -4.593417e-20)
(0.23801799 1.8902283e-05 -2.0033177e-20)
(0.21837589 1.0410317e-05 4.3293965e-20)
(0.1840187 3.6944787e-06 9.536032e-21)
(0.29677297 1.5927937e-05 2.5278637e-18)
(0.29401402 3.5578012e-05 1.5325155e-18)
(0.28872213 4.4816952e-05 1.6633491e-18)
(0.28176415 4.6498798e-05 6.9796267e-19)
(0.27349056 4.2346992e-05 4.1687004e-19)
(0.26386388 3.4883634e-05 2.7464459e-19)
(0.2524524 2.5970855e-05 1.4432023e-19)
(0.23820262 1.6952894e-05 6.1830225e-20)
(0.21856813 9.2208616e-06 2.8137365e-20)
(0.18418588 3.2303441e-06 -3.1256974e-20)
(0.29612452 1.4331295e-05 -3.0833554e-18)
(0.29348544 3.2223384e-05 -2.2111878e-18)
(0.28837837 4.0720258e-05 -3.0746927e-19)
(0.28159492 4.2239919e-05 -1.5078434e-18)
(0.27346018 3.8327423e-05 -1.0429725e-18)
(0.26393414 3.1356177e-05 -3.9990924e-19)
(0.25258814 2.3117778e-05 2.8295234e-19)
(0.23837163 1.4902576e-05 1.7067262e-19)
(0.21873983 7.9867908e-06 6.1619701e-20)
(0.18433104 2.7547315e-06 1.5462343e-19)
(0.29554248 1.2735053e-05 9.684683e-19)
(0.29300907 2.8787007e-05 1.4675028e-19)
(0.2880681 3.6459994e-05 5.8952485e-19)
(0.28144416 3.7783559e-05 6.449395e-19)
(0.27343687 3.4128741e-05 5.9579089e-19)
(0.26400216 2.7697548e-05 3.1278832e-19)
(0.25271369 2.0188586e-05 3.8272157e-19)
(0.23852381 1.2822815e-05 3.0193027e-19)
(0.21889017 6.7502527e-06 9.3979702e-20)
(0.18445396 2.2836019e-06 4.4038361e-20)
(0.29502661 1.1184512e-05 3.9448717e-19)
(0.29258577 2.5388756e-05 7.5554748e-19)
(0.28779257 3.2192274e-05 1.3225701e-18)
(0.28131253 3.3290506e-05 1.7353762e-18)
(0.27342052 2.9895689e-05 1.4290186e-18)
(0.26406733 2.4027834e-05 8.5678171e-19)
(0.25282826 1.7275729e-05 4.5247973e-19)
(0.23865857 1.0777508e-05 2.183687e-19)
(0.21901904 5.5487041e-06 1.0149994e-19)
(0.18455515 1.8310257e-06 2.9624953e-20)
(0.29457491 9.7095395e-06 2.3721942e-18)
(0.29221471 2.2112259e-05 4.82628e-18)
(0.28755189 2.8033513e-05 1.5836892e-18)
(0.28120013 2.8887123e-05 1.4751997e-18)
(0.2734109 2.5746269e-05 1.2607711e-19)
(0.26412921 2.0446982e-05 4.2211809e-19)
(0.25293145 1.44566e-05 3.7378098e-20)
(0.23877584 8.8197111e-06 4.6795629e-20)
(0.21912696 4.4127085e-06 3.5722075e-20)
(0.18463571 1.4082374e-06 3.9969385e-20)
(0.29418416 8.3289595e-06 7.5744061e-18)
(0.2918939 1.901367e-05 4.3195972e-18)
(0.28734518 2.4067167e-05 2.6982747e-18)
(0.28110651 2.4668518e-05 2.8378681e-18)
(0.27340762 2.1772117e-05 1.7416384e-18)
(0.26418744 1.7033692e-05 9.8003503e-19)
(0.25302315 1.1791982e-05 5.1131666e-19)
(0.23887599 6.9903111e-06 3.5811202e-19)
(0.21921495 3.3651264e-06 1.9306436e-19)
(0.1846972 1.0233737e-06 5.0361945e-20)
(0.29385042 7.053596e-06 2.504057e-18)
(0.29162051 1.6128447e-05 5.6427019e-19)
(0.28717087 2.0349977e-05 3.5216493e-18)
(0.2810308 2.0702593e-05 2.560834e-18)
(0.27341012 1.8040433e-05 2.4798408e-18)
(0.26424177 1.3846017e-05 2.1995203e-18)
(0.25310353 9.326063e-06 1.2372007e-18)
(0.23895978 5.317946e-06 7.9984836e-19)
(0.21928438 2.4210263e-06 6.7394194e-19)
(0.18474146 6.8139154e-07 2.8976783e-19)
(0.29356927 5.8886426e-06 -2.2080721e-19)
(0.29139116 1.3476839e-05 1.8746424e-18)
(0.28702689 1.6917775e-05 2.3877731e-18)
(0.28097178 1.7034688e-05 2.4038084e-18)
(0.27341773 1.4597199e-05 2.6898765e-18)
(0.264292 1.092356e-05 2.4189649e-18)
(0.25317294 7.0880576e-06 1.5001567e-18)
(0.23902821 3.8203196e-06 9.5727752e-19)
(0.21933692 1.5887352e-06 7.8219017e-19)
(0.18477053 3.8463039e-07 4.451982e-19)
(0.29333609 4.8352581e-06 4.6337824e-19)
(0.29120217 1.1067943e-05 1.2539108e-18)
(0.28691081 1.3790299e-05 2.7504824e-18)
(0.28092799 1.369195e-05 4.1406189e-18)
(0.2734297 1.1470674e-05 3.7927537e-18)
(0.264338 8.2902097e-06 1.7845573e-18)
(0.2532319 5.0944199e-06 1.6256482e-18)
(0.23908248 2.5059912e-06 1.0702673e-18)
(0.21937439 8.7113187e-07 8.3816973e-19)
(0.18478649 1.3336557e-07 6.7832605e-19)
(0.29314621 3.8918147e-06 2.338759e-18)
(0.29104971 8.9028492e-06 1.7288194e-18)
(0.28681999 1.0975139e-05 2.8357743e-18)
(0.28089783 1.0687198e-05 3.1639693e-18)
(0.27344522 8.6747096e-06 3.0360835e-18)
(0.26437967 5.9568335e-06 2.0809356e-18)
(0.25328104 3.3508258e-06 1.6618458e-18)
(0.23912393 1.3755927e-06 1.3435756e-18)
(0.21939864 2.7193394e-07 9.8723709e-19)
(0.1847914 -6.9615839e-08 7.2333743e-19)
(0.29299501 3.0545407e-06 2.6054685e-18)
(0.29092992 6.9764795e-06 1.9029031e-18)
(0.28675172 8.4701667e-06 3.1197498e-19)
(0.28087961 8.0212872e-06 1.2030323e-18)
(0.2734635 6.2106453e-06 2.1015996e-18)
(0.26441701 3.9227241e-06 2.3481243e-18)
(0.25332109 1.8541138e-06 1.7918128e-18)
(0.23915392 4.2888761e-07 1.3975199e-18)
(0.21941123 -2.1374192e-07 8.7016434e-19)
(0.18478765 -2.2836457e-07 5.6091659e-19)
(0.29287806 2.3183004e-06 1.635583e-18)
(0.29083904 5.2795729e-06 2.4260206e-18)
(0.2867033 6.2663649e-06 2.2710342e-18)
(0.28087166 5.6863581e-06 1.8510242e-18)
(0.27348375 4.0707724e-06 9.7846271e-19)
(0.26445004 2.1798487e-06 1.8899386e-18)
(0.25335275 5.9972128e-07 1.578442e-18)
(0.23917356 -3.429956e-07 1.3631328e-18)
(0.2194146 -6.0404797e-07 1.141172e-18)
(0.18477676 -3.5384688e-07 6.7622208e-19)
(0.29279111 1.6771427e-06 1.5528588e-18)
(0.29077345 3.8002567e-06 3.3125869e-18)
(0.28667209 4.3502475e-06 2.9375388e-18)
(0.28087236 3.6689513e-06 2.0412528e-18)
(0.27350524 2.2424643e-06 1.6070895e-18)
(0.26447879 7.1911429e-07 1.6622277e-18)
(0.2533766 -4.2670436e-07 1.4854608e-18)
(0.23918484 -9.6308487e-07 1.2979457e-18)
(0.21941034 -9.1280747e-07 1.1579103e-18)
(0.18476022 -4.5084391e-07 8.5889657e-19)
(0.2927302 1.1246893e-06 1.8479494e-18)
(0.29072973 2.5250557e-06 3.5387024e-18)
(0.28665558 2.7055123e-06 3.346773e-18)
(0.28088013 1.9527472e-06 3.8503948e-18)
(0.27352725 7.1250889e-07 3.5570186e-18)
(0.26450319 -4.7827766e-07 2.1248409e-18)
(0.253394 -1.2530753e-06 1.7869965e-18)
(0.23918903 -1.4508665e-06 1.4719259e-18)
(0.21939991 -1.1467582e-06 1.2515507e-18)
(0.18473941 -5.2107561e-07 1.1248361e-18)
(0.29269161 6.5436435e-07 2.0085504e-18)
(0.29070464 1.4398668e-06 2.4333356e-18)
(0.28665137 1.3156356e-06 3.1579482e-18)
(0.28089347 5.2192227e-07 3.5525593e-18)
(0.27354903 -5.4155833e-07 2.8891086e-18)
(0.2645239 -1.4437937e-06 2.3514478e-18)
(0.25340577 -1.9037745e-06 1.9092699e-18)
(0.2391873 -1.8193932e-06 1.5633528e-18)
(0.21938463 -1.3129234e-06 1.304989e-18)
(0.18471557 -5.6707633e-07 1.0815283e-18)
(0.29267189 2.6004787e-07 1.2539744e-19)
(0.2906952 5.3166313e-07 5.2499287e-19)
(0.28665721 1.6331798e-07 2.52912e-19)
(0.28091093 -6.4905324e-07 1.2208696e-18)
(0.2735705 -1.5533315e-06 2.2611001e-18)
(0.26454118 -2.2050968e-06 2.1358084e-18)
(0.25341264 -2.3966574e-06 1.8277003e-18)
(0.23918075 -2.0814384e-06 1.4901107e-18)
(0.21936573 -1.4196255e-06 1.1578624e-18)
(0.18468979 -5.9205814e-07 9.5066552e-19)
(0.29266786 -6.4762078e-08 2.4429911e-19)
(0.29069859 -2.1541156e-07 1.0542957e-18)
(0.28667107 -7.7658822e-07 2.0554726e-18)
(0.28093164 -1.5929427e-06 1.1858153e-18)
(0.27359125 -2.3513507e-06 6.4153655e-19)
(0.26455524 -2.7832686e-06 1.5289138e-18)
(0.25341533 -2.7491667e-06 1.6619316e-18)
(0.23917036 -2.2505961e-06 1.5745792e-18)
(0.21934426 -1.4755475e-06 1.4601633e-18)
(0.184663 -5.9936444e-07 1.1057111e-18)
(0.29267664 -3.2808412e-07 6.8798038e-19)
(0.29071239 -8.205721e-07 2.3190476e-18)
(0.28669131 -1.5305186e-06 1.9480075e-18)
(0.28095457 -2.3351351e-06 7.8955498e-19)
(0.27361097 -2.9577255e-06 5.7320969e-19)
(0.26456635 -3.1989084e-06 1.1893302e-18)
(0.2534145 -2.9792896e-06 1.3884389e-18)
(0.23915703 -2.3403988e-06 1.5161139e-18)
(0.21932115 -1.489011e-06 1.3959773e-18)
(0.18463598 -5.9214936e-07 1.0523613e-18)
(0.29269573 -5.3734346e-07 1.5216315e-18)
(0.29073445 -1.3002998e-06 1.7982626e-18)
(0.28671638 -2.1186399e-06 2.1324969e-18)
(0.28097886 -2.8971526e-06 7.5508939e-19)
(0.27362942 -3.3944604e-06 8.4230194e-19)
(0.26457479 -3.4728735e-06 1.2689204e-18)
(0.25341079 -3.1047074e-06 1.3729285e-18)
(0.23914159 -2.3637806e-06 1.5057316e-18)
(0.2192972 -1.4678223e-06 1.4785291e-18)
(0.18460934 -5.7336605e-07 1.128192e-18)
(0.2927229 -6.9847568e-07 2.6693597e-18)
(0.29076287 -1.6683502e-06 1.1710365e-18)
(0.2867449 -2.5593586e-06 1.4026838e-18)
(0.28100374 -3.3001169e-06 8.0639181e-19)
(0.27364642 -3.6832921e-06 1.5782957e-19)
(0.26458082 -3.6253453e-06 9.3875743e-19)
(0.25340478 -3.1421689e-06 1.4123618e-18)
(0.23912471 -2.3327647e-06 1.4312318e-18)
(0.21927307 -1.4191064e-06 1.3703002e-18)
(0.1845836 -5.4567726e-07 1.1606564e-18)
(0.29275618 -8.1712905e-07 1.1215087e-18)
(0.29079594 -1.9378068e-06 2.2156195e-18)
(0.28677568 -2.8705027e-06 3.6277149e-18)
(0.2810286 -3.5645659e-06 2.364417e-18)
(0.27366186 -3.8451243e-06 2.3316435e-18)
(0.26458474 -3.6754386e-06 1.0165396e-18)
(0.253397 -3.1072823e-06 1.4334575e-18)
(0.23910702 -2.2583668e-06 1.3232194e-18)
(0.2192493 -1.3492932e-06 1.1116506e-18)
(0.18455914 -5.1147103e-07 1.0730792e-18)
(0.29279381 -8.986335e-07 3.6303966e-19)
(0.29083217 -2.1211021e-06 2.7901358e-18)
(0.2868077 -3.0691118e-06 5.2139196e-18)
(0.28105292 -3.7100503e-06 3.3353105e-18)
(0.27367569 -3.899635e-06 2.6332195e-18)
(0.26458684 -3.6408763e-06 2.2668571e-18)
(0.25338791 -3.0142596e-06 1.630692e-18)
(0.23908903 -2.1504135e-06 1.5447039e-18)
(0.21922632 -1.263996e-06 1.4985618e-18)
(0.18453624 -4.7279576e-07 1.1453185e-18)
(0.29283429 -9.4800711e-07 2.4002517e-18)
(0.29087029 -2.2299775e-06 2.275242e-18)
(0.28684008 -3.1712805e-06 1.7527967e-19)
(0.28107628 -3.7549144e-06 2.1880191e-18)
(0.27368789 -3.8650712e-06 2.3084557e-18)
(0.26458737 -3.5378347e-06 2.3223862e-18)
(0.25337794 -2.8758244e-06 1.7103559e-18)
(0.23907116 -2.017512e-06 1.6625905e-18)
(0.21920447 -1.1680195e-06 1.5183173e-18)
(0.18451508 -4.3136943e-07 1.2015622e-18)
(0.2928763 -9.6994426e-07 2.1348223e-18)
(0.2909092 -2.2754269e-06 2.5149692e-18)
(0.2868721 -3.1920358e-06 1.4575215e-18)
(0.28109838 -3.7161485e-06 2.0979852e-18)
(0.2736985 -3.7581175e-06 1.965638e-18)
(0.26458661 -3.3808584e-06 1.9066118e-18)
(0.25336744 -2.7031879e-06 1.8203326e-18)
(0.23905377 -1.8670684e-06 1.6978198e-18)
(0.21918399 -1.0653847e-06 1.5421058e-18)
(0.18449579 -3.8858942e-07 1.2545423e-18)
(0.29291876 -9.688063e-07 2.6474795e-19)
(0.29094798 -2.2676603e-06 1.4448078e-18)
(0.28690318 -3.1452712e-06 1.383189e-18)
(0.28111898 -3.6093222e-06 8.1199051e-19)
(0.27370757 -3.593865e-06 5.2286205e-19)
(0.2645848 -3.182886e-06 1.5025612e-18)
(0.25335673 -2.5061301e-06 1.7435512e-18)
(0.23903712 -1.7054015e-06 1.7819835e-18)
(0.21916506 -9.5943022e-07 1.5647789e-18)
(0.18447843 -3.4558185e-07 1.336409e-18)
(0.29296073 -9.4862061e-07 3.6349366e-19)
(0.29098588 -2.2160953e-06 1.1509683e-18)
(0.28693285 -3.0437256e-06 2.8529267e-18)
(0.28113793 -3.448574e-06 1.3249716e-18)
(0.27371519 -3.3858371e-06 2.0775483e-18)
(0.26458215 -2.9553269e-06 9.8744725e-19)
(0.25334606 -2.293119e-06 1.4263384e-18)
(0.23902142 -1.5378712e-06 1.409264e-18)
(0.21914779 -8.5292415e-07 1.3408011e-18)
(0.184463 -3.0326168e-07 1.2516378e-18)
(0.29300146 -9.1307577e-07 2.3854732e-18)
(0.2910223 -2.1293433e-06 3.2797478e-18)
(0.28696076 -2.8989751e-06 3.8458688e-18)
(0.28115512 -3.2466192e-06 2.8284472e-18)
(0.27372146 -3.1460323e-06 2.7051274e-18)
(0.26457888 -2.7081431e-06 2.1810039e-18)
(0.25333564 -2.0714199e-06 1.8661949e-18)
(0.23900683 -1.3689962e-06 1.5604649e-18)
(0.21913223 -7.4815746e-07 1.6007152e-18)
(0.18444946 -2.6237232e-07 1.3008309e-18)
(0.29304037 -8.6551918e-07 2.5681175e-18)
(0.29105677 -2.0152057e-06 2.5225108e-18)
(0.28698667 -2.7214269e-06 -9.4971773e-20)
(0.28117053 -3.0147602e-06 2.2192732e-18)
(0.27372649 -2.8849584e-06 2.5842427e-18)
(0.26457515 -2.4499067e-06 2.702986e-18)
(0.25332565 -1.8471611e-06 2.2572013e-18)
(0.23899344 -1.2025062e-06 1.8860168e-18)
(0.21911839 -6.4697902e-07 1.6202897e-18)
(0.18443777 -2.2349924e-07 1.3672307e-18)
(0.29307699 -8.0895762e-07 2.7907284e-19)
(0.29108893 -1.8806731e-06 4.6712306e-19)
(0.28701038 -2.5203283e-06 5.5553821e-19)
(0.28118414 -2.7629124e-06 1.8057459e-18)
(0.27373039 -2.6116794e-06 1.8555586e-18)
(0.26457113 -2.1878609e-06 2.2219703e-18)
(0.25331621 -1.6253945e-06 2.0251826e-18)
(0.23898132 -1.0413841e-06 1.9213361e-18)
(0.21910626 -5.5081609e-07 1.5903424e-18)
(0.18442781 -1.8707656e-07 1.2762458e-18)
(0.29311098 -7.460591e-07 4.27251e-19)
(0.29111855 -1.7319354e-06 1.5684243e-18)
(0.28703182 -2.3037883e-06 8.9450873e-19)
(0.281196 -2.499642e-06 1.6401523e-18)
(0.27373329 -2.333876e-06 4.5252303e-19)
(0.26456696 -1.9279955e-06 1.2235035e-18)
(0.25330741 -1.410168e-06 1.6870313e-18)
(0.23897048 -8.8792021e-07 1.7386295e-18)
(0.21909576 -4.607016e-07 1.5915735e-18)
(0.18441949 -1.5339401e-07 1.3287373e-18)
(0.29314213 -6.7916231e-07 7.363869e-19)
(0.29114547 -1.5744033e-06 2.7315905e-18)
(0.28705095 -2.078819e-06 3.8630302e-18)
(0.28120619 -2.2322411e-06 2.02951e-18)
(0.27373531 -2.0579491e-06 1.9429156e-18)
(0.26456274 -1.6751647e-06 9.6088284e-19)
(0.25329933 -1.204642e-06 1.5255751e-18)
(0.23896092 -7.43809e-07 1.575959e-18)
(0.21908682 -3.7733091e-07 1.3802913e-18)
(0.18441267 -1.226135e-07 1.2418586e-18)
(0.29317031 -6.1029224e-07 8.9523051e-19)
(0.29116962 -1.4127439e-06 1.7910838e-18)
(0.28706779 -1.8514005e-06 4.7897452e-18)
(0.28121479 -1.9668203e-06 2.6825355e-18)
(0.27373657 -1.7891389e-06 2.2017554e-18)
(0.26455857 -1.4332243e-06 2.0629481e-18)
(0.25329201 -1.011225e-06 1.6893483e-18)
(0.23895261 -6.1026343e-07 1.5833989e-18)
(0.21907935 -3.0115135e-07 1.5311485e-18)
(0.18440723 -9.4821345e-08 1.2092436e-18)
(0.29319546 -5.4116862e-07 1.0599424e-18)
(0.29119101 -1.2509159e-06 1.5607155e-18)
(0.28708241 -1.6265418e-06 -1.3015063e-19)
(0.28122191 -1.7084018e-06 2.0322627e-18)
(0.27373717 -1.5316417e-06 2.7429577e-18)
(0.26455454 -1.2051556e-06 2.6247461e-18)
(0.25328545 -8.316885e-07 1.8029842e-18)
(0.23894549 -4.8810634e-07 1.5358801e-18)
(0.21907323 -2.3241566e-07 1.6113726e-18)
(0.18440304 -7.0040329e-08 1.3436059e-18)
(0.29321762 -4.7323343e-07 1.2045081e-18)
(0.29120969 -1.0922213e-06 1.7228007e-18)
(0.28709489 -1.4083592e-06 1.1309385e-18)
(0.28122766 -1.4610208e-06 1.7980702e-18)
(0.27373723 -1.2887248e-06 2.557849e-18)
(0.2645507 -9.9317701e-07 2.6029737e-18)
(0.25327965 -6.672629e-07 2.0415288e-18)
(0.2389395 -3.7784553e-07 1.9205108e-18)
(0.21906835 -1.7124391e-07 1.77279e-18)
(0.18439995 -4.8270251e-08 1.4211219e-18)
(0.29323685 -4.0764435e-07 9.0599394e-19)
(0.29122574 -9.3931296e-07 1.2776531e-18)
(0.28710537 -1.2001023e-06 1.5977207e-18)
(0.28123219 -1.2277623e-06 1.3032904e-18)
(0.27373684 -1.0627597e-06 6.0394833e-19)
(0.26454709 -7.9876301e-07 1.7350552e-18)
(0.25327461 -5.186313e-07 2.0207457e-18)
(0.23893455 -2.7963907e-07 1.9919372e-18)
(0.21906459 -1.1756605e-07 1.7422789e-18)
(0.18439783 -2.9435671e-08 1.3559282e-18)
(0.29325328 -3.4532121e-07 1.0642805e-18)
(0.29123933 -7.942755e-07 2.1704633e-18)
(0.28711399 -1.0042506e-06 3.1707815e-18)
(0.2812356 -1.0108695e-06 1.9645146e-18)
(0.27373609 -8.5533247e-07 1.9739199e-18)
(0.26454375 -6.2274221e-07 1.0631822e-18)
(0.25327028 -3.8600247e-07 1.5583898e-18)
(0.23893056 -1.9334124e-07 1.6114504e-18)
(0.21906182 -7.1163187e-08 1.4145727e-18)
(0.18439655 -1.3420517e-08 1.2308014e-18)
(0.29326708 -2.8693438e-07 2.5679441e-18)