/*--------------------------------*- C++ -*----------------------------------*\
| =========                 |                                                 |
| \\      /  F ield         | OpenFOAM: The Open Source CFD Toolbox           |
|  \\    /   O peration     | Version:  2506                                  |
|   \\  /    A nd           | Website:  www.openfoam.com                      |
|    \\/     M anipulation  |                                                 |
\*---------------------------------------------------------------------------*/
FoamFile
{
    version     2.0;
    format      ascii;
    arch        "LSB;label=32;scalar=64";
    class       volScalarField;
    location    "21000/water";
    object      alphat;
}
// * * * * * * * * * * * * * * * * * * * * * * * * * * * * * * * * * * * * * //

dimensions      [1 -1 -1 0 0 0 0];

internalField   nonuniform List<scalar> 
6000
(
0.041292847
0.041292824
0.041292831
0.041292856
0.041292889
0.041292932
0.041292983
0.041293016
0.041292808
0.041290571
0.041271537
0.041111294
0.0397723
0.030564074
0.013464793
0.040788543
0.040788537
0.040788576
0.040788654
0.040788758
0.040788888
0.04078902
0.040788972
0.040787494
0.040776037
0.040696382
0.040161217
0.036863805
0.023766469
0.015141611
0.04033569
0.040335696
0.040335761
0.040335884
0.040336044
0.040336229
0.04033633
0.040335685
0.040330323
0.040296649
0.040097616
0.038983223
0.033614213
0.0194951
0.016360294
0.039926215
0.039926219
0.039926301
0.039926459
0.03992666
0.039926848
0.039926701
0.039924457
0.039910659
0.039835636
0.039448738
0.037597438
0.030384627
0.016783058
0.017196555
0.039553796
0.039553808
0.039553906
0.039554093
0.039554312
0.039554413
0.039553622
0.0395481
0.039519187
0.039379112
0.038737841
0.036066498
0.027427863
0.015063192
0.01773179
0.039213273
0.039213296
0.039213408
0.039213613
0.039213809
0.039213657
0.039211571
0.039200298
0.039147643
0.038916647
0.037965398
0.034462847
0.024852826
0.013984463
0.018040007
0.038900366
0.038900399
0.038900521
0.038900723
0.038900826
0.038900159
0.038895819
0.03887551
0.038788999
0.038441492
0.037140256
0.032849727
0.022675913
0.013336844
0.018183117
0.038611532
0.038611573
0.038611697
0.038611866
0.038611765
0.038610199
0.038602307
0.038568928
0.038437606
0.037950377
0.036275872
0.031274836
0.020870828
0.012994967
0.018210197
0.038343817
0.038343862
0.038343975
0.038344065
0.038343601
0.038340605
0.038327517
0.03827644
0.038089201
0.037442856
0.03538704
0.029770034
0.019396999
0.012882914
0.018158676
0.038094736
0.03809478
0.038094862
0.038094803
0.038093753
0.038088644
0.038068396
0.037994592
0.037740813
0.036920505
0.03448763
0.028354169
0.018213448
0.012953916
0.018056304
0.037862183
0.037862216
0.037862238
0.037861935
0.037860009
0.037851941
0.037822294
0.037720559
0.037390607
0.036386134
0.033589398
0.02703684
0.017284481
0.013178532
0.017923231
0.03764436
0.037644371
0.037644291
0.037643618
0.037640447
0.037628426
0.037586933
0.037452106
0.037037684
0.035843147
0.032701562
0.025821837
0.016581272
0.013537499
0.017773886
0.037439726
0.037439699
0.03743946
0.037438254
0.037433393
0.037416287
0.037360374
0.037187532
0.036681868
0.035295042
0.031830871
0.02470985
0.016081614
0.014017191
0.017618497
0.037246949
0.037246861
0.037246392
0.037244452
0.037237378
0.037213943
0.037140989
0.036925609
0.0363235
0.034745073
0.030981931
0.023700436
0.015768976
0.014606606
0.017464261
0.037064871
0.037064693
0.037063903
0.037060987
0.037051109
0.037020016
0.036927437
0.036665512
0.035963258
0.03419604
0.030157673
0.022793377
0.015631332
0.015295285
0.017316197
0.03689248
0.036892177
0.036890955
0.036886782
0.036873442
0.036833316
0.036718634
0.03640675
0.035602004
0.033650187
0.029359858
0.021989539
0.015659917
0.016071914
0.01717775
0.036728885
0.036728414
0.036726628
0.036720878
0.03670337
0.036652818
0.036513731
0.036149096
0.035240656
0.033109157
0.028589603
0.021291346
0.015847992
0.016923492
0.017051196
0.036573301
0.03657261
0.036570106
0.036562424
0.036540005
0.036477653
0.03631208
0.035892529
0.034880099
0.032574024
0.027847913
0.02070292
0.016189617
0.01783505
0.016937916
0.036425028
0.036424056
0.036420663
0.036410663
0.036382564
0.036307092
0.036113215
0.03563717
0.034521109
0.032045349
0.027136212
0.020229919
0.016678486
0.018789895
0.016838558
0.036283441
0.03628212
0.036277645
0.036264917
0.036230367
0.036140535
0.03591682
0.035383242
0.034164308
0.031523285
0.026456862
0.019879123
0.017306891
0.019770317
0.016753165
0.036147982
0.036146234
0.036140468
0.036124584
0.036082821
0.035977497
0.035722708
0.035131018
0.033810124
0.031007717
0.025813646
0.019657797
0.018064912
0.0207586
0.016681265
0.036018143
0.036015885
0.036008605
0.035989127
0.035939416
0.035817597
0.035530799
0.034880794
0.033458783
0.030498445
0.025212142
0.019572905
0.018939949
0.021738147
0.016621966
0.03589347
0.03589061
0.035881581
0.035858069
0.035799718
0.035660549
0.035341095
0.034632853
0.033110301
0.029995409
0.024659951
0.019630248
0.019916664
0.02269449
0.016574063
0.035773545
0.035769987
0.035758968
0.035730991
0.035663366
0.035506152
0.035153669
0.034387441
0.032764498
0.029498968
0.024166686
0.019833637
0.020977366
0.023616003
0.016536152
0.035657992
0.035653635
0.035640383
0.035607524
0.035530063
0.035354279
0.034968643
0.03414475
0.03242103
0.029010211
0.023743688
0.020184173
0.022102784
0.024494228
0.016506745
0.035546464
0.035541207
0.035525479
0.035487349
0.035399574
0.035204869
0.034786172
0.033904896
0.032079439
0.028531301
0.023403466
0.020679734
0.023273104
0.025323802
0.016484372
0.035438647
0.035432386
0.035413948
0.035370193
0.035271718
0.035057919
0.034606436
0.03366791
0.03173923
0.028065808
0.023158914
0.021314706
0.0244691
0.026102089
0.016467662
0.035334251
0.035326887
0.035305516
0.035255823
0.03514637
0.034913479
0.03442962
0.033433727
0.031399978
0.02761899
0.023022388
0.022080016
0.02567317
0.026828633
0.016455398
0.035233012
0.035224448
0.035199939
0.03514405
0.035023453
0.034771643
0.034255909
0.033202186
0.031061475
0.027197981
0.02300477
0.022963453
0.026870128
0.027504567
0.016446544
0.035134691
0.035124836
0.035097009
0.035034724
0.034902936
0.03463254
0.03408547
0.032973033
0.030723902
0.0268118
0.023114633
0.023950249
0.02804767
0.028132079
0.016440248
0.035039067
0.03502784
0.034996542
0.034927732
0.034784832
0.034496333
0.033918446
0.032745938
0.030388046
0.026471167
0.023357597
0.025023883
0.02919649
0.028713983
0.016435834
0.034945943
0.034933275
0.034898386
0.034822996
0.034669194
0.034363211
0.033754944
0.032520522
0.030055535
0.026188099
0.023735915
0.026166982
0.030310099
0.029253407
0.016432778
0.034855141
0.034840974
0.034802418
0.034720475
0.034556112
0.034233382
0.033595029
0.032296402
0.029729078
0.025975302
0.024248334
0.02736225
0.031384439
0.029753594
0.016430685
0.034766502
0.034750797
0.03470854
0.034620164
0.034445715
0.034107066
0.033438713
0.032073259
0.029412693
0.025845434
0.02489019
0.028593298
0.032417399
0.030217765
0.016429265
0.034679887
0.034662624
0.034616684
0.034522088
0.034338162
0.033984492
0.033285952
0.031850929
0.029111867
0.025810314
0.025653731
0.029845306
0.033408314
0.030649046
0.016428312
0.034595176
0.034576356
0.034526808
0.034426308
0.034233647
0.033865888
0.033136649
0.03162952
0.028833633
0.025880169
0.026528619
0.031105458
0.034357529
0.031050409
0.016427682
0.034512269
0.034491917
0.034438897
0.034332917
0.034132389
0.033751478
0.032990657
0.031409555
0.028586515
0.02606301
0.027502554
0.032363144
0.035266042
0.031424647
0.01642728
0.034431083
0.034409252
0.034352965
0.034242042
0.034034637
0.033641469
0.032847794
0.031192142
0.028380315
0.026364175
0.028561978
0.033609948
0.036135248
0.031774346
0.016427047
0.034351558
0.034328331
0.034269052
0.034153841
0.033940664
0.03353605
0.032707869
0.03097915
0.028225759
0.02678609
0.029692788
0.034839473
0.03696677
0.032101874
0.01642695
0.034273652
0.034249145
0.03418723
0.034068505
0.03385076
0.033435383
0.03257072
0.030773393
0.028133997
0.02732822
0.030880993
0.036047067
0.037762344
0.032409381
0.016426974
0.034197344
0.03417171
0.034107598
0.033986257
0.033765237
0.033339598
0.032436275
0.030578781
0.028116032
0.027987224
0.032113284
0.037229503
0.038523755
0.032698799
0.016427117
0.034122637
0.034096064
0.034030285
0.033907355
0.033684417
0.033248788
0.032304627
0.030400435
0.028182107
0.02875725
0.03337746
0.038384663
0.039252794
0.032971855
0.016427382
0.034049553
0.034022276
0.033955452
0.033832084
0.033608631
0.033163012
0.03217613
0.030244714
0.02834114
0.029630359
0.034662707
0.039511265
0.039951228
0.033230086
0.016427779
0.03397814
0.033950437
0.033883292
0.033760766
0.033538214
0.0330823
0.032051523
0.030119154
0.028600248
0.030597022
0.035959728
0.040608641
0.040620777
0.033474856
0.016428318
0.033908471
0.033880668
0.033814033
0.033693749
0.033473498
0.033006661
0.031932061
0.030032291
0.028964397
0.031646652
0.037260744
0.041676558
0.0412631
0.033707373
0.01642901
0.033840644
0.033813121
0.033747936
0.033631414
0.033414804
0.032936115
0.031819661
0.029993369
0.029436211
0.03276813
0.038559405
0.042715108
0.041879779
0.033928705
0.016429865
0.033774787
0.03374798
0.033685299
0.033574167
0.033362441
0.032870717
0.031717044
0.030011962
0.030015934
0.033950284
0.039850629
0.043724612
0.042472314
0.034139802
0.016430892
0.033711057
0.03368546
0.033626458
0.03352244
0.033316699
0.032810615
0.031627853
0.03009752
0.030701524
0.035182301
0.041130415
0.044705564
0.043042113
0.034341502
0.016432097
0.033649643
0.033625814
0.033571787
0.033476689
0.033277844
0.032756113
0.031556734
0.030258904
0.031488878
0.036454044
0.042395663
0.045658586
0.043590498
0.034534553
0.016433487
0.03359077
0.033569333
0.033521698
0.033437387
0.03324612
0.032707756
0.031509357
0.030503939
0.032372144
0.037756266
0.043643994
0.046584395
0.044118699
0.034719618
0.016435064
0.033534699
0.033516348
0.033476647
0.033405019
0.033221753
0.032666433
0.031492359
0.030839027
0.033344087
0.039080734
0.044873611
0.047483769
0.044627864
0.034897289
0.016436831
0.033481731
0.033467235
0.033437127
0.033380083
0.033204961
0.032633491
0.031513197
0.031268866
0.034396491
0.040420264
0.046083175
0.048357533
0.045119059
0.035068096
0.016438788
0.033432211
0.033422413
0.033403675
0.033363076
0.033195977
0.032610856
0.031579923
0.031796265
0.035520554
0.041768689
0.047271716
0.04920653
0.045593277
0.035232514
0.016440933
0.033386531
0.033382352
0.033376864
0.033354497
0.033195078
0.03260115
0.031700872
0.032422091
0.036707255
0.043120788
0.048438562
0.050031614
0.046051438
0.035390969
0.016443266
0.033345134
0.033347573
0.033357309
0.033354836
0.033202628
0.032607792
0.031884307
0.033145318
0.037947675
0.044472181
0.049583282
0.050833633
0.046494398
0.035543845
0.016445782
0.033308518
0.033318652
0.033345661
0.033364571
0.033219143
0.032635061
0.032138042
0.033963178
0.039233251
0.045819222
0.050705639
0.051613421
0.046922952
0.03569149
0.016448478
0.033277237
0.03329622
0.033342601
0.033384174
0.033245363
0.032688109
0.03246907
0.034871382
0.040555967
0.047158892
0.05180556
0.052371795
0.04733784
0.035834219
0.016451351
0.033251914
0.033280969
0.033348845
0.033414106
0.033282345
0.032772916
0.032883246
0.035864398
0.041908471
0.0484887
0.0528831
0.053109547
0.047739749
0.03597232
0.016454394
0.033233235
0.033273652
0.033365128
0.033454835
0.033331563
0.032896165
0.033385032
0.036935758
0.04328414
0.049806603
0.053938418
0.053827442
0.048129318
0.036106053
0.016457603
0.033221962
0.033275082
0.033392211
0.033506851
0.033395016
0.033065049
0.033977333
0.038078362
0.044677084
0.051110933
0.054971755
0.054526217
0.048507143
0.036235658
0.016460974
0.033218934
0.033286139
0.033430864
0.033570696
0.033475331
0.03328702
0.034661419
0.039284776
0.046082128
0.052400339
0.055983415
0.055206584
0.048873781
0.036361355
0.016464499
0.033225073
0.033307763
0.033481871
0.033647008
0.033575844
0.033569482
0.035436948
0.040547488
0.047494759
0.053673741
0.056973751
0.055869223
0.049229753
0.036483353
0.016468174
0.033241386
0.033340956
0.033546021
0.033736578
0.033700659
0.033919475
0.036302063
0.041859133
0.048911064
0.054930288
0.057943146
0.056514765
0.04957544
0.036601081
0.01647199
0.033268972
0.03338678
0.033624112
0.03384042
0.03385465
0.03434336
0.037253554
0.043212653
0.050327668
0.056169319
0.058892004
0.057143803
0.049911239
0.036714877
0.016475942
0.033309024
0.033446356
0.033716953
0.03395986
0.034043419
0.034846536
0.038287073
0.044601421
0.051741663
0.057390336
0.059820742
0.057756909
0.050237554
0.036825044
0.016480019
0.03336283
0.033520853
0.033825376
0.034096628
0.034273182
0.035433217
0.039397373
0.046019313
0.053150557
0.058592977
0.06072979
0.058354633
0.050554795
0.03693185
0.016484214
0.033431776
0.033611491
0.033950258
0.034252955
0.034550593
0.036106275
0.040578559
0.04746074
0.054552213
0.059776994
0.061619575
0.058937454
0.050862923
0.037035581
0.016488518
0.033517345
0.033719534
0.034092551
0.034431668
0.03488252
0.036867158
0.041824328
0.048920655
0.055944812
0.060942232
0.06249052
0.059505814
0.051162153
0.037136397
0.016492923
0.033621115
0.033846284
0.034253327
0.034636255
0.035275774
0.037715893
0.043128189
0.050394537
0.057326802
0.062088615
0.063343044
0.06006017
0.051452985
0.037234386
0.016497425
0.033744759
0.033993082
0.03443384
0.034870915
0.035736825
0.038651153
0.044483655
0.051878353
0.058696874
0.063216129
0.064177565
0.060600984
0.051735857
0.037329656
0.016502019
0.033890036
0.034161312
0.034635598
0.035140546
0.036271523
0.039670381
0.045884392
0.053368528
0.06005392
0.064324814
0.064994489
0.061128586
0.052011172
0.037422335
0.0165067
0.03405879
0.03435241
0.034860451
0.035450689
0.036884841
0.040769968
0.047324335
0.054861897
0.061397015
0.06541475
0.065794164
0.061642965
0.052279316
0.037512568
0.016511467
0.034252941
0.034567879
0.035110677
0.035807414
0.037580677
0.041945443
0.04879777
0.05635567
0.062725385
0.066486045
0.066576954
0.062144687
0.052540497
0.037600459
0.016516318
0.034474486
0.034809322
0.035389081
0.036217141
0.038361708
0.043191692
0.050299374
0.057847389
0.064038388
0.067538833
0.06734324
0.062634266
0.052794932
0.037686095
0.016521247
0.034725495
0.035078484
0.035699069
0.036686421
0.039229313
0.044503157
0.051824241
0.059334892
0.065335493
0.06857328
0.068093421
0.063112159
0.053042851
0.037769554
0.016526253
0.035008117
0.035377311
0.036044703
0.037221678
0.040183573
0.04587403
0.053367885
0.060816287
0.066616273
0.069589528
0.068827394
0.063578828
0.053284505
0.03785093
0.016531332
0.035324595
0.035708019
0.036430716
0.037828941
0.041223322
0.047298425
0.054926225
0.062289915
0.067880373
0.070587729
0.069545638
0.064034582
0.0535201
0.037930313
0.01653648
0.03567729
0.036073183
0.036862479
0.038513588
0.042346261
0.04877051
0.056495567
0.063754319
0.069127501
0.071568073
0.070248625
0.06447972
0.053749824
0.038007776
0.016541694
0.036068721
0.036475824
0.037345912
0.039280113
0.043549102
0.050284618
0.058072573
0.065208225
0.070357433
0.072530785
0.070936789
0.064914538
0.053973854
0.038083383
0.01654697
0.036501621
0.036919498
0.037887335
0.040131948
0.044827751
0.051835327
0.059654244
0.06665053
0.071569983
0.073475713
0.071610513
0.065339335
0.054192381
0.038157196
0.016552305
0.036979005
0.037408366
0.038493265
0.041071338
0.046177485
0.053417511
0.061237881
0.068080256
0.072764979
0.074403157
0.072270147
0.065754373
0.054405581
0.038229277
0.016557696
0.037504252
0.037947232
0.039170173
0.042099288
0.04759314
0.055026367
0.062821056
0.069496537
0.07394231
0.075313445
0.072916008
0.0661599
0.054613614
0.03829968
0.01656314
0.038081188
0.038541547
0.039924227
0.043215563
0.049069279
0.056657433
0.064401595
0.070898623
0.075101836
0.076206858
0.073548395
0.066556159
0.054816626
0.038368455
0.016568632
0.03871416
0.039197343
0.040761019
0.044418758
0.050600342
0.058306583
0.06597755
0.072285846
0.076243347
0.077083645
0.074167585
0.066943393
0.05501476
0.038435648
0.01657417
0.039408088
0.039921108
0.04168533
0.045706402
0.052180772
0.059970018
0.067547155
0.073657587
0.077366869
0.07794411
0.074773842
0.067321827
0.055208149
0.0385013
0.01657975
0.040168468
0.040719605
0.042700919
0.047075107
0.053805113
0.061644242
0.069108812
0.075013315
0.078472489
0.078788513
0.07536742
0.067691666
0.055396917
0.038565452
0.016585369
0.041001323
0.041599619
0.043810379
0.048520732
0.055468088
0.063326071
0.07066112
0.076352432
0.079560142
0.079617055
0.07594857
0.06805311
0.055581179
0.038628138
0.016591023
0.041913074
0.042567677
0.045015051
0.050038549
0.057164645
0.065012568
0.072202738
0.077674475
0.080630018
0.080429943
0.07651753
0.068406346
0.055761044
0.038689391
0.01659671
0.042910335
0.04362974
0.046314997
0.051623415
0.058889983
0.066701028
0.073732447
0.078979134
0.081682252
0.081227378
0.077074517
0.068751547
0.055936612
0.038749241
0.016602427
0.04399964
0.044790901
0.047709039
0.053269923
0.060639595
0.068389017
0.075249109
0.080265939
0.082716892
0.082009557
0.077619738
0.069088876
0.056107974
0.038807715
0.01660817
0.045187099
0.046055116
0.049194844
0.054972531
0.06240923
0.070074219
0.076751625
0.081534795
0.083734001
0.082776662
0.078153386
0.069418484
0.056275217
0.038864836
0.016613935
0.046478035
0.047424974
0.050769041
0.056725667
0.064194901
0.071754487
0.078239053
0.082785575
0.084733644
0.083528861
0.07867564
0.069740509
0.056438416
0.038920625
0.016619721
0.047876609
0.048901542
0.052427372
0.058523836
0.065992922
0.073427851
0.07971037
0.084018054
0.085715883
0.084266306
0.079186664
0.070055078
0.056597643
0.038975102
0.016625524
0.049385484
0.050484273
0.054164835
0.060361633
0.067799744
0.075092351
0.081165084
0.085232047
0.086680766
0.084989138
0.079686606
0.070362307
0.056752961
0.039028282
0.01663134
0.051005554
0.05217099
0.055975852
0.062233856
0.069612104
0.076746031
0.082602568
0.086427377
0.087628331
0.08569748
0.080175601
0.0706623
0.056904426
0.039080179
0.016637167
0.052735767
0.05395794
0.057854376
0.064135403
0.071426772
0.078387497
0.08402221
0.087603865
0.088558602
0.086391437
0.08065377
0.07095515
0.057052088
0.039130803
0.016643002
0.054573059
0.055839909
0.059794051
0.066061388
0.073240512
0.080015452
0.085423429
0.088761325
0.089471589
0.087071099
0.081121215
0.071240939
0.057195991
0.039180164
0.016648841
0.056512398
0.057810364
0.061788219
0.068006881
0.075050746
0.08162863
0.086805663
0.089899565
0.090367282
0.087736538
0.081578026
0.071519737
0.057336171
0.039228267
0.016654681
0.058546937
0.059861636
0.06383
0.069967085
0.076855099
0.083225831
0.088168363
0.091018384
0.091245656
0.088387807
0.082024277
0.071791604
0.057472658
0.039275116
0.01666052
0.060668195
0.061985002
0.065912248
0.071937832
0.078651312
0.084805903
0.089510984
0.092117564
0.092106667
0.089024941
0.082460026
0.072056589
0.057605478
0.039320713
0.016666354
0.062866268
0.064171057
0.068028125
0.073915107
0.080437233
0.086367737
0.090832988
0.093196876
0.09295025
0.089647955
0.082885316
0.072314729
0.057734647
0.039365057
0.016672179
0.065130291
0.066409998
0.070170846
0.07589504
0.082210799
0.087910259
0.092133833
0.094256073
0.093776319
0.090256845
0.083300174
0.072566053
0.057860179
0.039408146
0.016677994
0.067448824
0.068691813
0.072333716
0.077873887
0.08397003
0.089432424
0.093412977
0.095294891
0.094584768
0.090851588
0.083704611
0.072810576
0.057982079
0.039449975
0.016683793
0.069810201
0.07100648
0.074510163
0.079848025
0.085713014
0.090933212
0.094669873
0.09631305
0.095375468
0.091432141
0.084098624
0.073048303
0.058100347
0.039490537
0.016689574
0.072202849
0.073344148
0.076693784
0.081813941
0.0874379
0.092411623
0.095903969
0.097310251
0.096148273
0.091998442
0.084482193
0.07327923
0.058214977
0.039529821
0.016695333
0.074615548
0.075695293
0.078878374
0.08376823
0.089142892
0.093866677
0.09711471
0.098286181
0.096903012
0.092550407
0.084855282
0.073503341
0.058325957
0.039567818
0.016701067
0.077037632
0.078050846
0.081057971
0.085707596
0.090826242
0.095297411
0.098301537
0.099240509
0.097639498
0.093087938
0.085217842
0.073720609
0.058433269
0.039604512
0.016706772
0.079459146
0.080402291
0.083226889
0.087628854
0.092486253
0.096702881
0.099463891
0.10017289
0.098357526
0.093610916
0.085569808
0.073930997
0.058536889
0.039639888
0.016712445
0.08187094
0.082741742
0.085379752
0.089528941
0.094121277
0.098082162
0.10060121
0.10108299
0.099056874
0.094119206
0.085911099
0.074134459
0.058636787
0.039673928
0.01671808
0.084264725
0.08506198
0.087511523
0.091404925
0.095729718
0.099434352
0.10171295
0.10197042
0.099737309
0.094612659
0.086241624
0.074330935
0.058732928
0.039706612
0.016723674
0.086633091
0.087356481
0.089617528
0.093254017
0.097310038
0.10075858
0.10279857
0.10283485
0.10039859
0.095091114
0.086561277
0.074520361
0.05882527
0.039737916
0.016729223
0.088969494
0.089619415
0.091693472
0.095073582
0.098860759
0.10205399
0.10385752
0.10367591
0.10104046
0.095554396
0.086869943
0.074702662
0.058913767
0.039767816
0.016734723
0.091268225
0.091845636
0.093735449
0.096861155
0.10038048
0.10331977
0.10488931
0.10449324
0.10166267
0.096002327
0.087167497
0.074877753
0.058998367
0.039796286
0.016740168
0.093524361
0.094030651
0.095739946
0.098614449
0.10186787
0.10455517
0.10589344
0.1052865
0.10226497
0.096434723
0.087453809
0.075045548
0.059079015
0.039823297
0.016745553
0.095733713
0.096170587
0.09770384
0.10033136
0.10332168
0.10575944
0.10686946
0.10605538
0.10284711
0.096851397
0.087728743
0.075205951
0.059155652
0.03984882
0.016750874
0.097892761
0.098262152
0.099624391
0.10200999
0.10474077
0.10693192
0.10781694
0.10679956
0.10340886
0.097252168
0.087992162
0.075358867
0.059228217
0.039872824
0.016756126
0.099998597
0.10030259
0.10149923
0.10364863
0.10612408
0.108072
0.10873548
0.10751877
0.10395
0.097636862
0.088243931
0.075504198
0.059296647
0.039895278
0.016761303
0.10204886
0.10228963
0.10332633
0.10524578
0.10747067
0.10917912
0.10962475
0.10821275
0.10447034
0.098005315
0.08848392
0.075641847
0.059360879
0.039916151
0.016766399
0.10404168
0.10422146
0.105104
0.10680012
0.10877971
0.11025278
0.11048446
0.10888131
0.10496969
0.098357378
0.088712007
0.075771722
0.059420853
0.039935413
0.016771409
0.10597563
0.10609665
0.10683089
0.10831055
0.11005046
0.11129258
0.11131434
0.10952426
0.10544792
0.098692923
0.088928081
0.075893736
0.05947651
0.039953035
0.016776326
0.10784966
0.10791415
0.1085059
0.10977615
0.11128232
0.11229817
0.11211421
0.11014147
0.10590492
0.099011844
0.089132046
0.076007811
0.059527796
0.039968989
0.016781146
0.10966307
0.10967322
0.11012822
0.1111962
0.11247479
0.11326927
0.11288394
0.11073287
0.10634059
0.099314062
0.089323823
0.076113879
0.059574664
0.039983251
0.016785863
0.11141548
0.11137342
0.11169728
0.11257014
0.11362749
0.11420571
0.11362345
0.11129841
0.10675492
0.099599527
0.089503357
0.076211888
0.059617073
0.0399958
0.01679047
0.11310673
0.11301455
0.11321275
0.1138976
0.11474017
0.11510735
0.11433271
0.11183811
0.10714791
0.099868223
0.089670613
0.076301798
0.059654993
0.04000662
0.016794962
0.11473694
0.11459666
0.11467449
0.11517834
0.11581265
0.11597417
0.11501177
0.11235203
0.10751959
0.10012017
0.089825584
0.076383589
0.059688403
0.040015697
0.016799333
0.1163064
0.11611996
0.11608256
0.1164123
0.1168449
0.11680621
0.11566074
0.11284029
0.10787007
0.10035541
0.089968288
0.076457258
0.059717294
0.040023026
0.016803579
0.1178156
0.11758488
0.11743717
0.11759955
0.11783697
0.11760357
0.11627977
0.11330305
0.10819948
0.10057405
0.090098773
0.076522826
0.059741668
0.040028604
0.016807694
0.11926517
0.11899197
0.11873868
0.11874028
0.11878902
0.11836645
0.11686908
0.11374052
0.10850798
0.1007762
0.090217119
0.076580331
0.059761544
0.040032438
0.016811673
0.12065587
0.12034193
0.1199876
0.11983481
0.11970127
0.1190951
0.11742895
0.11415297
0.10879582
0.10096203
0.090323431
0.076629836
0.059776951
0.040034538
0.016815513
0.12198859
0.12163556
0.12118456
0.12088355
0.12057408
0.11978984
0.11795971
0.11454071
0.10906324
0.10113174
0.090417846
0.076671423
0.059787935
0.040034922
0.016819209
0.12326431
0.12287378
0.12233025
0.12188703
0.12140785
0.12045106
0.11846172
0.11490409
0.10931054
0.10128557
0.090500532
0.076705201
0.059794553
0.040033615
0.016822759
0.12448407
0.12405757
0.12342551
0.12284586
0.12220305
0.12107919
0.11893542
0.1152435
0.10953808
0.10142379
0.090571681
0.076731295
0.05979688
0.040030646
0.016826158
0.12564901
0.125188
0.1244712
0.12376071
0.12296024
0.12167473
0.11938127
0.11555937
0.10974621
0.10154668
0.090631516
0.076749853
0.059795002
0.040026054
0.016829406
0.1267603
0.12626618
0.12546829
0.12463232
0.12368002
0.12223822
0.11979977
0.11585216
0.10993535
0.10165459
0.090680282
0.076761045
0.059789017
0.040019882
0.0168325
0.12781917
0.12729329
0.12641777
0.12546152
0.12436306
0.12277024
0.12019147
0.11612238
0.11010593
0.10174786
0.090718249
0.076765055
0.059779039
0.040012176
0.016835438
0.12882687
0.12827052
0.12732071
0.12624914
0.12501006
0.12327141
0.12055693
0.11637055
0.1102584
0.10182688
0.090745707
0.076762088
0.059765188
0.040002993
0.01683822
0.12978469
0.1291991
0.12817817
0.1269961
0.12562177
0.1237424
0.12089677
0.11659721
0.11039325
0.10189205
0.090762967
0.076752361
0.0597476
0.039992389
0.016840846
0.13069392
0.13008028
0.12899129
0.12770332
0.12619895
0.12418387
0.1212116
0.11680293
0.11051098
0.10194377
0.090770354
0.076736107
0.059726415
0.039980428
0.016843315
0.13155587
0.13091534
0.12976118
0.12837175
0.12674243
0.12459654
0.12150206
0.1169883
0.11061211
0.1019825
0.09076821
0.076713571
0.059701785
0.039967174
0.016845629
0.13237186
0.13170553
0.13048901
0.12900239
0.12725303
0.12498114
0.12176882
0.11715391
0.11069717
0.10200868
0.09075689
0.076685007
0.059673868
0.039952699
0.016847789
0.13314321
0.13245214
0.13117594
0.12959623
0.12773161
0.12533842
0.12201255
0.11730039
0.11076671
0.10202276
0.090736758
0.076650679
0.059642826
0.039937073
0.016849796
0.13387123
0.13315644
0.13182312
0.13015427
0.12817902
0.12566913
0.12223393
0.11742836
0.11082126
0.10202522
0.090708188
0.076610859
0.059608827
0.039920369
0.016851651
0.13455722
0.13381971
0.13243174
0.13067755
0.12859615
0.12597405
0.12243367
0.11753843
0.1108614
0.10201654
0.090671559
0.076565822
0.059572045
0.039902663
0.016853359
0.1352025
0.13444321
0.13300295
0.13116708
0.12898388
0.12625395
0.12261246
0.11763125
0.11088768
0.10199718
0.090627255
0.07651585
0.059532652
0.03988403
0.01685492
0.13580835
0.13502819
0.13353792
0.13162389
0.1293431
0.12650961
0.122771
0.11770746
0.11090067
0.10196763
0.090575666
0.076461227
0.059490827
0.039864547
0.016856339
0.13637605
0.13557591
0.13403781
0.13204901
0.1296747
0.12674183
0.12291
0.11776768
0.11090094
0.10192839
0.090517182
0.076402239
0.059446746
0.039844291
0.016857618
0.13690687
0.1360876
0.13450377
0.13244347
0.12997958
0.12695138
0.12303017
0.11781256
0.11088905
0.10187993
0.090452193
0.076339171
0.059400586
0.039823336
0.016858761
0.13740207
0.13656449
0.13493694
0.13280828
0.13025864
0.12713907
0.12313222
0.11784273
0.11086557
0.10182273
0.090381089
0.076272311
0.059352525
0.03980176
0.016859772
0.13786288
0.13700779
0.13533847
0.13314446
0.13051276
0.12730568
0.12321684
0.11785883
0.11083106
0.10175729
0.09030426
0.076201942
0.059302738
0.039779635
0.016860655
0.13829055
0.13741871
0.13570947
0.13345303
0.13074285
0.12745199
0.12328474
0.11786148
0.11078608
0.10168407
0.090222091
0.076128347
0.059251399
0.039757035
0.016861414
0.13868628
0.13779842
0.13605106
0.13373498
0.13094978
0.12757879
0.12333663
0.11785132
0.11073118
0.10160355
0.090134964
0.076051806
0.05919868
0.039734033
0.016862053
0.13905128
0.1381481
0.13636434
0.13399132
0.13113443
0.12768685
0.12337319
0.11782897
0.11066691
0.1015162
0.090043258
0.075972594
0.059144749
0.039710696
0.016862578
0.13938672
0.13846891
0.13665039
0.13422304
0.13129769
0.12777695
0.12339511
0.11779503
0.11059381
0.10142249
0.089947344
0.075890982
0.05908977
0.039687094
0.016862991
0.13969378
0.13876198
0.1369103
0.13443109
0.1314404
0.12784985
0.12340307
0.11775011
0.11051242
0.10132286
0.08984759
0.075807237
0.059033906
0.039663292
0.016863299
0.13997361
0.13902844
0.13714512
0.13461646
0.13156344
0.12790632
0.12339775
0.11769482
0.11042326
0.10121777
0.089744355
0.075721619
0.058977312
0.039639354
0.016863505
0.14022732
0.1392694
0.13735589
0.13478009
0.13166765
0.12794708
0.1233798
0.11762975
0.11032685
0.10110766
0.089637989
0.075634382
0.05892014
0.039615339
0.016863615
0.14045603
0.13948592
0.13754363
0.13492291
0.13175386
0.1279729
0.12334989
0.11755546
0.1102237
0.10099295
0.089528837
0.075545771
0.058862538
0.039591308
0.016863634
0.14066082
0.13967909
0.13770936
0.13504585
0.13182289
0.12798449
0.12330866
0.11747254
0.11011431
0.10087408
0.089417232
0.075456026
0.058804646
0.039567313
0.016863565
0.14084275
0.13984992
0.13785405
0.1351498
0.13187554
0.12798256
0.12325674
0.11738155
0.10999916
0.10075143
0.089303498
0.075365377
0.0587466
0.03954341
0.016863415
0.14100285
0.13999944
0.13797867
0.13523564
0.13191261
0.12796782
0.12319474
0.11728301
0.10987873
0.10062542
0.089187947
0.075274047
0.058688529
0.039519646
0.016863188
0.14114214
0.14012863
0.13808415
0.13530425
0.13193487
0.12794094
0.12312327
0.11717747
0.10975347
0.10049643
0.089070882
0.075182246
0.058630555
0.039496068
0.016862888
0.14126158
0.14023845
0.1381714
0.13535645
0.13194307
0.1279026
0.12304291
0.11706544
0.10962382
0.10036482
0.088952592
0.075090178
0.058572795
0.039472721
0.01686252
0.14136213
0.14032983
0.13824131
0.13539306
0.13193795
0.12785344
0.12295425
0.11694743
0.10949023
0.10023096
0.088833355
0.074998035
0.058515357
0.039449642
0.016862089
0.14144472
0.14040368
0.13829475
0.13541489
0.13192021
0.1277941
0.12285783
0.11682391
0.1093531
0.10009518
0.088713435
0.074906
0.058458344
0.03942687
0.016861598
0.14151022
0.14046087
0.13833254
0.13542269
0.13189056
0.12772519
0.12275419
0.11669535
0.10921283
0.099957821
0.088593085
0.074814244
0.058401849
0.039404438
0.016861054
0.14155951
0.14050225
0.1383555
0.13541721
0.13184965
0.12764731
0.12264386
0.11656221
0.10906981
0.09981919
0.088472542
0.074722929
0.058345963
0.039382377
0.016860458
0.14159342