/*--------------------------------*- C++ -*----------------------------------*\
| =========                 |                                                 |
| \\      /  F ield         | OpenFOAM: The Open Source CFD Toolbox           |
|  \\    /   O peration     | Version:  2506                                  |
|   \\  /    A nd           | Website:  www.openfoam.com                      |
|    \\/     M anipulation  |                                                 |
\*---------------------------------------------------------------------------*/
FoamFile
{
    version     2.0;
    format      ascii;
    arch        "LSB;label=32;scalar=64";
    class       volScalarField;
    location    "21000/water";
    object      epsilon;
}
// * * * * * * * * * * * * * * * * * * * * * * * * * * * * * * * * * * * * * //

dimensions      [0 2 -3 0 0 0 0];

internalField   nonuniform List<scalar> 
6000
(
0.00010005327
0.00010005311
0.00010005314
0.00010005327
0.00010005342
0.00010005363
0.0001000539
0.00010005427
0.00010005511
0.00010005982
0.00010010144
0.00010049509
0.00010424183
0.00014354191
0.00073980483
8.5785229e-05
8.5785556e-05
8.5786111e-05
8.5786982e-05
8.5788138e-05
8.5789633e-05
8.5791527e-05
8.5794043e-05
8.5798789e-05
8.581901e-05
8.5962524e-05
8.7071869e-05
9.5619929e-05
0.00016974081
0.0010520452
7.4267219e-05
7.4268013e-05
7.426896e-05
7.4270365e-05
7.4272213e-05
7.4274585e-05
7.4277581e-05
7.4281747e-05
7.4291154e-05
7.4336305e-05
7.4633748e-05
7.6634978e-05
9.0041817e-05
0.00019500629
0.0013270628
6.4852864e-05
6.485355e-05
6.4854661e-05
6.4856389e-05
6.4858676e-05
6.4861616e-05
6.4865387e-05
6.4871112e-05
6.4886838e-05
6.4967364e-05
6.5458677e-05
6.84101e-05
8.6285088e-05
0.00021715658
0.0015411415
5.7072087e-05
5.7072704e-05
5.7073918e-05
5.7075861e-05
5.7078448e-05
5.7081784e-05
5.7086167e-05
5.7093598e-05
5.7117581e-05
5.7242267e-05
5.7947685e-05
6.180797e-05
8.3505097e-05
0.0002348614
0.0016895689
5.0576692e-05
5.0577312e-05
5.0578592e-05
5.0580667e-05
5.0583434e-05
5.0587016e-05
5.0591882e-05
5.0601216e-05
5.0635234e-05
5.0810032e-05
5.1732149e-05
5.6406881e-05
8.1259069e-05
0.00024828861
0.0017792142
4.5104569e-05
4.5105188e-05
4.5106499e-05
4.5108638e-05
4.5111496e-05
4.5115213e-05
4.5120483e-05
4.5131961e-05
4.5177479e-05
4.5405527e-05
4.6535255e-05
5.1917397e-05
7.9376731e-05
0.00025838324
0.0018218943
4.0455895e-05
4.0456503e-05
4.045782e-05
4.0459977e-05
4.0462859e-05
4.0466628e-05
4.0472257e-05
4.0486117e-05
4.0544208e-05
4.0826355e-05
4.2148994e-05
4.8144563e-05
7.7837439e-05
0.00026629433
0.0018300463
3.6476506e-05
3.6477102e-05
3.6478406e-05
3.6480546e-05
3.6483399e-05
3.6487156e-05
3.6493116e-05
3.6509564e-05
3.6580944e-05
3.6916576e-05
3.8416896e-05
4.4958845e-05
7.6693461e-05
0.00027309124
0.0018145574
3.304611e-05
3.3046691e-05
3.304797e-05
3.3050065e-05
3.3052847e-05
3.3056537e-05
3.3062809e-05
3.3082024e-05
3.3167159e-05
3.3555102e-05
3.5220975e-05
4.2274823e-05
7.6025068e-05
0.00027965054
0.0017840405
3.0069857e-05
3.007042e-05
3.0071664e-05
3.0073692e-05
3.0076366e-05
3.0079941e-05
3.0086514e-05
3.0108667e-05
3.0207924e-05
3.0647227e-05
3.2471858e-05
4.0036357e-05
7.5917105e-05
0.00028663427
0.001744886
2.7472233e-05
2.7472777e-05
2.7473976e-05
2.7475917e-05
2.747845e-05
2.7481869e-05
2.7488744e-05
2.7514021e-05
2.7627825e-05
2.8118369e-05
3.010146e-05
3.820687e-05
7.6449192e-05
0.00029450875
0.0017016307
2.5192577e-05
2.5193098e-05
2.5194246e-05
2.5196082e-05
2.5198442e-05
2.520167e-05
2.520887e-05
2.5237507e-05
2.5366478e-05
2.5909414e-05
2.805763e-05
3.6763308e-05
7.7693097e-05
0.0003035735
0.00165739
2.3181748e-05
2.3182245e-05
2.3183333e-05
2.3185048e-05
2.3187207e-05
2.3190219e-05
2.3197794e-05
2.323011e-05
2.3375184e-05
2.3973213e-05
2.6300284e-05
3.5692527e-05
7.9712907e-05
0.00031398658
0.0016142425
2.1399629e-05
2.14001e-05
2.140112e-05
2.1402697e-05
2.140463e-05
2.1407412e-05
2.1415452e-05
2.1451882e-05
2.1614405e-05
2.2271964e-05
2.4798652e-05
3.4989203e-05
8.2565442e-05
0.00032578296
0.0015735325
1.9813231e-05
1.9813672e-05
1.9814616e-05
1.981604e-05
1.9817725e-05
1.9820279e-05
1.9828922e-05
1.9870043e-05
2.0051847e-05
2.0775227e-05
2.3529325e-05
3.4654636e-05
8.6299521e-05
0.00033888748
0.0015360911
1.8395236e-05
1.8395645e-05
1.8396506e-05
1.8397761e-05
1.8399183e-05
1.8401531e-05
1.8410972e-05
1.8457531e-05
1.8660989e-05
1.9458432e-05
2.2474895e-05
3.4695971e-05
9.095345e-05
0.00035312607
0.0015023901
1.7122886e-05
1.7123259e-05
1.7124028e-05
1.7125102e-05
1.712625e-05
1.7128438e-05
1.7138942e-05
1.7191872e-05
1.7419954e-05
1.8301752e-05
2.1622992e-05
3.5125546e-05
9.6550686e-05
0.00036823944
0.0014726449
1.5977101e-05
1.5977436e-05
1.5978105e-05
1.5978984e-05
1.5979859e-05
1.598196e-05
1.5993865e-05
1.6054312e-05
1.6310628e-05
1.7289248e-05
2.0965619e-05
3.5960111e-05
0.00010309413
0.00038390222
0.0014468811
1.4941799e-05
1.4942091e-05
1.4942652e-05
1.4943329e-05
1.494394e-05
1.4946058e-05
1.4959787e-05
1.5029124e-05
1.5317979e-05
1.6408225e-05
2.049868e-05
3.7219755e-05
0.00011055991
0.00039974861
0.00142498
1.4003348e-05
1.4003595e-05
1.4004041e-05
1.4004511e-05
1.400488e-05
1.4007153e-05
1.402322e-05
1.4103071e-05
1.442952e-05
1.5648751e-05
2.0221625e-05
3.8926414e-05
0.00011889194
0.00041540307
0.0014067117
1.3150142e-05
1.315034e-05
1.3150665e-05
1.3150927e-05
1.315109e-05
1.3153695e-05
1.3172714e-05
1.3264971e-05
1.3634892e-05
1.5003284e-05
2.0137155e-05
4.1101901e-05
0.00012799852
0.0004305123
0.0013917631
1.2372247e-05
1.2372393e-05
1.2372592e-05
1.237265e-05
1.2372659e-05
1.2375814e-05
1.2398506e-05
1.2505359e-05
1.2925534e-05
1.446641e-05
2.0250947e-05
4.3765469e-05
0.00013775238
0.00044477369
0.0013797649
1.1661123e-05
1.1661215e-05
1.1661286e-05
1.166115e-05
1.1661074e-05
1.1665043e-05
1.1692246e-05
1.1816209e-05
1.2294425e-05
1.4034634e-05
2.0571326e-05
4.6930996e-05
0.00014799478
0.00045795585
0.0013703185
1.1009401e-05
1.1009437e-05
1.1009378e-05
1.1009066e-05
1.1008994e-05
1.101409e-05
1.104677e-05
1.1190715e-05
1.1735881e-05
1.3706238e-05
2.1108871e-05
5.0604014e-05
0.00015854368
0.00046990849
0.0013630208
1.0410692e-05
1.041067e-05
1.0410485e-05
1.0410022e-05
1.0410062e-05
1.0416652e-05
1.0455917e-05
1.0623112e-05
1.1245399e-05
1.3481165e-05
2.1875889e-05
5.4778859e-05
0.00016920526
0.00048056142
0.0013574861
9.8594384e-06
9.8593586e-06
9.8590515e-06
9.8584721e-06
9.8587577e-06
9.8672657e-06
9.9143754e-06
1.0108535e-05
1.0819533e-05
1.3360938e-05
2.2885735e-05
5.9436317e-05
0.00017978706
0.00048991474
0.001353362
9.3507874e-06
9.3506504e-06
9.3502304e-06
9.3495787e-06
9.3502669e-06
9.3611826e-06
9.4175684e-06
9.6428999e-06
1.045581e-05
1.3348574e-05
2.4151946e-05
6.4542151e-05
0.00019011095
0.00049802341
0.0013503406
8.8804873e-06
8.8802951e-06
8.8797751e-06
8.879106e-06
8.8803818e-06
8.8942644e-06
8.9615474e-06
9.2228179e-06
1.0152655e-05
1.3448503e-05
2.5687206e-05
7.0046824e-05
0.00020002406
0.00050498001
0.0013481619
8.4448007e-06
8.4445568e-06
8.4439543e-06
8.4433345e-06
8.4454129e-06
8.4628989e-06
8.5429123e-06
8.8455163e-06
9.9093487e-06
1.3666457e-05
2.7502143e-05
7.5886621e-05
0.00020940613
0.0005108985
0.0013466143
8.0404324e-06
8.0401416e-06
8.0394792e-06
8.0389884e-06
8.0421174e-06
8.0639293e-06
8.1587433e-06
8.508784e-06
9.7259953e-06
1.4009323e-05
2.9604058e-05
8.1986182e-05
0.00021817297
0.000515901
0.00134553
7.664468e-06
7.6641372e-06
7.663443e-06
7.6631755e-06
7.6676392e-06
7.6945949e-06
7.8065457e-06
8.2109262e-06
9.6034999e-06
1.4484935e-05
3.1995646e-05
8.8262228e-05
0.00022627582
0.0005201082
0.0013447795
7.3143234e-06
7.3139614e-06
7.3132697e-06
7.3133352e-06
7.319458e-06
7.3524816e-06
7.4842048e-06
7.950732e-06
9.5435554e-06
1.5101802e-05
3.4673865e-05
9.4628078e-05
0.00023369766
0.00052363336
0.0013442658
6.9877006e-06
6.9873184e-06
6.9866703e-06
6.9871959e-06
6.9953468e-06
7.0354818e-06
7.1899496e-06
7.7274515e-06
9.5486283e-06
1.5868742e-05
3.7629068e-05
0.00010099842
0.00024044745
0.00052657911
0.0013439174
6.6825513e-06
6.6821625e-06
6.6816065e-06
6.6827386e-06
6.6933357e-06
6.741759e-06
6.9223234e-06
7.5407805e-06
9.6219392e-06
1.6794438e-05
4.0844541e-05
0.00010729381
0.00024655353
0.00052903629
0.0013436835
6.3970453e-06
6.396666e-06
6.3962591e-06
6.3981651e-06
6.411682e-06
6.4697206e-06
6.6801611e-06
7.3908531e-06
9.7674314e-06
1.7886905e-05
4.4296529e-05
0.00011344428
0.00025205715
0.0005310841
0.0013435288
6.1295436e-06
6.129193e-06
6.129001e-06
6.1318719e-06
6.1488438e-06
6.2179935e-06
6.4625723e-06
7.2782395e-06
9.9897187e-06
1.9152894e-05
4.7954808e-05
0.00011939198
0.0002570069
0.00053279086
0.0013434302
5.8785752e-06
5.8782757e-06
5.8783746e-06
5.8824275e-06
5.903459e-06
5.9854055e-06
6.2689287e-06
7.2039478e-06
1.0294006e-05
2.0597266e-05
5.1783773e-05
0.00012509231
0.00026145422
0.00053421506
0.001343373
5.6428172e-06
5.642595e-06
5.6430719e-06
5.6485531e-06
5.6743264e-06
5.7709695e-06
6.0988564e-06
7.1694287e-06
1.0685974e-05
2.2222385e-05
5.5743958e-05
0.00013051409
0.00026545026
0.00053540647
0.0013433493
5.4210776e-06
5.4209629e-06
5.4219174e-06
5.4291059e-06
5.4603909e-06
5.5738715e-06
5.9522322e-06
7.1765787e-06
1.1171622e-05
2.402758e-05
5.9793835e-05
0.00013563849
0.00026904378
0.00053640725
0.0013433553
5.2122808e-06
5.2123081e-06
5.2138535e-06
5.2230651e-06
5.26073e-06
5.3934608e-06
5.8291825e-06
7.2277422e-06
1.1757062e-05
2.6008735e-05
6.3891719e-05
0.00014045745
0.00027228005
0.00053725289
0.0013433902
5.0154542e-06
5.0156629e-06
5.0179281e-06
5.0295196e-06
5.0745437e-06
5.2292435e-06
5.7300867e-06
7.3257058e-06
1.2448271e-05
2.8158068e-05
6.7997575e-05
0.00014497164
0.00027520025
0.00053797313
0.0013434553
4.8297171e-06
4.8301524e-06
4.8332834e-06
4.847658e-06
4.9011459e-06
5.0808782e-06
5.6555823e-06
7.4736833e-06
1.3250796e-05
3.0464119e-05
7.2074575e-05
0.00014918835
0.00027784139
0.00053859275
0.0013435527
4.654271e-06
4.6549842e-06
4.6591465e-06
4.6767597e-06
4.739957e-06
4.9481738e-06
5.6065719e-06
7.6752861e-06
1.4169424e-05
3.2911987e-05
7.6090277e-05
0.00015311953
0.00028023648
0.00053913229
0.0013436849
4.4883913e-06
4.4894404e-06
4.4948214e-06
4.5161875e-06
4.5904991e-06
4.8310889e-06
5.5842316e-06
7.9344756e-06
1.5207848e-05
3.5483783e-05
8.0017361e-05
0.00015678017
0.00028241474
0.00053960872
0.0013438547
4.3314193e-06
4.3328703e-06
4.3396818e-06
4.3653818e-06
4.452392e-06
4.7297343e-06
5.5900196e-06
8.2554924e-06
1.6368331e-05
3.8159287e-05
8.3833932e-05
0.00016018692
0.00028440196
0.00054003599
0.0013440645
4.1827562e-06
4.1846838e-06
4.1931653e-06
4.2238553e-06
4.3253508e-06
4.6443763e-06
5.6256833e-06
8.64276e-06
1.7651409e-05
4.0916739e-05
8.7523434e-05
0.00016335711
0.00028622083
0.00054042551
0.0013443165
4.0418571e-06
4.0443457e-06
4.0547683e-06
4.0911891e-06
4.2091847e-06
4.5754417e-06
5.693263e-06
9.10076e-06
1.9055658e-05
4.3733691e-05
9.1074255e-05
0.00016630804
0.00028789123
0.00054078658
0.0013446125
3.9082261e-06
3.9113713e-06
3.9240414e-06
3.96703e-06
4.103797e-06
4.5235248e-06
5.7950909e-06
9.6338804e-06
2.0577552e-05
4.658786e-05
9.4479149e-05
0.00016905655
0.0002894306
0.00054112679
0.0013449537
3.781412e-06
3.7853219e-06
3.8005859e-06
3.8510876e-06
4.0091864e-06
4.4893953e-06
5.9337827e-06
1.0246237e-05
2.2211424e-05
4.9457896e-05
9.7734538e-05
0.00017161867
0.00029085417
0.00054145227
0.001345341
3.6610043e-06
3.6658014e-06
3.6840513e-06
3.7431338e-06
3.9254494e-06
4.4740067e-06
6.1122182e-06
1.0941479e-05
2.3949551e-05
5.2324021e-05
0.00010083981
0.0001740095
0.00029217524
0.00054176798
0.0013457749
3.5466302e-06
3.5524531e-06
3.5741321e-06
3.6430016e-06
3.8527838e-06
4.4785051e-06
6.3335103e-06
1.172258e-05
2.5782348e-05
5.5168499e-05
0.00010379664
0.00017624311
0.00029340545
0.00054207792
0.0013462556
3.4379516e-06
3.4449572e-06
3.470567e-06
3.5505856e-06
3.7914931e-06
4.5042378e-06
6.600958e-06
1.2591637e-05
2.7698674e-05
5.7975926e-05
0.00010660842
0.00017833256
0.00029455494
0.00054238527
0.0013467828
3.3346627e-06
3.3430286e-06
3.373137e-06
3.4658429e-06
3.7419925e-06
4.5527599e-06
6.9179828e-06
1.3549688e-05
2.9686211e-05
6.0733357e-05
0.00010927977
0.00018028983
0.00029563258
0.00054269259
0.001347356
3.2364878e-06
3.2464154e-06
3.281665e-06
3.3887949e-06
3.7048152e-06
4.6258384e-06
7.2880455e-06
1.4596555e-05
3.1731891e-05
6.3430277e-05
0.00011181612
0.00018212593
0.00029664614
0.00054300189
0.0013479746
3.1431799e-06
3.1548974e-06
3.1960156e-06
3.3195298e-06
3.6806199e-06
4.7254524e-06
7.7145468e-06
1.5730747e-05
3.382234e-05
6.6058467e-05
0.0001142234
0.00018385092
0.00029760241
0.00054331477
0.0013486378
3.0545192e-06
3.0682854e-06
3.1160958e-06
3.2582055e-06
3.6701986e-06
4.8537869e-06
8.2007094e-06
1.6949409e-05
3.5944302e-05
6.8611787e-05
0.00011650785
0.00018547397
0.00029850735
0.00054363245
0.0013493444
2.9703119e-06
2.9864203e-06
3.0418551e-06
3.2050543e-06
3.6744852e-06
5.0132197e-06
8.7494483e-06
1.8248349e-05
3.8085015e-05
7.1085926e-05
0.00011867579
0.00018700343
0.00029936619
0.00054395589
0.0013500934
2.8903898e-06
2.9091733e-06
2.9732878e-06
3.1603869e-06
3.6945633e-06
5.2062984e-06
9.3632349e-06
1.9622123e-05
4.0232513e-05
7.3478131e-05
0.00012073351
0.00018844688
0.00030018354
0.00054428578
0.0013508836
2.8146096e-06
2.836446e-06
2.9104344e-06
3.1245986e-06
3.731674e-06
5.4357063e-06
1.004396e-05
2.1064181e-05
4.2375859e-05
7.5786948e-05
0.00012268719
0.00018981121
0.00030096345
0.00054462265
0.0013517136
2.7428528e-06
2.7681709e-06
2.8533843e-06
3.098175e-06
3.7872216e-06
5.7042165e-06
1.079281e-05
2.256707e-05
4.4505285e-05
7.8011979e-05
0.00012454279
0.00019110267
0.00030170949
0.00054496683
0.0013525823
2.6750262e-06
2.7043127e-06
2.8022791e-06
3.0816992e-06
3.862777e-06
6.0146317e-06
1.1610155e-05
2.4122665e-05
4.6612263e-05
8.0153673e-05
0.00012630606
0.00019232691
0.00030242477
0.00054531836
0.0013534881
2.6110622e-06
2.6448693e-06
2.7573159e-06
3.0758593e-06
3.9600781e-06
6.3697124e-06
1.2495478e-05
2.5722423e-05
4.8689514e-05
8.2213152e-05
0.00012798249
0.00019348921
0.00030311295
0.00054567958
0.0013544294
2.5509198e-06
2.5898742e-06
2.718752e-06
3.0814557e-06
4.0810247e-06
6.7720928e-06
1.3447327e-05
2.7357636e-05
5.0730962e-05
8.4192052e-05
0.00012957729
0.00019459431
0.00030377609
0.00054604532
0.0013554045
2.494586e-06
2.5393984e-06
2.6869098e-06
3.0994095e-06
4.2276674e-06
7.2241864e-06
1.4463315e-05
2.9019661e-05
5.2731649e-05
8.609239e-05
0.00013109537
0.00019564635
0.00030441574
0.00054641398
0.001356411
2.4420772e-06
2.4935535e-06
2.6621824e-06
3.1307692e-06
4.4021888e-06
7.7280877e-06
1.5540154e-05
3.0700125e-05
5.4687631e-05
8.791645e-05
0.0001325413
0.00019664905
0.0003050333
0.00054678556
0.001357447
2.3934419e-06
2.4524951e-06
2.6450395e-06
3.1767179e-06
4.6068761e-06
8.2854731e-06
1.6673739e-05
3.2391089e-05
5.6595868e-05
8.966672e-05
0.00013391946
0.00019760628
0.00030563175
0.00054715703
0.0013585105
2.3487625e-06
2.4164266e-06
2.6360347e-06
3.2385776e-06
4.8440836e-06
8.8975084e-06
1.7859257e-05
3.4085182e-05
5.8454119e-05
9.1345826e-05
0.00013523397
0.00019852138
0.00030621176
0.00054752795
0.0013595998
2.3081594e-06
2.3856042e-06
2.6358124e-06
3.3178122e-06
5.1161853e-06
9.5647688e-06
1.9091328e-05
3.5775673e-05
6.0260824e-05
9.2956455e-05
0.00013648859
0.00019939691
0.00030677294
0.00054790014
0.0013607134
2.2717941e-06
2.3603414e-06
2.6451157e-06
3.4160263e-06
5.4255165e-06
1.0287177e-05
2.0364156e-05
3.7456526e-05
6.2015003e-05
9.4501295e-05
0.00013768678
0.00020023507
0.00030731597
0.00054827483
0.0013618504
2.2398737e-06
2.3410154e-06
2.6647937e-06
3.5349598e-06
5.7743072e-06
1.1063964e-05
2.1671691e-05
3.9122403e-05
6.3716166e-05
9.5983032e-05
0.00013883181
0.00020103834
0.00030784124
0.00054865325
0.0013630098
2.2126561e-06
2.3280734e-06
2.6958092e-06
3.6764765e-06
6.164608e-06
1.1893661e-05
2.3007782e-05
4.0768663e-05
6.5364248e-05
9.7404402e-05
0.00013992713
0.00020180983
0.00030834748
0.00054903728
0.001364191
2.1904555e-06
2.32204e-06
2.7392452e-06
3.8425461e-06
6.5982126e-06
1.2774116e-05
2.436632e-05
4.2391324e-05
6.6959524e-05
9.8768021e-05
0.00014097539
0.00020254993
0.00030883713
0.00054942737
0.0013653935
2.1736491e-06
2.3235241e-06
2.7963109e-06
4.0352182e-06
7.0765794e-06
1.370254e-05
2.5741356e-05
4.398702e-05
6.8502525e-05
0.00010007635
0.0001419789
0.00020325984
0.00030931203
0.00054982342
0.0013666165
2.1626844e-06
2.3332282e-06
2.8683444e-06
4.2565874e-06
7.6007589e-06
1.4675575e-05
2.7127207e-05
4.5552949e-05
6.9993982e-05
0.00010133172
0.00014293979
0.00020394109
0.0003097737
0.00055022518
0.0013678591
2.158087e-06
2.3519558e-06
2.9568137e-06
4.5087501e-06
8.1713294e-06
1.5689385e-05
2.8518524e-05
4.7086832e-05
7.1434896e-05
0.00010253683
0.00014386157
0.00020459275
0.000310224
0.0005506328
0.0013691205
2.1604699e-06
2.3806208e-06
3.0633133e-06
4.7937518e-06
8.7883483e-06
1.6739761e-05
2.9910351e-05
4.8586855e-05
7.2826354e-05
0.00010369382
0.00014474502
0.00020521726
0.00031066401
0.00055104637
0.0013703998
2.1705425e-06
2.4202548e-06
3.189555e-06
5.1135279e-06
9.4513198e-06
1.7822222e-05
3.1298151e-05
5.0051596e-05
7.4169475e-05
0.00010480453
0.00014559146
0.0002058167
0.00031109447
0.00055146579
0.0013716964
2.1891212e-06
2.4720148e-06
3.3373539e-06
5.469839e-06
1.0159184e-05
1.893213e-05
3.2677814e-05
5.1479969e-05
7.546539e-05
0.00010587069
0.0001464025
0.00020639286
0.00031151595
0.00055189085
0.0013730094
2.2171393e-06
2.5371891e-06
3.5086057e-06
5.8642029e-06
1.0910327e-05
2.0064789e-05
3.4045674e-05
5.2871274e-05
7.6715677e-05
0.00010689529
0.00014717778
0.00020694759
0.00031192919
0.0005523213
0.001374338
2.255658e-06
2.6171997e-06
3.7052565e-06
6.2978287e-06
1.1702613e-05
2.1215538e-05
3.5398486e-05
5.4225037e-05
7.7921514e-05
0.00010787901
0.0001479197
0.00020748223
0.0003123348
0.00055275694
0.0013756813
2.3058755e-06
2.7136027e-06
3.9292646e-06
6.7715552e-06
1.253343e-05
2.2379824e-05
3.6733391e-05
5.5540951e-05
7.9083952e-05
0.00010882299
0.00014863029
0.00020799788
0.00031273327
0.00055319749
0.0013770385
2.3691362e-06
2.828083e-06
4.1825528e-06
7.285798e-06
1.339976e-05
2.3553269e-05
3.8047913e-05
5.6818964e-05
8.0204402e-05
0.00010972813
0.0001493114
0.00020849558
0.00031312498
0.00055364269
0.0013784088
2.446937e-06
2.962443e-06
4.4669539e-06
7.8405104e-06
1.4298248e-05
2.4731719e-05
3.9339952e-05
5.8059296e-05
8.1284446e-05
0.00011059496
0.00014996473
0.00020897633
0.00031351025
0.00055409224
0.0013797915
2.5409302e-06
3.1185845e-06
4.7841504e-06
8.4351583e-06
1.5225283e-05
2.5911273e-05
4.0607685e-05
5.9262016e-05
8.2324486e-05
0.00011142551
0.00015059165
0.00020944103
0.00031388937
0.0005545458
0.0013811856
2.6529217e-06
3.2984814e-06
5.1356104e-06
9.0687133e-06
1.6177076e-05
2.7088292e-05
4.1849524e-05
6.0427214e-05
8.3325309e-05
0.00011222155
0.00015119343
0.00020989044
0.00031426258
0.00055500308
0.0013825904
2.7848625e-06
3.5041437e-06
5.5225243e-06
9.7396637e-06
1.7149747e-05
2.8259464e-05
4.3064379e-05
6.1556064e-05
8.4286603e-05
0.00011298473
0.00015177127
0.00021032527
0.00031463007
0.00055546373
0.0013840051
2.9388314e-06
3.7375713e-06
5.9457442e-06
1.0446042e-05
1.8139385e-05
2.9421738e-05
4.4251129e-05
6.2648241e-05
8.5209849e-05
0.00011371647
0.00015232628
0.00021074614
0.00031499199
0.00055592742
0.001385429
3.1170077e-06
4.0006994e-06
6.4057316e-06
1.1185464e-05
1.9142104e-05
3.05723e-05
4.5408727e-05
6.3703729e-05
8.6096486e-05
0.00011441805
0.00015285946
0.00021115362
0.00031534845
0.0005563938
0.0013868611
3.321631e-06
4.2953354e-06
6.9025166e-06
1.1955191e-05
2.0154129e-05
3.1708785e-05
4.6537137e-05
6.4721766e-05
8.6947842e-05
0.0001150907
0.00015337169
0.0002115482
0.00031569954
0.00055686252
0.0013883008
3.5549483e-06
4.6230909e-06
7.4356702e-06
1.2752181e-05
2.1171795e-05
3.2828893e-05
4.7635214e-05
6.5703027e-05
8.7765099e-05
0.00011573556
0.00015386382
0.00021193032
0.00031604531
0.00055733323
0.0013897473
3.8191476e-06
4.9853118e-06
8.0042937e-06
1.3573159e-05
2.2191582e-05
3.3930561e-05
4.8701877e-05
6.6648343e-05
8.8549351e-05
0.00011635367
0.00015433659
0.00021230038
0.0003163858
0.00055780558
0.0013911998
4.1162798e-06
5.3830099e-06
8.6070272e-06
1.4414701e-05
2.3210267e-05
3.5012507e-05
4.9735699e-05
6.755848e-05
8.9301649e-05
0.00011694599
0.00015479068
0.00021265871
0.00031672099
0.00055827919
0.0013926575
4.4481706e-06
5.8168009e-06
9.2420681e-06
1.527326e-05
2.4224628e-05
3.6072423e-05
5.0736646e-05
6.8434142e-05
9.0022972e-05
0.0001175134
0.00015522671
0.0002130056
0.00031705087
0.00055875369
0.0013941196
4.8163294e-06
6.2868555e-06
9.9072249e-06
1.6145336e-05
2.5232165e-05
3.7107819e-05
5.1704693e-05
6.927602e-05
9.0714233e-05
0.0001180567
0.00015564522
0.00021334132
0.00031737538
0.00055922871
0.0013955854
5.2218581e-06
6.7928606e-06
1.0599945e-05
1.7027346e-05
2.6229803e-05
3.8117161e-05
5.2639836e-05
7.0084777e-05
9.1376276e-05
0.00011857664
0.00015604672
0.00021366608
0.00031769447
0.00055970387
0.0013970542
5.6653723e-06
7.3340123e-06
1.1317454e-05
1.791617e-05
2.7214029e-05
3.9099339e-05
5.3542112e-05
7.0861046e-05
9.2009884e-05
0.00011907389
0.00015643165
0.00021398005
0.00031800804
0.00056017879
0.001398525
6.1469367e-06
7.9090159e-06
1.2056759e-05
1.8808055e-05
2.8182138e-05
4.0053358e-05
5.4411592e-05
7.1605425e-05
9.2615776e-05
0.00011954905
0.0001568004
0.00021428338
0.00031831599
0.00056065307
0.0013999972
6.6660361e-06
8.516154e-06
1.2814877e-05
1.9698974e-05
2.9131842e-05
4.0978344e-05
5.5248373e-05
7.2318475e-05
9.3194609e-05
0.00012000267
0.0001571533
0.00021457617
0.00031861817
0.0005611263
0.00140147
7.2216398e-06
9.153397e-06
1.3587935e-05
2.0585547e-05
3.0061054e-05
4.1873532e-05
5.6052566e-05
7.3000715e-05
9.3746984e-05
0.00012043525
0.00015749065
0.00021485849
0.00031891446
0.0005615981
0.0014029425
7.8120158e-06
9.8178792e-06
1.4372268e-05
2.1464595e-05
3.0967886e-05
4.2738257e-05
5.6824292e-05
7.3652627e-05
9.4273441e-05
0.0001208472
0.0001578127
0.00021513039
0.00031920466
0.00056206802
0.001404414
8.4347096e-06
1.0506396e-05
1.5164225e-05
2.2333152e-05
3.1850637e-05
4.3571942e-05
5.756368e-05
7.4274654e-05
9.4774466e-05
0.00012123891
0.00015811965
0.00021539187
0.00031948861
0.00056253566
0.0014058836
9.0867008e-06
1.1215448e-05
1.5960222e-05
2.3188476e-05
3.2707791e-05
4.4374092e-05
5.827086e-05
7.4867196e-05
9.5250491e-05
0.00012161071
0.00015841166
0.00021564292
0.00031976609
0.00056300057
0.0014073505
9.7644941e-06
1.1941327e-05
1.6756788e-05
2.4028061e-05
3.3538008e-05
4.5144292e-05
5.8945969e-05
7.5430619e-05
9.5701896e-05
0.00012196287
0.00015868884
0.00021588347
0.00032003686
0.00056346231
0.0014088138
1.0464223e-05
1.2680192e-05
1.7550602e-05
2.4849633e-05
3.4340122e-05
4.5882204e-05
5.9589145e-05
7.5965254e-05
9.6129015e-05
0.00012229562
0.00015895129
0.00021611345
0.00032030069
0.00056392041
0.0014102727
1.1181764e-05
1.3428152e-05
1.8338522e-05
2.565116e-05
3.5113134e-05
4.6587563e-05
6.0200531e-05
7.6471398e-05
9.6532134e-05
0.00012260915
0.00015919904
0.00021633275
0.00032055729
0.00056437438
0.0014117263
1.1912847e-05
1.4181343e-05
1.9117609e-05
2.643084e-05
3.5856213e-05
4.7260179e-05
6.078028e-05
7.6949324e-05
9.6911501e-05
0.00012290361
0.00015943211
0.00021654123
0.00032080638
0.00056482373
0.0014131735
1.2653165e-05
1.4935992e-05
1.9885146e-05
2.7187108e-05
3.6568684e-05
4.789994e-05
6.1328561e-05
7.7399282e-05
9.7267327e-05
0.00012317909
0.00015965045
0.00021673872
0.00032104765
0.00056526795
0.0014146134
1.3398471e-05
1.5688477e-05
2.063865e-05
2.791862e-05
3.725003e-05
4.8506808e-05
6.1845556e-05
7.7821505e-05
9.7599793e-05
0.00012343567
0.00015985403
0.00021692503
0.00032128074
0.00056570649
0.0014160451
1.4144663e-05
1.6435377e-05
2.1375876e-05
2.8624249e-05
3.7899883e-05
4.9080827e-05
6.2331475e-05
7.8216217e-05
9.7909051e-05
0.0001236734
0.00016004275
0.00021709995
0.00032150532
0.0005661388
0.0014174673
1.488785e-05
1.7173506e-05
2.2094827e-05
2.9303078e-05
3.8518023e-05
4.9622119e-05
6.2786554e-05
7.8583639e-05
9.8195238e-05
0.00012389229
0.00016021651
0.00021726323
0.00032172101
0.0005665643
0.001418879
1.5624411e-05
1.7899946e-05
2.2793744e-05
2.9954383e-05
3.9104364e-05
5.0130887e-05
6.3211065e-05
7.8923994e-05
9.8458476e-05
0.00012409234
0.00016037517
0.00021741463
0.00032192741
0.0005669824
0.0014202791
1.6351027e-05
1.8612062e-05
2.3471109e-05
3.0577625e-05
3.9658951e-05
5.0607412e-05
6.3605317e-05
7.9237518e-05
9.8698882e-05
0.00012427354
0.0001605186
0.00021755387
0.00032212412
0.00056739247
0.0014216662
1.7064712e-05
1.9307514e-05
2.4125637e-05
3.1172437e-05
4.0181951e-05
5.1052057e-05
6.3969665e-05
7.9524463e-05
9.8916573e-05
0.00012443586
0.00016064664
0.00021768068
0.00032231072
0.0005677939
0.0014230391
1.7762818e-05
1.9984258e-05
2.4756264e-05
3.1738609e-05
4.0673645e-05
5.1465258e-05
6.4304506e-05
7.9785102e-05
9.9111673e-05
0.00012457929
0.00016075913
0.00021779476
0.00032248679
0.00056818603
0.0014243965
1.8443043e-05
2.0640543e-05
2.5362137e-05
3.2276078e-05
4.1134413e-05
5.1847526e-05
6.461029e-05
8.0019738e-05
9.9284322e-05
0.00012470381
0.00016085591
0.00021789583
0.0003226519
0.00056856821
0.0014257369
1.9103422e-05
2.1274898e-05
2.5942603e-05
3.2784911e-05
4.1564733e-05
5.2199441e-05
6.4887511e-05
8.0228708e-05
9.9434678e-05
0.0001248094
0.00016093683
0.0002179836
0.00032280564
0.0005689398
0.0014270589
1.9742311e-05
2.1886127e-05
2.6497196e-05
3.3265295e-05
4.1965162e-05
5.2521646e-05
6.5136718e-05
8.0412384e-05
9.9562926e-05
0.00012489609
0.00016100175
0.00021805781
0.00032294758
0.00056930013
0.0014283611
2.0358375e-05
2.2473281e-05
2.7025619e-05
3.3717524e-05
4.2336331e-05
5.2814842e-05
6.5358506e-05
8.0571177e-05
9.966928e-05
0.0001249639
0.00016105056
0.00021811819
0.00032307733
0.00056964858
0.001429642
2.095056e-05
2.3035651e-05
2.7527733e-05
3.4141985e-05
4.2678935e-05
5.3079785e-05
6.5553517e-05
8.0705539e-05
9.9753991e-05
0.00012501291
0.00016108315
0.00021816451
0.00032319451
0.00056998452
0.0014308999
2.1518077e-05
2.3572738e-05
2.800354e-05
3.4539151e-05
4.2993723e-05
5.3317272e-05
6.5722437e-05
8.0815967e-05
9.9817347e-05
0.00012504321
0.00016109947
0.00021819658
0.00032329876
0.00057030735
0.0014321335
2.2060372e-05
2.4084243e-05
2.845317e-05
3.4909562e-05
4.3281488e-05
5.3528144e-05
6.5865993e-05
8.0902995e-05
9.9859675e-05
0.00012505493
0.00016109949
0.00021821421
0.00032338978
0.0005706165
0.0014333411
2.2577103e-05
2.4570037e-05
2.8876865e-05
3.5253825e-05
4.354306e-05
5.3713271e-05
6.5984951e-05
8.0967203e-05
9.9881348e-05
0.00012504826
0.00016108322
0.00021821728
0.00032346729
0.00057091145
0.0014345213
2.3068119e-05
2.5030149e-05
2.9274968e-05
3.5572594e-05
4.3779298e-05
5.3873552e-05
6.6080106e-05
8.1009206e-05
9.9882777e-05
0.00012502342
0.00016105072
0.00021820571
0.00032353105
0.0005711917
0.0014356726
2.3533434e-05
2.5464741e-05
2.9647907e-05
3.5866572e-05
4.3991084e-05
5.4009905e-05
6.6152284e-05
8.102966e-05
9.9864421e-05
0.00012498067
0.00016100208
0.00021817945
0.00032358089
0.00057145684
0.0014367935
2.3973206e-05
2.5874097e-05
2.9996187e-05
3.6136492e-05
4.4179312e-05
5.4123262e-05
6.6202335e-05
8.1029251e-05
9.9826778e-05
0.00012492034
0.00016093748
0.00021813853
0.00032361668
0.00057170648
0.0014378826
2.4387718e-05
2.6258599e-05
3.0320371e-05
3.6383119e-05
4.4344889e-05
5.4214566e-05
6.6231126e-05
8.1008699e-05
9.9770387e-05
0.00012484278
0.00016085711
0.00021808302
0.00032363837
0.00057194032
0.0014389388
2.4777358e-05
2.6618717e-05
3.062108e-05
3.6607236e-05
4.4488725e-05
5.4284762e-05
6.623954e-05
8.0968752e-05
9.9695828e-05
0.00012474841
0.00016076123
0.00021801305
0.00032364594
0.00057215812
0.0014399607
2.5142604e-05
2.6954991e-05
3.0898974e-05
3.6809644e-05
4.4611731e-05
5.4334796e-05
6.6228469e-05
8.091018e-05
9.9603715e-05
0.00012463767
0.00016065016
0.0002179288
0.00032363945
0.0005723597
0.0014409472
2.5484007e-05
2.7268024e-05
3.1154749e-05
3.6991152e-05
4.471481e-05
5.436561e-05
6.6198812e-05
8.0833773e-05
9.9494697e-05
0.00012451108
0.00016052427
0.00021783053
0.00032361904
0.00057254496
0.0014418974
2.5802178e-05
2.7558464e-05
3.1389127e-05
3.7152575e-05
4.4798862e-05
5.4378137e-05
6.6151469e-05
8.0740339e-05
9.9369453e-05
0.00012436918
0.00016038396
0.00021771853
0.00032358488
0.00057271387
0.0014428103
2.6097777e-05
2.7826996e-05
3.1602849e-05
3.7294729e-05
4.4864775e-05
5.4373299e-05
6.6087341e-05
8.0630697e-05
9.9228687e-05
0.00012421254
0.00016022971
0.00021759318
0.00032353723
0.00057286647
0.0014436851
2.6371499e-05
2.8074336e-05
3.1796671e-05
3.7418425e-05
4.4913421e-05
5.4352008e-05
6.600732e-05
8.0505676e-05
9.9073129e-05
0.00012404179
0.00016006203
0.00021745487
0.0003234764
0.00057300287
0.0014445212
2.6624069e-05
2.830122e-05
3.1971355e-05
3.7524472e-05
4.4945661e-05
5.4315154e-05
6.5912293e-05
8.0366109e-05
9.8903527e-05
0.00012385756
0.00015988146
0.00021730408
0.00032340275
0.00057312325
0.0014453181
2.6856232e-05
2.8508399e-05
3.2127666e-05
3.7613665e-05
4.4962336e-05
5.4263616e-05
6.5803135e-05
8.0212831e-05
9.8720643e-05
0.00012366055
0.0001596886
0.00021714133
0.00032331671
0.00057322787
0.0014460753
2.7068744e-05
2.8696629e-05
3.2266369e-05
3.7686793e-05
4.496427e-05
5.4198248e-05
6.5680711e-05
8.0046676e-05
9.8525256e-05
0.00012345145
0.00015948409
0.00021696716
0.00032321875
0.00057331702
0.0014467927
2.726237e-05
2.8866671e-05
3.2388225e-05
3.7744628e-05
4.4952266e-05
5.4119887e-05
6.5545868e-05
7.9868474e-05
9.8318147e-05
0.00012323099
0.00015926857
0.00021678218
0.00032310939
0.00057339106
0.00144747
2.7437874e-05
2.9019286e-05
3.2493986e-05
3.7787929e-05
4.4927108e-05
5.4029348e-05
6.5399438e-05
7.9679048e-05
9.8100107e-05
0.00012299991
0.00015904274
0.00021658702
0.00032298919
0.00057345042
0.0014481073
2.7596021e-05
2.9155226e-05
3.2584394e-05
3.7817439e-05
4.4889557e-05
5.3927421e-05
6.5242233e-05
7.947921e-05
9.7871926e-05
0.00012275896
0.00015880731
0.00021638233
0.00032285874
0.00057349555
0.0014487047
2.7737565e-05
2.9275239e-05
3.2660179e-05
3.7833882e-05
4.4840354e-05
5.3814876e-05
6.5075047e-05
7.9269761e-05
9.7634392e-05
0.0001225089
0.000158563
0.0002161688
0.00032271868
0.00057352697
0.0014492624
2.7863255e-05
2.9380058e-05
3.2722058e-05