/*--------------------------------*- C++ -*----------------------------------*\
| =========                 |                                                 |
| \\      /  F ield         | OpenFOAM: The Open Source CFD Toolbox           |
|  \\    /   O peration     | Version:  2506                                  |
|   \\  /    A nd           | Website:  www.openfoam.com                      |
|    \\/     M anipulation  |                                                 |
\*---------------------------------------------------------------------------*/
FoamFile
{
    version     2.0;
    format      ascii;
    arch        "LSB;label=32;scalar=64";
    class       volScalarField;
    location    "21000/water";
    object      k;
}
// * * * * * * * * * * * * * * * * * * * * * * * * * * * * * * * * * * * * * //

dimensions      [0 2 -2 0 0 0 0];

internalField   nonuniform List<scalar> 
6000
(
0.0002144485
0.00021444827
0.00021444833
0.00021444852
0.00021444878
0.00021444911
0.00021444953
0.00021445001
0.00021445038
0.00021444961
0.00021444477
0.00021444847
0.00021482328
0.00022098609
0.00033298785
0.00019735372
0.00019735408
0.00019735481
0.00019735601
0.00019735759
0.00019735962
0.00019736212
0.0001973649
0.00019736678
0.00019736231
0.00019733424
0.0001972933
0.00019808165
0.00021190706
0.00042108833
0.00018260526
0.00018260625
0.00018260756
0.00018260957
0.0001826122
0.00018261554
0.00018261945
0.00018262311
0.00018262253
0.00018260174
0.00018251429
0.00018235696
0.00018354965
0.00020571076
0.0004915993
0.00016977104
0.00016977195
0.00016977358
0.00016977617
0.00016977959
0.00016978384
0.00016978847
0.00016979119
0.00016978242
0.00016972799
0.0001695392
0.00016920344
0.00017083025
0.00020141509
0.00054314021
0.00015851703
0.00015851791
0.00015851979
0.00015852287
0.0001585269
0.00015853173
0.00015853623
0.00015853548
0.0001585108
0.00015840225
0.00015807228
0.00015752308
0.00015966967
0.00019844232
0.00057747636
0.00014858047
0.00014858142
0.00014858351
0.00014858695
0.00014859139
0.00014859636
0.00014859955
0.0001485919
0.00014854197
0.00014835849
0.00014785779
0.00014709963
0.00014993181
0.00019659445
0.00059772639
0.00013975169
0.00013975271
0.00013975496
0.00013975864
0.00013976325
0.00013976781
0.00013976817
0.00013974945
0.00013966425
0.0001393877
0.00013870223
0.00013778194
0.00014154644
0.00019585229
0.00060724748
0.00013186192
0.00013186298
0.00013186534
0.00013186914
0.00013187366
0.00013187713
0.00013187282
0.00013183836
0.00013170812
0.00013132527
0.00013045854
0.00012946164
0.00013447268
0.00019626303
0.00060905754
0.00012477404
0.00012477514
0.00012477755
0.00012478136
0.00012478548
0.00012478703
0.00012477592
0.00012472085
0.00012453699
0.00012404097
0.00012301362
0.00012205827
0.00012868159
0.00019789321
0.0006056161
0.00011837572
0.00011837682
0.00011837924
0.0001183829
0.00011838626
0.00011838492
0.00011836468
0.00011828424
0.00011804014
0.00011743108
0.00011627928
0.00011550993
0.00012414935
0.00020080676
0.00059880682
0.0001125741
0.0001125752
0.00011257756
0.00011258091
0.00011258305
0.00011257774
0.00011254594
0.00011243584
0.00011212738
0.0001114124
0.00011018555
0.00010976786
0.00012085593
0.00020505367
0.00059001308
0.00010729189
0.00010729297
0.0001072952
0.00010729803
0.00010729845
0.00010728799
0.00010724223
0.00010709893
0.00010672477
0.00010591759
0.00010467621
0.00010479348
0.00011878602
0.00021066301
0.00058022149
0.0001024643
0.00010246533
0.00010246733
0.00010246942
0.00010246756
0.00010245071
0.00010238875
0.00010220964
0.0001017714
0.00010089174
9.9705638e-05
0.000100557
0.00011793046
0.00021763683
0.00057012062
9.8036637e-05
9.8037572e-05
9.8039255e-05
9.8040328e-05
9.8035582e-05
9.8011091e-05
9.7930966e-05
9.7714594e-05
9.7216801e-05
9.6289669e-05
9.5236719e-05
9.703687e-05
0.00011828673
0.00022594366
0.0005601824
9.3962451e-05
9.3963259e-05
9.3964497e-05
9.3964262e-05
9.3955981e-05
9.3922652e-05
9.3822751e-05
9.3568903e-05
9.3018884e-05
9.2074025e-05
9.1239503e-05
9.4219615e-05
0.00011985802
0.00023551194
0.0005507241
9.0202076e-05
9.020271e-05
9.0203366e-05
9.0201504e-05
9.0189027e-05
9.0145749e-05
9.0024925e-05
8.9734681e-05
8.9142411e-05
8.8213812e-05
8.7690325e-05
9.20998e-05
0.00012265037
0.00024622465
0.00054195294
8.6721448e-05
8.6721856e-05
8.6721776e-05
8.6717945e-05
8.6700619e-05
8.664642e-05
8.6504047e-05
8.61798e-05
8.5557736e-05
8.4683334e-05
8.4571272e-05
9.0679902e-05
0.00012666793
0.00025791693
0.00053399692
8.3491166e-05
8.3491287e-05
8.3490304e-05
8.3484151e-05
8.3461349e-05
8.3395437e-05
8.3231463e-05
8.2876915e-05
8.2239851e-05
8.1461425e-05
8.1869885e-05
8.9969913e-05
0.00013190642
0.00027037857
0.00052692519
8.0485733e-05
8.0485502e-05
8.0483437e-05
8.0474603e-05
8.0445747e-05
8.0367548e-05
8.018253e-05
7.9802669e-05
7.9167636e-05
7.8530889e-05
7.9578989e-05
8.9986538e-05
0.00013834557
0.00028336255
0.00052076146
7.7682937e-05
7.7682283e-05
7.767895e-05
7.7667083e-05
7.7631664e-05
7.7540855e-05
7.7335982e-05
7.6937064e-05
7.6323276e-05
7.5878109e-05
7.7696612e-05
9.0751816e-05
0.00014594134
0.00029659939
0.00051549302
7.5063349e-05
7.5062196e-05
7.5057404e-05
7.5042167e-05
7.4999765e-05
7.4896302e-05
7.4673418e-05
7.4262946e-05
7.369182e-05
7.3492783e-05
7.6225917e-05
9.229105e-05
0.00015461944
0.000309816
0.00051107779
7.2609902e-05
7.2608172e-05
7.260173e-05
7.2582813e-05
7.2533118e-05
7.2417256e-05
7.2178869e-05
7.1765596e-05
7.1260831e-05
7.1367745e-05
7.5175079e-05
9.4629939e-05
0.00016427135
0.00032275576
0.00050745065
7.0307551e-05
7.0305165e-05
7.0296888e-05
7.0274015e-05
7.0216842e-05
7.0089161e-05
6.9838457e-05
6.94324e-05
6.9020131e-05
6.949887e-05
7.4557053e-05
9.7790947e-05
0.00017475428
0.00033519669
0.00050453
6.8142984e-05
6.8139863e-05
6.8129574e-05
6.8102519e-05
6.8037823e-05
6.7899244e-05
6.7640104e-05
6.7252585e-05
6.6961603e-05
6.7885016e-05
7.438916e-05
0.00010178904
0.0001858954
0.00034696444
0.00050222457
6.6104382e-05
6.6100451e-05
6.608799e-05
6.6056581e-05
6.5984475e-05
6.5836276e-05
6.5573296e-05
6.5217006e-05
6.5079053e-05
6.6528011e-05
7.4692423e-05
0.00010662718
0.00019750038
0.00035793856
0.00050043991
6.418122e-05
6.4176406e-05
6.4161633e-05
6.4125766e-05
6.4046535e-05
6.3890369e-05
6.3628889e-05
6.3317981e-05
6.3368113e-05
6.5432644e-05
7.5490606e-05
0.00011229203
0.00020936499
0.00036805173
0.00049908424
6.2364094e-05
6.2358333e-05
6.2341135e-05
6.230078e-05
6.2214894e-05
6.2052808e-05
6.1798947e-05
6.1549161e-05
6.182618e-05
6.4606648e-05
7.680889e-05
0.00011875054
0.00022128816
0.00037728353
0.00049807291
6.064458e-05
6.0637817e-05
6.0618111e-05
6.0573325e-05
6.0481451e-05
6.031591e-05
6.0076617e-05
5.9905429e-05
6.045239e-05
6.4060643e-05
7.8672186e-05
0.00012594803
0.00023308444
0.00038565069
0.00049733132
5.9015114e-05
5.9007302e-05
5.8985044e-05
5.8935977e-05
5.8838997e-05
5.8672904e-05
5.8456016e-05
5.8382826e-05
5.9247607e-05
6.380802e-05
8.1103078e-05
0.00013380822
0.00024459408
0.00039319634
0.00049679626
5.746888e-05
5.745999e-05
5.7435175e-05
5.7382083e-05
5.7281105e-05
5.7117831e-05
5.6932149e-05
5.6978499e-05
5.8214438e-05
6.3864707e-05
8.4119511e-05
0.00014223536
0.00025568959
0.00039997992
0.00049641599
5.599973e-05
5.5989745e-05
5.596242e-05
5.590567e-05
5.5802046e-05
5.5645466e-05
5.5500841e-05
5.5690668e-05
5.7357258e-05
6.424881e-05
8.773233e-05
0.0001511185
0.00026627829
0.00040606902
0.00049614946
5.4602101e-05
5.4591025e-05
5.4561286e-05
5.4501369e-05
5.4396714e-05
5.4251246e-05
5.4158685e-05
5.4518612e-05
5.6682234e-05
6.4980079e-05
9.1942941e-05
0.00016033718
0.00027630116
0.00041153335
0.00049596497
5.3270953e-05
5.3258808e-05
5.3226813e-05
5.3164353e-05
5.3060564e-05
5.2931212e-05
5.2903001e-05
5.3462663e-05
5.6197343e-05
6.6079181e-05
9.6741327e-05
0.00016976802
0.00028572901
0.00041644086
0.00049583865
5.2001708e-05
5.198854e-05
5.1954511e-05
5.1890276e-05
5.1789556e-05
5.1681971e-05
5.1731808e-05
5.2524225e-05
5.5912363e-05
6.7566765e-05
0.00010210472
0.00017929137
0.00029455685
0.00042085544
0.00049575298
5.0790203e-05
5.0776083e-05
5.0740313e-05
5.067523e-05
5.0580113e-05
5.050065e-05
5.0643813e-05
5.1705788e-05
5.5838828e-05
6.946233e-05
0.00010799714
0.00018879709
0.0003027979
0.00042483586
0.00049569544
4.9632648e-05
4.9617675e-05
4.9580534e-05
4.9515698e-05
4.942908e-05
4.9384875e-05
4.9638394e-05
5.1010966e-05
5.5989918e-05
7.178292e-05
0.00011437
0.00019818901
0.00031047772
0.00042843533
0.0004956574
4.8525586e-05
4.8509888e-05
4.8471831e-05
4.8408525e-05
4.8333699e-05
4.8332748e-05
4.8715611e-05
5.0444524e-05
5.6380276e-05
7.4541726e-05
0.00012116371
0.00020738765
0.00031762942
0.00043170149
0.00049563313
4.7465859e-05
4.74496e-05
4.7411173e-05
4.7350883e-05
4.7291577e-05
4.7342831e-05
4.7876207e-05
5.0012417e-05
5.702572e-05
7.7746679e-05
0.00012831013
0.00021633122
0.00032428982
0.00043467667
0.00049561908
4.6450583e-05
4.6433963e-05
4.6395814e-05
4.6340247e-05
4.6300671e-05
4.641414e-05
4.7121628e-05
4.9721817e-05
5.7942848e-05
8.1399166e-05
0.00013573578
0.0002249751
0.00033049682
0.00043739817
0.00049561324
4.5477121e-05
4.5460379e-05
4.5423267e-05
4.5374375e-05
4.5359268e-05
4.5546142e-05
4.6454049e-05
4.9581125e-05
5.9148508e-05
8.5493018e-05
0.00014336522
0.00023329015
0.00033628765
0.00043989867
0.00049561471
4.4543061e-05
4.4526479e-05
4.4491284e-05
4.4451289e-05
4.446598e-05
4.4738756e-05
4.5876394e-05
4.9599966e-05
6.0659159e-05
9.0013882e-05
0.00015112441
0.00024126036
0.0003416978
0.00044220662
0.00049562332
4.3646195e-05
4.3630105e-05
4.359784e-05
4.3569259e-05
4.3619731e-05
4.3992365e-05
4.5392377e-05
4.9789137e-05
6.24901e-05
9.493909e-05
0.0001589437
0.00024888021
0.00034676053
0.00044434668
0.00049563933
4.2784505e-05
4.2769292e-05
4.2741115e-05
4.2726796e-05
4.2819756e-05
4.3307822e-05
4.500653e-05
5.0160522e-05
6.4654626e-05
0.00010023808
0.00016676014
0.00025615208
0.00035150661
0.00044634014
0.00049566327
4.1956147e-05
4.1942252e-05
4.1919486e-05
4.1922641e-05
4.2065604e-05
4.2686474e-05
4.4724243e-05
5.0726936e-05
6.7163135e-05
0.00010587333
0.00017451901
0.00026308403
0.00035596427
0.00044820531
0.00049569579
4.1159436e-05
4.1147367e-05
4.1131511e-05
4.1155759e-05
4.1357137e-05
4.2130176e-05
4.4551789e-05
5.1501907e-05
7.0022255e-05
0.0001118018
0.0001821746
0.0002696879
0.00036015925
0.00044995792
0.00049573755
4.039284e-05
4.0383173e-05
4.0375928e-05
4.0425336e-05
4.0694537e-05
4.1641323e-05
4.4496352e-05
5.2499369e-05
7.3234062e-05
0.00011797661
0.00018969027
0.00027597786
0.0003641149
0.00045161147
0.00049578915
3.9654963e-05
3.9648355e-05
3.9651641e-05
3.9730781e-05
4.0078323e-05
4.1222872e-05
4.4566031e-05
5.3733284e-05
7.6795467e-05
0.00012434896
0.00019703788
0.00028196939
0.00036785236
0.00045317754
0.00049585112
3.8944544e-05
3.8941738e-05
3.8957721e-05
3.9071722e-05
3.9509355e-05
4.0878378e-05
4.476983e-05
5.5217171e-05
8.0697839e-05
0.00013087001
0.00020419698
0.00028767848
0.00037139066
0.00045466608
0.00049592389
3.8260447e-05
3.8262283e-05
3.8293404e-05
3.8448018e-05
3.8988856e-05
4.0612024e-05
4.5117613e-05
5.6963568e-05
8.4926928e-05
0.00013749256
0.00021115368
0.00029312118
0.00037474694
0.00045608564
0.00049600778
3.7601653e-05
3.7609082e-05
3.7658086e-05
3.7859757e-05
3.851843e-05
4.0428652e-05
4.5620029e-05
5.8983444e-05
8.9463091e-05
0.00014417246
0.0002178995
0.00029831319
0.0003779366
0.00045744356
0.00049610301
3.6967262e-05
3.6981351e-05
3.7051327e-05
3.7307273e-05
3.8100083e-05
4.0333799e-05
4.628838e-05
6.1285582e-05
9.4281843e-05
0.00015086965
0.00022443029
0.00030326971
0.00038097346
0.0004587462
0.00049620967
3.6356483e-05
3.6378439e-05
3.6472854e-05
3.6791149e-05
3.7736252e-05
4.0333719e-05
4.7134449e-05
6.3875987e-05
9.9354666e-05
0.00015754881
0.00023074527
0.00030800524
0.00038386991
0.00045999903
0.00049632782
3.5768637e-05
3.5799814e-05
3.5922562e-05
3.6312237e-05
3.7429828e-05
4.0435397e-05
4.8170259e-05
6.6757354e-05
0.00010465002
0.00016417961
0.00023684619
0.00031253355
0.0003866371
0.00046120682
0.00049645738
3.5203153e-05
3.5245078e-05
3.5400526e-05
3.587167e-05
3.7184185e-05
4.064656e-05
4.9407776e-05
6.9928645e-05
0.00011013448
0.00017073673
0.00024273672
0.0003168676
0.00038928503
0.00046237371
0.00049659824
3.4659571e-05
3.4713957e-05
3.4907005e-05
3.5470884e-05
3.7003216e-05
4.0975654e-05
5.0858552e-05
7.3384822e-05
0.00011577386
0.0001771995
0.00024842185
0.00032101951
0.00039182273
0.0004635033
0.00049675024
3.4137541e-05
3.4206315e-05
3.4442453e-05
3.5111632e-05
3.6891359e-05
4.1431807e-05
5.2533324e-05
7.7116762e-05
0.00012153432
0.00018355155
0.00025390756
0.00032500062
0.0003942583
0.00046459877
0.00049691314
3.3636827e-05
3.3722154e-05
3.4007531e-05
3.4796016e-05
3.6853631e-05
4.2024758e-05
5.4441564e-05
8.1111385e-05
0.00012738326
0.0001897803
0.00025920045
0.00032882148
0.00039659907
0.00046566288
0.00049708671
3.3157312e-05
3.3261621e-05
3.3603121e-05
3.4526502e-05
3.689565e-05
4.2764744e-05
5.6591035e-05
8.5351966e-05
0.00013329011
0.00019587637
0.0002643075
0.00033249188
0.00039885166
0.00046669809
0.00049727064
3.2699001e-05
3.2825019e-05
3.3230344e-05
3.4305957e-05
3.7023661e-05
4.3662352e-05
5.8987341e-05
8.9818638e-05
0.00013922683
0.00020183314
0.00026923591
0.00033602091
0.00040102205
0.00046770656
0.00049746465
3.2262029e-05
3.2412818e-05
3.2890574e-05
3.4137671e-05
3.7244542e-05
4.4728315e-05
6.1633538e-05
9.4489028e-05
0.00014516825
0.00020764624
0.00027399294
0.00033941699
0.00040311568
0.00046869022
0.00049766841
3.1846672e-05
3.2025663e-05
3.2585463e-05
3.402539e-05
3.756581e-05
4.5973272e-05
6.452981e-05
9.9338978e-05
0.00015109219
0.00021331316
0.00027858578
0.0003426879
0.00040513748
0.00046965076
0.00049788159
3.1453353e-05
3.1664392e-05
3.2316961e-05
3.3973345e-05
3.7995595e-05
4.7407472e-05
6.7673264e-05
0.0001043433
0.00015697948
0.0002188329
0.00028302152
0.00034584086
0.00040709191
0.00047058967
0.00049810386
3.1082657e-05
3.133005e-05
3.2087341e-05
3.3986286e-05
3.8542602e-05
4.9040449e-05
7.1057848e-05
0.00010947653
0.00016281381
0.00022420565
0.00028730704
0.0003488826
0.00040898323
0.00047150442
0.00049833477
3.0735342e-05
3.1023913e-05
3.1899228e-05
3.4069503e-05
3.921604e-05
5.0880668e-05
7.4674411e-05
0.00011471355
0.0001685815
0.00022943258
0.00029144901
0.00035181925
0.00041081466
0.00047239506
0.0004985739
3.0412362e-05
3.0747498e-05
3.1755625e-05
3.4228856e-05
4.0025517e-05
5.2935161e-05
7.8510902e-05
0.00012003019
0.00017427128
0.0002345156
0.00029545378
0.00035465641
0.00041258911
0.00047326294
0.0004988207
3.0114877e-05
3.0502598e-05
3.1659947e-05
3.4470787e-05
4.0980901e-05
5.5209178e-05
8.2552695e-05
0.00012540363
0.00017987401
0.00023945715
0.0002993274
0.00035739919
0.00041430938
0.00047410989
0.00049907467
2.9844281e-05
3.0291301e-05
3.1616048e-05
3.4802329e-05
4.2092137e-05
5.7705866e-05
8.6783023e-05
0.00013081272
0.00018538241
0.00024426016
0.00030307573
0.00036005266
0.00041597751
0.00047493648
0.00049933531
2.9602222e-05
3.0116018e-05
3.1628258e-05
3.5231095e-05
4.3369029e-05
6.0426021e-05
9.1183476e-05
0.0001362382
0.0001907908
0.00024892785
0.00030670435
0.0003626213
0.00041759501
0.00047574364
0.00049960218
2.9390632e-05
2.9979518e-05
3.1701411e-05
3.5765255e-05
4.4820982e-05
6.3367912e-05
9.5734537e-05
0.00014166273
0.00019609492
0.00025346367
0.00031021844
0.00036510892
0.0004191638
0.00047653276
0.00049987496
2.9211753e-05
2.9884957e-05
3.1840878e-05
3.6413485e-05
4.6456714e-05
6.6527206e-05
0.00010041611
0.00014707092
0.00020129168
0.00025787117
0.00031362285
0.00036751907
0.00042068628
0.00047730514
0.00050015338
2.9068174e-05
2.9835916e-05
3.2052588e-05
3.7184886e-05
4.8283951e-05
6.9896997e-05
0.00010520802
0.00015244927
0.00020637898
0.00026215398
0.00031692224
0.00036985508
0.00042216447
0.00047806217
0.0005004372
2.8962866e-05
2.9836433e-05
3.2343055e-05
3.808888e-05
5.0309112e-05
7.346795e-05
0.00011009044
0.00015778605
0.00021135558
0.0002663159
0.00032012133
0.00037211989
0.00042359919
0.00047880566
0.00050072628
2.889922e-05
2.989105e-05
3.2719377e-05
3.9135058e-05
5.2537018e-05
7.7228533e-05
0.00011504425
0.0001630712
0.00021622097
0.00027036059
0.00032322398
0.00037431568
0.00042499302
0.00047953651
0.00050102049
2.888109e-05
3.0004841e-05
3.3189242e-05
4.0333003e-05
5.4970618e-05
8.1165339e-05
0.00012005133
0.00016829612
0.00022097515
0.00027429158
0.00032623374
0.00037644519
0.00042634825
0.00048025528
0.00050131962
2.891284e-05
3.0183457e-05
3.3760903e-05
4.1692066e-05
5.7610785e-05
8.5263455e-05
0.00012509472
0.00017345359
0.0002256186
0.00027811225
0.00032915398
0.00037851129
0.00042766693
0.00048096239
0.00050162346
2.8999387e-05
3.0433153e-05
3.4443135e-05
4.322112e-05
6.0456166e-05
8.9506871e-05
0.00013015878
0.00017853758
0.00023015231
0.00028182652
0.00033198848
0.00038051461
0.00042895144
0.00048165856
0.0005019318
2.9146248e-05
3.0760823e-05
3.5245163e-05
4.4928284e-05
6.3503124e-05
9.3878885e-05
0.00013522924
0.00018354317
0.0002345775
0.00028543748
0.00033473931
0.00038245839
0.00043020345
0.00048234441
0.00050224445
2.9359593e-05
3.1174015e-05
3.6176561e-05
4.6820632e-05
6.6745766e-05
9.8362494e-05
0.00014029316
0.00018846631
0.00023889551
0.00028894797
0.00033740913
0.00038434553
0.00043142433
0.0004830204
0.00050256119
2.9646282e-05
3.168094e-05
3.7247114e-05
4.8903912e-05
7.017606e-05
0.00010294074
0.00014533894
0.00019330375
0.00024310778
0.00029236072
0.00034000083
0.00038617867
0.00043261525
0.00048368689
0.00050288185
3.0013907e-05
3.2290463e-05
3.8466642e-05
5.1182274e-05
7.3784022e-05
0.00010759701
0.00015035629
0.0001980531
0.00024721652
0.00029567946
0.00034251491
0.00038796049
0.00043377757
0.00048434418
0.0005032062
3.0470824e-05
3.301207e-05
3.9844784e-05
5.3658041e-05
7.7557986e-05
0.00011231527
0.00015533609
0.00020271248
0.00025122327
0.00029890564
0.000344955
0.00038969311
0.00043491249
0.00048499259
0.00050353404
3.1026168e-05
3.3855805e-05
4.1390755e-05
5.633153e-05
8.1484897e-05
0.00011708027
0.00016027031
0.00020728038
0.00025512948
0.00030204146
0.00034732422
0.00039137838
0.00043602106
0.00048563238
0.00050386517
3.1689853e-05
3.4832177e-05
4.3113069e-05
5.9200942e-05
8.5550651e-05
0.00012187763
0.00016515194
0.0002117559
0.00025893714
0.0003050886
0.00034962546
0.00039301806
0.00043710419
0.00048626376
0.00050419939
3.2472541e-05
3.5952019e-05
4.5019246e-05
6.2262325e-05
8.974042e-05
0.00012669396
0.00016997497
0.00021613867
0.00026264834
0.00030804825
0.00035186137
0.00039461389
0.00043816274
0.00048688691
0.00050453649
3.3385587e-05
3.7226312e-05
4.7115521e-05
6.5509623e-05
9.4038976e-05
0.00013151686
0.00017473408
0.00022042808
0.00026626371
0.00031092377
0.00035403424
0.00039616745
0.0004391975
0.00048750197
0.00050487628
3.4440926e-05
3.8665957e-05
4.9406559e-05
6.893479e-05
9.8430967e-05
0.0001363349
0.00017942458
0.00022462362
0.00026978459
0.00031371807
0.00035614615
0.00039768013
0.00044020918
0.00048810906
0.00050521856
3.5650923e-05
4.0281496e-05
5.1895211e-05
7.2527985e-05
0.0001029012
0.00014113775
0.000184043
0.00022872668
0.00027321027
0.00031643381
0.00035819915
0.00039915326
0.00044119843
0.00048870828
0.00050556314
3.7028154e-05
4.2082805e-05
5.4582314e-05
7.6277806e-05
0.00010743481
0.00014591596
0.00018858579
0.000232736
0.00027654336
0.00031907334
0.00036019515
0.00040058804
0.00044216582
0.00048929971
0.00050590981
3.858512e-05
4.4078746e-05
5.7466554e-05
8.017156e-05
0.00011201741
0.0001506608
0.00019304962
0.00023665113
0.00027978635
0.00032163881
0.00036213585
0.00040198557
0.00044311188
0.00048988338
0.0005062584
4.03339e-05
4.6276809e-05
6.0544407e-05
8.4195572e-05
0.00011663533
0.00015536491
0.00019743333
0.00024046994
0.00028294138
0.0003241323
0.00036402286
0.00040334687
0.00044403707
0.00049045932
0.0005066087
4.228573e-05
4.8682752e-05
6.3810158e-05
8.8335458e-05
0.00012127554
0.00016002109
0.0002017334
0.00024419353
0.00028601039
0.00032655575
0.00036585763
0.00040467286
0.00044494182
0.00049102754
0.00050696052
4.4450542e-05
5.1300273e-05
6.7255987e-05
9.2576388e-05
0.00012592569
0.00016462281
0.00020594659
0.00024782321
0.00028899518
0.00032891092
0.00036764152
0.00040596435
0.00044582648
0.00049158802
0.00050731368
4.6836464e-05
5.4130723e-05
7.0872148e-05
9.6903435e-05
0.0001305746
0.00016916557
0.00021006877
0.00025136002
0.00029189748
0.00033119945
0.00036937576
0.00040722212
0.00044669137
0.00049214073
0.000507668
4.9449322e-05
5.7172886e-05
7.4647155e-05
0.0001013016
0.00013521116
0.00017364228
0.0002140994
0.00025480494
0.00029471891
0.00033342286
0.00037106146
0.00040844681
0.00044753674
0.00049268562
0.00050802327
5.2292185e-05
6.0422855e-05
7.8568115e-05
0.00010575645
0.00013982654
0.00017804535
0.00021803776
0.00025815889
0.00029746094
0.00033558251
0.00037269964
0.00040963904
0.00044836283
0.0004932226
0.00050837931
5.5364977e-05
6.3873982e-05
8.2620892e-05
0.00011025349
0.00014441024
0.0001823701
0.00022188313
0.00026142279
0.00030012493
0.00033767965
0.00037429121
0.00041079932
0.00044916982
0.00049375158
0.00050873593
5.8664225e-05
6.7516999e-05
8.6790724e-05
0.00011478005
0.00014895053
0.00018661287
0.00022563487
0.00026459744
0.0003027121
0.00033971541
0.00037583697
0.00041192811
0.00044995782
0.00049427246
0.00050909295
6.2182933e-05
7.1340153e-05
9.1062191e-05
0.0001193214
0.00015343853
0.00019077027
0.00022929243
0.00026768357
0.00030522356
0.00034169079
0.00037733765
0.00041302578
0.00045072695
0.00049478511
0.00050945017
6.5910693e-05
7.532966e-05
9.5420042e-05
0.00012386216
0.00015786661
0.00019483915
0.00023285528
0.00027068186
0.0003076603
0.00034360668
0.00037879385
0.00041409266
0.00045147726
0.00049528938
0.00050980741
6.983424e-05
7.9470221e-05
9.984579e-05
0.0001283896
0.00016222772
0.00019881667
0.00023632294
0.00027359285
0.00031002317
0.00034546385
0.00038020611
0.000415129
0.00045220875
0.0004957851
0.00051016446
7.3936751e-05
8.3742978e-05
0.00010432223
0.00013289172
0.00016651536
0.00020270018
0.00023969489
0.00027641701
0.0003123129
0.00034726295
0.00038157485
0.00041613498
0.0004529214
0.00049627208
0.00051052113
7.8198161e-05
8.8127931e-05
0.00010883246
0.00013735728
0.00017072356
0.00020648723
0.00024297064
0.0002791547
0.00031453011
0.00034900452
0.00038290042
0.00041711074
0.00045361514
0.00049675014
0.00051087723
8.2596238e-05
9.2604219e-05
0.00011335999
0.00014177576
0.00017484681
0.00021017555
0.00024614969
0.00028180621
0.00031667529
0.00035068899
0.00038418307
0.00041805632
0.00045428987
0.00049721904
0.00051123254
8.7107245e-05
9.7150547e-05
0.00011788895
0.00014613741
0.00017888008
0.00021376306
0.00024923149
0.0002843717
0.00031874881
0.0003523167
0.00038542298
0.00041897173
0.00045494545
0.00049767854
0.00051158687
9.1706608e-05
0.00010174559
0.00012240412
0.00015043317
0.00018281875
0.0002172478
0.00025221553
0.00028685126
0.00032075095
0.00035388785
0.00038662024
0.00041985692
0.00045558169
0.00049812839
0.00051194
9.6369541e-05
0.00010636837
0.00012689108
0.0001546547
0.00018665865
0.00022062803
0.00025510128
0.0002892449
0.00032268186
0.00035540258
0.00038777484
0.00042071175
0.00045619837
0.00049856829
0.00051229171
0.00010107162
0.00011099859
0.00013133625
0.00015879437
0.00019039601
0.00022390211
0.0002578882
0.00029155256
0.00032454161
0.00035686091
0.00038888673
0.00042153605
0.00045679522
0.00049899795
0.00051264176
0.00010578924
0.00011561687
0.00013572698
0.00016284523
0.00019402747
0.00022706864
0.00026057579
0.00029377412
0.00032633019
0.00035826279
0.00038995574
0.00042232958
0.00045737195
0.00049941704
0.00051298993
0.00011050005
0.00012020504
0.00014005159
0.000166801
0.00019755007
0.00023012634
0.0002631636
0.00029590943
0.00032804749
0.00035960807
0.00039098167
0.00042309204
0.00045792821
0.0004998252
0.00051333597
0.00011518321
0.00012474626
0.00014429941
0.0001706561
0.00020096123
0.00023307416
0.00026565121
0.00029795829
0.00032969336
0.00036089655
0.00039196422
0.0004238231
0.00045846361
0.00050022206
0.00051367963
0.0001198196
0.00012922514
0.00014846078
0.00017440557
0.0002042588
0.00023591124
0.00026803827
0.00029992053
0.00033126761
0.00036212797
0.00039290307
0.00042452235
0.00045897776
0.00050060722
0.00051402062
0.00012439197
0.00013362782
0.0001525271
0.00017804512
0.00020744097
0.00023863692
0.00027032455
0.00030179595
0.00033277
0.000363302
0.00039379781
0.00042518936
0.00045947018
0.00050098027
0.00051435867
0.00012888497
0.00013794199
0.00015649076
0.00018157107
0.00021050635
0.00024125079
0.0002725099
0.00030358443
0.0003342003
0.0003644183
0.00039464802
0.00042582365
0.00045994042
0.00050134077
0.0005146935
0.00013328516
0.00014215687
0.00016034519
0.00018498036
0.00021345389
0.00024375264
0.00027459431
0.00030528586
0.00033555826
0.00036547651
0.00039545325
0.00042642471
0.00046038796
0.00050168825
0.00051502478
0.00013758096
0.00014626321
0.00016408479
0.0001882705
0.00021628292
0.0002461425
0.0002765779
0.00030690023
0.00033684369
0.00036647625
0.00039621301
0.00042699204
0.00046081229
0.00050202225
0.00051535221
0.00014176256
0.00015025317
0.00016770489
0.00019143957
0.00021899313
0.00024842064
0.00027846095
0.00030842761
0.00033805641
0.00036741719
0.00039692684
0.00042752508
0.00046121286
0.0005023423
0.00051567546
0.00014582181
0.00015412028
0.00017120171
0.00019448618
0.00022158453
0.00025058755
0.0002802439
0.00030986819
0.00033919634
0.00036829899
0.00039759426
0.00042802331
0.00046158914
0.00050264789
0.00051599418
0.00014975214
0.00015785932
0.00017457233
0.00019740947
0.00022405746
0.00025264396
0.00028192736
0.00031122226
0.00034026344
0.00036912138
0.00039821484
0.0004284862
0.00046194061
0.00050293856
0.00051630802
0.00015354836
0.00016146626
0.0001778146
0.00020020903
0.00022641256
0.00025459082
0.00028351211
0.00031249025
0.0003412578
0.00036988415
0.00039878819
0.00042891327
0.00046226674
0.00050321383
0.00051661662
0.0001572066
0.00016493812
0.00018092709
0.0002028849
0.00022865078
0.0002564293
0.00028499912
0.00031367275
0.0003421796
0.00037058719
0.00039931395
0.00042930405
0.00046256704
0.00050347323
0.00051691963
0.00016072413
0.0001682729
0.00018390905
0.00020543753
0.00023077331
0.00025816078
0.00028638953
0.00031477047
0.00034302915
0.00037123045
0.00039979187
0.00042965814
0.00046284107
0.00050371633
0.00051721669
0.00016409925
0.00017146945
0.00018676031
0.00020786776
0.0002327816
0.00025978682
0.00028768464
0.0003157843
0.00034380689
0.00037181401
0.00040022176
0.0004299752
0.00046308841
0.00050394272
0.00051750741
0.00016733116
0.00017452741
0.00018948127
0.00021017676
0.00023467734
0.00026130918
0.00028888593
0.00031671528
0.0003445134
0.00037233806
0.00040060353
0.00043025497
0.00046330872
0.00050415204
0.00051779146
0.00017041989
0.00017744708
0.00019207279
0.00021236601
0.0002364624
0.00026272978
0.00028999504
0.00031756458
0.0003451494
0.00037280292
0.00040093721
0.00043049727
0.00046350172
0.00050434397
0.00051806848
0.00017336612
0.00018022937
0.00019453619
0.00021443729
0.00023813887
0.00026405069
0.00029101377
0.00031833357
0.00034571575
0.00037320906
0.00040122292
0.00043070203
0.0004636672
0.00050451824
0.00051833813
0.00017617116
0.0001828757
0.00019687314
0.00021639259
0.00023970899
0.00026527414
0.00029194403
0.00031902372
0.00034621348
0.00037355705
0.00040146093
0.00043086927
0.00046380505
0.00050467464
0.00051860007
0.00017883682
0.00018538794
0.00019908567
0.00021823417
0.00024117514
0.00026640245
0.00029278789
0.00031963666
0.00034664375
0.00037384763
0.00040165162
0.00043099913
0.00046391524
0.00050481302
0.00051885402
0.00018136533
0.00018776833
0.00020117607
0.00021996443
0.00024253984
0.00026743808
0.00029354753
0.00032017417
0.00034700785
0.00037408169
0.00040179553
0.00043109187
0.00046399783
0.0005049333
0.00051909966
0.0001837593
0.00019001944
0.00020314689
0.00022158597
0.00024380572
0.00026838358
0.00029422523
0.00032063812
0.00034730723
0.00037426022
0.00040189329
0.00043114785
0.00046405299
0.00050503549
0.00051933675
0.00018602162
0.00019214411
0.00020500088
0.0002231015
0.00024497549
0.00026924156
0.00029482337
0.00032103052
0.00034754346
0.00037438438
0.0004019457
0.00043116758
0.00046408098
0.00050511964
0.00051956505
0.00018815546
0.00019414538
0.00020674095
0.00022451387
0.00024605196
0.00027001472
0.00029534439
0.00032135346
0.00034771821
0.00037445544
0.00040195367
0.00043115167
0.00046408217
0.00050518589
0.00051978433
0.00019016413
0.00019602649
0.00020837017
0.000225826
0.00024703798
0.0002707058
0.00029579083
0.00032160914
0.00034783329
0.0003744748
0.00040191823
0.00043110083
0.00046405703
0.00050523446
0.00051999442
0.00019205115
0.00019779079
0.00020989168
0.0002270409
0.00024793645
0.0002713176
0.00029616525
0.00032179981
0.00034789058
0.00037444396
0.00040184053
0.00043101592
0.00046400611
0.00050526562
0.00052019517
0.0001938201
0.00019944175
0.00021130874
0.00022816162
0.00024875031
0.00027185291
0.00029647028
0.00032192782
0.00034789207
0.00037436455
0.00040172184
0.00043089787
0.00046393007
0.00050527973
0.00052038646
0.00019547467
0.00020098291
0.00021262465
0.00022919126
0.00024948251
0.00027231457
0.00029670856
0.00032199554
0.00034783982
0.00037423827
0.00040156352
0.00043074772
0.00046382964
0.0005052772
0.0005205682
0.00019701861
0.00020241786
0.00021384275
0.00023013294
0.00025013601
0.00027270543
0.00029688276
0.0003220054
0.00034773595
0.0003740669
0.00040136702
0.00043056662
0.00046370564
0.00050525849
0.00052074032
0.00019845566
0.00020375021
0.0002149664
0.00023098976
0.00025071378
0.0002730283
0.00029699557
0.00032195986
0.00034758263
0.00037385232
0.00040113388
0.00043035577
0.00046355896
0.00050522414
0.00052090281
0.0001997896
0.00020498357
0.00021599895
0.00023176486
0.00025121876
0.00027328602
0.00029704966
0.0003218614
0.00034738209
0.00037359642
0.00040086571
0.00043011645
0.00046339056
0.00050517473
0.00052105567
0.00020102418
0.00020612157
0.00021694377
0.00023246135
0.00025165389
0.00027348139
0.0002970477
0.0003217125
0.00034713658
0.0003733012
0.00040056416
0.00042985002
0.00046320144
0.00050511087
0.00052119893
0.00020216314
0.00020716777
0.00021780418
0.0002330823
0.00025202206
0.00027361719
0.00029699234
0.00032151567
0.00034684836
0.00037296866
0.00040023097