/*--------------------------------*- C++ -*----------------------------------*\
| =========                 |                                                 |
| \\      /  F ield         | OpenFOAM: The Open Source CFD Toolbox           |
|  \\    /   O peration     | Version:  2506                                  |
|   \\  /    A nd           | Website:  www.openfoam.com                      |
|    \\/     M anipulation  |                                                 |
\*---------------------------------------------------------------------------*/
FoamFile
{
    version     2.0;
    format      ascii;
    arch        "LSB;label=32;scalar=64";
    class       volScalarField;
    location    "21000/water";
    object      nut;
}
// * * * * * * * * * * * * * * * * * * * * * * * * * * * * * * * * * * * * * //

dimensions      [0 2 -1 0 0 0 0];

internalField   nonuniform List<scalar> 
6000
(
4.1367308e-05
4.1367285e-05
4.1367292e-05
4.1367317e-05
4.136735e-05
4.1367394e-05
4.1367445e-05
4.1367477e-05
4.1367269e-05
4.1365028e-05
4.1345959e-05
4.1185428e-05
3.984402e-05
3.0619188e-05
1.3489073e-05
4.0862094e-05
4.0862089e-05
4.0862128e-05
4.0862206e-05
4.086231e-05
4.0862441e-05
4.0862573e-05
4.0862525e-05
4.0861044e-05
4.0849566e-05
4.0769767e-05
4.0233638e-05
3.6930279e-05
2.3809326e-05
1.5168915e-05
4.0408426e-05
4.0408431e-05
4.0408496e-05
4.0408619e-05
4.040878e-05
4.0408965e-05
4.0409066e-05
4.0408421e-05
4.0403049e-05
4.0369314e-05
4.0169922e-05
3.9053519e-05
3.3674827e-05
1.9530254e-05
1.6389796e-05
3.9998212e-05
3.9998216e-05
3.9998298e-05
3.9998456e-05
3.9998657e-05
3.9998846e-05
3.9998699e-05
3.999645e-05
3.9982628e-05
3.9907469e-05
3.9519874e-05
3.7665236e-05
3.0439418e-05
1.6813321e-05
1.7227565e-05
3.9625122e-05
3.9625133e-05
3.9625231e-05
3.9625419e-05
3.9625638e-05
3.9625739e-05
3.9624947e-05
3.9619415e-05
3.959045e-05
3.9450123e-05
3.8807695e-05
3.6131535e-05
2.7477322e-05
1.5090355e-05
1.7763765e-05
3.9283984e-05
3.9284007e-05
3.9284119e-05
3.9284324e-05
3.9284521e-05
3.9284369e-05
3.9282279e-05
3.9270986e-05
3.9218236e-05
3.8986823e-05
3.8033859e-05
3.4524992e-05
2.4897642e-05
1.400968e-05
1.8072537e-05
3.8970512e-05
3.8970546e-05
3.8970668e-05
3.8970871e-05
3.8970973e-05
3.8970306e-05
3.8965958e-05
3.8945612e-05
3.8858945e-05
3.8510812e-05
3.7207229e-05
3.2908964e-05
2.2716803e-05
1.3360893e-05
1.8215906e-05
3.8681158e-05
3.8681199e-05
3.8681323e-05
3.8681493e-05
3.8681392e-05
3.8679823e-05
3.8671916e-05
3.8638477e-05
3.8506919e-05
3.801881e-05
3.6341286e-05
3.1331233e-05
2.0908463e-05
1.30184e-05
1.8243034e-05
3.841296e-05
3.8413006e-05
3.8413119e-05
3.8413209e-05
3.8412743e-05
3.8409742e-05
3.8396631e-05
3.8345462e-05
3.8157885e-05
3.7510375e-05
3.5450851e-05
2.9823717e-05
1.9431977e-05
1.2906145e-05
1.8191421e-05
3.816343e-05
3.8163474e-05
3.8163556e-05
3.8163497e-05
3.8162446e-05
3.8157327e-05
3.8137042e-05
3.8063106e-05
3.7808869e-05
3.6987081e-05
3.454982e-05
2.8405299e-05
1.8246291e-05
1.2977275e-05
1.8088864e-05
3.7930458e-05
3.7930491e-05
3.7930513e-05
3.793021e-05
3.7928279e-05
3.7920197e-05
3.7890497e-05
3.7788579e-05
3.7458031e-05
3.6451747e-05
3.3649968e-05
2.7085594e-05
1.7315649e-05
1.3202297e-05
1.7955551e-05
3.7712242e-05
3.7712253e-05
3.7712173e-05
3.7711499e-05
3.7708322e-05
3.7696279e-05
3.7654711e-05
3.7519641e-05
3.7104472e-05
3.5907781e-05
3.2760531e-05
2.58684e-05
1.6611172e-05
1.3561911e-05
1.7805936e-05
3.7507239e-05
3.7507212e-05
3.7506973e-05
3.7505765e-05
3.7500895e-05
3.7483757e-05
3.7427744e-05
3.725459e-05
3.6748014e-05
3.5358688e-05
3.188827e-05
2.4754408e-05
1.6110613e-05
1.4042468e-05
1.7650267e-05
3.7314115e-05
3.7314026e-05
3.7313557e-05
3.7311613e-05
3.7304527e-05
3.7281048e-05
3.7207963e-05
3.6992195e-05
3.6389e-05
3.4807726e-05
3.1037799e-05
2.3743174e-05
1.5797412e-05
1.4632945e-05
1.7495753e-05
3.7131708e-05
3.713153e-05
3.7130739e-05
3.7127817e-05
3.7117921e-05
3.7086772e-05
3.6994026e-05
3.6731629e-05
3.6028109e-05
3.4257704e-05
3.0212055e-05
2.2834479e-05
1.5659519e-05
1.5322866e-05
1.7347422e-05
3.6959006e-05
3.6958703e-05
3.6957478e-05
3.6953298e-05
3.6939934e-05
3.6899735e-05
3.6784847e-05
3.64724e-05
3.5666203e-05
3.3710866e-05
2.9412801e-05
2.2029191e-05
1.5688155e-05
1.6100896e-05
1.7208725e-05
3.6795116e-05
3.6794645e-05
3.6792855e-05
3.6787094e-05
3.6769555e-05
3.6718912e-05
3.6579574e-05
3.6214282e-05
3.5304204e-05
3.3168861e-05
2.8641157e-05
2.132974e-05
1.587657e-05
1.6954009e-05
1.7081944e-05
3.6639251e-05
3.6638559e-05
3.6636051e-05
3.6628355e-05
3.6605895e-05
3.6543431e-05
3.637756e-05
3.5957252e-05
3.4942996e-05
3.2632763e-05
2.789813e-05
2.0740252e-05
1.6218811e-05
1.7867211e-05
1.6968459e-05
3.6490711e-05
3.6489738e-05
3.6486338e-05
3.6476321e-05
3.6448171e-05
3.6372563e-05
3.6178336e-05
3.5701433e-05
3.458336e-05
3.2103134e-05
2.7185145e-05
2.0266398e-05
1.6708562e-05
1.8823777e-05
1.6868922e-05
3.6348869e-05
3.6347546e-05
3.6343063e-05
3.6330312e-05
3.62957e-05
3.6205706e-05
3.5981587e-05
3.5447046e-05
3.4225914e-05
3.1580129e-05
2.6504571e-05
1.991497e-05
1.7338099e-05
1.9805967e-05
1.6783375e-05
3.6213165e-05
3.6211415e-05
3.6205638e-05
3.6189726e-05
3.6147887e-05
3.6042373e-05
3.5787125e-05
3.5194368e-05
3.3871092e-05
3.1063631e-05
2.5860194e-05
1.9693245e-05
1.8097487e-05
2.0796033e-05
1.6711346e-05
3.6083093e-05
3.6080831e-05
3.6073537e-05
3.6054024e-05
3.6004223e-05
3.5882185e-05
3.5594869e-05
3.4943693e-05
3.3519118e-05
3.0553441e-05
2.5257605e-05
1.96082e-05
1.8974102e-05
2.1777346e-05
1.6651939e-05
3.5958194e-05
3.5955329e-05
3.5946284e-05
3.592273e-05
3.5864274e-05
3.5724854e-05
3.5404824e-05
3.4695304e-05
3.3170007e-05
3.0049498e-05
2.4704419e-05
1.9665646e-05
1.9952579e-05
2.2735414e-05
1.660395e-05
3.5838054e-05
3.5834489e-05
3.582345e-05
3.5795422e-05
3.5727676e-05
3.5570179e-05
3.521706e-05
3.444945e-05
3.2823581e-05
2.9552162e-05
2.4210265e-05
1.9869402e-05
2.1015194e-05
2.3658589e-05
1.6565971e-05
3.5722292e-05
3.5717927e-05
3.5704651e-05
3.5671733e-05
3.5594133e-05
3.5418031e-05
3.50317e-05
3.4206321e-05
3.2479493e-05
2.9062524e-05
2.3786503e-05
2.022057e-05
2.2142641e-05
2.4538397e-05
1.6536511e-05
3.5610563e-05
3.5605296e-05
3.558954e-05
3.5551342e-05
3.5463408e-05
3.5268352e-05
3.48489e-05
3.3966035e-05
3.2137286e-05
2.858275e-05
2.3445668e-05
2.0717024e-05
2.3315071e-05
2.5369467e-05
1.6514097e-05
3.5502551e-05
3.549628e-05
3.5477808e-05
3.5433974e-05
3.5335321e-05
3.5121137e-05
3.466884e-05
3.3728621e-05
3.1796463e-05
2.8116417e-05
2.3200676e-05
2.1353141e-05
2.4513224e-05
2.6149157e-05
1.6497357e-05
3.5397967e-05
3.539059e-05
3.536918e-05
3.5319398e-05
3.5209747e-05
3.4976437e-05
3.4491706e-05
3.3494016e-05
3.14566e-05
2.7668794e-05
2.3063903e-05
2.2119832e-05
2.5719465e-05
2.6877012e-05
1.6485071e-05
3.5296546e-05
3.5287966e-05
3.5263414e-05
3.5207424e-05
3.5086609e-05
3.4834344e-05
3.4317681e-05
3.3262058e-05
3.1117487e-05
2.7247026e-05
2.3046253e-05
2.3004861e-05
2.6918581e-05
2.7554165e-05
1.6476201e-05
3.5198047e-05
3.5188175e-05
3.5160297e-05
3.5097901e-05
3.4965875e-05
3.4694991e-05
3.4146934e-05
3.3032492e-05
3.0779305e-05
2.6860148e-05
2.3156315e-05
2.3993438e-05
2.8098247e-05
2.8182808e-05
1.6469894e-05
3.5102251e-05
3.5091004e-05
3.5059649e-05
3.4990715e-05
3.4847558e-05
3.4558539e-05
3.3979609e-05
3.2804987e-05
3.0442844e-05
2.6518901e-05
2.3399716e-05
2.5069008e-05
2.9249139e-05
2.8765761e-05
1.6465472e-05
3.5008959e-05
3.4996268e-05
3.4961317e-05
3.488579e-05
3.4731711e-05
3.4425177e-05
3.3815813e-05
3.2579164e-05
3.0109732e-05
2.6235323e-05
2.3778717e-05
2.6214168e-05
3.0364755e-05
2.9306158e-05
1.646241e-05
3.4917993e-05
3.4903801e-05
3.4865175e-05
3.4783085e-05
3.4618425e-05
3.4295113e-05
3.3655609e-05
3.235464e-05
2.9782687e-05
2.6022142e-05
2.429206e-05
2.7411591e-05
3.1441033e-05
2.9807247e-05
1.6460314e-05
3.4829195e-05
3.4813462e-05
3.4771128e-05
3.4682592e-05
3.4507829e-05
3.416857e-05
3.3499011e-05
3.2131095e-05
2.9465731e-05
2.589204e-05
2.4935073e-05
2.8644859e-05
3.2475855e-05
3.0272255e-05
1.6458891e-05
3.4742423e-05
3.4725129e-05
3.4679107e-05
3.4584339e-05
3.4400083e-05
3.4045774e-05
3.3345975e-05
3.1908364e-05
2.9164362e-05
2.5856856e-05
2.5699991e-05
2.9899124e-05
3.3468558e-05
3.0704314e-05
1.6457936e-05
3.465756e-05
3.4638706e-05
3.4589068e-05
3.4488387e-05
3.4295378e-05
3.3926957e-05
3.3196403e-05
3.1686556e-05
2.8885627e-05
2.5926838e-05
2.6576456e-05
3.1161549e-05
3.4419484e-05
3.1106401e-05
1.6457305e-05
3.4574503e-05
3.4554114e-05
3.4500999e-05
3.4394828e-05
3.4193938e-05
3.381234e-05
3.3050148e-05
3.1466195e-05
2.8638063e-05
2.6110008e-05
2.7552148e-05
3.2421503e-05
3.5329635e-05
3.1481314e-05
1.6456902e-05
3.4493171e-05
3.4471301e-05
3.4414911e-05
3.4303789e-05
3.409601e-05
3.3702133e-05
3.2907027e-05
3.1248389e-05
2.8431492e-05
2.6411716e-05
2.8613483e-05
3.3670555e-05
3.6200409e-05
3.1831643e-05
1.6456669e-05
3.4413502e-05
3.4390234e-05
3.4330848e-05
3.4215429e-05
3.4001867e-05
3.3596524e-05
3.2766849e-05
3.1035013e-05
2.8276657e-05
2.6834392e-05
2.9746331e-05
3.4902297e-05
3.703343e-05
3.2159762e-05
1.6456572e-05
3.4335456e-05
3.4310905e-05
3.4248878e-05
3.4129939e-05
3.3911801e-05
3.3495676e-05
3.2629453e-05
3.0828885e-05
2.818473e-05
2.73775e-05
3.0936679e-05
3.6112069e-05
3.7830438e-05
3.2467823e-05
1.6456596e-05
3.4259011e-05
3.423333e-05
3.4169102e-05
3.4047543e-05
3.3826124e-05
3.3399718e-05
3.2494766e-05
3.0633922e-05
2.8166732e-05
2.8037692e-05
3.2171192e-05
3.7296636e-05
3.8593223e-05
3.2757763e-05
1.6456739e-05
3.4184168e-05
3.4157548e-05
3.409165e-05
3.3968498e-05
3.3745158e-05
3.3308744e-05
3.236288e-05
3.0455255e-05
2.8232926e-05
2.8809106e-05
3.3437648e-05
3.8453879e-05
3.9323576e-05
3.3031311e-05
1.6457005e-05
3.4110952e-05
3.4083626e-05
3.4016682e-05
3.3893092e-05
3.3669236e-05
3.3222814e-05
3.2234152e-05
3.0299253e-05
2.8392246e-05
2.9683789e-05
3.4725213e-05
3.9582514e-05
4.002327e-05
3.3290008e-05
1.6457402e-05
3.4039411e-05
3.4011658e-05
3.3944392e-05
3.3821645e-05
3.3598692e-05
3.3141955e-05
3.210932e-05
3.0173466e-05
2.8651821e-05
3.0652196e-05
3.6024572e-05
4.0681868e-05
4.0694026e-05
3.353522e-05
1.6457942e-05
3.3969616e-05
3.3941763e-05
3.3875008e-05
3.3754507e-05
3.3533859e-05
3.306618e-05
3.1989642e-05
3.0086446e-05
2.9016627e-05
3.1703719e-05
3.7327934e-05
4.1751711e-05
4.1337508e-05
3.3768155e-05
1.6458635e-05
3.3901667e-05
3.3874095e-05
3.3808792e-05
3.369206e-05
3.3475059e-05
3.2995507e-05
3.187704e-05
3.0047455e-05
2.9489292e-05
3.2827219e-05
3.8628938e-05
4.2792134e-05
4.1955299e-05
3.3989887e-05
1.6459492e-05
3.3835691e-05
3.3808835e-05
3.3746042e-05
3.3634709e-05
3.3422602e-05
3.2929991e-05
3.1774238e-05
3.0066081e-05
3.007006e-05
3.4011505e-05
3.9922489e-05
4.3803458e-05
4.2548902e-05
3.4201364e-05
1.6460521e-05
3.3771846e-05
3.3746203e-05
3.3687095e-05
3.358289e-05
3.3376778e-05
3.286978e-05
3.1684886e-05
3.0151793e-05
3.0756886e-05
3.5245744e-05
4.1204583e-05
4.4786179e-05
4.3119729e-05
3.4403428e-05
1.6461728e-05
3.3710322e-05
3.3686449e-05
3.3632325e-05
3.3537056e-05
3.3337852e-05
3.281518e-05
3.1613639e-05
3.0313468e-05
3.154566e-05
3.651978e-05
4.2472113e-05
4.574092e-05
4.3669102e-05
3.4596827e-05
1.6463121e-05
3.3651343e-05
3.3629867e-05
3.3582146e-05
3.3497682e-05
3.3306071e-05
3.2766736e-05
3.1566176e-05
3.0558945e-05
3.2430519e-05
3.782435e-05
4.3722695e-05
4.6668398e-05
4.4198256e-05
3.4782226e-05
1.6464701e-05
3.359517e-05
3.3576787e-05
3.3537014e-05
3.3465257e-05
3.328166e-05
3.2725339e-05
3.1549147e-05
3.0894638e-05
3.3404215e-05
3.9151206e-05
4.4954529e-05
4.7569394e-05
4.4708339e-05
3.4960217e-05
1.6466471e-05
3.3542107e-05
3.3527584e-05
3.3497423e-05
3.3440275e-05
3.3264838e-05
3.2692337e-05
3.1570023e-05
3.1325251e-05
3.4458517e-05
4.0493151e-05
4.6166274e-05
4.8444733e-05
4.520042e-05
3.5131333e-05
1.6468431e-05
3.3492497e-05
3.3482682e-05
3.346391e-05
3.3423238e-05
3.3255838e-05
3.2669661e-05
3.1636869e-05
3.1853601e-05
3.5584606e-05
4.1844008e-05
4.7356959e-05
4.9295261e-05
4.5675493e-05
3.5296047e-05
1.647058e-05
3.3446735e-05
3.3442548e-05
3.3437051e-05
3.3414644e-05
3.3254937e-05
3.2659938e-05
3.1758036e-05
3.2480556e-05
3.6773447e-05
4.3198545e-05
4.8525909e-05
5.0121833e-05
4.613448e-05
3.5454787e-05
1.6472917e-05
3.3405264e-05
3.3407707e-05
3.3417461e-05
3.3414983e-05
3.32625e-05
3.2666592e-05
3.1941802e-05
3.3205087e-05
3.8016104e-05
4.4552375e-05
4.9672692e-05
5.0925298e-05
4.6578238e-05
3.5607939e-05
1.6475438e-05
3.3368581e-05
3.3378733e-05
3.3405791e-05
3.3424736e-05
3.3279045e-05
3.269391e-05
3.2195994e-05
3.4024422e-05
3.9303998e-05
4.5901845e-05
5.0797074e-05
5.1706493e-05
4.7007566e-05
3.575585e-05
1.6478139e-05
3.3337244e-05
3.3356261e-05
3.3402726e-05
3.3444374e-05
3.3305312e-05
3.2747054e-05
3.2527619e-05
3.4934263e-05
4.0629099e-05
4.7243931e-05
5.1898978e-05
5.2466235e-05
4.7423202e-05
3.5898837e-05
1.6481016e-05
3.3311875e-05
3.3340983e-05
3.3408981e-05
3.347436e-05
3.3342361e-05
3.2832014e-05
3.2942543e-05
3.5929071e-05
4.1984043e-05
4.8576137e-05
5.2978461e-05
5.3205316e-05
4.7825835e-05
3.6037187e-05
1.6484065e-05
3.3293163e-05
3.3333652e-05
3.3425294e-05
3.3515163e-05
3.3391668e-05
3.2955484e-05
3.3445234e-05
3.7002362e-05
4.3362192e-05
4.9896417e-05
5.4035682e-05
5.3924506e-05
4.8216107e-05
3.6171161e-05
1.6487281e-05
3.3281869e-05
3.3335085e-05
3.3452425e-05
3.3567272e-05
3.3455235e-05
3.3124673e-05
3.4038602e-05
3.8147027e-05
4.4757648e-05
5.1203098e-05
5.5070883e-05
5.4624542e-05
4.8594614e-05
3.6301e-05
1.6490657e-05
3.3278836e-05
3.3346162e-05
3.3491148e-05
3.3631232e-05
3.3535695e-05
3.3347044e-05
3.4723922e-05
3.9355616e-05
4.6165225e-05
5.249483e-05
5.6084367e-05
5.5306135e-05
4.8961912e-05
3.6426924e-05
1.6494188e-05
3.3284986e-05
3.3367825e-05
3.3542247e-05
3.3707682e-05
3.3636389e-05
3.3630016e-05
3.550085e-05
4.0620605e-05
4.7580403e-05
5.3770528e-05
5.7076489e-05
5.5969969e-05
4.9318527e-05
3.6549141e-05
1.649787e-05
3.3301328e-05
3.3401077e-05
3.3606513e-05
3.3797413e-05
3.3761429e-05
3.398064e-05
3.6367524e-05
4.1934615e-05
4.8999263e-05
5.5029341e-05
5.8047632e-05
5.6616675e-05
4.9664837e-05
3.6667082e-05
1.6501693e-05
3.3328964e-05
3.3446985e-05
3.3684745e-05
3.3901443e-05
3.3915698e-05
3.4405289e-05
3.7320731e-05
4.3290576e-05
5.0418421e-05
5.6270606e-05
5.8998201e-05
5.7246848e-05
5.0001241e-05
3.6781083e-05
1.6505652e-05
3.3369088e-05
3.3506668e-05
3.3777753e-05
3.4021098e-05
3.4104808e-05
3.4909373e-05
3.8356114e-05
4.4681849e-05
5.1834966e-05
5.7493825e-05
5.9928614e-05
5.7861058e-05
5.0328144e-05
3.6891448e-05
1.6509737e-05
3.3422991e-05
3.3581299e-05
3.3886372e-05
3.4158113e-05
3.4334985e-05
3.5497112e-05
3.9468416e-05
4.6102297e-05
5.32464e-05
5.8698634e-05
6.08393e-05
5.8459861e-05
5.0645958e-05
3.6998447e-05
1.6513939e-05
3.3492061e-05
3.3672101e-05
3.4011479e-05
3.4314722e-05
3.4612896e-05
3.6171383e-05
4.0651733e-05
4.7546323e-05
5.4650584e-05
5.9884786e-05
6.173069e-05
5.9043733e-05
5.0954641e-05
3.7102365e-05
1.6518251e-05
3.3577785e-05
3.3780339e-05
3.4154028e-05
3.4493756e-05
3.4945421e-05
3.6933638e-05
4.1899748e-05
4.9008871e-05
5.6045694e-05
6.1052126e-05
6.2603206e-05
5.9613118e-05
5.1254411e-05
3.7203363e-05
1.6522664e-05
3.3681742e-05
3.3907317e-05
3.4315094e-05
3.4698713e-05
3.5339385e-05
3.7783904e-05
4.320596e-05
5.048541e-05
5.7430177e-05
6.2200576e-05
6.3457267e-05
6.0168473e-05
5.1545768e-05
3.7301529e-05
1.6527174e-05
3.3805609e-05
3.405438e-05
3.4495932e-05
3.4933796e-05
3.5801268e-05
3.872085e-05
4.456387e-05
5.1971903e-05
5.8802719e-05
6.3330123e-05
6.4293293e-05
6.0710262e-05
5.1829149e-05
3.7396971e-05
1.6531776e-05
3.3951149e-05
3.4222914e-05
3.4698055e-05
3.5203913e-05
3.6336929e-05
3.9741917e-05
4.5967133e-05
5.3464764e-05
6.0162212e-05
6.4440807e-05
6.511169e-05
6.1238816e-05
5.2104961e-05
3.7489816e-05
1.6536466e-05
3.4120206e-05
3.4414356e-05
3.4923312e-05
3.5514615e-05
3.6951353e-05
4.0843486e-05
4.7409673e-05
5.4960826e-05
6.1507729e-05
6.5532709e-05
6.5912807e-05
6.1754122e-05
5.2373589e-05
3.7580212e-05
1.6541242e-05
3.4314708e-05
3.4630213e-05
3.517399e-05
3.5871983e-05
3.7648444e-05
4.2021081e-05
4.8885764e-05
5.6457293e-05
6.2838495e-05
6.6605935e-05
6.6697008e-05
6.2256749e-05
5.263524e-05
3.7668262e-05
1.6546101e-05
3.4536652e-05
3.4872092e-05
3.5452896e-05
3.6282449e-05
3.8430883e-05
4.3269577e-05
5.0390076e-05
5.7951702e-05
6.4153865e-05
6.7660622e-05
6.7464676e-05
6.2747211e-05
5.2890134e-05
3.7754052e-05
1.6551039e-05
3.4788113e-05
3.5141739e-05
3.5763444e-05
3.6752576e-05
3.9300053e-05
4.4583407e-05
5.1917693e-05
5.9441887e-05
6.5453309e-05
6.8696934e-05
6.821621e-05
6.3225965e-05
5.31385e-05
3.7837661e-05
1.6556054e-05
3.5071245e-05
3.5441105e-05
3.6109701e-05
3.7288798e-05
4.0256034e-05
4.5956753e-05
5.346412e-05
6.0925954e-05
6.6736398e-05
6.9715015e-05
6.8951507e-05
6.3693476e-05
5.338059e-05
3.7919185e-05
1.6561142e-05
3.5388293e-05
3.5772409e-05
3.6496409e-05
3.7897156e-05
4.1297658e-05
4.7383716e-05
5.5025271e-05
6.2402239e-05
6.8002778e-05
7.0715016e-05
6.9671046e-05
6.4150052e-05
5.361661e-05
3.799871e-05
1.6566299e-05
3.5741625e-05
3.6138231e-05
3.6928951e-05
3.8583038e-05
4.2422621e-05
4.8858455e-05
5.6597442e-05
6.3869284e-05
6.9252155e-05
7.1697128e-05
7.03753e-05
6.4595993e-05
5.3846748e-05
3.8076313e-05
1.6571522e-05
3.6133762e-05
3.6541599e-05
3.7413256e-05
3.9350945e-05
4.3627632e-05
5.0375294e-05
5.8177292e-05
6.5325812e-05
7.0484305e-05
7.2661576e-05
7.1064706e-05
6.5031595e-05
5.4071182e-05
3.8152056e-05
1.6576808e-05
3.6567443e-05
3.6986073e-05
3.7955656e-05
4.0204315e-05
4.4908587e-05
5.1928799e-05
5.9761815e-05
6.6770717e-05
7.1699041e-05
7.3608208e-05
7.1739645e-05
6.5457158e-05
5.4290103e-05
3.8226003e-05
1.6582153e-05
3.7045688e-05
3.7475822e-05
3.8562677e-05
4.11454e-05
4.6260755e-05
5.3513836e-05
6.1348307e-05
6.8203021e-05
7.2896192e-05
7.4537324e-05
7.2400468e-05
6.5872944e-05
5.4503688e-05
3.8298214e-05
1.6587554e-05
3.7571882e-05
3.8015661e-05
3.9240807e-05
4.2175203e-05
4.7678963e-05
5.5125593e-05
6.2934338e-05
6.9621857e-05
7.4075646e-05
7.5449254e-05
7.3047493e-05
6.6279202e-05
5.4712096e-05
3.8368744e-05
1.6593007e-05
3.8149858e-05
3.8611047e-05
3.999622e-05
4.3293492e-05
4.9157763e-05
5.67596e-05
6.4517727e-05
7.102647e-05
7.5237263e-05
7.6344278e-05
7.3681021e-05
6.6676176e-05
5.4915474e-05
3.8437643e-05
1.6598509e-05
3.8783971e-05
3.9268025e-05
4.0834522e-05
4.4498856e-05
5.0691587e-05
5.8411724e-05
6.6096524e-05
7.2416195e-05
7.6380833e-05
7.7222646e-05
7.4301327e-05
6.7064109e-05
5.5113965e-05
3.8504956e-05
1.6604057e-05
3.947915e-05
3.9993096e-05
4.1760499e-05
4.5788822e-05
5.2274867e-05
6.0078159e-05
6.7668959e-05
7.3790409e-05
7.750638e-05
7.8084663e-05
7.4908678e-05
6.7443224e-05
5.5307703e-05
3.8570727e-05
1.6609647e-05
4.0240902e-05
4.0793032e-05
4.2777919e-05
4.7159995e-05
5.3902137e-05
6.1755402e-05
6.9233432e-05
7.5148583e-05
7.8613995e-05
7.8930588e-05
7.5503326e-05
6.7813731e-05
5.5496811e-05
3.8634995e-05
1.6615276e-05
4.1075259e-05
4.1674633e-05
4.388938e-05
4.8608226e-05
5.556811e-05
6.3440263e-05
7.078854e-05
7.6490114e-05
7.9703608e-05
7.9760624e-05
7.6085524e-05
6.8175827e-05
5.5681406e-05
3.8697794e-05
1.6620941e-05
4.1988653e-05
4.2644437e-05
4.5096224e-05
5.0128781e-05
5.7267726e-05
6.5129802e-05
7.2332937e-05
7.7814541e-05
8.0775414e-05
8.0574978e-05
7.6655509e-05
6.8529699e-05
5.5861595e-05
3.8759158e-05
1.6626638e-05
4.2987713e-05
4.3708415e-05
4.6398514e-05
5.1716505e-05
5.8996176e-05
6.6821306e-05
7.3865404e-05
7.9121553e-05
8.1829545e-05
8.1373851e-05
7.7213501e-05
6.8875523e-05
5.603748e-05
3.8819116e-05
1.6632365e-05
4.4078982e-05
4.487167e-05
4.779507e-05
5.3365982e-05
6.0748943e-05
6.8512339e-05
7.5384801e-05
8.0410679e-05
8.2866051e-05
8.215744e-05
7.7759705e-05
6.9213461e-05
5.6209151e-05
3.8877695e-05
1.6638118e-05
4.5268582e-05
4.6138165e-05
4.9283555e-05
5.507166e-05
6.252177e-05
7.020058e-05
7.6890027e-05
8.1681823e-05
8.3884994e-05
8.2925929e-05
7.8294316e-05
6.9543663e-05
5.6376695e-05
3.8934919e-05
1.6643894e-05
4.6561846e-05
4.7510493e-05
5.086059e-05
5.6827957e-05
6.431066e-05
7.1883878e-05
7.8380138e-05
8.2934857e-05
8.488644e-05
8.3679484e-05
7.8817512e-05
6.9866268e-05
5.6540188e-05
3.8990809e-05
1.664969e-05
4.7962942e-05
4.8989724e-05
5.2521911e-05
5.8629368e-05
6.6111923e-05
7.3560259e-05
7.9854107e-05
8.4169559e-05
8.5870449e-05
8.4418259e-05
7.9329457e-05
7.0181405e-05
5.6699702e-05
3.9045384e-05
1.6655503e-05
4.9474538e-05
5.0575308e-05
5.4262508e-05
6.047048e-05
6.7922004e-05
7.5227761e-05
8.1311444e-05
8.5385741e-05
8.6837073e-05
8.5142395e-05
7.98303e-05
7.0489187e-05
5.68553e-05
3.909866e-05
1.666133e-05
5.109753e-05
5.2265067e-05
5.6076791e-05
6.2346078e-05
6.9737632e-05
7.6884423e-05
8.2751521e-05
8.6583227e-05
8.7786347e-05
8.5852013e-05
8.0320178e-05
7.0789721e-05
5.7007038e-05
3.915065e-05
1.6667168e-05
5.2830862e-05
5.4055239e-05
5.7958701e-05
6.4251055e-05
7.1555572e-05
7.8528849e-05
8.4173723e-05
8.7761836e-05
8.8718295e-05
8.6547222e-05
8.0799208e-05
7.1083099e-05
5.7154967e-05
3.9201366e-05
1.6673013e-05
5.4671468e-05
5.5940602e-05
5.9901875e-05
6.6180513e-05
7.3372582e-05
8.0159739e-05
8.5577468e-05
8.8921383e-05
8.9632928e-05
8.7228109e-05
8.1267496e-05
7.1369404e-05
5.7299129e-05
3.9250815e-05
1.6678863e-05
5.6614304e-05
5.791461e-05
6.1899638e-05
6.8129515e-05
7.5186081e-05
8.1775827e-05
8.6962195e-05
9.0061676e-05
9.0530236e-05
8.7894748e-05
8.1725131e-05
7.1648704e-05
5.7439562e-05
3.9299005e-05
1.6684714e-05
5.8652511e-05
5.9969581e-05
6.3945101e-05
7.0093253e-05
7.6993688e-05
8.3375908e-05
8.8327352e-05
9.1182512e-05
9.1410195e-05
8.8547192e-05
8.2172187e-05
7.1921062e-05
5.7576296e-05
3.9345938e-05
1.6690563e-05
6.0777595e-05
6.2096777e-05
6.6031104e-05
7.2067553e-05
7.879314e-05
8.4958829e-05
8.9672395e-05
9.2283675e-05
9.2272758e-05
8.9185475e-05
8.2608722e-05
7.2186524e-05
5.7709355e-05
3.9391618e-05
1.6696407e-05
6.2979632e-05
6.4286773e-05
6.8150797e-05
7.4048395e-05
8.0582281e-05
8.6523479e-05
9.0996782e-05
9.3364933e-05
9.3117862e-05
8.9809612e-05
8.3034779e-05
7.2445131e-05
5.7838757e-05
3.9436042e-05
1.6702243e-05
6.5247737e-05
6.6529751e-05
7.0297382e-05
7.6031898e-05
8.2359045e-05
8.8068783e-05
9.2299973e-05
9.442604e-05
9.3945421e-05
9.04196e-05
8.3450384e-05
7.2696907e-05
5.7964515e-05
3.9479209e-05
1.6708068e-05
6.757045e-05
6.8815681e-05
7.2464151e-05
7.8014313e-05
8.4121449e-05
8.9593692e-05
9.3581424e-05
9.5466732e-05
9.4755327e-05
9.1015416e-05
8.3855551e-05
7.2941871e-05
5.8086635e-05
3.9521113e-05
1.6713878e-05
6.9936086e-05
7.1134522e-05
7.4644523e-05
7.9992011e-05
8.5867576e-05
9.1097187e-05
9.4840586e-05
9.6486726e-05
9.5547454e-05
9.1597016e-05
8.4250274e-05
7.3180027e-05
5.8205116e-05
3.9561748e-05
1.6719669e-05
7.2333049e-05
7.3476406e-05
7.6832081e-05
8.1961472e-05
8.7595572e-05
9.2578264e-05
9.6076908e-05
9.7485726e-05
9.6321652e-05
9.2164337e-05
8.4634535e-05
7.3411371e-05
5.8319952e-05
3.9601103e-05
1.6725439e-05
7.4750098e-05
7.583179e-05
7.9020611e-05
8.3919285e-05
8.9303638e-05
9.4035942e-05
9.7289832e-05
9.8463415e-05
9.7077752e-05
9.2717298e-05
8.5008297e-05
7.3635886e-05
5.8431133e-05
3.9639168e-05
1.6731184e-05
7.717655e-05
7.8191591e-05
8.1204138e-05
8.5862148e-05
9.0990024e-05
9.5469256e-05
9.8478799e-05
9.9419464e-05
9.7815566e-05
9.3255798e-05
8.5371511e-05
7.3853546e-05
5.8538638e-05
3.9675929e-05
1.6736899e-05
7.960243e-05
8.0547277e-05
8.3376968e-05
8.778687e-05
9.2653029e-05
9.687726e-05
9.9643248e-05
0.00010035353
9.8534889e-05
9.3779719e-05
8.5724111e-05
7.4064313e-05
5.8642445e-05
3.9711369e-05
1.6742581e-05
8.2018573e-05
8.2890946e-05
8.5533713e-05
8.9690384e-05
9.4291001e-05
9.8259028e-05
0.00010078262
0.00010126526
9.9235498e-05
9.4288926e-05
8.6066018e-05
7.4268141e-05
5.8742524e-05
3.974547e-05
1.6748227e-05
8.4416675e-05
8.5215367e-05
8.7669328e-05
9.1569751e-05
9.5902343e-05
9.9613657e-05
0.00010189637
0.0001021543
9.991716e-05
9.4783269e-05
8.6397139e-05
7.4464972e-05
5.8838838e-05
3.9778213e-05
1.6753831e-05
8.6789312e-05
8.7514006e-05
8.9779131e-05
9.3422177e-05
9.7485512e-05
0.00010094027
0.00010298394
0.00010302029
0.00010057963
9.5262586e-05
8.6717368e-05
7.465474e-05
5.8931347e-05
3.9809573e-05
1.675939e-05
8.9129928e-05
8.9781021e-05
9.1858818e-05
9.5245023e-05
9.903903e-05
0.00010223801
0.0001040448
0.00010386286
0.00010122266
9.5726704e-05
8.7026591e-05
7.4837369e-05
5.9020003e-05
3.9839527e-05
1.67649e-05
9.1432804e-05
9.2011256e-05
9.3904477e-05
9.703582e-05
0.00010056149
0.00010350608
0.00010507845
0.00010468167
0.00010184599
9.6175443e-05
8.7324682e-05
7.5012776e-05
5.9104756e-05
3.9868049e-05
1.6770354e-05
9.3693008e-05
9.4200211e-05
9.5912588e-05
9.8792275e-05
0.00010205156
0.0001047437
0.00010608439
0.00010547636
0.00010244938
9.6608618e-05
8.761151e-05
7.5180873e-05
5.9185549e-05
3.9895108e-05
1.677575e-05
9.5906344e-05
9.6344006e-05
9.7880024e-05
0.00010051229
0.00010350799
0.00010595015
0.00010706217
0.00010624662
0.00010303257
9.7026044e-05
8.7886939e-05
7.5341566e-05
5.9262324e-05
3.9920677e-05
1.678108e-05
9.8069286e-05
9.8439343e-05
9.9804038e-05
0.00010219394
0.00010492964
0.00010712475
0.00010801136
0.00010699214
0.00010359533
9.7427538e-05
8.8150834e-05
7.5494758e-05
5.933502e-05
3.9944725e-05
1.6786341e-05
0.00010017892
0.00010048346
0.00010168225
0.00010383554
0.00010631545
0.00010826688
0.00010893156
0.00010771265
0.00010413745
9.7812925e-05
8.8403057e-05
7.564035e-05
5.9403573e-05
3.9967219e-05
1.6791527e-05
0.00010223288
0.00010247409
0.00010351265
0.00010543556
0.00010766447
0.00010937599
0.00010982243
0.00010840789
0.00010465872
9.8182042e-05
8.8643479e-05
7.5778248e-05
5.9467921e-05
3.998813e-05
1.6796633e-05
0.00010422929
0.0001044094
0.00010529353
0.00010699271
0.00010897586
0.00011045159
0.00011068369
0.00010907765
0.00010515898
9.853474e-05
8.8871977e-05
7.5908357e-05
5.9528003e-05
4.0007427e-05
1.6801652e-05
0.00010616673
0.00010628797
0.00010702353
0.00010850586
0.00011024891
0.00011149327
0.00011151507
0.00010972176
0.00010563807
9.887089e-05
8.908844e-05
7.6030591e-05
5.958376e-05
4.002508e-05
1.6806578e-05
0.00010804414
0.00010810875
0.00010870156
0.00010997411
0.00011148299
0.00011250067
0.00011231638
0.00011034008
0.00010609589
9.9190386e-05
8.9292773e-05
7.6144871e-05
5.9635139e-05
4.0041063e-05
1.6811407e-05
0.00010986082
0.00010987099
0.0001103268
0.00011139672
0.00011267761
0.00011347353
0.0001130875
0.00011093255
0.00010653235
9.9493149e-05
8.9484896e-05
7.6251131e-05
5.9682092e-05
4.0055351e-05
1.6816132e-05
0.00011161638
0.00011157425
0.0001118987
0.00011277314
0.00011383239
0.00011441165
0.00011382834
0.00011149911
0.00010694743
9.977913e-05
8.9664754e-05
7.6349316e-05
5.9724578e-05
4.0067922e-05
1.6820747e-05
0.00011331069
0.00011321835
0.0001134169
0.00011410298
0.00011494707
0.00011531492
0.00011453888
0.00011203978
0.00010734112
0.00010004831
8.9832311e-05
7.6439389e-05
5.9762566e-05
4.0078761e-05
1.6825247e-05
0.00011494383
0.0001148033
0.00011488128
0.00011538603
0.00011602149
0.0001161833
0.00011521917
0.00011255463
0.00010771348
0.00010030071
8.9987561e-05
7.6521327e-05
5.9796036e-05
4.0087855e-05
1.6829626e-05
0.00011651613
0.00011632936
0.00011629188
0.00011662222
0.0001170556
0.00011701684
0.00011586931
0.00011304377
0.00010806459
0.00010053638
9.0130523e-05
7.659513e-05
5.9824979e-05
4.0095197e-05
1.683388e-05
0.00011802805
0.00011779691
0.00011764893
0.00011781161
0.00011804946
0.00011781564
0.00011648945
0.00011350736
0.00010839459
0.0001007554
9.0261244e-05
7.6660815e-05
5.9849397e-05
4.0100786e-05
1.6838002e-05
0.00011948023
0.00011920654
0.0001189528
0.0001189544
0.00011900322
0.0001185799
0.00011707983
0.00011394562
0.00010870365
0.00010095792
9.0379802e-05
7.6718424e-05
5.9869309e-05
4.0104626e-05
1.6841989e-05
0.00012087344
0.00012055893
0.00012020397
0.0001200509
0.00011991713
0.00011930986
0.00011764071
0.00011435882
0.000108992
0.00010114409
9.0486306e-05
7.6768018e-05
5.9884744e-05
4.010673e-05
1.6845835e-05
0.00012220857
0.0001218549
0.00012140308
0.00012110153
0.00012079151
0.00012000586
0.00011817242
0.00011474726
0.0001092599
0.00010131411
9.0580892e-05
7.6809681e-05
5.9895747e-05
4.0107115e-05
1.6849538e-05
0.00012348658
0.00012309535
0.00012255084
0.00012210683
0.00012162677
0.00012066826
0.00011867534
0.00011511129
0.00010950766
0.00010146822
9.0663727e-05
7.6843519e-05
5.9902378e-05
4.0105805e-05
1.6853094e-05
0.00012470855
0.00012428128
0.00012364807
0.00012306738
0.00012242341
0.00012129753
0.00011914989
0.00011545131
0.0001097356
0.00010160668
9.0735005e-05
7.686966e-05
5.9904709e-05
4.0102831e-05
1.68565e-05
0.00012587559
0.00012541375
0.00012469565
0.00012398388
0.00012318197
0.00012189414
0.00011959654
0.00011576775
0.00010994411
0.00010172979
9.0794947e-05
7.6888252e-05
5.9902827e-05
4.0098231e-05
1.6859754e-05
0.00012698888
0.00012649387
0.00012569454
0.00012485707
0.00012390305
0.00012245865
0.0001200158
0.00011606107
0.00011013359
0.0001018379
9.0843801e-05
7.6899464e-05
5.9896832e-05
4.0092047e-05
1.6862853e-05
0.00012804966
0.00012752283
0.00012664574
0.00012568776
0.00012458732
0.00012299163
0.0001204082
0.00011633178
0.00011030448
0.00010193134
9.0881836e-05
7.6903482e-05
5.9886835e-05
4.0084328e-05
1.6865796e-05
0.00012905918
0.00012850182
0.0001275503
0.0001264768
0.00012523549
0.0001234937
0.00012077433
0.00011658039
0.00011045722
0.0001020105
9.0909344e-05
7.6900509e-05
5.987296e-05
4.0075128e-05
1.6868584e-05
0.00013001872
0.00012943208
0.00012840931
0.00012722511
0.00012584829
0.00012396553
0.00012111477
0.00011680746
0.00011059232
0.00010207578
9.0926634e-05
7.6890764e-05
5.9855339e-05
4.0064505e-05
1.6871214e-05
0.00013092959
0.00013031485
0.00012922389
0.0001279336
0.00012642652
0.0001244078
0.00012143017
0.00011701355
0.00011071026
0.0001021276
9.0934035e-05
7.6874481e-05
5.9834117e-05
4.0052522e-05
1.6873688e-05
0.0001317931
0.00013115141
0.00012999517
0.00012860324
0.00012697098
0.00012482122
0.00012172116
0.00011719925
0.00011081158
0.0001021664
9.0931888e-05
7.6851904e-05
5.9809442e-05
4.0039245e-05
1.6876006e-05
0.00013261056
0.00013194303
0.00013072432
0.00012923501
0.0001274825
0.00012520652
0.0001219884
0.00011736517
0.00011089679