/*--------------------------------*- C++ -*----------------------------------*\
| =========                 |                                                 |
| \\      /  F ield         | OpenFOAM: The Open Source CFD Toolbox           |
|  \\    /   O peration     | Version:  2506                                  |
|   \\  /    A nd           | Website:  www.openfoam.com                      |
|    \\/     M anipulation  |                                                 |
\*---------------------------------------------------------------------------*/
FoamFile
{
    version     2.0;
    format      ascii;
    arch        "LSB;label=32;scalar=64";
    class       volScalarField;
    location    "21000/water";
    object      T;
}
// * * * * * * * * * * * * * * * * * * * * * * * * * * * * * * * * * * * * * //

dimensions      [0 0 0 1 0 0 0];

internalField   nonuniform List<scalar> 
6000
(
333.15
333.15
333.15
333.15
333.15
333.15
333.15
333.15
333.15
333.15
333.15
333.14998
333.14989
333.14924
333.14256
333.15
333.15
333.15
333.15
333.15
333.15
333.15
333.15
333.15
333.15
333.14999
333.14994
333.14968
333.14816
333.13667
333.15
333.15
333.15
333.15
333.15
333.15
333.15
333.15
333.15
333.14999
333.14997
333.14987
333.14939
333.14689
333.13172
333.15
333.15
333.15
333.15
333.15
333.15
333.15
333.15
333.15
333.14999
333.14994
333.14976
333.14903
333.14547
333.1274
333.15
333.15
333.15
333.15
333.15
333.15
333.15
333.15
333.14999
333.14997
333.1499
333.14963
333.1486
333.14396
333.12352
333.15
333.15
333.15
333.15
333.15
333.15
333.15
333.15
333.14999
333.14996
333.14985
333.14947
333.14812
333.14237
333.11999
333.15
333.15
333.15
333.15
333.15
333.15
333.15
333.14999
333.14998
333.14994
333.14978
333.14929
333.1476
333.14073
333.11674
333.15
333.15
333.15
333.15
333.15
333.15
333.15
333.14999
333.14997
333.14991
333.1497
333.14909
333.14703
333.13906
333.11374
333.15
333.15
333.15
333.15
333.15
333.15
333.15
333.14999
333.14996
333.14987
333.14961
333.14886
333.14643
333.13737
333.11093
333.15
333.15
333.15
333.15
333.15
333.15
333.14999
333.14998
333.14994
333.14983
333.14951
333.14862
333.14578
333.13567
333.10832
333.15
333.15
333.15
333.15
333.15
333.15
333.14999
333.14998
333.14993
333.14978
333.1494
333.14836
333.1451
333.13397
333.10587
333.15
333.15
333.15
333.15
333.15
333.15
333.14999
333.14997
333.1499
333.14973
333.14928
333.14807
333.14437
333.13227
333.10359
333.15
333.15
333.15
333.15
333.15
333.14999
333.14998
333.14996
333.14988
333.14967
333.14915
333.14777
333.14361
333.1306
333.10145
333.15
333.15
333.15
333.15
333.15
333.14999
333.14998
333.14994
333.14985
333.14961
333.14901
333.14745
333.1428
333.12894
333.09946
333.15
333.15
333.15
333.15
333.15
333.14999
333.14997
333.14993
333.14982
333.14954
333.14886
333.1471
333.14196
333.12731
333.09761
333.15
333.15
333.15
333.15
333.15
333.14999
333.14997
333.14991
333.14978
333.14946
333.1487
333.14673
333.14107
333.12572
333.09589
333.15
333.15
333.15
333.15
333.14999
333.14998
333.14996
333.1499
333.14974
333.14938
333.14852
333.14634
333.14013
333.12417
333.09431
333.15
333.15
333.15
333.15
333.14999
333.14998
333.14995
333.14988
333.1497
333.14929
333.14834
333.14591
333.13916
333.12267
333.09286
333.15
333.15
333.15
333.15
333.14999
333.14998
333.14994
333.14985
333.14965
333.1492
333.14814
333.14546
333.13814
333.12121
333.09153
333.15
333.15
333.15
333.14999
333.14999
333.14997
333.14993
333.14983
333.1496
333.1491
333.14793
333.14497
333.1371
333.11982
333.09032
333.15
333.15
333.15
333.14999
333.14999
333.14997
333.14992
333.1498
333.14955
333.14899
333.1477
333.14444
333.13602
333.11848
333.08922
333.15
333.15
333.15
333.14999
333.14998
333.14996
333.1499
333.14977
333.14949
333.14887
333.14745
333.14388
333.13491
333.11721
333.08823
333.15
333.15
333.15
333.14999
333.14998
333.14995
333.14989
333.14974
333.14943
333.14875
333.14719
333.14328
333.1338
333.116
333.08734
333.15
333.15
333.14999
333.14999
333.14998
333.14994
333.14987
333.14971
333.14936
333.14861
333.1469
333.14263
333.13267
333.11485
333.08653
333.15
333.15
333.14999
333.14999
333.14997
333.14993
333.14985
333.14967
333.14929
333.14847
333.14659
333.14195
333.13154
333.11377
333.0858
333.15
333.15
333.14999
333.14998
333.14997
333.14992
333.14983
333.14963
333.14921
333.14831
333.14625
333.14123
333.13043
333.11275
333.08515
333.15
333.15
333.14999
333.14998
333.14996
333.14991
333.14981
333.14959
333.14913
333.14815
333.14589
333.14047
333.12933
333.11179
333.08455
333.15
333.14999
333.14999
333.14998
333.14996
333.1499
333.14979
333.14954
333.14904
333.14797
333.14549
333.13968
333.12826
333.11088
333.08402
333.15
333.14999
333.14999
333.14998
333.14995
333.14989
333.14976
333.14949
333.14895
333.14777
333.14507
333.13886
333.12721
333.11003
333.08354
333.14999
333.14999
333.14999
333.14997
333.14994
333.14987
333.14973
333.14944
333.14884
333.14756
333.14461
333.13801
333.1262
333.10923
333.0831
333.14999
333.14999
333.14998
333.14997
333.14993
333.14986
333.1497
333.14939
333.14873
333.14733
333.14412
333.13716
333.12523
333.10847
333.0827
333.14999
333.14999
333.14998
333.14996
333.14992
333.14984
333.14967
333.14932
333.14862
333.14708
333.14359
333.13629
333.12429
333.10776
333.08234
333.14999
333.14999
333.14998
333.14996
333.14991
333.14982
333.14964
333.14926
333.14849
333.14681
333.14304
333.13542
333.1234
333.10709
333.082
333.14999
333.14999
333.14998
333.14995
333.1499
333.1498
333.1496
333.14919
333.14835
333.14652
333.14245
333.13456
333.12254
333.10646
333.0817
333.14999
333.14998
333.14997
333.14995
333.14989
333.14978
333.14956
333.14911
333.1482
333.1462
333.14184
333.1337
333.12172
333.10586
333.08142
333.14999
333.14998
333.14997
333.14994
333.14988
333.14976
333.14952
333.14903
333.14803
333.14586
333.1412
333.13286
333.12093
333.10529
333.08116
333.14999
333.14998
333.14997
333.14993
333.14987
333.14974
333.14947
333.14895
333.14786
333.14549
333.14054
333.13203
333.12018
333.10476
333.08092
333.14998
333.14998
333.14996
333.14993
333.14985
333.14971
333.14942
333.14885
333.14766
333.1451
333.13987
333.13122
333.11946
333.10425
333.0807
333.14998
333.14998
333.14996
333.14992
333.14984
333.14968
333.14937
333.14875
333.14745
333.14467
333.13918
333.13043
333.11877
333.10376
333.0805
333.14998
333.14997
333.14995
333.14991
333.14982
333.14965
333.14931
333.14864
333.14723
333.14423
333.13849
333.12966
333.11812
333.1033
333.0803
333.14998
333.14997
333.14995
333.1499
333.1498
333.14962
333.14925
333.14852
333.14698
333.14376
333.13779
333.12892
333.11749
333.10287
333.08013
333.14997
333.14996
333.14994
333.14989
333.14978
333.14958
333.14918
333.14839
333.14672
333.14326
333.1371
333.1282
333.11688
333.10245
333.07996
333.14997
333.14996
333.14993
333.14988
333.14976
333.14954
333.14911
333.14824
333.14643
333.14275
333.1364
333.1275
333.11631
333.10205
333.07981
333.14997
333.14996
333.14993
333.14986
333.14974
333.1495
333.14903
333.14809
333.14612
333.14222
333.13572
333.12682
333.11575
333.10168
333.07966
333.14996
333.14995
333.14992
333.14985
333.14972
333.14946
333.14895
333.14792
333.14579
333.14167
333.13504
333.12617
333.11522
333.10131
333.07953
333.14996
333.14995
333.14991
333.14984
333.14969
333.14941
333.14886
333.14774
333.14544
333.14111
333.13437
333.12553
333.11471
333.10097
333.0794
333.14995
333.14994
333.1499
333.14982
333.14966
333.14936
333.14876
333.14754
333.14507
333.14054
333.13371
333.12492
333.11422
333.10064
333.07929
333.14995
333.14993
333.14989
333.1498
333.14963
333.1493
333.14865
333.14733
333.14468
333.13997
333.13307
333.12433
333.11375
333.10032
333.07918
333.14994
333.14993
333.14988
333.14979
333.1496
333.14924
333.14853
333.1471
333.14427
333.13939
333.13244
333.12376
333.11329
333.10001
333.07907
333.14994
333.14992
333.14987
333.14977
333.14957
333.14918
333.14841
333.14686
333.14384
333.1388
333.13182
333.1232
333.11285
333.09972
333.07898
333.14993
333.14991
333.14986
333.14974
333.14953
333.14911
333.14827
333.14659
333.1434
333.13822
333.13122
333.12267
333.11243
333.09944
333.07889
333.14993
333.1499
333.14984
333.14972
333.14949
333.14903
333.14812
333.14631
333.14294
333.13765
333.13063
333.12215
333.11202
333.09917
333.0788
333.14992
333.14989
333.14983
333.1497
333.14944
333.14894
333.14796
333.14601
333.14247
333.13707
333.13006
333.12165
333.11163
333.09891
333.07873
333.14991
333.14988
333.14981
333.14967
333.14939
333.14885
333.14779
333.14569
333.14199
333.1365
333.1295
333.12116
333.11125
333.09866
333.07865
333.1499
333.14987
333.1498
333.14964
333.14934
333.14876
333.1476
333.14536
333.1415
333.13594
333.12895
333.12069
333.11088
333.09842
333.07858
333.14989
333.14986
333.14978
333.14961
333.14928
333.14865
333.1474
333.14501
333.14101
333.13538
333.12842
333.12023
333.11053
333.09819
333.07852
333.14988
333.14985
333.14976
333.14958
333.14922
333.14853
333.14718
333.14464
333.14051
333.13484
333.1279
333.11978
333.11019
333.09797
333.07846
333.14987
333.14983
333.14974
333.14954
333.14916
333.14841
333.14695
333.14426
333.14001
333.1343
333.12739
333.11935
333.10985
333.09775
333.0784
333.14986
333.14982
333.14971
333.1495
333.14908
333.14827
333.1467
333.14387
333.1395
333.13377
333.1269
333.11893
333.10953
333.09754
333.07835
333.14985
333.1498
333.14969
333.14946
333.149
333.14812
333.14643
333.14346
333.139
333.13325
333.12642
333.11853
333.10922
333.09734
333.0783
333.14983
333.14978
333.14966
333.14941
333.14892
333.14797
333.14615
333.14304
333.1385
333.13273
333.12595
333.11813
333.10892
333.09715
333.07826
333.14982
333.14976
333.14963
333.14936
333.14883
333.14779
333.14586
333.14262
333.138
333.13223
333.12549
333.11775
333.10862
333.09696
333.07822
333.1498
333.14974
333.1496
333.1493
333.14872
333.14761
333.14555
333.14219
333.13751
333.13174
333.12505
333.11737
333.10834
333.09677
333.07818
333.14978
333.14972
333.14956
333.14924
333.14861
333.14741
333.14523
333.14175
333.13702
333.13126
333.12461
333.11701
333.10806
333.0966
333.07814
333.14976
333.1497
333.14952
333.14918
333.1485
333.1472
333.14489
333.1413
333.13653
333.13078
333.12419
333.11666
333.10779
333.09643
333.07811
333.14974
333.14967
333.14948
333.1491
333.14837
333.14697
333.14454
333.14086
333.13605
333.13032
333.12377
333.11631
333.10753
333.09626
333.07808
333.14972
333.14964
333.14944
333.14903
333.14823
333.14673
333.14418
333.14041
333.13557
333.12986
333.12337
333.11598
333.10727
333.0961
333.07805
333.14969
333.14961
333.14939
333.14894
333.14808
333.14648
333.14381
333.13996
333.1351
333.12941
333.12297
333.11565
333.10702
333.09594
333.07802
333.14967
333.14957
333.14933
333.14885
333.14792
333.14621
333.14343
333.13951
333.13464
333.12898
333.12258
333.11533
333.10678
333.09579
333.078
333.14964
333.14954
333.14928
333.14875
333.14774
333.14593
333.14304
333.13906
333.13418
333.12855
333.12221
333.11502
333.10654
333.09564
333.07797
333.14961
333.1495
333.14921
333.14864
333.14756
333.14564
333.14265
333.13862
333.13373
333.12813
333.12184
333.11471
333.10631
333.0955
333.07795
333.14957
333.14945
333.14914
333.14852
333.14736
333.14533
333.14225
333.13817
333.13328
333.12771
333.12148
333.11441
333.10609
333.09536
333.07793
333.14953
333.1494
333.14907
333.1484
333.14714
333.14501
333.14184
333.13773
333.13284
333.12731
333.12112
333.11412
333.10587
333.09522
333.07792
333.14949
333.14935
333.14899
333.14826
333.14692
333.14468
333.14143
333.13729
333.13241
333.12691
333.12078
333.11384
333.10565
333.09509
333.0779
333.14944
333.14929
333.1489
333.14811
333.14668
333.14434
333.14102
333.13685
333.13199
333.12652
333.12044
333.11356
333.10545
333.09496
333.07788
333.14939
333.14923
333.1488
333.14795
333.14643
333.14399
333.14061
333.13642
333.13157
333.12614
333.12011
333.11329
333.10524
333.09484
333.07787
333.14934
333.14916
333.14869
333.14778
333.14616
333.14364
333.1402
333.13599
333.13116
333.12577
333.11978
333.11302
333.10504
333.09472
333.07785
333.14928
333.14908
333.14858
333.14759
333.14588
333.14327
333.13978
333.13556
333.13075
333.1254
333.11946
333.11276
333.10485
333.0946
333.07784
333.14921
333.149
333.14845
333.1474
333.14559
333.1429
333.13937
333.13514
333.13035
333.12504
333.11915
333.11251
333.10466
333.09448
333.07783
333.14914
333.14891
333.14832
333.14719
333.14529
333.14252
333.13895
333.13473
333.12996
333.12468
333.11885
333.11226
333.10447
333.09436
333.07782
333.14906
333.14881
333.14817
333.14696
333.14498
333.14214
333.13854
333.13432
333.12957
333.12434
333.11855
333.11201
333.10429
333.09425
333.07781
333.14897
333.1487
333.14801
333.14673
333.14466
333.14176
333.13813
333.13391
333.12919
333.12399
333.11825
333.11177
333.10411
333.09414
333.0778
333.14888
333.14858
333.14784
333.14648
333.14433
333.14137
333.13772
333.13351
333.12881
333.12366
333.11796
333.11154
333.10393
333.09404
333.07779
333.14877
333.14845
333.14765
333.14621
333.14398
333.14098
333.13731
333.13311
333.12844
333.12333
333.11768
333.11131
333.10376
333.09393
333.07778
333.14866
333.14831
333.14746
333.14594
333.14364
333.14058
333.13691
333.13272
333.12808
333.123
333.1174
333.11108
333.10359
333.09383
333.07777
333.14853
333.14816
333.14724
333.14565
333.14328
333.14019
333.1365
333.13233
333.12772
333.12268
333.11713
333.11086
333.10342
333.09373
333.07776
333.14839
333.14799
333.14702
333.14535
333.14292
333.1398
333.1361
333.13194
333.12737
333.12237
333.11686
333.11064
333.10326
333.09363
333.07775
333.14824
333.14781
333.14678
333.14504
333.14255
333.1394
333.13571
333.13156
333.12702
333.12206
333.1166
333.11043
333.1031
333.09353
333.07774
333.14807
333.14761
333.14653
333.14472
333.14218
333.139
333.13531
333.13119
333.12668
333.12176
333.11634
333.11022
333.10294
333.09343
333.07773
333.14789
333.1474
333.14626
333.14438
333.1418
333.13861
333.13492
333.13082
333.12634
333.12146
333.11608
333.11001
333.10278
333.09334
333.07772
333.14769
333.14718
333.14597
333.14404
333.14142
333.13821
333.13453
333.13045
333.126
333.12116
333.11583
333.10981
333.10263
333.09324
333.07771
333.14748
333.14693
333.14568
333.14369
333.14104
333.13782
333.13415
333.13009
333.12568
333.12087
333.11559
333.1096
333.10248
333.09315
333.0777
333.14725
333.14668
333.14537
333.14333
333.14065
333.13742
333.13376
333.12973
333.12535
333.12059
333.11534
333.10941
333.10233
333.09306
333.07769
333.147
333.1464
333.14505
333.14297
333.14026
333.13703
333.13338
333.12938
333.12503
333.12031
333.1151
333.10921
333.10219
333.09297
333.07768
333.14673
333.14611
333.14471
333.1426
333.13987
333.13664
333.13301
333.12903
333.12472
333.12003
333.11487
333.10902
333.10204
333.09288
333.07767
333.14644
333.14579
333.14436
333.14222
333.13947
333.13625
333.13264
333.12869
333.12441
333.11976
333.11464
333.10883
333.1019
333.09279
333.07766
333.14613
333.14547
333.144
333.14183
333.13908
333.13586
333.13227
333.12835
333.1241
333.11949
333.11441
333.10864
333.10176
333.0927
333.07765
333.14581
333.14512
333.14363
333.14144
333.13868
333.13547
333.1319
333.12801
333.1238
333.11922
333.11418
333.10846
333.10162
333.09262
333.07764
333.14546
333.14476
333.14325
333.14104
333.13828
333.13509
333.13154
333.12767
333.1235
333.11896
333.11396
333.10828
333.10148
333.09253
333.07763
333.1451
333.14439
333.14286
333.14064
333.13788
333.1347
333.13118
333.12734
333.1232
333.1187
333.11373
333.1081
333.10135
333.09245
333.07762
333.14472
333.144
333.14245
333.14023
333.13748
333.13432
333.13082
333.12702
333.12291
333.11844
333.11352
333.10792
333.10121
333.09236
333.0776
333.14432
333.1436
333.14204
333.13982
333.13708
333.13394
333.13047
333.1267
333.12262
333.11819
333.1133
333.10774
333.10108
333.09228
333.07759
333.14391
333.14318
333.14163
333.13941
333.13668
333.13356
333.13012
333.12637
333.12233
333.11794
333.11309
333.10757
333.10095
333.09219
333.07757
333.14348
333.14275
333.1412
333.13899
333.13628
333.13319
333.12977
333.12606
333.12205
333.11769
333.11288
333.1074
333.10082
333.09211
333.07756
333.14304
333.14231
333.14077
333.13857
333.13588
333.13281
333.12942
333.12574
333.12177
333.11745
333.11267
333.10723
333.10069
333.09203
333.07754
333.14258
333.14186
333.14033
333.13815
333.13548
333.13244
333.12908
333.12543
333.12149
333.1172
333.11246
333.10706
333.10056
333.09195
333.07753
333.14212
333.1414
333.13988
333.13773
333.13508
333.13207
333.12874
333.12512
333.12122
333.11696
333.11226
333.10689
333.10043
333.09186
333.07751
333.14165
333.14094
333.13943
333.1373
333.13468
333.1317
333.1284
333.12482
333.12094
333.11673
333.11206
333.10672
333.1003
333.09178
333.07749
333.14116
333.14046
333.13898
333.13687
333.13428
333.13133
333.12806
333.12451
333.12067
333.11649
333.11186
333.10656
333.10018
333.0917
333.07747
333.14067
333.13998
333.13852
333.13644
333.13388
333.13096
333.12773
333.12421
333.12041
333.11626
333.11166
333.1064
333.10005
333.09162
333.07745
333.14018
333.1395
333.13806
333.13601
333.13348
333.13059
333.12739
333.12391
333.12014
333.11603
333.11146
333.10623
333.09993
333.09153
333.07743
333.13968
333.13901
333.1376
333.13558
333.13309
333.13023
333.12706
333.12362
333.11988
333.1158
333.11126
333.10607
333.0998
333.09145
333.0774
333.13918
333.13852
333.13713
333.13514
333.13269
333.12986
333.12673
333.12332
333.11962
333.11557
333.11107
333.10591
333.09968
333.09137
333.07738
333.13867
333.13803
333.13666
333.13471
333.13229
333.1295
333.1264
333.12303
333.11936
333.11534
333.11088
333.10575
333.09955
333.09129
333.07735
333.13816
333.13754
333.1362
333.13428
333.13189
333.12914
333.12608
333.12274
333.1191
333.11512
333.11068
333.10559
333.09943
333.0912
333.07733
333.13766
333.13704
333.13573
333.13384
333.13149
333.12878
333.12575
333.12245
333.11884
333.11489
333.11049
333.10544
333.09931
333.09112
333.0773
333.13715
333.13655
333.13526
333.13341
333.1311
333.12842
333.12543
333.12216
333.11859
333.11467
333.1103
333.10528
333.09918
333.09103
333.07727
333.13664
333.13605
333.13479
333.13298
333.1307
333.12806
333.12511
333.12187
333.11833
333.11445
333.11011
333.10512
333.09906
333.09095
333.07724
333.13614
333.13556
333.13433
333.13255
333.13031
333.12771
333.12479
333.12158
333.11808
333.11423
333.10992
333.10497
333.09894
333.09087
333.07721
333.13563
333.13507
333.13387
333.13212
333.12992
333.12735
333.12447
333.1213
333.11783
333.11401
333.10974
333.10481
333.09881
333.09078
333.07717
333.13513
333.13458
333.1334
333.13169
333.12953
333.127
333.12415
333.12102
333.11758
333.11379
333.10955
333.10465
333.09869
333.09069
333.07714
333.13464
333.1341
333.13294
333.13126
333.12914
333.12665
333.12384
333.12074
333.11733
333.11357
333.10936
333.1045
333.09857
333.09061
333.0771
333.13414
333.13362
333.13249
333.13084
333.12875
333.12629
333.12352
333.12045
333.11708
333.11336
333.10918
333.10434
333.09844
333.09052
333.07706
333.13365
333.13314
333.13203
333.13042
333.12836
333.12595
333.12321
333.12017
333.11683
333.11314
333.10899
333.10419
333.09832
333.09043
333.07702
333.13316
333.13266
333.13158
333.13
333.12798
333.1256
333.1229
333.1199
333.11659
333.11293
333.10881
333.10403
333.0982
333.09034
333.07698
333.13268
333.13219
333.13113
333.12958
333.1276
333.12525
333.12259
333.11962
333.11634
333.11271
333.10862
333.10388
333.09807
333.09025
333.07694
333.1322
333.13172
333.13069
333.12916
333.12722
333.12491
333.12228
333.11934
333.1161
333.1125
333.10844
333.10372
333.09795
333.09016
333.07689
333.13173
333.13126
333.13025
333.12875
333.12684
333.12457
333.12197
333.11907
333.11586
333.11228
333.10825
333.10356
333.09782
333.09006
333.07684
333.13126
333.1308
333.12981
333.12834
333.12647
333.12422
333.12166
333.11879
333.11561
333.11207
333.10807
333.10341
333.09769
333.08997
333.07679
333.13079
333.13035
333.12937
333.12794
333.12609
333.12389
333.12136
333.11852
333.11537
333.11186
333.10788
333.10325
333.09757
333.08987
333.07674
333.13033
333.1299
333.12894
333.12754
333.12572
333.12355
333.12105
333.11825
333.11513
333.11165
333.1077
333.1031
333.09744
333.08978
333.07669
333.12988
333.12945
333.12852
333.12714
333.12536
333.12321
333.12075
333.11798
333.11489
333.11143
333.10752
333.10294
333.09731
333.08968
333.07663
333.12943
333.12901
333.1281
333.12674
333.12499
333.12288
333.12045
333.11771
333.11465
333.11122
333.10733
333.10278
333.09718
333.08958
333.07658
333.12899
333.12858
333.12768
333.12635
333.12463
333.12255
333.12015
333.11744
333.11441
333.11101
333.10715
333.10262
333.09705
333.08948
333.07652
333.12855
333.12815
333.12727
333.12596
333.12427
333.12222
333.11985
333.11717
333.11417
333.1108
333.10696
333.10247
333.09692
333.08938
333.07645
333.12811
333.12772
333.12686
333.12558
333.12391
333.12189
333.11955
333.1169
333.11393
333.11059
333.10678
333.10231
333.09678
333.08927
333.07639
333.12769
333.1273
333.12646
333.1252
333.12356
333.12157
333.11926
333.11664
333.11369
333.11038
333.10659
333.10215
333.09665
333.08917
333.07632
333.12726
333.12688
333.12606
333.12482
333.12321
333.12125
333.11897
333.11637
333.11346
333.11017
333.10641
333.10199
333.09652
333.08906
333.07625
333.12684
333.12647
333.12566
333.12445
333.12286
333.12093
333.11868
333.11611
333.11322
333.10996
333.10622
333.10183
333.09638
333.08895
333.07618
333.12643
333.12607
333.12527
333.12408
333.12251
333.12061
333.11839
333.11585
333.11298
333.10975
333.10604
333.10167
333.09624
333.08884
333.07611
333.12602
333.12567
333.12488
333.12371
333.12217
333.12029
333.1181
333.11559
333.11275
333.10954
333.10585
333.1015
333.09611
333.08873
333.07603
333.12562
333.12527
333.1245
333.12335
333.12183
333.11998
333.11781
333.11533
333.11251
333.10933
333.10566
333.10134
333.09597
333.08862
333.07596
333.12522
333.12488
333.12412
333.12299
333.1215
333.11967
333.11753
333.11507
333.11228
333.10912
333.10548
333.10118
333.09583
333.0885
333.07588
333.12483
333.12449
333.12375
333.12263
333.12116
333.11936
333.11724
333.11481
333.11205
333.10891
333.10529
333.10101
333.09569
333.08839
333.07579
333.12444
333.12411
333.12338
333.12228
333.12083
333.11906
333.11696
333.11455
333.11181
333.1087
333.10511
333.10085
333.09554
333.08827
333.07571
333.12406
333.12373
333.12301
333.12193
333.12051
333.11875
333.11668
333.1143
333.11158
333.10849
333.10492
333.10068
333.0954
333.08815
333.07562
333.12368
333.12336
333.12265
333.12159
333.12018
333.11845
333.1164
333.11404
333.11135
333.10828
333.10473
333.10052
333.09526
333.08803
333.07553
333.12331
333.12299
333.1223
333.12125
333.11986
333.11815
333.11613
333.11379
333.11112
333.10807
333.10454
333.10035
333.09511
333.08791
333.07544
333.12294
333.12263
333.12194
333.12091
333.11954
333.11785
333.11585
333.11354
333.11089
333.10786
333.10436
333.10018
333.09496
333.08778
333.07535
333.12257
333.12227
333.12159
333.12058
333.11923
333.11756
333.11558
333.11328
333.11066
333.10765
333.10417
333.10002
333.09482
333.08766
333.07525
333.12221
333.12191
333.12125
333.12025
333.11891
333.11726
333.11531
333.11303
333.11043
333.10744
333.10398
333.09985
333.09467
333.08753
333.07515
333.12186
333.12156
333.12091
333.11992
333.1186
333.11697
333.11504
333.11279
333.1102
333.10724
333.10379
333.09968
333.09452
333.0874
333.07505
333.12151
333.12121
333.12057
333.11959
333.1183
333.11669
333.11477
333.11254
333.10997
333.10703
333.1036
333.09951
333.09437
333.08727
333.07495
333.12116
333.12087
333.12024
333.11927
333.11799
333.1164
333.1145
333.11229
333.10975
333.10682
333.10341
333.09934
333.09421
333.08714
333.07484
333.12082
333.12053
333.11991
333.11896
333.11769
333.11612
333.11424
333.11205
333.10952
333.10661
333.10322
333.09917
333.09406
333.087
333.07474
333.12048
333.1202
333.11958
333.11864
333.11739
333.11583
333.11397
333.1118
333.1093
333.10641
333.10303
333.09899
333.09391
333.08687
333.07463
333.12014
333.11987
333.11926
333.11833
333.1171
333.11555
333.11371
333.11156
333.10907
333.1062
333.10284
333.09882
333.09375
333.08673
333.07452
333.11981
333.11954
333.11894
333.11802
333.1168
333.11528
333.11345
333.11131
333.10885
333.10599
333.10265
333.09865
333.09359
333.08659
333.0744
333.11948
333.11922
333.11862
333.11772
333.11651
333.115
333.11319
333.11107
333.10862
333.10578
333.10246
333.09847
333.09344
333.08645
333.07429
333.11916
333.11889
333.11831
333.11742
333.11622
333.11473
333.11294
333.11083
333.1084
333.10558
333.10227
333.0983
333.09328
333.08631
333.07417
333.11884
333.11858
333.118
333.11712
333.11594
333.11446
333.11268
333.11059
333.10817
333.10537
333.10208
333.09812
333.09312
333.08617
333.07405
333.11852
333.11826
333.11769
333.11682
333.11565
333.11419
333.11243
333.11036
333.10795
333.10516
333.10189
333.09795
333.09296
333.08603
333.07393
333.11821
333.11795
333.11739
333.11653
333.11537
333.11392
333.11217
333.11012
333.10773
333.10496
333.1017
333.09777
333.0928
333.08588
333.07381
333.1179
333.11765
333.11709
333.11624
333.11509
333.11365
333.11192
333.10988
333.10751
333.10475
333.10151
333.09759
333.09263
333.08574
333.07369
333.1176
333.11734
333.11679
333.11595
333.11481
333.11339
333.11167
333.10965
333.10729
333.10455
333.10132
333.09742
333.09247
333.08559
333.07356
333.11729
333.11704
333.1165
333.11566
333.11454
333.11313
333.11142
333.10941
333.10707
333.10434
333.10112
333.09724
333.09231
333.08544
333.07343
333.11699
333.11675
333.11621
333.11538
333.11427
333.11287
333.11118
333.10918
333.10685
333.10413
333.10093
333.09706
333.09214
333.08529
333.07331
333.1167
333.11645
333.11592
333.1151
333.114
333.11261
333.11093
333.10895
333.10663
333.10393
333.10074
333.09688
333.09197
333.08514
333.07317
333.1164
333.11616
333.11563
333.11482
333.11373
333.11235
333.11069
333.10872
333.10641
333.10372
333.10055
333.0967
333.09181
333.08499
333.07304
333.11611
333.11587
333.11535
333.11454
333.11346
333.1121
333.11044
333.10849
333.10619
333.10352
333.10035
333.09652
333.09164
333.08483
333.07291
333.11582
333.11559
333.11507
333.11427
333.1132
333.11184
333.1102
333.10826
333.10598
333.10331
333.10016
333.09634
333.09147
333.08468
333.07277
333.11554
333.1153
333.11479
333.114
333.11294
333.11159
333.10996
333.10803
333.10576
333.10311
333.09997
333.09616
333.0913
333.08452
333.07264
333.11525
333.11502
333.11451
333.11373
333.11268
333.11134
333.10972
333.1078
333.10554
333.1029
333.09977
333.09598
333.09113
333.08437
333.0725
333.11497
333.11475
333.11424
333.11346
333.11242
333.11109
333.10948
333.10757
333.10533
333.1027
333.09958
333.09579
333.09096
333.08421
333.07236
333.1147
333.11447
333.11397
333.1132
333.11216
333.11085
333.10925
333.10735
333.10511
333.10249
333.09939
333.09561
333.09079
333.08405
333.07222
333.11442
333.1142
333.1137
333.11294
333.11191
333.1106
333.10901
333.10712
333.1049
333.10229
333.09919
333.09543
333.09062
333.08389
333.07208
333.11415
333.11393
333.11343
333.11268
333.11165
333.11036
333.10878
333.1069
333.10468
333.10209
333.099
333.09524
333.09045
333.08373
333.07193
333.11388
333.11366
333.11317
333.11242
333.1114
333.11011
333.10854
333.10667
333.10447
333.10188
333.09881
333.09506
333.09027
333.08357
333.07179
333.11361
333.11339
333.11291
333.11216
333.11115
333.10987
333.10831
333.10645
333.10426
333.10168
333.09861
333.09487
333.0901
333.08341
333.07164
333.11335
333.11313
333.11265
333.11191
333.1109
333.10963
333.10808
333.10623
333.10404
333.10147
333.09842
333.09469
333.08992
333.08324
333.07149
333.11308
333.11287
333.11239
333.11165
333.11066
333.10939
333.10785
333.106
333.10383
333.10127
333.09822
333.0945
333.08975
333.08308
333.07134
333.11282
333.11261
333.11213
333.1114
333.11041
333.10915
333.10762
333.10578
333.10362
333.10107
333.09803
333.09432
333.08957
333.08292
333.0712
333.11256
333.11235
333.11188
333.11115
333.11017
333.10892
333.10739
333.10556
333.10341
333.10086
333.09783
333.09413
333.0894
333.08275
333.07104
333.1123
333.11209
333.11162
333.1109
333.10993
333.10868
333.10716
333.10534
333.1032
333.10066
333.09764
333.09395
333.08922
333.08258
333.07089
333.11205
333.11184
333.11137
333.11066
333.10968
333.10845
333.10693
333.10512
333.10298
333.10046
333.09744
333.09376
333.08904
333.08242
333.07074
333.1118
333.11159
333.11112
333.11041
333.10945
333.10822
333.10671
333.10491
333.10277
333.10025
333.09725
333.09357
333.08886
333.08225
333.07059
333.11154
333.11134
333.11088
333.11017
333.10921
333.10798
333.10648
333.10469
333.10256
333.10005
333.09705
333.09339
333.08869
333.08208
333.07043
333.11129
333.11109
333.11063
333.10993
333.10897
333.10775
333.10626
333.10447
333.10235
333.09985
333.09686
333.0932
333.08851
333.08191
333.07028
333.11105
333.11084
333.11039
333.10969
333.10873
333.10752
333.10604
333.10425
333.10214
333.09965
333.09666
333.09301
333.08833
333.08174
333.07012
333.1108
333.1106
333.11014
333.10945
333.1085
333.10729
333.10581
333.10404
333.10193
333.09944
333.09647
333.09282
333.08815
333.08157
333.06996
333.11055
333.11035
333.1099
333.10921
333.10827
333.10707
333.10559
333.10382
333.10173
333.09924
333.09627
333.09264
333.08797
333.0814
333.0698
333.11031
333.11011
333.10966
333.10897
333.10804
333.10684
333.10537
333.10361
333.10152
333.09904
333.09608
333.09245
333.08779
333.08123
333.06964
333.11007
333.10987
333.10942
333.10874
333.1078
333.10661
333.10515
333.10339
333.10131
333.09884
333.09588
333.09226
333.08761
333.08106
333.06948
333.10983
333.10963
333.10919
333.1085
333.10757
333.10639
333.10493
333.10318
333.1011
333.09864
333.09569
333.09207
333.08742
333.08088
333.06932
333.10959
333.10939
333.10895
333.10827
333.10735
333.10616
333.10471
333.10297
333.10089
333.09843
333.09549
333.09188
333.08724
333.08071
333.06916
333.10935
333.10915
333.10872
333.10804
333.10712
333.10594
333.10449
333.10275
333.10069
333.09823
333.0953
333.09169
333.08706
333.08054
333.069
333.10912
333.10892
333.10848
333.10781
333.10689
333.10572
333.10428
333.10254
333.10048
333.09803
333.0951
333.0915
333.08688
333.08036
333.06884
333.10888
333.10869
333.10825
333.10758
333.10667
333.1055
333.10406
333.10233
333.10027
333.09783
333.09491
333.09132
333.0867
333.08019
333.06867
333.10865
333.10845
333.10802
333.10735
333.10644
333.10528
333.10384
333.10212
333.10007
333.09763
333.09471
333.09113
333.08651
333.08001