/*--------------------------------*- C++ -*----------------------------------*\
| =========                 |                                                 |
| \\      /  F ield         | OpenFOAM: The Open Source CFD Toolbox           |
|  \\    /   O peration     | Version:  2506                                  |
|   \\  /    A nd           | Website:  www.openfoam.com                      |
|    \\/     M anipulation  |                                                 |
\*---------------------------------------------------------------------------*/
FoamFile
{
    version     2.0;
    format      ascii;
    arch        "LSB;label=32;scalar=64";
    class       volVectorField;
    location    "21000/water";
    object      U;
}
// * * * * * * * * * * * * * * * * * * * * * * * * * * * * * * * * * * * * * //

dimensions      [0 1 -1 0 0 0 0];

internalField   nonuniform List<vector> 
6000
(
(0.25028648 -3.4193493e-05 2.7715008e-19)
(0.25028875 -7.4648812e-05 -4.2109945e-18)
(0.25029344 -0.00011804414 -1.3197579e-18)
(0.25030059 -0.00016540046 -3.6573313e-20)
(0.25031046 -0.00021487336 2.4382924e-19)
(0.25032332 -0.00026685039 -1.481796e-19)
(0.25033948 -0.00032192175 1.1504882e-19)
(0.25035939 -0.00038078672 1.4911642e-19)
(0.25038356 -0.00044434477 4.7782516e-19)
(0.25041254 -0.00051362452 3.4853759e-19)
(0.25044587 -0.0005867756 -4.7082495e-20)
(0.25047643 -0.00065822056 4.0170342e-20)
(0.25046276 -0.00078466513 -1.0510748e-19)
(0.25013031 -0.0015987837 1.2253909e-19)
(0.24584996 0.0019968142 3.6364496e-20)
(0.25104035 -3.7261304e-05 1.1837312e-18)
(0.25104514 -8.989598e-05 -1.636121e-18)
(0.2510558 -0.00014352114 -1.7574331e-18)
(0.25107219 -0.00020025424 -4.5531843e-19)
(0.2510947 -0.0002571822 1.1756379e-18)
(0.25112368 -0.00031440571 1.3479991e-19)
(0.25115965 -0.00037188242 6.2990404e-20)
(0.25120324 -0.00042947839 4.2687918e-19)
(0.2512551 -0.00048709454 6.6319373e-19)
(0.25131538 -0.00054561245 4.0960272e-19)
(0.25138039 -0.00060405492 -8.418406e-20)
(0.25142587 -0.00063755821 1.3149588e-20)
(0.25133175 -0.00059164843 -1.4853015e-19)
(0.25037931 -0.0014370973 9.6038337e-20)
(0.24194277 0.00099520264 -2.70663e-21)
(0.25195051 -3.6589028e-05 3.5671162e-19)
(0.25195563 -9.0250613e-05 3.3855359e-18)
(0.25196731 -0.00014313025 1.1817036e-18)
(0.25198528 -0.00019912655 -1.3032865e-18)
(0.25200977 -0.00025508716 7.5359658e-19)
(0.25204101 -0.0003112558 -3.3077304e-19)
(0.25207932 -0.00036762123 -8.2308255e-19)
(0.25212505 -0.00042413945 -2.5254683e-19)
(0.25217823 -0.00048056787 -3.4546604e-19)
(0.25223708 -0.0005377572 -2.3953571e-19)
(0.25229114 -0.00060007155 -6.0808202e-19)
(0.25229033 -0.00065419843 -5.9927257e-19)
(0.25200573 -0.00054460881 -2.7161944e-19)
(0.25014357 -0.0012195308 -1.6006244e-19)
(0.23758495 0.00043820543 -2.173991e-19)
(0.25283353 -3.7446604e-05 3.5811618e-19)
(0.25283867 -9.3611088e-05 -7.3648733e-19)
(0.25285018 -0.00014906892 8.4141811e-19)
(0.25286783 -0.00020791578 -8.7677537e-19)
(0.25289182 -0.00026672308 4.0176855e-19)
(0.25292238 -0.00032582165 -2.4778556e-19)
(0.25295982 -0.00038519269 -3.9203532e-19)
(0.25300432 -0.00044485276 -1.9074226e-19)
(0.25305525 -0.00050441426 -4.1356263e-19)
(0.25310809 -0.00056332944 1.4189801e-19)
(0.25314261 -0.00062607506 -5.7817768e-19)
(0.25307635 -0.00069910336 -5.5041242e-19)
(0.25255493 -0.0005845712 -3.0425245e-19)
(0.24963188 -0.001063787 -2.3644419e-19)
(0.23320285 0.0001058672 -2.6369103e-19)
(0.25372643 -3.8342944e-05 7.9569206e-18)
(0.2537317 -9.6368692e-05 3.0897513e-18)
(0.25374347 -0.00015372841 1.2994499e-18)
(0.25376156 -0.00021453144 7.3751483e-19)
(0.25378616 -0.00027516439 3.2916408e-19)
(0.25381749 -0.00033599427 3.6634921e-19)
(0.25385581 -0.00039694563 3.7958757e-19)
(0.25390101 -0.00045805575 3.9067491e-19)
(0.25395133 -0.00051907431 3.5897662e-19)
(0.25399821 -0.00057855465 3.6297069e-19)
(0.25400834 -0.00063773998 7.4538784e-20)
(0.25386022 -0.0007177221 1.4247843e-19)
(0.25305737 -0.00062191547 -2.6224208e-20)
(0.24895451 -0.00093835859 -4.796351e-20)
(0.22897365 -8.3792338e-05 -9.1826007e-21)
(0.25464474 -3.8661619e-05 2.7116114e-18)
(0.25465014 -9.7320119e-05 1.7590073e-18)
(0.2546622 -0.00015516462 1.6986294e-18)
(0.25468073 -0.00021648308 1.266201e-18)
(0.2547059 -0.00027758564 -3.9850806e-19)
(0.25473792 -0.000338881 2.8204987e-19)
(0.25477689 -0.00040025681 4.6324829e-19)
(0.25482222 -0.000461728 8.3647283e-20)
(0.25487049 -0.00052322808 2.083128e-19)
(0.2549078 -0.000583188 2.0241e-19)
(0.25488519 -0.00063896641 1.3181882e-19)
(0.25463685 -0.00071821651 7.0954327e-20)
(0.25350729 -0.0006469875 5.9196977e-20)
(0.248129 -0.00083894719 5.3871346e-20)
(0.2249409 -0.00018589273 8.0737558e-20)
(0.25557031 -3.8595293e-05 -7.3990622e-19)
(0.25557581 -9.7309346e-05 -2.8737518e-18)
(0.25558805 -0.00015511983 -4.6301194e-19)
(0.25560682 -0.00021642526 6.7523038e-19)
(0.2556323 -0.00027749359 -9.3541965e-19)
(0.25566463 -0.00033876345 3.1159086e-19)
(0.25570371 -0.00040009734 3.5619452e-19)
(0.25574825 -0.00046144626 2.007645e-20)
(0.25579256 -0.00052279714 2.7078065e-19)
(0.25581623 -0.0005828814 2.7591882e-19)
(0.25575267 -0.00063600478 1.2575828e-19)
(0.25538743 -0.00071016267 -1.5163735e-19)
(0.25388915 -0.00066107344 -1.0137827e-19)
(0.24716598 -0.00076077854 4.3216314e-20)
(0.22112141 -0.00023459296 8.3012425e-21)
(0.25649134 -3.8297106e-05 4.1648094e-18)
(0.25649692 -9.6712128e-05 1.7583538e-19)
(0.25650928 -0.00015419069 1.3727883e-18)
(0.25652824 -0.00021515485 5.5914512e-19)
(0.25655393 -0.00027585718 -6.4233638e-19)
(0.25658641 -0.0003367553 5.0918109e-19)
(0.25662528 -0.00039769653 -1.6616382e-20)
(0.2566683 -0.00045856441 1.2807687e-20)
(0.25670691 -0.00051927104 4.3258937e-19)
(0.25671305 -0.00057893859 -2.5975629e-20)
(0.25660095 -0.00063003278 3.0129495e-19)
(0.25610359 -0.00069722485 -5.1969545e-20)
(0.25419746 -0.0006651972 -1.3411607e-19)
(0.24608527 -0.00069788903 -3.2524048e-21)
(0.21752738 -0.00025081848 1.3989967e-20)
(0.25740382 -3.7852859e-05 -1.4602065e-18)
(0.25740947 -9.5689494e-05 -2.420879e-18)
(0.25742193 -0.00015257331 8.0569071e-19)
(0.25744104 -0.00021291358 1.0752196e-18)
(0.25746687 -0.00027297291 4.7913912e-19)
(0.25749936 -0.0003332193 7.7194738e-19)
(0.2575377 -0.00039348924 5.5866304e-19)
(0.2575784 -0.00045361302 2.7395764e-19)
(0.25760945 -0.00051335259 2.64375e-19)
(0.25759421 -0.00057212213 3.3139851e-19)
(0.25742635 -0.00062159363 3.456788e-19)
(0.25678237 -0.00068144217 1.5420821e-19)
(0.25443121 -0.00066103685 7.8037766e-20)
(0.24490935 -0.00064561644 4.3645474e-20)
(0.21416513 -0.00024776584 7.3334421e-20)
(0.25830515 -3.7308638e-05 7.1838573e-19)
(0.25831084 -9.4372769e-05 1.883181e-19)
(0.25832339 -0.00015047649 -9.7238073e-19)
(0.2583426 -0.00020999612 8.8184815e-19)
(0.25836849 -0.00026922145 -1.5066593e-21)
(0.25840083 -0.00032862339 4.7511917e-19)
(0.25843826 -0.00038802595 8.9170842e-19)
(0.25847573 -0.00044722018 7.795942e-19)
(0.25849727 -0.00050579279 2.82036e-19)
(0.25845683 -0.00056328987 1.0529901e-19)
(0.25822634 -0.00061131676 2.3459243e-19)
(0.25742154 -0.00066417743 2.0046973e-19)
(0.2545896 -0.00065044234 2.3322205e-19)
(0.24365871 -0.00060064453 1.0087188e-19)
(0.21103455 -0.00023378679 9.1503884e-20)
(0.259193 -3.6693881e-05 7.4381839e-18)
(0.25919873 -9.285746e-05 7.4080716e-18)
(0.25921134 -0.00014806165 -1.0406987e-18)
(0.25923061 -0.00020663289 1.6539018e-19)
(0.25925648 -0.0002648995 1.0906229e-18)
(0.25928848 -0.00032332972 1.6022544e-19)
(0.25932457 -0.00038173097 2.8527411e-19)
(0.25935785 -0.00043986308 7.1310118e-19)
(0.25936788 -0.00049714489 2.6847326e-19)
(0.25929853 -0.00055310431 -1.677863e-19)
(0.2589988 -0.00059970361 1.6198945e-19)
(0.25801896 -0.00064623361 2.6901798e-19)
(0.25467145 -0.00063499349 2.4277048e-19)
(0.24235144 -0.00056062195 4.4696042e-20)
(0.20813123 -0.0002141088 8.0916507e-20)
(0.26006576 -3.6034055e-05 5.3304099e-18)
(0.26007152 -9.1214285e-05 4.0285926e-18)
(0.26008417 -0.00014544281 -4.7671156e-20)
(0.26010346 -0.00020298347 -3.1534394e-19)
(0.26012923 -0.00026021093 5.5460329e-19)
(0.2601607 -0.0003175869 5.041609e-20)
(0.26019497 -0.00037489796 1.3373375e-19)
(0.26022303 -0.0004318747 3.9583531e-19)
(0.26021952 -0.00048779067 1.6040129e-20)
(0.26011767 -0.00054204301 -4.4244991e-20)
(0.25974224 -0.00058714002 5.2485919e-20)
(0.25857279 -0.00062806077 3.0023287e-19)
(0.25467557 -0.00061594005 1.9711756e-19)
(0.24100379 -0.00052390611 4.9533271e-20)
(0.20544863 -0.00019196316 7.0945919e-20)
(0.2609225 -3.5349633e-05 2.8684858e-18)
(0.26092828 -8.9497286e-05 2.7637307e-18)
(0.26094096 -0.00014270541 2.0418605e-19)
(0.26096023 -0.00019916671 -2.5935848e-19)
(0.2609858 -0.00025530722 5.4958762e-19)
(0.2610165 -0.00031157922 1.5749465e-19)
(0.26104844 -0.00036774517 3.7664505e-19)
(0.2610702 -0.00042350433 1.2774096e-19)
(0.26105114 -0.00047801113 -1.1306529e-19)
(0.26091327 -0.00053046086 -1.9814431e-19)
(0.2604557 -0.00057393662 -3.7663933e-20)
(0.2590814 -0.00060990566 1.5223921e-19)
(0.2546009 -0.00059424331 1.5882083e-19)
(0.23963056 -0.00048937354 4.816633e-20)
(0.20297926 -0.00016931833 7.9956063e-20)
(0.26176274 -3.4655538e-05 1.8274618e-18)
(0.26176854 -8.7746856e-05 3.8402777e-18)
(0.26178122 -0.00013991377 -6.275905e-19)
(0.26180042 -0.00019527247 3.1653174e-19)
(0.26182568 -0.00025030306 3.6455288e-19)
(0.26185536 -0.00030544608 3.9478716e-19)
(0.26188442 -0.00036043768 1.8565287e-19)
(0.26189878 -0.00041494196 -9.7646986e-20)
(0.26186213 -0.00046801763 5.2958729e-20)
(0.2616848 -0.00051862213 1.2932974e-19)
(0.26113855 -0.00056034346 9.0140984e-20)
(0.25954316 -0.00059189152 1.2433115e-19)
(0.25444651 -0.0005706321 1.3159009e-19)
(0.23824529 -0.00045627776 3.5690658e-20)
(0.20071509 -0.00014735259 1.1888223e-21)
(0.26258633 -3.3963061e-05 9.4949357e-19)
(0.26259213 -8.5993781e-05 4.8435572e-19)
(0.26260479 -0.00013711719 2.8259985e-18)
(0.26262388 -0.00019136968 4.6000218e-19)
(0.2626487 -0.00024528655 -1.6412241e-18)
(0.26267708 -0.00029929459 4.423884e-19)
(0.26270267 -0.00035310243 4.4694831e-19)
(0.26270848 -0.00040633486 -1.166366e-20)
(0.26265224 -0.00045797299 1.0837241e-19)
(0.26243199 -0.00050672605 1.0918839e-19)
(0.26179026 -0.00054656345 3.2496427e-19)
(0.25995633 -0.0005740675 1.6110823e-19)
(0.25421177 -0.00054566294 1.3699999e-19)
(0.23686046 -0.00042415213 5.4729752e-20)
(0.19864765 -0.0001267576 -3.5744324e-21)
(0.26339335 -3.32814e-05 3.2783595e-18)
(0.26339915 -8.4262741e-05 2.7502532e-18)
(0.26341177 -0.0001343551 2.5643173e-18)
(0.26343068 -0.0001875135 5.5339964e-19)
(0.26345493 -0.00024032822 7.75641e-19)
(0.26348171 -0.00029321054 5.0461735e-19)
(0.2635032 -0.00034584107 3.1653035e-19)
(0.2634993 -0.00039780175 1.7375004e-19)
(0.26342146 -0.00044800829 3.133029e-20)
(0.26315482 -0.00049492779 -1.0369422e-19)
(0.26241041 -0.00053276478 2.7906545e-19)
(0.26031893 -0.00055643964 1.564576e-19)
(0.2538966 -0.000519773 1.4360839e-19)
(0.23548766 -0.00039274464 5.1074393e-20)
(0.19676807 -0.00010792878 1.5755843e-21)
(0.26418413 -3.2618313e-05 4.5812759e-18)
(0.26418991 -8.2574226e-05 3.628368e-18)
(0.26420246 -0.00013166021 1.3443671e-18)
(0.26422112 -0.0001837496 8.8000766e-19)
(0.26424465 -0.00023548649 1.1802969e-18)
(0.2642695 -0.00028726512 6.2688875e-19)
(0.26428624 -0.00033873796 2.247979e-19)
(0.26427145 -0.00038944152 3.1476438e-19)
(0.26416998 -0.0004382328 2.3628043e-19)
(0.26385341 -0.00048335173 -3.0774806e-20)
(0.26299854 -0.00051908846 2.8145073e-20)
(0.26062878 -0.00053898815 1.6810136e-19)
(0.25350187 -0.00049331965 5.698475e-20)
(0.2341376 -0.00036197184 4.380578e-20)
(0.19506692 -9.1079356e-05 4.4146582e-20)
(0.26495914 -3.1980325e-05 2.9079863e-18)
(0.2649649 -8.0945389e-05 3.4174017e-18)
(0.26497734 -0.00012905989 1.5673521e-18)
(0.26499568 -0.00018011622 8.6575328e-19)
(0.26501831 -0.00023081031 1.0775269e-18)
(0.26504088 -0.00028151807 3.5664771e-19)
(0.2650522 -0.00033186392 2.9740988e-19)
(0.2650253 -0.00038133727 1.980895e-19)
(0.26489816 -0.00042873842 1.76925e-19)
(0.26452796 -0.00047209828 2.2046957e-19)
(0.26355413 -0.00050565096 4.6098494e-20)
(0.2608835 -0.00052167636 2.1401387e-19)
(0.25302971 -0.00046660631 7.0121126e-20)
(0.23282016 -0.00033188327 1.4713306e-19)
(0.19353413 -7.6303786e-05 4.4528329e-20)
(0.26571903 -3.1372765e-05 1.3195111e-18)
(0.26572475 -7.9390278e-05 2.2737945e-18)
(0.26573705 -0.00012657658 -4.7703682e-19)
(0.26575498 -0.00017664472 1.0978339e-18)
(0.26577653 -0.00022633987 7.8684165e-19)
(0.26579644 -0.0002760185 1.4811542e-19)
(0.26580163 -0.0003252772 2.5568158e-19)
(0.26576141 -0.00037355728 3.6528276e-19)
(0.26560652 -0.00041960061 7.9674114e-20)
(0.26517878 -0.00046124612 2.2163594e-19)
(0.26407657 -0.00049254343 3.3137443e-20)
(0.26108058 -0.00050445572 1.6190666e-19)
(0.25248384 -0.00043989699 1.2224989e-19)
(0.23154421 -0.00030262987 1.1086469e-19)
(0.19215888 -6.3609732e-05 4.8148394e-20)
(0.26646455 -3.0799673e-05 5.9720362e-18)
(0.26647021 -7.7919711e-05 7.7811562e-19)
(0.26648233 -0.00012422759 3.460344e-18)
(0.26649975 -0.0001733593 2.0657312e-18)
(0.26652002 -0.00022210618 -3.5800464e-19)
(0.26653688 -0.0002708044 9.1536528e-19)
(0.26653522 -0.00031902283 1.0767958e-18)
(0.26648042 -0.00036615421 1.1009908e-18)
(0.26629564 -0.00041087723 8.0690717e-19)
(0.26580617 -0.00045085191 -1.5525512e-19)
(0.26456508 -0.00047982866 3.1703946e-19)
(0.26121753 -0.00048726982 3.8273063e-19)
(0.25186982 -0.00041342264 2.5829746e-19)
(0.23031742 -0.00027443217 3.2006514e-19)
(0.1909297 -5.2932834e-05 3.1507943e-19)
(0.26719653 -3.0263687e-05 3.7268849e-18)
(0.26720212 -7.6541023e-05 5.6128945e-19)
(0.26721401 -0.00012202465 2.9676246e-18)
(0.26723083 -0.00017027641 1.9264602e-18)
(0.2672496 -0.00021813034 1.2279296e-18)
(0.26726299 -0.00026590165 1.4061861e-18)
(0.26725373 -0.0003131315 1.260881e-18)
(0.26718309 -0.00035916374 9.7255054e-19)
(0.26696618 -0.00040260692 8.0749462e-19)
(0.26641044 -0.00044094906 1.3184966e-19)
(0.26501868 -0.00046753759 4.4034647e-19)
(0.26129202 -0.00047005901 4.0090246e-19)
(0.25119506 -0.00038738325 2.8835341e-19)
(0.2291461 -0.00024754677 3.9386154e-19)
(0.18983455 -4.4145099e-05 1.8134364e-19)
(0.26791589 -2.9765992e-05 -1.5317696e-18)
(0.26792138 -7.5257933e-05 1.5497577e-18)
(0.26793299 -0.00011997376 6.8865739e-19)
(0.26794908 -0.00016740448 8.5848349e-19)
(0.26796613 -0.00021442313 2.0381566e-18)
(0.26797562 -0.00026132351 9.7984152e-19)
(0.267958 -0.00030761887 5.9852096e-19)
(0.26787018 -0.00035260382 4.3296335e-19)
(0.2676188 -0.00039480805 1.4436597e-19)
(0.2669918 -0.00043154706 -2.5899604e-20)
(0.26543617 -0.00045566687 -2.3147075e-20)
(0.2613021 -0.00045276643 9.1104929e-20)
(0.2504687 -0.00036194908 1.1687901e-19)
(0.22803501 -0.00022223217 3.6414622e-20)
(0.18886112 -3.7064086e-05 -3.2910168e-20)
(0.26862352 -2.9306383e-05 6.0508639e-18)
(0.2686289 -7.4070661e-05 2.2917016e-18)
(0.26864017 -0.00011807532 2.5416633e-18)
(0.26865542 -0.00016474412 2.0271814e-18)
(0.26867049 -0.00021098533 1.79676e-18)
(0.26867563 -0.000257071 1.6786189e-18)
(0.26864885 -0.00030248606 1.3154823e-18)
(0.26854251 -0.00034647515 1.119718e-18)
(0.26825414 -0.00038747924 3.8014717e-19)
(0.26755035 -0.00042263245 -5.4443983e-19)
(0.2658161 -0.00044417905 1.5716564e-19)
(0.26124652 -0.00043534493 2.667558e-19)
(0.24970133 -0.00033726333 3.0887734e-19)
(0.22698727 -0.00019871676 1.931545e-19)
(0.18799711 -3.1466399e-05 2.2501033e-19)
(0.26932033 -2.8883461e-05 4.4413667e-18)
(0.26932558 -7.2976356e-05 -7.2605553e-19)
(0.26933645 -0.00011632481 1.1725499e-18)
(0.26935072 -0.00016228909 2.695786e-18)
(0.26936357 -0.0002078089 1.6910507e-18)
(0.26936389 -0.00025313433 1.4772149e-18)
(0.26932713 -0.0002977213 1.4795163e-18)
(0.26920083 -0.00034076321 1.073585e-18)
(0.2688728 -0.00038060158 5.6864153e-19)
(0.26808605 -0.00041417146 2.3652655e-20)
(0.26615679 -0.00043300583 2.3848789e-19)
(0.26112496 -0.00041776402 1.775705e-19)
(0.24890441 -0.00031344658 1.980522e-19)
(0.22600436 -0.00017717261 2.3565205e-19)
(0.18723056 -2.7105586e-05 2.4988313e-19)
(0.27000719 -2.849491e-05 2.6727551e-18)
(0.27001228 -7.1969743e-05 2.2465565e-18)
(0.27002267 -0.00011471384 3.5873808e-18)
(0.27003582 -0.00016002771 2.8335273e-18)
(0.27004618 -0.00020487885 1.1030514e-18)
(0.27004119 -0.00024949516 1.5747933e-18)
(0.2699936 -0.00029330262 1.2758073e-18)
(0.26984584 -0.00033544136 6.904286e-19)
(0.26947524 -0.00037414208 5.6343257e-19)
(0.2685986 -0.00040611399 2.8790923e-19)
(0.26645635 -0.00042205446 3.1922519e-19)
(0.2609383 -0.00040001524 2.3833006e-19)
(0.24808975 -0.00029060213 1.8237344e-19)
(0.22508629 -0.00015769827 2.6416537e-19)
(0.18655015 -2.3732129e-05 1.9669822e-19)
(0.27068489 -2.8137825e-05 5.189394e-18)
(0.2706898 -7.1043906e-05 3.2345764e-18)
(0.27069965 -0.00011323138 4.6021216e-18)
(0.27071153 -0.00015794462 3.719918e-18)
(0.2707191 -0.00020217545 1.4565122e-18)
(0.27070829 -0.00024612933 2.5637914e-18)
(0.27064898 -0.00028920108 2.1382994e-18)
(0.27047818 -0.00033047455 1.2849692e-18)
(0.27006181 -0.00036805783 8.4865479e-19)
(0.26908753 -0.00039839812 1.2854005e-19)
(0.26671278 -0.00041121648 5.8054592e-19)
(0.26068881 -0.00038211515 6.2535862e-19)
(0.24726882 -0.00026882041 5.4155457e-19)
(0.22423175 -0.00014031231 4.7607316e-19)
(0.18594537 -2.1112147e-05 3.9175522e-19)
(0.27135418 -2.7809011e-05 1.1223236e-18)
(0.27135887 -7.0191041e-05 3.4926086e-18)
(0.2713681 -0.00011186497 3.1251825e-18)
(0.27137855 -0.00015602247 2.3922098e-18)
(0.27138303 -0.00019967637 2.5072665e-18)
(0.27136587 -0.00024300948 1.5017518e-18)
(0.27129391 -0.00028538386 1.2610666e-18)
(0.27109836 -0.000325823 9.2985678e-19)
(0.27063272 -0.00036230005 6.744543e-19)
(0.26955206 -0.00039095432 2.8429653e-19)
(0.26692403 -0.00040037783 2.1103801e-19)
(0.26038022 -0.00036410564 3.0906094e-19)
(0.24645221 -0.00024818088 3.983185e-19)
(0.22343841 -0.00012495718 3.3564307e-19)
(0.18540672 -1.9041831e-05 3.3536084e-19)
(0.27201571 -2.7505236e-05 3.9817468e-18)
(0.27202015 -6.9403099e-05 4.2380911e-18)
(0.27202866 -0.00011060176 2.8007136e-18)
(0.27203751 -0.00015424331 2.0189418e-18)
(0.2720386 -0.00019735858 2.2710343e-18)
(0.27201452 -0.00024010733 1.4239826e-18)
(0.27192892 -0.00028181693 1.1632517e-18)
(0.2717068 -0.00032144525 9.1178988e-19)
(0.27118802 -0.00035681747 8.0465127e-19)
(0.2699912 -0.00038370884 3.5917486e-19)
(0.26708822 -0.000389429 2.1444836e-19)
(0.26001771 -0.00034605163 2.6515838e-19)
(0.24564917 -0.00022875086 4.4054054e-19)
(0.22270325 -0.00011151162 2.8113672e-19)
(0.18492573 -1.7355844e-05 2.2999553e-19)
(0.27267005 -2.7223403e-05 8.3334461e-19)
(0.27267421 -6.8672269e-05 1.6317961e-18)
(0.27268192 -0.00010942927 5.6380762e-19)
(0.27268898 -0.00015258973 2.4441459e-18)
(0.27268634 -0.00019519966 2.4079764e-18)
(0.27265476 -0.00023739527 1.7145265e-18)
(0.27255447 -0.00027846699 1.3662583e-18)
(0.2723038 -0.00031730047 8.0427837e-19)
(0.27172757 -0.00035155883 7.688025e-19)
(0.27040369 -0.00037658611 6.5571589e-19)
(0.26720375 -0.00037827411 2.8042468e-19)
(0.25960771 -0.00032803713 2.8309597e-19)
(0.24486735 -0.00021058184 2.6000722e-19)
(0.22202277 -9.9808139e-05 2.6138752e-19)
(0.18449494 -1.5929484e-05 1.9635137e-19)
(0.27331772 -2.6960666e-05 2.7198711e-18)
(0.27332155 -6.7991274e-05 3.8387958e-18)
(0.27332837 -0.00010833587 3.3035235e-18)
(0.27333345 -0.00015104547 2.8666123e-18)
(0.27332673 -0.00019317869 1.7865865e-18)
(0.27328702 -0.00023484751 1.5590045e-18)
(0.27317093 -0.0002753027 1.3831508e-18)
(0.27288957 -0.00031334989 8.612314e-19)
(0.27225107 -0.00034647442 7.5560435e-19)
(0.27078808 -0.00036951039 5.6960033e-19)
(0.26726952 -0.00036683813 3.0540827e-19)
(0.25915765 -0.0003101602 4.231614e-19)
(0.24411266 -0.00019370463 2.3858268e-19)
(0.22139331 -8.9652401e-05 4.1048195e-19)
(0.1841079 -1.4675689e-05 2.1789876e-19)
(0.27395916 -2.6714475e-05 8.3451874e-18)
(0.27396262 -6.7353542e-05 4.3840573e-18)
(0.27396843 -0.00010731104 5.4595073e-18)
(0.27397134 -0.00014959583 3.2033425e-18)
(0.27396016 -0.00019127671 1.7273655e-18)
(0.27391168 -0.00023244055 2.0322079e-18)
(0.2737786 -0.00027229533 2.0411392e-18)
(0.27346419 -0.00030955757 1.7206529e-18)
(0.27275806 -0.00034151676 1.1362718e-18)
(0.27114274 -0.00036240704 2.2402445e-19)
(0.26728512 -0.00035507155 6.4561386e-19)
(0.25867552 -0.00029252748 8.7827159e-19)
(0.24338933 -0.00017812521 6.0204223e-19)
(0.22081116 -8.0841192e-05 5.439909e-19)
(0.18375901 -1.3538667e-05 3.3773306e-19)
(0.27459475 -2.648259e-05 -1.3340215e-18)
(0.2745978 -6.675326e-05 4.2566804e-18)
(0.27460249 -0.0001063455 3.4816496e-18)
(0.274603 -0.0001482278 1.4737763e-18)
(0.27458699 -0.00018947691 2.404291e-18)
(0.27452902 -0.00023015345 1.3601997e-18)
(0.27437767 -0.00026941895 1.2332069e-18)
(0.27402763 -0.00030589064 1.1667742e-18)
(0.27324789 -0.00033664079 5.4617265e-19)
(0.27146593 -0.00035520381 3.1331305e-19)
(0.26725094 -0.00034295249 3.4384206e-19)
(0.25816956 -0.00027524859 4.9572281e-19)
(0.24270004 -0.00016382254 4.1993163e-19)
(0.22027275 -7.3177109e-05 2.259108e-19)
(0.18344349 -1.2486088e-05 2.5831929e-19)
(0.27522481 -2.6263071e-05 2.1328674e-18)
(0.27522741 -6.6185367e-05 3.8207115e-18)
(0.27523087 -0.00010543114 3.2676009e-18)
(0.27522875 -0.00014693 2.5248071e-18)
(0.27520748 -0.00018776456 2.0395557e-18)
(0.2751393 -0.00022796774 1.4681812e-18)
(0.27496829 -0.00026665041 1.2687094e-18)
(0.27457978 -0.00030231921 8.2251418e-19)
(0.27371976 -0.0003318036 6.1317765e-19)
(0.27175586 -0.00034783257 4.6519285e-19)
(0.26716832 -0.00033048644 3.3071008e-19)
(0.25764777 -0.0002584306 3.1138657e-19)
(0.24204621 -0.0001507494 5.6505755e-19)
(0.21977469 -6.6478883e-05 4.8746445e-19)
(0.18315725 -1.150142e-05 3.2883711e-19)
(0.27584964 -2.6054261e-05 3.5989924e-18)
(0.27585173 -6.5645511e-05 1.2587114e-18)
(0.27585383 -0.00010456099 1.0933411e-18)
(0.27584885 -0.00014569263 2.3323228e-18)
(0.27582189 -0.00018612688 2.1186516e-18)
(0.2757427 -0.00022586725 1.6849279e-18)
(0.27555053 -0.00026396905 8.5470899e-19)
(0.27512041 -0.00029881615 6.2011357e-19)
(0.27417268 -0.00032696406 5.5325663e-19)
(0.27201082 -0.00034023144 8.7940311e-19)
(0.26703956 -0.00031770398 3.5463284e-19)
(0.25711762 -0.00024217267 1.8561061e-19)
(0.24142819 -0.00013883591 4.5680725e-19)
(0.21931381 -6.0587302e-05 5.3986456e-19)
(0.18289682 -1.0577469e-05 3.3955768e-19)
(0.27646948 -2.5854749e-05 2.2999996e-18)
(0.27647102 -6.512998e-05 4.455281e-18)
(0.27647162 -0.00010372909 2.7188419e-18)
(0.27646352 -0.0001445073 2.2698714e-18)
(0.2764304 -0.00018455289 1.1488058e-18)
(0.27633935 -0.00022383791 1.3098624e-18)
(0.27612438 -0.00026135648 6.5852615e-19)
(0.27564919 -0.00029535665 8.1359443e-19)
(0.27460555 -0.00032208226 5.611599e-19)
(0.27222923 -0.0003323472 8.2209962e-19)
(0.26686787 -0.00030465719 3.8641788e-19)
(0.25658579 -0.00022656125 2.7033652e-19)
(0.2408456 -0.00012799526 3.7808477e-19)
(0.21888719 -5.5367365e-05 4.7982749e-19)
(0.18265925 -9.7115793e-06 3.7679069e-19)
(0.27708455 -2.5663344e-05 7.6290529e-18)
(0.27708548 -6.463563e-05 5.6012372e-18)
(0.27708444 -0.0001029304 5.0978437e-18)
(0.27707295 -0.00014336686 3.8275653e-18)
(0.27703318 -0.00018303314 1.3182077e-18)
(0.27692935 -0.00022186743 1.689537e-18)
(0.2766898 -0.00025879623 1.543943e-18)
(0.27616569 -0.00029191777 1.5006559e-18)
(0.27501711 -0.00031711916 1.2217475e-18)
(0.27240981 -0.00032413774 3.7611595e-19)
(0.26665728 -0.00029141517 7.4643441e-19)
(0.256058 -0.00021166603 7.7727584e-19)
(0.24029748 -0.00011813047 8.8976373e-19)
(0.21849214 -5.0707641e-05 8.7683602e-19)
(0.18244204 -8.9025321e-06 5.4371697e-19)
(0.27769504 -2.5479044e-05 1.448591e-18)
(0.27769529 -6.4159806e-05 4.3572633e-18)
(0.27769247 -0.00010216064 3.1638768e-18)
(0.27767729 -0.00014226521 2.3065989e-18)
(0.27763035 -0.0001815595 2.8233474e-18)
(0.27751275 -0.00021994503 1.3730021e-18)
(0.27724666 -0.00025627339 1.2426222e-18)
(0.27666938 -0.00028847796 1.0731193e-18)
(0.275406 -0.00031203634 6.5678913e-19)
(0.27255164 -0.0003155742 4.1875151e-19)
(0.26641246 -0.00027805925 3.6209692e-19)
(0.25553894 -0.0001975371 5.4877317e-19)
(0.23978254 -0.00010914112 6.4571916e-19)
(0.21812621 -4.6517859e-05 4.7472459e-19)
(0.18224308 -8.148853e-06 2.886438e-19)
(0.27830111 -2.5301005e-05 4.1966394e-18)
(0.27830062 -6.3700268e-05 4.3411555e-18)
(0.27829586 -0.0001014162 2.827042e-18)
(0.2782767 -0.00014119716 2.5515774e-18)
(0.278222 -0.00018012493 2.95856e-18)
(0.27808956 -0.00021806116 1.6663319e-18)
(0.2777948 -0.00025377436 1.6062926e-18)
(0.27715962 -0.0002850166 1.0215842e-18)
(0.27577079 -0.00030679609 5.2026631e-19)
(0.27265429 -0.00030664248 4.1505495e-19)
(0.26613848 -0.00026467813 5.3838881e-19)
(0.2550323 -0.00018420368 7.1471211e-19)
(0.23929925 -0.00010092916 5.0389662e-19)
(0.21778713 -4.2725643e-05 3.0298715e-19)
(0.18206056 -7.4481416e-06 2.9927228e-19)
(0.27890291 -2.5128516e-05 3.7752299e-18)
(0.27890162 -6.3255127e-05 1.1917991e-18)
(0.27889474 -0.00010069401 1.5038498e-18)
(0.27887126 -0.00014015826 2.708087e-18)
(0.27880821 -0.00017872332 2.8575537e-18)
(0.27865976 -0.00021620724 2.0098106e-18)
(0.27833397 -0.00025128651 1.630228e-18)
(0.27763569 -0.00028151345 1.0531486e-18)
(0.27611001 -0.00030136188 6.8087213e-19)
(0.2727179 -0.00029734386 7.8953792e-19)
(0.26584062 -0.00025136317 6.3036131e-19)
(0.25454084 -0.00017167439 6.0712062e-19)
(0.23884602 -9.3403157e-05 4.3352592e-19)
(0.21747286 -3.9273085e-05 2.1073058e-19)
(0.18189296 -6.7970318e-06 3.3659472e-19)
(0.27950056 -2.4960972e-05 -1.0447808e-18)
(0.2794984 -6.2822774e-05 3.3677794e-18)
(0.27948922 -9.9991431e-05 1.5255576e-18)
(0.27946108 -0.00013914466 1.319923e-18)
(0.279389 -0.00017734922 2.3321476e-18)
(0.27922329 -0.00021437542 1.151623e-18)
(0.27886389 -0.00024879793 5.552107e-19)
(0.27809674 -0.00027794828 6.5215278e-19)
(0.27642222 -0.0002956992 4.645412e-19)
(0.27274323 -0.00028769474 7.9550538e-19)
(0.2655241 -0.00023820406 3.8447496e-20)
(0.25406651 -0.00015993912 -6.6472544e-20)
(0.23842119 -8.6481049e-05 7.1710699e-20)
(0.21718151 -3.611361e-05 -4.7484249e-20)
(0.18173897 -6.1914728e-06 1.2214129e-19)
(0.28009418 -2.4797856e-05 2.0367852e-18)
(0.28009107 -6.2401833e-05 4.8162358e-18)
(0.28007941 -9.9306213e-05 3.2284626e-18)
(0.28004623 -0.00013815299 1.2457289e-18)
(0.27996442 -0.00017599777 1.63661e-18)
(0.27978006 -0.00021255837 8.6178137e-19)
(0.2793842 -0.00024629715 5.7754971e-19)
(0.27854186 -0.00027430051 4.1027711e-19)
(0.27670605 -0.00028977675 4.9104655e-19)
(0.27273166 -0.0002777256 6.2338732e-19)
(0.26519392 -0.00022528491 1.7683091e-19)
(0.25361059 -0.00014897206 1.2991088e-19)
(0.23802316 -8.0091228e-05 1.530901e-22)
(0.21691137 -3.3209337e-05 5.2395241e-20)
(0.18159747 -5.627097e-06 8.6083498e-20)
(0.28068388 -2.4638721e-05 4.5649016e-19)
(0.28067974 -6.1991114e-05 4.366703e-18)
(0.28066539 -9.8636369e-05 3.714598e-18)
(0.28062676 -0.00013718022 1.927327e-18)
(0.28053445 -0.00017466447 1.6685931e-18)
(0.28032993 -0.00021074911 1.1918086e-18)
(0.27989449 -0.00024377295 6.5839982e-19)
(0.27897002 -0.0002705489 3.5817089e-19)
(0.27696025 -0.00028356785 4.8852762e-19)
(0.27268518 -0.00026747915 6.5993942e-19)
(0.26485469 -0.00021268091 3.3291656e-19)
(0.25317379 -0.00013873548 7.809963e-20)
(0.23765034 -7.4172514e-05 1.0501717e-19)
(0.2166609 -3.0529029e-05 1.5522177e-19)
(0.18146749 -5.0995654e-06 1.40479e-19)
(0.28126974 -2.4483173e-05 -4.4771513e-19)
(0.28126449 -6.1589567e-05 5.8402205e-18)
(0.28124722 -9.7980137e-05 3.4251442e-18)
(0.28120271 -0.00013622364 1.1741782e-18)
(0.28109907 -0.00017334515 1.012991e-18)
(0.28087275 -0.00020894083 5.6952657e-19)
(0.28039427 -0.00024121406 -2.0110012e-19)
(0.27938014 -0.00026667151 -6.7620155e-20)
(0.27718382 -0.00027705191 -6.8594989e-21)
(0.27260633 -0.00025700811 2.2454119e-19)
(0.26451052 -0.00020045586 -1.05359e-19)
(0.25275643 -0.00012918378 -5.6500543e-19)
(0.23730122 -6.8673274e-05 -2.2224396e-19)
(0.21642866 -2.8046559e-05 -2.1491742e-19)
(0.18134818 -4.6048121e-06 -6.5125262e-20)
(0.28185185 -2.4330856e-05 4.283543e-18)
(0.28184539 -6.1196251e-05 4.9542086e-18)
(0.28182498 -9.7335909e-05 3.2673567e-18)
(0.28177412 -0.00013528068 1.202724e-18)
(0.28165823 -0.00017203573 1.0440335e-18)
(0.2814083 -0.00020712677 2.5446486e-19)
(0.28088299 -0.00023860899 1.0346191e-20)
(0.27977106 -0.0002626457 -8.2895993e-20)
(0.27737601 -0.00027021574 -1.5701077e-20)
(0.27249806 -0.00024637257 3.8926981e-20)
(0.26416497 -0.0001886604 -8.8083995e-20)
(0.2523585 -0.00012026722 -2.9932628e-19)
(0.23697438 -6.3550127e-05 -1.9337263e-19)
(0.21621337 -2.5739817e-05 -1.2609794e-19)
(0.18123881 -4.1392051e-06 -7.525509e-20)
(0.28243029 -2.4181449e-05 5.4153758e-18)
(0.28242252 -6.0810309e-05 5.2674818e-18)
(0.28239871 -9.6702199e-05 3.8237588e-18)
(0.28234099 -0.00013434892 2.6893412e-18)
(0.28221186 -0.00017073227 1.8309857e-18)
(0.28193636 -0.00020530013 1.1227779e-18)
(0.28136003 -0.00023594579 9.7308416e-19)
(0.2801416 -0.00025844846 5.4915759e-19)
(0.27753642 -0.00026305461 5.692773e-19)
(0.27236366 -0.00023563725 6.3824935e-20)
(0.26382105 -0.00017733136 2.1498532e-19)
(0.25197976 -0.0001119352 3.4390881e-19)
(0.23666845 -5.8766493e-05 2.1381758e-19)
(0.21601387 -2.3589923e-05 3.2881896e-19)
(0.1811387 -3.6995994e-06 1.232211e-19)
(0.28300512 -2.4034648e-05 3.4226199e-18)
(0.28299594 -6.0430939e-05 3.2764188e-18)
(0.28296845 -9.6077597e-05 4.107025e-18)
(0.28290332 -0.00013342601 2.7235602e-18)
(0.28275987 -0.00016943078 2.2495642e-18)
(0.28245663 -0.00020345398 1.3387313e-18)
(0.28182471 -0.00023321186 1.0282607e-18)
(0.28049056 -0.0002540569 7.9446296e-19)
(0.27766504 -0.00025557285 5.5682239e-19)
(0.27220658 -0.0002248688 5.7850826e-19)
(0.26348123 -0.00016649191 2.7456665e-19)
(0.25161982 -0.00010413863 3.475608e-19)
(0.23638216 -5.4291236e-05 1.3824175e-19)
(0.21582908 -2.1580665e-05 1.944806e-19)
(0.18104728 -3.2833457e-06 1.1929953e-19)
(0.2835764 -2.3890167e-05 4.5628883e-18)
(0.28356569 -6.005738e-05 3.4685731e-18)
(0.28353424 -9.546074e-05 3.3236247e-18)
(0.2834611 -0.00013250962 2.4978346e-18)
(0.28330215 -0.00016812719 2.5276599e-18)
(0.28296879 -0.00020158114 1.2141851e-18)
(0.28227626 -0.00023039381 8.3754771e-19)