/*--------------------------------*- C++ -*----------------------------------*\
| =========                 |                                                 |
| \\      /  F ield         | OpenFOAM: The Open Source CFD Toolbox           |
|  \\    /   O peration     | Version:  2506                                  |
|   \\  /    A nd           | Website:  www.openfoam.com                      |
|    \\/     M anipulation  |                                                 |
\*---------------------------------------------------------------------------*/
FoamFile
{
    version     2.0;
    format      ascii;
    arch        "LSB;label=32;scalar=64";
    class       volScalarField;
    location    "7000/water";
    object      alphat;
}
// * * * * * * * * * * * * * * * * * * * * * * * * * * * * * * * * * * * * * //

dimensions      [1 -1 -1 0 0 0 0];

internalField   nonuniform List<scalar> 
2600
(
0.040489031
0.04048893
0.040488932
0.040488969
0.04048893
0.040488424
0.040485257
0.04046703
0.040362559
0.039762099
0.036475623
0.024118064
0.014862723
0.039376404
0.039376463
0.039376584
0.03937667
0.03937627
0.039373342
0.039357935
0.03928206
0.038918252
0.037247647
0.030707814
0.017504579
0.016810247
0.03845331
0.038453299
0.038453385
0.038453188
0.038451259
0.038441479
0.038397507
0.038208927
0.037432867
0.034484227
0.025768479
0.01464355
0.017680736
0.037674097
0.037673994
0.037673876
0.037672833
0.03766736
0.037643826
0.037549741
0.037190974
0.035896577
0.031717985
0.022022178
0.013507107
0.017935556
0.037006829
0.037006634
0.03700605
0.037003229
0.036991211
0.03694503
0.036777672
0.036201229
0.034343725
0.029136321
0.019390213
0.01332192
0.01787019
0.036428097
0.036427705
0.036426239
0.036420305
0.036397905
0.036319194
0.03605724
0.035231095
0.03281421
0.026833154
0.017684561
0.01376901
0.017658004
0.035920433
0.035919673
0.03591673
0.035905979
0.035868817
0.035747845
0.035374204
0.034281783
0.031338745
0.024847734
0.016751764
0.014701365
0.017395975
0.035470606
0.03546924
0.035464057
0.035446499
0.035390052
0.035218253
0.034721129
0.033357857
0.029935921
0.02320089
0.016491475
0.016024754
0.017137191
0.035068412
0.03506614
0.035057811
0.035031314
0.034951338
0.034722033
0.034094772
0.032463227
0.028616047
0.021918168
0.016839593
0.01764423
0.016909598
0.034705855
0.034702323
0.034689851
0.034652315
0.034545228
0.034254009
0.03349406
0.031599319
0.027389013
0.021039007
0.017742706
0.01944683
0.016725717
0.034376582
0.0343714
0.034353768
0.03430331
0.034166516
0.033811296
0.032918607
0.030765036
0.026274288
0.020612421
0.019134169
0.021310298
0.0165878
0.034075484
0.034068256
0.034044512
0.033979658
0.033811775
0.033392551
0.032367695
0.029958513
0.025310236
0.020682513
0.02092045
0.023125093
0.01649134
0.03379842
0.033788771
0.033758129
0.033677993
0.033478994
0.032997353
0.031839672
0.029180919
0.024557973
0.021270679
0.022983308
0.024813262
0.016428198
0.033542011
0.033529635
0.033491576
0.033396025
0.033167279
0.032625685
0.031331905
0.02844226
0.024095308
0.02236241
0.02519592
0.026333969
0.016389375
0.033303501
0.033288203
0.033242589
0.033132389
0.0328766
0.032277488
0.030841496
0.027768047
0.024001078
0.023903802
0.027443847
0.027676786
0.016366908
0.033080659
0.033062404
0.03300959
0.032886524
0.032607559
0.031952311
0.030367144
0.027204004
0.02433601
0.025808536
0.029640409
0.028850257
0.01635471
0.032871707
0.032850677
0.032791627
0.032658586
0.032361164
0.031649138
0.029912405
0.026815113
0.025128026
0.027972561
0.031731261
0.029871995
0.016348606
0.032675278
0.032651931
0.032588332
0.032449362
0.032138606
0.031366538
0.029490156
0.026676983
0.02636662
0.030291378
0.033689748
0.030762439
0.016345973
0.032490392
0.032465523
0.0323999
0.032260198
0.031941021
0.031103392
0.02912715
0.026861559
0.028006318
0.032674378
0.035508202
0.031541613
0.016345289
0.03231644
0.032291251
0.032227075
0.032092906
0.0317693
0.030860474
0.028866522
0.027422392
0.02997661
0.035052625
0.037189756
0.032227633
0.016345749
0.032153193
0.032129365
0.032071151
0.03194966
0.031623986
0.030643052
0.028765901
0.028384666
0.032194873
0.037379728
0.038742713
0.03283612
0.016346971
0.032000817
0.031980587
0.031933965
0.031832869
0.031505423
0.030464306
0.028890209
0.029742269
0.034578895
0.039628039
0.040177388
0.03338011
0.016348812
0.031859898
0.031846136
0.031817892
0.031745018
0.031414332
0.030348688
0.029300796
0.031461309
0.037056244
0.041783221
0.041504536
0.033870256
0.016351246
0.031731488
0.031727775
0.031725824
0.031688525
0.031353059
0.030333689
0.030044463
0.033487925
0.039569151
0.043839375
0.042734578
0.034315152
0.016354289
0.031617156
0.031627852
0.031661123
0.031665646
0.031327616
0.030468391
0.031145812
0.035757862
0.042075207
0.045795594
0.043877213
0.034721702
0.016357969
0.031519059
0.031549348
0.031627545
0.031678558
0.031350386
0.030808117
0.032604584
0.038205563
0.044545298
0.047653852
0.044941234
0.035095454
0.016362308
0.03144002
0.031495925
0.031629136
0.031729781
0.031442847
0.031406233
0.034397782
0.040771061
0.046960465
0.04941777
0.045934484
0.035440885
0.01636731
0.031383622
0.031471952
0.031670108
0.031823119
0.03163718
0.032305488
0.03648515
0.043403916
0.049308923
0.051091864
0.046863895
0.035761637
0.016372969
0.03135431
0.031482518
0.031754745
0.031965285
0.031975485
0.033531428
0.038816233
0.04606436
0.051583768
0.052681065
0.047735561
0.036060691
0.016379266
0.031357497
0.031533412
0.031887427
0.032168112
0.032505945
0.035089409
0.041337344
0.048722489
0.053781402
0.054190402
0.048554836
0.036340517
0.016386174
0.03139966
0.031631057
0.032072921
0.032450915
0.033276474
0.036965351
0.043997167
0.051356522
0.055900493
0.055624809
0.04932644
0.036603249
0.016393659
0.031488426
0.031782428
0.03231711
0.032842099
0.03432751
0.039129415
0.046750331
0.0539509
0.057941207
0.056988872
0.050054079
0.036848496
0.016401672
0.031632621
0.031994973
0.032628309
0.033378944
0.035685988
0.0415413
0.049558966
0.056494684
0.059904719
0.058286905
0.050741228
0.037078062
0.016410157
0.031842264
0.032276621
0.033019162
0.03410484
0.037361929
0.044155836
0.052392716
0.058980327
0.061792817
0.059522759
0.051390028
0.037293994
0.016419061
0.03212853
0.032636022
0.033508772
0.035064181
0.039348112
0.046927807
0.055227861
0.061402784
0.063607644
0.060699938
0.052002678
0.037497696
0.016428334
0.03250367
0.033083205
0.034124298
0.036296101
0.041622405
0.04981536
0.058046137
0.063758863
0.065351548
0.06182164
0.052582581
0.037690194
0.016437945
0.032981002
0.033630797
0.03490106
0.037828734
0.044151817
0.052781871
0.060833587
0.066046681
0.067026702
0.062889501
0.053132469
0.03787253
0.016447872
0.033575094
0.034295805
0.035880367
0.039675451
0.046897157
0.055796506
0.063579601
0.068265332
0.068635569
0.063907355
0.053654302
0.038045474
0.016458088
0.034302368
0.035101605
0.037105069
0.041833721
0.049817347
0.058833934
0.066276153
0.070414393
0.070179108
0.064878397
0.054149994
0.038209783
0.016468569
0.035182278
0.036079354
0.038613762
0.044286504
0.052872734
0.061873596
0.068917174
0.072494024
0.071660187
0.065805209
0.054621164
0.038366085
0.016479288
0.036239042
0.037267811
0.040435155
0.047005435
0.056027174
0.064898913
0.071498023
0.074503817
0.07308148
0.066690098
0.055069325
0.038514917
0.016490218
0.037503417
0.038710789
0.042584044
0.049954861
0.059248935
0.067896461
0.074015179
0.076444638
0.074445473
0.067535116
0.055495818
0.038656742
0.016501334
0.039013499
0.040452267
0.045059716
0.05309583
0.062510843
0.070855331
0.07646532
0.078317607
0.075754301
0.068342164
0.055901825
0.038791952
0.01651261
0.040813301
0.042530157
0.047846807
0.056389295
0.065789804
0.073766502
0.07884646
0.080124247
0.077009863
0.069112935
0.056288382
0.03892088
0.016524019
0.042948309
0.044970316
0.050918049
0.059798374
0.069066316
0.076621962
0.08115691
0.081865788
0.07821392
0.069848938
0.056656392
0.039043803
0.016535536
0.045458363
0.04778228
0.054237936
0.063289379
0.072323482
0.079415199
0.083396335
0.083543321
0.079368013
0.070551486
0.057006625
0.039160948
0.016547136
0.048369475
0.050957547
0.057766447
0.066832229
0.075546547
0.082140736
0.085564126
0.085157802
0.080473479
0.071221705
0.057339733
0.039272495
0.016558794
0.0516869
0.054470394
0.061462099
0.070399913
0.078721982
0.084794905
0.087659689
0.086709986
0.081531427
0.07186053
0.057656246
0.039378584
0.016570485
0.055391467
0.058280533
0.065283664
0.073967537
0.081839605
0.087374103
0.089682322
0.088200393
0.082542727
0.072468715
0.057956586
0.039479308
0.016582185
0.059440033
0.062336498
0.069190797
0.077514004
0.084890571
0.089874879
0.091631146
0.089629282
0.083508004
0.073046821
0.058241062
0.039574724
0.016593867
0.063769479
0.066579728
0.073146301
0.081021478
0.087866739
0.092293809
0.093505052
0.090996624
0.084427628
0.073595228
0.058509874
0.039664847
0.016605507
0.068304175
0.070949141
0.077116129
0.08447372
0.09076049
0.094627439
0.095302679
0.092302097
0.085301711
0.074114124
0.058763116
0.039749651
0.016617076
0.072963974
0.075384352
0.081068538
0.087855786
0.093564628
0.096872254
0.097022416
0.09354509
0.086130114
0.07460352
0.059000775
0.039829075
0.016628545
0.077671229
0.079828368
0.084974046
0.091153826
0.09627233
0.09902471
0.098662435
0.094724731
0.086912467
0.075063254
0.059222743
0.039903019
0.016639885
0.082355857
0.084229585
0.088805536
0.094355001
0.098877157
0.10108129
0.10022076
0.095839935
0.087648192
0.075493011
0.059428818
0.03997135
0.016651062
0.086958214
0.088543084
0.092538486
0.097447494
0.10137312
0.10303863
0.10169536
0.096889471
0.088336559
0.075892349
0.059618726
0.040033908
0.016662041
0.09143009
0.092731269
0.096151243
0.10042061
0.10375477
0.10489358
0.10308425
0.097872055
0.088976739
0.076260741
0.059792135
0.040090512
0.016672786
0.095734371
0.096763938
0.099625279
0.10326491
0.10601733
0.10664339
0.10438564
0.098786448
0.08956788
0.076597614
0.059948684
0.040140973
0.016683256
0.099843915
0.10061792
0.10294534
0.10597237
0.10815677
0.10828579
0.10559802
0.099631564
0.090109189
0.07690241
0.060088011
0.040185101
0.016693411
0.10374009
0.10427641
0.10609947
0.10853648
0.11016994
0.10981913
0.1067203
0.10040657
0.090600013
0.07717464
0.06020979
0.040222726
0.016703211
0.10741125
0.10772818
0.10907891
0.11095233
0.11205463
0.11124241
0.1077519
0.10111099
0.091039918
0.077413942
0.060313762
0.040253708
0.016712613
0.11085135
0.11096672
0.11187792
0.11321663
0.11380962
0.11255537
0.10869279
0.10174474
0.091428756
0.077620136
0.060399773
0.040277956
0.016721579
0.11405873
0.11398939
0.11449343
0.11532767
0.1154347
0.11375851
0.10954356
0.10230824
0.09176672
0.077793267
0.060467799
0.040295437
0.01673007
0.11703509
0.11679672
0.11692478
0.11728526
0.11693062
0.11485307
0.11030539
0.10280238
0.092054378
0.077933637
0.060517973
0.040306186
0.016738055
0.11978469
0.1193917
0.11917334
0.11909056
0.11829906
0.11584098
0.11098009
0.10322857
0.092292691
0.078041827
0.060550597
0.040310317
0.016745503
0.1223137
0.12177926
0.12124219
0.12074596
0.11954254
0.11672487
0.11157001
0.1035887
0.092483007
0.078118704
0.060566153
0.040308024
0.016752393
0.12462969
0.1239658
0.12313582
0.12225492
0.12066435
0.11750792
0.11207804
0.10388509
0.092627047
0.07816541
0.060565295
0.040299578
0.016758707
0.12674121
0.12595882
0.12485982
0.12362181
0.12166845
0.11819388
0.11250749
0.10412048
0.092726871
0.078183347
0.060548846
0.040285324
0.016764435
0.12865753
0.12776658
0.12642063
0.12485173
0.12255934
0.11878689
0.11286207
0.10429796
0.092784836
0.078174146
0.060517772
0.040265672
0.016769575
0.13038831
0.12939791
0.12782536
0.12595038
0.12334198
0.11929147
0.11314578
0.10442087
0.092803542
0.078139633
0.06047317
0.040241088
0.01677413
0.13194349
0.13086195
0.12908156
0.1269239
0.12402169
0.1197124
0.11336287
0.10449278
0.092785787
0.078081789
0.060416235
0.040212078
0.016778109
0.1333331
0.13216803
0.1301971
0.12777874
0.12460404
0.12005465
0.11351775
0.10451743
0.092734505
0.078002709
0.060348234
0.040179178
0.016781528
0.13456715
0.13332553
0.13118
0.12852159
0.12509476
0.12032334
0.1136149
0.10449863
0.09265272
0.07790456
0.06027048
0.040142941
0.016784407
0.13565551
0.13434377
0.13203834
0.12915922
0.12549969
0.12052361
0.11365888
0.10444022
0.092543492
0.07778954
0.060184305
0.040103922
0.016786771
0.13660789
0.13523194
0.1327802
0.12969846
0.12582468
0.12066062
0.11365421
0.10434605
0.092409877
0.077659847
0.060091035
0.040062671
0.016788648
0.13743375
0.13599903
0.13341351
0.13014607
0.12607555
0.12073947
0.11360536
0.1042199
0.092254884
0.07751764
0.059991966
0.040019716
0.016790068
0.13814224
0.13665378
0.13394606
0.13050872
0.12625805
0.12076518
0.11351669
0.10406546
0.092081442
0.077365016
0.059888349
0.039975565
0.016791065
0.13874221
0.13720463
0.13438542
0.13079294
0.12637778
0.12074264
0.11339244
0.1038863
0.091892376
0.077203987
0.059781374
0.039930688
0.016791671
0.13924213
0.13765973
0.13473894
0.13100508
0.1264402
0.12067656
0.1132367
0.10368584
0.09169038
0.077036459
0.059672156
0.039885523
0.016791921
0.13965014
0.13802687
0.13501364
0.13115125
0.12645058
0.12057151
0.11305338
0.10346734
0.091478003
0.07686422
0.059561728
0.039840465
0.01679185
0.13997398
0.1383135
0.13521631
0.13123733
0.12641397
0.12043183
0.11284619
0.10323388
0.091257634
0.076688928
0.059451034
0.039795869
0.016791489
0.140221
0.13852668
0.13535338
0.13126897
0.12633522
0.12026168
0.11261865
0.10298834
0.091031496
0.076512108
0.05934093
0.039752046
0.016790873
0.14039818
0.13867315
0.13543099
0.13125153
0.12621893
0.12006498
0.11237408
0.10273342
0.090801637
0.076335148
0.059232176
0.039709269
0.016790032
0.14051211
0.13875925
0.13545495
0.1311901
0.12606946
0.11984545
0.11211557
0.10247162
0.090569936
0.076159297
0.059125443
0.039667767
0.016788996
0.140569
0.13879098
0.13543076
0.1310895
0.12589094
0.11960654
0.111846
0.10220523
0.090338094
0.075985666
0.059021312
0.03962773
0.016787793
0.14057468
0.13877396
0.13536357
0.13095426
0.12568725
0.11935154
0.11156805
0.10193635
0.090107639
0.07581522
0.058920231
0.0395891
0.016786448
0.14053463
0.13871349
0.13525824
0.13078866
0.12546202
0.11908346
0.11128418
0.1016669
0.089879925
0.075648785
0.058822556
0.03955183
0.016784983
0.14045396
0.1386145
0.13511933
0.13059669
0.12521863
0.11880511
0.11099664
0.10139858
0.089656125
0.075486997
0.05872831
0.039516209
0.016783417
0.14033744
0.13848161
0.13495107
0.13038206
0.12496025
0.11851908
0.11070747
0.10113291
0.089437265
0.075330438
0.058637833
0.039482363
0.016781769
0.14018953
0.13831913
0.13475743
0.13014826
0.1246898
0.11822775
0.11041853
0.10087123
0.089224134
0.075179233
0.05855156
0.039450385
0.01678006
0.14001436
0.13813103
0.13454208
0.12989851
0.12440997
0.11793328
0.11013145
0.10061466
0.089017364
0.075034075
0.058469637
0.039420324
0.016778308
0.13981575
0.13792103
0.13430843
0.12963576
0.12412324
0.11763763
0.10984771
0.1003642
0.088817496
0.074895426
0.058392188
0.039392212
0.016776532
0.13959724
0.13769255
0.13405962
0.12936277
0.12383187
0.11734257
0.10956853
0.10012049
0.088625329
0.07476353
0.058319293
0.039366061
0.016774745
0.13936211
0.13744875
0.13379855
0.12908205
0.1235379
0.11704963
0.10929495
0.099884473
0.088441328
0.074638563
0.058250989
0.039341861
0.016772962
0.13911336
0.13719252
0.13352787
0.12879588
0.12324317
0.11676017
0.10902796
0.09965694
0.088265834
0.074520639
0.058187272
0.039319585
0.016771194
0.13885374
0.13692653
0.13325002
0.12850633
0.1229493
0.11647534
0.10876864
0.099438438
0.088099101
0.074409813
0.058128105
0.039299193
0.016769452
0.13858577
0.13665319
0.13296718
0.12821521
0.12265767
0.11619646
0.10851778
0.099229404
0.087941299
0.074306086
0.058073422
0.03928063
0.016767744
0.13831173
0.13637469
0.13268127
0.12792418
0.12236982
0.11592458
0.10827604
0.099030174
0.087792521
0.074209412
0.058023129
0.039263836
0.016766078
0.13803365
0.13609295
0.13239411
0.12763488
0.12208703
0.11566061
0.10804397
0.098840986
0.087652795
0.074119699
0.057977112
0.039248741
0.01676446
0.13775338
0.13580981
0.13210742
0.12734878
0.12181043
0.1154053
0.10782199
0.098661997
0.087522088
0.074036819
0.057935237
0.039235272
0.016762895
0.13747265
0.13552694
0.13182273
0.12706718
0.12154098
0.1151593
0.10761042
0.098493285
0.087400314
0.073960613
0.057897355
0.039223348
0.016761388
0.13719303
0.13524588
0.13154144
0.12679123
0.12127953
0.11492312
0.10740951
0.098334857
0.087287337
0.073890893
0.057863305
0.039212891
0.016759942
0.13691594
0.13496799
0.13126477
0.12652192
0.1210268
0.11469718
0.1072194
0.098186659
0.087182982
0.073827448
0.057832919
0.039203816
0.016758559
0.13664265
0.1346945
0.13099381
0.12626013
0.12078338
0.1144818
0.10704015
0.098048579
0.087087035
0.073770047
0.05780602
0.039196041
0.016757243
0.13637431
0.13442648
0.13072952
0.1260066
0.12054977
0.11427721
0.10687178
0.097920458
0.086999254
0.073718446
0.057782425
0.039189482
0.016755993
0.13611191
0.1341649
0.13047273
0.12576196
0.12032635
0.11408354
0.10671422
0.097802089
0.086919369
0.073672386
0.057761952
0.039184058
0.016754811
0.13585634
0.13391059
0.13022414
0.12552674
0.12011341
0.11390088
0.10656735
0.09769323
0.086847088
0.073631602
0.057744415
0.039179687
0.016753697
0.13560835
0.13366425
0.12998435
0.12530136
0.11991118
0.11372922
0.106431
0.097593604
0.086782103
0.073595821
0.057729629
0.03917629
0.01675265
0.13536859
0.13342649
0.12975387
0.12508615
0.11971977
0.1135685
0.10630495
0.097502909
0.086724091
0.073564768
0.057717412
0.039173791
0.016751671
0.13513762
0.13319782
0.12953309
0.12488135
0.11953926
0.1134186
0.10618897
0.097420817
0.08667272
0.073538166
0.057707584
0.039172116
0.016750758
0.13491587
0.13297864
0.12932232
0.12468714
0.11936963
0.11327936
0.10608275
0.097346985
0.086627652
0.07351574
0.05769997
0.039171192
0.01674991
0.13470371
0.13276928
0.12912181
0.1245036
0.11921082
0.11315057
0.10598599
0.097281053
0.086588544
0.073497217
0.057694397
0.039170951
0.016749125
0.13450141
0.13256998
0.1289317
0.12433078
0.11906273
0.11303198
0.10589835
0.097222652
0.086555054
0.073482329
0.057690701
0.039171328
0.016748403
0.13430917
0.1323809
0.12875209
0.12416863
0.11892518
0.11292332
0.10581947
0.097171405
0.086526838
0.073470813
0.057688721
0.03917226
0.01674774
0.13412714
0.13220215
0.128583
0.12401709
0.11879797
0.11282426
0.10574898
0.097126929
0.086503559
0.073462412
0.057688304
0.039173689
0.016747135
0.13395536
0.13203377
0.12842441
0.123876
0.11868086
0.11273449
0.1056865
0.09708884
0.08648488
0.073456878
0.057689301
0.039175559
0.016746587
0.13379384
0.13187572
0.12827622
0.12374521
0.11857357
0.11265364
0.10563163
0.097056756
0.086470473
0.073453969
0.057691572
0.039177816
0.016746092
0.13364255
0.13172794
0.1281383
0.12362449
0.1184758
0.11258134
0.10558397
0.097030294
0.086460017
0.073453452
0.057694982
0.03918041
0.016745649
0.13350136
0.1315903
0.12801047
0.12351358
0.11838722
0.1125172
0.10554312
0.097009076
0.086453196
0.073455103
0.057699403
0.039183295
0.016745255
0.13337015
0.13146263
0.12789253
0.12341222
0.11830747
0.11246083
0.10550868
0.09699273
0.086449708
0.073458706
0.057704714
0.039186426
0.016744907
0.13324872
0.13134474
0.12778422
0.12332007
0.11823619
0.11241183
0.10548024
0.09698089
0.086449255
0.073464055
0.057710798
0.039189762
0.016744604
0.13313684
0.13123637
0.12768526
0.12323682
0.118173
0.11236979
0.1054574
0.096973201
0.086451555
0.073470955
0.057717549
0.039193264
0.016744342
0.13303428
0.13113727
0.12759534
0.1231621
0.11811749
0.11233429
0.10543976
0.096969315
0.086456333
0.073479218
0.057724864
0.039196898
0.01674412
0.13294074
0.13104712
0.12751414
0.12309556
0.11806928
0.11230493
0.10542695
0.096968897
0.08646333
0.073488669
0.057732648
0.039200629
0.016743934
0.13285592
0.13096562
0.12744131
0.12303681
0.11802797
0.11228131
0.10541857
0.096971625
0.086472296
0.073499143
0.057740814
0.039204429
0.016743783
0.1327795
0.13089244
0.12737649
0.12298546
0.11799313
0.11226302
0.10541428
0.096977189
0.086482996
0.073510484
0.057749278
0.039208268
0.016743663
0.13271113
0.13082721
0.12731931
0.12294113
0.11796439
0.11224967
0.1054137
0.096985293
0.086495209
0.073522548
0.057757967
0.039212124
0.016743574
0.13265047
0.13076958
0.1272694
0.12290342
0.11794133
0.11224089
0.1054165
0.096995655
0.086508724
0.073535199
0.057766811
0.039215972
0.016743512
0.13259715
0.13071918
0.12722637
0.12287193
0.11792356
0.1122363
0.10542236
0.097008008
0.086523345
0.073548314
0.057775747
0.039219792
0.016743475
0.13255081
0.13067564
0.12718983
0.12284628
0.1179107
0.11223554
0.10543094
0.097022097
0.086538888
0.073561775
0.057784716
0.039223567
0.016743461
0.13251106
0.13063856
0.1271594
0.12282607
0.11790237
0.11223826
0.10544196
0.097037683
0.086555179
0.073575475
0.057793667
0.039227279
0.016743469
0.13247753
0.13060758
0.12713469
0.12281092
0.11789819
0.11224412
0.10545513
0.097054538
0.086572059
0.073589317
0.057802551
0.039230914
0.016743496
0.13244984
0.1305823
0.12711531
0.12280044
0.11789781
0.1122528
0.10547017
0.097072449
0.086589376
0.073603208
0.057811324
0.039234459
0.016743539
0.13242761
0.13056235
0.12710088
0.12279426
0.11790087
0.11226399
0.10548681
0.097091215
0.086606992
0.073617065
0.057819947
0.039237902
0.016743599
0.13241046
0.13054735
0.12709102
0.12279202
0.11790704
0.11227738
0.10550483
0.097110648
0.086624778
0.073630813
0.057828385
0.039241232
0.016743672
0.13239802
0.13053692
0.12708538
0.12279337
0.11791599
0.1122927
0.10552397
0.097130577
0.086642616
0.073644382
0.057836606
0.039244442
0.016743756
0.13238994
0.13053071
0.12708359
0.12279797
0.11792742
0.11230968
0.10554404
0.097150839
0.086660399
0.073657713
0.057844585
0.039247524
0.016743852
0.13238585
0.13052837
0.12708531
0.12280548
0.11794103
0.11232806
0.10556482
0.097171289
0.086678032
0.073670751
0.057852296
0.039250458
0.016743955
0.13238541
0.13052954
0.1270902
0.12281561
0.11795653
0.11234762
0.10558614
0.097191793
0.086695428
0.073683449
0.057859716
0.039253226
0.016744066
0.13238829
0.13053391
0.12709795
0.12282804
0.11797367
0.11236813
0.10560783
0.097212231
0.08671251
0.07369576
0.057866809
0.03925584
0.016744183
0.13239417
0.13054115
0.12710825
0.12284251
0.1179922
0.11238939
0.10562972
0.097232494
0.08672921
0.073707649
0.057873565
0.039258304
0.016744303
0.13240275
0.13055097
0.12712081
0.12285873
0.11801189
0.11241121
0.10565168
0.097252482
0.086745463
0.073719066
0.057879991
0.039260621
0.016744427
0.13241373
0.13056307
0.12713535
0.12287647
0.11803252
0.11243343
0.10567358
0.097272106
0.086761217
0.073729998
0.057886084
0.039262792
0.016744554
0.13242684
0.13057718
0.12715162
0.12289548
0.11805389
0.11245586
0.10569529
0.097291284
0.086776405
0.073740441
0.057891841
0.039264821
0.016744682
0.13244179
0.13059303
0.12716935
0.12291553
0.11807581
0.11247838
0.10571671
0.097309935
0.08679101
0.073750382
0.057897262
0.039266712
0.016744811
0.13245834
0.13061037
0.12718832
0.12293641
0.1180981
0.11250083
0.10573773
0.097327996
0.08680501
0.073759811
0.057902349
0.039268467
0.01674494
0.13247624
0.13062897
0.12720829
0.12295793
0.11812059
0.11252308
0.10575825
0.097345431
0.086818382
0.073768723
0.057907104
0.03927009
0.016745068
0.13249526
0.13064859
0.12722906
0.1229799
0.11814313
0.11254502
0.10577822
0.097362199
0.086831106
0.073777113
0.057911532
0.039271584
0.016745195
0.13251519
0.13066902
0.12725043
0.12300214
0.11816556
0.11256653
0.10579756
0.097378265
0.086843169
0.073784983
0.057915637
0.039272954
0.01674532
0.13253582
0.13069008
0.12727221
0.12302448
0.11818778
0.11258756
0.10581624
0.097393602
0.086854562
0.073792336
0.057919428
0.039274202
0.016745443
0.13255696
0.13071156
0.12729423
0.12304678
0.11820966
0.11260801
0.10583419
0.097408189
0.086865283
0.073799177
0.057922911
0.039275334
0.016745563
0.13257844
0.13073331
0.12731633
0.12306893
0.11823113
0.11262783
0.10585139
0.097422012
0.086875332
0.073805517
0.057926097
0.039276354
0.016745679
0.1326001
0.13075515
0.12733838
0.1230908
0.11825209
0.11264696
0.10586781
0.097435065
0.086884718
0.073811367
0.057928995
0.039277268
0.016745792
0.13262178
0.13077698
0.12736026
0.12311231
0.11827248
0.11266536
0.10588343
0.097447347
0.086893449
0.07381674
0.057931618
0.03927808
0.016745901
0.13264338
0.13079865
0.12738187
0.12313335
0.11829223
0.112683
0.10589824
0.09745886
0.086901538
0.073821653
0.057933977
0.039278796
0.016746006
0.13266476
0.13082006
0.1274031
0.12315387
0.11831129
0.11269983
0.10591222
0.097469612
0.086908999
0.073826121
0.057936084
0.039279421
0.016746107
0.13268584
0.13084113
0.12742387
0.12317379
0.11832962
0.11271586
0.10592538
0.097479612
0.08691585
0.07383016
0.05793795
0.03927996
0.016746203
0.13270653
0.13086175
0.12744411
0.12319305
0.11834718
0.11273105
0.10593772
0.097488872
0.086922108
0.073833786
0.057939587
0.039280417
0.016746294
0.13272673
0.13088186
0.12746376
0.12321161
0.11836394
0.1127454
0.10594924
0.09749741
0.08692779
0.073837017
0.057941006
0.039280797
0.016746381
0.1327464
0.13090139
0.12748276
0.12322943
0.11837989
0.1127589
0.10595996
0.097505243
0.086932919
0.07383987
0.057942218
0.039281105
0.016746463
0.13276547
0.1309203
0.12750106
0.12324648
0.11839502
0.11277157
0.10596988
0.097512395
0.086937517
0.073842364
0.057943235
0.039281345
0.01674654
0.1327839
0.13093853
0.12751864
0.12326275
0.11840931
0.11278342
0.10597904
0.097518892
0.086941611
0.07384452
0.057944071
0.039281522
0.016746612
0.13280164
0.13095606
0.12753547
0.12327822
0.11842278
0.11279445
0.10598746
0.097524765
0.086945229
0.073846362
0.057944741
0.039281643
0.016746679
0.13281867
0.13097285
0.12755153
0.12329287
0.11843543
0.1128047
0.10599517
0.097530047
0.086948404
0.073847915
0.05794526
0.039281715
0.016746742
0.13283495
0.13098889
0.1275668
0.12330672
0.11844727
0.11281418
0.1060022
0.097534772
0.086951166
0.073849203
0.057945644
0.039281743
0.0167468
0.13285045
0.13100413
0.12758126
0.12331976
0.11845831
0.11282291
0.10600858
0.09753897
0.086953546
0.073850251
0.05794591
0.039281735
0.016746855
0.13286516
0.13101857
0.12759491
0.12333197
0.11846857
0.11283092
0.10601432
0.097542667
0.086955566
0.073851078
0.057946068
0.039281694
0.016746905
0.13287903
0.13103217
0.12760771
0.12334335
0.11847803
0.11283821
0.10601946
0.097545884
0.086957247
0.073851698
0.057946128
0.039281624
0.016746952
0.13289205
0.13104492
0.12761967
0.1233539
0.11848669
0.11284479
0.106024
0.097548632
0.086958598
0.07385212
0.057946094
0.039281526
0.016746995
0.1329042
0.1310568
0.12763075
0.1233636
0.11849457
0.11285066
0.10602794
0.097550919
0.086959627
0.073852346
0.057945966
0.039281398
0.016747034
0.13291548
0.13106779
0.12764096
0.12337246
0.11850166
0.11285583
0.1060313
0.097552752
0.086960336
0.073852376
0.057945741
0.039281239
0.016747069
0.13292588
0.13107792
0.12765031
0.12338049
0.11850797
0.11286031
0.10603408
0.09755414
0.086960731
0.073852212
0.057945418
0.039281046
0.0167471
0.13293545
0.13108721
0.12765883
0.12338771
0.11851355
0.11286414
0.10603632
0.097555104
0.086960823
0.073851857
0.057944996
0.039280818
0.016747125
0.13294422
0.1310957
0.12766656
0.12339418
0.11851843
0.11286736
0.10603806
0.097555678
0.086960637
0.073851325
0.057944483
0.039280559
0.016747147
0.13295228
0.13110347
0.12767358
0.12339997
0.11852268
0.11287005
0.10603935
0.097555911
0.086960211
0.073850644
0.057943894
0.039280274
0.016747163
0.1329597
0.1311106
0.12767996
0.12340516
0.1185264
0.11287227
0.10604027
0.09755587
0.086959597
0.073849851
0.057943251
0.039279973
0.016747176
0.13296655
0.13111716
0.1276858
0.12340984
0.11852968
0.11287413
0.10604091
0.097555628
0.086958858
0.073848993
0.057942585
0.039279671
0.016747186
0.13297291
0.13112323
0.12769116
0.1234141
0.11853259
0.1128757
0.10604135
0.097555259
0.086958056
0.073848118
0.057941926
0.039279381
0.016747194
0.13297881
0.13112885
0.1276961
0.12341798
0.11853519
0.11287705
0.10604165
0.097554824
0.086957244
0.073847269
0.057941305
0.039279114
0.016747202
0.13298426
0.13113403
0.12770063
0.12342151
0.11853752
0.11287821
0.10604185
0.09755436
0.086956459
0.073846475
0.057940739
0.039278879
0.01674721
0.13298921
0.13113874
0.12770474
0.12342467
0.11853958
0.11287918
0.10604194
0.097553875
0.086955709
0.073845746
0.057940235
0.039278677
0.016747219
0.13299361
0.13114292
0.12770836
0.12342743
0.1185413
0.11287993
0.10604191
0.097553342
0.086954974
0.073845067
0.057939783
0.039278503
0.016747229
0.13299738
0.13114649
0.12771143
0.12342969
0.11854263
0.11288038
0.10604168
0.097552703
0.086954204
0.073844398
0.057939356
0.039278342
0.016747238
0.13300043
0.13114937
0.12771384
0.12343138
0.11854348
0.11288045
0.10604118
0.097551886
0.086953335
0.073843685
0.057938916
0.039278176
0.016747246
0.1330027
0.1311515
0.12771556
0.12343243
0.11854378
0.11288007
0.10604032
0.097550816
0.086952298
0.073842871
0.057938421
0.039277986
0.016747252
0.1330042
0.13115287
0.12771654
0.12343282
0.11854349
0.1128792
0.10603907
0.097549439
0.086951038
0.073841906
0.057937837
0.039277757
0.016747252
0.13300499
0.13115353
0.12771684
0.12343257
0.11854264
0.11287784
0.10603741
0.097547742
0.086949533
0.073840766
0.057937143
0.039277473
0.016747247
0.13300518
0.13115359
0.12771656
0.12343179
0.1185413
0.11287606
0.10603541
0.097545757
0.086947801
0.073839457
0.05793634
0.039277139
0.016747236
0.13300496
0.13115324
0.12771587
0.12343061
0.11853962
0.11287399
0.10603316
0.097543571
0.086945906
0.073838024
0.057935454
0.039276772
0.01674722
0.13300455
0.13115267
0.12771497
0.12342925
0.11853778
0.1128718
0.10603081
0.097541313
0.086943952
0.073836542
0.057934538
0.039276398
0.0167472
0.13300417
0.13115212
0.12771408
0.12342791
0.118536
0.11286968
0.10602856
0.097539141
0.086942071
0.073835118
0.057933663
0.039276054
0.016747179
0.133004
0.13115176
0.12771339
0.12342679
0.11853444
0.11286781
0.10602655
0.09753721
0.086940403
0.073833862
0.057932903
0.039275773
0.01674716
0.13300413
0.13115171
0.12771301
0.123426
0.11853325
0.11286632
0.10602494
0.097535645
0.086939062
0.073832874
0.057932327
0.039275575
0.016747146
0.1330046
0.13115199
0.12771298
0.12342559
0.11853247
0.11286527
0.10602376
0.097534504
0.086938104
0.073832201
0.057931968
0.039275473
0.016747139
0.13300529
0.13115253
0.12771324
0.1234255
0.11853205
0.1128646
0.10602298
0.097533762
0.086937512
0.07383183