/*--------------------------------*- C++ -*----------------------------------*\
| =========                 |                                                 |
| \\      /  F ield         | OpenFOAM: The Open Source CFD Toolbox           |
|  \\    /   O peration     | Version:  2506                                  |
|   \\  /    A nd           | Website:  www.openfoam.com                      |
|    \\/     M anipulation  |                                                 |
\*---------------------------------------------------------------------------*/
FoamFile
{
    version     2.0;
    format      ascii;
    arch        "LSB;label=32;scalar=64";
    class       volScalarField;
    location    "7000/water";
    object      k;
}
// * * * * * * * * * * * * * * * * * * * * * * * * * * * * * * * * * * * * * //

dimensions      [0 2 -2 0 0 0 0];

internalField   nonuniform List<scalar> 
2600
(
0.0001992401
0.00019923925
0.00019923929
0.00019923963
0.00019923982
0.00019923914
0.00019923438
0.00019921375
0.00019914651
0.00019904325
0.00019990841
0.00021454267
0.00040955349
0.00017237279
0.00017237614
0.00017237826
0.00017238051
0.0001723821
0.00017237949
0.00017235884
0.00017227555
0.000172027
0.00017162102
0.00017329371
0.00020304806
0.00052391648
0.00015132731
0.00015133049
0.00015133306
0.00015133552
0.00015133516
0.00015132207
0.00015126283
0.00015106462
0.00015055477
0.00014985944
0.0001528957
0.00019760629
0.00057958156
0.00013448336
0.00013448533
0.00013448764
0.00013448905
0.00013448325
0.00013445009
0.00013432997
0.00013398205
0.00013321503
0.00013247936
0.00013787909
0.00019702317
0.00059640815
0.00012075551
0.00012075697
0.00012075853
0.00012075718
0.00012074152
0.0001206782
0.00012048052
0.00011997843
0.0001190486
0.00011870929
0.00012776334
0.00020116854
0.00059206885
0.0001093899
0.00010939088
0.000109391
0.00010938492
0.00010935483
0.00010925313
0.00010897207
0.00010834649
0.00010742643
0.0001080609
0.00012226457
0.00021023394
0.00057809221
9.984982e-05
9.9850093e-05
9.9847944e-05
9.9835056e-05
9.9786463e-05
9.9641865e-05
9.9284958e-05
9.859999e-05
9.7925044e-05
0.00010022517
0.00012123091
0.00022425603
0.00056106272
9.1744874e-05
9.174416e-05
9.1738826e-05
9.1717148e-05
9.1647174e-05
9.1460104e-05
9.1049018e-05
9.0398665e-05
9.0258419e-05
9.5030413e-05
0.00012461431
0.00024286356
0.00054449405
8.4785472e-05
8.4783454e-05
8.4774018e-05
8.4741918e-05
8.4649457e-05
8.4426122e-05
8.3996574e-05
8.3502376e-05
8.4241543e-05
9.2421343e-05
0.00013239492
0.00026511347
0.00053012765
7.8752977e-05
7.8749319e-05
7.8734951e-05
7.8691403e-05
7.8577619e-05
7.8330528e-05
7.7932172e-05
7.7743318e-05
7.9771153e-05
9.2438122e-05
0.00014444361
0.00028951151
0.0005186607
7.3479682e-05
7.3474066e-05
7.3454131e-05
7.3398964e-05
7.3267704e-05
7.3016085e-05
7.2712929e-05
7.3009357e-05
7.6815021e-05
9.5182832e-05
0.00016036324
0.00031428525
0.00051014247
6.8835097e-05
6.8827266e-05
6.8801436e-05
6.8735571e-05
6.8593744e-05
6.836405e-05
6.8235745e-05
6.9234209e-05
7.5403716e-05
0.00010076472
0.00017939076
0.00033780739
0.0005042266
6.4716374e-05
6.4706175e-05
6.4674551e-05
6.4600233e-05
6.4458202e-05
6.4284863e-05
6.4429045e-05
6.6391811e-05
7.5619872e-05
0.0001092241
0.00020043528
0.00035894529
0.00050037283
6.1041501e-05
6.1028932e-05
6.0992164e-05
6.091321e-05
6.0785257e-05
6.0711783e-05
6.1247563e-05
6.4493003e-05
7.7580807e-05
0.00012045028
0.00022225715
0.00037717552
0.0004980107
5.7744396e-05
5.7729653e-05
5.7689074e-05
5.7611142e-05
5.751606e-05
5.7596592e-05
5.8669223e-05
6.3582872e-05
8.1411587e-05
0.00013412437
0.00024370832
0.00039247762
0.00049664628
5.4771313e-05
5.4754847e-05
5.4712615e-05
5.4643526e-05
5.4605384e-05
5.4906753e-05
5.6693486e-05
6.3736861e-05
8.7208043e-05
0.00014971788
0.00026392364
0.00040513366
0.00049590625
5.2078186e-05
5.206076e-05
5.2020025e-05
5.1970154e-05
5.2019282e-05
5.2623661e-05
5.5340605e-05
6.5053658e-05
9.4994185e-05
0.00016655656
0.0002823955
0.0004155487
0.00049553614
4.9628636e-05
4.9611393e-05
4.9576492e-05
4.9559258e-05
4.9733503e-05
5.0741693e-05
5.4651195e-05
6.7643172e-05
0.00010468473
0.00018392817
0.00029893687
0.00042413794
0.00049537652
4.7392458e-05
4.7377004e-05
4.7353699e-05
4.7386176e-05
4.773248e-05
4.9267886e-05
5.4685329e-05
7.1608743e-05
0.00011606686
0.00020119288
0.00031358495
0.0004312733
0.0004953351
4.5344476e-05
4.5332971e-05
4.5328746e-05
4.5432431e-05
4.600877e-05
4.8222045e-05
5.5520138e-05
7.7024462e-05
0.0001288111
0.00021785898
0.00032650009
0.00043726613
0.00049536293
4.3463657e-05
4.3458933e-05
4.3483358e-05
4.3685127e-05
4.4562868e-05
4.7637065e-05
5.7244888e-05
8.3911106e-05
0.00014251076
0.00023360813
0.00033789056
0.00044236711
0.00049543702
4.1732429e-05
4.173814e-05
4.1803329e-05
4.2136614e-05
4.3403329e-05
4.7559127e-05
5.9952699e-05
9.2216774e-05
0.00015673762
0.00024827797
0.00034796834
0.00044677301
0.00049554866
4.0136167e-05
4.015697e-05
4.0278148e-05
4.0784372e-05
4.2547129e-05
4.8047288e-05
6.3728702e-05
0.00010180889
0.00017109624
0.00026182259
0.0003569282
0.00045063571
0.00049569617
3.8662802e-05
3.8704582e-05
3.8900797e-05
3.9631107e-05
4.2020194e-05
4.9171841e-05
6.8635431e-05
0.00011248166
0.0001852623
0.00027427018
0.00036494028
0.00045407114
0.00049588069
3.7302531e-05
3.7372692e-05
3.7667676e-05
3.8685008e-05
4.1857944e-05
5.1010817e-05
7.4697748e-05
0.00012397798
0.00019899861
0.00028568912
0.00037214923
0.00045716736
0.00049610392
3.6047628e-05
3.6155447e-05
3.6578682e-05
3.7960182e-05
4.2105652e-05
5.3644139e-05
8.1890768e-05
0.00013601989
0.00021215193
0.00029616534
0.00037867608
0.00045999117
0.00049636709
3.4892327e-05
3.5049398e-05
3.5637398e-05
3.7477201e-05
4.2818255e-05
5.7145346e-05
9.013449e-05
0.00014833915
0.00022463802
0.00030578893
0.00038462123
0.0004625934
0.00049667064
3.383279e-05
3.4053569e-05
3.4851411e-05
3.7263736e-05
4.4059204e-05
6.1571463e-05
9.9297382e-05
0.00016070076
0.00023642316
0.00031464713
0.00039006764
0.00046501299
0.00049701416
3.2867148e-05
3.316962e-05
3.4232754e-05
3.7355161e-05
4.589791e-05
6.6952452e-05
0.00010920861
0.00017291579
0.00024750737
0.00032282077
0.00039508378
0.00046727996
0.00049739654
3.1995627e-05
3.2402111e-05
3.3798454e-05
3.7794962e-05
4.8405427e-05
7.3282437e-05
0.00011967597
0.00018484396
0.00025791153
0.00033038288
0.00039972633
0.00046941774
0.00049781615
3.1220754e-05
3.1758868e-05
3.3571166e-05
3.8634688e-05
5.16483e-05
8.0515035e-05
0.00013050501
0.00019638896
0.00026766839
0.00033739835
0.00040404224
0.00047144508
0.00049827105
3.0547674e-05
3.1251458e-05
3.3579859e-05
3.9933128e-05
5.5680955e-05
8.8564413e-05
0.00014151526
0.0002074904
0.00027681665
0.00034392427
0.00040806987
0.00047336165
0.00049875826
2.9984563e-05
3.0895778e-05
3.3860461e-05
4.1754323e-05
6.0537584e-05
9.7312152e-05
0.00015255089
0.00021811501
0.00028539699
0.00035000997
0.00041183983
0.00047517683
0.00049927448
2.9543172e-05
3.071274e-05
3.4456303e-05
4.416415e-05
6.6225006e-05
0.00010661843
0.0001634853
0.00022824915
0.00029345001
0.00035569879
0.00041537498
0.00047690098
0.00049981638
2.9239498e-05
3.072904e-05
3.5418149e-05
4.7225365e-05
7.2718217e-05
0.00011633497
0.00017422102
0.00023789273
0.00030101459
0.00036102773
0.000418694
0.00047854313
0.00050038114
2.9094595e-05
3.0977952e-05
3.6803502e-05
5.0991335e-05
7.9959885e-05
0.00012631696
0.00018468652
0.0002470547
0.00030812684
0.00036602759
0.0004218162
0.0004801151
0.00050096676
2.9135496e-05
3.1500046e-05
3.8674861e-05
5.549919e-05
8.7864167e-05
0.00013643209
0.00019483196
0.00025575015
0.00031482084
0.00037072328
0.00042475509
0.00048162855
0.00050157201
2.9396231e-05
3.2343669e-05
4.1096632e-05
6.0763505e-05
9.6324074e-05
0.00014656574
0.00020462432
0.0002639967
0.00032112526
0.00037513788
0.00042753007
0.00048308916
0.00050219529
2.9918841e-05
3.3564908e-05
4.4130585e-05
6.6771885e-05
0.00010522079
0.00015662302
0.00021404417
0.00027181505
0.00032706606
0.00037928747
0.00043015897
0.00048450265
0.00050283511
3.0754241e-05
3.5226724e-05
4.7830031e-05
7.3483552e-05
0.00011443287
0.00016652783
0.00022308101
0.00027922363
0.00033266467
0.00038319522
0.00043265449
0.00048587307
0.00050348988
3.1962694e-05
3.739684e-05
5.2233345e-05
8.0831452e-05
0.00012384407
0.00017622136
0.00023173236
0.00028624169
0.00033793722
0.00038688252
0.00043502773
0.00048720352
0.00050415803
3.3613502e-05
4.0144088e-05
5.7357845e-05
8.8727389e-05
0.00013334836
0.00018565851
0.00023999854
0.00029288456
0.00034290599
0.00039036648
0.0004372879
0.00048849633
0.00050483796
3.5783405e-05
4.3533071e-05
6.3195307e-05
9.7069227e-05
0.00014285306
0.00019480682
0.00024788468
0.0002991623
0.00034759329
0.00039366186
0.00043944268
0.00048975324
0.00050552811
3.8553066e-05
4.7617431e-05
6.9710114e-05
0.00010574826
0.00015227865
0.00020364077
0.00025539328
0.00030509327
0.00035201757
0.00039678116
0.00044149841
0.00049097544
0.00050622691
4.2001154e-05
5.2432561e-05
7.6840718e-05
0.00011465641
0.00016156001
0.00021214494
0.00026252192
0.00031069681
0.00035619498
0.00039973503
0.00044346029
0.00049216366
0.00050693282
4.619592e-05
5.7988963e-05
8.4503814e-05
0.0001236906
0.00017064177
0.000220299
0.00026928193
0.00031598927
0.00036013924
0.00040253236
0.00044533251
0.00049331825
0.00050764432
5.1185018e-05
6.4267711e-05
9.2600635e-05
0.00013275649
0.00017947939
0.00022808588
0.00027568469
0.00032098502
0.00036386201
0.00040518055
0.00044711835
0.0004944392
0.00050835988
5.6985362e-05
7.1219291e-05
0.00010102457
0.00014177165
0.00018802207
0.00023550303
0.0002817403
0.00032569629
0.00036737303
0.00040768555
0.00044882025
0.00049552614
0.00050907799
6.3575482e-05
7.8766083e-05
0.00010966808
0.00015065102
0.000196237
0.00024254864
0.00028745746
0.0003301333
0.00037068023
0.00041005205
0.00045043987
0.00049657837
0.00050979712
7.0893492e-05
8.6809031e-05
0.000118418
0.00015932164
0.0002040999
0.00024922139
0.00029284336
0.00033430427
0.00037378985
0.00041228348
0.00045197812
0.00049759484
0.00051051571
7.8838275e-05
9.5225386e-05
0.00012716548
0.0001677259
0.00021159053
0.00025552
0.00029790359
0.00033821555
0.00037670649
0.00041438214
0.00045343519
0.00049857419
0.00051123214
8.7271764e-05
0.0001038814
0.00013581418
0.00017581508
0.00021869193
0.00026144298
0.00030264215
0.00034187168
0.00037943326
0.0004163492
0.00045481056
0.00049951471
0.00051194473
9.6036211e-05
0.00011264291
0.00014427887
0.00018354852
0.00022539
0.00026698863
0.00030706161
0.00034527557
0.00038197183
0.00041818479
0.00045610305
0.00050041433
0.00051265169
0.00010496813
0.0001213822
0.0001524859
0.00019089302
0.00023167335
0.00027215518
0.00031116333
0.00034842867
0.00038432262
0.00041988809
0.00045731084
0.00050127065
0.00051335113
0.00011391062
0.00012998324
0.00016037327
0.00019782237
0.00023753334
0.00027694109
0.00031494782
0.00035133129
0.00038648499
0.00042145744
0.00045843154
0.00050208095
0.000514041
0.00012272251
0.0001383452
0.00016789036
0.00020431696
0.00024296425
0.00028134553
0.00031841516
0.00035398296
0.00038845746
0.00042289052
0.00045946231
0.00050284226
0.00051471911
0.00013128391
0.0001463843
0.00017499756
0.00021036347
0.00024796341
0.00028536876
0.00032156551
0.00035638278
0.00039023808
0.00042418455
0.00046039996
0.00050355139
0.00051538316
0.00013949845
0.00015403431
0.0001816656
0.00021595443
0.00025253143
0.00028901262
0.0003243996
0.00035852995
0.00039182471
0.00042533656
0.00046124116
0.00050420508
0.00051603066
0.00014729307
0.00016124585
0.00018787485
0.00022108784
0.00025667212
0.00029228086
0.0003269192
0.00036042415
0.00039321547
0.00042634368
0.00046198263
0.00050480009
0.0005166591
0.00015461614
0.00016798502
0.00019361431
0.0002257666
0.00026039251
0.00029517938
0.00032912753
0.00036206601
0.00039440908
0.00042720348
0.00046262138
0.0005053334
0.00051726585
0.0001614347
0.00017423148
0.00019888064
0.00022999798
0.00026370261
0.00029771636
0.00033102952
0.00036345746
0.00039540522
0.00042791422
0.00046315498
0.00050580233
0.00051784836
0.00016773144
0.00017997644
0.00020367706
0.00023379306
0.00026661512
0.00029990221
0.00033263201
0.00036460201
0.00039620485
0.00042847518
0.00046358177
0.00050620473
0.0005184041
0.00017350168
0.0001852206
0.0002080123
0.00023716602
0.00026914512
0.00030174951
0.00033394382
0.0003655049
0.00039681044
0.00042888689
0.00046390102
0.00050653913
0.00051893075
0.00017875063
0.00018997218
0.00021189952
0.00024013368
0.00027130966
0.00030327274
0.00033497571
0.00036617323
0.00039722609
0.00042915128
0.00046411319
0.00050680483
0.00051942618
0.00018349098
0.00019424527
0.00021535543
0.00024271482
0.00027312736
0.00030448803
0.00033574021
0.00036661589
0.00039745762
0.0004292718
0.00046421993
0.00050700203
0.00051988857
0.00018774098
0.00019805829
0.00021839936
0.00024492974
0.00027461803
0.00030541289
0.00033625142
0.00036684349
0.00039751251
0.00042925339
0.00046422416
0.00050713182
0.00052031646
0.00019152273
0.00020143278
0.00022105255
0.00024679979
0.00027580229
0.00030606582
0.0003365248
0.00036686813
0.00039739981
0.00042910248
0.00046413007
0.00050719621
0.00052070875
0.00019486091
0.00020439236
0.00022333754
0.00024834693
0.00027670125
0.00030646606
0.00033657682
0.00036670322
0.00039712995
0.00042882683
0.00046394296
0.00050719805
0.0005210648
0.0001977818
0.00020696193
0.00022527757
0.00024959341
0.00027733623
0.00030663326
0.00033642472
0.00036636321
0.00039671455
0.00042843537
0.00046366921
0.00050714099
0.00052138436
0.00020031242
0.00020916703
0.00022689621
0.0002505615
0.00027772846
0.00030658721
0.00033608621
0.00036586327
0.00039616613
0.00042793797
0.000463316
0.00050702929
0.00052166762
0.00020247997
0.00021103329
0.00022821697
0.0002512732
0.0002778989
0.0003063476
0.00033557918
0.00036521907
0.00039549789
0.00042734525
0.00046289123
0.00050686778
0.00052191514
0.0002043114
0.0002125861
0.00022926304
0.00025175006
0.00027786805
0.00030593383
0.00033492149
0.0003644465
0.00039472341
0.00042666828
0.00046240323
0.00050666165
0.00052212787
0.00020583303
0.00021385028
0.00023005706
0.00025201306
0.00027765581
0.0003053648
0.00033413072
0.00036356138
0.00039385643
0.00042591839
0.0004618606
0.00050641631
0.00052230704
0.00020707038
0.00021484991
0.00023062096
0.00025208242
0.00027728134
0.00030465877
0.00033322401
0.00036257932
0.00039291061
0.00042510694
0.000461272
0.00050613729
0.00052245417
0.00020804793
0.00021560812
0.00023097582
0.00025197756
0.00027676298
0.00030383328
0.00033221788
0.00036151546
0.0003918993
0.00042424509
0.00046064602
0.00050583008
0.00052257101
0.00020878908
0.00021614705
0.00023114184
0.00025171699
0.00027611819
0.00030290498
0.00033112811
0.00036038435
0.00039083541
0.00042334366
0.00045999097
0.00050550004
0.00052265944
0.00020931603
0.00021648773
0.00023113818
0.00025131831
0.00027536349
0.00030188966
0.00032996966
0.00035919984
0.00038973124
0.000422413
0.00045931478
0.00050515231
0.00052272149
0.00020964978
0.00021665007
0.00023098302
0.00025079811
0.00027451443
0.00030080213
0.00032875658
0.00035797492
0.00038859837
0.00042146282
0.0004586249
0.00050479171
0.00052275925
0.0002098101
0.00021665282
0.00023069349
0.00025017203
0.00027358558
0.00029965621
0.00032750196
0.00035672173
0.00038744758
0.00042050215
0.00045792826
0.00050442273
0.00052277483
0.00020981553
0.0002165136
0.00023028566
0.00024945469
0.00027259053
0.00029846473
0.00032621791
0.00035545144
0.00038628878
0.00041953927
0.00045723113
0.00050404945
0.00052277036
0.00020968341
0.0002162489
0.00022977458
0.00024865975
0.00027154188
0.00029723955
0.00032491557
0.0003541743
0.00038513103
0.00041858168
0.00045653919
0.00050367555
0.00052274793
0.00020942992
0.00021587409
0.00022917427
0.00024779989
0.00027045127
0.00029599153
0.00032360508
0.00035289957
0.00038398243
0.00041763606
0.00045585746
0.00050330431
0.00052270956
0.0002090701
0.00021540347
0.00022849776
0.00024688684
0.0002693294
0.00029473055
0.00032229559
0.00035163557
0.00038285023
0.00041670832
0.00045519031
0.00050293856
0.0005226572
0.00020861786
0.00021485027
0.0002277571
0.00024593141
0.00026818604
0.0002934656
0.00032099535
0.00035038969
0.00038174078
0.00041580356
0.00045454151
0.00050258077
0.00052259269
0.00020808611
0.00021422675
0.00022696341
0.00024494353
0.00026703011
0.00029220474
0.00031971166
0.00034916842
0.00038065959
0.00041492615
0.00045391419
0.00050223296
0.00052251781
0.00020748672
0.00021354418
0.00022612691
0.00024393227
0.00026586966
0.0002909552
0.00031845097
0.00034797738
0.00037961133
0.00041407971
0.00045331083
0.00050189538
0.0005224341
0.00020683061
0.00021281294
0.00022525697
0.00024290588
0.00026471194
0.00028972338
0.00031721892
0.00034682139
0.00037859993
0.00041326713
0.00045273317
0.00050156776
0.00052234291
0.0002061278
0.00021204252
0.00022436214
0.00024187185
0.00026356344
0.0002885149
0.00031602033
0.0003457045
0.00037762857
0.00041249068
0.00045218159
0.00050125097
0.00052224543
0.00020538743
0.00021124157
0.00022345017
0.0002408369
0.00026242992
0.00028733467
0.00031485932
0.00034463003
0.00037669973
0.00041175181
0.00045165674
0.00050094654
0.00052214287
0.00020461785
0.00021041799
0.00022252811
0.00023980709
0.00026131647
0.0002861869
0.00031373934
0.00034360068
0.00037581532
0.00041105098
0.00045115882
0.00050065638
0.00052203652
0.00020382664
0.00020957891
0.00022160228
0.00023878778
0.00026022753
0.00028507521
0.0003126632
0.00034261846
0.00037497628
0.00041038843
0.00045068906
0.00050038151
0.00052192755
0.00020302067
0.00020873079
0.00022067838
0.00023778375
0.00025916696
0.00028400258
0.00031163311
0.00034168477
0.00037418309
0.00040976442
0.00045024829
0.00050012263
0.00052181702
0.00020220612
0.00020787944
0.00021976148
0.0002367992
0.00025813806
0.00028297151
0.00031065077
0.00034080035
0.00037343547
0.0004091796
0.00044983691
0.00049988017
0.00052170588
0.00020138856
0.00020703006
0.00021885609
0.00023583778
0.00025714361
0.00028198393
0.00030971721
0.00033996515
0.00037273377
0.00040863414
0.00044945495
0.00049965428
0.00052159498
0.00020057298
0.00020618729
0.0002179662
0.00023490267
0.00025618593
0.00028104127
0.00030883285
0.00033917914
0.00037207807
0.00040812784
0.00044910213
0.0004994449
0.00052148503
0.0001997638
0.00020535524
0.00021709528
0.00023399654
0.00025526686
0.00028014444
0.00030799757
0.00033844239
0.00037146809
0.00040766019
0.00044877796
0.00049925182
0.00052137669
0.00019896498
0.00020453754
0.00021624637
0.0002331217
0.00025438776
0.00027929356
0.00030721156
0.00033775467
0.00037090325
0.00040723047
0.00044848176
0.00049907468
0.00052127049
0.00019817998
0.00020373738
0.00021542212
0.0002322799
0.00025354927
0.00027848906
0.00030647471
0.00033711541
0.00037038267
0.0004068377
0.00044821269
0.00049891304
0.00052116689
0.00019741186
0.00020295753
0.00021462456
0.00023147233
0.0002527521
0.00027773104
0.0003057866
0.00033652379
0.0003699053
0.00040648074
0.00044796977
0.00049876637
0.0005210663
0.00019666316
0.0002022002
0.00021385536
0.00023070008
0.0002519967
0.00027701936
0.00030514658
0.00033597877
0.00036946987
0.00040615832
0.00044775195
0.00049863407
0.00052096904
0.00019593602
0.00020146726
0.00021311592
0.00022996395
0.00025128327
0.00027635365
0.00030455377
0.00033547912
0.00036907495
0.00040586905
0.0004475581
0.00049851552
0.00052087536
0.00019523225
0.00020076028
0.00021240736
0.00022926451
0.00025061177
0.00027573329
0.00030400709
0.00033502343
0.00036871902
0.00040561145
0.00044738702
0.00049841005
0.0005207855
0.00019455336
0.00020008056
0.00021173057
0.0002286021
0.00024998195
0.00027515748
0.00030350532
0.00033461018
0.00036840044
0.00040538399
0.00044723751
0.00049831697
0.0005206996
0.0001939006
0.00019942916
0.00021108616
0.00022797681
0.00024939337
0.00027462527
0.00030304707
0.00033423773
0.00036811748
0.00040518508
0.00044710831
0.00049823559
0.00052061778
0.00019327498
0.00019880686
0.00021047456
0.00022738856
0.00024884538
0.00027413554
0.00030263084
0.00033390434
0.00036786838
0.00040501312
0.00044699819
0.0004981652
0.00052054013
0.00019267727
0.00019821426
0.00020989598
0.00022683708
0.00024833722
0.00027368703
0.00030225503
0.00033360823
0.00036765134
0.00040486649
0.00044690591
0.00049810513
0.00052046669
0.00019210803
0.00019765173
0.00020935044
0.00022632193
0.00024786795
0.00027327839
0.00030191796
0.00033334755
0.00036746453
0.00040474358
0.00044683024
0.00049805468
0.00052039747
0.00019156764
0.00019711949
0.0002088378
0.00022584253
0.00024743654
0.00027290816
0.00030161788
0.00033312041
0.00036730612
0.0004046428
0.00044676998
0.00049801317
0.00052033246
0.00019105629
0.00019661755
0.00020835775
0.00022539817
0.00024704184
0.00027257483
0.00030135301
0.00033292494
0.00036717431
0.00040456258
0.00044672397
0.00049797996
0.00052027162
0.000190574
0.00019614579
0.00020790988
0.00022498801
0.0002466826
0.00027227681
0.00030112153
0.00033275924
0.00036706729
0.00040450137
0.00044669106
0.0004979544
0.00052021491
0.00019012067
0.00019570394
0.0002074936
0.00022461112
0.00024635752
0.00027201246
0.00030092161
0.00033262143
0.00036698329
0.00040445768
0.00044667015
0.0004979359
0.00052016223
0.00018969604
0.00019529161
0.00020710827
0.00022426648
0.00024606523
0.00027178011
0.00030075141
0.00033250963
0.00036692058
0.00040443007
0.00044666019
0.00049792384
0.0005201135
0.00018929974
0.0001949083
0.0002067531
0.000223953
0.00024580429
0.00027157809
0.00030060909
0.00033242203
0.00036687749
0.00040441713
0.00044666016
0.00049791768
0.00052006862
0.00018893129
0.0001945534
0.00020642724
0.00022366952
0.00024557325
0.0002714047
0.00030049285
0.00033235683
0.00036685239
0.00040441752
0.0004466691
0.00049791687
0.00052002748
0.00018859011
0.00019422621
0.00020612978
0.00022341482
0.00024537062
0.00027125824
0.00030040089
0.00033231227
0.00036684369
0.00040442995
0.00044668609
0.0004979209
0.00051998994
0.00018827554
0.00019392596
0.00020585972
0.00022318766
0.0002451949
0.00027113703
0.00030033145
0.00033228667
0.00036684989
0.0004044532
0.00044671025
0.00049792927
0.00051995589
0.00018798684
0.00019365181
0.00020561601
0.00022298675
0.00024504457
0.00027103939
0.00030028282
0.00033227837
0.00036686953
0.0004044861
0.00044674074
0.00049794152
0.00051992517
0.00018772319
0.00019340285
0.00020539758
0.00022281079
0.00024491813
0.00027096369
0.00030025333
0.00033228579
0.00036690122
0.00040452753
0.0004467768
0.00049795721
0.00051989764
0.00018748375
0.00019317812
0.0002052033
0.00022265844
0.00024481408
0.00027090832
0.00030024135
0.00033230741
0.00036694364
0.00040457644
0.00044681768
0.00049797592
0.00051987317
0.0001872676
0.00019297665
0.00020503202
0.00022252838
0.00024473092
0.00027087168
0.00030024531
0.00033234177
0.00036699553
0.00040463184
0.00044686268
0.00049799726
0.00051985158
0.00018707378
0.0001927974
0.00020488257
0.00022241928
0.00024466718
0.00027085225
0.00030026369
0.00033238746
0.00036705569
0.00040469281
0.00044691117
0.00049802086
0.00051983275
0.00018690132
0.00019263932
0.00020475378
0.00022232982
0.00024462143
0.00027084854
0.00030029505
0.00033244317
0.000367123
0.00040475845
0.00044696252
0.00049804636
0.0005198165
0.0001867492
0.00019250134
0.00020464446
0.00022225868
0.00024459227
0.00027085911
0.00030033799
0.00033250764
0.00036719641
0.00040482797
0.00044701619
0.00049807345
0.00051980268
0.00018661641
0.00019238239
0.00020455343
0.00022220457
0.00024457831
0.00027088257
0.00030039118
0.00033257968
0.00036727491
0.00040490059
0.00044707165
0.00049810182
0.00051979115
0.0001865019
0.00019228137
0.00020447951
0.00022216624
0.00024457824
0.00027091758
0.00030045338
0.00033265817
0.0003673576
0.00040497562
0.00044712841
0.00049813121
0.00051978176
0.00018640465
0.00019219722
0.00020442156
0.00022214244
0.00024459077
0.00027096289
0.00030052339
0.00033274207
0.0003674436
0.0004050524
0.00044718604
0.00049816134
0.00051977435
0.00018632361
0.00019212884
0.00020437843
0.00022213197
0.00024461467
0.00027101729
0.00030060009
0.00033283039
0.00036753214
0.00040513035
0.00044724415
0.000498192
0.00051976879
0.00018625775
0.00019207519
0.000204349
0.00022213366
0.00024464875
0.00027107962
0.00030068243
0.00033292224
0.00036762246
0.00040520892
0.00044730235
0.00049822295
0.00051976494
0.00018620606
0.00019203521
0.00020433219
0.00022214639
0.00024469189
0.0002711488
0.00030076941
0.00033301675
0.00036771391
0.00040528762
0.00044736033
0.00049825402
0.00051976266
0.00018616753
0.00019200788
0.00020432692
0.00022216907
0.00024474301
0.0002712238
0.00030086012
0.00033311317
0.00036780585
0.00040536599
0.00044741779
0.00049828502
0.00051976182
0.00018614117
0.0001919922
0.00020433218
0.00022220066
0.00024480108
0.00027130368
0.0003009537
0.00033321076
0.00036789775
0.00040544363
0.00044747445
0.00049831579
0.00051976229
0.00018612602
0.00019198718
0.00020434697
0.00022224016
0.00024486514
0.00027138751
0.00030104936
0.00033330887
0.00036798907
0.00040552017
0.00044753008
0.00049834617
0.00051976395
0.00018612114
0.00019199189
0.00020437033
0.00022228662
0.00024493427
0.00027147447
0.00030114637
0.0003334069
0.00036807937
0.0004055953
0.00044758445
0.00049837603
0.00051976667
0.00018612562
0.00019200539
0.00020440133
0.00022233914
0.0002450076
0.00027156377
0.00030124404
0.00033350429
0.00036816822
0.0004056687
0.00044763739
0.00049840526
0.00051977035
0.00018613857
0.00019202682
0.00020443911
0.00022239685
0.00024508434
0.00027165468
0.00030134176
0.00033360056
0.00036825527
0.00040574014
0.00044768873
0.00049843375
0.00051977487
0.00018615914
0.00019205531
0.00020448283
0.00022245896
0.00024516372
0.00027174654
0.00030143897
0.00033369527
0.00036834017
0.00040580939
0.00044773832
0.0004984614
0.00051978013
0.00018618653
0.00019209007
0.00020453168
0.0002225247
0.00024524506
0.00027183874
0.00030153517
0.00033378802
0.00036842266
0.00040587627
0.00044778604
0.00049848814
0.00051978603
0.00018621994
0.00019213031
0.00020458493
0.00022259336
0.00024532772
0.00027193072
0.0003016299
0.00033387846
0.00036850249
0.00040594061
0.00044783181
0.00049851379
0.00051979247
0.00018625865
0.00019217532
0.00020464186
0.0002226643
0.00024541109
0.00027202198
0.00030172276
0.00033396631
0.00036857946
0.00040600228
0.00044787551
0.00049853818
0.00051979935
0.00018630194
0.00019222439
0.00020470182
0.00022273688
0.00024549465
0.00027211207
0.00030181341
0.00033405131
0.0003686534
0.00040606118
0.00044791701
0.00049856127
0.00051980658
0.00018634916
0.00019227688
0.00020476419
0.00022281057
0.0002455779
0.0002722006
0.00030190154
0.00033413324
0.00036872417
0.00040611723
0.00044795624
0.00049858307
0.00051981409
0.00018639967
0.00019233219
0.0002048284
0.00022288482
0.0002456604
0.0002722872
0.00030198689
0.00033421194
0.00036879167
0.0004061703
0.00044799313
0.00049860364
0.00051982179
0.00018645289
0.00019238973
0.00020489391
0.00022295919
0.00024574176
0.00027237157
0.00030206922
0.00033428724
0.00036885581
0.00040622036
0.00044802772
0.00049862304
0.00051982965
0.00018650828
0.00019244898
0.00020496023
0.00022303322
0.00024582162
0.00027245344
0.00030214837
0.00033435905
0.00036891649
0.00040626733
0.00044806007
0.00049864129
0.0005198376
0.00018656532
0.00019250945
0.00020502692
0.00022310654
0.00024589967
0.00027253257
0.00030222417
0.00033442726
0.00036897364
0.00040631127
0.00044809024
0.00049865842
0.00051984561
0.00018662353
0.00019257067
0.00020509355
0.0002231788
0.00024597563
0.00027260877
0.0003022965
0.00033449179
0.00036902723
0.00040635223
0.00044811827
0.00049867445
0.00051985362
0.00018668247
0.00019263224
0.00020515977
0.00022324967
0.00024604926
0.00027268187
0.00030236524
0.00033455254
0.00036907733
0.00040639028
0.00044814422
0.00049868941
0.00051986158
0.00018674174
0.00019269377
0.00020522521
0.00022331889
0.00024612036
0.00027275174
0.00030243029
0.00033460952
0.00036912396
0.00040642548
0.00044816816
0.00049870331
0.00051986947
0.00018680097
0.0001927549
0.00020528959
0.0002233862
0.00024618874
0.00027281824
0.0003024916
0.00033466277
0.0003691672
0.0004064579
0.00044819012
0.00049871618
0.00051987723
0.00018685982
0.00019281533
0.00020535264
0.00022345141
0.00024625426
0.00027288127
0.00030254916
0.00033471234
0.00036920713
0.00040648763
0.00044821019
0.00049872804
0.00051988485
0.000186918
0.00019287478
0.00020541411
0.00022351432
0.00024631677
0.00027294079
0.000302603
0.00033475828
0.00036924382
0.00040651475
0.00044822842
0.00049873892
0.00051989228
0.00018697523
0.000192933
0.00020547379
0.00022357475
0.00024637618
0.00027299678
0.00030265316
0.00033480068
0.00036927738
0.00040653936
0.0004482449
0.00049874887
0.00051989951
0.00018703128
0.00019298976
0.0002055315
0.00022363259
0.00024643244
0.00027304926
0.00030269969
0.00033483964
0.00036930792
0.00040656155
0.00044825969
0.0004987579
0.00051990652
0.00018708591
0.00019304486
0.00020558707
0.00022368775
0.00024648553
0.00027309825
0.00030274269
0.00033487526
0.00036933556
0.00040658144
0.00044827287
0.00049876607
0.00051991329
0.00018713895
0.00019309813
0.00020564038
0.00022374015
0.00024653543
0.00027314381
0.00030278222
0.00033490765
0.0003693604
0.00040659913
0.00044828454
0.0004987734
0.0005199198
0.00018719023
0.00019314944
0.00020569134
0.00022378975
0.00024658215
0.00027318598
0.00030281841
0.00033493693
0.00036938258
0.00040661474
0.00044829476
0.00049877994
0.00051992605
0.00018723962
0.00019319866
0.00020573986
0.00022383652
0.00024662573
0.00027322486
0.00030285134
0.00033496323
0.00036940222
0.00040662836
0.00044830361
0.00049878572
0.00051993201
0.00018728701
0.00019324572
0.0002057859
0.00022388046
0.00024666621
0.00027326052
0.00030288115
0.00033498669
0.00036941945
0.00040664012
0.00044831117
0.00049879078
0.00051993769
0.00018733231
0.00019329053
0.00020582943
0.00022392159
0.00024670365
0.00027329306
0.00030290795
0.00033500742
0.00036943439
0.0004066501
0.00044831751
0.00049879515
0.00051994307
0.00018737546
0.00019333306
0.00020587043
0.00022395993
0.00024673812
0.0002733226
0.00030293188
0.00033502558
0.00036944717
0.00040665842
0.0004483227
0.00049879885
0.00051994816
0.00018741642
0.00019337328
0.0002059089
0.00022399553
0.00024676971
0.00027334925
0.00030295307
0.0003350413
0.00036945793
0.00040666518
0.00044832682
0.00049880195
0.00051995294
0.00018745515