/*--------------------------------*- C++ -*----------------------------------*\
| =========                 |                                                 |
| \\      /  F ield         | OpenFOAM: The Open Source CFD Toolbox           |
|  \\    /   O peration     | Version:  2506                                  |
|   \\  /    A nd           | Website:  www.openfoam.com                      |
|    \\/     M anipulation  |                                                 |
\*---------------------------------------------------------------------------*/
FoamFile
{
    version     2.0;
    format      ascii;
    arch        "LSB;label=32;scalar=64";
    class       volScalarField;
    location    "7000/water";
    object      nut;
}
// * * * * * * * * * * * * * * * * * * * * * * * * * * * * * * * * * * * * * //

dimensions      [0 2 -1 0 0 0 0];

internalField   nonuniform List<scalar> 
2600
(
4.0562043e-05
4.0561942e-05
4.0561944e-05
4.0561981e-05
4.0561942e-05
4.0561434e-05
4.0558261e-05
4.0540002e-05
4.0435343e-05
3.98338e-05
3.6541397e-05
2.4161555e-05
1.4889524e-05
3.944741e-05
3.9447468e-05
3.944759e-05
3.9447676e-05
3.9447275e-05
3.9444342e-05
3.9428907e-05
3.9352895e-05
3.8988431e-05
3.7314814e-05
3.0763187e-05
1.7536145e-05
1.684056e-05
3.852265e-05
3.852264e-05
3.8522725e-05
3.8522528e-05
3.8520597e-05
3.8510798e-05
3.8466747e-05
3.8277827e-05
3.7500368e-05
3.454641e-05
2.5814945e-05
1.4669956e-05
1.7712619e-05
3.7742032e-05
3.774193e-05
3.7741811e-05
3.7740766e-05
3.7735283e-05
3.7711707e-05
3.7617453e-05
3.7258039e-05
3.5961308e-05
3.177518e-05
2.2061889e-05
1.3531464e-05
1.7967898e-05
3.7073562e-05
3.7073366e-05
3.7072781e-05
3.7069955e-05
3.7057916e-05
3.7011651e-05
3.6843992e-05
3.6266509e-05
3.4405655e-05
2.9188861e-05
1.9425178e-05
1.3345943e-05
1.7902414e-05
3.6493786e-05
3.6493393e-05
3.6491924e-05
3.648598e-05
3.646354e-05
3.6384687e-05
3.612226e-05
3.5294625e-05
3.2873382e-05
2.6881541e-05
1.771645e-05
1.3793839e-05
1.7689846e-05
3.5985207e-05
3.5984445e-05
3.5981496e-05
3.5970726e-05
3.5933497e-05
3.5812307e-05
3.5437992e-05
3.4343601e-05
3.1395257e-05
2.4892541e-05
1.6781972e-05
1.4727875e-05
1.7427344e-05
3.5534568e-05
3.55332e-05
3.5528007e-05
3.5510417e-05
3.5453869e-05
3.5281761e-05
3.478374e-05
3.3418009e-05
2.9989903e-05
2.3242727e-05
1.6521213e-05
1.605365e-05
1.7168093e-05
3.5131649e-05
3.5129373e-05
3.5121029e-05
3.5094485e-05
3.5014364e-05
3.4784646e-05
3.4156253e-05
3.2521766e-05
2.8667649e-05
2.1957692e-05
1.6869959e-05
1.7676047e-05
1.694009e-05
3.4768438e-05
3.47649e-05
3.4752406e-05
3.4714802e-05
3.4607522e-05
3.4315777e-05
3.3554458e-05
3.16563e-05
2.7438403e-05
2.1076946e-05
1.7774701e-05
1.9481897e-05
1.6755877e-05
3.4438571e-05
3.443338e-05
3.4415717e-05
3.4365168e-05
3.4228127e-05
3.3872266e-05
3.2977968e-05
3.0820513e-05
2.6321667e-05
2.064959e-05
1.9168673e-05
2.1348725e-05
1.6617712e-05
3.4136931e-05
3.4129689e-05
3.4105903e-05
3.4040932e-05
3.3872746e-05
3.3452766e-05
3.2426062e-05
3.0012536e-05
2.5355877e-05
2.0719809e-05
2.0958175e-05
2.3166793e-05
1.6521078e-05
3.3859367e-05
3.3849701e-05
3.3819003e-05
3.3738723e-05
3.3539365e-05
3.3056856e-05
3.1897087e-05
2.923354e-05
2.4602257e-05
2.1309035e-05
2.3024752e-05
2.4858007e-05
1.6457822e-05
3.3602495e-05
3.3590098e-05
3.355197e-05
3.3456247e-05
3.3227088e-05
3.2684517e-05
3.1388405e-05
2.8493549e-05
2.4138757e-05
2.2402735e-05
2.5241354e-05
2.6381455e-05
1.6418929e-05
3.3363555e-05
3.334823e-05
3.3302533e-05
3.3192135e-05
3.2935885e-05
3.2335692e-05
3.0897111e-05
2.781812e-05
2.4044358e-05
2.3946906e-05
2.7493335e-05
2.7726694e-05
1.6396422e-05
3.3140311e-05
3.3122024e-05
3.3069114e-05
3.2945826e-05
3.2666358e-05
3.2009929e-05
3.0421904e-05
2.725306e-05
2.4379894e-05
2.5855075e-05
2.9693858e-05
2.8902281e-05
1.6384202e-05
3.2930983e-05
3.2909915e-05
3.2850758e-05
3.2717477e-05
3.2419519e-05
3.1706209e-05
2.9966345e-05
2.6863467e-05
2.5173338e-05
2.8023002e-05
3.178848e-05
2.9925862e-05
1.6378087e-05
3.27342e-05
3.2710811e-05
3.2647097e-05
3.2507877e-05
3.219656e-05
3.1423099e-05
2.9543334e-05
2.6725089e-05
2.6414165e-05
3.0346001e-05
3.3750499e-05
3.0817911e-05
1.6375449e-05
3.254898e-05
3.2524066e-05
3.2458325e-05
3.2318371e-05
3.1998619e-05
3.1159479e-05
2.9179673e-05
2.6909997e-05
2.805682e-05
3.2733297e-05
3.5572232e-05
3.159849e-05
1.6374764e-05
3.2374714e-05
3.234948e-05
3.2285189e-05
3.2150777e-05
3.1826588e-05
3.0916123e-05
2.8918575e-05
2.7471841e-05
3.0030665e-05
3.5115834e-05
3.7256818e-05
3.2285747e-05
1.6375224e-05
3.2211173e-05
3.2187303e-05
3.2128983e-05
3.2007273e-05
3.1681012e-05
3.0698309e-05
2.8817773e-05
2.8435851e-05
3.2252929e-05
3.7447133e-05
3.8812576e-05
3.2895331e-05
1.6376448e-05
3.2058522e-05
3.2038256e-05
3.199155e-05
3.1890271e-05
3.1562235e-05
3.051924e-05
2.8942305e-05
2.9795901e-05
3.464125e-05
3.9699498e-05
4.0249838e-05
3.3440303e-05
1.6378293e-05
3.1917349e-05
3.1903563e-05
3.1875268e-05
3.1802262e-05
3.147098e-05
3.0403414e-05
2.9353632e-05
3.1518042e-05
3.7123065e-05
4.1858567e-05
4.1579379e-05
3.3931333e-05
1.6380731e-05
3.1788707e-05
3.1784988e-05
3.1783034e-05
3.1745667e-05
3.1409596e-05
3.0388389e-05
3.0098641e-05
3.3548312e-05
3.9640504e-05
4.3918428e-05
4.2811639e-05
3.4377031e-05
1.638378e-05
3.167417e-05
3.1684884e-05
3.1718215e-05
3.1722747e-05
3.1384108e-05
3.0523333e-05
3.1201975e-05
3.5822342e-05
4.2151079e-05
4.5878175e-05
4.3956334e-05
3.4784314e-05
1.6387467e-05
3.1575896e-05
3.1606239e-05
3.1684577e-05
3.1735683e-05
3.1406919e-05
3.0863671e-05
3.2663378e-05
3.8274457e-05
4.4625624e-05
4.7739784e-05
4.5022274e-05
3.5158739e-05
1.6391813e-05
3.1496714e-05
3.155272e-05
3.1686171e-05
3.1786998e-05
3.1499546e-05
3.1462866e-05
3.445981e-05
4.0844581e-05
4.7045146e-05
4.9506882e-05
4.6017315e-05
3.5504794e-05
1.6396824e-05
3.1440215e-05
3.1528703e-05
3.1727217e-05
3.1880504e-05
3.1694229e-05
3.2363743e-05
3.6550942e-05
4.3482184e-05
4.9397839e-05
5.1183995e-05
4.6948402e-05
3.5826124e-05
1.6402494e-05
3.141085e-05
3.1539289e-05
3.1812006e-05
3.2022926e-05
3.2033144e-05
3.3591893e-05
3.8886228e-05
4.6147426e-05
5.1676786e-05
5.2776062e-05
4.782164e-05
3.6125718e-05
1.6408802e-05
3.1414042e-05
3.1590274e-05
3.1944928e-05
3.2226119e-05
3.2564562e-05
3.5152683e-05
4.1411885e-05
4.8810348e-05
5.3878384e-05
5.4288121e-05
4.8642392e-05
3.6406047e-05
1.6415722e-05
3.1456281e-05
3.1688095e-05
3.2130757e-05
3.2509432e-05
3.333648e-05
3.7032008e-05
4.4076505e-05
5.144913e-05
5.6001295e-05
5.5725114e-05
4.9415387e-05
3.6669254e-05
1.642322e-05
3.1545208e-05
3.183974e-05
3.2375386e-05
3.2901322e-05
3.4389411e-05
3.9199975e-05
4.6834633e-05
5.4048187e-05
5.8045689e-05
5.7091637e-05
5.0144339e-05
3.6914943e-05
1.6431248e-05
3.1689662e-05
3.2052668e-05
3.2687145e-05
3.3439134e-05
3.5750339e-05
4.1616209e-05
4.9648333e-05
5.6596558e-05
6.0012742e-05
5.8392011e-05
5.0832727e-05
3.7144923e-05
1.6439749e-05
3.1899684e-05
3.2334823e-05
3.3078704e-05
3.4166339e-05
3.7429302e-05
4.423546e-05
5.2487193e-05
5.9086683e-05
6.1904244e-05
5.9630093e-05
5.1482697e-05
3.7361244e-05
1.6448668e-05
3.2186465e-05
3.2694872e-05
3.3569196e-05
3.5127411e-05
3.9419066e-05
4.701243e-05
5.5327451e-05
6.1513509e-05
6.3722344e-05
6.0809395e-05
5.2096452e-05
3.7565314e-05
1.6457958e-05
3.2562282e-05
3.3142862e-05
3.4185832e-05
3.6361552e-05
4.1697461e-05
4.9905189e-05
5.8150808e-05
6.3873836e-05
6.5469392e-05
6.1933119e-05
5.2677401e-05
3.7758159e-05
1.6467586e-05
3.3040474e-05
3.3691441e-05
3.4963995e-05
3.7896949e-05
4.4231434e-05
5.287705e-05
6.0943285e-05
6.6165779e-05
6.7147568e-05
6.3002907e-05
5.322828e-05
3.7940824e-05
1.6477531e-05
3.3635638e-05
3.4357649e-05
3.5945068e-05
3.9746995e-05
4.6981724e-05
5.5897121e-05
6.369425e-05
6.8388432e-05
6.8759336e-05
6.4022596e-05
5.3751054e-05
3.8114079e-05
1.6487766e-05
3.4364224e-05
3.5164902e-05
3.7171979e-05
4.1909158e-05
4.9907179e-05
5.8940026e-05
6.6395665e-05
7.0541367e-05
7.0305658e-05
6.4995389e-05
5.424764e-05
3.8278685e-05
1.6498266e-05
3.524572e-05
3.6144414e-05
3.8683392e-05
4.4366364e-05
5.2968077e-05
6.1985169e-05
6.9041449e-05
7.2624748e-05
7.1789408e-05
6.5923872e-05
5.4719659e-05
3.8435268e-05
1.6509004e-05
3.630439e-05
3.7335014e-05
4.050807e-05
4.7090197e-05
5.6128205e-05
6.5015942e-05
7.1626952e-05
7.4638166e-05
7.3213264e-05
6.6810357e-05
5.5168629e-05
3.8584369e-05
1.6519954e-05
3.7571045e-05
3.8780594e-05
4.2660834e-05
5.0044942e-05
5.9355775e-05
6.8018895e-05
7.4148646e-05
7.6582487e-05
7.4579717e-05
6.7656899e-05
5.559589e-05
3.8726449e-05
1.653109e-05
3.908385e-05
4.0525212e-05
4.514097e-05
5.3191574e-05
6.2623566e-05
7.09831e-05
7.6603206e-05
7.8458833e-05
7.5890905e-05
6.8465402e-05
5.6002629e-05
3.8861904e-05
1.6542386e-05
4.0886898e-05
4.2606849e-05
4.7933086e-05
5.6490979e-05
6.590844e-05
7.3899521e-05
7.898864e-05
8.0268731e-05
7.7148731e-05
6.9237563e-05
5.6389884e-05
3.8991064e-05
1.6553815e-05
4.3025756e-05
4.5051408e-05
5.1009866e-05
5.9906205e-05
6.9190859e-05
7.6760131e-05
8.1303256e-05
8.2013412e-05
7.8354959e-05
6.9974893e-05
5.6758557e-05
3.9114209e-05
1.6565353e-05
4.5540336e-05
4.7868443e-05
5.433574e-05
6.3403506e-05
7.2453899e-05
7.9558404e-05
8.354672e-05
8.369397e-05
7.9511134e-05
7.0678708e-05
5.7109422e-05
3.9231564e-05
1.6576974e-05
4.8456697e-05
5.1049436e-05
5.7870615e-05
6.6952744e-05
7.5682776e-05
8.2288856e-05
8.571842e-05
8.5311362e-05
8.0618593e-05
7.1350135e-05
5.744313e-05
3.9343313e-05
1.6588653e-05
5.1780104e-05
5.4568618e-05
6.157293e-05
7.0526861e-05
7.8863938e-05
8.4947811e-05
8.7817761e-05
8.6866345e-05
8.1678448e-05
7.1990113e-05
5.7760215e-05
3.9449593e-05
1.6600366e-05
5.5491351e-05
5.8385627e-05
6.5401387e-05
7.4100919e-05
8.1987181e-05
8.753166e-05
8.9844041e-05
8.835944e-05
8.2691572e-05
7.2599394e-05
5.8061096e-05
3.9550499e-05
1.6612086e-05
5.9547218e-05
6.2448906e-05
6.9315565e-05
7.7653781e-05
8.504365e-05
9.0036945e-05
9.1796379e-05
8.9790906e-05
8.365859e-05
7.3178543e-05
5.8346085e-05
3.9646087e-05
1.662379e-05
6.3884471e-05
6.6699787e-05
7.3278202e-05
8.1167579e-05
8.8025184e-05
9.2460238e-05
9.3673664e-05
9.1160713e-05
8.4579872e-05
7.3727938e-05
5.8615382e-05
3.9736372e-05
1.6635451e-05
6.8427344e-05
7.107708e-05
7.7255189e-05
8.4626047e-05
9.0924154e-05
9.4798075e-05
9.5474533e-05
9.246854e-05
8.5455531e-05
7.424777e-05
5.886908e-05
3.9821329e-05
1.664704e-05
7.3095546e-05
7.5520289e-05
8.1214724e-05
8.8014211e-05
9.3733349e-05
9.7046938e-05
9.7197371e-05
9.3713775e-05
8.6285428e-05
7.4738049e-05
5.9107168e-05
3.9900896e-05
1.6658531e-05
7.7811289e-05
7.9972318e-05
8.5127275e-05
9.1318199e-05
9.6445932e-05
9.9203276e-05
9.8840348e-05
9.4895543e-05
8.7069191e-05
7.5198611e-05
5.9329536e-05
3.9974974e-05
1.6669891e-05
8.2504365e-05
8.4381472e-05
8.8965674e-05
9.4525146e-05
9.9055456e-05
0.00010126357
0.00010040148
9.6012758e-05
8.7806244e-05
7.5629143e-05
5.9535983e-05
4.0043428e-05
1.6681088e-05
8.7115021e-05
8.8702749e-05
9.2705355e-05
9.7623215e-05
0.00010155592
0.00010322443
0.00010187874
9.7064186e-05
8.8495852e-05
7.6029202e-05
5.9726233e-05
4.0106099e-05
1.6692087e-05
9.1594961e-05
9.2898486e-05
9.6324628e-05
0.00010060169
0.00010394187
0.00010508273
0.00010327014
9.8048542e-05
8.9137186e-05
7.6398257e-05
5.9899955e-05
4.0162805e-05
1.6702851e-05
9.5907004e-05
9.6938427e-05
9.9804928e-05
0.00010345113
0.00010620851
0.00010683569
0.00010457387
9.8964584e-05
8.9729393e-05
7.6735738e-05
6.0056786e-05
4.0213357e-05
1.671334e-05
0.00010002396
0.00010079935
0.00010313097
0.00010616347
0.0001083518
0.00010848106
0.00010578844
9.9811224e-05
9.0271678e-05
7.7041084e-05
6.0196365e-05
4.0257564e-05
1.6723514e-05
0.00010392716
0.00010446444
0.00010629079
0.0001087322
0.0001103686
0.00011001716
0.00010691274
0.00010058763
9.0763387e-05
7.7313804e-05
6.0318363e-05
4.0295257e-05
1.6733331e-05
0.00010760494
0.00010792244
0.00010927561
0.0001111524
0.00011225669
0.000111443
0.0001079462
0.00010129331
9.1204085e-05
7.7553538e-05
6.0422523e-05
4.0326296e-05
1.674275e-05
0.00011105124
0.00011116682
0.00011207966
0.00011342078
0.00011401485
0.00011275834
0.00010888879
0.00010192821
9.1593624e-05
7.7760105e-05
6.0508689e-05
4.0350587e-05
1.6751732e-05
0.00011426441
0.00011419494
0.00011469989
0.00011553564
0.00011564286
0.00011396365
0.00010974109
0.00010249272
9.1932198e-05
7.7933547e-05
6.0576837e-05
4.0368099e-05
1.6760239e-05
0.00011724613
0.00011700733
0.00011713562
0.00011749676
0.00011714148
0.00011506017
0.0001105043
0.00010298776
9.2220375e-05
7.807417e-05
6.0627101e-05
4.0378868e-05
1.6768237e-05
0.00012000069
0.00011960699
0.00011938824
0.00011930531
0.00011851238
0.00011604987
0.00011118021
0.00010341472
9.2459117e-05
7.8182556e-05
6.0659785e-05
4.0383007e-05
1.6775699e-05
0.00012253426
0.00012199886
0.00012146082
0.00012096369
0.0001197581
0.00011693535
0.0001117712
0.00010377549
9.2649776e-05
7.8259571e-05
6.0675369e-05
4.0380709e-05
1.6782601e-05
0.00012485442
0.00012418934
0.00012335787
0.00012247537
0.00012088194
0.00011771982
0.00011228015
0.00010407242
9.2794076e-05
7.8306362e-05
6.067451e-05
4.0372248e-05
1.6788927e-05
0.00012696976
0.00012618595
0.00012508497
0.00012384473
0.00012188784
0.00011840701
0.00011271037
0.00010430824
9.2894081e-05
7.8324331e-05
6.065803e-05
4.0357968e-05
1.6794666e-05
0.00012888953
0.00012799698
0.0001266486
0.00012507687
0.00012278034
0.00011900109
0.00011306559
0.00010448603
9.295215e-05
7.8315114e-05
6.0626901e-05
4.0338281e-05
1.6799815e-05
0.00013062343
0.00012963124
0.00012805586
0.0001261775
0.0001235644
0.00011950658
0.00011334981
0.00010460916
9.297089e-05
7.8280538e-05
6.0582218e-05
4.0313652e-05
1.6804378e-05
0.00013218142
0.00013109792
0.00012931432
0.00012715277
0.00012424534
0.00011992827
0.0001135673
0.00010468121
9.2953102e-05
7.822259e-05
6.052518e-05
4.028459e-05
1.6808364e-05
0.00013357354
0.00013240636
0.00013043187
0.00012800916
0.00012482873
0.00012027114
0.00011372245
0.0001047059
9.2901728e-05
7.8143367e-05
6.0457057e-05
4.0251631e-05
1.6811789e-05
0.0001348098
0.00013356595
0.00013141655
0.00012875335
0.00012532034
0.00012054031
0.00011381978
0.00010468706
9.2819795e-05
7.8045041e-05
6.0379163e-05
4.0215328e-05
1.6814673e-05
0.00013590013
0.00013458602
0.00013227644
0.00012939213
0.00012572599
0.00012074094
0.00011386384
0.00010462855
9.2710371e-05
7.7929814e-05
6.0292833e-05
4.017624e-05
1.6817041e-05
0.00013685423
0.0001354758
0.00013301963
0.00012993234
0.00012605157
0.0001208782
0.00011385916
0.00010453421
9.2576515e-05
7.7799886e-05
6.0199394e-05
4.0134914e-05
1.6818922e-05
0.00013768158
0.00013624427
0.00013365408
0.00013038075
0.0001263029
0.00012095719
0.00011381022
0.00010440783
9.2421242e-05
7.7657423e-05
6.0100146e-05
4.0091882e-05
1.6820345e-05
0.00013839135
0.0001369002
0.00013418759
0.00013074406
0.00012648572
0.00012098295
0.00011372139
0.00010425312
9.2247487e-05
7.7504524e-05
5.9996343e-05
4.004765e-05
1.6821343e-05
0.00013899239
0.00013745205
0.00013462775
0.0001310288
0.00012660567
0.00012096036
0.00011359691
0.00010407363
9.2058081e-05
7.7343205e-05
5.9889175e-05
4.0002693e-05
1.682195e-05
0.00013949322
0.00013790797
0.0001349819
0.00013124131
0.00012666821
0.00012089417
0.00011344089
0.00010387281
9.1855721e-05
7.7175375e-05
5.9779759e-05
3.9957446e-05
1.6822201e-05
0.00013990197
0.00013827577
0.00013525711
0.00013138774
0.0001266786
0.00012078893
0.00011325724
0.00010365392
9.1642961e-05
7.7002825e-05
5.9669132e-05
3.9912307e-05
1.6822129e-05
0.00014022639
0.00013856291
0.00013546014
0.00013147399
0.00012664193
0.000120649
0.00011304968
0.00010342003
9.1422194e-05
7.6827217e-05
5.9558239e-05
3.986763e-05
1.6821769e-05
0.00014047385
0.00013877648
0.00013559746
0.00013150568
0.00012656303
0.00012047854
0.00011282173
0.00010317405
9.1195648e-05
7.6650078e-05
5.9447936e-05
3.9823729e-05
1.6821151e-05
0.00014065135
0.00013892321
0.00013567521
0.00013148821
0.00012644653
0.00012028149
0.00011257672
0.00010291867
9.0965375e-05
7.6472799e-05
5.9338986e-05
3.9780875e-05
1.6820309e-05
0.00014076549
0.00013900947
0.00013569921
0.00013142667
0.0001262968
0.00012006156
0.00011231774
0.0001026564
9.0733256e-05
7.6296631e-05
5.9232061e-05
3.9739297e-05
1.6819271e-05
0.00014082248
0.00013904125
0.00013567497
0.00013132589
0.00012611796
0.00011982222
0.00011204769
0.00010238953
9.0500996e-05
7.6122687e-05
5.9127742e-05
3.9699188e-05
1.6818066e-05
0.00014082817
0.00013902421
0.00013560766
0.00013119041
0.0001259139
0.00011956676
0.00011176924
0.00010212017
9.0270125e-05
7.5951934e-05
5.9026478e-05
3.9660489e-05
1.6816718e-05
0.00014078805
0.00013896362
0.00013550214
0.00013102451
0.00012568826
0.00011929819
0.00011148485
0.00010185023
9.0042001e-05
7.5785198e-05
5.8928627e-05
3.9623151e-05
1.6815251e-05
0.00014070723
0.00013886446
0.00013536298
0.00013083218
0.00012544443
0.00011901934
0.00011119679
0.00010158143
8.9817797e-05
7.5623119e-05
5.8834211e-05
3.9587466e-05
1.6813681e-05
0.0001405905
0.00013873133
0.00013519442
0.00013061717
0.00012518559
0.0001187328
0.0001109071
0.00010131528
8.9598542e-05
7.5466277e-05
5.8743572e-05
3.9553559e-05
1.681203e-05
0.00014044233
0.00013856855
0.00013500043
0.00013038295
0.00012491465
0.00011844094
0.00011061764
0.00010105312
8.9385027e-05
7.5314799e-05
5.8657143e-05
3.9521524e-05
1.6810318e-05
0.00014026684
0.00013838012
0.0001347847
0.00013013274
0.00012463431
0.00011814594
0.00011033004
0.0001007961
8.9177884e-05
7.516938e-05
5.8575072e-05
3.9491408e-05
1.6808564e-05
0.00014006787
0.00013816974
0.00013455062
0.00012986953
0.00012434706
0.00011784976
0.00011004579
0.00010054518
8.8977656e-05
7.5030481e-05
5.8497483e-05
3.9463246e-05
1.6806784e-05
0.00013984897
0.00013794085
0.00013430136
0.00012959605
0.00012405516
0.00011755417
0.00010976611
0.00010030103
8.8785142e-05
7.4898347e-05
5.8424457e-05
3.9437048e-05
1.6804994e-05
0.00013961341
0.0001376966
0.00013403982
0.00012931482
0.00012376067
0.0001172607
0.00010949203
0.00010006459
8.8600809e-05
7.4773155e-05
5.835603e-05
3.9412804e-05
1.6803208e-05
0.00013936421
0.00013743991
0.00013376865
0.00012902813
0.00012346541
0.00011697072
0.00010922456
9.9836646e-05
8.8424999e-05
7.4655018e-05
5.8292198e-05
3.9390488e-05
1.6801437e-05
0.00013910412
0.00013717344
0.0001334903
0.00012873806
0.000123171
0.00011668537
0.00010896477
9.961775e-05
8.8257966e-05
7.4543992e-05
5.8232924e-05
3.9370059e-05
1.6799691e-05
0.00013883567
0.00013689961
0.00013320695
0.00012844642
0.00012287885
0.00011640599
0.00010871346
9.9408339e-05
8.8099878e-05
7.4440079e-05
5.8178143e-05
3.9351463e-05
1.679798e-05
0.00013856114
0.00013662061
0.00013292053
0.00012815485
0.00012259049
0.00011613362
0.00010847129
9.9208749e-05
8.7950832e-05
7.434323e-05
5.8127759e-05
3.9334638e-05
1.6796311e-05
0.00013828256
0.00013633836
0.00013263285
0.00012786504
0.00012230719
0.00011586917
0.0001082388
9.9019221e-05
8.7810855e-05
7.4253355e-05
5.8081659e-05
3.9319516e-05
1.679469e-05
0.00013800178
0.00013605471
0.00013234564
0.00012757842
0.00012203008
0.00011561341
0.00010801642
9.8839909e-05
8.7679912e-05
7.4170326e-05
5.8039708e-05
3.9306022e-05
1.6793123e-05
0.00013772055
0.00013577133
0.00013206044
0.00012729632
0.00012176015
0.00011536696
0.00010780447
9.8670892e-05
8.7557918e-05
7.4093982e-05
5.8001758e-05
3.9294078e-05
1.6791613e-05
0.00013744043
0.00013548976
0.00013177864
0.00012701986
0.00012149823
0.00011513035
0.0001076032
9.8512179e-05
8.7444737e-05
7.4024137e-05
5.7967647e-05
3.9283601e-05
1.6790164e-05
0.00013716283
0.00013521137
0.00013150147
0.00012675007
0.00012124504
0.00011490401
0.00010741274
9.8363713e-05
8.7340194e-05
7.3960577e-05
5.7937206e-05
3.927451e-05
1.6788779e-05
0.00013688906
0.00013493738
0.00013123003
0.00012648781
0.00012100119
0.00011468824
0.00010723317
9.8225385e-05
8.7244075e-05
7.3903073e-05
5.7910258e-05
3.9266721e-05
1.678746e-05
0.00013662023
0.00013466889
0.00013096526
0.00012623382
0.00012076715
0.00011448328
0.0001070645
9.8097032e-05
8.7156135e-05
7.3851378e-05
5.7886621e-05
3.926015e-05
1.6786208e-05
0.00013635736
0.00013440684
0.000130708
0.00012598874
0.00012054333
0.00011428926
0.00010690665
9.797845e-05
8.7076106e-05
7.3805236e-05
5.7866111e-05
3.9254716e-05
1.6785024e-05
0.00013610132
0.00013415206
0.00013045896
0.0001257531
0.00012033001
0.00011410627
0.00010675952
9.7869394e-05
8.7003695e-05
7.3764378e-05
5.7848542e-05
3.9250338e-05
1.6783908e-05
0.00013585289
0.00013390528
0.00013021875
0.00012552731
0.00012012741
0.0001139343
0.00010662292
9.7769589e-05
8.6938592e-05
7.3728532e-05
5.783373e-05
3.9246935e-05
1.6782859e-05
0.0001356127
0.00013366709
0.00012998785
0.00012531171
0.00011993566
0.00011377329
0.00010649665
9.767873e-05
8.6880475e-05
7.3697423e-05
5.7821491e-05
3.9244431e-05
1.6781878e-05
0.0001353813
0.00013343801
0.00012976667
0.00012510654
0.00011975481
0.00011362312
0.00010638045
9.7596491e-05
8.6829012e-05
7.3670773e-05
5.7811645e-05
3.9242753e-05
1.6780963e-05
0.00013515915
0.00013321844
0.00012955552
0.00012491198
0.00011958488
0.00011348363
0.00010627404
9.7522526e-05
8.6783863e-05
7.3648307e-05
5.7804017e-05
3.9241827e-05
1.6780114e-05
0.00013494661
0.0001330087
0.00012935465
0.00012472811
0.00011942579
0.00011335461
0.00010617711
9.7456475e-05
8.6744685e-05
7.3629751e-05
5.7798434e-05
3.9241586e-05
1.6779328e-05
0.00013474395
0.00013280904
0.0001291642
0.00012455498
0.00011927743
0.00011323581
0.00010608931
9.7397969e-05
8.6711134e-05
7.3614836e-05
5.7794731e-05
3.9241963e-05
1.6778604e-05
0.00013455137
0.00013261962
0.00012898426
0.00012439254
0.00011913963
0.00011312695
0.00010601029
9.7346628e-05
8.6682868e-05
7.3603299e-05
5.7792748e-05
3.9242898e-05
1.677794e-05
0.000134369
0.00013244055
0.00012881487
0.00012424072
0.00011901219
0.00011302771
0.00010593967
9.7302072e-05
8.6659546e-05
7.3594883e-05
5.779233e-05
3.9244329e-05
1.6777335e-05
0.00013419691
0.00013227186
0.00012865599
0.00012409938
0.00011889487
0.00011293778
0.00010587708
9.7263915e-05
8.6640833e-05
7.3589339e-05
5.7793329e-05
3.9246202e-05
1.6776785e-05
0.00013403511
0.00013211352
0.00012850753
0.00012396835
0.00011878739
0.00011285678
0.00010582211
9.7231773e-05
8.6626401e-05
7.3586425e-05
5.7795604e-05
3.9248463e-05
1.677629e-05
0.00013388354
0.00013196548
0.00012836936
0.00012384741
0.00011868944
0.00011278435
0.00010577437
9.7205263e-05
8.6615925e-05
7.3585907e-05
5.779902e-05
3.9251062e-05
1.6775845e-05
0.0001337421
0.00013182759
0.00012824131
0.00012373631
0.0001186007
0.0001127201
0.00010573344
9.7184007e-05
8.6609093e-05
7.358756e-05
5.7803449e-05
3.9253952e-05
1.677545e-05
0.00013361065
0.00013169969
0.00012812315
0.00012363476
0.00011852081
0.00011266363
0.00010569894
9.7167631e-05
8.6605598e-05
7.359117e-05
5.7808769e-05
3.9257088e-05
1.6775102e-05
0.000133489
0.00013158159
0.00012801465
0.00012354245
0.0001184494
0.00011261454
0.00010567045
9.7155771e-05
8.6605144e-05
7.3596529e-05
5.7814865e-05
3.926043e-05
1.6774798e-05
0.00013337692
0.00013147302
0.00012791551
0.00012345904
0.00011838609
0.00011257242
0.00010564756
9.7148067e-05
8.6607448e-05
7.3603441e-05
5.7821628e-05
3.9263939e-05
1.6774536e-05
0.00013327417
0.00013137374
0.00012782543
0.00012338419
0.00011833049
0.00011253686
0.0001056299
9.7144174e-05
8.6612235e-05
7.3611719e-05
5.7828956e-05
3.9267579e-05
1.6774313e-05
0.00013318046
0.00013128343
0.00012774408
0.00012331753
0.00011828219
0.00011250744
0.00010561706
9.7143756e-05
8.6619244e-05
7.3621188e-05
5.7836754e-05
3.9271318e-05
1.6774127e-05
0.00013309549
0.00013120179
0.00012767112
0.00012325867
0.0001182408
0.00011248378
0.00010560867
9.7146489e-05
8.6628227e-05
7.363168e-05
5.7844934e-05
3.9275124e-05
1.6773976e-05
0.00013301893
0.00013112847
0.00012760618
0.00012320723
0.0001182059
0.00011246545
0.00010560437
9.7152063e-05
8.6638946e-05
7.3643042e-05
5.7853414e-05
3.9278971e-05
1.6773856e-05
0.00013295044
0.00013106312
0.0001275489
0.00012316282
0.00011817711
0.00011245209
0.00010560379
9.7160181e-05
8.6651181e-05
7.3655127e-05
5.7862119e-05
3.9282833e-05
1.6773767e-05
0.00013288967
0.00013100539
0.0001274989
0.00012312504
0.000118154
0.00011244329
0.00010560659
9.7170562e-05
8.666472e-05
7.3667801e-05
5.7870979e-05
3.9286688e-05
1.6773704e-05
0.00013283626
0.0001309549
0.00012745579
0.0001230935
0.00011813621
0.00011243869
0.00010561246
9.7182937e-05
8.6679368e-05
7.3680939e-05
5.7879931e-05
3.9290515e-05
1.6773668e-05
0.00013278983
0.00013091128
0.00012741919
0.0001230678
0.00011812332
0.00011243793
0.00010562106
9.7197052e-05
8.6694939e-05
7.3694425e-05
5.7888916e-05
3.9294297e-05
1.6773654e-05
0.00013275001
0.00013087414
0.0001273887
0.00012304756
0.00011811497
0.00011244065
0.0001056321
9.7212666e-05
8.671126e-05
7.370815e-05
5.7897883e-05
3.9298016e-05
1.6773661e-05
0.00013271642
0.0001308431
0.00012736394
0.00012303237
0.00011811079
0.00011244653
0.00010564529
9.7229551e-05
8.672817e-05
7.3722017e-05
5.7906783e-05
3.9301657e-05
1.6773688e-05
0.00013268868
0.00013081777
0.00012734453
0.00012302188
0.0001181104
0.00011245522
0.00010566036
9.7247494e-05
8.6745518e-05
7.3735933e-05
5.7915572e-05
3.9305208e-05
1.6773732e-05
0.00013266641
0.00013079779
0.00012733007
0.00012301569
0.00011811347
0.00011246643
0.00010567703
9.7266294e-05
8.6763166e-05
7.3749815e-05
5.792421e-05
3.9308657e-05
1.6773792e-05
0.00013264923
0.00013078276
0.0001273202
0.00012301345
0.00011811966
0.00011247984
0.00010569508
9.7285763e-05
8.6780983e-05
7.3763587e-05
5.7932663e-05
3.9311994e-05
1.6773865e-05
0.00013263677
0.00013077231
0.00012731455
0.0001230148
0.00011812863
0.00011249519
0.00010571426
9.7305727e-05
8.6798853e-05
7.3777181e-05
5.79409e-05
3.9315209e-05
1.677395e-05
0.00013262867
0.00013076609
0.00012731275
0.0001230194
0.00011814007
0.0001125122
0.00010573436
9.7326026e-05
8.6816669e-05
7.3790536e-05
5.7948893e-05
3.9318297e-05
1.6774045e-05
0.00013262457
0.00013076374
0.00012731447
0.00012302693
0.0001181537
0.00011253062
0.00010575518
9.7346513e-05
8.6834334e-05
7.3803598e-05
5.7956618e-05
3.9321236e-05
1.6774149e-05
0.00013262413
0.00013076492
0.00012731937
0.00012303707
0.00011816923
0.00011255021
0.00010577654
9.7367054e-05
8.6851762e-05
7.3816318e-05
5.7964051e-05
3.9324009e-05
1.677426e-05
0.00013262702
0.00013076929
0.00012732714
0.00012304953
0.00011818641
0.00011257076
0.00010579826
9.7387529e-05
8.6868874e-05
7.3828651e-05
5.7971157e-05
3.9326628e-05
1.6774377e-05
0.00013263291
0.00013077655
0.00012733745
0.00012306402
0.00011820497
0.00011259206
0.0001058202
9.7407828e-05
8.6885604e-05
7.3840562e-05
5.7977925e-05
3.9329097e-05
1.6774497e-05
0.00013264151
0.00013078638
0.00012735004
0.00012308028
0.0001182247
0.00011261392
0.0001058422
9.7427852e-05
8.6901887e-05
7.3852e-05
5.7984363e-05
3.9331418e-05
1.6774622e-05
0.00013265251
0.00013079851
0.00012736461
0.00012309805
0.00011824537
0.00011263617
0.00010586413
9.7447512e-05
8.6917669e-05
7.3862951e-05
5.7990467e-05
3.9333593e-05
1.6774748e-05
0.00013266563
0.00013081264
0.0001273809
0.00012311709
0.00011826677
0.00011265865
0.00010588588
9.7466724e-05
8.6932884e-05
7.3873413e-05
5.7996234e-05
3.9335625e-05
1.6774877e-05
0.00013268062
0.00013082852
0.00012739867
0.00012313718
0.00011828873
0.0001126812
0.00010590734
9.7485409e-05
8.6947515e-05
7.3883372e-05
5.8001665e-05
3.9337519e-05
1.6775006e-05
0.00013269719
0.00013084589
0.00012741767
0.0001231581
0.00011831106
0.00011270369
0.0001059284
9.7503502e-05
8.6961541e-05
7.3892819e-05
5.8006761e-05
3.9339278e-05
1.6775135e-05
0.00013271513
0.00013086452
0.00012743768
0.00012317966
0.00011833359
0.00011272599
0.00010594896
9.7520969e-05
8.6974937e-05
7.3901746e-05
5.8011524e-05
3.9340904e-05
1.6775263e-05
0.00013273419
0.00013088418
0.00012745849
0.00012320166
0.00011835617
0.00011274796
0.00010596896
9.7537767e-05
8.6987684e-05
7.3910152e-05
5.801596e-05
3.9342401e-05
1.6775391e-05
0.00013275415
0.00013090465
0.0001274799
0.00012322394
0.00011837865
0.00011276952
0.00010598834
9.7553862e-05
8.6999768e-05
7.3918036e-05
5.8020074e-05
3.9343773e-05
1.6775516e-05
0.00013277482
0.00013092574
0.00012750171
0.00012324632
0.0001184009
0.00011279058
0.00010600705
9.7569226e-05
8.7011182e-05
7.3925402e-05
5.8023871e-05
3.9345023e-05
1.6775639e-05
0.000132796
0.00013094727
0.00012752377
0.00012326867
0.00011842282
0.00011281107
0.00010602504
9.758384e-05
8.7021922e-05
7.3932255e-05
5.8027361e-05
3.9346157e-05
1.6775759e-05
0.00013281751
0.00013096905
0.00012754591
0.00012329085
0.00011844433
0.00011283092
0.00010604227
9.7597688e-05
8.703199e-05
7.3938606e-05
5.8030552e-05
3.9347179e-05
1.6775876e-05
0.00013283921
0.00013099094
0.000127568
0.00012331276
0.00011846533
0.00011285009
0.00010605872
9.7610765e-05
8.7041392e-05
7.3944467e-05
5.8033456e-05
3.9348094e-05
1.6775989e-05
0.00013286093
0.0001310128
0.00012758992
0.00012333431
0.00011848575
0.00011286852
0.00010607437
9.7623068e-05
8.7050139e-05
7.394985e-05
5.8036083e-05
3.9348908e-05
1.6776098e-05
0.00013288256
0.00013103451
0.00012761157
0.00012335539
0.00011850554
0.00011288619
0.0001060892
9.7634602e-05
8.7058242e-05
7.3954772e-05
5.8038446e-05
3.9349625e-05
1.6776203e-05
0.00013290399
0.00013105597
0.00012763284
0.00012337595
0.00011852463
0.00011290306
0.00010610321
9.7645373e-05
8.7065718e-05
7.3959247e-05
5.8040557e-05
3.9350251e-05
1.6776304e-05
0.00013292511
0.00013107706
0.00012765365
0.0001233959
0.00011854299
0.00011291911
0.00010611639
9.7655391e-05
8.7072581e-05
7.3963294e-05
5.8042426e-05
3.9350791e-05
1.67764e-05
0.00013294583
0.00013109772
0.00012767393
0.0001234152
0.00011856059
0.00011293433
0.00010612875
9.7664669e-05
8.707885e-05
7.3966927e-05
5.8044066e-05
3.9351249e-05
1.6776492e-05
0.00013296607
0.00013111787
0.00012769361
0.00012343379
0.00011857738
0.0001129487
0.00010614029
9.7673222e-05
8.7084542e-05
7.3970164e-05
5.8045488e-05
3.935163e-05
1.6776579e-05
0.00013298578
0.00013113744
0.00012771264
0.00012345165
0.00011859336
0.00011296223
0.00010615103
9.7681069e-05
8.708968e-05
7.3973022e-05
5.8046702e-05
3.9351938e-05
1.6776661e-05
0.00013300488
0.00013115638
0.00012773098
0.00012346873
0.00011860851
0.00011297493
0.00010616097
9.7688233e-05
8.7094287e-05
7.397552e-05
5.8047721e-05
3.9352178e-05
1.6776738e-05
0.00013302334
0.00013117465