/*--------------------------------*- C++ -*----------------------------------*\
| =========                 |                                                 |
| \\      /  F ield         | OpenFOAM: The Open Source CFD Toolbox           |
|  \\    /   O peration     | Version:  2506                                  |
|   \\  /    A nd           | Website:  www.openfoam.com                      |
|    \\/     M anipulation  |                                                 |
\*---------------------------------------------------------------------------*/
FoamFile
{
    version     2.0;
    format      ascii;
    arch        "LSB;label=32;scalar=64";
    class       volScalarField;
    location    "7000/water";
    object      T;
}
// * * * * * * * * * * * * * * * * * * * * * * * * * * * * * * * * * * * * * //

dimensions      [0 0 0 1 0 0 0];

internalField   nonuniform List<scalar> 
2600
(
333.15
333.15
333.15
333.15
333.15
333.15
333.15
333.14999
333.14998
333.14991
333.14959
333.14804
333.13783
333.15
333.15
333.15
333.15
333.15
333.15
333.14999
333.14998
333.14992
333.14971
333.14893
333.14549
333.12879
333.15
333.15
333.15
333.15
333.15
333.15
333.14999
333.14995
333.14983
333.14942
333.14806
333.14258
333.12149
333.15
333.15
333.15
333.15
333.15
333.14999
333.14997
333.1499
333.14969
333.14905
333.14703
333.13947
333.11531
333.15
333.15
333.15
333.15
333.14999
333.14998
333.14994
333.14983
333.14951
333.14861
333.14585
333.13627
333.10996
333.15
333.15
333.15
333.15
333.14999
333.14997
333.14991
333.14974
333.1493
333.1481
333.14452
333.13306
333.10528
333.15
333.15
333.15
333.14999
333.14998
333.14995
333.14987
333.14963
333.14904
333.14751
333.14306
333.12989
333.10119
333.15
333.15
333.15
333.14999
333.14998
333.14993
333.14981
333.1495
333.14876
333.14684
333.14144
333.12682
333.09765
333.15
333.15
333.15
333.14999
333.14996
333.1499
333.14974
333.14935
333.14843
333.14608
333.13967
333.12388
333.09462
333.15
333.15
333.14999
333.14998
333.14995
333.14987
333.14966
333.14918
333.14805
333.14522
333.13777
333.12113
333.09207
333.15
333.15
333.14999
333.14997
333.14993
333.14983
333.14957
333.14898
333.14762
333.14423
333.13575
333.11858
333.08994
333.15
333.14999
333.14999
333.14997
333.14991
333.14978
333.14946
333.14876
333.14713
333.14311
333.13367
333.11626
333.08818
333.14999
333.14999
333.14998
333.14995
333.14988
333.14972
333.14934
333.1485
333.14656
333.14185
333.13158
333.11417
333.08673
333.14999
333.14999
333.14998
333.14994
333.14985
333.14965
333.1492
333.1482
333.1459
333.14047
333.12953
333.1123
333.08553
333.14999
333.14999
333.14997
333.14992
333.14982
333.14957
333.14904
333.14786
333.14514
333.13899
333.12756
333.11063
333.08454
333.14999
333.14998
333.14996
333.1499
333.14977
333.14949
333.14886
333.14746
333.14427
333.13743
333.1257
333.10913
333.08372
333.14999
333.14998
333.14995
333.14988
333.14973
333.14938
333.14864
333.147
333.1433
333.13585
333.12397
333.1078
333.08303
333.14998
333.14997
333.14994
333.14985
333.14967
333.14927
333.1484
333.14647
333.14223
333.13426
333.12237
333.1066
333.08244
333.14998
333.14996
333.14992
333.14982
333.1496
333.14913
333.14811
333.14585
333.14108
333.13271
333.12089
333.10552
333.08194
333.14997
333.14995
333.1499
333.14979
333.14953
333.14898
333.14778
333.14515
333.13986
333.13121
333.11953
333.10454
333.08151
333.14996
333.14994
333.14988
333.14974
333.14944
333.1488
333.14739
333.14437
333.13861
333.12978
333.11828
333.10366
333.08113
333.14995
333.14993
333.14986
333.1497
333.14934
333.14859
333.14695
333.14351
333.13734
333.12842
333.11713
333.10285
333.0808
333.14994
333.14991
333.14983
333.14964
333.14923
333.14834
333.14644
333.14258
333.13608
333.12714
333.11606
333.10211
333.08051
333.14993
333.1499
333.1498
333.14958
333.14909
333.14806
333.14586
333.1416
333.13484
333.12593
333.11507
333.10144
333.08026
333.14992
333.14988
333.14976
333.1495
333.14894
333.14773
333.14521
333.14057
333.13363
333.12479
333.11416
333.10082
333.08004
333.1499
333.14985
333.14972
333.14941
333.14876
333.14735
333.1445
333.13953
333.13246
333.12372
333.1133
333.10025
333.07985
333.14988
333.14983
333.14967
333.14931
333.14854
333.14692
333.14373
333.13847
333.13134
333.12271
333.11251
333.09972
333.07968
333.14986
333.1498
333.14961
333.14919
333.1483
333.14643
333.14291
333.13742
333.13027
333.12176
333.11176
333.09923
333.07953
333.14984
333.14976
333.14954
333.14905
333.14802
333.14588
333.14205
333.13638
333.12924
333.12087
333.11107
333.09877
333.07939
333.14981
333.14972
333.14946
333.14889
333.14769
333.14528
333.14116
333.13536
333.12826
333.12002
333.11041
333.09834
333.07928
333.14977
333.14967
333.14937
333.14871
333.14731
333.14462
333.14025
333.13437
333.12732
333.11922
333.1098
333.09794
333.07917
333.14973
333.14961
333.14926
333.14849
333.14689
333.14392
333.13934
333.1334
333.12642
333.11847
333.10922
333.09757
333.07908
333.14968
333.14954
333.14913
333.14823
333.14641
333.14318
333.13843
333.13247
333.12556
333.11775
333.10867
333.09722
333.07901
333.14963
333.14946
333.14898
333.14794
333.14589
333.1424
333.13752
333.13156
333.12475
333.11706
333.10815
333.09689
333.07894
333.14956
333.14936
333.1488
333.14761
333.14531
333.14161
333.13663
333.13068
333.12396
333.11641
333.10765
333.09658
333.07888
333.14948
333.14925
333.1486
333.14723
333.14469
333.1408
333.13575
333.12984
333.12321
333.11579
333.10718
333.09628
333.07883
333.14939
333.14911
333.14836
333.1468
333.14403
333.13998
333.13488
333.12902
333.12249
333.1152
333.10674
333.096
333.07878
333.14928
333.14896
333.14808
333.14632
333.14334
333.13915
333.13404
333.12823
333.12181
333.11463
333.10631
333.09574
333.07874
333.14915
333.14877
333.14777
333.1458
333.14262
333.13833
333.13322
333.12747
333.12114
333.11409
333.1059
333.09549
333.0787
333.149
333.14855
333.1474
333.14523
333.14188
333.13752
333.13242
333.12674
333.1205
333.11357
333.10551
333.09524
333.07866
333.14881
333.1483
333.14699
333.14462
333.14112
333.13671
333.13163
333.12603
333.11989
333.11307
333.10514
333.09501
333.07863
333.14859
333.148
333.14653
333.14397
333.14036
333.13592
333.13087
333.12534
333.1193
333.11259
333.10478
333.09479
333.0786
333.14833
333.14766
333.14602
333.1433
333.13959
333.13513
333.13013
333.12467
333.11873
333.11213
333.10443
333.09458
333.07858
333.14802
333.14726
333.14547
333.1426
333.13881
333.13436
333.12941
333.12403
333.11818
333.11168
333.1041
333.09437
333.07855
333.14766
333.14681
333.14487
333.14188
333.13804
333.1336
333.1287
333.1234
333.11765
333.11125
333.10378
333.09417
333.07852
333.14724
333.14631
333.14423
333.14114
333.13727
333.13285
333.12802
333.1228
333.11713
333.11083
333.10346
333.09398
333.0785
333.14676
333.14574
333.14355
333.14038
333.13651
333.13212
333.12735
333.12221
333.11663
333.11043
333.10316
333.09379
333.07847
333.1462
333.14512
333.14284
333.13962
333.13575
333.13141
333.1267
333.12164
333.11615
333.11003
333.10286
333.0936
333.07844
333.14558
333.14445
333.1421
333.13885
333.13499
333.1307
333.12606
333.12108
333.11568
333.10965
333.10258
333.09342
333.07841
333.1449
333.14373
333.14133
333.13808
333.13425
333.13001
333.12544
333.12054
333.11522
333.10928
333.10229
333.09325
333.07838
333.14415
333.14295
333.14054
333.1373
333.13351
333.12933
333.12483
333.12001
333.11477
333.10891
333.10202
333.09307
333.07834
333.14335
333.14214
333.13973
333.13652
333.13278
333.12866
333.12424
333.11949
333.11433
333.10856
333.10175
333.0929
333.07831
333.14249
333.1413
333.13891
333.13573
333.13205
333.12801
333.12365
333.11898
333.1139
333.10821
333.10148
333.09273
333.07827
333.1416
333.14042
333.13807
333.13495
333.13133
333.12736
333.12308
333.11848
333.11348
333.10786
333.10122
333.09256
333.07823
333.14067
333.13952
333.13722
333.13417
333.13062
333.12672
333.12252
333.11799
333.11306
333.10752
333.10096
333.09238
333.07818
333.13972
333.13861
333.13637
333.13339
333.12991
333.12609
333.12196
333.11751
333.11266
333.10719
333.1007
333.09221
333.07813
333.13876
333.13768
333.13551
333.13261
333.12921
333.12547
333.12141
333.11704
333.11225
333.10686
333.10045
333.09204
333.07807
333.13779
333.13675
333.13465
333.13183
333.12852
333.12485
333.12087
333.11657
333.11186
333.10654
333.1002
333.09187
333.07801
333.13682
333.13582
333.13379
333.13106
333.12783
333.12424
333.12034
333.11611
333.11147
333.10621
333.09994
333.0917
333.07794
333.13584
333.13489
333.13294
333.13029
333.12714
333.12363
333.11981
333.11565
333.11108
333.10589
333.09969
333.09152
333.07787
333.13488
333.13396
333.13209
333.12952
333.12646
333.12304
333.11929
333.1152
333.11069
333.10557
333.09944
333.09134
333.07779
333.13393
333.13305
333.13125
333.12876
333.12579
333.12244
333.11877
333.11475
333.11031
333.10525
333.09918
333.09116
333.07771
333.13299
333.13214
333.13041
333.12801
333.12512
333.12185
333.11825
333.1143
333.10993
333.10493
333.09893
333.09097
333.07762
333.13206
333.13125
333.12959
333.12727
333.12446
333.12127
333.11774
333.11386
333.10955
333.10461
333.09867
333.09078
333.07752
333.13115
333.13038
333.12878
333.12654
333.12381
333.12069
333.11723
333.11342
333.10917
333.1043
333.09841
333.09059
333.07741
333.13026
333.12952
333.12798
333.12581
333.12316
333.12012
333.11673
333.11298
333.10879
333.10397
333.09815
333.09039
333.0773
333.12939
333.12868
333.12719
333.1251
333.12252
333.11955
333.11623
333.11254
333.10841
333.10365
333.09788
333.09018
333.07717
333.12853
333.12785
333.12642
333.12439
333.12189
333.11899
333.11573
333.1121
333.10803
333.10333
333.09762
333.08997
333.07704
333.1277
333.12704
333.12566
333.1237
333.12126
333.11843
333.11524
333.11167
333.10765
333.103
333.09734
333.08976
333.0769
333.12688
333.12625
333.12492
333.12301
333.12064
333.11788
333.11475
333.11124
333.10727
333.10268
333.09707
333.08954
333.07676
333.12609
333.12547
333.12419
333.12234
333.12003
333.11733
333.11426
333.11081
333.10689
333.10235
333.09679
333.08931
333.0766
333.12531
333.12472
333.12347
333.12168
333.11943
333.11679
333.11377
333.11038
333.10652
333.10202
333.0965
333.08907
333.07643
333.12455
333.12398
333.12277
333.12103
333.11884
333.11625
333.11329
333.10995
333.10613
333.10168
333.09622
333.08884
333.07626
333.1238
333.12325
333.12208
333.12039
333.11825
333.11572
333.11281
333.10952
333.10575
333.10135
333.09592
333.08859
333.07608
333.12308
333.12254
333.12141
333.11976
333.11768
333.11519
333.11234
333.10909
333.10537
333.10101
333.09563
333.08834
333.07588
333.12237
333.12185
333.12075
333.11915
333.11711
333.11467
333.11187
333.10867
333.10499
333.10067
333.09533
333.08808
333.07569
333.12168
333.12117
333.1201
333.11854
333.11655
333.11416
333.1114
333.10824
333.10461
333.10032
333.09502
333.08782
333.07548
333.121
333.12051
333.11947
333.11794
333.11599
333.11365
333.11093
333.10782
333.10422
333.09998
333.09471
333.08755
333.07526
333.12034
333.11986
333.11885
333.11736
333.11545
333.11315
333.11047
333.1074
333.10384
333.09963
333.0944
333.08728
333.07504
333.1197
333.11923
333.11824
333.11678
333.11491
333.11265
333.11001
333.10697
333.10345
333.09928
333.09408
333.087
333.07481
333.11906
333.11861
333.11764
333.11621
333.11438
333.11216
333.10956
333.10655
333.10307
333.09893
333.09376
333.08671
333.07457
333.11844
333.118
333.11705
333.11566
333.11385
333.11167
333.1091
333.10614
333.10268
333.09857
333.09344
333.08642
333.07432
333.11784
333.1174
333.11647
333.11511
333.11334
333.11118
333.10865
333.10572
333.10229
333.09821
333.09311
333.08613
333.07407
333.11724
333.11682
333.11591
333.11457
333.11282
333.1107
333.10821
333.1053
333.10191
333.09786
333.09278
333.08583
333.07381
333.11666
333.11624
333.11535
333.11403
333.11232
333.11023
333.10776
333.10488
333.10152
333.0975
333.09245
333.08552
333.07355
333.11609
333.11568
333.1148
333.11351
333.11182
333.10976
333.10732
333.10447
333.10113
333.09713
333.09211
333.08521
333.07328
333.11553
333.11513
333.11426
333.11299
333.11133
333.10929
333.10688
333.10406
333.10074
333.09677
333.09177
333.0849
333.073
333.11498
333.11458
333.11373
333.11248
333.11084
333.10883
333.10644
333.10364
333.10035
333.0964
333.09143
333.08458
333.07272
333.11443
333.11405
333.11321
333.11198
333.11036
333.10837
333.10601
333.10323
333.09996
333.09604
333.09109
333.08426
333.07243
333.1139
333.11352
333.1127
333.11148
333.10988
333.10792
333.10557
333.10282
333.09958
333.09567
333.09074
333.08394
333.07214
333.11338
333.113
333.11219
333.11099
333.10941
333.10746
333.10514
333.10241
333.09919
333.0953
333.09039
333.08361
333.07185
333.11286
333.11249
333.11169
333.1105
333.10894
333.10702
333.10471
333.102
333.09879
333.09493
333.09004
333.08328
333.07155
333.11235
333.11198
333.1112
333.11002
333.10848
333.10657
333.10429
333.10159
333.0984
333.09455
333.08969
333.08295
333.07124
333.11185
333.11149
333.11071
333.10955
333.10802
333.10613
333.10386
333.10119
333.09801
333.09418
333.08933
333.08262
333.07093
333.11135
333.111
333.11023
333.10908
333.10757
333.10569
333.10344
333.10078
333.09762
333.09381
333.08897
333.08228
333.07062
333.11087
333.11051
333.10975
333.10861
333.10711
333.10525
333.10302
333.10037
333.09723
333.09343
333.08861
333.08194
333.07031
333.11038
333.11003
333.10928
333.10815
333.10667
333.10482
333.1026
333.09997
333.09684
333.09305
333.08825
333.0816
333.06999
333.10991
333.10956
333.10881
333.1077
333.10622
333.10439
333.10218
333.09956
333.09645
333.09268
333.08789
333.08125
333.06967
333.10944
333.10909
333.10835
333.10725
333.10578
333.10396
333.10176
333.09916
333.09606
333.0923
333.08753
333.0809
333.06934
333.10897
333.10863
333.1079
333.1068
333.10534
333.10353
333.10135
333.09875
333.09567
333.09192
333.08716
333.08056
333.06901
333.10851
333.10817
333.10744
333.10635
333.10491
333.1031
333.10093
333.09835
333.09528
333.09154
333.0868
333.08021
333.06868
333.10805
333.10772
333.10699
333.10591
333.10447
333.10268
333.10052
333.09795
333.09489
333.09116
333.08643
333.07985
333.06835
333.1076
333.10727
333.10655
333.10547
333.10404
333.10226
333.10011
333.09755
333.0945
333.09078
333.08606
333.0795
333.06801
333.10715
333.10682
333.1061
333.10503
333.10361
333.10184
333.0997
333.09715
333.09411
333.0904
333.08569
333.07914
333.06768
333.1067
333.10637
333.10567
333.1046
333.10319
333.10142
333.09929
333.09675
333.09371
333.09002
333.08533
333.07879
333.06734
333.10626
333.10593
333.10523
333.10417
333.10276
333.10101
333.09888
333.09635
333.09332
333.08964
333.08496
333.07843
333.06699
333.10582
333.1055
333.1048
333.10374
333.10234
333.10059
333.09847
333.09595
333.09293
333.08926
333.08458
333.07807
333.06665
333.10539
333.10506
333.10437
333.10332
333.10192
333.10018
333.09807
333.09555
333.09254
333.08888
333.08421
333.07771
333.06631
333.10495
333.10463
333.10394
333.10289
333.1015
333.09976
333.09766
333.09515
333.09215
333.0885
333.08384
333.07735
333.06596
333.10452
333.1042
333.10351
333.10247
333.10109
333.09935
333.09726
333.09475
333.09176
333.08812
333.08347
333.07698
333.06561
333.1041
333.10378
333.10309
333.10205
333.10067
333.09894
333.09685
333.09436
333.09137
333.08773
333.08309
333.07662
333.06526
333.10367
333.10335
333.10267
333.10163
333.10026
333.09854
333.09645
333.09396
333.09098
333.08735
333.08272
333.07626
333.0649
333.10325
333.10293
333.10225
333.10122
333.09984
333.09813
333.09605
333.09356
333.09059
333.08697
333.08234
333.07589
333.06455
333.10283
333.10251
333.10183
333.1008
333.09943
333.09772
333.09565
333.09317
333.0902
333.08658
333.08197
333.07552
333.06419
333.10241
333.10209
333.10141
333.10039
333.09902
333.09731
333.09524
333.09277
333.08981
333.0862
333.08159
333.07516
333.06384
333.10199
333.10168
333.101
333.09998
333.09861
333.09691
333.09484
333.09238
333.08942
333.08582
333.08122
333.07479
333.06348
333.10157
333.10126
333.10058
333.09956
333.09821
333.09651
333.09444
333.09198
333.08903
333.08544
333.08084
333.07442
333.06312
333.10116
333.10085
333.10017
333.09915
333.0978
333.0961
333.09405
333.09159
333.08864
333.08505
333.08046
333.07405
333.06275
333.10074
333.10043
333.09976
333.09875
333.09739
333.0957
333.09365
333.09119
333.08826
333.08467
333.08009
333.07368
333.06239
333.10033
333.10002
333.09935
333.09834
333.09699
333.0953
333.09325
333.0908
333.08787
333.08428
333.07971
333.07331
333.06203
333.09992
333.09961
333.09894
333.09793
333.09658
333.0949
333.09285
333.09041
333.08748
333.0839
333.07933
333.07293
333.06166
333.09951
333.0992
333.09853
333.09753
333.09618
333.0945
333.09245
333.09001
333.08709
333.08352
333.07895
333.07256
333.06129
333.0991
333.0988
333.09813
333.09712
333.09578
333.0941
333.09206
333.08962
333.0867
333.08313
333.07857
333.07219
333.06092
333.0987
333.09839
333.09772
333.09672
333.09538
333.0937
333.09166
333.08923
333.08631
333.08275
333.07819
333.07181
333.06055
333.09829
333.09798
333.09732
333.09631
333.09497
333.0933
333.09126
333.08883
333.08592
333.08236
333.07781
333.07144
333.06018
333.09789
333.09758
333.09691
333.09591
333.09457
333.0929
333.09087
333.08844
333.08553
333.08198
333.07743
333.07106
333.05981
333.09748
333.09717
333.09651
333.09551
333.09417
333.0925
333.09047
333.08805
333.08515
333.0816
333.07705
333.07068
333.05944
333.09708
333.09677
333.09611
333.09511
333.09377
333.0921
333.09008
333.08766
333.08476
333.08121
333.07667
333.07031
333.05906
333.09667
333.09637
333.0957
333.09471
333.09337
333.09171
333.08968
333.08727
333.08437
333.08083
333.07629
333.06993
333.05868
333.09627
333.09596
333.0953
333.0943
333.09298
333.09131
333.08929
333.08687
333.08398
333.08044
333.07591
333.06955
333.05831
333.09587
333.09556
333.0949
333.0939
333.09258
333.09091
333.0889
333.08648
333.08359
333.08005
333.07552
333.06917
333.05793
333.09547
333.09516
333.0945
333.09351
333.09218
333.09052
333.0885
333.08609
333.0832
333.07967
333.07514
333.06879
333.05755
333.09506
333.09476
333.0941
333.09311
333.09178
333.09012
333.08811
333.0857
333.08281
333.07928
333.07476
333.06841
333.05716
333.09466
333.09436
333.0937
333.09271
333.09138
333.08973
333.08771
333.08531
333.08243
333.0789
333.07437
333.06802
333.05678
333.09426
333.09396
333.0933
333.09231
333.09099
333.08933
333.08732
333.08492
333.08204
333.07851
333.07399
333.06764
333.05639
333.09386
333.09356
333.0929
333.09191
333.09059
333.08894
333.08693
333.08453
333.08165
333.07812
333.07361
333.06726
333.05601
333.09346
333.09316
333.0925
333.09151
333.09019
333.08854
333.08653
333.08414
333.08126
333.07774
333.07322
333.06687
333.05562
333.09307
333.09276
333.09211
333.09112
333.0898
333.08815
333.08614
333.08375
333.08087
333.07735
333.07283
333.06649
333.05523
333.09267
333.09236
333.09171
333.09072
333.0894
333.08775
333.08575
333.08335
333.08048
333.07696
333.07245
333.0661
333.05484
333.09227
333.09197
333.09131
333.09032
333.08901
333.08736
333.08536
333.08296
333.08009
333.07657
333.07206
333.06571
333.05445
333.09187
333.09157
333.09091
333.08993
333.08861
333.08696
333.08496
333.08257
333.0797
333.07619
333.07167
333.06532
333.05405
333.09147
333.09117
333.09052
333.08953
333.08822
333.08657
333.08457
333.08218
333.07931
333.0758
333.07128
333.06493
333.05366
333.09108
333.09077
333.09012
333.08913
333.08782
333.08617
333.08418
333.08179
333.07892
333.07541
333.07089
333.06454
333.05326
333.09068
333.09038
333.08972
333.08874
333.08743
333.08578
333.08379
333.0814
333.07853
333.07502
333.0705
333.06415
333.05286
333.09028
333.08998
333.08933
333.08834
333.08703
333.08539
333.08339
333.08101
333.07814
333.07463
333.07011
333.06376
333.05246
333.08988
333.08958
333.08893
333.08795
333.08664
333.08499
333.083
333.08062
333.07775
333.07424
333.06972
333.06336
333.05206
333.08949
333.08919
333.08853
333.08755
333.08624
333.0846
333.08261
333.08022
333.07736
333.07385
333.06933
333.06297
333.05165
333.08909
333.08879
333.08814
333.08716
333.08585
333.08421
333.08222
333.07983
333.07697
333.07345
333.06894
333.06257
333.05125
333.0887
333.08839
333.08774
333.08676
333.08545
333.08381
333.08182
333.07944
333.07658
333.07306
333.06854
333.06217
333.05084
333.0883
333.088
333.08735
333.08637
333.08506
333.08342
333.08143
333.07905
333.07618
333.07267
333.06815
333.06177
333.05043
333.0879
333.0876
333.08695
333.08597
333.08466
333.08303
333.08104
333.07865
333.07579
333.07227
333.06775
333.06137
333.05001
333.08751
333.08721
333.08656
333.08558
333.08427
333.08263
333.08064
333.07826
333.0754
333.07188
333.06735
333.06097
333.0496
333.08711
333.08681
333.08616
333.08518
333.08388
333.08224
333.08025
333.07787
333.075
333.07148
333.06696
333.06057
333.04918
333.08672
333.08642
333.08577
333.08479
333.08348
333.08184
333.07986
333.07747
333.07461
333.07109
333.06656
333.06016
333.04876
333.08632
333.08602
333.08537
333.08439
333.08309
333.08145
333.07946
333.07708
333.07421
333.07069
333.06616
333.05976
333.04834
333.08593
333.08563
333.08498
333.084
333.08269
333.08105
333.07907
333.07668
333.07382
333.07029
333.06576
333.05935
333.04792
333.08553
333.08523
333.08458
333.0836
333.0823
333.08066
333.07867
333.07629
333.07342
333.0699
333.06536
333.05894
333.04749
333.08513
333.08483
333.08419
333.08321
333.0819
333.08027
333.07828
333.07589
333.07302
333.0695
333.06495
333.05853
333.04706
333.08474
333.08444
333.08379
333.08281
333.08151
333.07987
333.07788
333.0755
333.07263
333.0691
333.06455
333.05812
333.04663
333.08434
333.08404
333.0834
333.08242
333.08111
333.07948
333.07749
333.0751
333.07223
333.0687
333.06414
333.0577
333.0462
333.08395
333.08365
333.083
333.08202
333.08072
333.07908
333.07709
333.0747
333.07183
333.06829
333.06374
333.05729
333.04576
333.08355
333.08325
333.0826
333.08163
333.08032
333.07868
333.07669
333.07431
333.07143
333.06789
333.06333
333.05687
333.04532
333.08316
333.08286
333.08221
333.08123
333.07993
333.07829
333.0763
333.07391
333.07103
333.06749
333.06292
333.05645
333.04488
333.08276
333.08246
333.08181
333.08084
333.07953
333.07789
333.0759
333.07351
333.07063
333.06708
333.06251
333.05603
333.04444
333.08237
333.08207
333.08142
333.08044
333.07913
333.07749
333.0755
333.07311
333.07023
333.06668
333.06209
333.0556
333.04399
333.08197
333.08167
333.08102
333.08004
333.07874
333.0771
333.0751
333.07271
333.06982
333.06627
333.06168
333.05518
333.04354
333.08158
333.08128
333.08063
333.07965
333.07834
333.0767
333.0747
333.07231
333.06942
333.06586
333.06126
333.05475
333.04308
333.08118
333.08088
333.08023
333.07925
333.07794
333.0763
333.0743
333.07191
333.06901
333.06545
333.06085
333.05432
333.04262
333.08078
333.08048
333.07983
333.07885
333.07755
333.0759
333.0739
333.0715
333.06861
333.06504
333.06043
333.05389
333.04216
333.08039
333.08009
333.07944
333.07846
333.07715
333.0755
333.0735
333.0711
333.0682
333.06463
333.06001
333.05345
333.0417
333.07999
333.07969
333.07904
333.07806
333.07675
333.0751
333.0731
333.0707
333.06779
333.06421
333.05958
333.05301
333.04123
333.07959
333.07929
333.07864
333.07766
333.07635
333.0747
333.0727
333.07029
333.06738
333.0638
333.05916
333.05257
333.04075
333.0792
333.0789
333.07824
333.07726
333.07595
333.0743
333.0723
333.06989
333.06697
333.06338
333.05873
333.05213
333.04028
333.0788
333.0785
333.07785
333.07686
333.07555
333.0739
333.07189
333.06948
333.06656
333.06296
333.0583
333.05168
333.0398
333.0784
333.0781
333.07745
333.07647
333.07515
333.0735
333.07149
333.06907
333.06615
333.06254
333.05787
333.05124
333.03931
333.078
333.0777
333.07705
333.07607
333.07475
333.0731
333.07108
333.06866
333.06573
333.06212
333.05744
333.05079
333.03882
333.07761
333.0773
333.07665
333.07567
333.07435
333.07269
333.07068
333.06825
333.06532
333.0617
333.05701
333.05033
333.03833
333.07721
333.07691
333.07625
333.07526
333.07395
333.07229
333.07027
333.06784
333.0649
333.06127
333.05657
333.04987
333.03783
333.07681
333.07651
333.07585
333.07486
333.07354
333.07188
333.06986
333.06743
333.06448
333.06084
333.05613
333.04941
333.03732
333.07641
333.07611
333.07545
333.07446
333.07314
333.07148
333.06945
333.06701
333.06406
333.06042
333.05569
333.04895
333.03681
333.07601
333.07571
333.07505
333.07406
333.07274
333.07107
333.06904
333.0666
333.06364
333.05998
333.05524
333.04848
333.0363
333.07561
333.0753
333.07465
333.07366
333.07233
333.07066
333.06863
333.06618
333.06322
333.05955
333.05479
333.04801
333.03577
333.07521
333.0749
333.07424
333.07325
333.07192
333.07025
333.06822
333.06576
333.06279
333.05911
333.05434
333.04753
333.03525
333.0748
333.0745
333.07384
333.07285
333.07152
333.06984
333.0678
333.06534
333.06236
333.05868
333.05389
333.04705
333.03471
333.0744
333.0741
333.07344
333.07244
333.07111
333.06943
333.06739
333.06492
333.06193
333.05824
333.05343
333.04657
333.03417
333.074
333.07369
333.07303
333.07204
333.0707
333.06902
333.06697
333.0645
333.0615
333.05779
333.05297
333.04608
333.03362
333.0736
333.07329
333.07263
333.07163
333.07029
333.06861
333.06655
333.06407
333.06107
333.05735
333.05251
333.04559
333.03307
333.07319
333.07289
333.07222
333.07122
333.06988
333.06819
333.06613
333.06365
333.06063
333.0569
333.05204
333.04509
333.0325
333.07279
333.07248
333.07182
333.07081
333.06947
333.06778
333.06571
333.06322
333.0602
333.05645
333.05157
333.04458
333.03193
333.07238
333.07207
333.07141
333.0704
333.06906
333.06736
333.06529
333.06279
333.05976
333.05599
333.05109
333.04407
333.03135
333.07197
333.07167
333.071
333.06999
333.06864
333.06694
333.06486
333.06236
333.05931
333.05554
333.05061
333.04356
333.03075
333.07157
333.07126
333.07059
333.06958
333.06823
333.06652
333.06444
333.06192
333.05887
333.05507
333.05013
333.04304
333.03015
333.07116
333.07085
333.07018
333.06917
333.06781
333.0661
333.06401
333.06148
333.05842
333.05461
333.04964
333.04251
333.02953
333.07075
333.07044
333.06977
333.06875
333.06739
333.06568
333.06358
333.06105
333.05797
333.05414
333.04914
333.04197
333.0289
333.07034
333.07003
333.06935
333.06833
333.06697
333.06525
333.06315
333.0606
333.05751
333.05367
333.04864
333.04142
333.02825
333.06993
333.06961
333.06894
333.06792
333.06655
333.06482
333.06271
333.06016
333.05705
333.05319
333.04814
333.04087
333.02758
333.06951
333.0692
333.06852
333.0675
333.06613
333.0644
333.06228
333.05971
333.05659
333.05271
333.04762
333.0403
333.02689
333.0691
333.06879
333.06811
333.06708
333.0657
333.06396
333.06184
333.05926
333.05613
333.05222
333.0471
333.03972
333.02616
333.06868
333.06837
333.06769
333.06666
333.06528
333.06353
333.06139
333.05881
333.05566
333.05173
333.04657
333.03912
333.02539
333.06827
333.06795
333.06727
333.06624
333.06485
333.0631
333.06095
333.05835
333.05518
333.05122
333.04602
333.03848
333.02452
)
;

boundaryField
{
    water_inlet
    {
        type            fixedValue;
        value           uniform 333.15;
    }
    water_outlet
    {
        type            zeroGradient;
    }
    water_wedge1
    {
        type            wedge;
    }
    water_wedge2
    {
        type            wedge;
    }
    water_to_rock
    {
        type            compressible::turbulentTemperatureRadCoupledMixed;
        refValue        nonuniform List<scalar> 
200
(
315.50063
319.11755
320.92352
322.02017
322.78005
323.35291
323.80937
324.18733
324.50923
324.78931
325.03711
325.25927
325.46059
325.6446
325.81401
325.97091
326.11697
326.25354
326.38172
326.50242
326.61642
326.72436
326.82679
326.92419
327.01695
327.10545
327.18998
327.27082
327.34821
327.42238
327.49351
327.56177
327.62733
327.69033
327.75089
327.80915
327.8652
327.91915
327.97109
328.02112
328.06931
328.11575
328.16049
328.20362
328.2452
328.28528
328.32392
328.36118
328.39712
328.43177
328.46518
328.49741
328.52849
328.55846
328.58736
328.61524
328.64212
328.66804
328.69303
328.71713
328.74036
328.76276
328.78434
328.80515
328.8252
328.84452
328.86313
328.88106
328.89833
328.91496
328.93097
328.94638
328.96122
328.97549
328.98923
329.00244
329.01514
329.02735
329.03909
329.05037
329.0612
329.0716
329.08158
329.09116
329.10035
329.10916
329.11759
329.12568
329.13341
329.14081
329.14788
329.15464
329.16108
329.16723
329.17309
329.17866
329.18396
329.18899
329.19375
329.19827
329.20253
329.20655
329.21033
329.21388
329.2172
329.2203
329.22318
329.22585
329.2283
329.23055
329.2326
329.23444
329.23609
329.23754
329.2388
329.23987
329.24075
329.24145
329.24195
329.24228
329.24242
329.24237
329.24215
329.24174
329.24114
329.24037
329.23941
329.23827
329.23695
329.23543
329.23374
329.23185
329.22977
329.2275
329.22503
329.22237
329.2195
329.21643
329.21316
329.20967
329.20597
329.20205
329.19791
329.19354
329.18894
329.1841
329.17902
329.17368
329.16809
329.16224
329.15612
329.14972
329.14304
329.13607
329.12879
329.12121
329.11331
329.10507
329.0965
329.08758
329.07829
329.06863
329.05858
329.04814
329.03727
329.02598
329.01424
329.00204
328.98936
328.97617
328.96247
328.94822
328.93341
328.918
328.90198
328.8853
328.86795
328.84987
328.83103
328.8114
328.79091
328.76951
328.74715
328.72374
328.6992
328.67345
328.64635
328.61778
328.58757
328.5555
328.52132
328.48469
328.44513
328.40202
328.35442
328.30084
328.23876
328.16319
328.06257
327.90454
)
;
        refGradient     uniform 0;
        valueFraction   nonuniform List<scalar> 
200
(
0.021313587
0.018349032
0.017286587
0.016999676
0.017072311
0.017312679
0.017619574
0.017934173
0.018220835
0.018459614
0.01864309
0.018773723
0.018860286
0.018913928
0.018945118
0.018962099
0.018970608
0.018974281
0.018975235
0.018974594
0.018972889
0.01897032
0.018966927
0.018962686
0.018957559
0.018951519
0.01894456
0.018936694
0.018927949
0.018918366
0.018907994
0.018896903
0.018885173
0.018872882
0.018860098
0.018846868
0.018833224
0.018819204
0.018804843
0.018790181
0.018775253
0.018760098
0.018744752
0.018729251
0.018713631
0.018697926
0.018682171
0.018666398
0.018650643
0.018634938
0.018619319
0.018603823
0.018588486
0.018573349
0.018558454
0.018543848
0.018529578
0.018515694
0.018502248
0.018489294
0.018476882
0.018465063
0.018453884
0.018443386
0.018433604
0.018424565
0.01841629
0.018408788
0.018402063
0.018396108
0.018390909
0.018386445
0.018382687
0.018379602
0.018377154
0.018375302
0.018374003
0.018373212
0.018372886
0.018372979
0.018373449
0.018374253
0.018375349