/*--------------------------------*- C++ -*----------------------------------*\
| =========                 |                                                 |
| \\      /  F ield         | OpenFOAM: The Open Source CFD Toolbox           |
|  \\    /   O peration     | Version:  2506                                  |
|   \\  /    A nd           | Website:  www.openfoam.com                      |
|    \\/     M anipulation  |                                                 |
\*---------------------------------------------------------------------------*/
FoamFile
{
    version     2.0;
    format      ascii;
    arch        "LSB;label=32;scalar=64";
    class       volVectorField;
    location    "7000/water";
    object      U;
}
// * * * * * * * * * * * * * * * * * * * * * * * * * * * * * * * * * * * * * //

dimensions      [0 1 -1 0 0 0 0];

internalField   nonuniform List<vector> 
2600
(
(0.2509291 -6.6886033e-05 -7.5092656e-19)
(0.25093316 -0.00014739222 -2.8101337e-18)
(0.25094167 -0.00023143146 -7.4583261e-19)
(0.2509543 -0.00031980044 -7.7484452e-19)
(0.25097092 -0.0004082391 -1.7036603e-19)
(0.25099124 -0.00049673665 -1.2446176e-19)
(0.25101467 -0.0005856609 -5.3591707e-20)
(0.25103908 -0.00067482201 -8.5522408e-20)
(0.25105541 -0.00075972197 -1.3945426e-19)
(0.25102652 -0.00083857781 -2.5950691e-20)
(0.25079811 -0.00098580402 -5.916176e-20)
(0.24954942 -0.001485464 -5.375248e-20)
(0.2411817 0.0014904344 -4.4224694e-19)
(0.25290631 -5.2391824e-05 -7.4290669e-19)
(0.25291356 -0.00012867936 -3.1725035e-18)
(0.25292967 -0.00020232594 -1.500754e-18)
(0.25295369 -0.00027812692 -1.0218382e-18)
(0.25298503 -0.00035187867 -4.0737695e-19)
(0.25302278 -0.00042368282 -6.2718682e-20)
(0.25306456 -0.0004936843 -1.1844954e-19)
(0.25310219 -0.00056251339 -4.3701339e-21)
(0.25310631 -0.00062550536 -6.3514839e-20)
(0.25297401 -0.00066089399 -4.2683546e-20)
(0.25231856 -0.00068576655 -6.2407245e-20)
(0.24919071 -0.0011507908 -2.4110248e-19)
(0.23317376 0.00055016191 -5.6816637e-19)
(0.25485703 -5.0201261e-05 -7.6886222e-19)
(0.25486389 -0.00012463928 -9.6869153e-19)
(0.2548791 -0.00019574884 -2.3008788e-18)
(0.2549016 -0.00026956178 -6.2944505e-19)
(0.25493052 -0.00034177627 -2.2236223e-19)
(0.25496396 -0.00041257844 7.7956934e-20)
(0.25499618 -0.00048173979 9.8366196e-20)
(0.25500857 -0.00054996705 5.9518165e-19)
(0.25494172 -0.0006163767 5.4234547e-19)
(0.2546073 -0.0006602417 3.8408792e-20)
(0.25332071 -0.00063871076 -8.9302183e-20)
(0.2478214 -0.00092597142 -3.3558831e-19)
(0.22526486 0.00012340436 -5.7598323e-19)
(0.25664521 -4.9743849e-05 2.3998542e-18)
(0.25665224 -0.00012488064 2.1108514e-18)
(0.2566674 -0.00019721364 -4.6218593e-19)
(0.2566896 -0.0002720698 -3.9631592e-19)
(0.25671747 -0.00034495172 -1.6527951e-19)
(0.25674738 -0.00041609227 -2.7043644e-19)
(0.25676826 -0.0004848948 1.9471304e-19)
(0.25674667 -0.00055096518 2.9466725e-19)
(0.25658539 -0.00061444887 6.301627e-20)
(0.2559957 -0.0006636637 3.4314495e-20)
(0.2539403 -0.00063277351 -1.5767535e-19)
(0.24583249 -0.00077044467 -2.8649489e-19)
(0.21800982 -5.9385922e-05 -4.3905878e-19)
(0.25841323 -4.8556775e-05 2.1745208e-18)
(0.2584204 -0.00012219546 1.8526431e-18)
(0.25843571 -0.00019301892 1.1385835e-18)
(0.25845781 -0.00026625064 -6.7178987e-19)
(0.25848442 -0.00033744492 -4.7498068e-19)
(0.25850914 -0.00040689654 -1.9869505e-19)
(0.25851346 -0.00047389151 7.8151923e-20)
(0.25844542 -0.00053705871 -1.9230444e-19)
(0.25816424 -0.00059536594 4.6777406e-20)
(0.25726648 -0.00064373127 -1.3355754e-20)
(0.25431322 -0.0006144232 -6.4016524e-20)
(0.24352458 -0.00065114415 -1.1891938e-19)
(0.21163262 -0.00012321892 -4.0336349e-19)
(0.26015467 -4.709344e-05 1.1214176e-18)
(0.26016187 -0.0001185153 8.3371166e-19)
(0.26017704 -0.0001870764 1.5838481e-18)
(0.2601984 -0.00025799462 7.6247582e-19)
(0.26022227 -0.00032687702 -1.1522743e-19)
(0.26023853 -0.00039398781 7.2370479e-20)
(0.26021927 -0.00045855461 -9.1400258e-20)
(0.26009115 -0.00051865148 -1.224114e-19)
(0.25966515 -0.00057157394 4.6288453e-20)
(0.2584067 -0.0006148087 -9.7634893e-20)
(0.25443266 -0.00058544056 -9.6502801e-20)
(0.24102793 -0.0005571206 4.7226697e-20)
(0.20612335 -0.00013293671 -3.4434189e-19)
(0.26183846 -4.5390267e-05 6.0091107e-19)
(0.26184561 -0.00011435405 1.4059979e-18)
(0.26186042 -0.00018050108 1.6022756e-18)
(0.26188043 -0.00024892327 1.4304578e-18)
(0.26190008 -0.00031528561 1.7661714e-19)
(0.26190445 -0.00037977027 -1.0563235e-20)
(0.26185458 -0.00044151446 -1.610422e-19)
(0.2616533 -0.00049832849 -3.9909787e-20)
(0.26105826 -0.00054618084 -4.0413138e-19)
(0.25938354 -0.00058222647 -1.3336717e-19)
(0.25426994 -0.00054801504 -9.2205163e-20)
(0.23842933 -0.00047868139 -1.1574498e-19)
(0.20141646 -0.00011963306 -4.5018866e-19)
(0.26345768 -4.3664882e-05 -1.9604279e-18)
(0.26346469 -0.00011008558 -6.3750609e-19)
(0.26347885 -0.00017377013 -1.3397475e-19)
(0.26349678 -0.00023963045 2.842872e-19)
(0.26351051 -0.00030340684 -5.9427991e-20)
(0.26349932 -0.00036518044 -1.5566327e-19)
(0.26341166 -0.00042394823 -1.1159439e-19)
(0.2631242 -0.00047735793 -5.0774888e-20)
(0.26233468 -0.00052050214 4.7369518e-20)
(0.26018092 -0.00054846095 -5.1824275e-20)
(0.25381559 -0.00050481858 -7.2634481e-20)
(0.23581666 -0.00040978299 2.5798154e-20)
(0.19745226 -9.8494617e-05 -3.4940197e-19)
(0.26501552 -4.2046878e-05 1.7306829e-18)
(0.26502225 -0.00010599907 1.2187986e-18)
(0.26503542 -0.0001673021 1.0106697e-18)
(0.26505044 -0.00023067618 1.0713135e-18)
(0.26505633 -0.00029193976 3.3894465e-19)
(0.26502564 -0.00035106733 8.7750063e-20)
(0.26489279 -0.0004068816 -3.2922212e-20)
(0.26450568 -0.00045685738 -1.9115662e-19)
(0.26349313 -0.00049549056 -2.0864844e-19)
(0.26078727 -0.00051473411 -5.285185e-20)
(0.25307513 -0.00045847926 -5.8042111e-20)
(0.23327192 -0.00034737981 2.3592677e-19)
(0.19416843 -7.6932879e-05 -3.7696328e-20)
(0.2665165 -4.057706e-05 7.1135365e-19)
(0.26652283 -0.00010224007 1.3918666e-18)
(0.26653459 -0.00016134013 1.0191541e-18)
(0.26654572 -0.0002224043 9.2428831e-19)
(0.26654166 -0.00028132047 7.1932349e-19)
(0.26648729 -0.00033795568 4.0581845e-19)
(0.26630156 -0.0003909415 1.4527884e-19)
(0.26580019 -0.00043752442 1.4294591e-20)
(0.26453091 -0.00047164498 -2.1498766e-19)
(0.26118849 -0.00048140525 -4.4972737e-20)
(0.25206937 -0.00041120617 -6.0026056e-20)
(0.23086314 -0.00029047959 -7.8538957e-20)
(0.19149027 -5.8333256e-05 -2.0384265e-19)
(0.26796591 -3.9276698e-05 -1.9394396e-18)
(0.26797166 -9.8886216e-05 -7.7286827e-19)
(0.26798155 -0.00015601486 4.8657928e-20)
(0.26798768 -0.00021499986 8.6515876e-19)
(0.26797137 -0.00027178437 6.5616613e-19)
(0.26788889 -0.00032612646 2.2735072e-20)
(0.26764202 -0.00037645613 1.6947789e-19)
(0.26700984 -0.00041972353 1.2482863e-19)
(0.26544297 -0.00044912486 -6.2430993e-20)
(0.26137042 -0.00044842587 -1.4174432e-19)
(0.25083979 -0.00036475941 -1.6390474e-19)
(0.22864123 -0.00023936528 -4.6634759e-19)
(0.18933265 -4.3854023e-05 -2.4551759e-19)
(0.26936985 -3.8151201e-05 2.9539977e-19)
(0.26937484 -9.5961772e-05 -4.6342968e-19)
(0.26938229 -0.00015136516 2.735561e-20)
(0.2693822 -0.00020851724 7.2495856e-19)
(0.26935114 -0.00026339986 4.5237084e-19)
(0.26923575 -0.00031565718 -4.3995115e-20)
(0.26891866 -0.00036350366 -2.622445e-21)
(0.26813622 -0.00040351927 -5.1948692e-20)
(0.26622207 -0.00042777198 -9.0120837e-20)
(0.26132397 -0.00041560855 -9.7620974e-20)
(0.24944814 -0.00032041762 -1.4355822e-19)
(0.22663743 -0.00019477817 -3.6904991e-19)
(0.18760708 -3.3365971e-05 -2.3894565e-19)
(0.27073452 -3.7186892e-05 1.2885823e-18)
(0.27073851 -9.3441594e-05 1.7310728e-19)
(0.27074291 -0.00014735094 -4.0652142e-19)
(0.27073523 -0.00020290125 4.6792371e-19)
(0.27068668 -0.00025609589 4.2338854e-19)
(0.27053315 -0.00030645578 1.7297897e-19)
(0.27013553 -0.00035195662 -1.476154e-19)
(0.26917943 -0.00038871662 -1.7340092e-19)
(0.26685881 -0.00040716162 -1.7216307e-19)
(0.26105041 -0.00038281108 -8.4006367e-20)
(0.24796793 -0.00027903903 -1.6120576e-19)
(0.2248628 -0.00015723519 -3.1257929e-19)
(0.18622942 -2.6089619e-05 -1.9086453e-19)
(0.27206549 -3.6358598e-05 8.9865213e-19)
(0.27206822 -9.1270025e-05 -3.4117302e-19)
(0.27206885 -0.00014388431 -2.7575883e-19)
(0.27205207 -0.00019803069 8.6529824e-19)
(0.27198302 -0.00024971698 -3.4175191e-20)
(0.27178551 -0.0002983267 1.1080388e-19)
(0.27129541 -0.00034156266 2.3599048e-19)
(0.27013718 -0.00037494839 2.4293285e-20)
(0.26734241 -0.00038673535 -1.954437e-20)
(0.2605654 -0.00035005845 -1.7415784e-19)
(0.24647172 -0.00024119444 -1.8113867e-19)
(0.22331131 -0.00012666962 -3.0046388e-19)
(0.18512583 -2.1076369e-05 -3.5026877e-19)
(0.27336737 -3.5638788e-05 -7.4660259e-19)
(0.27336856 -8.938186e-05 -5.3696649e-19)
(0.27336463 -0.00014086217 7.8401659e-19)
(0.27333706 -0.00019376295 -2.0203449e-19)
(0.27324415 -0.00024407934 -1.8352992e-19)
(0.27299604 -0.00029103798 5.0115938e-20)
(0.27239931 -0.00033202382 2.0440289e-19)
(0.27100443 -0.00036176734 1.7084547e-19)
(0.26766283 -0.00036596046 2.6022911e-19)
(0.25989992 -0.00031757793 -1.2935489e-19)
(0.24502002 -0.00020725745 -3.9233507e-19)
(0.22196569 -0.00010242448 -1.8690339e-19)
(0.18423545 -1.7507117e-05 -2.4641206e-19)
(0.27464382 -3.5002894e-05 -1.4662215e-18)
(0.27464313 -8.7716017e-05 -2.8452236e-19)
(0.27463375 -0.00013818758 1.1095354e-18)
(0.2745935 -0.00018996324 1.3473897e-20)
(0.27447297 -0.00023900779 5.0538812e-19)
(0.27416661 -0.00028436529 2.810108e-19)
(0.27344636 -0.00032304577 -3.8780885e-20)
(0.27177364 -0.00034871442 2.4416127e-20)
(0.26781391 -0.00034445792 -1.9206565e-19)
(0.25909705 -0.00028576382 -1.3069618e-19)
(0.2436552 -0.00017740821 -3.3643908e-19)
(0.22080343 -8.3473061e-05 -4.7067549e-19)
(0.18351045 -1.4804616e-05 -1.1888567e-20)
(0.27589768 -3.4431105e-05 -7.6695511e-20)
(0.27589473 -8.6221418e-05 -3.7252983e-20)
(0.27587888 -0.00013577914 -1.7810606e-19)
(0.27582384 -0.00018651757 1.8819388e-19)
(0.27567139 -0.00023435206 3.6123684e-19)
(0.27529788 -0.00027811161 3.9346766e-19)
(0.27443375 -0.00031435606 1.3538846e-19)
(0.27243556 -0.00033536392 -1.2956453e-19)
(0.26779662 -0.00032206948 -2.3840898e-19)
(0.25820551 -0.00025510598 -1.332867e-19)
(0.24240122 -0.00015160163 -4.2671514e-20)
(0.21980119 -6.8691004e-05 -3.0923213e-19)
(0.18291435 -1.2618554e-05 -3.1960974e-19)
(0.27713109 -3.3908296e-05 1.2193401e-18)
(0.27712546 -8.4858001e-05 7.2139111e-19)
(0.27710201 -0.00013357264 -2.5624349e-19)
(0.27702977 -0.00018333501 3.3113401e-19)
(0.27684047 -0.00022998947 2.9986615e-19)
(0.2763893 -0.00027211088 2.5676103e-19)
(0.27535691 -0.00030570399 -3.6184917e-20)
(0.2729805 -0.00032135787 -1.3777235e-19)
(0.26762111 -0.00029886295 -1.1377961e-19)
(0.25727242 -0.00022610441 -1.5394863e-19)
(0.24126718 -0.00012956886 -1.2880117e-19)
(0.21893722 -5.7057436e-05 -2.8182941e-19)
(0.18241982 -1.0759084e-05 -2.6358005e-19)
(0.27834572 -3.3423243e-05 2.3346097e-18)
(0.27833694 -8.3595438e-05 8.3204182e-19)
(0.2783046 -0.00013151911 5.3889441e-19)
(0.27821241 -0.00018034488 1.1997374e-18)
(0.27798052 -0.00022582105 -7.709456e-20)
(0.27743925 -0.00026622306 3.189625e-20)
(0.27620962 -0.00029685485 1.9583321e-19)
(0.27340008 -0.00030643644 -2.2486479e-20)
(0.26730692 -0.00027509383 -1.5516976e-19)
(0.25633756 -0.0001991843 -2.1781487e-19)
(0.24025214 -0.0001108758 -2.558555e-19)
(0.21819234 -4.7749367e-05 -3.6335771e-19)
(0.18200662 -9.1303525e-06 -3.8948255e-19)
(0.27954284 -3.2967675e-05 2.7880717e-19)
(0.27953036 -8.2411064e-05 1.0491129e-18)
(0.27948767 -0.00012958149 1.5299315e-18)
(0.27937237 -0.00017749196 1.6287171e-19)
(0.27909121 -0.00022176546 7.1953066e-21)
(0.27844503 -0.00026032527 1.3059664e-19)
(0.27698441 -0.00028758731 2.2771744e-19)
(0.27368915 -0.00029046172 1.1499445e-19)
(0.26688073 -0.00025114512 4.4868285e-20)
(0.25543062 -0.00017462896 1.9476972e-19)
(0.2393495 -9.5013853e-05 -1.8622555e-19)
(0.21755 -4.0152307e-05 -1.0507308e-19)
(0.18165972 -7.6839566e-06 -1.7105707e-19)
(0.28072346 -3.253541e-05 -5.7652549e-20)
(0.28070667 -8.1287793e-05 1.0893569e-18)
(0.28065194 -0.00012773124 8.2821455e-19)
(0.28050986 -0.0001747318 -6.6792404e-20)
(0.28017156 -0.00021775303 6.8008206e-20)
(0.27940289 -0.00025430188 2.5491892e-19)
(0.27767312 -0.00027769789 3.1390789e-19)
(0.27384765 -0.00027342827 4.0315511e-19)
(0.26637281 -0.00022746053 9.5283414e-20)
(0.2545711 -0.0001525485 -1.6885287e-19)
(0.23855012 -8.1484028e-05 -3.7431749e-19)
(0.21699614 -3.3827432e-05 -1.4040874e-19)
(0.18136794 -6.3925371e-06 1.0112757e-19)
(0.28188837 -3.2121656e-05 7.9841092e-19)
(0.28186655 -8.0212343e-05 2.6845852e-18)
(0.28179785 -0.00012594549 1.3181949e-19)
(0.28162471 -0.00017202641 2.1788731e-19)
(0.28121999 -0.00021372065 -4.2858534e-20)
(0.28030804 -0.00024803603 1.651698e-19)
(0.27826773 -0.00026701328 3.1379677e-19)
(0.27388156 -0.00025545692 2.1269584e-19)
(0.26581311 -0.00020447967 6.2633011e-20)
(0.25377001 -0.00013289056 -4.4767235e-19)
(0.23784411 -6.9849918e-05 -3.0412296e-19)
(0.21651887 -2.8467152e-05 -1.1962321e-19)
(0.18112283 -5.2370918e-06 -8.8443875e-20)
(0.28303819 -3.1722485e-05 -1.538737e-19)
(0.28301052 -7.9173849e-05 1.7144834e-18)
(0.28292559 -0.00012420469 6.9959068e-19)
(0.28271638 -0.00016934096 4.4397824e-20)
(0.2822343 -0.00020960734 7.0103089e-19)
(0.28115476 -0.00024140493 1.7993026e-19)
(0.27876144 -0.00025540748 -1.3602356e-19)
(0.27380291 -0.00023677356 1.2488892e-19)
(0.26522808 -0.00018258167 -9.8300525e-21)
(0.25303215 -0.00011548282 -6.7397041e-20)
(0.23722187 -5.9756959e-05 -1.6067627e-20)
(0.21610816 -2.3855671e-05 2.6349246e-20)
(0.18091788 -4.2018423e-06 9.7275562e-20)
(0.28417339 -3.1334452e-05 9.2349792e-19)
(0.28413893 -7.8162818e-05 -1.5546592e-18)
(0.28403512 -0.00012249081 5.3726373e-20)
(0.28378396 -0.00016664114 5.2474561e-19)
(0.28321158 -0.0002053501 2.2610864e-19)
(0.28193659 -0.00023428041 1.3566795e-20)
(0.27914984 -0.00024281874 3.4573643e-19)
(0.27362851 -0.00021767781 6.2904842e-19)
(0.26463906 -0.00016204558 -6.0020647e-20)
(0.25235823 -0.00010008753 -4.3217745e-19)
(0.23667446 -5.0928432e-05 -4.2894723e-19)
(0.21575559 -1.9839552e-05 -1.5566056e-19)
(0.18074793 -3.272637e-06 2.9912901e-20)
(0.28529433 -3.0954306e-05 1.4233312e-18)
(0.28525196 -7.7170337e-05 -9.2553685e-19)
(0.28512619 -0.000120786 6.6086481e-19)
(0.28482614 -0.00016389138 3.1810785e-19)
(0.28414822 -0.00020087986 7.1255661e-21)
(0.28264669 -0.00022653515 -1.4999335e-20)
(0.27943202 -0.00022926076 2.7660033e-19)
(0.27337791 -0.00019850622 2.2761639e-19)
(0.26406181 -0.0001430334 1.3236013e-19)
(0.25174654 -8.6449683e-05 1.481082e-19)
(0.23619383 -4.3151084e-05 -2.5396532e-19)
(0.21545404 -1.6307484e-05 -2.7766573e-19)
(0.18060883 -2.4367082e-06 -4.5345057e-20)
(0.28640123 -3.0578784e-05 -1.6336126e-19)
(0.28634965 -7.6187464e-05 7.3549213e-20)
(0.28619826 -0.00011907139 9.6512071e-19)
(0.28584114 -0.00016105348 -8.5908782e-20)
(0.28503985 -0.00019611847 6.2332111e-19)
(0.2832784 -0.00021805401 1.1854381e-19)
(0.27961117 -0.00021482471 -8.5671976e-20)
(0.27307114 -0.00017959427 1.1536162e-19)
(0.26350715 -0.00012559658 3.7411085e-19)
(0.25119402 -7.4328971e-05 5.5690882e-19)
(0.23577276 -3.6259377e-05 2.9813402e-19)
(0.21519748 -1.317684e-05 -4.9876526e-20)
(0.18049716 -1.6827599e-06 4.528027e-20)
(0.28749419 -3.0204451e-05 -1.0276586e-18)
(0.28743185 -7.5204721e-05 1.3343585e-18)
(0.28725056 -0.00011732616 -1.9840708e-19)
(0.28682673 -0.00015808531 -2.174852e-19)
(0.28588145 -0.00019097762 4.5163333e-19)
(0.28382593 -0.00020874814 2.8183557e-19)
(0.27969464 -0.00019967158 8.0701458e-20)
(0.27272685 -0.00016124194 -1.081687e-20)
(0.26298189 -0.00010969946 1.0891362e-20)
(0.25069697 -6.3515024e-05 -6.4098429e-20)
(0.23540492 -3.0122548e-05 1.7899502e-19)
(0.21498079 -1.0384806e-05 1.111668e-19)
(0.18041 -1.0010048e-06 -6.8519422e-20)
(0.28857317 -2.9827535e-05 1.2280941e-18)
(0.28849825 -7.4211612e-05 5.8551336e-19)
(0.28828196 -0.00011552671 -2.5394156e-19)
(0.28778008 -0.00015493915 -3.0001311e-19)
(0.28666738 -0.00018536089 2.9674989e-19)
(0.28428521 -0.00019856896 2.0732865e-19)
(0.27969326 -0.00018401637 3.0414034e-20)
(0.27236107 -0.00014368791 7.222793e-20)
(0.26248991 -9.524987e-05 9.9998552e-21)
(0.25025143 -5.3830557e-05 -1.6488814e-19)
(0.23508472 -2.4635276e-05 2.5275438e-19)
(0.21479959 -7.8824927e-06 1.2272543e-19)
(0.18034487 -3.8308082e-07 4.3093827e-21)
(0.28963798 -2.9443749e-05 1.3891136e-18)
(0.28954832 -7.3196105e-05 4.9725198e-19)
(0.28929102 -0.00011364593 -5.2962698e-20)
(0.2886978 -0.00015155982 5.2152463e-19)
(0.28739174 -0.00017916927 1.0648446e-19)
(0.28465455 -0.00018751865 9.5598311e-20)
(0.27962017 -0.00016810641 4.7358493e-19)
(0.2719867 -0.00012709648 6.8632174e-19)
(0.26203302 -8.2127518e-05 1.7971908e-19)
(0.24985346 -4.5128131e-05 -4.9099688e-19)
(0.23480728 -1.9711265e-05 -1.4711815e-19)
(0.21465012 -5.6309927e-06 1.4321532e-19)
(0.18029962 1.781278e-07 8.8315166e-20)
(0.29068824 -2.9047996e-05 1.1951553e-18)
(0.29058125 -7.214382e-05 1.2234194e-18)
(0.29027586 -0.0001116522 1.1763213e-18)
(0.28957586 -0.00014788248 6.7138598e-19)
(0.28804865 -0.00017230925 -3.809748e-20)
(0.28493523 -0.00017565384 2.8871516e-19)
(0.2794894 -0.00015219579 4.2722879e-19)
(0.2716136 -0.0001115566 8.0752831e-20)
(0.26161163 -7.0203557e-05 2.1845309e-19)
(0.24949925 -3.7283202e-05 2.6376207e-19)
(0.23456828 -1.5277056e-05 -2.4049235e-19)
(0.21452909 -3.5978721e-06 7.6743807e-20)
(0.18027234 6.8891763e-07 8.7334993e-20)
(0.29172336 -2.863428e-05 1.3351657e-18)
(0.291596 -7.1037634e-05 6.4817235e-19)
(0.29123415 -0.00010950892 1.1133102e-18)
(0.29040962 -0.00014383257 6.9192682e-20)
(0.28863287 -0.00016470429 5.3494717e-19)
(0.28513156 -0.00016308395 4.4565096e-19)
(0.27931466 -0.00013652205 5.0511594e-20)
(0.27124896 -9.7093549e-05 6.7247019e-20)
(0.26122524 -5.935364e-05 3.1149556e-19)
(0.24918522 -3.0190167e-05 7.7143385e-19)
(0.23436395 -1.1270292e-05 2.6319068e-19)
(0.2144337 -1.7305445e-06 4.7518686e-20)
(0.18026136 1.1761586e-06 1.223474e-19)
(0.29274252 -2.8196034e-05 5.1336094e-19)
(0.29259116 -6.985846e-05 2.108658e-18)
(0.29216305 -0.00010717576 5.0042216e-19)
(0.29119393 -0.00013933085 4.6413871e-19)
(0.28914031 -0.00015631031 4.9024462e-19)
(0.28525057 -0.00014996782 3.3105078e-19)
(0.27910837 -0.00012129297 1.048127e-19)
(0.2708978 -8.3692835e-05 3.1970129e-19)
(0.26087272 -4.9471592e-05 1.8843539e-19)
(0.24890802 -2.3766763e-05 4.6876618e-20)
(0.23419085 -7.6476471e-06 1.8006585e-19)
(0.21436056 -1.6250334e-08 1.4210783e-21)
(0.18026627 1.6404002e-06 -1.5741261e-20)
(0.2937446 -2.7725099e-05 1.7231712e-18)
(0.29356496 -6.858319e-05 1.2993516e-18)
(0.29305914 -0.00010460504 9.0035632e-19)
(0.29192334 -0.00013429445 4.5654341e-19)
(0.28956868 -0.00014712078 4.5994478e-19)
(0.2853013 -0.00013649478 2.2183763e-19)
(0.27888121 -0.00010666836 1.8972804e-19)
(0.27056351 -7.1310462e-05 5.2449192e-19)
(0.26055265 -4.0462881e-05 2.9677563e-19)
(0.24866458 -1.7940243e-05 1.8032569e-19)
(0.23404606 -4.3538957e-06 2.018063e-19)
(0.21430781 1.5374146e-06 4.8032002e-20)
(0.18028522 2.0563917e-06 5.7085295e-20)
(0.29472815 -2.7211025e-05 2.3552824e-18)
(0.29451518 -6.7183246e-05 8.9683909e-21)
(0.29391842 -0.00010173906 -3.0223511e-19)
(0.29259237 -0.00012864185 4.8862e-19)
(0.28991788 -0.00013716948 6.0428144e-20)
(0.28529395 -0.00012286451 3.9877413e-19)
(0.27864192 -9.2752914e-05 1.0453717e-18)
(0.27024822 -5.988243e-05 9.3097455e-19)
(0.26026336 -3.2238652e-05 8.3697199e-20)
(0.24845204 -1.2642367e-05 -2.6063892e-19)
(0.23392646 -1.335873e-06 -1.8034765e-19)
(0.21427448 2.9561834e-06 1.2704826e-19)
(0.18031663 2.4263146e-06 2.0276329e-20)
(0.29569132 -2.6641404e-05 -8.3338612e-19)
(0.2954391 -6.5625549e-05 8.8109174e-19)
(0.29473631 -9.8512686e-05 5.5198918e-19)
(0.29319592 -0.0001223057 4.6490566e-19)
(0.29019018 -0.00012653596 1.8746917e-19)
(0.2852389 -0.00010927515 6.8536617e-19)
(0.27839743 -7.9607256e-05 8.5481589e-19)
(0.26995312 -4.9342219e-05 3.7164166e-20)
(0.26000309 -2.4722171e-05 1.0040712e-19)
(0.24826773 -7.8150862e-06 6.2823689e-20)
(0.23382955 1.4151536e-06 -1.0268347e-19)
(0.21425921 4.2390843e-06 8.5684187e-20)
(0.18035932 2.7544361e-06 -3.0123981e-20)
(0.29663173 -2.6001182e-05 -1.143451e-18)
(0.29633339 -6.3871158e-05 1.8308553e-18)
(0.29550768 -9.4853897e-05 1.5554369e-18)
(0.29372976 -0.0001152412 2.5886305e-20)
(0.29039011 -0.00011533898 7.9659182e-19)
(0.28514604 -9.5905382e-05 6.2639147e-19)
(0.27815305 -6.7254137e-05 -1.6890562e-19)
(0.26967872 -3.9623331e-05 -4.9696894e-20)
(0.25977003 -1.7841855e-05 4.0291085e-19)
(0.24810923 -3.3839673e-06 5.719223e-19)
(0.23375398 3.9312051e-06 3.637356e-19)
(0.21425996 5.3906105e-06 3.8567562e-20)
(0.18041214 3.0443399e-06 1.6217701e-19)
(0.29754645 -2.5272391e-05 7.7424478e-19)
(0.29719411 -6.1874454e-05 2.7049435e-18)
(0.29622706 -9.0687765e-05 2.7292518e-19)
(0.29419101 -0.0001074348 4.7084693e-19)
(0.290524 -0.00010372738 5.5726436e-19)
(0.28502427 -8.2903373e-05 4.830539e-19)
(0.27791277 -5.5688945e-05 1.6236767e-20)
(0.26942499 -3.0662242e-05 7.7290969e-20)
(0.25956226 -1.1539691e-05 1.8640967e-19)
(0.24797362 6.758871e-07 2.7728158e-19)
(0.23369893 6.2277124e-06 2.9303548e-19)
(0.21427538 6.4296316e-06 7.8361178e-20)
(0.18047413 3.3030846e-06 1.1989455e-20)
(0.29843186 -2.443409e-05 4.6532436e-19)
(0.29801658 -5.9582982e-05 8.8421426e-19)
(0.29688883 -8.59434e-05 5.1242568e-19)
(0.29457851 -9.8910852e-05 5.9673436e-19)
(0.29059935 -9.1868441e-05 4.0471495e-19)
(0.28488126 -7.0382634e-05 3.7536679e-19)
(0.27767954 -4.4890695e-05 3.2086713e-19)
(0.26919163 -2.2395859e-05 2.322043e-19)
(0.25937815 -5.7364324e-06 1.7925633e-19)
(0.24785972 4.3904692e-06 2.9013822e-19)
(0.2336621 8.3015837e-06 3.7629849e-19)
(0.21430404 7.3666892e-06 2.9928885e-19)
(0.18054443 3.5354612e-06 7.9470147e-20)
(0.29928359 -2.3462153e-05 2.3168709e-18)
(0.29879547 -5.6937594e-05 -5.8684743e-19)
(0.29748763 -8.0561628e-05 7.3346943e-19)
(0.29489309 -8.9732439e-05 1.2008124e-18)
(0.29062422 -7.9932353e-05 4.0888866e-20)
(0.28472341 -5.8420118e-05 1.5858852e-19)
(0.27745536 -3.4827549e-05 9.8778999e-19)
(0.26897782 -1.4770427e-05 1.0742039e-18)
(0.25921519 -3.9181817e-07 4.142445e-19)
(0.24776702 7.7920262e-06 -2.6565627e-19)
(0.23364198 1.0181085e-05 -2.1627693e-19)
(0.21434474 8.2147506e-06 2.0424145e-21)
(0.18062225 3.7449921e-06 8.4041656e-20)
(0.30009637 -2.2329731e-05 8.9796372e-19)
(0.29952479 -5.3875501e-05 1.9808418e-18)
(0.29801875 -7.4505262e-05 5.9467935e-19)
(0.29513749 -7.9999962e-05 1.0309349e-18)
(0.29060659 -6.8080595e-05 3.9932361e-19)
(0.28455591 -4.7062498e-05 1.3445407e-19)
(0.27724164 -2.5459247e-05 4.1758995e-19)
(0.2687829 -7.7156929e-06 2.7697656e-20)
(0.25907248 4.5153679e-06 -2.8055108e-20)
(0.24769347 1.088136e-05 -2.3866887e-19)
(0.23363709 1.1884842e-05 -1.5289611e-19)
(0.21439637 8.9837272e-06 -1.7582334e-20)
(0.1807069 3.9343411e-06 -8.5677758e-20)
(0.30086402 -2.1007839e-05 3.5870257e-19)
(0.30019808 -5.0335143e-05 2.6774031e-18)
(0.29847859 -6.7767508e-05 1.7517848e-18)
(0.29531608 -6.9843633e-05 -4.1225983e-19)
(0.29055391 -5.6454438e-05 7.7670322e-19)
(0.28438287 -3.633204e-05 4.8744321e-19)
(0.27703906 -1.6748281e-05 -2.6150524e-19)
(0.2686053 -1.1875459e-06 -5.5031686e-19)
(0.25894976 9.021316e-06 -1.8063762e-19)
(0.24763751 1.3689775e-05 3.6023676e-19)
(0.23364609 1.3431068e-05 3.7609872e-19)
(0.21445793 9.6806642e-06 -6.0779527e-20)
(0.18079772 4.1050114e-06 -7.6522479e-20)
(0.30157943 -1.9467192e-05 3.0823409e-18)
(0.30080863 -4.6264343e-05 1.7437147e-18)
(0.29886499 -6.0378836e-05 9.7302115e-19)
(0.29543444 -5.9413964e-05 6.4593145e-20)
(0.29047287 -4.516938e-05 6.1563506e-19)
(0.28420752 -2.6229167e-05 4.8729033e-19)
(0.27684812 -8.6362845e-06 -1.4180562e-19)
(0.26844451 4.8386289e-06 -3.2167411e-19)
(0.25884557 1.313575e-05 1.1324495e-19)
(0.2475977 1.6244078e-05 2.8528913e-19)
(0.23366777 1.4835337e-05 1.2866396e-19)
(0.21452852 1.0311967e-05 -2.3203555e-19)
(0.18089414 4.2585215e-06 -1.2656236e-19)
(0.30223466 -1.768157e-05 1.046109e-18)
(0.3013499 -4.1630431e-05 4.4371766e-19)
(0.29917751 -5.2409544e-05 -6.6606879e-19)
(0.29549883 -4.8869428e-05 6.9294397e-19)
(0.29036918 -3.4313659e-05 6.3291477e-19)
(0.28403214 -1.674752e-05 1.1801898e-19)
(0.27666826 -1.0891139e-06 3.0990311e-19)
(0.26830088 1.0390972e-05 -3.4721584e-19)
(0.25875851 1.6888478e-05 -4.4157865e-20)
(0.24757272 1.8568175e-05 -5.3038741e-19)
(0.23370102 1.6110009e-05 -1.2650006e-19)
(0.21460732 1.0882749e-05 -2.1069591e-19)
(0.18099561 4.3960668e-06 -1.5898402e-19)
(0.30282117 -1.563339e-05 -2.7861807e-19)
(0.30181594 -3.6431486e-05 1.7925939e-18)
(0.29941741 -4.3968557e-05 1.9110901e-19)
(0.29551566 -3.8365466e-05 4.9632964e-19)
(0.2902477 -2.3945222e-05 8.2840011e-20)
(0.28385859 -7.8477216e-06 -8.5802398e-20)
(0.27649982 5.9141283e-06 3.714819e-19)
(0.26817344 1.5479819e-05 2.4744528e-19)
(0.25868728 2.0310845e-05 9.3439556e-20)
(0.24756135 2.0682637e-05 -2.4569959e-19)
(0.23374484 1.72657e-05 -2.8611662e-19)
(0.21469357 1.1397581e-05 -1.8351085e-19)
(0.18110164 4.5187562e-06 -1.1041931e-19)
(0.30333026 -1.3320786e-05 2.2703385e-18)
(0.30220189 -3.0705582e-05 3.3922604e-18)
(0.29958744 -3.5196365e-05 1.620745e-18)
(0.29549103 -2.8043634e-05 4.8235649e-19)
(0.29011218 -1.4099825e-05 -2.0260038e-19)
(0.28368733 4.8519213e-07 -1.5219215e-19)
(0.276344 1.2388922e-05 -2.3004521e-19)
(0.26806118 2.013515e-05 3.9852353e-19)
(0.2586307 2.3431374e-05 2.4831142e-19)
(0.24756246 2.2604585e-05 4.1637735e-19)
(0.23379832 1.8311485e-05 -1.2301135e-20)
(0.21478659 1.186047e-05 9.4275876e-20)
(0.18121176 4.6275482e-06 -1.7700215e-20)
(0.30375374 -1.0764896e-05 2.7232249e-18)
(0.30250438 -2.4536341e-05 1.5650219e-18)
(0.29969147 -2.6255575e-05 1.8036226e-18)
(0.29543051 -1.8024172e-05 -6.0672064e-19)
(0.28996562 -4.7857817e-06 3.1715864e-19)
(0.28352015 8.2431552e-06 2.6826342e-19)
(0.27620025 1.8335922e-05 -1.3498347e-19)
(0.26796311 2.4389507e-05 -3.6820773e-20)
(0.25858763 2.6274696e-05 -1.1262999e-19)
(0.24757502 2.4348948e-05 3.0324887e-19)
(0.2338606 1.9255564e-05 1.5828803e-19)
(0.21488574 1.2275103e-05 -1.244559e-19)
(0.18132555 4.7233493e-06 -4.9170916e-20)
(0.30408466 -8.0145638e-06 1.0906407e-18)
(0.30272186 -1.8051769e-05 1.8003211e-18)
(0.29973407 -1.7315855e-05 6.9908579e-19)
(0.29533886 -8.3895462e-06 4.6436436e-19)
(0.28980995 3.9790056e-06 7.7475512e-19)
(0.28335875 1.5424548e-05 4.3652087e-19)
(0.27606809 2.3784786e-05 -1.1173555e-19)
(0.26787825 2.8272336e-05 -2.0849991e-19)
(0.25855702 2.886022e-05 -1.5255826e-19)
(0.24759809 2.5927666e-05 9.1963102e-20)
(0.23393092 2.0104457e-05 2.3400777e-19)
(0.21499042 1.2644263e-05 1.4102099e-19)
(0.1814426 4.8067378e-06 5.2729705e-21)
(0.30431819 -5.1449305e-06 -1.1275989e-19)
(0.30285461 -1.1412611e-05 7.1673381e-19)
(0.29971994 -8.533124e-06 9.7485025e-19)
(0.29521955 7.8212829e-07 2.0231222e-18)
(0.28964857 1.2143131e-05 8.7248599e-19)
(0.28320331 2.2022673e-05 7.8963332e-19)
(0.27594691 2.8765177e-05 7.949369e-19)
(0.26780566 3.1808751e-05 2.3728486e-19)
(0.25853789 3.1205231e-05 -1.9687446e-20)
(0.24763076 2.7351769e-05 -4.9937984e-19)
(0.23400854 2.0864252e-05 5.707408e-20)
(0.2151001 1.2970592e-05 1.6258175e-19)
(0.18156252 4.8783054e-06 2.8217214e-20)
(0.30445222 -2.2472191e-06 -1.1415332e-18)
(0.30290466 -4.7892076e-06 1.1474597e-18)
(0.2996534 -5.7405051e-08 1.4877531e-18)
(0.29507686 9.3869166e-06 1.561699e-18)
(0.28948321 1.9670598e-05 5.3732006e-19)
(0.28305385 2.8057847e-05 8.6558203e-19)
(0.27583605 3.3302724e-05 8.8194096e-19)
(0.26774441 3.5018239e-05 4.9947806e-19)
(0.25852929 3.3323482e-05 1.207542e-19)
(0.24767222 2.8629958e-05 -8.4428124e-20)
(0.23409279 2.1539538e-05 -1.335735e-19)
(0.21521426 1.3255931e-05 2.5356423e-20)
(0.18168496 4.9383754e-06 2.0528823e-20)
(0.30448759 5.8144182e-07 2.419375e-19)
(0.30287533 1.6332193e-06 1.9347733e-18)
(0.29953939 7.9404157e-06 3.1785991e-19)
(0.29491435 1.7334276e-05 7.3838329e-19)
(0.28931491 2.6550418e-05 6.3122095e-19)
(0.28291026 3.3548749e-05 5.4825598e-19)
(0.2757348 3.7416551e-05 3.6104865e-20)
(0.26769361 3.7916301e-05 2.6381361e-19)
(0.25853035 3.522614e-05 2.0785207e-19)
(0.24772169 2.9769106e-05 4.0525136e-19)
(0.23418305 2.2133764e-05 2.4077403e-19)
(0.2153324 1.3501556e-05 3.0083422e-19)
(0.18180955 4.9870992e-06 1.0209077e-19)
(0.30442824 3.2381452e-06 1.0662981e-18)
(0.30277199 7.6569996e-06 2.5173892e-18)
(0.29938292 1.5304022e-05 3.2468732e-18)
(0.29473444 2.4565388e-05 -4.0309351e-20)
(0.28914434 3.278171e-05 4.0087138e-19)
(0.28277222 3.8508135e-05 2.8269614e-19)
(0.27564244 4.1120457e-05 -3.1903152e-21)
(0.26765239 4.0514593e-05 2.6567548e-19)
(0.25854021 3.6921365e-05 4.4422395e-19)
(0.24777843 3.0773906e-05 5.1437442e-19)
(0.23427872 2.264901e-05 4.4256819e-19)
(0.21545406 1.3708031e-05 4.6276397e-20)
(0.18193595 5.0244013e-06 8.1087387e-20)
(0.30428147 5.6355919e-06 2.9517361e-18)
(0.30260141 1.3122388e-05 2.4756448e-18)
(0.29918843 2.1930427e-05 3.0161002e-18)
(0.29453912 3.1047522e-05 7.1214799e-19)
(0.28897192 3.8362683e-05 5.0962659e-20)
(0.28263933 4.2943539e-05 1.3636108e-19)
(0.2755582 4.4423826e-05 2.7974315e-19)
(0.26761989 4.2820969e-05 3.7986124e-19)
(0.25855808 3.8414235e-05 4.7338767e-19)
(0.24784174 3.1646834e-05 4.1326768e-19)
(0.23437921 2.308595e-05 2.4107534e-19)
(0.21557877 1.3875168e-05 2.2039692e-19)
(0.18206381 5.0499532e-06 8.4171515e-20)
(0.30405678 7.7205423e-06 1.6145912e-18)
(0.30237113 1.792671e-05 1.8338334e-18)
(0.29896016 2.7756813e-05 7.0066035e-19)
(0.29433004 3.6759511e-05 3.1000927e-19)
(0.28879784 4.3290989e-05 4.5751722e-19)
(0.2825111 4.6859595e-05 3.7368183e-19)
(0.2754813 4.7332583e-05 5.2402363e-20)
(0.26759529 4.4839921e-05 1.4163596e-19)
(0.25858316 3.9707072e-05 5.1743245e-20)
(0.24791094 3.2388373e-05 1.9026621e-19)
(0.23448396 2.3443976e-05 1.04535e-20)
(0.21570609 1.4002098e-05 1.2723515e-19)
(0.18219278 5.0632039e-06 7.9080214e-20)
(0.30376497 9.4676913e-06 7.3156647e-19)
(0.30208913 2.2015479e-05 8.1528617e-19)
(0.29870222 3.2751923e-05 1.2223023e-19)
(0.29410866 4.1691448e-05 4.3381717e-19)
(0.2886222 4.7566309e-05 9.2325193e-19)