/*--------------------------------*- C++ -*----------------------------------*\
| =========                 |                                                 |
| \\      /  F ield         | OpenFOAM: The Open Source CFD Toolbox           |
|  \\    /   O peration     | Version:  2506                                  |
|   \\  /    A nd           | Website:  www.openfoam.com                      |
|    \\/     M anipulation  |                                                 |
\*---------------------------------------------------------------------------*/
FoamFile
{
    version     2.0;
    format      ascii;
    arch        "LSB;label=32;scalar=64";
    class       volScalarField;
    location    "9000/water";
    object      alphat;
}
// * * * * * * * * * * * * * * * * * * * * * * * * * * * * * * * * * * * * * //

dimensions      [1 -1 -1 0 0 0 0];

internalField   nonuniform List<scalar> 
1000
(
0.038690245
0.038689577
0.038688046
0.038679676
0.038634252
0.038395956
0.037190881
0.031863289
0.019099264
0.016301307
0.036437656
0.036436968
0.036430539
0.036397696
0.036243742
0.035561449
0.032798675
0.024476366
0.014644262
0.017654592
0.034756095
0.034752687
0.034735392
0.034658263
0.034338315
0.033096043
0.028914326
0.020078527
0.014287394
0.017671293
0.033455038
0.033447371
0.03341324
0.033276591
0.032760734
0.030940112
0.0257699
0.01827199
0.015952008
0.01730153
0.032418332
0.032405139
0.032350678
0.03215053
0.031437451
0.029070439
0.023556234
0.018635948
0.018861606
0.016925718
0.031571667
0.031552637
0.031479596
0.031226168
0.030328153
0.027485394
0.022555333
0.020803892
0.022278948
0.016666262
0.030866455
0.030843487
0.030761492
0.030477936
0.029402094
0.026292324
0.02306207
0.024244039
0.02554139
0.016525219
0.03027085
0.030249443
0.030178141
0.029894446
0.028644258
0.025787449
0.025138551
0.028280547
0.028304966
0.016463216
0.029764731
0.029755532
0.029725642
0.029468569
0.028107015
0.026357143
0.028508416
0.03233453
0.030519184
0.016442692
0.02933706
0.02935752
0.029409734
0.029196652
0.027980941
0.028237337
0.03268131
0.036080693
0.032267574
0.016440709
0.028984747
0.029060626
0.029241299
0.029099496
0.028583408
0.031375059
0.037164815
0.03941372
0.033659209
0.016446405
0.02871254
0.028878687
0.029233106
0.029270285
0.030215235
0.035478657
0.041608886
0.042341708
0.03478781
0.016455613
0.028533635
0.02883307
0.029403344
0.02991289
0.033002759
0.040161576
0.045828269
0.044910654
0.035723422
0.016467075
0.028470732
0.028950954
0.029795609
0.031303734
0.036852179
0.045075602
0.049751667
0.047172329
0.036515367
0.016480527
0.028557135
0.029264057
0.030516027
0.033675758
0.041512006
0.04997714
0.053365768
0.049173986
0.037197762
0.016495911
0.028837313
0.029812375
0.031757449
0.037113974
0.04667629
0.054726079
0.056681775
0.050955474
0.037793696
0.016513133
0.029366708
0.03066067
0.033764502
0.041531067
0.052071043
0.059252924
0.05971963
0.052547832
0.038312941
0.016531935
0.030212429
0.031928261
0.036741817
0.046714554
0.057495301
0.063527327
0.062500779
0.053971587
0.038771763
0.016552025
0.031460616
0.033808275
0.040769179
0.052403218
0.062820444
0.067538841
0.065043888
0.055249977
0.039180804
0.016573205
0.033237477
0.036537829
0.045775435
0.058353615
0.067969793
0.071286957
0.067367523
0.056402437
0.039547848
0.016595308
0.035735387
0.040316693
0.051570941
0.064374621
0.072897373
0.074772506
0.069492155
0.057443768
0.039878864
0.016618161
0.039206231
0.045225006
0.057909177
0.070330058
0.077571151
0.078005422
0.071434649
0.058385852
0.040178176
0.016641572
0.043888132
0.051189902
0.064544897
0.076123023
0.081972975
0.080996636
0.073208612
0.059237969
0.040448881
0.016665341
0.049891801
0.058008786
0.071267022
0.081682159
0.086093987
0.083754603
0.074824633
0.060007059
0.040693108
0.016689268
0.057119559
0.065403719
0.077905214
0.086957059
0.089927465
0.086284832
0.076290124
0.060697896
0.040912149
0.016713145
0.065267478
0.073076438
0.084332687
0.091910073
0.093464988
0.088589344
0.077609324
0.061313232
0.041106536
0.016736751
0.073906636
0.080754571
0.090454614
0.096507852
0.096696152
0.090666815
0.078783559
0.061854021
0.041276144
0.016759845
0.082593323
0.088208115
0.096194466
0.10072131
0.099609625
0.092513543
0.079811958
0.062319851
0.041420361
0.016782165
0.09095469
0.095255094
0.10149115
0.10452698
0.10219522
0.094125132
0.080692595
0.062709601
0.041538356
0.016803427
0.098726862
0.10176245
0.10629916
0.10790892
0.10444634
0.095498526
0.081423889
0.063022239
0.041629394
0.016823345
0.10575374
0.10764402
0.11058956
0.11086034
0.10636198
0.096633883
0.082005971
0.063257622
0.041693162
0.016841651
0.11196579
0.11285564
0.11435024
0.11338426
0.10794797
0.097535877
0.082441732
0.063417141
0.041730028
0.01685811
0.11735438
0.11738795
0.11758499
0.11549325
0.10921717
0.098214254
0.082737413
0.063504123
0.041741195
0.016872548
0.1219498
0.12125819
0.12031136
0.11720833
0.11018883
0.098683664
0.082902668
0.063523917
0.041728736
0.016884859
0.12580508
0.1245023
0.12255795
0.11855726
0.11088741
0.098962922
0.08295018
0.06348371
0.041695495
0.016895019
0.12898506
0.12716827
0.12436132
0.11957276
0.11134113
0.099073912
0.082894937
0.063392097
0.041644893
0.016903079
0.13155944
0.12931071
0.12576316
0.12029055
0.11158033
0.099040327
0.082753321
0.06325852
0.041580676
0.016909156
0.1335984
0.13098701
0.12680773
0.12074768
0.11163614
0.098886441
0.082542172
0.06309267
0.041506645
0.016913419
0.13516988
0.13225441
0.12753979
0.12098102
0.11153911
0.098636031
0.082277948
0.062903946
0.041426426
0.016916074
0.13633799
0.13316812
0.128003
0.12102615
0.11131837
0.098311539
0.081976053
0.06270103
0.041343288
0.016917343
0.13716202
0.13378003
0.12823882
0.12091649
0.11100085
0.09793348
0.081650375
0.062491596
0.041260037
0.016917451
0.13769599
0.13413795
0.12828572
0.12068278
0.11061095
0.097520085
0.081313012
0.062282151
0.04117896
0.016916618
0.13798854
0.1342853
0.12817877
0.12035277
0.11017023
0.097087141
0.080974163
0.062077989
0.041101828
0.016915047
0.13808294
0.13426092
0.12794949
0.11995107
0.10969744
0.096647977
0.080642143
0.061883226
0.041029917
0.01691292
0.13801739
0.13409927
0.12762577
0.11949922
0.10920854
0.096213523
0.080323387
0.061700618
0.040962988
0.016910386
0.1378253
0.13383054
0.12723206
0.11901574
0.10871682
0.095792417
0.080022477
0.061531213
0.040902167
0.016907571
0.13753569
0.13348099
0.12678949
0.11851635
0.10823304
0.095391089
0.079741941
0.061377087
0.040847922
0.016904599
0.13717358
0.13307325
0.12631612
0.11801405
0.10776559
0.095013691
0.079484902
0.061239041
0.040800419
0.016901574
0.13676034
0.13262659
0.12582708
0.11751926
0.10732038
0.094664524
0.079252824
0.061117304
0.04075958
0.01689858
0.136314
0.13215714
0.12533465
0.11703996
0.10690315
0.094346016
0.079046262
0.061011646
0.040725137
0.016895682
0.13584944
0.13167803
0.12484892
0.1165835
0.10651761
0.094059392
0.078865052
0.06092147
0.040696692
0.016892929
0.13537897
0.13120047
0.12437865
0.11615515
0.10616606
0.093804925
0.078708462
0.060845901
0.040673761
0.016890355
0.134913
0.13073374
0.12393058
0.11575862
0.10584964
0.093582121
0.07857533
0.060783878
0.040655813
0.016887982
0.13445996
0.13028524
0.12350976
0.11539627
0.10556855
0.093389891
0.078464184
0.060734229
0.040642302
0.016885822
0.13402655
0.12986066
0.12311978
0.11506934
0.1053222
0.093226697
0.078373347
0.060695726
0.040632689
0.016883883
0.13361786
0.12946419
0.12276299
0.11477814
0.10510942
0.093090669
0.078301016
0.060667129
0.04062645
0.016882164
0.13323762
0.12909873
0.12244063
0.1145222
0.10492853
0.092979708
0.078245323
0.060647217
0.040623088
0.01688066
0.13288834
0.12876608
0.12215308
0.11430042
0.10477752
0.092891569
0.078204391
0.060634806
0.04062214
0.016879362
0.13257147
0.12846704
0.12189993
0.11411121
0.10465411
0.092823938
0.078176376
0.060628776
0.040623178
0.01687826
0.1322876
0.12820165
0.12168017
0.11395261
0.10455587
0.092774501
0.078159506
0.060628082
0.040625813
0.01687734
0.13203658
0.12796929
0.12149234
0.11382239
0.10448031
0.092740999
0.078152113
0.06063177
0.0406297
0.016876587
0.13181764
0.1277688
0.12133458
0.11371817
0.10442493
0.092721267
0.078152646
0.060638975
0.040634535
0.016875988
0.13162956
0.12759863
0.12120479
0.11363746
0.10438727
0.092713252
0.078159679
0.060648922
0.040640051
0.016875526
0.13147071
0.12745688
0.12110067
0.11357776
0.10436496
0.092715032
0.078171907
0.060660919
0.040646016
0.016875188
0.13133917
0.12734143
0.12101981
0.11353654
0.1043557
0.092724813
0.078188147
0.060674351
0.040652226
0.016874957
0.13123279
0.12724998
0.12095972
0.11351135
0.10435736
0.092740951
0.078207335
0.06068868
0.040658509
0.016874819
0.13114929
0.12718012
0.12091793
0.11349983
0.10436791
0.092761959
0.078228539
0.060703444
0.040664719
0.016874759
0.13108628
0.12712945
0.12089201
0.11349976
0.10438555
0.092786524
0.078250955
0.060718259
0.040670741
0.016874766
0.13104142
0.12709557
0.12087967
0.11350909
0.10440864
0.092813508
0.078273911
0.060732816
0.040676489
0.016874826
0.13101242
0.12707621
0.12087876
0.11352597
0.10443575
0.092841944
0.078296856
0.060746875
0.040681899
0.016874929
0.13099706
0.12706922
0.12088729
0.11354874
0.10446564
0.092871012
0.07831934
0.060760249
0.040686928
0.016875066
0.13099329
0.12707257
0.12090342
0.11357589
0.10449721
0.092900022
0.078340996
0.060772784
0.040691497
0.016875228
0.13099915
0.12708437
0.1209255
0.11360612
0.10452953
0.09292839
0.078361517
0.060784329
0.040695585
0.016875406
0.13101284
0.12710292
0.12095202
0.11363825
0.1045618
0.092955629
0.078380637
0.060794809
0.040699212
0.016875594
0.1310327
0.12712662
0.12098165
0.11367125
0.10459332
0.092981329
0.078398185
0.060804215
0.040702391
0.016875786
0.13105721
0.12715406
0.12101318
0.11370428
0.10462354
0.093005199
0.078414099
0.060812544
0.040705141
0.016875977
0.13108502
0.127184
0.12104562
0.11373659
0.10465202
0.093027095
0.078428341
0.060819821
0.040707488
0.016876164
0.13111498
0.12721535
0.12107809
0.11376762
0.10467852
0.093046924
0.078440923
0.06082609
0.040709458
0.016876344
0.13114604
0.12724717
0.1211099
0.11379699
0.10470285
0.093064656
0.078451893
0.060831411
0.040711083
0.016876515
0.13117736
0.12727874
0.12114054
0.1138244
0.10472492
0.093080312
0.078461322
0.060835851
0.040712393
0.016876674
0.13120827
0.12730946
0.1211696
0.11384965
0.10474468
0.09309395
0.078469298
0.060839479
0.04071342
0.016876822
0.13123822
0.12733889
0.12119679
0.11387262
0.10476215
0.093105658
0.078475924
0.06084237
0.040714194
0.016876957
0.1312668
0.12736666
0.1212219
0.11389326
0.10477739
0.093115547
0.078481307
0.060844597
0.040714745
0.016877078
0.13129369
0.12739252
0.1212448
0.11391158
0.1047905
0.093123746
0.078485566
0.060846238
0.040715102
0.016877186
0.13131866
0.12741631
0.12126543
0.11392762
0.10480159
0.093130398
0.07848882
0.060847366
0.040715295
0.016877281
0.13134159
0.12743794
0.1212838
0.11394149
0.10481082
0.093135653
0.078491188
0.060848055
0.04071535
0.016877364
0.13136238
0.12745737
0.12129994
0.11395329
0.10481833
0.093139659
0.078492786
0.060848371
0.040715292
0.016877434
0.131381
0.12747459
0.12131393
0.11396315
0.10482429
0.093142559
0.078493718
0.060848374
0.040715142
0.016877493
0.13139745
0.12748966
0.12132587
0.11397123
0.10482884
0.093144488
0.078494082
0.060848119
0.040714919
0.016877542
0.13141179
0.12750263
0.12133587
0.11397766
0.10483214
0.093145578
0.07849397
0.060847655
0.04071464
0.016877581
0.13142408
0.12751362
0.12134407
0.11398261
0.10483434
0.093145954
0.078493467
0.060847028
0.040714319
0.016877611
0.13143442
0.12752273
0.12135061
0.11398624
0.1048356
0.09314574
0.078492658
0.060846281
0.040713972
0.016877633
0.13144294
0.12753013
0.12135567
0.11398872
0.10483606
0.093145054
0.078491619
0.060845456
0.040713612
0.016877649
0.13144979
0.12753595
0.12135941
0.11399021
0.10483588
0.093144003
0.078490419
0.060844587
0.04071325
0.016877658
0.13145513
0.12754037
0.12136199
0.11399087
0.10483517
0.093142676
0.078489114
0.060843702
0.040712895
0.016877663
0.13145909
0.12754353
0.12136356
0.11399081
0.10483404
0.093141148
0.078487749
0.060842821
0.040712553
0.016877664
0.13146181
0.12754556
0.12136424
0.11399016
0.10483257
0.093139475
0.078486354
0.060841957
0.040712227
0.016877661
0.13146343
0.1275466
0.12136416
0.11398901
0.10483083
0.093137703
0.078484953
0.060841118
0.040711917
0.016877655
0.13146407
0.12754677
0.12136342
0.11398746
0.1048289
0.093135873
0.078483567
0.060840311
0.040711623
0.016877646
0.13146386
0.12754619
0.12136214
0.11398558
0.10482683
0.093134024
0.078482213
0.060839542
0.040711348
0.016877636
)
;

boundaryField
{
    water_inlet
    {
        type            calculated;
        value           uniform 0.041850807;
    }
    water_outlet
    {
        type            calculated;
        value           nonuniform List<scalar> 10(0.13146386 0.12754619 0.12136214 0.11398558 0.10482683 0.093134024 0.078482213 0.060839542 0.040711348 0.016877636);
    }
    water_wedge1
    {
        type            wedge;
    }
    water_wedge2
    {
        type            wedge;
    }
    water_to_rock
    {
        type            compressible::alphatWallFunction;
        value           nonuniform List<scalar> 
100
(
0.0020384971
0.0022594581
0.0022621707
0.0022020357
0.0021407414
0.0020983186
0.0020752204
0.0020650583
0.0020616934
0.0020613683
0.0020623024
0.0020638121
0.0020656912
0.0020678962
0.0020704178
0.0020732404
0.0020763213
0.0020796126
0.0020830819
0.0020867022
0.0020904444
0.0020942773
0.0020981684
0.0021020846
0.0021059918
0.0021098536
0.0021136307
0.0021172802
0.0021207563
0.0021240127
0.0021270053
0.0021296959
0.0021320556
0.0021340673
0.002135727
0.0021370434
0.0021380358
0.0021387321
0.0021391658
0.0021393732
0.0021393911
0.0021392552
0.0021389986
0.0021386512
0.0021382371
0.0021377772
0.0021372915
0.0021367973
0.0021363083
0.002135835
0.0021353853
0.0021349647
0.0021345769
0.0021342241
0.0021339073
0.0021336264
0.0021333806
0.0021331685
0.0021329883
0.0021328379
0.002132715
0.0021326171
0.0021325418
0.0021324865
0.0021324487
0.002132426
0.0021324162
0.0021324171
0.0021324269
0.0021324438
0.0021324663
0.0021324928
0.0021325219
0.0021325526
0.0021325839
0.0021326151
0.0021326456
0.0021326751
0.002132703
0.0021327292
0.0021327534
0.0021327754
0.0021327954
0.0021328131
0.0021328287
0.0021328422
0.0021328538
0.0021328634
0.0021328714
0.0021328777
0.0021328826
0.0021328862
0.0021328886
0.0021328902
0.0021328909
0.0021328909
0.0021328903
0.0021328892
0.0021328877
0.0021328859
)
;
    }
}


// ************************************************************************* //
