/*--------------------------------*- C++ -*----------------------------------*\
| =========                 |                                                 |
| \\      /  F ield         | OpenFOAM: The Open Source CFD Toolbox           |
|  \\    /   O peration     | Version:  2506                                  |
|   \\  /    A nd           | Website:  www.openfoam.com                      |
|    \\/     M anipulation  |                                                 |
\*---------------------------------------------------------------------------*/
FoamFile
{
    version     2.0;
    format      ascii;
    arch        "LSB;label=32;scalar=64";
    class       volScalarField;
    location    "9000/water";
    object      epsilon;
}
// * * * * * * * * * * * * * * * * * * * * * * * * * * * * * * * * * * * * * //

dimensions      [0 2 -3 0 0 0 0];

internalField   nonuniform List<scalar> 
1000
(
7.2399316e-05
7.2397808e-05
7.2397502e-05
7.2398682e-05
7.2424146e-05
7.2686938e-05
7.4736184e-05
8.8973295e-05
0.00019794853
0.0013048048
4.7739543e-05
4.7745807e-05
4.7746167e-05
4.7748745e-05
4.7810065e-05
4.8371228e-05
5.2145894e-05
7.5319306e-05
0.00023607332
0.0016574915
3.3261229e-05
3.326441e-05
3.3263962e-05
3.3272039e-05
3.3396639e-05
3.4348944e-05
3.997316e-05
7.150218e-05
0.00026550011
0.0016622
2.4212884e-05
2.4213778e-05
2.421353e-05
2.4236018e-05
2.4468829e-05
2.5979975e-05
3.408678e-05
7.6375742e-05
0.00030233761
0.0015600261
1.8263229e-05
1.8263302e-05
1.8265922e-05
1.8318446e-05
1.8730722e-05
2.109073e-05
3.2935692e-05
9.0423745e-05
0.00035053706
0.0014605605
1.4183053e-05
1.4183388e-05
1.4193787e-05
1.4301412e-05
1.5003313e-05
1.8678134e-05
3.6167922e-05
0.00011337701
0.00040230437
0.0013944167
1.1285033e-05
1.1287109e-05
1.1313191e-05
1.1514085e-05
1.2672039e-05
1.8360588e-05
4.3853964e-05
0.00014255038
0.00044702274
0.0013593137
9.1651308e-06
9.1712237e-06
9.2251467e-06
9.5765141e-06
1.1437653e-05
2.0107138e-05
5.5828111e-05
0.00017322874
0.00047957562
0.001344071
7.5754962e-06
7.5890767e-06
7.6892447e-06
8.2760997e-06
1.1198192e-05
2.4041154e-05
7.1186952e-05
0.00020099059
0.00050080752
0.0013390507
6.3585386e-06
6.3848726e-06
6.5589451e-06
7.5064176e-06
1.1984497e-05
3.0236033e-05
8.8277365e-05
0.00022355929
0.0005139304
0.0013385664
5.4111025e-06
5.4581716e-06
5.7474936e-06
7.236925e-06
1.3906644e-05
3.8515379e-05
0.00010524317
0.00024078317
0.00052197911
0.0013399585
4.6642399e-06
4.7441304e-06
5.2100532e-06
7.4969418e-06
1.7086975e-05
4.8355528e-05
0.00012068246
0.00025359558
0.00052708076
0.0013422103
4.071468e-06
4.2024408e-06
4.9349826e-06
8.3622613e-06
2.1575432e-05
5.897548e-05
0.00013393067
0.00026313427
0.00053055287
0.0013450169
3.601904e-06
3.8114144e-06
4.9402482e-06
9.935115e-06
2.7272193e-05
6.9567075e-05
0.00014492636
0.00027035446
0.00053316293
0.0013483154
3.2363938e-06
3.5653628e-06
5.27156e-06
1.231146e-05
3.3901684e-05
7.9510724e-05
0.00015392457
0.00027595646
0.00053534105
0.0013520948
2.965665e-06
3.4742277e-06
5.9984226e-06
1.5537514e-05
4.1062738e-05
8.8461027e-05
0.00016127369
0.00028042554
0.0005373169
0.0013563343
2.7900141e-06
3.5645587e-06
7.2040839e-06
1.9569978e-05
4.8330053e-05
9.6307034e-05
0.00016730381
0.00028408921
0.00053917771
0.0013609725
2.7202659e-06
3.8804202e-06
8.9663963e-06
2.4261413e-05
5.5349972e-05
0.00010308376
0.00017229227
0.00028715782
0.00054093683
0.0013659398
2.779737e-06
4.4819607e-06
1.1330787e-05
2.9383003e-05
6.188741e-05
0.00010889366
0.0001764519
0.00028975374
0.00054267232
0.0013711897
3.0065605e-06
5.4386822e-06
1.4283571e-05
3.4674981e-05
6.7820778e-05
0.00011385653
0.00017993844
0.00029198022
0.00054443417
0.0013766834
3.454777e-06
6.8148287e-06
1.7738579e-05
3.9899673e-05
7.3111791e-05
0.00011808664
0.00018285381
0.00029394143
0.00054623632
0.0013823787
4.1911289e-06
8.647571e-06
2.15462e-05
4.4874687e-05
7.7769128e-05
0.00012165875
0.00018531782
0.00029569735
0.0005480737
0.0013882293
5.2835611e-06
1.0924835e-05
2.5521722e-05
4.9478032e-05
8.1803663e-05
0.00012466939
0.0001874128
0.00029728395
0.00054993256
0.0013941868
6.7798958e-06
1.3574407e-05
2.9480272e-05
5.3622587e-05
8.5253154e-05
0.00012719935
0.00018919525
0.00029872112
0.0005517941
0.0014002011
8.6832219e-06
1.6474073e-05
3.3250037e-05
5.7259584e-05
8.8167125e-05
0.00012930782
0.00019070244
0.00030001704
0.00055363565
0.0014062198
1.0937827e-05
1.9464253e-05
3.6694175e-05
6.0377246e-05
9.0586697e-05
0.00013103665
0.00019195694
0.00030117097
0.00055543104
0.0014121867
1.3423292e-05
2.2384357e-05
3.9727008e-05
6.2977912e-05
9.2544825e-05
0.00013241428
0.00019297033
0.00030217543
0.00055715115
0.0014180399
1.5988138e-05
2.5103523e-05
4.2303168e-05
6.5074409e-05
9.4068661e-05
0.00013345984
0.00019374676
0.00030301854
0.00055876488
0.0014237115
1.8484548e-05
2.753139e-05
4.4410683e-05
6.6689215e-05
9.5183101e-05
0.00013418752
0.00019428659
0.00030368666
0.00056024083
0.0014291288
2.0793656e-05
2.9617726e-05
4.6063508e-05
6.7854243e-05
9.5914392e-05
0.00013461084
0.00019459015
0.00030416746
0.00056154976
0.0014342171
2.2836455e-05
3.1345686e-05
4.7294005e-05
6.8609921e-05
9.629279e-05
0.00013474625
0.00019466119
0.00030445295
0.00056266743
0.0014389048
2.4572728e-05
3.2723017e-05
4.8145973e-05
6.900323e-05
9.6353727e-05
0.00013461546
0.00019450952
0.00030454211
0.00056357748
0.0014431288
2.5993471e-05
3.3773733e-05
4.866883e-05
6.9085035e-05
9.6137481e-05
0.00013424634
0.00019415226
0.00030444241
0.00056427338
0.0014468405
2.7111487e-05
3.4531296e-05
4.891322e-05
6.8907282e-05
9.5687726e-05
0.00013367232
0.00019361382
0.00030416994
0.00056475917
0.0014500101
2.7952893e-05
3.5033533e-05
4.8928034e-05
6.8520537e-05
9.5049514e-05
0.00013293082
0.00019292449
0.00030374821
0.00056504863
0.0014526286
2.8550566e-05
3.5319104e-05
4.8758586e-05
6.7972122e-05
9.4267193e-05
0.0001320611
0.00019211832
0.000303206
0.00056516325
0.0014547077
2.893959e-05
3.5425217e-05
4.8445649e-05
6.7304887e-05
9.3382605e-05
0.00013110206
0.00019123064
0.00030257472
0.00056512956
0.0014562765
2.9154376e-05
3.5386273e-05
4.8025079e-05
6.6556555e-05
9.2433746e-05
0.00013009034
0.00019029582
0.0003018859
0.00056497638
0.0014573781
2.9226979e-05
3.5233164e-05
4.7527816e-05
6.5759516e-05
9.1453928e-05
0.00012905891
0.00018934541
0.00030116904
0.00056473236
0.0014580646
2.9186261e-05
3.4993014e-05
4.6980103e-05
6.4940929e-05
9.0471388e-05
0.00012803613
0.00018840685
0.00030045014
0.00056442422
0.001458393
2.905757e-05
3.46892e-05
4.6403844e-05
6.4123037e-05
8.9509263e-05
0.00012704539
0.00018750279
0.00029975084
0.00056407551
0.0014584214
2.8862745e-05
3.4341546e-05
4.5817013e-05
6.3323599e-05
8.8585823e-05
0.00012610502
0.00018665089
0.00029908801
0.00056370606
0.0014582063
2.8620311e-05
3.3966608e-05
4.5234095e-05
6.2556382e-05
8.7714872e-05
0.00012522864
0.00018586394
0.00029847397
0.00056333178
0.0014578001
2.8345757e-05
3.3578006e-05
4.4666513e-05
6.1831667e-05
8.6906248e-05
0.00012442552
0.00018515033
0.00029791672
0.00056296474
0.0014572504
2.8051862e-05
3.318676e-05
4.4123037e-05
6.1156736e-05
8.6166344e-05
0.00012370114
0.00018451447
0.00029742035
0.00056260923
0.0014565953
2.7749022e-05
3.2801627e-05
4.3610168e-05
6.0536347e-05
8.5498685e-05
0.00012305792
0.00018395779
0.00029698498
0.00056226337
0.0014558677
2.7445567e-05
3.2429415e-05
4.3132494e-05
5.9973175e-05
8.4904472e-05
0.00012249577
0.00018347853
0.00029660446
0.00056194007
0.0014550999
2.7148052e-05
3.2075269e-05
4.2693004e-05
5.9468208e-05
8.4383025e-05
0.00012201226
0.00018306997
0.00029628019
0.00056164609
0.0014543188
2.6861527e-05
3.1742937e-05
4.2293381e-05
5.902109e-05
8.393203e-05
0.00012160117
0.00018272932
0.00029601089
0.00056138429
0.0014535463
2.6589785e-05
3.1435025e-05
4.193431e-05
5.8630232e-05
8.3546376e-05
0.00012125845
0.00018245249
0.00029579334
0.00056115526
0.0014527989
2.6335592e-05
3.1153215e-05
4.1615273e-05
5.8292236e-05
8.3222182e-05
0.00012097926
0.00018223429
0.0002956232
0.00056095812
0.001452089
2.6100748e-05
3.0898064e-05
4.1334767e-05
5.8004122e-05
8.2955013e-05
0.00012075815
0.00018206893
0.00029549555
0.00056079116
0.0014514253
2.5886146e-05
3.0669461e-05
4.109111e-05
5.7762547e-05
8.2740066e-05
0.00012058932
0.00018195037
0.00029540529
0.00056065217
0.0014508136
2.5692141e-05
3.0466882e-05
4.0882308e-05
5.7563906e-05
8.2572339e-05
0.00012046687
0.00018187259
0.00029534735
0.00056053873
0.0014502571
2.5518659e-05
3.0289463e-05
4.0706117e-05
5.7404434e-05
8.2446764e-05
0.00012038496
0.00018182974
0.00029531689
0.0005604483
0.0014497575
2.5365283e-05
3.0136058e-05
4.0560111e-05
5.7280288e-05
8.2358327e-05
0.00012033793
0.00018181629
0.00029530937
0.00056037833
0.0014493147
2.5231319e-05
3.0005308e-05
4.0441746e-05
5.7187632e-05
8.230216e-05
0.00012032044
0.00018182709
0.0002953206
0.00056032635
0.0014489273
2.5115852e-05
2.9895687e-05
4.0348418e-05
5.7122701e-05
8.2273614e-05
0.00012032748
0.00018185744
0.00029534682
0.00056029003
0.0014485931
2.5017805e-05
2.980556e-05
4.0277514e-05
5.7081859e-05
8.226832e-05
0.00012035445
0.00018190311
0.00029538468
0.00056026718
0.0014483092
2.4935973e-05
2.9733223e-05
4.0226459e-05
5.7061643e-05
8.228222e-05
0.0001203972
0.00018196034
0.00029543122
0.00056025578
0.0014480722
2.4869072e-05
2.9676942e-05
4.0192753e-05
5.7058798e-05
8.2311597e-05
0.00012045198
0.00018202584
0.0002954839
0.000560254
0.0014478786
2.4815766e-05
2.9634985e-05
4.0173999e-05
5.7070297e-05
8.2353087e-05
0.00012051552
0.00018209675
0.0002955405
0.00056026013
0.0014477244
2.47747e-05
2.9605652e-05
4.016793e-05
5.7093363e-05
8.2403678e-05
0.00012058491
0.00018217061
0.00029559914
0.00056027263
0.0014476058
2.4744525e-05
2.9587297e-05
4.0172424e-05
5.7125474e-05
8.2460709e-05
0.00012065768
0.00018224538
0.00029565824
0.00056029006
0.0014475187
2.4723919e-05
2.9578351e-05
4.0185523e-05
5.7164374e-05
8.2521865e-05
0.00012073173
0.00018231935
0.00029571649
0.00056031117
0.0014474591
2.4711606e-05
2.9577332e-05
4.0205442e-05
5.7208066e-05
8.2585159e-05
0.00012080532
0.00018239114
0.00029577287
0.00056033486
0.0014474234
2.4706374e-05
2.9582863e-05
4.0230573e-05
5.7254811e-05
8.2648921e-05
0.00012087701
0.0001824597
0.00029582657
0.00056036022
0.0014474079
2.4707081e-05
2.959368e-05
4.0259486e-05
5.7303118e-05
8.271177e-05
0.00012094571
0.00018252422
0.00029587702
0.0005603865
0.0014474093
2.4712671e-05
2.9608633e-05
4.0290926e-05
5.7351729e-05
8.2772592e-05
0.00012101055
0.00018258412
0.00029592381
0.00056041305
0.0014474246
2.4722172e-05
2.9626691e-05
4.0323809e-05
5.7399599e-05
8.2830509e-05
0.0001210709
0.00018263904
0.00029596665
0.00056043932
0.0014474513
2.4734706e-05
2.9646942e-05
4.0357209e-05
5.7445884e-05
8.2884856e-05
0.00012112634
0.00018268873
0.0002960054
0.00056046484
0.0014474867
2.4749486e-05
2.9668588e-05
4.0390354e-05
5.7489916e-05
8.2935156e-05
0.00012117661
0.00018273311
0.00029603996
0.000560489
0.0014475285
2.4765816e-05
2.969094e-05
4.0422609e-05
5.7531192e-05
8.2981094e-05
0.00012122159
0.00018277222
0.00029607029
0.00056051105
0.0014475744
2.4783092e-05
2.9713418e-05
4.0453469e-05
5.7569353e-05
8.3022507e-05
0.00012126131
0.00018280617
0.0002960963
0.0005605309
0.0014476227
2.4800793e-05
2.973554e-05
4.0482551e-05
5.7604172e-05
8.3059356e-05
0.00012129589
0.00018283505
0.00029611811
0.00056054886
0.0014476719
2.4818484e-05
2.9756915e-05
4.0509575e-05
5.7635535e-05
8.3091703e-05
0.00012132547
0.00018285908
0.0002961362
0.00056056507
0.0014477211
2.4835806e-05
2.9777242e-05
4.0534357e-05
5.7663422e-05
8.3119647e-05
0.00012135024
0.0001828787
0.00029615097
0.0005605796
0.0014477692
2.4852472e-05
2.9796295e-05
4.0556799e-05
5.7687851e-05
8.3143331e-05
0.00012137058
0.00018289437
0.00029616276
0.00056059252
0.0014478156
2.4868266e-05
2.9813918e-05
4.0576833e-05
5.7708896e-05
8.3163036e-05
0.0001213869
0.00018290649
0.0002961719
0.00056060387
0.0014478596
2.4883014e-05
2.9829988e-05
4.0594457e-05
5.7726724e-05
8.3179079e-05
0.00012139959
0.00018291547
0.00029617869
0.00056061372
0.0014479008
2.4896591e-05
2.984444e-05
4.060973e-05
5.7741541e-05
8.319179e-05
0.00012140907
0.00018292171
0.00029618343
0.00056062213
0.001447939
2.4908919e-05
2.9857258e-05
4.0622753e-05
5.7753585e-05
8.3201514e-05
0.00012141571
0.00018292558
0.00029618639
0.00056062919
0.0014479738
2.4919961e-05
2.9868464e-05
4.0633658e-05
5.7763105e-05
8.3208591e-05
0.0001214199
0.00018292743
0.00029618784
0.00056063501
0.0014480052
2.4929716e-05
2.9878115e-05
4.0642602e-05
5.7770362e-05
8.3213357e-05
0.000121422
0.00018292759
0.00029618802
0.0005606397
0.0014480332
2.4938211e-05
2.9886288e-05
4.0649751e-05
5.7775615e-05
8.3216132e-05
0.00012142235
0.00018292638
0.00029618716
0.00056064336
0.0014480578
2.4945494e-05
2.9893079e-05
4.0655281e-05
5.7779119e-05
8.3217222e-05
0.00012142126
0.00018292405
0.00029618547
0.0005606461
0.0014480791
2.4951633e-05
2.9898596e-05
4.0659369e-05
5.7781116e-05
8.3216907e-05
0.00012141901
0.00018292086
0.00029618312
0.00056064801
0.0014480973
2.4956704e-05
2.9902952e-05
4.0662192e-05
5.7781838e-05
8.3215449e-05
0.00012141585
0.00018291703
0.00029618028
0.00056064919
0.0014481126
2.4960793e-05
2.9906267e-05
4.0663917e-05
5.77815e-05
8.3213084e-05
0.00012141202
0.00018291276
0.00029617708
0.00056064975
0.0014481251
2.4963994e-05
2.990866e-05
4.066471e-05
5.7780302e-05
8.3210027e-05
0.00012140771
0.0001829082
0.00029617368
0.00056064979
0.001448135
2.4966398e-05
2.9910247e-05
4.0664721e-05
5.7778426e-05
8.3206468e-05
0.00012140312
0.00018290352
0.00029617017
0.00056064941
0.0014481426
2.4968101e-05
2.991114e-05
4.0664093e-05
5.7776033e-05
8.3202572e-05
0.00012139837
0.00018289883
0.00029616665
0.00056064871
0.0014481483
2.4969192e-05
2.9911448e-05
4.0662954e-05
5.7773267e-05
8.3198483e-05
0.00012139361
0.00018289424
0.00029616321
0.00056064776
0.0014481522
2.4969761e-05
2.9911269e-05
4.066142e-05
5.7770253e-05
8.3194317e-05
0.00012138893
0.00018288981
0.00029615989
0.00056064662
0.0014481546
2.4969889e-05
2.9910693e-05
4.0659592e-05
5.7767095e-05
8.3190173e-05
0.0001213844
0.00018288561
0.00029615674
0.00056064533
0.0014481557
2.4969652e-05
2.9909804e-05
4.0657561e-05
5.7763883e-05
8.3186129e-05
0.0001213801
0.00018288167
0.00029615376
0.00056064393
0.0014481557
2.496912e-05
2.9908675e-05
4.0655404e-05
5.7760691e-05
8.3182248e-05
0.00012137605
0.00018287803
0.000296151
0.00056064244
0.0014481547
2.4968359e-05
2.9907374e-05
4.0653188e-05
5.7757581e-05
8.3178581e-05
0.00012137231
0.00018287469
0.00029614846
0.00056064092
0.0014481528
2.4967425e-05
2.9905958e-05
4.065097e-05
5.7754605e-05
8.3175166e-05
0.0001213689
0.00018287169
0.00029614616
0.0005606394
0.0014481504
2.4966373e-05
2.9904484e-05
4.0648807e-05
5.7751812e-05
8.3172041e-05
0.00012136583
0.00018286901
0.00029614407
0.00056063788
0.0014481475
)
;

boundaryField
{
    water_inlet
    {
        type            turbulentMixingLengthDissipationRateInlet;
        mixingLength    0.005;
        phi             phi;
        k               k;
        value           uniform 0.00011791765;
    }
    water_outlet
    {
        type            inletOutlet;
        inletValue      uniform 0.0001;
        value           nonuniform List<scalar> 10(2.4966373e-05 2.9904484e-05 4.0648807e-05 5.7751812e-05 8.3172041e-05 0.00012136583 0.00018286901 0.00029614407 0.00056063788 0.0014481475);
    }
    water_wedge1
    {
        type            wedge;
    }
    water_wedge2
    {
        type            wedge;
    }
    water_to_rock
    {
        type            epsilonWallFunction;
        blending        stepwise;
        value           nonuniform List<scalar> 
100
(
0.0013048048
0.0016574915
0.0016622
0.0015600261
0.0014605605
0.0013944167
0.0013593137
0.001344071
0.0013390507
0.0013385664
0.0013399585
0.0013422103
0.0013450169
0.0013483154
0.0013520948
0.0013563343
0.0013609725
0.0013659398
0.0013711897
0.0013766834
0.0013823787
0.0013882293
0.0013941868
0.0014002011
0.0014062198
0.0014121867
0.0014180399
0.0014237115
0.0014291288
0.0014342171
0.0014389048
0.0014431288
0.0014468405
0.0014500101
0.0014526286
0.0014547077
0.0014562765
0.0014573781
0.0014580646
0.001458393
0.0014584214
0.0014582063
0.0014578001
0.0014572504
0.0014565953
0.0014558677
0.0014550999
0.0014543188
0.0014535463
0.0014527989
0.001452089
0.0014514253
0.0014508136
0.0014502571
0.0014497575
0.0014493147
0.0014489273
0.0014485931
0.0014483092
0.0014480722
0.0014478786
0.0014477244
0.0014476058
0.0014475187
0.0014474591
0.0014474234
0.0014474079
0.0014474093
0.0014474246
0.0014474513
0.0014474867
0.0014475285
0.0014475744
0.0014476227
0.0014476719
0.0014477211
0.0014477692
0.0014478156
0.0014478596
0.0014479008
0.001447939
0.0014479738
0.0014480052
0.0014480332
0.0014480578
0.0014480791
0.0014480973
0.0014481126
0.0014481251
0.001448135
0.0014481426
0.0014481483
0.0014481522
0.0014481546
0.0014481557
0.0014481557
0.0014481547
0.0014481528
0.0014481504
0.0014481475
)
;
    }
}


// ************************************************************************* //
