/*--------------------------------*- C++ -*----------------------------------*\
| =========                 |                                                 |
| \\      /  F ield         | OpenFOAM: The Open Source CFD Toolbox           |
|  \\    /   O peration     | Version:  2506                                  |
|   \\  /    A nd           | Website:  www.openfoam.com                      |
|    \\/     M anipulation  |                                                 |
\*---------------------------------------------------------------------------*/
FoamFile
{
    version     2.0;
    format      ascii;
    arch        "LSB;label=32;scalar=64";
    class       volScalarField;
    location    "9000/water";
    object      k;
}
// * * * * * * * * * * * * * * * * * * * * * * * * * * * * * * * * * * * * * //

dimensions      [0 2 -2 0 0 0 0];

internalField   nonuniform List<scalar> 
1000
(
0.00017657855
0.00017657518
0.00017657131
0.00017655365
0.00017648098
0.00017625478
0.00017589507
0.00017764177
0.00020514192
0.00048657967
0.00013915035
0.00013915817
0.00013914641
0.00013908743
0.00013888206
0.0001383736
0.00013797747
0.00014325065
0.00019616755
0.00057072179
0.00011343696
0.00011343683
0.00011340783
0.00011329561
0.00011298241
0.0001124902
0.00011342551
0.0001264141
0.00020548439
0.00057180213
9.4956344e-05
9.4947216e-05
9.4898274e-05
9.4747991e-05
9.446118e-05
9.4591097e-05
9.8882472e-05
0.00012463517
0.00023169877
0.00054812316
8.1180941e-05
8.1164581e-05
8.1102166e-05
8.0967054e-05
8.0960072e-05
8.26117e-05
9.2930075e-05
0.00013695786
0.0002712853
0.00052456979
7.0599818e-05
7.0579371e-05
7.0523472e-05
7.0504814e-05
7.1168289e-05
7.5594063e-05
9.5291982e-05
0.00016203348
0.00031586003
0.00050861055
6.2267978e-05
6.2250532e-05
6.2239518e-05
6.2499632e-05
6.4399478e-05
7.3304011e-05
0.00010610199
0.0001961357
0.00035649795
0.00050003847
5.5571434e-05
5.5570243e-05
5.5667645e-05
5.645065e-05
6.0388912e-05
7.5971252e-05
0.00012498749
0.00023351987
0.00038871368
0.0004962933
5.0098704e-05
5.013584e-05
5.0440273e-05
5.2102954e-05
5.9190402e-05
8.3984044e-05
0.00015029921
0.00026896211
0.0004124695
0.00049505669
4.5567679e-05
4.5677861e-05
4.6337491e-05
4.9391572e-05
6.1095754e-05
9.7486446e-05
0.00017920263
0.00029964274
0.00042964056
0.00049493732
4.1782806e-05
4.2019031e-05
4.3252134e-05
4.8416092e-05
6.6517841e-05
0.00011597899
0.00020865698
0.00032501749
0.00044223028
0.00049528039
3.8609681e-05
3.9051435e-05
4.1174518e-05
4.9422591e-05
7.5808088e-05
0.00013819
0.00023642047
0.00034572038
0.00045177489
0.00049583511
3.596036e-05
3.6725372e-05
4.0189364e-05
5.2766832e-05
8.9027635e-05
0.00016237198
0.00026138263
0.00036268814
0.00045931521
0.00049652609
3.3785889e-05
3.5046487e-05
4.0478134e-05
5.8837537e-05
0.00010576977
0.00018682827
0.00028330059
0.00037677354
0.00046551939
0.00049733756
3.2074357e-05
3.4079176e-05
4.2315895e-05
6.7933412e-05
0.00012516055
0.00021031416
0.00030238157
0.00038864936
0.00047080779
0.0004982665
3.0853782e-05
3.3954504e-05
4.6048055e-05
8.0117883e-05
0.00014606363
0.00023213633
0.00031898734
0.00039881747
0.0004754391
0.00049930748
3.0199572e-05
3.4878971e-05
5.2034276e-05
9.5115584e-05
0.00016736966
0.00025203094
0.00033348894
0.00040763807
0.00047952215
0.00050044515
3.0246036e-05
3.7136158e-05
6.0556287e-05
0.00011231923
0.00018821093
0.00026998856
0.00034621476
0.00041534872
0.00048317117
0.00050166211
3.120006e-05
4.1069129e-05
7.170773e-05
0.0001309173
0.00020802792
0.0002861199
0.00035742619
0.0004221342
0.00048649174
0.00050294673
3.3351776e-05
4.7031429e-05
8.5310914e-05
0.00015007625
0.00022652144
0.00030057577
0.0003673307
0.00042814967
0.00048955792
0.00050428919
3.7070566e-05
5.5301879e-05
0.00010090946
0.00016908768
0.00024356765
0.00031350272
0.00037608833
0.00043353266
0.00049241541
0.00050567905
4.2767417e-05
6.5979094e-05
0.00011784984
0.00018743089
0.00025913358
0.00032501547
0.00038386898
0.00043837673
0.00049509045
0.00050710481
5.080505e-05
7.8898646e-05
0.00013541161
0.00020475484
0.00027320691
0.00033526126
0.0003907965
0.00044274715
0.00049759721
0.00050855455
6.1361513e-05
9.3621864e-05
0.00015292554
0.00022080426
0.0002858325
0.00034436321
0.00039696057
0.0004466878
0.00049994119
0.00051001601
7.4302399e-05
0.00010951451
0.00016980454
0.00023542169
0.00029707731
0.0003524111
0.0004024225
0.00045022514
0.00050212071
0.00051147647
8.9142315e-05
0.00012582807
0.0001855951
0.00024853535
0.00030699171
0.0003594654
0.00040721973
0.00045337088
0.0005041276
0.00051292232
0.00010508511
0.00014184886
0.0001999992
0.00026010303
0.00031560991
0.00036556243
0.00041137039
0.00045612461
0.00050594818
0.00051433868
0.00012123873
0.00015699708
0.00021282932
0.00027010695
0.0003229558
0.00037072162
0.00041487873
0.00045847722
0.00050756475
0.00051570928
0.00013680026
0.00017085518
0.00022398955
0.00027855564
0.00032905249
0.00037495472
0.00041774207
0.0004604154
0.00050895805
0.0005170167
0.00015116563
0.00018316378
0.00023346048
0.00028548753
0.00033393233
0.00037827559
0.00041995843
0.0004619269
0.00051011034
0.00051824318
0.00016395784
0.00019380002
0.00024128486
0.00029097221
0.00033764479
0.00038070889
0.00042153379
0.00046300586
0.00051100867
0.00051937175
0.00017500052
0.00020274879
0.00024755317
0.00029510805
0.00034026045
0.00038229589
0.00042248758
0.00046365716
0.0005116478
0.00052038762
0.00018426878
0.00021007349
0.00025238954
0.00029801647
0.00034187063
0.00038309673
0.00042285567
0.00046389907
0.0005120321
0.00052127947
0.00019183912
0.00021588971
0.00025593896
0.00029983461
0.00034258383
0.00038318927
0.00042269041
0.00046376369
0.000512176
0.00052204049
0.00019784835
0.00022034369
0.00025835661
0.00030070761
0.00034252008
0.00038266528
0.00042205817
0.00046329539
0.00051210314
0.00052266884
0.00020246363
0.00022359608
0.00025979942
0.00030078177
0.00034180472
0.00038162523
0.00042103515
0.00046254759
0.00051184421
0.00052316748
0.00020586246
0.00022581016
0.00026041984
0.00030019885
0.00034056247
0.00038017255
0.00041970236
0.00046157874
0.00051143418
0.0005235436
0.00020822001
0.00022714412
0.00026036157
0.00029909199
0.00033891254
0.00037840848
0.00041814079
0.00046044825
0.00051090944
0.0005238076
0.00020970167
0.00022774606
0.00025975669
0.00029758284
0.00033696495
0.00037642785
0.00041642719
0.00045921289
0.00051030525
0.00052397207
0.00021045907
0.00022775125
0.00025872418
0.00029578001
0.00033481816
0.00037431608
0.00041463104
0.00045792411
0.00050965383
0.00052405072
0.00021062821
0.0002272808
0.00025736927
0.00029377834
0.00033255778
0.00037214741
0.00041281258
0.00045662635
0.00050898313
0.00052405751
0.00021032913
0.00022644134
0.00025578349
0.00029165902
0.00033025632
0.00036998421
0.00041102195
0.00045535621
0.00050831626
0.00052400596
0.00020966631
0.00022532547
0.00025404519
0.00028949017
0.00032797346
0.00036787702
0.00040929908
0.00045414236
0.00050767136
0.00052390864
0.00020872958
0.00022401248
0.00025222043
0.0002873277
0.00032575697
0.00036586518
0.0004076742
0.00045300591
0.00050706178
0.00052377692
0.00020759539
0.00022256947
0.00025036398
0.0002852165
0.00032364365
0.00036397777
0.00040616845
0.00045196006
0.00050648805
0.00052361994
0.00020632805
0.00022105241
0.00024852044
0.00028319154
0.00032166073
0.00036223492
0.00040479492
0.00045100872
0.00050595631
0.00052344557
0.00020498108
0.00021950743
0.00024672541
0.0002812792
0.00031982704
0.00036064874
0.00040355803
0.00045015486
0.00050547531
0.00052326151
0.00020359848
0.0002179719
0.00024500655
0.00027949834
0.00031815413
0.00035922354
0.00040245826
0.00044940247
0.00050504915
0.00052307426
0.00020221595
0.00021647554
0.00024338468
0.00027786133
0.00031664667
0.00035795832
0.00040149621
0.00044875149
0.00050467866
0.000522889
0.00020086192
0.00021504145
0.00024187462
0.00027637443
0.00031530367
0.00035685168
0.0004006688
0.00044819864
0.00050436246
0.00052270974
0.00019955859
0.00021368698
0.00024048541
0.00027503873
0.00031412335
0.00035589879
0.0003999699
0.00044773847
0.00050409773
0.00052253943
0.00019832253
0.00021242385
0.00023922173
0.00027385371
0.00031310077
0.0003550921
0.00039939129
0.00044736407
0.00050388068
0.00052238019
0.00019716533
0.0002112598
0.0002380856
0.00027281597
0.00031222854
0.00035442213
0.00039892343
0.0004470677
0.00050370706
0.00052223339
0.00019609504
0.00021019945
0.00023707639
0.00027191988
0.00031149748
0.00035387812
0.00039855597
0.00044684125
0.00050357241
0.00052209986
0.00019511664
0.00020924474
0.0002361912
0.00027115804
0.00031089715
0.00035344857
0.00039827827
0.00044667656
0.00050347223
0.00052197995
0.00019423258
0.00020839534
0.00023542537
0.00027052172
0.00031041631
0.00035312162
0.00039807972
0.00044656563
0.00050340215
0.00052187365
0.00019344316
0.00020764907
0.00023477276
0.0002700013
0.00031004332
0.00035288545
0.00039794995
0.00044650083
0.00050335798
0.00052178064
0.00019274688
0.0002070022
0.00023422618
0.00026958657
0.0003097664
0.00035272847
0.00039787905
0.00044647496
0.00050333579
0.00052170041
0.0001921408
0.0002064498
0.00023377766
0.00026926703
0.00030957396
0.00035263956
0.00039785773
0.00044648137
0.00050333195
0.00052163225
0.00019162082
0.00020598603
0.00023341877
0.00026903218
0.00030945477
0.00035260824
0.00039787737
0.00044651399
0.00050334315
0.00052157536
0.00019118195
0.00020560441
0.0002331408
0.00026887172
0.00030939814
0.00035262478
0.00039793015
0.00044656738
0.00050336643
0.00052152886
0.00019081854
0.00020529801
0.00023293502
0.00026877567
0.00030939408
0.00035268024
0.00039800901
0.00044663668
0.00050339914
0.00052149184
0.00019052452
0.00020505968
0.00023279281
0.00026873457
0.00030943329
0.00035276651
0.00039810763
0.00044671763
0.00050343892
0.00052146334
0.00019029353
0.00020488221
0.00023270582
0.00026873951
0.00030950726
0.00035287633
0.00039822047
0.00044680646
0.0005034837
0.00052144242
0.0001901191
0.00020475844
0.00023266604
0.00026878221
0.00030960829
0.00035300322
0.00039834264
0.00044689995
0.00050353164
0.00052142813
0.00018999477
0.00020468137
0.00023266592
0.00026885508
0.00030972945
0.0003531415
0.00039846995
0.00044699532
0.0005035812
0.00052141955
0.0001899142
0.00020464432
0.00023269841
0.00026895125
0.00030986467
0.00035328629
0.00039859886
0.00044709027
0.00050363105
0.00052141584
0.00018987129
0.00020464094
0.00023275707
0.0002690646
0.00031000865
0.00035343345
0.00039872644
0.00044718295
0.00050368015
0.00052141619
0.00018986028
0.00020466536
0.00023283605
0.00026918976
0.00031015691
0.00035357958
0.00039885036
0.00044727191
0.00050372768
0.00052141989
0.00018987575
0.00020471218
0.00023293017
0.00026932211
0.00031030568
0.00035372191
0.00039896879
0.00044735606
0.00050377298
0.00052142628
0.00018991275
0.00020477649
0.00023303483
0.00026945768
0.00031045187
0.00035385827
0.00039908036
0.00044743458
0.00050381558
0.00052143478
0.00018996675
0.00020485393
0.00023314606
0.00026959317
0.00031059299
0.00035398696
0.00039918401
0.00044750686
0.00050385473
0.00052144481
0.00019003366
0.00020494061
0.00023326043
0.00026972581
0.00031072704
0.00035410671
0.000399279
0.00044757229
0.00050388996
0.00052145583
0.00019010986
0.00020503312
0.00023337505
0.0002698534
0.00031085253
0.00035421662
0.0003993648
0.00044763053
0.00050392133
0.00052146742
0.00019019215
0.00020512856
0.0002334875
0.0002699742
0.00031096837
0.0003543161
0.00039944106
0.00044768165
0.00050394908
0.00052147926
0.00019027776
0.00020522442
0.00023359586
0.00027008691
0.00031107384
0.00035440478
0.00039950784
0.00044772598
0.0005039734
0.00052149106
0.00019036435
0.00020531867
0.00023369862
0.00027019062
0.0003111685
0.00035448267
0.00039956556
0.00044776393
0.00050399446
0.00052150262
0.00019044997
0.00020540965
0.00023379466
0.00027028471
0.00031125222
0.00035455016
0.00039961472
0.00044779593
0.00050401246
0.00052151375
0.00019053304
0.00020549609
0.00023388311
0.0002703689
0.00031132528
0.00035460778
0.0003996559
0.00044782242
0.00050402762
0.00052152432
0.00019061229
0.00020557696
0.00023396349
0.00027044322
0.00031138811
0.00035465615
0.00039968973
0.0004478439
0.00050404016
0.00052153422
0.00019068675
0.00020565157
0.00023403556
0.00027050792
0.00031144129
0.00035469597
0.00039971686
0.00044786083
0.00050405029
0.00052154337
0.00019075572
0.00020571949
0.00023409935
0.00027056343
0.00031148546
0.00035472797
0.00039973796
0.00044787371
0.00050405826
0.00052155172
0.00019081877
0.00020578053
0.00023415502
0.00027061025
0.00031152137
0.00035475293
0.0003997537
0.000447883
0.00050406429
0.00052155926
0.00019087566
0.00020583467
0.0002342029
0.00027064901
0.00031154977
0.00035477162
0.00039976472
0.00044788918
0.00050406861
0.00052156596
0.00019092633
0.00020588204
0.00023424343
0.00027068037
0.00031157146
0.00035478481
0.00039977168
0.00044789269
0.00050407145
0.00052157186
0.00019097088
0.00020592291
0.0002342771
0.00027070505
0.00031158721
0.00035479322
0.00039977517
0.00044789394
0.00050407302
0.00052157698
0.00019100949
0.0002059576
0.00023430447
0.00027072375
0.00031159779
0.00035479756
0.00039977576
0.00044789333
0.00050407352
0.00052158135
0.00019104244
0.00020598652
0.00023432612
0.00027073716
0.00031160391
0.00035479847
0.00039977395
0.00044789119
0.00050407312
0.00052158501
0.00019107006
0.00020601011
0.00023434262
0.00027074596
0.00031160625
0.00035479655
0.0003997702
0.00044788784
0.000504072
0.00052158801
0.00019109273
0.00020602884
0.00023435456
0.00027075079
0.00031160543
0.00035479233
0.00039976494
0.00044788355
0.00050407028
0.0005215904
0.00019111086
0.00020604318
0.00023436251
0.00027075227
0.00031160203
0.00035478633
0.00039975854
0.00044787859
0.00050406813
0.00052159224
0.0001911249
0.00020605362
0.00023436702
0.00027075098
0.00031159661
0.00035477899
0.00039975136
0.00044787319
0.00050406566
0.0005215936
0.00019113527
0.00020606065
0.00023436862
0.00027074745
0.00031158965
0.00035477072
0.00039974369
0.00044786755
0.000504063
0.00052159454
0.00019114243
0.00020606474
0.00023436781
0.00027074215
0.00031158157
0.00035476188
0.0003997358
0.00044786184
0.00050406025
0.00052159512
0.0001911468
0.00020606633
0.00023436504
0.00027073553
0.00031157276
0.00035475274
0.00039972789
0.0004478562
0.00050405748
0.00052159539
0.00019114877
0.00020606582
0.0002343607
0.00027072794
0.0003115635
0.00035474354
0.00039972011
0.00044785071
0.00050405473
0.0005215954
0.00019114872
0.00020606358
0.00023435514
0.00027071969
0.00031155405
0.00035473445
0.00039971257
0.00044784543
0.00050405204
0.00052159517
0.00019114698
0.00020605993
0.00023434867
0.00027071104
0.0003115446
0.00035472561
0.00039970536
0.00044784042
0.00050404944
0.00052159475
0.00019114387
0.00020605519
0.00023434156
0.00027070221
0.00031153534
0.00035471713
0.00039969854
0.00044783571
0.00050404694
0.00052159417
0.00019113969
0.00020604964
0.00023433409
0.00027069344
0.00031152641
0.00035470912
0.00039969217
0.00044783131
0.00050404455
0.00052159349
)
;

boundaryField
{
    water_inlet
    {
        type            turbulentIntensityKineticEnergyInlet;
        intensity       0.05;
        value           uniform 0.000234375;
    }
    water_outlet
    {
        type            inletOutlet;
        inletValue      uniform 0.0001;
        value           nonuniform List<scalar> 10(0.00019113969 0.00020604964 0.00023433409 0.00027069344 0.00031152641 0.00035470912 0.00039969217 0.00044783131 0.00050404455 0.00052159349);
    }
    water_wedge1
    {
        type            wedge;
    }
    water_wedge2
    {
        type            wedge;
    }
    water_to_rock
    {
        type            kqRWallFunction;
        value           nonuniform List<scalar> 
100
(
0.00048657967
0.00057072179
0.00057180213
0.00054812316
0.00052456979
0.00050861055
0.00050003847
0.0004962933
0.00049505669
0.00049493732
0.00049528039
0.00049583511
0.00049652609
0.00049733756
0.0004982665
0.00049930748
0.00050044515
0.00050166211
0.00050294673
0.00050428919
0.00050567905
0.00050710481
0.00050855455
0.00051001601
0.00051147647
0.00051292232
0.00051433868
0.00051570928
0.0005170167
0.00051824318
0.00051937175
0.00052038762
0.00052127947
0.00052204049
0.00052266884
0.00052316748
0.0005235436
0.0005238076
0.00052397207
0.00052405072
0.00052405751
0.00052400596
0.00052390864
0.00052377692
0.00052361994
0.00052344557
0.00052326151
0.00052307426
0.000522889
0.00052270974
0.00052253943
0.00052238019
0.00052223339
0.00052209986
0.00052197995
0.00052187365
0.00052178064
0.00052170041
0.00052163225
0.00052157536
0.00052152886
0.00052149184
0.00052146334
0.00052144242
0.00052142813
0.00052141955
0.00052141584
0.00052141619
0.00052141989
0.00052142628
0.00052143478
0.00052144481
0.00052145583
0.00052146742
0.00052147926
0.00052149106
0.00052150262
0.00052151375
0.00052152432
0.00052153422
0.00052154337
0.00052155172
0.00052155926
0.00052156596
0.00052157186
0.00052157698
0.00052158135
0.00052158501
0.00052158801
0.0005215904
0.00052159224
0.0005215936
0.00052159454
0.00052159512
0.00052159539
0.0005215954
0.00052159517
0.00052159475
0.00052159417
0.00052159349
)
;
    }
}


// ************************************************************************* //
