/*--------------------------------*- C++ -*----------------------------------*\
| =========                 |                                                 |
| \\      /  F ield         | OpenFOAM: The Open Source CFD Toolbox           |
|  \\    /   O peration     | Version:  2506                                  |
|   \\  /    A nd           | Website:  www.openfoam.com                      |
|    \\/     M anipulation  |                                                 |
\*---------------------------------------------------------------------------*/
FoamFile
{
    version     2.0;
    format      ascii;
    arch        "LSB;label=32;scalar=64";
    class       volScalarField;
    location    "9000/water";
    object      nut;
}
// * * * * * * * * * * * * * * * * * * * * * * * * * * * * * * * * * * * * * //

dimensions      [0 2 -1 0 0 0 0];

internalField   nonuniform List<scalar> 
1000
(
3.8760013e-05
3.8759344e-05
3.875781e-05
3.8749425e-05
3.8703919e-05
3.8465194e-05
3.7257946e-05
3.1920746e-05
1.9133704e-05
1.6330702e-05
3.6503362e-05
3.6502673e-05
3.6496232e-05
3.646333e-05
3.6309098e-05
3.5625575e-05
3.2857819e-05
2.4520503e-05
1.4670669e-05
1.7686427e-05
3.4818768e-05
3.4815355e-05
3.4798028e-05
3.4720761e-05
3.4400236e-05
3.3155724e-05
2.8966466e-05
2.0114734e-05
1.4313158e-05
1.7703159e-05
3.3515366e-05
3.3507684e-05
3.3473492e-05
3.3336597e-05
3.281981e-05
3.0995904e-05
2.5816369e-05
1.8304939e-05
1.5980773e-05
1.7332729e-05
3.247679e-05
3.2463573e-05
3.2409014e-05
3.2208505e-05
3.149414e-05
2.912286e-05
2.3598712e-05
1.8669553e-05
1.8895618e-05
1.6956239e-05
3.1628598e-05
3.1609534e-05
3.1536362e-05
3.1282477e-05
3.0382843e-05
2.7534957e-05
2.2596006e-05
2.0841406e-05
2.2319122e-05
1.6696316e-05
3.0922115e-05
3.0899106e-05
3.0816962e-05
3.0532895e-05
2.9455113e-05
2.6339735e-05
2.3103656e-05
2.4287757e-05
2.5587447e-05
1.6555019e-05
3.0325436e-05
3.030399e-05
3.023256e-05
2.9948353e-05
2.8695911e-05
2.583395e-05
2.5183882e-05
2.8331543e-05
2.8356006e-05
1.6492903e-05
2.9818404e-05
2.9809188e-05
2.9779245e-05
2.9521708e-05
2.8157699e-05
2.6404671e-05
2.8559824e-05
3.2392837e-05
3.0574217e-05
1.6472342e-05
2.9389962e-05
2.9410459e-05
2.9462767e-05
2.9249301e-05
2.8031398e-05
2.8288256e-05
3.2740242e-05
3.6145756e-05
3.232576e-05
1.6470356e-05
2.9037014e-05
2.9113029e-05
2.9294028e-05
2.9151969e-05
2.8634951e-05
3.1431635e-05
3.7231832e-05
3.9484792e-05
3.3719905e-05
1.6476062e-05
2.8764316e-05
2.8930762e-05
2.9285821e-05
2.9323067e-05
3.0269721e-05
3.5542634e-05
4.1683918e-05
4.241806e-05
3.4850541e-05
1.6485286e-05
2.8585088e-05
2.8885063e-05
2.9456365e-05
2.9966831e-05
3.3062271e-05
4.0233997e-05
4.5910909e-05
4.4991638e-05
3.578784e-05
1.6496769e-05
2.8522072e-05
2.9003159e-05
2.9849338e-05
3.1360182e-05
3.6918632e-05
4.5156884e-05
4.9841382e-05
4.7257392e-05
3.6581213e-05
1.6510245e-05
2.8608631e-05
2.9316827e-05
3.0571055e-05
3.3736483e-05
4.1586862e-05
5.0067261e-05
5.3462e-05
4.9262659e-05
3.7264839e-05
1.6525657e-05
2.8889313e-05
2.9866134e-05
3.1814715e-05
3.71809e-05
4.6760459e-05
5.4824763e-05
5.6783986e-05
5.104736e-05
3.7861847e-05
1.654291e-05
2.9419664e-05
3.0715959e-05
3.3825387e-05
4.1605958e-05
5.216494e-05
5.9359772e-05
5.9827319e-05
5.2642589e-05
3.8382029e-05
1.6561746e-05
3.026691e-05
3.1985836e-05
3.6808071e-05
4.6798792e-05
5.7598979e-05
6.3641882e-05
6.2613483e-05
5.4068911e-05
3.8841678e-05
1.6581872e-05
3.1517347e-05
3.386924e-05
4.0842696e-05
5.2497714e-05
6.2933725e-05
6.766063e-05
6.5161178e-05
5.5349607e-05
3.9251457e-05
1.660309e-05
3.3297413e-05
3.6603715e-05
4.585798e-05
5.845884e-05
6.8092359e-05
7.1415505e-05
6.7489003e-05
5.6504144e-05
3.9619163e-05
1.6625234e-05
3.5799826e-05
4.0389394e-05
5.1663936e-05
6.4490704e-05
7.3028824e-05
7.4907339e-05
6.9617466e-05
5.7547353e-05
3.9950776e-05
1.6648128e-05
3.9276929e-05
4.5306558e-05
5.8013601e-05
7.045688e-05
7.7711031e-05
7.8146085e-05
7.1563463e-05
5.8491136e-05
4.0250627e-05
1.667158e-05
4.3967273e-05
5.128221e-05
6.4661287e-05
7.6260291e-05
8.2120793e-05
8.1142692e-05
7.3340625e-05
5.9344789e-05
4.052182e-05
1.6695393e-05
4.9981768e-05
5.811339e-05
7.1395534e-05
8.1829452e-05
8.6249236e-05
8.3905633e-05
7.495956e-05
6.0115266e-05
4.0766488e-05
1.6719363e-05
5.722256e-05
6.5521658e-05
7.8045696e-05
8.7113864e-05
9.0089626e-05
8.6440425e-05
7.6427694e-05
6.0807349e-05
4.0985923e-05
1.6743283e-05
6.5385172e-05
7.3208213e-05
8.4484759e-05
9.2075809e-05
9.3633528e-05
8.8749092e-05
7.7749273e-05
6.1423795e-05
4.1180661e-05
1.6766931e-05
7.4039908e-05
8.0900192e-05
9.0617726e-05
9.6681879e-05
9.6870519e-05
9.083031e-05
7.8925625e-05
6.1965559e-05
4.1350575e-05
1.6790068e-05
8.2742259e-05
8.8367176e-05
9.6367928e-05
0.00010090293
9.9789246e-05
9.2680368e-05
7.9955879e-05
6.2432229e-05
4.1495052e-05
1.6812427e-05
9.1118704e-05
9.5426862e-05
0.00010167416
0.00010471546
0.00010237951
9.4294863e-05
8.0838104e-05
6.2822682e-05
4.1613259e-05
1.6833727e-05
9.8904891e-05
0.00010194595
0.00010649084
0.00010810351
0.00010463468
9.5670733e-05
8.1570717e-05
6.3135884e-05
4.1704462e-05
1.6853682e-05
0.00010594444
0.00010783813
0.00011078898
0.00011106025
0.00010655378
9.6808137e-05
8.2153848e-05
6.3371691e-05
4.1768345e-05
1.6872021e-05
0.00011216769
0.00011305915
0.00011455644
0.00011358872
0.00010814263
9.7711758e-05
8.2590395e-05
6.3531498e-05
4.1805277e-05
1.6888509e-05
0.000117566
0.00011759963
0.00011779702
0.00011570152
0.00010941412
9.8391358e-05
8.2886609e-05
6.3618636e-05
4.1816465e-05
1.6902973e-05
0.00012216971
0.00012147684
0.00012052831
0.00011741968
0.00011038753
9.8861614e-05
8.3052162e-05
6.3638466e-05
4.1803983e-05
1.6915307e-05
0.00012603194
0.00012472681
0.00012277895
0.00011877105
0.00011108737
9.9141377e-05
8.309976e-05
6.3598187e-05
4.1770682e-05
1.6925485e-05
0.00012921765
0.00012739758
0.00012458558
0.00011978838
0.0001115419
9.9252567e-05
8.3044417e-05
6.3506409e-05
4.1719989e-05
1.6933559e-05
0.00013179667
0.00012954389
0.00012598994
0.00012050747
0.00011178154
9.9218922e-05
8.2902545e-05
6.3372591e-05
4.1655656e-05
1.6939647e-05
0.00013383931
0.00013122321
0.0001270364
0.00012096542
0.00011183744
9.9064757e-05
8.2691016e-05
6.3206441e-05
4.1581492e-05
1.6943919e-05
0.00013541363
0.0001324929
0.00012776977
0.00012119918
0.00011174024
9.8813896e-05
8.2426315e-05
6.3017377e-05
4.1501128e-05
1.6946578e-05
0.00013658384
0.00013340826
0.00012823382
0.00012124439
0.0001115191
9.8488819e-05
8.2123876e-05
6.2814096e-05
4.141784e-05
1.6947849e-05
0.00013740935
0.00013402127
0.00012847007
0.00012113453
0.00011120102
9.8110079e-05
8.1797611e-05
6.2604284e-05
4.1334439e-05
1.6947958e-05
0.00013794429
0.00013437984
0.00012851705
0.0001209004
0.00011081041
9.7695938e-05
8.1459639e-05
6.2394461e-05
4.1253216e-05
1.6947123e-05
0.00013823737
0.00013452744
0.00012840991
0.00012056979
0.00011036889
9.7262213e-05
8.1120179e-05
6.2189931e-05
4.1175945e-05
1.6945549e-05
0.00013833194
0.00013450303
0.00012818021
0.00012016737
0.00010989525
9.6822258e-05
8.0787561e-05
6.1994817e-05
4.1103904e-05
1.6943418e-05
0.00013826627
0.00013434108
0.00012785591
0.0001197147
0.00010940547
9.638702e-05
8.046823e-05
6.1811879e-05
4.1036854e-05
1.694088e-05
0.00013807383
0.00013407186
0.00012746149
0.00011923036
0.00010891286
9.5965154e-05
8.0166777e-05
6.1642169e-05
4.0975924e-05
1.693806e-05
0.0001377837
0.00013372169
0.00012701812
0.00011873006
0.00010842821
9.5563103e-05
7.9885735e-05
6.1487765e-05
4.0921581e-05
1.6935082e-05
0.00013742094
0.00013331322
0.0001265439
0.00011822685
0.00010795992
9.5185024e-05
7.9628233e-05
6.134947e-05
4.0873992e-05
1.6932051e-05
0.00013700695
0.00013286575
0.00012605398
0.00011773118
0.00010751391
9.4835228e-05
7.9395737e-05
6.1227514e-05
4.0833079e-05
1.6929052e-05
0.0001365598
0.00013239545
0.00012556066
0.00011725101
0.00010709593
9.4516145e-05
7.9188802e-05
6.1121665e-05
4.0798575e-05
1.692615e-05
0.00013609441
0.00013191548
0.00012507406
0.00011679372
0.00010670969
9.4229005e-05
7.9007265e-05
6.1031326e-05
4.0770079e-05
1.6923392e-05
0.00013562309
0.00013143705
0.00012460293
0.0001163646
0.00010635751
9.3974078e-05
7.8850393e-05
6.0955621e-05
4.0747106e-05
1.6920813e-05
0.00013515628
0.00013096948
0.00012415405
0.00011596736
0.00010604052
9.3750872e-05
7.8717021e-05
6.0893486e-05
4.0729125e-05
1.6918435e-05
0.00013470243
0.00013052018
0.00012373248
0.00011560435
0.00010575891
9.3558296e-05
7.8605675e-05
6.0843747e-05
4.071559e-05
1.6916272e-05
0.00013426823
0.00013009483
0.0001233418
0.00011527684
0.00010551213
9.3394808e-05
7.8514674e-05
6.0805175e-05
4.070596e-05
1.6914329e-05
0.00013385881
0.00012969764
0.00012298436
0.00011498511
0.00010529896
9.3258535e-05
7.8442212e-05
6.0776527e-05
4.0699709e-05
1.6912607e-05
0.00013347788
0.00012933153
0.00012266142
0.00011472871
0.00010511775
9.3147374e-05
7.8386419e-05
6.0756578e-05
4.0696342e-05
1.69111e-05
0.00013312797
0.00012899827
0.00012237335
0.00011450653
0.00010496646
9.3059075e-05
7.8345413e-05
6.0744145e-05
4.0695392e-05
1.69098e-05
0.00013281053
0.0001286987
0.00012211974
0.00011431698
0.00010484283
9.2991322e-05
7.8317347e-05
6.0738104e-05
4.0696431e-05
1.6908696e-05
0.00013252615
0.00012843283
0.00012189959
0.00011415809
0.00010474441
9.2941796e-05
7.8300447e-05
6.073741e-05
4.0699071e-05
1.6907774e-05
0.00013227467
0.00012820005
0.00012171142
0.00011402764
0.00010466871
9.2908234e-05
7.8293041e-05
6.0741104e-05
4.0702965e-05
1.690702e-05
0.00013205534
0.0001279992
0.00012155337
0.00011392323
0.00010461323
9.2888466e-05
7.8293575e-05
6.0748322e-05
4.0707809e-05
1.6906419e-05
0.00013186692
0.00012782872
0.00012142335
0.00011384238
0.00010457551
9.2880437e-05
7.830062e-05
6.0758287e-05
4.0713335e-05
1.6905957e-05
0.00013170778
0.00012768672
0.00012131904
0.00011378257
0.00010455315
9.288222e-05
7.831287e-05
6.0770305e-05
4.0719311e-05
1.6905618e-05
0.00013157601
0.00012757106
0.00012123804
0.00011374127
0.00010454388
9.2892019e-05
7.8329139e-05
6.0783762e-05
4.0725532e-05
1.6905386e-05
0.00013146944
0.00012747944
0.00012117784
0.00011371604
0.00010454554
9.2908185e-05
7.8348362e-05
6.0798117e-05
4.0731826e-05
1.6905248e-05
0.00013138578
0.00012740946
0.00012113597
0.0001137045
0.00010455612
9.2929231e-05
7.8369604e-05
6.0812907e-05
4.0738047e-05
1.6905189e-05
0.00013132266
0.00012735869
0.00012111001
0.00011370443
0.00010457378
9.2953841e-05
7.8392061e-05
6.0827749e-05
4.0744081e-05
1.6905195e-05
0.00013127772
0.00012732476
0.00012109765
0.00011371377
0.00010459692
9.2980874e-05
7.8415058e-05
6.0842333e-05
4.0749839e-05
1.6905255e-05
0.00013124866
0.00012730536
0.00012109674
0.00011373069
0.00010462408
9.3009361e-05
7.8438045e-05
6.0856417e-05
4.0755259e-05
1.6905359e-05
0.00013123328
0.00012729836
0.00012110528
0.00011375349
0.00010465401
9.3038482e-05
7.8460569e-05
6.0869814e-05
4.0760296e-05
1.6905496e-05
0.00013122951
0.00012730171
0.00012112144
0.0001137807
0.00010468564
9.3067544e-05
7.8482264e-05
6.0882372e-05
4.0764874e-05
1.6905658e-05
0.00013123538
0.00012731354
0.00012114356
0.00011381098
0.00010471802
9.3095963e-05
7.8502822e-05
6.0893938e-05
4.0768969e-05
1.6905837e-05
0.00013124909
0.00012733212
0.00012117013
0.00011384316
0.00010475035
9.3123251e-05
7.8521977e-05
6.0904437e-05
4.0772602e-05
1.6906025e-05
0.00013126898
0.00012735586
0.0001211998
0.00011387623
0.00010478193
9.3148997e-05
7.8539557e-05
6.091386e-05
4.0775787e-05
1.6906217e-05
0.00013129353
0.00012738335
0.0001212314
0.00011390932
0.0001048122
9.3172911e-05
7.8555498e-05
6.0922204e-05
4.0778543e-05
1.6906408e-05
0.0001313214
0.00012741334
0.0001212639
0.00011394168
0.00010484074
9.3194846e-05
7.8569766e-05
6.0929494e-05
4.0780893e-05
1.6906596e-05
0.00013135141
0.00012744475
0.00012129642
0.00011397277
0.00010486728
9.321471e-05
7.8582371e-05
6.0935775e-05
4.0782867e-05
1.6906776e-05
0.00013138253
0.00012747663
0.00012132829
0.00011400219
0.00010489166
9.3232474e-05
7.8593361e-05
6.0941105e-05
4.0784495e-05
1.6906947e-05
0.00013141391
0.00012750825
0.00012135899
0.00011402965
0.00010491376
9.3248159e-05
7.8602807e-05
6.0945553e-05
4.0785808e-05
1.6907107e-05
0.00013144487
0.00012753903
0.0001213881
0.00011405495
0.00010493356
9.3261822e-05
7.8610798e-05
6.0949187e-05
4.0786836e-05
1.6907255e-05
0.00013147488
0.00012756851
0.00012141534
0.00011407796
0.00010495106
9.3273551e-05
7.8617435e-05
6.0952083e-05
4.0787611e-05
1.690739e-05
0.0001315035
0.00012759633
0.00012144049
0.00011409864
0.00010496633
9.3283457e-05
7.8622828e-05
6.0954315e-05
4.0788163e-05
1.6907512e-05
0.00013153044
0.00012762224
0.00012146343
0.00011411699
0.00010497946
9.3291671e-05
7.8627095e-05
6.0955959e-05
4.0788522e-05
1.690762e-05
0.00013155546
0.00012764608
0.0001214841
0.00011413306
0.00010499058
9.3298335e-05
7.8630354e-05
6.0957089e-05
4.0788715e-05
1.6907715e-05
0.00013157843
0.00012766775
0.0001215025
0.00011414695
0.00010499982
9.3303599e-05
7.8632727e-05
6.0957779e-05
4.078877e-05
1.6907798e-05
0.00013159926
0.0001276872
0.00012151867
0.00011415877
0.00010500735
9.3307613e-05
7.8634327e-05
6.0958095e-05
4.0788712e-05
1.6907868e-05
0.00013161791
0.00012770446
0.00012153269
0.00011416866
0.00010501331
9.3310518e-05
7.8635261e-05
6.0958098e-05
4.0788562e-05
1.6907928e-05
0.0001316344
0.00012771955
0.00012154465
0.00011417675
0.00010501787
9.3312451e-05
7.8635626e-05
6.0957843e-05
4.0788338e-05
1.6907976e-05
0.00013164876
0.00012773255
0.00012155467
0.00011418319
0.00010502117
9.3313542e-05
7.8635514e-05
6.0957378e-05
4.0788058e-05
1.6908015e-05
0.00013166107
0.00012774355
0.00012156288
0.00011418815
0.00010502338
9.3313919e-05
7.8635011e-05
6.095675e-05
4.0787737e-05
1.6908046e-05
0.00013167143
0.00012775269
0.00012156944
0.00011419179
0.00010502464
9.3313705e-05
7.8634199e-05
6.0956002e-05
4.0787389e-05
1.6908068e-05
0.00013167997
0.00012776009
0.00012157451
0.00011419427
0.00010502511
9.3313018e-05
7.8633158e-05
6.0955175e-05
4.0787028e-05
1.6908083e-05
0.00013168683
0.00012776593
0.00012157825
0.00011419577
0.00010502493
9.3311964e-05
7.8631956e-05
6.0954305e-05
4.0786666e-05
1.6908093e-05
0.00013169217
0.00012777036
0.00012158084
0.00011419642
0.00010502421
9.3310635e-05
7.863065e-05
6.0953418e-05
4.0786311e-05
1.6908098e-05
0.00013169614
0.00012777352
0.00012158241
0.00011419637
0.00010502308
9.3309105e-05
7.8629282e-05
6.0952536e-05
4.0785968e-05
1.6908098e-05
0.00013169887
0.00012777556
0.00012158309
0.00011419572
0.00010502161
9.3307429e-05
7.8627884e-05
6.095167e-05
4.0785641e-05
1.6908095e-05
0.00013170049
0.0001277766
0.00012158301
0.00011419456
0.00010501987
9.3305653e-05
7.862648e-05
6.0950829e-05
4.078533e-05
1.6908089e-05
0.00013170113
0.00012777677
0.00012158227
0.000114193
0.00010501793
9.330382e-05
7.8625092e-05
6.0950021e-05
4.0785037e-05
1.6908081e-05
0.00013170092
0.00012777619
0.00012158099
0.00011419113
0.00010501586
9.3301967e-05
7.8623736e-05
6.0949251e-05
4.078476e-05
1.690807e-05
)
;

boundaryField
{
    water_inlet
    {
        type            calculated;
        value           uniform 4.1926275e-05;
    }
    water_outlet
    {
        type            calculated;
        value           nonuniform List<scalar> 10(0.00013170092 0.00012777619 0.00012158099 0.00011419113 0.00010501586 9.3301967e-05 7.8623736e-05 6.0949251e-05 4.078476e-05 1.690807e-05);
    }
    water_wedge1
    {
        type            wedge;
    }
    water_wedge2
    {
        type            wedge;
    }
    water_to_rock
    {
        type            nutkWallFunction;
        blending        stepwise;
        value           nonuniform List<scalar> 
100
(
1.7358471e-06
1.9240026e-06
1.9263124e-06
1.8751056e-06
1.8229114e-06
1.786787e-06
1.7671182e-06
1.7584648e-06
1.7555994e-06
1.7553226e-06
1.7561181e-06
1.7574036e-06
1.7590037e-06
1.7608813e-06
1.7630286e-06
1.7654321e-06
1.7680556e-06
1.7708582e-06
1.7738125e-06
1.7768952e-06
1.7800819e-06
1.7833457e-06
1.7866591e-06
1.7899939e-06
1.793321e-06
1.7966095e-06
1.7998258e-06
1.8029334e-06
1.8058935e-06
1.8086664e-06
1.8112147e-06
1.8135058e-06
1.8155152e-06
1.8172282e-06
1.8186415e-06
1.8197624e-06
1.8206075e-06
1.8212004e-06
1.8215698e-06
1.8217464e-06
1.8217616e-06
1.8216459e-06
1.8214273e-06
1.8211315e-06
1.820779e-06
1.8203873e-06
1.8199737e-06
1.8195529e-06
1.8191365e-06
1.8187335e-06
1.8183505e-06
1.8179924e-06
1.8176622e-06
1.8173618e-06
1.817092e-06
1.8168528e-06
1.8166434e-06
1.8164629e-06
1.8163094e-06
1.8161814e-06
1.8160767e-06
1.8159933e-06
1.8159292e-06
1.8158821e-06
1.8158499e-06
1.8158306e-06
1.8158222e-06
1.815823e-06
1.8158313e-06
1.8158457e-06
1.8158649e-06
1.8158874e-06
1.8159123e-06
1.8159384e-06
1.815965e-06
1.8159916e-06
1.8160176e-06
1.8160427e-06
1.8160665e-06
1.8160888e-06
1.8161094e-06
1.8161282e-06
1.8161451e-06
1.8161602e-06
1.8161735e-06
1.816185e-06
1.8161948e-06
1.8162031e-06
1.8162098e-06
1.8162152e-06
1.8162194e-06
1.8162224e-06
1.8162245e-06
1.8162259e-06
1.8162265e-06
1.8162265e-06
1.816226e-06
1.816225e-06
1.8162237e-06
1.8162222e-06
)
;
    }
}


// ************************************************************************* //
