/*--------------------------------*- C++ -*----------------------------------*\
| =========                 |                                                 |
| \\      /  F ield         | OpenFOAM: The Open Source CFD Toolbox           |
|  \\    /   O peration     | Version:  2506                                  |
|   \\  /    A nd           | Website:  www.openfoam.com                      |
|    \\/     M anipulation  |                                                 |
\*---------------------------------------------------------------------------*/
FoamFile
{
    version     2.0;
    format      ascii;
    arch        "LSB;label=32;scalar=64";
    class       volVectorField;
    location    "9000/water";
    object      U;
}
// * * * * * * * * * * * * * * * * * * * * * * * * * * * * * * * * * * * * * //

dimensions      [0 1 -1 0 0 0 0];

internalField   nonuniform List<vector> 
1000
(
(0.25225587 -0.00012859766 1.5893439e-18)
(0.25226258 -0.00027067835 1.2349637e-18)
(0.25227485 -0.00041450539 1.8873018e-18)
(0.25228819 -0.00055572715 3.4554391e-19)
(0.25229018 -0.00068575788 2.6418892e-19)
(0.25223998 -0.00079863171 -1.5481952e-20)
(0.25200713 -0.00089615193 -1.8826659e-19)
(0.25115686 -0.0010460356 -3.2963408e-19)
(0.24780473 -0.0012820719 -2.0809086e-19)
(0.23308262 0.0010121611 -3.5367643e-19)
(0.25653043 -7.7330433e-05 5.6424449e-19)
(0.25653977 -0.00018903828 1.8571695e-18)
(0.25655871 -0.00029096533 2.4392923e-18)
(0.25657276 -0.00039024482 4.8733336e-19)
(0.25654377 -0.00048175033 1.4265767e-19)
(0.25636039 -0.00055898436 -7.3873277e-20)
(0.25570613 -0.0006053649 -3.5256282e-19)
(0.25355952 -0.00065441356 -4.925566e-19)
(0.24574266 -0.00084724768 -3.0300181e-19)
(0.21968686 0.00025718807 -3.4455126e-19)
(0.26021787 -7.3909945e-05 -1.3152925e-18)
(0.26022468 -0.00018059826 -3.4346873e-19)
(0.26023383 -0.00027741901 1.2639446e-18)
(0.26021807 -0.00037159727 2.8760954e-19)
(0.26010153 -0.00045735751 -4.5213479e-19)
(0.25968006 -0.0005304456 -3.0275648e-19)
(0.25840621 -0.00057093028 -2.617691e-19)
(0.25452354 -0.00056554642 -3.9222141e-19)
(0.24186464 -0.0006198759 -3.5544507e-19)
(0.20839343 1.1253104e-05 -3.1183911e-19)
(0.26340527 -6.8945966e-05 -3.9232717e-19)
(0.26340956 -0.00017058503 -5.7137152e-19)
(0.26340597 -0.0002627922 7.6542533e-19)
(0.2633478 -0.00035138354 3.8263481e-19)
(0.26310913 -0.00042951112 -2.1351525e-19)
(0.26237282 -0.00049394934 -4.5545613e-19)
(0.26030372 -0.00052750854 -2.6058623e-19)
(0.25430845 -0.00049289688 -3.1074087e-19)
(0.23723184 -0.00045934012 -2.6577067e-19)
(0.19958847 -4.8875341e-05 -3.1244282e-19)
(0.26641628 -6.4388959e-05 -6.5353641e-19)
(0.26641556 -0.00015946874 9.6758878e-19)
(0.266392 -0.0002453986 6.4091501e-19)
(0.26627267 -0.00032748772 1.5640808e-19)
(0.26586988 -0.00039791756 -7.5614076e-21)
(0.26472852 -0.00045250627 1.52204e-19)
(0.26164538 -0.00047360824 -8.900237e-20)
(0.25321243 -0.00041483705 -3.0249192e-19)
(0.23271018 -0.00033459136 -3.1442129e-19)
(0.19329524 -5.0633045e-05 -2.0629895e-19)
(0.26927574 -6.0867542e-05 6.2278388e-19)
(0.26926716 -0.00015024331 1.2538787e-18)
(0.26921481 -0.00023070451 1.0534809e-18)
(0.26901237 -0.00030702756 2.7774244e-19)
(0.26839647 -0.00037050045 -1.1045261e-19)
(0.26673517 -0.00041493332 2.5801356e-19)
(0.26236785 -0.00041871987 1.3309648e-20)
(0.25136274 -0.00033835198 -1.768975e-19)
(0.22869804 -0.00023663019 -1.653029e-19)
(0.18902137 -3.9495671e-05 -1.642146e-19)
(0.27197991 -5.805753e-05 2.0331284e-18)
(0.27196007 -0.00014287134 2.9432088e-18)
(0.2718683 -0.00021894837 4.2350762e-19)
(0.2715565 -0.00029030367 5.6517148e-19)
(0.27066608 -0.00034729036 2.5071524e-19)
(0.26833153 -0.00038068387 -9.0611208e-20)
(0.26239848 -0.00036437433 -1.3616279e-19)
(0.24902637 -0.00026852683 -1.2495669e-19)
(0.225361 -0.00016272884 2.1253245e-20)
(0.18616828 -2.8774972e-05 -2.4130382e-19)
(0.27455816 -5.5861801e-05 -5.4044178e-19)
(0.27452281 -0.00013703204 2.3342765e-18)
(0.27437848 -0.0002095201 1.6004507e-19)
(0.27392443 -0.00027640506 2.3558266e-19)
(0.27267858 -0.0003268212 4.2217941e-19)
(0.26947687 -0.00034738495 2.1358279e-19)
(0.26178466 -0.00031092759 8.09752e-20)
(0.24657378 -0.00020816932 -1.5524908e-19)
(0.22271518 -0.00011050133 -1.8923693e-19)
(0.18425839 -2.0836602e-05 -2.1777868e-19)
(0.27704027 -5.4085693e-05 9.7810898e-19)
(0.27698407 -0.0001322543 5.6973208e-19)
(0.27677058 -0.00020162568 9.1525227e-19)
(0.27613171 -0.00026417292 2.3987244e-19)
(0.27442314 -0.00030720609 3.9289833e-19)
(0.27014173 -0.0003129482 3.1550129e-19)
(0.26068997 -0.00025925836 -9.2713998e-21)
(0.24429829 -0.00015836479 -6.0772213e-20)
(0.22067581 -7.5408704e-05 -6.3238948e-20)
(0.18296199 -1.5153464e-05 -5.501402e-20)
(0.2794434 -5.2555716e-05 3.1998263e-18)
(0.27935955 -0.00012814128 1.7670592e-18)
(0.27905543 -0.00019460743 3.9512703e-19)
(0.27817576 -0.00025259236 4.203577e-19)
(0.27586798 -0.00028673471 1.8278778e-19)
(0.27032644 -0.00027659243 2.1879057e-19)
(0.25933499 -0.00021094072 -1.4904984e-19)
(0.24234211 -0.00011891262 -8.1554427e-20)
(0.21912381 -5.2172431e-05 -7.8836556e-20)
(0.182066 -1.0946064e-05 -1.7857178e-19)
(0.28177654 -5.1166614e-05 1.8448591e-18)
(0.28165619 -0.00012441961 7.0764795e-19)
(0.2812333 -0.00018797284 1.1344979e-20)
(0.28003902 -0.00024077443 8.2984687e-19)
(0.276974 -0.00026417638 6.7641122e-20)
(0.27008763 -0.00023880397 -1.0983674e-19)
(0.25792265 -0.0001676231 -7.3739858e-20)
(0.24073177 -8.8481389e-05 -1.2998012e-19)
(0.2179502 -3.6446035e-05 -1.8897161e-19)
(0.18143937 -7.69963e-06 -1.3214259e-19)
(0.28404476 -4.9854718e-05 1.5373515e-18)
(0.28387625 -0.0001208941 9.9884437e-19)
(0.28329739 -0.0001813289 4.3377464e-19)
(0.28169345 -0.00022787685 6.4643209e-19)
(0.27771474 -0.00023897348 1.3990127e-19)
(0.2695351 -0.00020087499 -2.053874e-19)
(0.25659135 -0.00013036453 -1.1049041e-19)
(0.23943778 -6.5170958e-05 -1.055243e-19)
(0.21706901 -2.532536e-05 -1.1173588e-19)
(0.18100325 -5.12218e-06 -1.069197e-19)
(0.28625048 -4.857205e-05 1.1242999e-18)
(0.28601827 -0.00011740081 5.3594789e-19)
(0.28523426 -0.0001743017 2.5738831e-19)
(0.28310494 -0.00021314162 7.2736735e-19)
(0.27809439 -0.0002112902 2.0598661e-19)
(0.26879941 -0.00016439765 1.0618493e-19)
(0.25541091 -9.9328909e-05 5.5622762e-21)
(0.23841398 -4.7155494e-05 -7.7313523e-20)
(0.21641538 -1.707886e-05 -1.1920122e-19)
(0.18070894 -3.0436347e-06 -9.6931627e-20)
(0.28839354 -4.7270944e-05 1.1287367e-18)
(0.28807681 -0.00011377567 5.5707274e-19)
(0.28702341 -0.00016645962 1.4414395e-19)
(0.28424078 -0.00019602568 7.0771474e-19)
(0.2781555 -0.00018188497 4.1596448e-19)
(0.267996 -0.00013078937 1.5705001e-19)
(0.25440305 -7.3936893e-05 -2.5871792e-19)
(0.23761476 -3.3003824e-05 -1.2235111e-19)
(0.21594074 -1.0716095e-05 -1.4429251e-19)
(0.1805245 -1.3528451e-06 -2.0984926e-19)
(0.29047097 -4.5891416e-05 1.3898517e-18)
(0.29004194 -0.00010982898 3.2387463e-18)
(0.28863778 -0.00015729277 4.2977723e-19)
(0.28508024 -0.0001763381 1.9622868e-19)
(0.27797083 -0.00015188669 3.6588082e-19)
(0.26720625 -0.00010094623 5.9074831e-20)
(0.25356401 -5.3258398e-05 -2.2232036e-19)
(0.23700053 -2.1698437e-05 -1.4815562e-19)
(0.21560862 -5.6595569e-06 -1.5821051e-19)
(0.1804276 3.3980616e-08 -1.1686305e-19)
(0.29247637 -4.4351512e-05 5.1363212e-19)
(0.2918983 -0.00010531325 7.764303e-19)
(0.2900463 -0.00014628173 6.7573449e-19)
(0.2856247 -0.00015430607 9.7087468e-19)
(0.27762409 -0.00012253894 5.9766813e-19)
(0.26647733 -7.5147406e-05 2.7628285e-19)
(0.25287923 -3.635746e-05 1.7428402e-19)
(0.23653862 -1.2544239e-05 -2.1881828e-20)
(0.21539112 -1.5275969e-06 -8.6682954e-20)
(0.18040205 1.205704e-06 1.11693e-19)
(0.29439899 -4.2542632e-05 -9.3141472e-20)
(0.29362439 -9.9894491e-05 7.0294601e-19)
(0.29121908 -0.00013303019 9.2755279e-19)
(0.28590172 -0.00013054523 8.9171151e-19)
(0.27719085 -9.4943941e-05 4.0770143e-19)
(0.26583134 -5.3198143e-05 5.0473146e-19)
(0.25233096 -2.2452706e-05 3.1267394e-19)
(0.23620235 -5.0204557e-06 1.5289399e-19)
(0.21526451 1.8973503e-06 2.326716e-20)
(0.18043775 2.1934498e-06 -1.2733269e-19)
(0.29622247 -4.032231e-05 5.8276769e-20)
(0.29519257 -9.3155462e-05 7.4208589e-20)
(0.29213502 -0.00011739331 8.1613521e-19)
(0.28595988 -0.000105944 7.4431672e-19)
(0.27672821 -6.9857843e-05 3.1564724e-19)
(0.26527516 -3.4649938e-05 4.3502845e-19)
(0.2519011 -1.0911416e-05 3.8789678e-19)
(0.23596807 1.2312165e-06 2.4258538e-19)
(0.21521692 4.7054202e-06 1.0980554e-19)
(0.18052215 2.9882568e-06 -3.1798277e-20)
(0.29792334 -3.7501436e-05 8.3236007e-19)
(0.29657067 -8.4660796e-05 6.042738e-19)
(0.29278917 -9.9552965e-05 3.9061088e-19)
(0.28585702 -8.149735e-05 6.9724022e-19)
(0.27627358 -4.7620653e-05 7.1936762e-19)
(0.26480714 -1.8985123e-05 2.7365583e-19)
(0.25157194 -1.2550025e-06 -4.7570701e-20)
(0.23582161 6.4196283e-06 2.7746488e-20)
(0.21523437 6.9883437e-06 4.5900093e-20)
(0.18064613 3.6199094e-06 -8.3190534e-20)
(0.29946983 -3.3841904e-05 1.5877649e-19)
(0.29772603 -7.4080956e-05 2.1120349e-18)
(0.29319629 -8.0020998e-05 5.0487724e-20)
(0.28564805 -5.8127509e-05 -1.427878e-18)
(0.27584862 -2.8226851e-05 -4.2568441e-19)
(0.26442121 -5.6917725e-06 -6.9309135e-19)
(0.25132937 6.8549132e-06 -4.2306783e-19)
(0.23575038 1.0703732e-05 -3.3341249e-19)
(0.21530524 8.8441768e-06 -2.0422344e-19)
(0.18080243 4.1230645e-06 -5.5753854e-20)
(0.30082186 -2.9095314e-05 1.6015599e-18)
(0.29863176 -6.1333235e-05 1.1977502e-18)
(0.29338825 -5.9568659e-05 -2.0015034e-19)
(0.2853772 -3.6524293e-05 -1.0305335e-18)
(0.27546385 -1.1418842e-05 -7.6309655e-19)
(0.26410766 5.6148795e-06 -5.4247038e-19)
(0.2511654 1.3621876e-05 -3.5505233e-19)
(0.23574181 1.421841e-05 -3.7926942e-19)
(0.2154201 1.0353924e-05 -2.5276913e-19)
(0.18098518 4.5258546e-06 9.3172525e-20)
(0.30193378 -2.3109244e-05 2.3427589e-18)
(0.29927341 -4.6685795e-05 1.1053816e-18)
(0.29340606 -3.9093065e-05 1.557837e-19)
(0.2850755 -1.7049124e-05 7.3500309e-19)
(0.2751209 3.0823637e-06 1.266997e-18)
(0.26386445 1.5138897e-05 5.9415064e-19)
(0.25106782 1.9208558e-05 8.7545648e-20)
(0.23578539 1.7093589e-05 2.1643719e-20)
(0.21557118 1.1579947e-05 -2.0514057e-21)
(0.18118945 4.8473213e-06 -4.3983925e-20)
(0.30276116 -1.5977265e-05 -2.1555351e-18)
(0.29965292 -3.0773853e-05 -4.7692837e-19)
(0.2932906 -1.9437012e-05 -7.5259149e-19)
(0.28476124 1.6716041e-07 -6.1524807e-19)
(0.27482458 1.5440296e-05 7.0025614e-19)
(0.26368339 2.3071209e-05 2.1120752e-19)
(0.25102649 2.3802097e-05 3.0497741e-19)
(0.23587239 1.9434017e-05 1.5694508e-19)
(0.21575197 1.2564613e-05 1.5192183e-20)
(0.18141104 5.0988149e-06 4.1359929e-20)
(0.3032714 -8.127723e-06 -2.883109e-19)
(0.29978739 -1.448589e-05 4.3878496e-19)
(0.29307481 -1.3049443e-06 -1.1842214e-18)
(0.2844492 1.5040363e-05 -8.7824489e-19)
(0.27457434 2.5805192e-05 -1.1434717e-18)
(0.26355616 2.9615005e-05 -4.2160979e-19)
(0.25103262 2.7545996e-05 -2.4980578e-19)
(0.23599542 2.1312418e-05 -1.2710289e-19)
(0.21595695 1.33367e-05 -8.8149853e-20)
(0.18164626 5.2876686e-06 4.0506818e-22)
(0.30345402 -2.416064e-07 7.472769e-19)
(0.29970267 1.1342196e-06 7.9261082e-19)
(0.29278639 1.4664099e-05 -7.2444315e-19)
(0.28414893 2.7527978e-05 -7.3064532e-19)
(0.2743656 3.4339256e-05 -1.0846771e-18)
(0.26347496 3.4932565e-05 -8.3313995e-19)
(0.25107851 3.0538664e-05 -4.6614124e-19)
(0.2361481 2.2776402e-05 -2.1891509e-19)
(0.21618129 1.3914232e-05 -9.41917e-20)
(0.1818918 5.4178794e-06 -3.0365211e-20)
(0.30332515 6.8819658e-06 -1.7385562e-18)
(0.29943296 1.4986715e-05 -7.5209775e-19)
(0.29244688 2.7996279e-05 -1.1573706e-18)
(0.28386231 3.7679248e-05 -1.8659652e-18)
(0.27419302 4.1189862e-05 -9.0441563e-19)
(0.26343257 3.9130665e-05 -1.0594e-18)
(0.2511573 3.2838703e-05 -2.0702091e-19)
(0.23632476 2.3851478e-05 -1.9350727e-19)
(0.21642059 1.4304614e-05 -9.2760567e-20)
(0.18214447 5.4898683e-06 5.7505825e-20)
(0.30293049 1.2607652e-05 2.3125484e-18)
(0.29901529 2.6254295e-05 -3.9936151e-19)
(0.29206921 3.8509602e-05 -3.4066804e-19)
(0.28358874 4.5591452e-05 4.0707268e-19)
(0.27405094 4.6453577e-05 1.0072834e-18)
(0.26342219 4.2268409e-05 5.9942507e-19)
(0.25126272 3.4473653e-05 1.4151933e-19)
(0.23652017 2.4544993e-05 4.9552767e-20)
(0.21667068 1.4506086e-05 1.182868e-20)
(0.18240112 5.5009617e-06 -1.4752244e-20)
(0.30233159 1.6686214e-05 -1.010131e-18)
(0.29848529 3.4601127e-05 -6.441808e-19)
(0.29166291 4.6231652e-05 -6.1103491e-20)
(0.2833265 5.13602e-05 5.535642e-19)
(0.27393381 5.0194748e-05 5.6428465e-19)
(0.26343754 4.4377849e-05 7.2865488e-19)
(0.25138895 3.545202e-05 1.4785374e-19)
(0.23672936 2.4852767e-05 1.6039729e-19)
(0.21692742 1.4511222e-05 7.7555486e-20)
(0.18265842 5.446693e-06 3.7944658e-20)
(0.30159319 1.9181469e-05 9.4129868e-19)
(0.29787654 4.0083357e-05 2.1648545e-18)
(0.29123633 5.1325881e-05 1.8378747e-19)
(0.28307382 5.5101288e-05 -3.1182406e-19)
(0.27383648 5.2475941e-05 -6.3460128e-19)
(0.26347281 4.5484556e-05 -3.6946279e-19)
(0.25153053 3.5776675e-05 -3.4138822e-19)
(0.23694751 2.4767672e-05 -3.6412824e-20)
(0.21718661 1.4311809e-05 5.5241153e-20)
(0.18291289 5.3227106e-06 1.5767292e-20)
(0.30077404 2.034312e-05 1.5597947e-18)
(0.29721991 4.3028223e-05 8.3789594e-19)
(0.29079788 5.4061313e-05 -4.2746159e-19)
(0.28282962 5.6972623e-05 -7.9086261e-19)
(0.2737546 5.3379964e-05 -5.9401354e-19)
(0.26352282 4.5624848e-05 -7.0881444e-19)
(0.25168238 3.5457574e-05 -2.5240488e-19)
(0.23716992 2.4288001e-05 -1.1790157e-19)
(0.21744401 1.3903417e-05 2.2785792e-20)
(0.18316089 5.1264112e-06 1.0605751e-20)
(0.29992222 2.0483213e-05 -4.6527768e-18)
(0.29654261 4.3897734e-05 -3.0601674e-18)
(0.29035626 5.4779055e-05 -1.7844888e-18)
(0.28259385 5.7180048e-05 -1.8882447e-18)
(0.27368476 5.3022456e-05 -1.1604217e-18)
(0.26358308 4.4858554e-05 -6.4597531e-19)
(0.25183984 3.4522232e-05 1.2177795e-21)
(0.23739211 2.3424705e-05 -1.2964916e-19)
(0.21769543 1.3289482e-05 1.9189385e-20)
(0.18339876 4.8583889e-06 9.9849136e-20)
(0.29907425 1.9896629e-05 2.8356359e-18)
(0.29586748 4.3178964e-05 5.672193e-19)
(0.28992023 5.3854581e-05 -3.5407233e-19)
(0.28236752 5.5968991e-05 8.4312646e-19)
(0.27362457 5.1554287e-05 1.1038113e-18)
(0.2636499 4.3274993e-05 7.2644414e-19)
(0.2519988 3.3021834e-05 2.5523746e-19)
(0.23760991 2.2206102e-05 5.8972352e-20)
(0.21793686 1.2484223e-05 4.1552807e-20)
(0.18362301 4.5235833e-06 1.8922152e-21)
(0.29825617 1.8826437e-05 1.8818573e-18)
(0.29521265 4.1316793e-05 6.7750821e-19)
(0.28949799 5.1662232e-05 -1.1356221e-20)
(0.28215237 5.3607098e-05 3.8159395e-21)
(0.27357256 4.9154717e-05 4.6930751e-19)
(0.26372035 4.0991207e-05 3.7976298e-19)
(0.25215571 3.1031441e-05 1.869953e-19)
(0.23781959 2.0678502e-05 1.8141993e-19)
(0.21816471 1.151309e-05 -1.7899687e-20)
(0.18383051 4.1313535e-06 1.5944883e-20)
(0.29748543 1.7458294e-05 2.0201404e-18)
(0.29459167 3.8684391e-05 2.4311661e-18)
(0.28909669 4.854869e-05 7.4103874e-19)
(0.28195053 5.0364939e-05 9.3776427e-20)
(0.27352798 4.6019531e-05 -1.1759201e-18)
(0.26379222 3.8144894e-05 -5.5426866e-19)
(0.25230768 2.8645716e-05 -4.0181599e-19)
(0.23801801 1.8903634e-05 9.3264111e-21)
(0.21837593 1.0411433e-05 9.1130916e-21)
(0.18401876 3.6950091e-06 6.0771772e-21)
(0.29677289 1.5927722e-05 4.7762696e-19)
(0.29401394 3.5577747e-05 2.6388113e-18)
(0.28872207 4.4816885e-05 1.0898316e-18)
(0.28176411 4.6498908e-05 3.9742959e-19)
(0.27349053 4.2347208e-05 -4.5913359e-19)
(0.26386387 3.4883888e-05 -7.6477421e-19)
(0.25245241 2.59711e-05 -3.04466e-19)
(0.23820265 1.6953121e-05 -1.884508e-19)
(0.21856818 9.2211184e-06 -1.5931565e-20)
(0.18418596 3.2304658e-06 -4.0544849e-20)
(0.29612446 1.4330847e-05 -4.6357987e-18)
(0.29348537 3.2222546e-05 -1.9375793e-18)
(0.28837831 4.071933e-05 -4.5568552e-19)
(0.28159488 4.2238951e-05 -1.7352528e-18)
(0.27346016 3.8326425e-05 -4.6430307e-19)
(0.26393413 3.135517e-05 -7.8315786e-19)
(0.25258815 2.3116822e-05 -2.5976753e-19)
(0.23837166 1.4901772e-05 -2.828333e-19)
(0.21873988 7.9862693e-06 -2.0271783e-19)
(0.18433111 2.7545021e-06 -4.4370045e-20)
(0.29554244 1.273445e-05 3.653152e-18)
(0.29300902 2.8785723e-05 7.3371492e-20)
(0.28806805 3.6458367e-05 9.7213363e-20)
(0.28144412 3.7781741e-05 1.235635e-18)
(0.27343685 3.4126842e-05 1.1568415e-18)
(0.26400215 2.7695676e-05 9.2702934e-19)
(0.25271369 2.0186875e-05 1.104836e-19)
(0.23852383 1.2821416e-05 -7.4891663e-21)
(0.21889021 6.7493007e-06 -1.9881562e-19)
(0.18445401 2.2831985e-06 -2.0060597e-19)
(0.29502659 1.1183863e-05 1.7153658e-18)
(0.29258573 2.5387269e-05 3.0922674e-20)
(0.28779255 3.2190283e-05 6.5738144e-19)
(0.28131251 3.3288255e-05 6.6761326e-19)
(0.2734205 2.9893366e-05 9.5653474e-19)
(0.26406733 2.4025599e-05 7.645071e-19)
(0.25282826 1.727374e-05 5.8854956e-19)
(0.23865858 1.0775917e-05 2.7926352e-19)
(0.21901907 5.5476114e-06 9.4523413e-20)
(0.18455518 1.8305656e-06 -2.8654076e-20)
(0.29457491 9.7089646e-06 1.3520262e-18)
(0.2922147 2.2110847e-05 2.6165108e-18)
(0.28755187 2.8031547e-05 1.4575504e-18)
(0.28120012 2.8884893e-05 -5.8922663e-20)
(0.2734109 2.5743999e-05 -6.2433513e-19)
(0.2641292 2.0444841e-05 1.1901155e-19)
(0.25293145 1.4454727e-05 3.0407146e-20)
(0.23877584 8.8182234e-06 1.4623756e-19)
(0.21912698 4.4116748e-06 1.5404918e-19)
(0.18463573 1.4077932e-06 7.3006509e-20)
(0.29418419 8.3285274e-06 5.1745998e-18)
(0.29189392 1.9012531e-05 4.192474e-18)
(0.28734518 2.406552e-05 1.6519247e-18)
(0.28110652 2.466665e-05 3.0528049e-18)
(0.27340762 2.1770241e-05 1.4319944e-18)
(0.26418744 1.7031949e-05 1.2324682e-18)
(0.25302315 1.1790466e-05 4.1596095e-19)
(0.23887599 6.9890895e-06 1.9032314e-19)
(0.21921494 3.3642389e-06 -1.4946753e-20)
(0.1846972 1.0229557e-06 -1.3529119e-19)
(0.29385046 7.0533429e-06 2.0855542e-18)
(0.29162054 1.6127696e-05 6.9330933e-19)
(0.28717089 2.0348834e-05 3.5705905e-18)
(0.28103082 2.07013e-05 2.8693329e-18)
(0.27341013 1.8039163e-05 2.0933713e-18)
(0.26424177 1.3844866e-05 1.8690081e-18)
(0.25310353 9.3250728e-06 1.275984e-18)
(0.23895977 5.3171313e-06 4.9299476e-19)
(0.21928437 2.420397e-06 3.8133335e-19)
(0.18474146 6.8105564e-07 9.7775734e-20)
(0.29356932 5.8885473e-06 1.5247939e-18)
(0.2913912 1.347647e-05 1.5611088e-18)
(0.28702692 1.6917158e-05 2.9487782e-18)
(0.2809718 1.7033999e-05 2.179522e-18)
(0.27341774 1.459656e-05 2.4597238e-18)
(0.264292 1.0923024e-05 1.7075448e-18)
(0.25317294 7.0876263e-06 1.2226549e-18)
(0.2390282 3.8199653e-06 8.1059107e-19)
(0.21933691 1.588428e-06 5.6667828e-19)
(0.18477052 3.8441889e-07 3.1833541e-19)
(0.29333614 4.835283e-06 1.1782883e-18)
(0.29120222 1.1067881e-05 3.4755762e-18)
(0.28691084 1.3790115e-05 2.9130091e-18)
(0.28092801 1.3691751e-05 4.4759356e-18)
(0.27342971 1.1470537e-05 3.9390019e-18)
(0.264338 8.2901615e-06 1.6156863e-18)
(0.25323189 5.0944435e-06 1.2863869e-18)
(0.23908247 2.5060414e-06 1.1013339e-18)
(0.21937437 8.711533e-07 7.7400002e-19)
(0.18478648 1.3331868e-07 5.5342264e-19)
(0.29314626 3.891885e-06 6.4753877e-19)
(0.29104975 8.9029371e-06 2.2632075e-18)
(0.28682002 1.0975176e-05 3.1624128e-18)
(0.28089784 1.068723e-05 4.4687667e-18)
(0.27344523 8.6747774e-06 3.551869e-18)
(0.26437967 5.9569557e-06 2.7043437e-18)
(0.25328103 3.3509963e-06 1.7959765e-18)
(0.23912392 1.375778e-06 1.3115402e-18)
(0.21939863 2.7208536e-07 9.3968325e-19)
(0.1847914 -6.9585102e-08 6.8672502e-19)
(0.29299506 3.0546167e-06 7.116671e-19)
(0.29092996 6.9765994e-06 5.0430136e-19)
(0.28675175 8.4702406e-06 9.2733498e-19)
(0.28087962 8.0213129e-06 2.1336426e-18)
(0.2734635 6.2106413e-06 2.6009754e-18)
(0.26441701 3.9227129e-06 2.5701655e-18)
(0.25332108 1.8541154e-06 1.8459538e-18)
(0.23915391 4.2891564e-07 1.3633612e-18)
(0.21941122 -2.1368383e-07 8.0503792e-19)
(0.18478764 -2.2835747e-07 5.2363707e-19)
(0.2928781 2.3183447e-06 9.4890978e-19)
(0.29083908 5.2796297e-06 2.7481101e-18)
(0.28670333 6.2663324e-06 4.0157766e-18)
(0.28087168 5.6862019e-06 1.6484116e-18)
(0.27348375 4.0704974e-06 1.1369073e-18)
(0.26445004 2.179487e-06 2.1574756e-18)
(0.25335274 5.9932657e-07 1.8248092e-18)
(0.23917355 -3.4335772e-07 1.3568961e-18)
(0.21941459 -6.0430435e-07 1.2933015e-18)
(0.18477676 -3.5399025e-07 7.9650025e-19)
(0.29279115 1.6771785e-06 2.3643072e-18)
(0.29077349 3.8002752e-06 1.9353174e-18)
(0.28667212 4.3501316e-06 2.0565769e-18)
(0.28087238 3.6686508e-06 8.2160933e-19)
(0.27350525 2.2419766e-06 1.2379993e-18)
(0.26447879 7.1847782e-07 1.7790145e-18)
(0.25337659 -4.2741951e-07 1.6681457e-18)
(0.23918483 -9.6378187e-07 1.341742e-18)
(0.21941033 -9.1336071e-07 1.2475596e-18)
(0.18476021 -4.5113519e-07 9.6097638e-19)
(0.29273024 1.1247401e-06 3.9033374e-18)
(0.29072977 2.5250974e-06 2.6109444e-18)
(0.28665561 2.7054175e-06 1.9779538e-18)
(0.28088015 1.9524598e-06 3.4034322e-18)
(0.27352727 7.1202083e-07 2.6469429e-18)
(0.26450319 -4.7893441e-07 1.7107256e-18)
(0.253394 -1.2538379e-06 1.6470269e-18)
(0.23918902 -1.4516408e-06 1.4578486e-18)
(0.21939989 -1.1474244e-06 1.2725623e-18)
(0.18473939 -5.214388e-07 1.0414215e-18)
(0.29269164 6.5447257e-07 1.6804528e-18)
(0.29070468 1.4400355e-06 2.5476643e-18)
(0.28665141 1.315729e-06 2.7201658e-18)
(0.28089349 5.2188308e-07 3.695902e-18)
(0.27354905 -5.4174622e-07 3.1772042e-18)
(0.26452391 -1.4441148e-06 2.1026129e-18)
(0.25340577 -1.9041958e-06 1.9421926e-18)
(0.23918729 -1.8198665e-06 1.6744368e-18)
(0.21938461 -1.3133899e-06 1.4855716e-18)
(0.18471554 -5.6735399e-07 1.1000405e-18)
(0.29267192 2.6022494e-07 -1.6394486e-19)
(0.29069524 5.3201e-07 9.268035e-19)
(0.28665724 1.6369969e-07 8.6322836e-19)
(0.28091096 -6.4869725e-07 8.9844562e-19)
(0.27357052 -1.5530357e-06 2.3775123e-18)
(0.26454119 -2.2048746e-06 1.5385678e-18)
(0.25341264 -2.3965154e-06 1.682166e-18)
(0.23918074 -2.0813892e-06 1.6120515e-18)
(0.21936571 -1.4196918e-06 1.1606135e-18)
(0.18468976 -5.9214593e-07 9.8720431e-19)
(0.29266788 -6.451753e-08 7.7732898e-19)
(0.29069862 -2.1487898e-07 3.6062381e-18)
(0.2866711 -7.7589808e-07 3.915703e-18)
(0.28093166 -1.5921739e-06 1.1149698e-18)
(0.27359127 -2.3505632e-06 6.4380364e-19)
(0.26455525 -2.7825073e-06 1.5075711e-18)
(0.25341533 -2.7484769e-06 1.52163e-18)
(0.23917035 -2.2500376e-06 1.5262724e-18)
(0.21934424 -1.475194e-06 1.36661e-18)
(0.18466297 -5.9923459e-07 1.0662364e-18)
(0.29267665 -3.2780951e-07 8.3527276e-19)
(0.29071241 -8.1992888e-07 3.010914e-18)
(0.28669134 -1.5296283e-06 2.2481289e-18)
(0.28095459 -2.3341022e-06 1.823883e-18)
(0.27361099 -2.956642e-06 1.0141478e-18)
(0.26456636 -3.1978465e-06 1.7088437e-18)
(0.2534145 -2.9783153e-06 1.5106172e-18)
(0.23915703 -2.339586e-06 1.5761906e-18)
(0.21932114 -1.4884378e-06 1.4447196e-18)
(0.18463596 -5.9190033e-07 1.1121361e-18)
(0.29269573 -5.3706927e-07 1.3225505e-18)
(0.29073446 -1.2996273e-06 1.0692903e-18)
(0.28671639 -2.1176811e-06 1.7293058e-18)
(0.28097887 -2.8960378e-06 2.1566709e-18)
(0.27362943 -3.3933075e-06 1.7370451e-18)
(0.26457479 -3.4717714e-06 1.6478269e-18)
(0.25341079 -3.1037258e-06 1.5871837e-18)
(0.23914158 -2.3629822e-06 1.6045539e-18)
(0.2192972 -1.46725e-06 1.4852782e-18)
(0.18460933 -5.7310437e-07 1.2502667e-18)
(0.29272289 -6.9823779e-07 2.0723601e-18)
(0.29076287 -1.6677369e-06 1.4034666e-18)
(0.28674491 -2.5584661e-06 1.4044743e-18)
(0.28100375 -3.2990893e-06 1.1566325e-18)
(0.27364643 -3.6822598e-06 5.1690002e-19)
(0.26458083 -3.624402e-06 1.2368252e-18)
(0.25340479 -3.1413764e-06 1.446908e-18)
(0.23912471 -2.3321612e-06 1.4925807e-18)
(0.21927307 -1.4186941e-06 1.4834701e-18)
(0.1845836 -5.4549181e-07 1.2489658e-18)
(0.29275615 -8.1693624e-07 1.7596155e-18)
(0.29079592 -1.937291e-06 2.8651122e-18)
(0.28677568 -2.8697395e-06 3.9263704e-18)
(0.2810286 -3.5636966e-06 2.3641815e-18)
(0.27366187 -3.8442744e-06 1.89621e-18)
(0.26458475 -3.6746947e-06 9.6861268e-19)
(0.253397 -3.1066947e-06 1.3452712e-18)
(0.23910703 -2.2579534e-06 1.3106087e-18)
(0.2192493 -1.3490341e-06 1.2364857e-18)
(0.18455914 -5.1135967e-07 1.1602438e-18)
(0.29279378 -8.9849622e-07 1.4358782e-18)
(0.29083215 -2.1207097e-06 2.9786979e-18)
(0.28680769 -3.0685121e-06 5.1987713e-18)
(0.28105292 -3.7093661e-06 3.0172817e-18)
(0.27367569 -3.898974e-06 2.4439403e-18)
(0.26458684 -3.6403097e-06 1.763573e-18)
(0.25338792 -3.0138245e-06 1.6911268e-18)
(0.23908904 -2.1501204e-06 1.509928e-18)
(0.21922633 -1.2638287e-06 1.5028967e-18)
(0.18453624 -4.7273038e-07 1.2511613e-18)
(0.29283425 -9.4792102e-07 2.2794178e-18)
(0.29087026 -2.2297062e-06 1.064872e-18)
(0.28684006 -3.1708431e-06 -5.386902e-19)
(0.28107628 -3.7544062e-06 1.4557843e-18)
(0.27368789 -3.8645753e-06 2.2828019e-18)
(0.26458738 -3.5374032e-06 2.2007408e-18)
(0.25337795 -2.8754821e-06 1.898584e-18)
(0.23907117 -2.0172685e-06 1.7050094e-18)
(0.21920448 -1.1678712e-06 1.5313947e-18)
(0.18451509 -4.3130654e-07 1.2226405e-18)
(0.29287626 -9.6990955e-07 1.5339242e-18)
(0.29090917 -2.2752769e-06 2.4683981e-19)
(0.28687208 -3.191764e-06 1.3682309e-19)
(0.28109838 -3.7158221e-06 1.5081525e-18)
(0.2736985 -3.7577948e-06 1.7705764e-18)
(0.26458662 -3.3805732e-06 1.9797311e-18)
(0.25336745 -2.7029532e-06 1.8792056e-18)
(0.23905378 -1.8668889e-06 1.7379003e-18)
(0.219184 -1.0652626e-06 1.4886472e-18)
(0.1844958 -3.885313e-07 1.1608955e-18)
(0.29291872 -9.6881185e-07 -1.6083579e-19)
(0.29094795 -2.2676142e-06 5.4958309e-19)
(0.28690316 -3.1451472e-06 6.8734498e-19)
(0.28111898 -3.6091641e-06 1.1696631e-18)
(0.27370757 -3.5937111e-06 1.6143989e-19)
(0.26458481 -3.1827566e-06 1.692974e-18)
(0.25335674 -2.5060286e-06 1.6723344e-18)
(0.23903713 -1.7053235e-06 1.6101192e-18)
(0.21916507 -9.5937238e-07 1.4791282e-18)
(0.18447844 -3.4554745e-07 1.2177835e-18)
(0.29296069 -9.4865271e-07 7.1499292e-19)
(0.29098585 -2.2161223e-06 2.8386668e-18)
(0.28693283 -3.0437096e-06 3.5192858e-18)
(0.28113792 -3.4485377e-06 1.7822263e-18)
(0.27371519 -3.3858062e-06 2.2294385e-18)
(0.26458216 -2.9553159e-06 9.4922567e-19)
(0.25334607 -2.2931288e-06 1.2325592e-18)
(0.23902143 -1.5378934e-06 1.4272748e-18)
(0.2191478 -8.5294738e-07 1.2832071e-18)
(0.18446301 -3.032638e-07 1.1880304e-18)
(0.29300143 -9.1311632e-07 7.5519038e-19)
(0.29102227 -2.1293975e-06 4.0059195e-18)
(0.28696074 -2.8989943e-06 4.6229139e-18)
(0.28115511 -3.2466098e-06 2.43598e-18)
(0.27372146 -3.1460121e-06 2.6877866e-18)
(0.26457888 -2.7081284e-06 1.9609081e-18)
(0.25333565 -2.0714212e-06 1.7323928e-18)
(0.23900684 -1.3690178e-06 1.7154288e-18)
(0.21913224 -7.4819716e-07 1.5581933e-18)
(0.18444947 -2.6238692e-07 1.2733214e-18)
(0.29304033 -8.6555003e-07 2.0212046e-18)
(0.29105674 -2.0152383e-06 1.3024707e-18)
(0.28698664 -2.7214018e-06 -4.7257639e-19)
(0.28117051 -3.0146692e-06 2.0726492e-18)
(0.27372648 -2.8848139e-06 2.1838869e-18)
(0.26457516 -2.449733e-06 2.6453317e-18)
(0.25332566 -1.8469878e-06 2.1700774e-18)
(0.23899345 -1.202365e-06 1.8569515e-18)
(0.2191184 -6.4690136e-07 1.6186778e-18)
(0.18443777 -2.2346126e-07 1.2874178e-18)
(0.29307695 -8.089824e-07 2.8078715e-18)
(0.2910889 -1.8806783e-06 6.4028896e-19)
(0.28701036 -2.5202372e-06 8.0038855e-19)
(0.28118413 -2.7627047e-06 1.8563894e-18)
(0.27373039 -2.6113637e-06 2.1829427e-18)
(0.26457114 -2.1874682e-06 2.157498e-18)
(0.25331622 -1.6249736e-06 2.010075e-18)
(0.23898133 -1.0409973e-06 1.7930775e-18)
(0.21910627 -5.5053746e-07 1.6635408e-18)
(0.18442782 -1.8694355e-07 1.2772723e-18)
(0.29311095 -7.4609479e-07 1.7005668e-18)
(0.29111851 -1.7319492e-06 1.9422845e-18)
(0.2870318 -2.3036835e-06 1.8385017e-18)
(0.28119599 -2.499389e-06 1.4827143e-18)
(0.27373329 -2.3334781e-06 1.30168e-18)
(0.26456696 -1.9274834e-06 1.8698323e-18)
(0.25330742 -1.4095956e-06 1.9965306e-18)
(0.23897049 -8.8736308e-07 1.8030828e-18)
(0.21909578 -4.6025333e-07 1.6475919e-18)
(0.1844195 -1.5316853e-07 1.3864749e-18)
(0.2931421 -6.7924563e-07 6.2434627e-19)
(0.29114544 -1.5745119e-06 2.8780132e-18)
(0.28705093 -2.0788372e-06 4.0277217e-18)
(0.28120617 -2.2321301e-06 2.3490625e-18)
(0.2737353 -2.0577021e-06 2.1166168e-18)
(0.26456274 -1.6747995e-06 9.6411563e-19)
(0.25329934 -1.2041954e-06 1.5241288e-18)
(0.23896094 -7.4333661e-07 1.6883353e-18)
(0.21908684 -3.7690403e-07 1.4699873e-18)
(0.18441269 -1.223848e-07 1.3611659e-18)
(0.29317028 -6.1045151e-07 -1.1682106e-19)
(0.29116959 -1.4130332e-06 3.2633934e-18)
(0.28706777 -1.851688e-06 5.1405099e-18)
(0.28121477 -1.9670554e-06 2.9663491e-18)
(0.27373656 -1.7892972e-06 2.1846212e-18)
(0.26455857 -1.4332975e-06 2.0969284e-18)
(0.25329201 -1.0112116e-06 1.781172e-18)
(0.23895262 -6.1016718e-07 1.7677002e-18)
(0.21907937 -3.0098275e-07 1.8134108e-18)
(0.18440726 -9.4703823e-08 1.4393422e-18)
(0.29319544 -5.4141537e-07 7.5526926e-19)
(0.29119098 -1.2514301e-06 4.4196389e-19)
(0.28708238 -1.6271824e-06 -9.374624e-19)
(0.28122189 -1.709099e-06 1.6294159e-18)
(0.27373716 -1.5323447e-06 2.3979044e-18)
(0.26455453 -1.2058229e-06 2.7544906e-18)
(0.25328545 -8.3227355e-07 2.1022196e-18)
(0.2389455 -4.8855319e-07 1.8178683e-18)
(0.21907325 -2.326671e-07 1.5859717e-18)
(0.18440306 -7.0124743e-08 1.3244647e-18)
(0.29321761 -4.735361e-07 1.3502815e-18)
(0.29120967 -1.0929092e-06 1.1332006e-18)
(0.28709488 -1.4092946e-06 3.7905937e-19)
(0.28122765 -1.4621058e-06 1.6605325e-18)
(0.27373722 -1.2898762e-06 1.8576597e-18)
(0.26455069 -9.9432263e-07 2.0192359e-18)
(0.25327965 -6.683242e-07 1.9605598e-18)
(0.2389395 -3.7872916e-07 1.7132358e-18)
(0.21906836 -1.718544e-07 1.5245013e-18)
(0.18439996 -4.8531669e-08 1.2466774e-18)
(0.29323685 -4.0796227e-07 2.5842955e-18)
(0.29122574 -9.4007714e-07 1.5663467e-18)
(0.28710536 -1.2011811e-06 7.6763739e-19)
(0.28123218 -1.2290262e-06 1.0944067e-18)
(0.27373684 -1.0640982e-06 2.2899294e-19)
(0.26454709 -8.0008581e-07 1.296967e-18)
(0.25327461 -5.1985245e-07 1.7729878e-18)
(0.23893455 -2.8066915e-07 1.6260761e-18)
(0.21906459 -1.1832543e-07 1.6068464e-18)
(0.18439783 -2.9783475e-08 1.3450006e-18)
(0.2932533 -3.4559067e-07 1.7552547e-18)
(0.29123933 -7.9496706e-07 1.6773262e-18)
(0.28711399 -1.0052497e-06 2.6889732e-18)
(0.2812356 -1.0120209e-06 1.7945296e-18)
(0.27373609 -8.5650751e-07 2.3022391e-18)
(0.26454375 -6.2384939e-07 1.3757167e-18)
(0.25327028 -3.8697604e-07 1.5825189e-18)
(0.23893055 -1.9413275e-07 1.7049983e-18)
(0.21906181 -7.175328e-08 1.4893169e-18)
(0.18439654 -1.3692572e-08 1.3006869e-18)