/*--------------------------------*- C++ -*----------------------------------*\
| =========                 |                                                 |
| \\      /  F ield         | OpenFOAM: The Open Source CFD Toolbox           |
|  \\    /   O peration     | Version:  2506                                  |
|   \\  /    A nd           | Website:  www.openfoam.com                      |
|    \\/     M anipulation  |                                                 |
\*---------------------------------------------------------------------------*/
FoamFile
{
    version     2.0;
    format      ascii;
    arch        "LSB;label=32;scalar=64";
    class       volScalarField;
    location    "11000/water";
    object      alphat;
}
// * * * * * * * * * * * * * * * * * * * * * * * * * * * * * * * * * * * * * //

dimensions      [1 -1 -1 0 0 0 0];

internalField   nonuniform List<scalar> 
6000
(
0.041292847
0.041292824
0.041292831
0.041292856
0.041292889
0.041292932
0.041292983
0.041293016
0.041292808
0.041290571
0.041271537
0.041111294
0.0397723
0.030564074
0.013464793
0.040788543
0.040788537
0.040788576
0.040788654
0.040788758
0.040788888
0.04078902
0.040788972
0.040787494
0.040776037
0.040696382
0.040161217
0.036863805
0.023766469
0.015141611
0.04033569
0.040335696
0.040335761
0.040335884
0.040336044
0.040336229
0.04033633
0.040335685
0.040330323
0.040296649
0.040097616
0.038983223
0.033614213
0.0194951
0.016360294
0.039926215
0.039926219
0.039926301
0.039926459
0.03992666
0.039926848
0.039926701
0.039924457
0.039910659
0.039835636
0.039448738
0.037597438
0.030384627
0.016783057
0.017196555
0.039553796
0.039553808
0.039553906
0.039554093
0.039554312
0.039554413
0.039553622
0.0395481
0.039519187
0.039379112
0.038737841
0.036066498
0.027427863
0.015063192
0.01773179
0.039213273
0.039213296
0.039213408
0.039213613
0.039213809
0.039213657
0.039211571
0.039200298
0.039147643
0.038916647
0.037965398
0.034462847
0.024852826
0.013984463
0.018040007
0.038900366
0.038900399
0.038900521
0.038900723
0.038900826
0.038900159
0.038895819
0.03887551
0.038788999
0.038441492
0.037140256
0.032849727
0.022675913
0.013336844
0.018183117
0.038611532
0.038611573
0.038611697
0.038611866
0.038611765
0.038610199
0.038602307
0.038568928
0.038437606
0.037950377
0.036275872
0.031274836
0.020870828
0.012994967
0.018210197
0.038343817
0.038343862
0.038343975
0.038344065
0.038343601
0.038340605
0.038327517
0.03827644
0.038089201
0.037442856
0.03538704
0.029770034
0.019396999
0.012882914
0.018158676
0.038094736
0.03809478
0.038094862
0.038094803
0.038093753
0.038088644
0.038068396
0.037994592
0.037740813
0.036920505
0.03448763
0.028354169
0.018213448
0.012953916
0.018056304
0.037862183
0.037862216
0.037862238
0.037861935
0.037860009
0.037851941
0.037822294
0.037720559
0.037390607
0.036386134
0.033589398
0.02703684
0.017284481
0.013178532
0.017923231
0.03764436
0.037644371
0.037644291
0.037643618
0.037640447
0.037628426
0.037586933
0.037452106
0.037037684
0.035843147
0.032701562
0.025821837
0.016581272
0.013537499
0.017773886
0.037439726
0.037439699
0.03743946
0.037438254
0.037433393
0.037416287
0.037360374
0.037187532
0.036681868
0.035295042
0.031830871
0.02470985
0.016081614
0.014017191
0.017618497
0.037246949
0.037246861
0.037246392
0.037244452
0.037237378
0.037213943
0.037140989
0.036925609
0.0363235
0.034745073
0.030981931
0.023700436
0.015768976
0.014606606
0.017464261
0.037064871
0.037064693
0.037063903
0.037060987
0.037051109
0.037020016
0.036927437
0.036665512
0.035963258
0.03419604
0.030157673
0.022793377
0.015631332
0.015295285
0.017316197
0.03689248
0.036892177
0.036890955
0.036886782
0.036873442
0.036833316
0.036718634
0.03640675
0.035602004
0.033650187
0.029359858
0.021989538
0.015659917
0.016071914
0.01717775
0.036728885
0.036728414
0.036726628
0.036720878
0.03670337
0.036652818
0.036513731
0.036149096
0.035240656
0.033109157
0.028589603
0.021291346
0.015847992
0.016923492
0.017051196
0.036573301
0.03657261
0.036570106
0.036562424
0.036540005
0.036477653
0.03631208
0.035892529
0.034880099
0.032574024
0.027847913
0.02070292
0.016189617
0.017835049
0.016937916
0.036425028
0.036424056
0.036420663
0.036410663
0.036382564
0.036307092
0.036113215
0.03563717
0.034521109
0.032045349
0.027136212
0.020229919
0.016678486
0.018789895
0.016838558
0.036283441
0.03628212
0.036277645
0.036264917
0.036230367
0.036140535
0.03591682
0.035383242
0.034164308
0.031523285
0.026456862
0.019879123
0.017306891
0.019770317
0.016753165
0.036147982
0.036146234
0.036140468
0.036124584
0.036082821
0.035977497
0.035722708
0.035131018
0.033810124
0.031007717
0.025813646
0.019657797
0.018064912
0.0207586
0.016681265
0.036018143
0.036015885
0.036008605
0.035989127
0.035939416
0.035817597
0.035530799
0.034880794
0.033458783
0.030498445
0.025212142
0.019572905
0.018939949
0.021738147
0.016621966
0.03589347
0.03589061
0.035881581
0.035858069
0.035799718
0.035660549
0.035341095
0.034632853
0.033110301
0.029995409
0.024659951
0.019630248
0.019916664
0.02269449
0.016574063
0.035773545
0.035769987
0.035758968
0.035730991
0.035663366
0.035506152
0.035153669
0.034387441
0.032764498
0.029498968
0.024166686
0.019833637
0.020977366
0.023616003
0.016536152
0.035657992
0.035653635
0.035640383
0.035607524
0.035530063
0.035354279
0.034968643
0.03414475
0.03242103
0.029010211
0.023743688
0.020184173
0.022102784
0.024494228
0.016506745
0.035546464
0.035541207
0.035525479
0.035487349
0.035399574
0.035204869
0.034786172
0.033904896
0.032079439
0.028531302
0.023403466
0.020679734
0.023273104
0.025323802
0.016484372
0.035438647
0.035432386
0.035413948
0.035370193
0.035271718
0.035057919
0.034606436
0.03366791
0.03173923
0.028065808
0.023158915
0.021314706
0.0244691
0.026102089
0.016467662
0.035334251
0.035326887
0.035305516
0.035255823
0.03514637
0.034913479
0.03442962
0.033433727
0.031399978
0.02761899
0.023022388
0.022080017
0.02567317
0.026828633
0.016455398
0.035233012
0.035224448
0.035199939
0.03514405
0.035023453
0.034771643
0.034255909
0.033202186
0.031061475
0.027197981
0.02300477
0.022963453
0.026870128
0.027504567
0.016446543
0.035134691
0.035124836
0.035097009
0.035034724
0.034902936
0.03463254
0.03408547
0.032973033
0.030723902
0.0268118
0.023114634
0.02395025
0.02804767
0.028132079
0.016440248
0.035039067
0.03502784
0.034996542
0.034927732
0.034784832
0.034496333
0.033918446
0.032745938
0.030388047
0.026471168
0.023357597
0.025023884
0.02919649
0.028713983
0.016435834
0.034945943
0.034933275
0.034898386
0.034822996
0.034669194
0.034363211
0.033754944
0.032520522
0.030055535
0.0261881
0.023735916
0.026166983
0.030310099
0.029253407
0.016432778
0.034855141
0.034840974
0.034802418
0.034720475
0.034556112
0.034233382
0.033595029
0.032296402
0.029729079
0.025975303
0.024248335
0.027362251
0.031384439
0.029753594
0.016430685
0.034766502
0.034750797
0.03470854
0.034620164
0.034445715
0.034107066
0.033438713
0.032073259
0.029412693
0.025845435
0.024890191
0.028593299
0.032417399
0.030217765
0.016429265
0.034679887
0.034662624
0.034616684
0.034522088
0.034338162
0.033984492
0.033285952
0.031850929
0.029111867
0.025810315
0.025653732
0.029845306
0.033408314
0.030649046
0.016428312
0.034595176
0.034576356
0.034526808
0.034426308
0.034233647
0.033865888
0.033136649
0.03162952
0.028833634
0.02588017
0.02652862
0.031105459
0.03435753
0.031050409
0.016427682
0.034512269
0.034491917
0.034438897
0.034332917
0.034132389
0.033751478
0.032990657
0.031409556
0.028586515
0.026063011
0.027502555
0.032363145
0.035266042
0.031424647
0.01642728
0.034431083
0.034409252
0.034352965
0.034242042
0.034034637
0.033641469
0.032847794
0.031192142
0.028380316
0.026364176
0.02856198
0.033609949
0.036135248
0.031774346
0.016427047
0.034351558
0.034328331
0.034269052
0.034153841
0.033940664
0.03353605
0.032707869
0.030979151
0.028225759
0.026786091
0.029692789
0.034839474
0.03696677
0.032101874
0.01642695
0.034273652
0.034249145
0.03418723
0.034068505
0.03385076
0.033435383
0.03257072
0.030773393
0.028133998
0.027328222
0.030880994
0.036047068
0.037762344
0.032409381
0.016426974
0.034197344
0.03417171
0.034107598
0.033986257
0.033765237
0.033339598
0.032436275
0.030578782
0.028116033
0.027987225
0.032113285
0.037229503
0.038523755
0.032698798
0.016427117
0.034122637
0.034096064
0.034030285
0.033907355
0.033684417
0.033248788
0.032304627
0.030400435
0.028182108
0.028757251
0.033377461
0.038384663
0.039252794
0.032971855
0.016427382
0.034049553
0.034022276
0.033955452
0.033832084
0.033608631
0.033163012
0.03217613
0.030244714
0.028341141
0.02963036
0.034662708
0.039511266
0.039951228
0.033230086
0.016427779
0.03397814
0.033950437
0.033883292
0.033760766
0.033538214
0.033082299
0.032051523
0.030119154
0.028600248
0.030597023
0.035959728
0.040608641
0.040620777
0.033474856
0.016428318
0.033908471
0.033880668
0.033814033
0.033693749
0.033473498
0.033006661
0.031932061
0.030032291
0.028964397
0.031646653
0.037260745
0.041676559
0.0412631
0.033707373
0.01642901
0.033840644
0.033813121
0.033747936
0.033631414
0.033414804
0.032936115
0.031819661
0.029993369
0.029436212
0.032768131
0.038559406
0.042715108
0.041879779
0.033928705
0.016429865
0.033774787
0.03374798
0.033685299
0.033574167
0.033362441
0.032870717
0.031717044
0.030011962
0.030015935
0.033950285
0.03985063
0.043724612
0.042472314
0.034139802
0.016430892
0.033711057
0.03368546
0.033626458
0.03352244
0.033316699
0.032810615
0.031627853
0.03009752
0.030701524
0.035182302
0.041130416
0.044705564
0.043042113
0.034341502
0.016432097
0.033649643
0.033625814
0.033571787
0.033476689
0.033277844
0.032756112
0.031556734
0.030258904
0.031488879
0.036454045
0.042395664
0.045658587
0.043590498
0.034534552
0.016433487
0.03359077
0.033569333
0.033521698
0.033437387
0.03324612
0.032707756
0.031509357
0.030503939
0.032372145
0.037756267
0.043643995
0.046584395
0.044118699
0.034719617
0.016435064
0.033534699
0.033516348
0.033476647
0.033405019
0.033221753
0.032666433
0.031492358
0.030839028
0.033344088
0.039080736
0.044873612
0.04748377
0.044627864
0.034897289
0.016436831
0.033481731
0.033467235
0.033437127
0.033380083
0.033204961
0.03263349
0.031513197
0.031268866
0.034396492
0.040420265
0.046083176
0.048357533
0.045119059
0.035068096
0.016438788
0.033432211
0.033422413
0.033403675
0.033363076
0.033195977
0.032610855
0.031579922
0.031796265
0.035520555
0.04176869
0.047271717
0.04920653
0.045593277
0.035232514
0.016440933
0.033386531
0.033382352
0.033376864
0.033354497
0.033195077
0.03260115
0.031700871
0.032422091
0.036707256
0.043120789
0.048438563
0.050031614
0.046051437
0.035390968
0.016443266
0.033345134
0.033347573
0.033357309
0.033354836
0.033202627
0.032607792
0.031884307
0.033145318
0.037947676
0.044472182
0.049583282
0.050833633
0.046494397
0.035543844
0.016445782
0.033308518
0.033318652
0.033345661
0.033364571
0.033219142
0.03263506
0.032138041
0.033963178
0.039233252
0.045819223
0.05070564
0.051613421
0.046922951
0.035691489
0.016448478
0.033277237
0.03329622
0.033342601
0.033384174
0.033245362
0.032688109
0.032469069
0.034871382
0.040555968
0.047158893
0.051805561
0.052371796
0.047337839
0.035834219
0.016451351
0.033251914
0.033280969
0.033348845
0.033414106
0.033282344
0.032772916
0.032883246
0.035864399
0.041908473
0.048488702
0.052883101
0.053109547
0.047739749
0.035972319
0.016454394
0.033233235
0.033273652
0.033365128
0.033454835
0.033331562
0.032896164
0.033385033
0.036935759
0.043284142
0.049806606
0.05393842
0.053827443
0.048129318
0.036106053
0.016457603
0.033221962
0.033275082
0.033392211
0.033506851
0.033395016
0.033065049
0.033977333
0.038078364
0.044677087
0.051110936
0.054971758
0.054526219
0.048507144
0.036235658
0.016460974
0.033218934
0.033286139
0.033430864
0.033570696
0.03347533
0.03328702
0.03466142
0.039284778
0.046082132
0.052400343
0.055983419
0.055206587
0.048873783
0.036361356
0.016464499
0.033225073
0.033307763
0.033481871
0.033647008
0.033575844
0.033569482
0.03543695
0.040547492
0.047494763
0.053673746
0.056973755
0.055869227
0.049229756
0.036483354
0.016468174
0.033241386
0.033340955
0.033546021
0.033736577
0.033700659
0.033919476
0.036302066
0.041859137
0.048911069
0.054930293
0.057943151
0.056514769
0.049575443
0.036601083
0.01647199
0.033268972
0.03338678
0.033624112
0.03384042
0.03385465
0.034343361
0.037253557
0.043212658
0.050327673
0.056169325
0.058892009
0.057143808
0.049911242
0.036714879
0.016475942
0.033309024
0.033446355
0.033716953
0.03395986
0.034043419
0.034846537
0.038287076
0.044601425
0.051741668
0.057390341
0.059820747
0.057756912
0.050237556
0.036825045
0.016480019
0.03336283
0.033520852
0.033825376
0.034096627
0.034273181
0.035433217
0.039397375
0.046019315
0.05315056
0.05859298
0.060729793
0.058354636
0.050554797
0.036931851
0.016484214
0.033431775
0.033611491
0.033950257
0.034252953
0.034550591
0.036106273
0.040578559
0.04746074
0.054552214
0.059776995
0.061619576
0.058937455
0.050862924
0.037035581
0.016488518
0.033517344
0.033719533
0.034092549
0.034431664
0.034882515
0.036867153
0.041824324
0.048920652
0.055944809
0.06094223
0.062490518
0.059505812
0.051162151
0.037136396
0.016492923
0.033621114
0.033846282
0.034253323
0.03463625
0.035275766
0.037715884
0.04312818
0.050394528
0.057326795
0.062088608
0.063343038
0.060060164
0.051452982
0.037234384
0.016497425
0.033744758
0.03399308
0.034433835
0.034870907
0.035736813
0.038651138
0.04448364
0.051878339
0.058696861
0.063216117
0.064177554
0.060600974
0.051735851
0.037329653
0.016502019
0.033890035
0.034161309
0.034635591
0.035140533
0.036271504
0.039670361
0.045884371
0.053368508
0.060053902
0.064324797
0.064994473
0.061128573
0.052011163
0.037422331
0.0165067
0.034058787
0.034352405
0.034860441
0.035450672
0.036884817
0.04076994
0.047324309
0.054861872
0.061396992
0.065414728
0.065794144
0.061642948
0.052279305
0.037512562
0.016511467
0.034252938
0.034567873
0.035110664
0.035807391
0.037580647
0.04194541
0.048797738
0.05635564
0.062725358
0.066486019
0.06657693
0.062144668
0.052540483
0.037600453
0.016516317
0.034474482
0.034809314
0.035389065
0.036217114
0.038361672
0.043191654
0.050299338
0.057847356
0.064038358
0.067538805
0.067343214
0.062634244
0.052794917
0.037686088
0.016521247
0.03472549
0.035078475
0.035699051
0.03668639
0.039229274
0.044503116
0.051824204
0.059334859
0.065335462
0.068573252
0.068093395
0.063112137
0.053042836
0.037769546
0.016526253
0.035008111
0.0353773
0.036044683
0.037221645
0.040183533
0.045873991
0.05336785
0.060816257
0.066616245
0.069589502
0.068827371
0.063578808
0.05328449
0.037850923
0.016531331
0.035324589
0.035708009
0.036430695
0.037828909
0.041223285
0.047298391
0.054926197
0.062289891
0.067880351
0.070587709
0.069545619
0.064034565
0.053520087
0.037930306
0.016536479
0.035677286
0.036073175
0.036862462
0.038513561
0.042346232
0.048770486
0.056495549
0.063754305
0.069127489
0.071568062
0.070248613
0.064479709
0.053749815
0.03800777
0.016541693
0.036068722
0.036475821
0.037345902
0.039280097
0.043549086
0.050284608
0.058072569
0.065208225
0.070357434
0.072530786
0.070936788
0.064914535
0.05397385
0.03808338
0.016546969
0.036501628
0.036919503
0.037887336
0.040131947
0.044827754
0.051835337
0.059654258
0.066650547
0.07157
0.073475728
0.071610524
0.065339341
0.054192383
0.038157196
0.016552305
0.036979022
0.037408383
0.038493282
0.041071359
0.046177512
0.053417543
0.061237916
0.068080293
0.072765015
0.074403189
0.072270172
0.06575439
0.05440559
0.038229281
0.016557696
0.037504283
0.037947266
0.039170213
0.042099335
0.047593194
0.055026425
0.062821116
0.069496596
0.073942366
0.075313494
0.072916048
0.066159929
0.054613631
0.038299687
0.01656314
0.038081237
0.038541603
0.039924294
0.04321564
0.049069361
0.056657516
0.064401678
0.070898702
0.075101911
0.076206925
0.07354845
0.0665562
0.054816652
0.038368466
0.016568632
0.038714232
0.039197425
0.040761117
0.044418866
0.050600453
0.058306691
0.065977654
0.072285945
0.076243439
0.077083727
0.074167654
0.066943446
0.055014794
0.038435662
0.01657417
0.039408186
0.039921219
0.04168546
0.045706541
0.052180909
0.059970147
0.067547277
0.073657701
0.077366975
0.077944205
0.074773922
0.067321889
0.055208189
0.038501318
0.016579751
0.040168594
0.040719746
0.042701079
0.047075272
0.053805269
0.061644386
0.069108946
0.07501344
0.078472605
0.078788616
0.075367508
0.067691735
0.055396963
0.038565473
0.01658537
0.041001476
0.041599788
0.043810563
0.048520914
0.055468255
0.063326221
0.070661258
0.076352559
0.079560259
0.079617161
0.075948661
0.068053183
0.055581228
0.03862816
0.016591025
0.041913249
0.042567867
0.04501525
0.050038738
0.057164811
0.065012715
0.072202869
0.077674596
0.08063013
0.080430045
0.076517618
0.068406417
0.055761093
0.038689414
0.016596712
0.042910523
0.043629939
0.046315198
0.051623596
0.058890136
0.066701158
0.073732562
0.07897924
0.08168235
0.081227468
0.077074596
0.068751612
0.055936657
0.038749262
0.016602429
0.043999825
0.044791095
0.047709225
0.05327008
0.060639721
0.068389119
0.075249196
0.080266019
0.082716968
0.082009627
0.077619801
0.069088929
0.056108012
0.038807733
0.016608172
0.045187263
0.046055284
0.049194995
0.054972647
0.062409314
0.07007428
0.076751675
0.08153484
0.083734044
0.082776705
0.078153427
0.06941852
0.056275244
0.038864849
0.016613937
0.046478153
0.047425093
0.050769137
0.056725727
0.064194929
0.071754496
0.078239055
0.082785576
0.084733648
0.083528869
0.078675652
0.069740523
0.056438429
0.038920633
0.016619723
0.047876653
0.048901588
0.052427393
0.058523823
0.065992884
0.0734278
0.079710317
0.084018005
0.085715841
0.084266274
0.079186641
0.070055066
0.056597639
0.038975102
0.016625525
0.049385427
0.050484222
0.054164765
0.060361538
0.067799632
0.075092234
0.081164972
0.085231945
0.086680676
0.084989063
0.079686547
0.070362266
0.056752938
0.039028273
0.016631341
0.051005371
0.052170823
0.055975679
0.062233671
0.069611916
0.076745847
0.082602396
0.08642722
0.087628191
0.08569736
0.080175505
0.07066223
0.056904383
0.039080161
0.016637167
0.052735439
0.053957644
0.057854094
0.06413513
0.071426508
0.078387249
0.08402198
0.087603655
0.088558415
0.086391274
0.080653636
0.070955051
0.057052026
0.039130777
0.016643001
0.054572577
0.05583948
0.059793663
0.06606103
0.07324018
0.080015146
0.085423148
0.088761069
0.089471359
0.087070898
0.081121049
0.071240813
0.057195911
0.039180129
0.016648839
0.056511765
0.057809808
0.061787735
0.068006453
0.075050361
0.08162828
0.086805343
0.089899274
0.090367019
0.087736308
0.081577834
0.07151959
0.057336076
0.039228225
0.016654679
0.058546169
0.05986097
0.06382944
0.069966605
0.076854677
0.083225452
0.088168018
0.091018069
0.091245373
0.088387557
0.082024067
0.071791442
0.057472553
0.039275069
0.016660517
0.060667325
0.061984256
0.065911638
0.071937325
0.078650875
0.084805515
0.089510633
0.092117244
0.092106378
0.089024684
0.082459809
0.07205642
0.057605367
0.039320663
0.01666635
0.062865342
0.06417027
0.0680275
0.073914603
0.080436806
0.086367362
0.09083265
0.093196568
0.092949971
0.089647706
0.082885104
0.072314563
0.057734536
0.039365007
0.016672175
0.065129366
0.066409218
0.070170246
0.075894569
0.08221041
0.087909921
0.092133531
0.094255798
0.093776068
0.09025662
0.08329998
0.072565898
0.057860074
0.039408099
0.016677989
0.067447962
0.068691094
0.07233318
0.077873483
0.083969706
0.089432148
0.093412733
0.095294669
0.094584563
0.090851403
0.083704448
0.072810443
0.057981987
0.039449933
0.016683788
0.06980947
0.071005877
0.074509733
0.07984772
0.085712782
0.090933021
0.094669706
0.096312898
0.095375327
0.09143201
0.084098505
0.073048203
0.058100274
0.039490503
0.01668957
0.072202311
0.073343712
0.076693497
0.081813762
0.087437782
0.092411537
0.095903898
0.097310187
0.09614821
0.091998378
0.08448213
0.073279171
0.05821493
0.039529798
0.01669533
0.074615256
0.075695068
0.078878262
0.083768201
0.089142906
0.093866711
0.097114749
0.098286216
0.096903039
0.092550422
0.084855284
0.073503331
0.058325941
0.039567807
0.016701064
0.077037628
0.078050865
0.081058058
0.085707732
0.090826401
0.095297575
0.098301695
0.099240653
0.097639622
0.093088038
0.085217916
0.073720654
0.058433288
0.039604517
0.01670677
0.079459451
0.080402575
0.083227187
0.087629163
0.092486561
0.096703178
0.099464169
0.10017315
0.09835775
0.093611105
0.085569955
0.073931099
0.058536945
0.039639909
0.016712444
0.081871558
0.082742293
0.085380261
0.089529419
0.094121729
0.098082587
0.10060161
0.10108335
0.099057196
0.094119481
0.08591132
0.074134618
0.058636882
0.039673966
0.01671808
0.084265636
0.085062782
0.087512229
0.091405559
0.0957303
0.099434891
0.10171345
0.10197088
0.099737718
0.094613013
0.086241913
0.074331149
0.058733059
0.039706666
0.016723676
0.086634254
0.087357502
0.089618403
0.093254781
0.097310725
0.10075921
0.10279915
0.10283539
0.10039907
0.095091533
0.086561624
0.074520622
0.058825434
0.039737985
0.016729227
0.088970848
0.089620605
0.091694475
0.095074441
0.098861521
0.10205468
0.10385816
0.10367649
0.10104099
0.095554863
0.086870333
0.074702959
0.058913957
0.039767898
0.016734728
0.091269693
0.091846929
0.093736526
0.096862064
0.10038127
0.10332049
0.10488997
0.10449385
0.10166322
0.096002819
0.087167911
0.074878074
0.058998576
0.039796378
0.016740174
0.093525853
0.094031969
0.095741036
0.098615357
0.10186865
0.10455587
0.10589409
0.1052871
0.10226551
0.096435211
0.087454225
0.075045874
0.059079231
0.039823394
0.016745561
0.095735132
0.096171848
0.097704876
0.10033221
0.1033224
0.10576009
0.10687005
0.10605593
0.10284761
0.096851852
0.087729135
0.075206263
0.059155863
0.039848917
0.016750883
0.097894012
0.098263271
0.099625302
0.10201073
0.10474138
0.10693247
0.10781743
0.10680002
0.10340929
0.09725256
0.087992505
0.075359145
0.059228409
0.039872915
0.016756134
0.099999589
0.10030349
0.10149995
0.1036492
0.10612454
0.1080724
0.10873585
0.10751911
0.10395032
0.097637161
0.088244199
0.075504422
0.059296807
0.039895356
0.016761311
0.10204952
0.10229024
0.1033268
0.10524613
0.10747094
0.10917934
0.10962495
0.10821294
0.10447052
0.098005495
0.088484091
0.075641998
0.059360994
0.039916211
0.016766406
0.10404195
0.10422172
0.10510418
0.10680022
0.10877975
0.1102528
0.11048447
0.10888132
0.10496972
0.098357419
0.088712062
0.075771785
0.059420912
0.039935448
0.016771415
0.10597548
0.10609653
0.10683075
0.10831037
0.11005026
0.11129238
0.11131415
0.10952408
0.10544778
0.098692813
0.088928008
0.0758937
0.059476504
0.039953041
0.016776331
0.10784909
0.10791365
0.10850543
0.1097757
0.11128188
0.11229775
0.11211382
0.11014111
0.1059046
0.09901158
0.089131841
0.076007671
0.059527721
0.039968963
0.016781149
0.10966211
0.10967236
0.11012744
0.11119549
0.11247412
0.11326865
0.11288336
0.11073233
0.10634012
0.099313651
0.089323492
0.076113638
0.059574519
0.039983192
0.016785863
0.11141418
0.11137225
0.11169623
0.1125692
0.11362663
0.1142049
0.1136227
0.11129772
0.10675431
0.099598988
0.089502912
0.076211554
0.059616864
0.039995709
0.016790467
0.11310518
0.11301314
0.1132115
0.11389648
0.11473915
0.11510641
0.11433184
0.11183731
0.10714718
0.099867584
0.089670079
0.076301389
0.059654729
0.040006501
0.016794956
0.11473524
0.11459509
0.11467311
0.11517711
0.11581154
0.11597316
0.11501083
0.11235116
0.1075188
0.10011946
0.08982499
0.076383128
0.059688099
0.040015557
0.016799325
0.11630467
0.11611835
0.11608113
0.11641104
0.11684377
0.11680518
0.11565979
0.11283941
0.10786926
0.10035469
0.089967672
0.076456774
0.059716969
0.040022873
0.016803569
0.11781396
0.11758334
0.11743579
0.11759834
0.11783589
0.11760259
0.11627887
0.11330221
0.1081987
0.10057335
0.090098176
0.07652235
0.059741344
0.04002845
0.016807682
0.11926373
0.1189906
0.11873745
0.1187392
0.11878806
0.11836559
0.11686829
0.11373978
0.1085073
0.10077558
0.09021658
0.076579897
0.059761243
0.040032292
0.016811661
0.12065473
0.12034082
0.11998661
0.11983393
0.11970051
0.11909441
0.11742832
0.11415238
0.10879527
0.10096153
0.090322989
0.076629474
0.059776695
0.040034411
0.0168155
0.12198783
0.1216348
0.12118386
0.12088295
0.12057356
0.11978938
0.11795928
0.11454031
0.10906286
0.1011314
0.090417534
0.076671161
0.059787743
0.040034825
0.016819198
0.12326397
0.12287341
0.12232991
0.12188674
0.1214076
0.12045085
0.11846153
0.11490391
0.10931037
0.10128541
0.090500373
0.076705058
0.059794442
0.040033556
0.016822749
0.12448417
0.12405761
0.12342553
0.12284589
0.1222031
0.12107926
0.11893548
0.11524355
0.10953812
0.10142381
0.090571689
0.076731284
0.059796859
0.040030631
0.016826151
0.12564952
0.12518844
0.12447159
0.12376106
0.12296058
0.12167506
0.11938158
0.11555965
0.10974647
0.1015469
0.09063169
0.076749977
0.059795073
0.040026085
0.016829401
0.12676118
0.12626698
0.125469
0.12463297
0.12368063
0.12223879
0.1198003
0.11585266
0.1099358
0.10165498
0.090680611
0.076761294
0.059789177
0.040019957
0.016832498
0.12782034
0.12729437
0.12641875
0.12546241
0.12436389
0.12277101
0.12019219
0.11612305
0.11010654
0.10174841
0.090718708
0.076765412
0.059779276
0.040012292
0.01683544
0.12882823
0.12827179
0.12732187
0.12625021
0.12501104
0.12327232
0.12055778
0.11637134
0.11025913
0.10182753
0.090746264
0.076762527
0.059765486
0.040003139
0.016838226
0.12978613
0.12920047
0.12817943
0.12699725
0.12562282
0.12374338
0.12089769
0.11659806
0.11039404
0.10189276
0.090763578
0.076752849
0.059747935
0.039992556
0.016840854
0.13069532
0.13008164
0.12899255
0.12770447
0.12620001
0.12418485
0.12121251
0.11680378
0.11051178
0.10194449
0.090770975
0.076736607
0.059726762
0.039980602
0.016843326
0.13155715
0.13091658
0.12976235
0.12837283
0.12674342
0.12459745
0.12150291
0.11698909
0.11061285
0.10198317
0.090768794
0.076714044
0.059702118
0.039967343
0.016845641
0.13237292
0.13170658
0.13049001
0.12900331
0.12725387
0.12498192
0.12176954
0.11715459
0.1106978
0.10200925
0.090757394
0.076685419
0.05967416
0.039952848
0.016847802
0.13314399
0.13245293
0.1311767
0.12959693
0.12773225
0.12533901
0.12201309
0.1173009
0.11076718
0.1020232
0.090737146
0.076651
0.059643055
0.03993719
0.016849808
0.1338717
0.13315694
0.13182361
0.13015472
0.12817943
0.1256695
0.12223427
0.11742867
0.11082155
0.10202549
0.090708432
0.076611065
0.059608977
0.039920445
0.016851662
0.13455739
0.1338199
0.13243194
0.13067773
0.12859631
0.12597418
0.12243378
0.11753853
0.11086149
0.10201662
0.090671645
0.0765659
0.059572104
0.039902691
0.016853368
0.13520238
0.13444312
0.13300288
0.13116701
0.12898379
0.12625384
0.12261235
0.11763114
0.11088758
0.10199708
0.090627182
0.076515798
0.059532619
0.039884009
0.016854926
0.135808
0.13502787
0.13353761
0.13162359
0.1293428
0.1265093
0.12277069
0.11770715
0.11090039
0.10196737
0.090575445
0.076461052
0.059490705
0.039864479
0.016856342
0.13637554
0.13557542
0.13403733
0.13204854
0.12967423
0.12674136
0.12290954
0.11776722
0.11090051
0.10192799
0.090516836
0.07640196
0.059446547
0.039844181
0.016857618
0.13690628
0.13608702
0.13450319
0.13244289
0.12997901
0.12695081
0.1230296
0.117812
0.11088852
0.10187943
0.090451757
0.076338815
0.05940033
0.039823195
0.016858758
0.13740148
0.1365639
0.13493635
0.13280767
0.13025803
0.12713846
0.1231316
0.11784212
0.11086499
0.10182219
0.090380603
0.07627191
0.059352234
0.039801598
0.016859766
0.13786239
0.13700727
0.13533793
0.1331439
0.13051219
0.12730509
0.12321624
0.11785824
0.11083048
0.10175674
0.090303769
0.076201532
0.059302438
0.039779468
0.016860647
0.13829021
0.13741832
0.13570905
0.13345257
0.13074237
0.12745149
0.12328423
0.11786096
0.11078556
0.10168357
0.09022164
0.076127966
0.059251117
0.039756877
0.016861404
0.13868614
0.13779822
0.13605081
0.13373469
0.13094945
0.12757843
0.12333625
0.11785093
0.11073077
0.10160315
0.090134593
0.076051487
0.05919844
0.039733896
0.016862043
0.13905135
0.13814811
0.13636429
0.13399123
0.13113429
0.12768668
0.12337298
0.11782873
0.11066665
0.10151594
0.090043001
0.075972365
0.059144572
0.039710594
0.016862568
0.139387
0.13846913
0.13665056
0.13422315
0.13129775
0.12777698
0.12339509
0.11779498
0.11059372
0.10142238
0.089947224
0.075890864
0.059089673
0.039687036
0.016862983
0.13969422
0.13876238
0.13691065
0.1344314
0.13144067
0.12785008
0.12340326
0.11775026
0.11051252
0.10132292
0.089847618
0.07580724
0.059033896
0.039663283
0.016863292
0.13997415
0.13902897
0.13714562
0.13461693
0.13156388
0.12790672
0.12339811
0.11769515
0.11042354
0.101218
0.089744528
0.075721744
0.058977392
0.039639395
0.016863501
0.1402279
0.13926998
0.13735647
0.13478066
0.13166821
0.12794763
0.12338032
0.11763022
0.11032728
0.10110803
0.089638294
0.075634617
0.058920303
0.039615429
0.016863614
0.14045655
0.13948648
0.13754422
0.13492352
0.13175448
0.12797353
0.12335051
0.11755605
0.11022425
0.10099344
0.089529247
0.075546096
0.05886277
0.039591438
0.016863636
0.14066119
0.13967952
0.13770987
0.13504642
0.1318235
0.12798513
0.12330931
0.11747319
0.11011492
0.10087463
0.08941771
0.075456413
0.058804928
0.039567475
0.01686357
0.14084289
0.13985015
0.1378544
0.13515024
0.13187607
0.12798315
0.12325736
0.11738218
0.10999978
0.10075201
0.089304002
0.075365793
0.058746908
0.039543589
0.016863422
0.14100269
0.1399994
0.13797878
0.13523589
0.13191298
0.12796828
0.12319526
0.11728357
0.10987929
0.10062596
0.089188432
0.075274453
0.058688836
0.039519829
0.016863196
0.14114163
0.14012826
0.13808396
0.13530424
0.13193502
0.12794121
0.12312363
0.1171779
0.10975392
0.10049688
0.089071302
0.075182607
0.058630835
0.03949624
0.016862897
0.14126071
0.14023773
0.13817088
0.13535614
0.13194294
0.12790263
0.12304306
0.11706568
0.10962412
0.10036514
0.088952906
0.07509046
0.058573022
0.039472866
0.01686253
0.14136091
0.14032876
0.13824046
0.13539243
0.13193752
0.12785319
0.12295415
0.11694744
0.10949033
0.10023111
0.08883353
0.074998209
0.05851551
0.039449749
0.016862098
0.14144319
0.1404023
0.13829358
0.13541394
0.13191948
0.12779357
0.12285746
0.11682367
0.10935297
0.10009514
0.088713447
0.074906046
0.058458406
0.039426928
0.016861606
0.14150848
0.14045924
0.13833111
0.13542147
0.13188955
0.12772438
0.12275356
0.11669487
0.10921248
0.099957573
0.088592924
0.074814152
0.058401813
0.039404441
0.016861059
0.14155765
0.14050047
0.13835388
0.13541578
0.13184842
0.12764626
0.12264298
0.11656149
0.10906924
0.099818744
0.08847221
0.074722699
0.058345826
0.039382323
0.016860461
0.14159156