/*--------------------------------*- C++ -*----------------------------------*\
| =========                 |                                                 |
| \\      /  F ield         | OpenFOAM: The Open Source CFD Toolbox           |
|  \\    /   O peration     | Version:  2506                                  |
|   \\  /    A nd           | Website:  www.openfoam.com                      |
|    \\/     M anipulation  |                                                 |
\*---------------------------------------------------------------------------*/
FoamFile
{
    version     2.0;
    format      ascii;
    arch        "LSB;label=32;scalar=64";
    class       volScalarField;
    location    "11000/water";
    object      epsilon;
}
// * * * * * * * * * * * * * * * * * * * * * * * * * * * * * * * * * * * * * //

dimensions      [0 2 -3 0 0 0 0];

internalField   nonuniform List<scalar> 
6000
(
0.00010005327
0.00010005311
0.00010005314
0.00010005327
0.00010005342
0.00010005363
0.0001000539
0.00010005427
0.00010005511
0.00010005982
0.00010010144
0.00010049509
0.00010424183
0.00014354191
0.00073980483
8.5785229e-05
8.5785556e-05
8.5786111e-05
8.5786982e-05
8.5788138e-05
8.5789633e-05
8.5791527e-05
8.5794043e-05
8.5798789e-05
8.581901e-05
8.5962524e-05
8.7071869e-05
9.5619929e-05
0.00016974081
0.0010520452
7.4267219e-05
7.4268013e-05
7.426896e-05
7.4270365e-05
7.4272213e-05
7.4274585e-05
7.4277581e-05
7.4281747e-05
7.4291154e-05
7.4336305e-05
7.4633748e-05
7.6634978e-05
9.0041817e-05
0.00019500629
0.0013270628
6.4852864e-05
6.485355e-05
6.4854661e-05
6.4856389e-05
6.4858676e-05
6.4861616e-05
6.4865387e-05
6.4871112e-05
6.4886838e-05
6.4967364e-05
6.5458677e-05
6.84101e-05
8.6285088e-05
0.00021715658
0.0015411415
5.7072087e-05
5.7072704e-05
5.7073918e-05
5.7075861e-05
5.7078448e-05
5.7081784e-05
5.7086167e-05
5.7093598e-05
5.7117581e-05
5.7242267e-05
5.7947685e-05
6.180797e-05
8.3505097e-05
0.0002348614
0.0016895689
5.0576692e-05
5.0577312e-05
5.0578592e-05
5.0580667e-05
5.0583434e-05
5.0587016e-05
5.0591882e-05
5.0601216e-05
5.0635234e-05
5.0810032e-05
5.1732149e-05
5.6406881e-05
8.1259069e-05
0.00024828861
0.0017792142
4.5104569e-05
4.5105188e-05
4.5106499e-05
4.5108638e-05
4.5111496e-05
4.5115213e-05
4.5120483e-05
4.5131961e-05
4.5177479e-05
4.5405527e-05
4.6535255e-05
5.1917397e-05
7.9376731e-05
0.00025838324
0.0018218943
4.0455895e-05
4.0456503e-05
4.045782e-05
4.0459977e-05
4.0462859e-05
4.0466628e-05
4.0472257e-05
4.0486117e-05
4.0544208e-05
4.0826355e-05
4.2148994e-05
4.8144563e-05
7.7837439e-05
0.00026629433
0.0018300463
3.6476506e-05
3.6477102e-05
3.6478406e-05
3.6480546e-05
3.6483399e-05
3.6487156e-05
3.6493116e-05
3.6509564e-05
3.6580944e-05
3.6916576e-05
3.8416896e-05
4.4958845e-05
7.6693461e-05
0.00027309124
0.0018145574
3.304611e-05
3.3046691e-05
3.304797e-05
3.3050065e-05
3.3052847e-05
3.3056537e-05
3.3062809e-05
3.3082024e-05
3.3167159e-05
3.3555102e-05
3.5220975e-05
4.2274823e-05
7.6025068e-05
0.00027965054
0.0017840405
3.0069857e-05
3.007042e-05
3.0071664e-05
3.0073692e-05
3.0076366e-05
3.0079941e-05
3.0086514e-05
3.0108667e-05
3.0207924e-05
3.0647227e-05
3.2471858e-05
4.0036357e-05
7.5917105e-05
0.00028663427
0.001744886
2.7472233e-05
2.7472777e-05
2.7473976e-05
2.7475917e-05
2.747845e-05
2.7481869e-05
2.7488744e-05
2.7514021e-05
2.7627825e-05
2.8118369e-05
3.010146e-05
3.820687e-05
7.6449192e-05
0.00029450875
0.0017016307
2.5192577e-05
2.5193098e-05
2.5194246e-05
2.5196082e-05
2.5198442e-05
2.520167e-05
2.520887e-05
2.5237507e-05
2.5366478e-05
2.5909414e-05
2.805763e-05
3.6763308e-05
7.7693097e-05
0.0003035735
0.00165739
2.3181748e-05
2.3182245e-05
2.3183333e-05
2.3185048e-05
2.3187207e-05
2.3190219e-05
2.3197794e-05
2.323011e-05
2.3375184e-05
2.3973213e-05
2.6300284e-05
3.5692527e-05
7.9712907e-05
0.00031398658
0.0016142425
2.1399629e-05
2.14001e-05
2.140112e-05
2.1402697e-05
2.140463e-05
2.1407412e-05
2.1415452e-05
2.1451882e-05
2.1614405e-05
2.2271964e-05
2.4798652e-05
3.4989203e-05
8.2565442e-05
0.00032578296
0.0015735325
1.9813231e-05
1.9813672e-05
1.9814616e-05
1.981604e-05
1.9817725e-05
1.9820279e-05
1.9828922e-05
1.9870043e-05
2.0051847e-05
2.0775227e-05
2.3529325e-05
3.4654636e-05
8.6299521e-05
0.00033888748
0.0015360911
1.8395236e-05
1.8395645e-05
1.8396506e-05
1.8397761e-05
1.8399183e-05
1.8401531e-05
1.8410972e-05
1.8457531e-05
1.8660989e-05
1.9458432e-05
2.2474895e-05
3.4695971e-05
9.095345e-05
0.00035312607
0.0015023901
1.7122886e-05
1.7123259e-05
1.7124028e-05
1.7125102e-05
1.712625e-05
1.7128438e-05
1.7138942e-05
1.7191872e-05
1.7419954e-05
1.8301752e-05
2.1622992e-05
3.5125546e-05
9.6550687e-05
0.00036823944
0.0014726449
1.5977101e-05
1.5977436e-05
1.5978105e-05
1.5978984e-05
1.5979859e-05
1.598196e-05
1.5993865e-05
1.6054312e-05
1.6310628e-05
1.7289248e-05
2.0965619e-05
3.5960111e-05
0.00010309413
0.00038390222
0.0014468811
1.4941799e-05
1.4942091e-05
1.4942652e-05
1.4943329e-05
1.494394e-05
1.4946058e-05
1.4959787e-05
1.5029124e-05
1.5317979e-05
1.6408225e-05
2.049868e-05
3.7219755e-05
0.00011055991
0.00039974861
0.00142498
1.4003348e-05
1.4003595e-05
1.4004041e-05
1.4004511e-05
1.400488e-05
1.4007153e-05
1.402322e-05
1.4103071e-05
1.442952e-05
1.5648751e-05
2.0221625e-05
3.8926414e-05
0.00011889194
0.00041540307
0.0014067117
1.3150142e-05
1.315034e-05
1.3150665e-05
1.3150927e-05
1.315109e-05
1.3153695e-05
1.3172714e-05
1.3264971e-05
1.3634892e-05
1.5003284e-05
2.0137155e-05
4.1101901e-05
0.00012799852
0.0004305123
0.0013917631
1.2372247e-05
1.2372393e-05
1.2372592e-05
1.237265e-05
1.2372659e-05
1.2375814e-05
1.2398506e-05
1.2505359e-05
1.2925534e-05
1.446641e-05
2.0250947e-05
4.3765469e-05
0.00013775238
0.00044477369
0.0013797649
1.1661123e-05
1.1661215e-05
1.1661286e-05
1.166115e-05
1.1661074e-05
1.1665043e-05
1.1692246e-05
1.1816209e-05
1.2294425e-05
1.4034634e-05
2.0571326e-05
4.6930996e-05
0.00014799478
0.00045795585
0.0013703185
1.1009401e-05
1.1009437e-05
1.1009378e-05
1.1009066e-05
1.1008994e-05
1.101409e-05
1.104677e-05
1.1190715e-05
1.1735881e-05
1.3706238e-05
2.1108871e-05
5.0604015e-05
0.00015854369
0.00046990849
0.0013630208
1.0410692e-05
1.041067e-05
1.0410485e-05
1.0410022e-05
1.0410062e-05
1.0416652e-05
1.0455917e-05
1.0623112e-05
1.1245399e-05
1.3481165e-05
2.1875889e-05
5.4778859e-05
0.00016920526
0.00048056142
0.001357486
9.8594384e-06
9.8593586e-06
9.8590515e-06
9.8584721e-06
9.8587577e-06
9.8672657e-06
9.9143754e-06
1.0108535e-05
1.0819533e-05
1.3360938e-05
2.2885735e-05
5.9436318e-05
0.00017978706
0.00048991474
0.001353362
9.3507874e-06
9.3506504e-06
9.3502304e-06
9.3495787e-06
9.3502669e-06
9.3611826e-06
9.4175684e-06
9.6428999e-06
1.045581e-05
1.3348574e-05
2.4151947e-05
6.4542152e-05
0.00019011096
0.00049802341
0.0013503406
8.8804873e-06
8.8802951e-06
8.8797751e-06
8.879106e-06
8.8803818e-06
8.8942644e-06
8.9615474e-06
9.2228179e-06
1.0152655e-05
1.3448503e-05
2.5687206e-05
7.0046824e-05
0.00020002406
0.00050498001
0.0013481619
8.4448007e-06
8.4445568e-06
8.4439543e-06
8.4433345e-06
8.4454129e-06
8.4628989e-06
8.5429123e-06
8.8455163e-06
9.9093487e-06
1.3666457e-05
2.7502143e-05
7.5886621e-05
0.00020940613
0.0005108985
0.0013466143
8.0404324e-06
8.0401416e-06
8.0394792e-06
8.0389884e-06
8.0421174e-06
8.0639293e-06
8.1587433e-06
8.508784e-06
9.7259953e-06
1.4009323e-05
2.9604058e-05
8.1986183e-05
0.00021817297
0.000515901
0.00134553
7.664468e-06
7.6641372e-06
7.663443e-06
7.6631755e-06
7.6676392e-06
7.6945949e-06
7.8065457e-06
8.2109262e-06
9.6034999e-06
1.4484935e-05
3.1995646e-05
8.8262229e-05
0.00022627582
0.0005201082
0.0013447795
7.3143234e-06
7.3139614e-06
7.3132697e-06
7.3133352e-06
7.319458e-06
7.3524816e-06
7.4842048e-06
7.950732e-06
9.5435554e-06
1.5101802e-05
3.4673865e-05
9.4628079e-05
0.00023369766
0.00052363336
0.0013442658
6.9877006e-06
6.9873184e-06
6.9866703e-06
6.9871959e-06
6.9953468e-06
7.0354818e-06
7.1899496e-06
7.7274515e-06
9.5486283e-06
1.5868742e-05
3.7629068e-05
0.00010099842
0.00024044745
0.00052657911
0.0013439174
6.6825513e-06
6.6821625e-06
6.6816065e-06
6.6827386e-06
6.6933357e-06
6.741759e-06
6.9223234e-06
7.5407805e-06
9.6219392e-06
1.6794438e-05
4.0844542e-05
0.00010729381
0.00024655353
0.00052903629
0.0013436835
6.3970453e-06
6.396666e-06
6.3962591e-06
6.3981651e-06
6.411682e-06
6.4697206e-06
6.6801611e-06
7.3908531e-06
9.7674313e-06
1.7886905e-05
4.4296529e-05
0.00011344429
0.00025205716
0.0005310841
0.0013435288
6.1295436e-06
6.129193e-06
6.129001e-06
6.1318719e-06
6.1488438e-06
6.2179935e-06
6.4625723e-06
7.2782395e-06
9.9897187e-06
1.9152894e-05
4.7954808e-05
0.00011939198
0.00025700691
0.00053279086
0.0013434301
5.8785752e-06
5.8782757e-06
5.8783746e-06
5.8824275e-06
5.903459e-06
5.9854055e-06
6.2689287e-06
7.2039478e-06
1.0294006e-05
2.0597266e-05
5.1783773e-05
0.00012509231
0.00026145422
0.00053421506
0.001343373
5.6428172e-06
5.642595e-06
5.6430719e-06
5.6485531e-06
5.6743264e-06
5.7709695e-06
6.0988564e-06
7.1694287e-06
1.0685974e-05
2.2222385e-05
5.5743958e-05
0.00013051409
0.00026545026
0.00053540647
0.0013433493
5.4210776e-06
5.4209629e-06
5.4219174e-06
5.4291059e-06
5.4603909e-06
5.5738715e-06
5.9522322e-06
7.1765787e-06
1.1171622e-05
2.4027579e-05
5.9793836e-05
0.00013563849
0.00026904378
0.00053640725
0.0013433553
5.2122808e-06
5.2123081e-06
5.2138535e-06
5.2230651e-06
5.26073e-06
5.3934608e-06
5.8291825e-06
7.2277422e-06
1.1757062e-05
2.6008735e-05
6.3891719e-05
0.00014045745
0.00027228005
0.00053725289
0.0013433902
5.0154542e-06
5.0156629e-06
5.0179281e-06
5.0295196e-06
5.0745437e-06
5.2292435e-06
5.7300867e-06
7.3257058e-06
1.2448271e-05
2.8158068e-05
6.7997575e-05
0.00014497164
0.00027520025
0.00053797313
0.0013434553
4.8297171e-06
4.8301524e-06
4.8332834e-06
4.847658e-06
4.9011459e-06
5.0808782e-06
5.6555823e-06
7.4736832e-06
1.3250796e-05
3.0464119e-05
7.2074575e-05
0.00014918835
0.00027784139
0.00053859275
0.0013435527
4.654271e-06
4.6549842e-06
4.6591465e-06
4.6767597e-06
4.739957e-06
4.9481738e-06
5.6065719e-06
7.675286e-06
1.4169424e-05
3.2911987e-05
7.6090277e-05
0.00015311953
0.00028023648
0.00053913229
0.0013436849
4.4883913e-06
4.4894404e-06
4.4948214e-06
4.5161875e-06
4.5904991e-06
4.8310889e-06
5.5842315e-06
7.9344755e-06
1.5207848e-05
3.5483783e-05
8.0017361e-05
0.00015678017
0.00028241474
0.00053960873
0.0013438547
4.3314193e-06
4.3328703e-06
4.3396818e-06
4.3653818e-06
4.452392e-06
4.7297343e-06
5.5900196e-06
8.2554923e-06
1.6368331e-05
3.8159287e-05
8.3833933e-05
0.00016018692
0.00028440197
0.00054003599
0.0013440645
4.1827562e-06
4.1846838e-06
4.1931653e-06
4.2238553e-06
4.3253508e-06
4.6443763e-06
5.6256833e-06
8.6427599e-06
1.7651409e-05
4.0916739e-05
8.7523434e-05
0.00016335711
0.00028622083
0.00054042551
0.0013443165
4.0418571e-06
4.0443457e-06
4.0547683e-06
4.0911891e-06
4.2091847e-06
4.5754417e-06
5.6932629e-06
9.1007599e-06
1.9055658e-05
4.3733691e-05
9.1074256e-05
0.00016630805
0.00028789123
0.00054078658
0.0013446125
3.9082261e-06
3.9113713e-06
3.9240414e-06
3.96703e-06
4.103797e-06
4.5235248e-06
5.7950909e-06
9.6338802e-06
2.0577552e-05
4.658786e-05
9.447915e-05
0.00016905655
0.0002894306
0.00054112679
0.0013449537
3.781412e-06
3.7853219e-06
3.8005859e-06
3.8510876e-06
4.0091864e-06
4.4893953e-06
5.9337826e-06
1.0246237e-05
2.2211424e-05
4.9457896e-05
9.7734539e-05
0.00017161867
0.00029085417
0.00054145227
0.001345341
3.6610043e-06
3.6658014e-06
3.6840513e-06
3.7431338e-06
3.9254494e-06
4.4740067e-06
6.1122181e-06
1.0941479e-05
2.3949551e-05
5.2324021e-05
0.00010083981
0.0001740095
0.00029217525
0.00054176798
0.0013457749
3.5466302e-06
3.5524531e-06
3.5741321e-06
3.6430016e-06
3.8527838e-06
4.4785051e-06
6.3335102e-06
1.1722579e-05
2.5782348e-05
5.5168499e-05
0.00010379664
0.00017624312
0.00029340545
0.00054207792
0.0013462556
3.4379516e-06
3.4449572e-06
3.470567e-06
3.5505856e-06
3.7914931e-06
4.5042378e-06
6.600958e-06
1.2591637e-05
2.7698674e-05
5.7975926e-05
0.00010660842
0.00017833256
0.00029455494
0.00054238527
0.0013467828
3.3346627e-06
3.3430286e-06
3.373137e-06
3.4658429e-06
3.7419925e-06
4.5527598e-06
6.9179827e-06
1.3549688e-05
2.9686211e-05
6.0733357e-05
0.00010927977
0.00018028983
0.00029563258
0.00054269259
0.001347356
3.2364878e-06
3.2464154e-06
3.281665e-06
3.3887949e-06
3.7048152e-06
4.6258384e-06
7.2880454e-06
1.4596555e-05
3.1731891e-05
6.3430278e-05
0.00011181612
0.00018212593
0.00029664614
0.00054300189
0.0013479746
3.1431799e-06
3.1548974e-06
3.1960156e-06
3.3195298e-06
3.6806199e-06
4.7254524e-06
7.7145467e-06
1.5730746e-05
3.382234e-05
6.6058467e-05
0.0001142234
0.00018385092
0.00029760241
0.00054331477
0.0013486378
3.0545192e-06
3.0682854e-06
3.1160958e-06
3.2582055e-06
3.6701986e-06
4.8537869e-06
8.2007092e-06
1.6949409e-05
3.5944302e-05
6.8611787e-05
0.00011650785
0.00018547397
0.00029850735
0.00054363246
0.0013493444
2.9703119e-06
2.9864203e-06
3.0418551e-06
3.2050543e-06
3.6744852e-06
5.0132197e-06
8.7494482e-06
1.8248349e-05
3.8085015e-05
7.1085926e-05
0.00011867579
0.00018700343
0.00029936619
0.00054395589
0.0013500934
2.8903898e-06
2.9091733e-06
2.9732878e-06
3.1603869e-06
3.6945633e-06
5.2062983e-06
9.3632348e-06
1.9622123e-05
4.0232513e-05
7.3478132e-05
0.00012073351
0.00018844688
0.00030018354
0.00054428579
0.0013508836
2.8146096e-06
2.836446e-06
2.9104344e-06
3.1245986e-06
3.731674e-06
5.4357063e-06
1.004396e-05
2.1064181e-05
4.2375859e-05
7.5786949e-05
0.00012268719
0.00018981121
0.00030096345
0.00054462266
0.0013517137
2.7428528e-06
2.7681709e-06
2.8533843e-06
3.098175e-06
3.7872216e-06
5.7042164e-06
1.0792809e-05
2.256707e-05
4.4505285e-05
7.801198e-05
0.00012454279
0.00019110267
0.0003017095
0.00054496684
0.0013525823
2.6750262e-06
2.7043127e-06
2.8022791e-06
3.0816992e-06
3.862777e-06
6.0146316e-06
1.1610155e-05
2.4122664e-05
4.6612263e-05
8.0153674e-05
0.00012630606
0.00019232691
0.00030242478
0.00054531836
0.0013534882
2.6110622e-06
2.6448693e-06
2.7573159e-06
3.0758593e-06
3.9600781e-06
6.3697123e-06
1.2495478e-05
2.5722423e-05
4.8689514e-05
8.2213152e-05
0.00012798249
0.00019348922
0.00030311295
0.00054567958
0.0013544295
2.5509198e-06
2.5898742e-06
2.718752e-06
3.0814557e-06
4.0810246e-06
6.7720926e-06
1.3447327e-05
2.7357636e-05
5.0730962e-05
8.4192052e-05
0.00012957729
0.00019459431
0.00030377609
0.00054604532
0.0013554045
2.494586e-06
2.5393984e-06
2.6869098e-06
3.0994094e-06
4.2276673e-06
7.2241862e-06
1.4463314e-05
2.9019661e-05
5.2731649e-05
8.6092389e-05
0.00013109537
0.00019564635
0.00030441574
0.00054641398
0.001356411
2.4420772e-06
2.4935535e-06
2.6621824e-06
3.1307692e-06
4.4021887e-06
7.7280874e-06
1.5540153e-05
3.0700124e-05
5.468763e-05
8.7916448e-05
0.0001325413
0.00019664904
0.00030503329
0.00054678555
0.001357447
2.3934419e-06
2.4524951e-06
2.6450395e-06
3.1767178e-06
4.6068759e-06
8.2854726e-06
1.6673738e-05
3.2391088e-05
5.6595867e-05
8.9666718e-05
0.00013391946
0.00019760628
0.00030563174
0.00054715702
0.0013585105
2.3487625e-06
2.4164266e-06
2.6360347e-06
3.2385775e-06
4.8440834e-06
8.8975078e-06
1.7859256e-05
3.408518e-05
5.8454117e-05
9.1345824e-05
0.00013523396
0.00019852138
0.00030621175
0.00054752793
0.0013595997
2.3081594e-06
2.3856042e-06
2.6358124e-06
3.3178121e-06
5.116185e-06
9.564768e-06
1.9091326e-05
3.5775671e-05
6.0260821e-05
9.2956451e-05
0.00013648859
0.0001993969
0.00030677292
0.00054790011
0.0013607134
2.2717941e-06
2.3603414e-06
2.6451157e-06
3.4160263e-06
5.4255161e-06
1.0287176e-05
2.0364154e-05
3.7456524e-05
6.2015e-05
9.4501291e-05
0.00013768677
0.00020023506
0.00030731595
0.0005482748
0.0013618503
2.2398737e-06
2.3410154e-06
2.6647937e-06
3.5349597e-06
5.7743067e-06
1.1063963e-05
2.167169e-05
3.9122401e-05
6.3716163e-05
9.5983028e-05
0.0001388318
0.00020103834
0.00030784122
0.00054865322
0.0013630097
2.2126561e-06
2.3280735e-06
2.6958092e-06
3.6764764e-06
6.1646076e-06
1.189366e-05
2.3007781e-05
4.0768661e-05
6.5364246e-05
9.7404399e-05
0.00013992712
0.00020180982
0.00030834747
0.00054903724
0.0013641909
2.1904555e-06
2.32204e-06
2.7392452e-06
3.842546e-06
6.5982122e-06
1.2774115e-05
2.4366319e-05
4.2391322e-05
6.6959522e-05
9.8768019e-05
0.00014097539
0.00020254993
0.00030883711
0.00054942734
0.0013653934
2.1736491e-06
2.3235241e-06
2.7963109e-06
4.0352181e-06
7.0765792e-06
1.3702539e-05
2.5741356e-05
4.398702e-05
6.8502524e-05
0.00010007635
0.0001419789
0.00020325984
0.00030931202
0.0005498234
0.0013666164
2.1626844e-06
2.3332282e-06
2.8683444e-06
4.2565875e-06
7.6007589e-06
1.4675575e-05
2.7127207e-05
4.5552949e-05
6.9993982e-05
0.00010133172
0.00014293979
0.00020394109
0.0003097737
0.00055022517
0.001367859
2.158087e-06
2.3519559e-06
2.9568139e-06
4.5087504e-06
8.1713299e-06
1.5689386e-05
2.8518525e-05
4.7086834e-05
7.1434897e-05
0.00010253684
0.00014386157
0.00020459275
0.00031022401
0.0005506328
0.0013691204
2.1604699e-06
2.3806209e-06
3.0633135e-06
4.7937523e-06
8.7883493e-06
1.6739762e-05
2.9910353e-05
4.8586858e-05
7.2826357e-05
0.00010369383
0.00014474502
0.00020521727
0.00031066403
0.00055104638
0.0013703998
2.1705425e-06
2.4202549e-06
3.1895554e-06
5.1135288e-06
9.4513213e-06
1.7822224e-05
3.1298154e-05
5.00516e-05
7.416948e-05
0.00010480453
0.00014559148
0.00020581672
0.00031109449
0.00055146583
0.0013716964
2.1891212e-06
2.4720151e-06
3.3373545e-06
5.4698402e-06
1.0159186e-05
1.8932133e-05
3.2677818e-05
5.1479973e-05
7.5465397e-05
0.0001058707
0.00014640251
0.00020639288
0.00031151599
0.0005518909
0.0013730095
2.2171394e-06
2.5371894e-06
3.5086064e-06
5.8642046e-06
1.091033e-05
2.0064793e-05
3.4045679e-05
5.2871279e-05
7.6715685e-05
0.00010689531
0.0001471778
0.00020694762
0.00031192923
0.00055232138
0.0013743381
2.2556581e-06
2.6172001e-06
3.7052576e-06
6.2978309e-06
1.1702616e-05
2.1215542e-05
3.5398491e-05
5.4225043e-05
7.7921523e-05
0.00010787902
0.00014791972
0.00020748225
0.00031233485
0.00055275703
0.0013756814
2.3058756e-06
2.7136032e-06
3.9292659e-06
6.7715576e-06
1.2533434e-05
2.2379828e-05
3.6733395e-05
5.5540957e-05
7.9083961e-05
0.00010882301
0.00014863031
0.00020799791
0.00031273333
0.0005531976
0.0013770387
2.3691364e-06
2.8280836e-06
4.1825543e-06
7.2858007e-06
1.3399764e-05
2.3553272e-05
3.8047917e-05
5.6818971e-05
8.0204411e-05
0.00010972814
0.00014931142
0.00020849561
0.00031312503
0.00055364281
0.0013784091
2.4469373e-06
2.9624437e-06
4.4669555e-06
7.840513e-06
1.4298251e-05
2.4731722e-05
3.9339956e-05
5.8059301e-05
8.1284454e-05
0.00011059497
0.00014996474
0.00020897636
0.0003135103
0.00055409235
0.0013797918
2.5409305e-06
3.1185852e-06
4.7841519e-06
8.4351605e-06
1.5225285e-05
2.5911275e-05
4.0607688e-05
5.926202e-05
8.2324492e-05
0.00011142552
0.00015059167
0.00020944105
0.00031388942
0.00055454591
0.0013811859
2.6529219e-06
3.298482e-06
5.1356116e-06
9.0687147e-06
1.6177077e-05
2.7088293e-05
4.1849525e-05
6.0427216e-05
8.3325313e-05
0.00011222155
0.00015119344
0.00020989046
0.00031426262
0.00055500317
0.0013825907
2.7848625e-06
3.504144e-06
5.5225249e-06
9.7396639e-06
1.7149747e-05
2.8259463e-05
4.3064377e-05
6.1556064e-05
8.4286604e-05
0.00011298473
0.00015177128
0.00021032528
0.00031463009
0.0005554638
0.0013840054
2.9388311e-06
3.7375712e-06
5.9457439e-06
1.0446041e-05
1.8139383e-05
2.9421735e-05
4.4251126e-05
6.2648238e-05
8.5209847e-05
0.00011371646
0.00015232628
0.00021074614
0.00031499199
0.00055592745
0.0013854292
3.1170069e-06
4.0006985e-06
6.4057301e-06
1.1185461e-05
1.9142099e-05
3.0572295e-05
4.5408721e-05
6.3703722e-05
8.6096481e-05
0.00011441804
0.00015285945
0.00021115361
0.00031534843
0.00055639379
0.0013868613
3.3216295e-06
4.2953335e-06
6.9025136e-06
1.1955186e-05
2.0154122e-05
3.1708777e-05
4.6537129e-05
6.4721757e-05
8.6947832e-05
0.00011509069
0.00015337168
0.00021154817
0.0003156995
0.00055686247
0.0013883009
3.5549458e-06
4.6230878e-06
7.4356656e-06
1.2752174e-05
2.1171787e-05
3.2828884e-05
4.7635203e-05
6.5703015e-05
8.7765085e-05
0.00011573555
0.00015386379
0.00021193028
0.00031604525
0.00055733314
0.0013897473
3.8191439e-06
4.9853072e-06
8.0042873e-06
1.357315e-05
2.2191572e-05
3.3930551e-05
4.8701864e-05
6.6648329e-05
8.8549333e-05
0.00011635365
0.00015433656
0.00021230033
0.00031638571
0.00055780544
0.0013911997
4.1162747e-06
5.3830038e-06
8.6070193e-06
1.4414692e-05
2.3210257e-05
3.5012495e-05
4.9735685e-05
6.7558464e-05
8.9301628e-05
0.00011694596
0.00015479064
0.00021265864
0.00031672088
0.000558279
0.0013926572
4.448164e-06
5.8167933e-06
9.2420591e-06
1.527325e-05
2.4224617e-05
3.607241e-05
5.0736632e-05
6.8434125e-05
9.002295e-05
0.00011751337
0.00015522666
0.00021300553
0.00031705074
0.00055875346
0.0013941193
4.8163213e-06
6.2868467e-06
9.9072152e-06
1.6145326e-05
2.5232155e-05
3.7107807e-05
5.1704679e-05
6.9276002e-05
9.071421e-05
0.00011805667
0.00015564517
0.00021334125
0.00031737525
0.00055922845
0.0013955849
5.2218489e-06
6.7928509e-06
1.0599936e-05
1.7027337e-05
2.6229794e-05
3.8117151e-05
5.2639823e-05
7.008476e-05
9.1376253e-05
0.00011857661
0.00015604668
0.000213666
0.00031769433
0.00055970359
0.0013970536
5.6653624e-06
7.3340024e-06
1.1317445e-05
1.7916163e-05
2.7214021e-05
3.9099331e-05
5.35421e-05
7.0861031e-05
9.2009863e-05
0.00011907386
0.00015643161
0.00021397998
0.00031800791
0.0005601785
0.0013985243
6.1469269e-06
7.9090066e-06
1.2056752e-05
1.8808049e-05
2.8182133e-05
4.0053352e-05
5.4411583e-05
7.1605413e-05
9.2615758e-05
0.00011954902
0.00015680036
0.00021428332
0.00031831586
0.00056065279
0.0013999965
6.6660273e-06
8.5161462e-06
1.2814872e-05
1.9698971e-05
2.9131839e-05
4.0978341e-05
5.5248367e-05
7.2318466e-05
9.3194596e-05
0.00012000265
0.00015715327
0.00021457612
0.00031861807
0.00056112606
0.0014014692
7.2216333e-06
9.1533916e-06
1.3587934e-05
2.0585548e-05
3.0061055e-05
4.1873533e-05
5.6052564e-05
7.3000711e-05
9.3746977e-05
0.00012043523
0.00015749064
0.00021485846
0.00031891439
0.0005615979
0.0014029418
7.8120127e-06
9.8178771e-06
1.437227e-05
2.14646e-05
3.096789e-05
4.2738261e-05
5.6824295e-05
7.3652629e-05
9.4273441e-05
0.0001208472
0.0001578127
0.00021513038
0.00031920463
0.00056206789
0.0014044133
8.4347108e-06
1.0506398e-05
1.516423e-05
2.233316e-05
3.1850645e-05
4.3571949e-05
5.7563687e-05
7.4274661e-05
9.4774474e-05
0.00012123892
0.00015811966
0.00021539189
0.00031948863
0.00056253561
0.001405883
9.0867073e-06
1.1215455e-05
1.5960231e-05
2.3188487e-05
3.2707802e-05
4.4374103e-05
5.8270873e-05
7.4867209e-05
9.5250507e-05
0.00012161073
0.00015841169
0.00021564296
0.00031976615
0.00056300062
0.0014073501
9.7645062e-06
1.1941338e-05
1.6756801e-05
2.4028075e-05
3.3538022e-05
4.5144307e-05
5.8945986e-05
7.5430639e-05
9.5701921e-05
0.0001219629
0.00015868889
0.00021588354
0.00032003698
0.00056346246
0.0014088136
1.0464241e-05
1.2680207e-05
1.7550617e-05
2.4849649e-05
3.4340138e-05
4.5882222e-05
5.9589165e-05
7.5965279e-05
9.6129047e-05
0.00012229567
0.00015895136
0.00021611355
0.00032030086
0.00056392066
0.0014102728
1.1181787e-05
1.3428172e-05
1.8338539e-05
2.5651177e-05
3.5113152e-05
4.6587583e-05
6.0200554e-05
7.6471428e-05
9.6532172e-05
0.00012260921
0.00015919912
0.00021633288
0.00032055751
0.00056437474
0.0014117266
1.1912874e-05
1.4181366e-05
1.9117628e-05
2.6430858e-05
3.5856231e-05
4.72602e-05
6.0780306e-05
7.6949357e-05
9.6911544e-05
0.00012290367
0.0001594322
0.00021654138
0.00032080664
0.00056482419
0.0014131741
1.2653195e-05
1.4936017e-05
1.9885166e-05
2.7187125e-05
3.6568701e-05
4.789996e-05
6.1328587e-05
7.7399316e-05
9.7267373e-05
0.00012317915
0.00015965055
0.00021673888
0.00032104793
0.00056526848
0.0014146143
1.3398502e-05
1.5688503e-05
2.0638669e-05
2.7918635e-05
3.7250046e-05
4.8506828e-05
6.1845581e-05
7.7821539e-05
9.7599838e-05
0.00012343574
0.00015985413
0.00021692519
0.00032128104
0.00056570707
0.0014160462
1.4144692e-05
1.6435402e-05
2.1375894e-05
2.8624263e-05
3.7899897e-05
4.9080844e-05
6.2331497e-05
7.8216248e-05
9.7909094e-05
0.00012367346
0.00016004284
0.0002171001
0.00032150561
0.0005661394
0.0014174686
1.4887876e-05
1.7173528e-05
2.2094842e-05
2.9303089e-05
3.8518033e-05
4.9622133e-05
6.2786572e-05
7.8583664e-05
9.8195275e-05
0.00012389234
0.00016021659
0.00021726337
0.00032172127
0.00056656488
0.0014188805
1.5624431e-05
1.7899964e-05
2.2793755e-05
2.995439e-05
3.9104369e-05
5.0130895e-05
6.3211077e-05
7.8924013e-05
9.8458504e-05
0.00012409238
0.00016037524
0.00021741474
0.00032192763
0.00056698292
0.0014202806
1.6351041e-05
1.8612075e-05
2.3471116e-05
3.0577627e-05
3.9658952e-05
5.0607415e-05
6.3605323e-05
7.9237529e-05
9.8698899e-05
0.00012427357
0.00016051864
0.00021755394
0.00032212427
0.00056739289
0.0014216677
1.7064717e-05
1.930752e-05
2.4125638e-05
3.1172434e-05
4.0181947e-05
5.1052053e-05
6.3969663e-05
7.9524463e-05
9.8916577e-05
0.00012443587
0.00016064665
0.0002176807
0.00032231079
0.00056779418
0.0014230405
1.7762815e-05
1.9984257e-05
2.4756259e-05
3.1738601e-05
4.0673635e-05
5.1465248e-05
6.4304497e-05
7.9785092e-05
9.9111663e-05
0.00012457928
0.00016075911
0.00021779473
0.00032248677
0.00056818615
0.0014243977
1.8443031e-05
2.0640534e-05
2.5362126e-05
3.2276065e-05
4.1134399e-05
5.184751e-05
6.4610272e-05
8.0019718e-05
9.9284298e-05
0.00012470378
0.00016085586
0.00021789575
0.00032265179
0.00056856814
0.0014257378
1.9103402e-05
2.1274882e-05
2.5942587e-05
3.2784893e-05
4.1564714e-05
5.219942e-05
6.4887487e-05
8.0228679e-05
9.9434641e-05
0.00012480935
0.00016093675
0.00021798347
0.00032280543
0.00056893954
0.0014270595
1.9742284e-05
2.1886104e-05
2.6497175e-05
3.3265274e-05
4.196514e-05
5.2521621e-05
6.5136688e-05
8.0412346e-05
9.9562877e-05
0.00012489602
0.00016100165
0.00021805763
0.00032294729
0.00056929969
0.0014283613
2.0358343e-05
2.2473254e-05
2.7025595e-05
3.3717501e-05
4.2336307e-05
5.2814815e-05
6.5358472e-05
8.0571133e-05
9.9669223e-05
0.00012496382
0.00016105044
0.00021811798
0.00032307696
0.00056964797
0.0014296416
2.0950526e-05
2.303562e-05
2.7527707e-05
3.4141961e-05
4.267891e-05
5.3079756e-05
6.5553481e-05
8.0705493e-05
9.9753929e-05
0.00012501282
0.00016108302
0.00021816428
0.00032319409
0.00056998377
0.0014308991
2.1518043e-05
2.3572707e-05
2.8003513e-05
3.4539127e-05
4.2993699e-05
5.3317244e-05
6.5722401e-05
8.081592e-05
9.9817283e-05
0.00012504312
0.00016109933
0.00021819634
0.00032329832
0.00057030651
0.0014321322
2.206034e-05
2.4084212e-05
2.8453144e-05
3.490954e-05
4.3281466e-05
5.3528118e-05
6.586596e-05
8.0902952e-05
9.9859615e-05
0.00012505485
0.00016109936
0.00021821398
0.00032338935
0.00057061563
0.0014333394
2.2577076e-05
2.457001e-05
2.8876842e-05
3.5253806e-05
4.3543042e-05
5.371325e-05
6.5984923e-05
8.0967165e-05
9.9881295e-05
0.00012504818
0.0001610831
0.00021821708
0.00032346689
0.0005709106
0.0014345193
2.3068098e-05
2.5030127e-05
2.927495e-05
3.557258e-05
4.3779285e-05
5.3873536e-05
6.6080085e-05
8.1009177e-05
9.9882735e-05
0.00012502336
0.00016105062
0.00021820555
0.00032353072
0.00057119094
0.0014356703
2.3533421e-05
2.5464726e-05
2.9647895e-05
3.5866563e-05
4.3991076e-05
5.4009896e-05
6.6152271e-05
8.1029641e-05
9.9864393e-05
0.00012498063
0.00016100202
0.00021817934
0.00032358065
0.00057145621
0.0014367912
2.3973201e-05
2.5874089e-05
2.999618e-05
3.6136489e-05
4.417931e-05
5.412326e-05
6.6202331e-05
8.1029243e-05
9.9826765e-05
0.00012492032
0.00016093745
0.00021813848
0.00032361655
0.00057170604
0.0014378804
2.4387721e-05
2.6258599e-05
3.0320372e-05
3.6383122e-05
4.4344894e-05
5.4214571e-05
6.6231131e-05
8.1008704e-05
9.9770391e-05
0.00012484278
0.00016085712
0.00021808304
0.00032363835
0.0005719401
0.0014389368
2.4777369e-05
2.6618724e-05
3.0621087e-05
3.6607245e-05
4.4488736e-05
5.4284774e-05
6.6239553e-05
8.0968768e-05
9.9695847e-05
0.00012474843
0.00016076128
0.00021801313
0.00032364604
0.00057215812
0.0014399591
2.5142621e-05
2.6955005e-05
3.0898987e-05
3.6809658e-05
4.4611746e-05
5.4334813e-05
6.6228489e-05
8.0910205e-05
9.9603748e-05
0.00012463772
0.00016065024
0.00021792893
0.00032363967
0.00057235993
0.0014409461
2.5484029e-05
2.7268043e-05
3.1154766e-05
3.699117e-05
4.4714829e-05
5.4365631e-05
6.6198837e-05
8.0833806e-05
9.9494741e-05
0.00012451115
0.00016052437
0.00021783071
0.00032361935
0.0005725454
0.0014418968
2.5802203e-05
2.7558486e-05
3.1389147e-05
3.7152595e-05
4.4798883e-05
5.437816e-05
6.6151498e-05
8.0740376e-05
9.9369503e-05
0.00012436925
0.00016038408
0.00021771874
0.00032358526
0.00057271448
0.0014428103
2.6097802e-05
2.782702e-05
3.1602871e-05
3.729475e-05
4.4864796e-05
5.4373324e-05
6.608737e-05
8.0630736e-05
9.922874e-05
0.00012421262
0.00016022984
0.0002175934
0.00032353765
0.0005728672
0.0014436857
2.6371523e-05
2.807436e-05
3.1796693e-05
3.7418445e-05
4.4913441e-05
5.435203e-05
6.6007347e-05
8.0505713e-05
9.907318e-05
0.00012404186
0.00016006215
0.00021745509
0.00032347682
0.00057300367
0.0014445224
2.662409e-05
2.8301242e-05
3.1971375e-05
3.752449e-05
4.4945679e-05
5.4315174e-05
6.5912317e-05
8.0366141e-05
9.8903572e-05
0.00012385763
0.00015988157
0.00021730429
0.00032340314
0.00057312406
0.0014453198
2.6856249e-05
2.8508417e-05
3.2127683e-05
3.761368e-05
4.496235e-05
5.4263631e-05
6.5803154e-05
8.0212856e-05
9.872068e-05
0.00012366061
0.0001596887
0.0002171415
0.00032331705
0.00057322862
0.0014460774
2.7068757e-05
2.8696643e-05
3.2266382e-05
3.7686804e-05
4.4964279e-05
5.4198258e-05
6.5680724e-05
8.0046693e-05
9.8525281e-05
0.00012345149
0.00015948415
0.00021696729
0.00032321901
0.00057331766
0.0014467949
2.7262378e-05
2.8866681e-05
3.2388234e-05
3.7744635e-05
4.495227e-05
5.4119891e-05
6.5545874e-05
7.9868482e-05
9.831816e-05
0.00012323101
0.00015926861
0.00021678225
0.00032310956
0.00057339155
0.0014474723
2.7437878e-05
2.9019291e-05
3.249399e-05
3.7787932e-05
4.4927108e-05
5.4029346e-05
6.5399436e-05
7.9679047e-05
9.8100107e-05
0.00012299991
0.00015904275
0.00021658703
0.00032298926
0.00057345073
0.0014481095
2.7596021e-05
2.9155228e-05
3.2584395e-05
3.7817437e-05
4.4889553e-05
5.3927415e-05
6.5242226e-05
7.9479201e-05
9.7871915e-05
0.00012275894
0.00015880729
0.0002163823
0.00032285872
0.00057349568
0.0014487066
2.7737563e-05
2.9275238e-05
3.2660177e-05
3.7833878e-05
4.4840348e-05
5.3814867e-05
6.5075036e-05
7.9269746e-05
9.7634372e-05
0.00012250887
0.00015856295
0.00021616873
0.00032271857
0.00057352692
0.0014492639
2.7863252e-05
2.9380055e-05
3.2722055e-05