/*--------------------------------*- C++ -*----------------------------------*\
| =========                 |                                                 |
| \\      /  F ield         | OpenFOAM: The Open Source CFD Toolbox           |
|  \\    /   O peration     | Version:  2506                                  |
|   \\  /    A nd           | Website:  www.openfoam.com                      |
|    \\/     M anipulation  |                                                 |
\*---------------------------------------------------------------------------*/
FoamFile
{
    version     2.0;
    format      ascii;
    arch        "LSB;label=32;scalar=64";
    class       volScalarField;
    location    "11000/water";
    object      k;
}
// * * * * * * * * * * * * * * * * * * * * * * * * * * * * * * * * * * * * * //

dimensions      [0 2 -2 0 0 0 0];

internalField   nonuniform List<scalar> 
6000
(
0.0002144485
0.00021444827
0.00021444833
0.00021444852
0.00021444878
0.00021444911
0.00021444953
0.00021445001
0.00021445038
0.00021444961
0.00021444477
0.00021444847
0.00021482328
0.00022098609
0.00033298785
0.00019735372
0.00019735408
0.00019735481
0.00019735601
0.00019735759
0.00019735962
0.00019736212
0.0001973649
0.00019736678
0.00019736231
0.00019733424
0.0001972933
0.00019808165
0.00021190706
0.00042108833
0.00018260526
0.00018260625
0.00018260756
0.00018260957
0.0001826122
0.00018261554
0.00018261945
0.00018262311
0.00018262253
0.00018260174
0.00018251429
0.00018235696
0.00018354965
0.00020571076
0.0004915993
0.00016977104
0.00016977195
0.00016977358
0.00016977617
0.00016977959
0.00016978384
0.00016978847
0.00016979119
0.00016978242
0.00016972799
0.0001695392
0.00016920344
0.00017083025
0.00020141509
0.00054314021
0.00015851703
0.00015851791
0.00015851979
0.00015852287
0.0001585269
0.00015853173
0.00015853623
0.00015853548
0.0001585108
0.00015840225
0.00015807228
0.00015752308
0.00015966967
0.00019844232
0.00057747636
0.00014858047
0.00014858142
0.00014858351
0.00014858695
0.00014859139
0.00014859636
0.00014859955
0.0001485919
0.00014854197
0.00014835849
0.00014785779
0.00014709963
0.00014993181
0.00019659445
0.00059772639
0.00013975169
0.00013975271
0.00013975496
0.00013975864
0.00013976325
0.00013976781
0.00013976817
0.00013974945
0.00013966425
0.0001393877
0.00013870223
0.00013778194
0.00014154644
0.00019585229
0.00060724748
0.00013186192
0.00013186298
0.00013186534
0.00013186914
0.00013187366
0.00013187713
0.00013187282
0.00013183836
0.00013170812
0.00013132527
0.00013045854
0.00012946164
0.00013447268
0.00019626303
0.00060905754
0.00012477404
0.00012477514
0.00012477755
0.00012478136
0.00012478548
0.00012478703
0.00012477592
0.00012472085
0.00012453699
0.00012404097
0.00012301362
0.00012205827
0.00012868159
0.00019789321
0.0006056161
0.00011837572
0.00011837682
0.00011837924
0.0001183829
0.00011838626
0.00011838492
0.00011836468
0.00011828424
0.00011804014
0.00011743108
0.00011627928
0.00011550993
0.00012414935
0.00020080676
0.00059880682
0.0001125741
0.0001125752
0.00011257756
0.00011258091
0.00011258305
0.00011257774
0.00011254594
0.00011243584
0.00011212738
0.0001114124
0.00011018555
0.00010976786
0.00012085593
0.00020505367
0.00059001308
0.00010729189
0.00010729297
0.0001072952
0.00010729803
0.00010729845
0.00010728799
0.00010724223
0.00010709893
0.00010672477
0.00010591759
0.00010467621
0.00010479348
0.00011878602
0.00021066301
0.00058022149
0.0001024643
0.00010246533
0.00010246733
0.00010246942
0.00010246756
0.00010245071
0.00010238875
0.00010220964
0.0001017714
0.00010089174
9.9705638e-05
0.000100557
0.00011793046
0.00021763683
0.00057012062
9.8036637e-05
9.8037572e-05
9.8039255e-05
9.8040328e-05
9.8035582e-05
9.8011091e-05
9.7930966e-05
9.7714594e-05
9.7216801e-05
9.6289669e-05
9.5236719e-05
9.703687e-05
0.00011828673
0.00022594366
0.0005601824
9.3962451e-05
9.3963259e-05
9.3964497e-05
9.3964262e-05
9.3955981e-05
9.3922652e-05
9.3822751e-05
9.3568903e-05
9.3018884e-05
9.2074025e-05
9.1239503e-05
9.4219615e-05
0.00011985802
0.00023551194
0.0005507241
9.0202076e-05
9.020271e-05
9.0203366e-05
9.0201504e-05
9.0189027e-05
9.0145749e-05
9.0024925e-05
8.9734681e-05
8.9142411e-05
8.8213812e-05
8.7690325e-05
9.2099801e-05
0.00012265037
0.00024622465
0.00054195294
8.6721448e-05
8.6721856e-05
8.6721776e-05
8.6717945e-05
8.6700619e-05
8.664642e-05
8.6504047e-05
8.61798e-05
8.5557736e-05
8.4683334e-05
8.4571272e-05
9.0679902e-05
0.00012666793
0.00025791693
0.00053399692
8.3491166e-05
8.3491287e-05
8.3490304e-05
8.3484151e-05
8.3461349e-05
8.3395437e-05
8.3231463e-05
8.2876915e-05
8.2239851e-05
8.1461425e-05
8.1869885e-05
8.9969913e-05
0.00013190642
0.00027037857
0.00052692519
8.0485733e-05
8.0485502e-05
8.0483437e-05
8.0474603e-05
8.0445747e-05
8.0367548e-05
8.018253e-05
7.9802669e-05
7.9167636e-05
7.8530889e-05
7.9578989e-05
8.9986538e-05
0.00013834557
0.00028336255
0.00052076146
7.7682937e-05
7.7682283e-05
7.767895e-05
7.7667083e-05
7.7631664e-05
7.7540855e-05
7.7335982e-05
7.6937064e-05
7.6323276e-05
7.5878109e-05
7.7696612e-05
9.0751816e-05
0.00014594134
0.00029659939
0.00051549302
7.5063349e-05
7.5062196e-05
7.5057404e-05
7.5042167e-05
7.4999765e-05
7.4896302e-05
7.4673418e-05
7.4262946e-05
7.369182e-05
7.3492783e-05
7.6225917e-05
9.229105e-05
0.00015461944
0.000309816
0.00051107779
7.2609902e-05
7.2608172e-05
7.260173e-05
7.2582813e-05
7.2533118e-05
7.2417256e-05
7.2178869e-05
7.1765596e-05
7.1260831e-05
7.1367745e-05
7.5175079e-05
9.4629939e-05
0.00016427135
0.00032275576
0.00050745065
7.0307551e-05
7.0305165e-05
7.0296888e-05
7.0274015e-05
7.0216842e-05
7.0089161e-05
6.9838457e-05
6.94324e-05
6.9020131e-05
6.949887e-05
7.4557053e-05
9.7790947e-05
0.00017475428
0.00033519669
0.00050453
6.8142984e-05
6.8139863e-05
6.8129574e-05
6.8102519e-05
6.8037823e-05
6.7899244e-05
6.7640104e-05
6.7252585e-05
6.6961603e-05
6.7885016e-05
7.438916e-05
0.00010178904
0.0001858954
0.00034696444
0.00050222457
6.6104382e-05
6.6100451e-05
6.608799e-05
6.6056581e-05
6.5984475e-05
6.5836276e-05
6.5573296e-05
6.5217006e-05
6.5079053e-05
6.6528011e-05
7.4692423e-05
0.00010662718
0.00019750038
0.00035793856
0.00050043991
6.418122e-05
6.4176406e-05
6.4161633e-05
6.4125766e-05
6.4046535e-05
6.3890369e-05
6.3628889e-05
6.3317981e-05
6.3368113e-05
6.5432645e-05
7.5490606e-05
0.00011229203
0.00020936499
0.00036805173
0.00049908424
6.2364094e-05
6.2358333e-05
6.2341135e-05
6.230078e-05
6.2214894e-05
6.2052808e-05
6.1798947e-05
6.1549161e-05
6.182618e-05
6.4606648e-05
7.6808891e-05
0.00011875054
0.00022128816
0.00037728353
0.00049807291
6.064458e-05
6.0637817e-05
6.0618111e-05
6.0573325e-05
6.0481451e-05
6.031591e-05
6.0076617e-05
5.9905429e-05
6.045239e-05
6.4060644e-05
7.8672186e-05
0.00012594803
0.00023308444
0.00038565069
0.00049733132
5.9015114e-05
5.9007302e-05
5.8985044e-05
5.8935977e-05
5.8838997e-05
5.8672904e-05
5.8456016e-05
5.8382826e-05
5.9247607e-05
6.380802e-05
8.1103079e-05
0.00013380822
0.00024459408
0.00039319634
0.00049679625
5.746888e-05
5.745999e-05
5.7435175e-05
5.7382083e-05
5.7281105e-05
5.7117831e-05
5.6932149e-05
5.6978499e-05
5.8214438e-05
6.3864707e-05
8.4119512e-05
0.00014223537
0.0002556896
0.00039997992
0.00049641598
5.599973e-05
5.5989745e-05
5.596242e-05
5.590567e-05
5.5802046e-05
5.5645466e-05
5.5500841e-05
5.5690669e-05
5.7357258e-05
6.424881e-05
8.7732331e-05
0.00015111851
0.00026627829
0.00040606902
0.00049614946
5.4602101e-05
5.4591025e-05
5.4561286e-05
5.4501369e-05
5.4396714e-05
5.4251246e-05
5.4158685e-05
5.4518612e-05
5.6682235e-05
6.498008e-05
9.1942943e-05
0.00016033718
0.00027630116
0.00041153335
0.00049596497
5.3270953e-05
5.3258808e-05
5.3226813e-05
5.3164353e-05
5.3060564e-05
5.2931212e-05
5.2903001e-05
5.3462663e-05
5.6197344e-05
6.6079182e-05
9.6741328e-05
0.00016976802
0.00028572901
0.00041644086
0.00049583865
5.2001708e-05
5.198854e-05
5.1954511e-05
5.1890276e-05
5.1789556e-05
5.1681971e-05
5.1731808e-05
5.2524225e-05
5.5912364e-05
6.7566766e-05
0.00010210472
0.00017929137
0.00029455685
0.00042085544
0.00049575297
5.0790203e-05
5.0776083e-05
5.0740313e-05
5.067523e-05
5.0580113e-05
5.050065e-05
5.0643813e-05
5.1705789e-05
5.5838828e-05
6.9462331e-05
0.00010799714
0.0001887971
0.0003027979
0.00042483586
0.00049569544
4.9632648e-05
4.9617675e-05
4.9580534e-05
4.9515698e-05
4.942908e-05
4.9384875e-05
4.9638394e-05
5.1010966e-05
5.5989918e-05
7.1782922e-05
0.00011437001
0.00019818901
0.00031047772
0.00042843533
0.0004956574
4.8525586e-05
4.8509888e-05
4.8471831e-05
4.8408525e-05
4.8333699e-05
4.8332748e-05
4.8715611e-05
5.0444524e-05
5.6380276e-05
7.4541728e-05
0.00012116371
0.00020738765
0.00031762942
0.0004317015
0.00049563313
4.7465859e-05
4.74496e-05
4.7411173e-05
4.7350883e-05
4.7291577e-05
4.7342831e-05
4.7876207e-05
5.0012417e-05
5.7025721e-05
7.774668e-05
0.00012831013
0.00021633122
0.00032428982
0.00043467667
0.00049561908
4.6450583e-05
4.6433963e-05
4.6395814e-05
4.6340247e-05
4.6300671e-05
4.641414e-05
4.7121628e-05
4.9721817e-05
5.7942848e-05
8.1399168e-05
0.00013573579
0.0002249751
0.00033049682
0.00043739817
0.00049561324
4.5477121e-05
4.5460379e-05
4.5423267e-05
4.5374375e-05
4.5359268e-05
4.5546142e-05
4.6454049e-05
4.9581125e-05
5.9148509e-05
8.549302e-05
0.00014336522
0.00023329015
0.00033628765
0.00043989867
0.00049561471
4.4543061e-05
4.4526479e-05
4.4491284e-05
4.4451288e-05
4.446598e-05
4.4738756e-05
4.5876394e-05
4.9599966e-05
6.0659159e-05
9.0013884e-05
0.00015112441
0.00024126036
0.0003416978
0.00044220662
0.00049562331
4.3646195e-05
4.3630105e-05
4.359784e-05
4.3569259e-05
4.3619731e-05
4.3992365e-05
4.5392377e-05
4.9789137e-05
6.24901e-05
9.4939091e-05
0.0001589437
0.00024888021
0.00034676053
0.00044434668
0.00049563932
4.2784505e-05
4.2769292e-05
4.2741115e-05
4.2726796e-05
4.2819756e-05
4.3307822e-05
4.500653e-05
5.0160522e-05
6.4654626e-05
0.00010023808
0.00016676014
0.00025615208
0.00035150661
0.00044634014
0.00049566327
4.1956147e-05
4.1942252e-05
4.1919486e-05
4.1922641e-05
4.2065604e-05
4.2686473e-05
4.4724243e-05
5.0726936e-05
6.7163135e-05
0.00010587334
0.00017451901
0.00026308403
0.00035596427
0.00044820531
0.00049569579
4.1159436e-05
4.1147367e-05
4.1131511e-05
4.1155759e-05
4.1357136e-05
4.2130176e-05
4.4551789e-05
5.1501906e-05
7.0022256e-05
0.0001118018
0.00018217461
0.0002696879
0.00036015925
0.00044995791
0.00049573755
4.039284e-05
4.0383173e-05
4.0375928e-05
4.0425336e-05
4.0694537e-05
4.1641323e-05
4.4496352e-05
5.2499368e-05
7.3234063e-05
0.00011797661
0.00018969027
0.00027597786
0.0003641149
0.00045161146
0.00049578915
3.9654963e-05
3.9648355e-05
3.9651641e-05
3.9730781e-05
4.0078323e-05
4.1222872e-05
4.4566031e-05
5.3733283e-05
7.6795467e-05
0.00012434897
0.00019703788
0.00028196939
0.00036785236
0.00045317754
0.00049585112
3.8944544e-05
3.8941738e-05
3.8957721e-05
3.9071722e-05
3.9509355e-05
4.0878378e-05
4.4769829e-05
5.521717e-05
8.069784e-05
0.00013087002
0.00020419699
0.00028767848
0.00037139066
0.00045466608
0.00049592389
3.8260447e-05
3.8262283e-05
3.8293404e-05
3.8448018e-05
3.8988856e-05
4.0612023e-05
4.5117613e-05
5.6963568e-05
8.4926928e-05
0.00013749256
0.00021115369
0.00029312118
0.00037474695
0.00045608564
0.00049600778
3.7601653e-05
3.7609082e-05
3.7658086e-05
3.7859757e-05
3.851843e-05
4.0428652e-05
4.5620028e-05
5.8983443e-05
8.9463092e-05
0.00014417246
0.00021789951
0.00029831319
0.00037793661
0.00045744356
0.00049610301
3.6967262e-05
3.6981351e-05
3.7051327e-05
3.7307273e-05
3.8100083e-05
4.0333799e-05
4.6288379e-05
6.1285581e-05
9.4281844e-05
0.00015086965
0.0002244303
0.00030326971
0.00038097346
0.00045874619
0.00049620967
3.6356483e-05
3.6378439e-05
3.6472854e-05
3.6791149e-05
3.7736252e-05
4.0333718e-05
4.7134448e-05
6.3875987e-05
9.9354667e-05
0.00015754881
0.00023074527
0.00030800525
0.00038386991
0.00045999903
0.00049632782
3.5768637e-05
3.5799814e-05
3.5922562e-05
3.6312237e-05
3.7429827e-05
4.0435397e-05
4.8170258e-05
6.6757354e-05
0.00010465002
0.00016417962
0.00023684619
0.00031253356
0.0003866371
0.00046120682
0.00049645738
3.5203153e-05
3.5245078e-05
3.5400526e-05
3.587167e-05
3.7184185e-05
4.0646559e-05
4.9407775e-05
6.9928645e-05
0.00011013448
0.00017073673
0.00024273672
0.0003168676
0.00038928503
0.00046237371
0.00049659824
3.4659571e-05
3.4713957e-05
3.4907005e-05
3.5470884e-05
3.7003215e-05
4.0975653e-05
5.0858552e-05
7.3384821e-05
0.00011577386
0.0001771995
0.00024842185
0.00032101951
0.00039182273
0.0004635033
0.00049675024
3.4137541e-05
3.4206315e-05
3.4442453e-05
3.5111632e-05
3.6891359e-05
4.1431806e-05
5.2533323e-05
7.7116762e-05
0.00012153432
0.00018355155
0.00025390757
0.00032500062
0.0003942583
0.00046459877
0.00049691314
3.3636827e-05
3.3722154e-05
3.4007531e-05
3.4796015e-05
3.6853631e-05
4.2024757e-05
5.4441564e-05
8.1111385e-05
0.00012738327
0.0001897803
0.00025920045
0.00032882148
0.00039659907
0.00046566288
0.00049708671
3.3157312e-05
3.3261621e-05
3.3603121e-05
3.4526502e-05
3.689565e-05
4.2764743e-05
5.6591035e-05
8.5351967e-05
0.00013329012
0.00019587637
0.0002643075
0.00033249189
0.00039885166
0.00046669809
0.00049727064
3.2699001e-05
3.2825019e-05
3.3230344e-05
3.4305957e-05
3.702366e-05
4.3662351e-05
5.8987341e-05
8.981864e-05
0.00013922683
0.00020183315
0.00026923592
0.00033602092
0.00040102205
0.00046770656
0.00049746465
3.2262029e-05
3.2412818e-05
3.2890574e-05
3.4137671e-05
3.7244542e-05
4.4728315e-05
6.1633538e-05
9.448903e-05
0.00014516825
0.00020764625
0.00027399295
0.000339417
0.00040311569
0.00046869022
0.00049766841
3.1846672e-05
3.2025663e-05
3.2585463e-05
3.4025389e-05
3.756581e-05
4.5973272e-05
6.4529811e-05
9.9338981e-05
0.0001510922
0.00021331317
0.00027858579
0.00034268791
0.00040513749
0.00046965077
0.00049788159
3.1453353e-05
3.1664391e-05
3.2316961e-05
3.3973345e-05
3.7995595e-05
4.7407472e-05
6.7673265e-05
0.00010434331
0.00015697949
0.00021883291
0.00028302153
0.00034584087
0.00040709192
0.00047058968
0.00049810386
3.1082657e-05
3.133005e-05
3.2087341e-05
3.3986286e-05
3.8542602e-05
4.9040449e-05
7.105785e-05
0.00010947653
0.00016281382
0.00022420566
0.00028730706
0.00034888261
0.00040898324
0.00047150443
0.00049833478
3.0735342e-05
3.1023912e-05
3.1899228e-05
3.4069503e-05
3.921604e-05
5.0880668e-05
7.4674413e-05
0.00011471355
0.00016858151
0.00022943259
0.00029144902
0.00035181927
0.00041081467
0.00047239507
0.00049857391
3.0412362e-05
3.0747498e-05
3.1755625e-05
3.4228856e-05
4.0025517e-05
5.2935161e-05
7.8510903e-05
0.00012003019
0.00017427129
0.0002345156
0.00029545379
0.00035465642
0.00041258912
0.00047326295
0.00049882071
3.0114877e-05
3.0502598e-05
3.1659947e-05
3.4470787e-05
4.09809e-05
5.5209176e-05
8.2552695e-05
0.00012540363
0.00017987402
0.00023945716
0.0002993274
0.00035739919
0.00041430938
0.00047410989
0.00049907467
2.9844281e-05
3.0291301e-05
3.1616047e-05
3.4802328e-05
4.2092135e-05
5.7705862e-05
8.678302e-05
0.00013081272
0.0001853824
0.00024426016
0.00030307573
0.00036005266
0.00041597751
0.00047493648
0.0004993353
2.9602222e-05
3.0116018e-05
3.1628257e-05
3.5231093e-05
4.3369025e-05
6.0426015e-05
9.1183468e-05
0.00013623819
0.00019079079
0.00024892785
0.00030670434
0.00036262129
0.000417595
0.00047574363
0.00049960217
2.9390632e-05
2.9979518e-05
3.1701409e-05
3.5765252e-05
4.4820976e-05
6.3367902e-05
9.5734524e-05
0.00014166271
0.00019609491
0.00025346366
0.00031021842
0.0003651089
0.00041916378
0.00047653274
0.00049987495
2.9211752e-05
2.9884956e-05
3.1840875e-05
3.641348e-05
4.6456704e-05
6.652719e-05
0.00010041609
0.00014707089
0.00020129166
0.00025787114
0.00031362282
0.00036751903
0.00042068624
0.00047730511
0.00050015336
2.9068173e-05
2.9835914e-05
3.2052585e-05
3.7184879e-05
4.8283937e-05
6.9896976e-05
0.00010520799
0.00015244923
0.00020637894
0.00026215394
0.0003169222
0.00036985503
0.00042216442
0.00047806213
0.00050043718
2.8962865e-05
2.9836431e-05
3.234305e-05
3.808887e-05
5.0309094e-05
7.3467923e-05
0.0001100904
0.00015778601
0.00021135554
0.00026631585
0.00032012128
0.00037211983
0.00042359913
0.00047880561
0.00050072627
2.8899218e-05
2.9891048e-05
3.2719371e-05
3.9135045e-05
5.2536995e-05
7.72285e-05
0.00011504421
0.00016307115
0.00021622092
0.00027036054
0.00032322392
0.00037431561
0.00042499296
0.00047953646
0.00050102047
2.8881088e-05
3.0004838e-05
3.3189234e-05
4.0332987e-05
5.4970592e-05
8.1165302e-05
0.00012005128
0.00016829607
0.0002209751
0.00027429152
0.00032623367
0.00037644512
0.00042634819
0.00048025523
0.0005013196
2.8912838e-05
3.0183453e-05
3.3760895e-05
4.1692049e-05
5.7610756e-05
8.5263417e-05
0.00012509467
0.00017345354
0.00022561855
0.0002781122
0.00032915392
0.00037851123
0.00042766686
0.00048096234
0.00050162344
2.8999384e-05
3.0433149e-05
3.4443126e-05
4.3221102e-05
6.0456137e-05
8.9506835e-05
0.00013015874
0.00017853754
0.00023015226
0.00028182647
0.00033198843
0.00038051456
0.00042895138
0.00048165851
0.00050193178
2.9146247e-05
3.0760819e-05
3.5245154e-05
4.4928267e-05
6.3503099e-05
9.3878856e-05
0.00013522921
0.00018354314
0.00023457747
0.00028543745
0.00033473928
0.00038245835
0.00043020341
0.00048234437
0.00050224443
2.9359592e-05
3.1174012e-05
3.6176555e-05
4.6820619e-05
6.6745749e-05
9.8362476e-05
0.00014029314
0.0001884663
0.0002388955
0.00028894796
0.00033740912
0.00038434552
0.0004314243
0.00048302039
0.00050256119
2.9646283e-05
3.168094e-05
3.7247112e-05
4.8903907e-05
7.0176054e-05
0.00010294074
0.00014533895
0.00019330376
0.0002431078
0.00029236074
0.00034000084
0.00038617868
0.00043261525
0.00048368689
0.00050288185
3.0013911e-05
3.2290467e-05
3.8466647e-05
5.1182281e-05
7.3784034e-05
0.00010759703
0.00015035632
0.00019805314
0.00024721656
0.00029567951
0.00034251496
0.00038796054
0.0004337776
0.00048434422
0.00050320621
3.0470832e-05
3.301208e-05
3.9844799e-05
5.3658063e-05
7.7558018e-05
0.00011231532
0.00015533615
0.00020271254
0.00025122334
0.00029890572
0.00034495508
0.00038969319
0.00043491256
0.00048499265
0.00050353406
3.1026182e-05
3.3855824e-05
4.1390783e-05
5.6331572e-05
8.1484954e-05
0.00011708034
0.0001602704
0.00020728048
0.00025512959
0.00030204157
0.00034732434
0.0003913785
0.00043602117
0.00048563247
0.00050386521
3.1689875e-05
3.4832206e-05
4.3113113e-05
5.9201005e-05
8.5550733e-05
0.00012187773
0.00016515206
0.00021175603
0.00025893728
0.00030508875
0.00034962562
0.00039301822
0.00043710433
0.00048626388
0.00050419944
3.2472573e-05
3.595206e-05
4.5019308e-05
6.2262411e-05
8.9740528e-05
0.00012669409
0.00016997511
0.00021613883
0.00026264851
0.00030804843
0.00035186156
0.00039461408
0.00043816291
0.00048688705
0.00050453655
3.338563e-05
3.7226368e-05
4.7115602e-05
6.5509731e-05
9.4039106e-05
0.00013151701
0.00017473424
0.00022042826
0.00026626391
0.00031092398
0.00035403445
0.00039616765
0.00043919769
0.00048750213
0.00050487635
3.4440981e-05
3.8666027e-05
4.9406657e-05
6.8934916e-05
9.8431112e-05
0.00013633506
0.00017942475
0.00022462381
0.0002697848
0.00031371829
0.00035614637
0.00039768035
0.00044020939
0.00048810923
0.00050521864
3.5650989e-05
4.028158e-05
5.1895323e-05
7.2528122e-05
0.00010290135
0.00014113792
0.00018404318
0.00022872687
0.00027321047
0.00031643403
0.00035819937
0.00039915348
0.00044119864
0.00048870846
0.00050556322
3.7028229e-05
4.2082898e-05
5.4582434e-05
7.6277946e-05
0.00010743495
0.00014591611
0.00018858596
0.00023273618
0.00027654355
0.00031907354
0.00036019535
0.00040058825
0.00044216601
0.00048929987
0.00050590989
3.8585199e-05
4.4078842e-05
5.7466671e-05
8.017169e-05
0.00011201754
0.00015066094
0.00019304976
0.00023665127
0.00027978651
0.00032163898
0.00036213603
0.00040198575
0.00044311204
0.00048988351
0.00050625846
4.0333976e-05
4.6276899e-05
6.0544511e-05
8.4195679e-05
0.00011663543
0.00015536501
0.00019743343
0.00024047004
0.00028294149
0.00032413242
0.00036402298
0.000403347
0.0004440372
0.00049045942
0.00050660875
4.2285792e-05
4.8682824e-05
6.3810235e-05
8.8335528e-05
0.0001212756
0.00016002113
0.00020173344
0.00024419357
0.00028601044
0.00032655581
0.0003658577
0.00040467292
0.00044494188
0.00049102758
0.00050696055
4.4450577e-05
5.1300314e-05
6.7256023e-05
9.2576408e-05
0.0001259257
0.0001646228
0.00020594657
0.00024782318
0.00028899516
0.0003289109
0.00036764151
0.00040596434
0.00044582647
0.00049158801
0.00050731369
4.6836456e-05
5.4130718e-05
7.087213e-05
9.6903393e-05
0.00013057454
0.00016916548
0.00021006867
0.00025135992
0.00029189738
0.00033119935
0.00036937566
0.00040722202
0.00044669127
0.00049214065
0.00050766797
4.9449256e-05
5.717282e-05
7.464707e-05
0.00010130149
0.00013521102
0.00017364211
0.00021409923
0.00025480475
0.00029471872
0.00033342267
0.00037106127
0.00040844663
0.00044753656
0.00049268546
0.00050802321
5.2292047e-05
6.0422716e-05
7.8567955e-05
0.00010575626
0.00013982632
0.00017804511
0.00021803751
0.00025815863
0.00029746067
0.00033558222
0.00037269936
0.00040963876
0.00044836257
0.00049322237
0.00050837922
5.5364756e-05
6.3873762e-05
8.2620653e-05
0.00011025323
0.00014440995
0.00018236979
0.00022188279
0.00026142244
0.00030012457
0.00033767928
0.00037429084
0.00041079896
0.00044916947
0.00049375129
0.00050873581
5.8663915e-05
6.7516694e-05
8.6790408e-05
0.00011477971
0.00014895018
0.0001866125
0.00022563447
0.00026459702
0.00030271167
0.00033971497
0.00037583654
0.00041192767
0.00044995742
0.00049427212
0.0005090928
6.2182535e-05
7.1339768e-05
9.1061807e-05
0.000119321
0.00015343812
0.00019076984
0.00022929198
0.00026768312
0.00030522309
0.00034169031
0.00037733716
0.00041302529
0.0004507265
0.00049478473
0.00050945
6.5910218e-05
7.5329206e-05
9.5419605e-05
0.00012386173
0.00015786617
0.0001948387
0.00023285482
0.00027068138
0.0003076598
0.00034360617
0.00037879333
0.00041409215
0.00045147677
0.00049528897
0.00050980722
6.9833708e-05
7.9469719e-05
9.9845322e-05
0.00012838915
0.00016222727
0.00019881622
0.00023632247
0.00027359237
0.00031002267
0.00034546334
0.00038020559
0.00041512848
0.00045220826
0.00049578469
0.00051016426
7.3936191e-05
8.3742455e-05
0.00010432176
0.00013289128
0.00016651493
0.00020269975
0.00023969445
0.00027641655
0.00031231243
0.00034726246
0.00038157435
0.00041613449
0.00045292094
0.00049627171
0.00051052094
7.8197611e-05
8.8127422e-05
0.00010883201
0.00013735687
0.00017072318
0.00020648685
0.00024297026
0.00027915431
0.0003145297
0.0003490041
0.00038289998
0.00041711031
0.00045361474
0.00049674982
0.00051087706
8.259574e-05
9.2603761e-05
0.00011335961
0.00014177543
0.00017484651
0.00021017526
0.00024614939
0.0002818059
0.00031667497
0.00035068866
0.00038418273
0.00041805598
0.00045428956
0.00049721879
0.0005112324
8.7106843e-05
9.715018e-05
0.00011788866
0.00014613717
0.00017887987
0.00021376287
0.00024923131
0.00028437151
0.00031874862
0.00035231649
0.00038542277
0.00041897152
0.00045494525
0.00049767839
0.00051158677
9.1706344e-05
0.00010174535
0.00012240395
0.00015043306
0.00018281867
0.00021724775
0.00025221548
0.00028685121
0.0003207509
0.00035388779
0.00038662017
0.00041985685
0.00045558163
0.00049812836
0.00051193995
9.6369452e-05
0.00010636829
0.00012689105
0.00015465473
0.00018665871
0.00022062811
0.00025510138
0.00028924501
0.00032268197
0.00035540268
0.00038777494
0.00042071184
0.00045619846
0.00049856839
0.00051229171
0.00010107173
0.00011099869
0.00013133639
0.00015879455
0.00019039623
0.00022390236
0.00025788846
0.00029155283
0.00032454189
0.00035686119
0.000388887
0.00042153632
0.00045679548
0.00049899818
0.00051264183
0.00010578957
0.00011561717
0.00013572729
0.00016284557
0.00019402784
0.00022706903
0.00026057622
0.00029377456
0.00032633064
0.00035826324
0.0003899562
0.00042233002
0.00045737237
0.0004994174
0.00051299007
0.00011050059
0.00012020554
0.00014005207
0.0001668015
0.00019755058
0.00023012688
0.00026316417
0.00029591002
0.0003280481
0.00035960869
0.00039098229
0.00042309266
0.00045792879
0.00049982569
0.00051333618
0.00011518395
0.00012474694
0.00014430005
0.00017065673
0.00020096188
0.00023307483
0.00026565191
0.00029795902
0.00032969411
0.00036089732
0.00039196499
0.00042382386
0.00045846433
0.00050022266
0.00051367989
0.00011982051
0.00012922598
0.00014846156
0.00017440632
0.00020425955
0.00023591201
0.00026803907
0.00029992136
0.00033126847
0.00036212884
0.00039290396
0.00042452323
0.00045897858
0.00050060791
0.00051402093
0.000124393
0.00013362877
0.00015252797
0.00017804595
0.00020744179
0.00023863776
0.00027032541
0.00030179684
0.00033277093
0.00036330295
0.00039379878
0.00042519031
0.00045947108
0.00050098102
0.00051435903
0.00012888606
0.000137943
0.00015649168
0.00018157193
0.00021050719
0.00024125164
0.00027251078
0.00030358533
0.00033420124
0.00036441927
0.00039464901
0.00042582463
0.00045994134
0.00050134153
0.00051469387
0.00013328625
0.00014215789
0.00016034611
0.0001849812
0.0002134547
0.00024375346
0.00027459515
0.00030528673
0.00033555916
0.00036547744
0.00039545421
0.00042642567
0.00046038886
0.00050168899
0.00051502515
0.00013758197
0.00014626417
0.00016408564
0.00018827127
0.00021628366
0.00024614323
0.00027657865
0.00030690101
0.0003368445
0.0003664771
0.00039621388
0.0004269929
0.0004608131
0.00050202292
0.00051535256
0.00014176342
0.000150254
0.00016770562
0.00019144022
0.00021899374
0.00024842123
0.00027846155
0.00030842824
0.00033805707
0.00036741788
0.00039692755
0.0004275258
0.00046121353
0.00050234284
0.00051567576
0.00014582246
0.00015412091
0.00017120227
0.00019448666
0.00022158496
0.00025058796
0.00028024431
0.00030986863
0.0003391968
0.00036829947
0.00039759477
0.00042802382
0.00046158962
0.00050264827
0.00051599441
0.00014975252
0.0001578597
0.00017457266
0.00019740974
0.00022405768
0.00025264415
0.00028192755
0.00031122246
0.00034026366
0.00036912162
0.0003982151
0.00042848646
0.00046194085
0.00050293874
0.00051630816
0.00015354844
0.00016146636
0.00017781467
0.00020020906
0.00022641254
0.00025459077
0.00028351205
0.00031249019
0.00034125775
0.00036988411
0.00039878816
0.00042891324
0.0004622667
0.00050321378
0.00051661666
0.00015720636
0.00016493792
0.00018092689
0.00020288466
0.0002286505
0.000256429
0.00028499879
0.00031367241
0.00034217926
0.00037058685
0.00039931362
0.00042930372
0.00046256672
0.00050347293
0.00051691956
0.00016072358
0.0001682724
0.00018390857
0.00020543704
0.00023077278
0.00025816022
0.00028638894
0.00031476987
0.00034302853
0.00037122982
0.00039979124
0.00042965751
0.00046284046
0.00050371579
0.00051721649
0.00016409841
0.00017146867
0.00018675957
0.00020786703
0.00023278085
0.00025978604
0.00028768382
0.00031578345
0.00034380602
0.00037181311
0.00040022085
0.00042997429
0.00046308753
0.00050394196
0.00051750711
0.00016733009
0.0001745264
0.00018948031
0.00021017582
0.00023467639
0.00026130821
0.00028888492
0.00031671423
0.00034451231
0.00037233694
0.00040060239
0.00043025383
0.00046330762
0.0005041511
0.00051779106
0.00017041865
0.00017744589
0.00019207167
0.00021236493
0.00023646132
0.00026272867
0.00028999389
0.00031756339
0.00034514815
0.00037280164
0.00040093589
0.00043049596
0.00046350045
0.00050434289
0.000518068
0.00017336479
0.00018022809
0.00019453497
0.00021443611
0.00023813771
0.00026404951
0.00029101255
0.0003183323
0.00034571443
0.00037320768
0.00040122151
0.00043070062
0.00046366585
0.00050451708
0.00051833759
0.00017616984
0.00018287441
0.00019687191
0.00021639141
0.00023970783
0.00026527296
0.00029194282
0.00031902245
0.00034621216
0.00037355568
0.00040145952
0.00043086785
0.00046380369
0.00050467348
0.00051859952
0.00017883559
0.00018538672
0.0001990845
0.00021823305
0.00024117405
0.00026640135
0.00029278676
0.00031963549
0.00034664251
0.00037384635
0.0004016503
0.0004309978
0.00046391397
0.00050481194
0.00051885348
0.00018136427
0.00018776728
0.00020117505
0.00021996346
0.00024253889
0.00026743713
0.00029354656
0.00032017316
0.00034700679
0.00037408058
0.00040179439
0.00043109072
0.00046399673
0.00050493238
0.00051909918
0.00018375849
0.00019001862
0.00020314609
0.00022158521
0.00024380498
0.00026838284
0.00029422449
0.00032063734
0.00034730641
0.00037425936
0.00040189241
0.00043114696
0.00046405215
0.00050503479
0.00051933635
0.00018602112
0.00019214358
0.00020500035
0.000223101
0.00024497501
0.00026924109
0.00029482289
0.00032103003
0.00034754294
0.00037438383
0.00040194514
0.00043116702
0.00046408046
0.00050511922
0.00051956476
0.00018815528
0.00019414517
0.00020674073
0.00022451366
0.00024605177
0.00027001454
0.00029534422
0.00032135329
0.00034771803
0.00037445524
0.00040195347
0.00043115147
0.00046408201
0.00050518579
0.00051978418
0.0001901643
0.0001960266
0.00020837026
0.0002258261
0.00024703809
0.00027070593
0.00029579097
0.0003216093
0.00034783345
0.00037447496
0.0004019184
0.00043110102
0.00046405725
0.00050523469
0.00051999442
0.00019205163
0.00019779122
0.00020989208
0.00022704129
0.00024793685
0.00027131802
0.0002961657
0.00032180029
0.00034789108
0.00037444448
0.00040184107
0.00043101648
0.00046400669
0.00050526617
0.00052019532
0.00019382085
0.00019944245
0.00021130941
0.00022816228
0.00024875097
0.00027185359
0.00029647099
0.00032192857
0.00034789287
0.00037436538
0.00040172271
0.00043089877
0.00046393098
0.00050528056
0.00052038674
0.00019547563
0.00020098383
0.00021262553
0.00022919212
0.00024948337
0.00027231546
0.00029670949
0.00032199652
0.00034784085
0.00037423935
0.00040156465
0.00043074889
0.00046383081
0.00050527825
0.0005205686
0.00019701969
0.00020241891
0.00021384377
0.00023013394
0.00025013702
0.00027270646
0.00029688384
0.00032200653
0.00034773714
0.00037406816
0.00040136834
0.00043056797
0.00046370699
0.0005052597
0.00052074081
0.00019845679
0.00020375132
0.00021496748
0.00023099083
0.00025071485
0.00027302939
0.00029699671
0.00032196106
0.0003475839
0.00037385365
0.00040113528
0.0004303572
0.00046356039
0.00050522541
0.00052090336
0.00019979069
0.00020498466
0.00021600002
0.00023176592
0.00025121982
0.0002732871
0.00029705078
0.00032186257
0.00034738334
0.00037359774
0.00040086709
0.00043011787
0.00046339196
0.00050517597
0.00052105623
0.00020102516
0.00020612255
0.00021694475
0.00023246232
0.00025165485
0.00027348238
0.00029704872
0.00032171358
0.00034713771
0.0003733024
0.00040056542
0.00042985132
0.00046320271
0.00050511199
0.00052119946
0.00020216394
0.00020716859
0.00021780501
0.00023308311
0.00025202287
0.00027361802
0.0002969932
0.00032151656