/*--------------------------------*- C++ -*----------------------------------*\
| =========                 |                                                 |
| \\      /  F ield         | OpenFOAM: The Open Source CFD Toolbox           |
|  \\    /   O peration     | Version:  2506                                  |
|   \\  /    A nd           | Website:  www.openfoam.com                      |
|    \\/     M anipulation  |                                                 |
\*---------------------------------------------------------------------------*/
FoamFile
{
    version     2.0;
    format      ascii;
    arch        "LSB;label=32;scalar=64";
    class       volScalarField;
    location    "11000/water";
    object      nut;
}
// * * * * * * * * * * * * * * * * * * * * * * * * * * * * * * * * * * * * * //

dimensions      [0 2 -1 0 0 0 0];

internalField   nonuniform List<scalar> 
6000
(
4.1367308e-05
4.1367285e-05
4.1367292e-05
4.1367317e-05
4.136735e-05
4.1367394e-05
4.1367445e-05
4.1367477e-05
4.1367269e-05
4.1365028e-05
4.1345959e-05
4.1185428e-05
3.984402e-05
3.0619188e-05
1.3489073e-05
4.0862094e-05
4.0862089e-05
4.0862128e-05
4.0862206e-05
4.086231e-05
4.0862441e-05
4.0862573e-05
4.0862525e-05
4.0861044e-05
4.0849566e-05
4.0769767e-05
4.0233638e-05
3.6930279e-05
2.3809326e-05
1.5168915e-05
4.0408426e-05
4.0408431e-05
4.0408496e-05
4.0408619e-05
4.040878e-05
4.0408965e-05
4.0409066e-05
4.0408421e-05
4.0403049e-05
4.0369314e-05
4.0169922e-05
3.9053519e-05
3.3674827e-05
1.9530254e-05
1.6389796e-05
3.9998212e-05
3.9998216e-05
3.9998298e-05
3.9998456e-05
3.9998657e-05
3.9998846e-05
3.9998699e-05
3.999645e-05
3.9982628e-05
3.9907469e-05
3.9519874e-05
3.7665236e-05
3.0439418e-05
1.6813321e-05
1.7227565e-05
3.9625122e-05
3.9625133e-05
3.9625231e-05
3.9625419e-05
3.9625638e-05
3.9625739e-05
3.9624947e-05
3.9619415e-05
3.959045e-05
3.9450123e-05
3.8807695e-05
3.6131535e-05
2.7477322e-05
1.5090355e-05
1.7763765e-05
3.9283984e-05
3.9284007e-05
3.9284119e-05
3.9284324e-05
3.9284521e-05
3.9284369e-05
3.9282279e-05
3.9270986e-05
3.9218236e-05
3.8986823e-05
3.8033859e-05
3.4524992e-05
2.4897642e-05
1.400968e-05
1.8072537e-05
3.8970512e-05
3.8970546e-05
3.8970668e-05
3.8970871e-05
3.8970973e-05
3.8970306e-05
3.8965958e-05
3.8945612e-05
3.8858945e-05
3.8510812e-05
3.7207229e-05
3.2908964e-05
2.2716803e-05
1.3360893e-05
1.8215906e-05
3.8681158e-05
3.8681199e-05
3.8681323e-05
3.8681493e-05
3.8681392e-05
3.8679823e-05
3.8671916e-05
3.8638477e-05
3.8506919e-05
3.801881e-05
3.6341286e-05
3.1331233e-05
2.0908463e-05
1.30184e-05
1.8243034e-05
3.841296e-05
3.8413006e-05
3.8413119e-05
3.8413209e-05
3.8412743e-05
3.8409742e-05
3.8396631e-05
3.8345462e-05
3.8157885e-05
3.7510375e-05
3.5450851e-05
2.9823717e-05
1.9431977e-05
1.2906145e-05
1.8191421e-05
3.816343e-05
3.8163474e-05
3.8163556e-05
3.8163498e-05
3.8162446e-05
3.8157327e-05
3.8137042e-05
3.8063106e-05
3.7808869e-05
3.6987081e-05
3.454982e-05
2.8405299e-05
1.8246291e-05
1.2977275e-05
1.8088864e-05
3.7930458e-05
3.7930491e-05
3.7930513e-05
3.793021e-05
3.7928279e-05
3.7920197e-05
3.7890497e-05
3.7788579e-05
3.7458031e-05
3.6451747e-05
3.3649968e-05
2.7085594e-05
1.7315649e-05
1.3202296e-05
1.7955551e-05
3.7712242e-05
3.7712253e-05
3.7712173e-05
3.7711499e-05
3.7708322e-05
3.7696279e-05
3.7654711e-05
3.7519641e-05
3.7104472e-05
3.5907781e-05
3.2760531e-05
2.58684e-05
1.6611172e-05
1.3561911e-05
1.7805936e-05
3.7507239e-05
3.7507212e-05
3.7506973e-05
3.7505765e-05
3.7500895e-05
3.7483758e-05
3.7427744e-05
3.725459e-05
3.6748014e-05
3.5358688e-05
3.188827e-05
2.4754408e-05
1.6110613e-05
1.4042468e-05
1.7650267e-05
3.7314115e-05
3.7314026e-05
3.7313557e-05
3.7311613e-05
3.7304527e-05
3.7281048e-05
3.7207963e-05
3.6992195e-05
3.6389e-05
3.4807726e-05
3.1037799e-05
2.3743174e-05
1.5797412e-05
1.4632945e-05
1.7495753e-05
3.7131708e-05
3.713153e-05
3.7130739e-05
3.7127817e-05
3.7117921e-05
3.7086772e-05
3.6994026e-05
3.6731629e-05
3.6028109e-05
3.4257704e-05
3.0212055e-05
2.2834479e-05
1.5659519e-05
1.5322866e-05
1.7347422e-05
3.6959006e-05
3.6958703e-05
3.6957478e-05
3.6953298e-05
3.6939934e-05
3.6899735e-05
3.6784847e-05
3.64724e-05
3.5666203e-05
3.3710866e-05
2.9412801e-05
2.2029191e-05
1.5688155e-05
1.6100896e-05
1.7208725e-05
3.6795116e-05
3.6794645e-05
3.6792855e-05
3.6787094e-05
3.6769555e-05
3.6718912e-05
3.6579574e-05
3.6214282e-05
3.5304204e-05
3.3168861e-05
2.8641157e-05
2.132974e-05
1.5876569e-05
1.6954009e-05
1.7081944e-05
3.6639251e-05
3.6638559e-05
3.6636051e-05
3.6628355e-05
3.6605895e-05
3.6543431e-05
3.637756e-05
3.5957252e-05
3.4942996e-05
3.2632763e-05
2.789813e-05
2.0740252e-05
1.6218811e-05
1.786721e-05
1.6968459e-05
3.6490711e-05
3.6489738e-05
3.6486338e-05
3.6476321e-05
3.6448171e-05
3.6372563e-05
3.6178336e-05
3.5701433e-05
3.458336e-05
3.2103134e-05
2.7185145e-05
2.0266398e-05
1.6708561e-05
1.8823777e-05
1.6868922e-05
3.6348869e-05
3.6347546e-05
3.6343063e-05
3.6330312e-05
3.62957e-05
3.6205706e-05
3.5981587e-05
3.5447046e-05
3.4225914e-05
3.1580129e-05
2.6504571e-05
1.991497e-05
1.7338099e-05
1.9805967e-05
1.6783375e-05
3.6213165e-05
3.6211415e-05
3.6205638e-05
3.6189726e-05
3.6147887e-05
3.6042373e-05
3.5787125e-05
3.5194368e-05
3.3871092e-05
3.1063631e-05
2.5860194e-05
1.9693245e-05
1.8097487e-05
2.0796033e-05
1.6711346e-05
3.6083093e-05
3.6080831e-05
3.6073537e-05
3.6054024e-05
3.6004223e-05
3.5882185e-05
3.5594869e-05
3.4943693e-05
3.3519118e-05
3.0553441e-05
2.5257606e-05
1.96082e-05
1.8974102e-05
2.1777346e-05
1.6651939e-05
3.5958194e-05
3.5955329e-05
3.5946284e-05
3.592273e-05
3.5864274e-05
3.5724854e-05
3.5404824e-05
3.4695304e-05
3.3170007e-05
3.0049498e-05
2.4704419e-05
1.9665646e-05
1.9952579e-05
2.2735414e-05
1.660395e-05
3.5838054e-05
3.5834489e-05
3.582345e-05
3.5795422e-05
3.5727676e-05
3.5570179e-05
3.521706e-05
3.444945e-05
3.2823581e-05
2.9552162e-05
2.4210265e-05
1.9869402e-05
2.1015194e-05
2.3658589e-05
1.6565971e-05
3.5722292e-05
3.5717927e-05
3.5704651e-05
3.5671733e-05
3.5594133e-05
3.5418031e-05
3.50317e-05
3.4206321e-05
3.2479494e-05
2.9062524e-05
2.3786503e-05
2.022057e-05
2.2142641e-05
2.4538397e-05
1.6536511e-05
3.5610563e-05
3.5605296e-05
3.558954e-05
3.5551342e-05
3.5463408e-05
3.5268352e-05
3.48489e-05
3.3966035e-05
3.2137286e-05
2.8582751e-05
2.3445668e-05
2.0717024e-05
2.3315071e-05
2.5369467e-05
1.6514097e-05
3.5502551e-05
3.549628e-05
3.5477808e-05
3.5433974e-05
3.5335321e-05
3.5121137e-05
3.466884e-05
3.3728621e-05
3.1796463e-05
2.8116417e-05
2.3200676e-05
2.1353142e-05
2.4513224e-05
2.6149157e-05
1.6497357e-05
3.5397967e-05
3.539059e-05
3.536918e-05
3.5319398e-05
3.5209747e-05
3.4976437e-05
3.4491706e-05
3.3494016e-05
3.14566e-05
2.7668794e-05
2.3063903e-05
2.2119832e-05
2.5719465e-05
2.6877011e-05
1.6485071e-05
3.5296546e-05
3.5287966e-05
3.5263414e-05
3.5207424e-05
3.5086609e-05
3.4834344e-05
3.4317681e-05
3.3262058e-05
3.1117487e-05
2.7247026e-05
2.3046253e-05
2.3004862e-05
2.6918581e-05
2.7554165e-05
1.6476201e-05
3.5198047e-05
3.5188175e-05
3.5160297e-05
3.5097901e-05
3.4965875e-05
3.4694991e-05
3.4146934e-05
3.3032492e-05
3.0779305e-05
2.6860148e-05
2.3156315e-05
2.3993438e-05
2.8098247e-05
2.8182808e-05
1.6469894e-05
3.5102251e-05
3.5091004e-05
3.5059649e-05
3.4990715e-05
3.4847558e-05
3.4558539e-05
3.3979609e-05
3.2804987e-05
3.0442844e-05
2.6518902e-05
2.3399717e-05
2.5069008e-05
2.9249139e-05
2.8765761e-05
1.6465472e-05
3.5008959e-05
3.4996268e-05
3.4961317e-05
3.488579e-05
3.4731711e-05
3.4425177e-05
3.3815813e-05
3.2579164e-05
3.0109733e-05
2.6235323e-05
2.3778717e-05
2.6214168e-05
3.0364756e-05
2.9306158e-05
1.646241e-05
3.4917993e-05
3.4903801e-05
3.4865175e-05
3.4783085e-05
3.4618425e-05
3.4295113e-05
3.3655609e-05
3.235464e-05
2.9782687e-05
2.6022143e-05
2.429206e-05
2.7411592e-05
3.1441033e-05
2.9807247e-05
1.6460313e-05
3.4829195e-05
3.4813462e-05
3.4771128e-05
3.4682592e-05
3.4507829e-05
3.416857e-05
3.3499011e-05
3.2131095e-05
2.9465731e-05
2.5892041e-05
2.4935074e-05
2.8644859e-05
3.2475855e-05
3.0272255e-05
1.6458891e-05
3.4742423e-05
3.4725129e-05
3.4679107e-05
3.4584339e-05
3.4400083e-05
3.4045774e-05
3.3345975e-05
3.1908364e-05
2.9164363e-05
2.5856857e-05
2.5699992e-05
2.9899125e-05
3.3468558e-05
3.0704313e-05
1.6457936e-05
3.465756e-05
3.4638706e-05
3.4589068e-05
3.4488387e-05
3.4295378e-05
3.3926957e-05
3.3196403e-05
3.1686556e-05
2.8885628e-05
2.5926839e-05
2.6576457e-05
3.1161549e-05
3.4419485e-05
3.1106401e-05
1.6457305e-05
3.4574503e-05
3.4554114e-05
3.4500999e-05
3.4394828e-05
3.4193938e-05
3.381234e-05
3.3050148e-05
3.1466195e-05
2.8638064e-05
2.6110009e-05
2.7552149e-05
3.2421503e-05
3.5329635e-05
3.1481314e-05
1.6456902e-05
3.4493171e-05
3.4471301e-05
3.4414911e-05
3.4303789e-05
3.409601e-05
3.3702133e-05
3.2907027e-05
3.1248389e-05
2.8431492e-05
2.6411718e-05
2.8613484e-05
3.3670556e-05
3.6200409e-05
3.1831643e-05
1.6456669e-05
3.4413502e-05
3.4390234e-05
3.4330848e-05
3.4215429e-05
3.4001867e-05
3.3596524e-05
3.2766849e-05
3.1035014e-05
2.8276657e-05
2.6834393e-05
2.9746332e-05
3.4902298e-05
3.703343e-05
3.2159762e-05
1.6456572e-05
3.4335456e-05
3.4310905e-05
3.4248878e-05
3.4129939e-05
3.3911801e-05
3.3495676e-05
3.2629453e-05
3.0828885e-05
2.8184731e-05
2.7377501e-05
3.093668e-05
3.611207e-05
3.7830438e-05
3.2467823e-05
1.6456596e-05
3.4259011e-05
3.423333e-05
3.4169102e-05
3.4047543e-05
3.3826124e-05
3.3399718e-05
3.2494766e-05
3.0633923e-05
2.8166733e-05
2.8037693e-05
3.2171194e-05
3.7296637e-05
3.8593223e-05
3.2757762e-05
1.6456739e-05
3.4184168e-05
3.4157548e-05
3.409165e-05
3.3968498e-05
3.3745158e-05
3.3308744e-05
3.236288e-05
3.0455255e-05
2.8232927e-05
2.8809107e-05
3.3437649e-05
3.845388e-05
3.9323576e-05
3.3031311e-05
1.6457005e-05
3.4110952e-05
3.4083626e-05
3.4016682e-05
3.3893092e-05
3.3669236e-05
3.3222813e-05
3.2234152e-05
3.0299253e-05
2.8392247e-05
2.968379e-05
3.4725214e-05
3.9582514e-05
4.002327e-05
3.3290008e-05
1.6457402e-05
3.4039411e-05
3.4011658e-05
3.3944392e-05
3.3821645e-05
3.3598692e-05
3.3141955e-05
3.210932e-05
3.0173467e-05
2.8651822e-05
3.0652197e-05
3.6024573e-05
4.0681868e-05
4.0694026e-05
3.3535219e-05
1.6457942e-05
3.3969616e-05
3.3941763e-05
3.3875008e-05
3.3754507e-05
3.3533858e-05
3.306618e-05
3.1989642e-05
3.0086446e-05
2.9016627e-05
3.170372e-05
3.7327935e-05
4.1751712e-05
4.1337507e-05
3.3768155e-05
1.6458635e-05
3.3901667e-05
3.3874095e-05
3.3808792e-05
3.369206e-05
3.3475059e-05
3.2995506e-05
3.187704e-05
3.0047455e-05
2.9489293e-05
3.282722e-05
3.8628938e-05
4.2792134e-05
4.1955299e-05
3.3989887e-05
1.6459492e-05
3.3835691e-05
3.3808835e-05
3.3746042e-05
3.3634709e-05
3.3422602e-05
3.2929991e-05
3.1774238e-05
3.0066081e-05
3.0070061e-05
3.4011506e-05
3.992249e-05
4.3803458e-05
4.2548902e-05
3.4201364e-05
1.6460521e-05
3.3771846e-05
3.3746203e-05
3.3687095e-05
3.358289e-05
3.3376777e-05
3.286978e-05
3.1684886e-05
3.0151793e-05
3.0756887e-05
3.5245745e-05
4.1204584e-05
4.4786179e-05
4.3119729e-05
3.4403428e-05
1.6461728e-05
3.3710322e-05
3.3686449e-05
3.3632325e-05
3.3537056e-05
3.3337852e-05
3.281518e-05
3.1613638e-05
3.0313468e-05
3.1545661e-05
3.6519781e-05
4.2472114e-05
4.5740921e-05
4.3669102e-05
3.4596827e-05
1.6463121e-05
3.3651343e-05
3.3629867e-05
3.3582146e-05
3.3497682e-05
3.3306071e-05
3.2766736e-05
3.1566176e-05
3.0558945e-05
3.243052e-05
3.7824351e-05
4.3722696e-05
4.6668398e-05
4.4198256e-05
3.4782225e-05
1.6464701e-05
3.359517e-05
3.3576787e-05
3.3537014e-05
3.3465257e-05
3.328166e-05
3.2725338e-05
3.1549147e-05
3.0894638e-05
3.3404216e-05
3.9151208e-05
4.495453e-05
4.7569395e-05
4.4708339e-05
3.4960217e-05
1.6466471e-05
3.3542107e-05
3.3527584e-05
3.3497423e-05
3.3440275e-05
3.3264838e-05
3.2692337e-05
3.1570023e-05
3.1325252e-05
3.4458518e-05
4.0493153e-05
4.6166275e-05
4.8444734e-05
4.520042e-05
3.5131333e-05
1.6468431e-05
3.3492497e-05
3.3482682e-05
3.346391e-05
3.3423238e-05
3.3255838e-05
3.2669661e-05
3.1636869e-05
3.1853602e-05
3.5584607e-05
4.1844009e-05
4.735696e-05
4.9295262e-05
4.5675493e-05
3.5296047e-05
1.647058e-05
3.3446735e-05
3.3442548e-05
3.3437051e-05
3.3414644e-05
3.3254936e-05
3.2659938e-05
3.1758036e-05
3.2480556e-05
3.6773448e-05
4.3198546e-05
4.852591e-05
5.0121834e-05
4.6134479e-05
3.5454787e-05
1.6472917e-05
3.3405264e-05
3.3407707e-05
3.3417461e-05
3.3414982e-05
3.32625e-05
3.2666592e-05
3.1941802e-05
3.3205087e-05
3.8016105e-05
4.4552376e-05
4.9672693e-05
5.0925298e-05
4.6578238e-05
3.5607938e-05
1.6475438e-05
3.3368581e-05
3.3378733e-05
3.3405791e-05
3.3424736e-05
3.3279044e-05
3.2693909e-05
3.2195994e-05
3.4024422e-05
3.9303999e-05
4.5901846e-05
5.0797074e-05
5.1706493e-05
4.7007565e-05
3.575585e-05
1.6478139e-05
3.3337244e-05
3.3356261e-05
3.3402726e-05
3.3444373e-05
3.3305312e-05
3.2747053e-05
3.2527619e-05
3.4934264e-05
4.06291e-05
4.7243932e-05
5.1898979e-05
5.2466235e-05
4.7423201e-05
3.5898837e-05
1.6481016e-05
3.3311875e-05
3.3340983e-05
3.3408981e-05
3.347436e-05
3.334236e-05
3.2832013e-05
3.2942542e-05
3.5929071e-05
4.1984044e-05
4.8576139e-05
5.2978463e-05
5.3205317e-05
4.7825835e-05
3.6037186e-05
1.6484065e-05
3.3293163e-05
3.3333652e-05
3.3425294e-05
3.3515162e-05
3.3391667e-05
3.2955484e-05
3.3445234e-05
3.7002363e-05
4.3362194e-05
4.9896419e-05
5.4035684e-05
5.3924507e-05
4.8216107e-05
3.6171161e-05
1.6487281e-05
3.3281869e-05
3.3335085e-05
3.3452425e-05
3.3567272e-05
3.3455235e-05
3.3124673e-05
3.4038603e-05
3.8147029e-05
4.475765e-05
5.1203102e-05
5.5070886e-05
5.4624544e-05
4.8594615e-05
3.6301e-05
1.6490657e-05
3.3278836e-05
3.3346162e-05
3.3491148e-05
3.3631232e-05
3.3535695e-05
3.3347044e-05
3.4723923e-05
3.9355618e-05
4.6165229e-05
5.2494834e-05
5.6084371e-05
5.5306138e-05
4.8961914e-05
3.6426924e-05
1.6494188e-05
3.3284986e-05
3.3367825e-05
3.3542247e-05
3.3707682e-05
3.3636389e-05
3.3630016e-05
3.5500852e-05
4.0620609e-05
4.7580408e-05
5.3770533e-05
5.7076493e-05
5.5969973e-05
4.9318529e-05
3.6549142e-05
1.649787e-05
3.3301328e-05
3.3401077e-05
3.3606513e-05
3.3797413e-05
3.3761429e-05
3.3980641e-05
3.6367527e-05
4.193462e-05
4.8999268e-05
5.5029346e-05
5.8047637e-05
5.6616679e-05
4.966484e-05
3.6667083e-05
1.6501693e-05
3.3328964e-05
3.3446985e-05
3.3684745e-05
3.3901442e-05
3.3915698e-05
3.440529e-05
3.7320734e-05
4.3290581e-05
5.0418426e-05
5.6270612e-05
5.8998206e-05
5.7246852e-05
5.0001244e-05
3.6781085e-05
1.6505652e-05
3.3369088e-05
3.3506667e-05
3.3777753e-05
3.4021098e-05
3.4104808e-05
3.4909374e-05
3.8356117e-05
4.4681853e-05
5.1834971e-05
5.749383e-05
5.9928618e-05
5.7861062e-05
5.0328147e-05
3.689145e-05
1.6509737e-05
3.3422991e-05
3.3581299e-05
3.3886371e-05
3.4158112e-05
3.4334984e-05
3.5497112e-05
3.9468418e-05
4.6102299e-05
5.3246404e-05
5.8698638e-05
6.0839304e-05
5.8459864e-05
5.064596e-05
3.6998448e-05
1.6513939e-05
3.3492061e-05
3.3672101e-05
3.4011478e-05
3.431472e-05
3.4612894e-05
3.6171381e-05
4.0651732e-05
4.7546323e-05
5.4650585e-05
5.9884787e-05
6.1730691e-05
5.9043733e-05
5.0954642e-05
3.7102365e-05
1.6518251e-05
3.3577784e-05
3.3780338e-05
3.4154026e-05
3.4493753e-05
3.4945417e-05
3.6933634e-05
4.1899743e-05
4.9008868e-05
5.6045691e-05
6.1052124e-05
6.2603204e-05
5.9613116e-05
5.1254409e-05
3.7203362e-05
1.6522664e-05
3.3681742e-05
3.3907315e-05
3.4315091e-05
3.4698707e-05
3.5339377e-05
3.7783895e-05
4.3205951e-05
5.0485402e-05
5.7430169e-05
6.2200569e-05
6.3457261e-05
6.0168467e-05
5.1545764e-05
3.7301527e-05
1.6527174e-05
3.3805608e-05
3.4054377e-05
3.4495928e-05
3.4933787e-05
3.5801255e-05
3.8720836e-05
4.4563855e-05
5.1971889e-05
5.8802706e-05
6.3330111e-05
6.4293282e-05
6.0710253e-05
5.1829143e-05
3.7396968e-05
1.6531776e-05
3.3951147e-05
3.422291e-05
3.4698048e-05
3.52039e-05
3.6336911e-05
3.9741896e-05
4.5967112e-05
5.3464745e-05
6.0162194e-05
6.444079e-05
6.5111674e-05
6.1238803e-05
5.2104952e-05
3.7489812e-05
1.6536466e-05
3.4120204e-05
3.4414351e-05
3.4923303e-05
3.5514598e-05
3.6951329e-05
4.0843459e-05
4.7409646e-05
5.4960801e-05
6.1507705e-05
6.5532687e-05
6.5912787e-05
6.1754105e-05
5.2373577e-05
3.7580207e-05
1.6541241e-05
3.4314704e-05
3.4630207e-05
3.5173977e-05
3.5871961e-05
3.7648414e-05
4.2021048e-05
4.8885732e-05
5.6457263e-05
6.2838467e-05
6.660591e-05
6.6696985e-05
6.225673e-05
5.2635226e-05
3.7668256e-05
1.65461e-05
3.4536648e-05
3.4872084e-05
3.5452881e-05
3.6282422e-05
3.8430847e-05
4.3269539e-05
5.039004e-05
5.7951669e-05
6.4153835e-05
6.7660594e-05
6.7464651e-05
6.2747189e-05
5.2890119e-05
3.7754045e-05
1.6551039e-05
3.4788108e-05
3.514173e-05
3.5763425e-05
3.6752545e-05
3.9300014e-05
4.4583366e-05
5.1917656e-05
5.9441854e-05
6.5453278e-05
6.8696906e-05
6.8216184e-05
6.3225944e-05
5.3138485e-05
3.7837654e-05
1.6556054e-05
3.5071239e-05
3.5441094e-05
3.610968e-05
3.7288765e-05
4.0255994e-05
4.5956713e-05
5.3464086e-05
6.0925923e-05
6.6736371e-05
6.9714989e-05
6.8951483e-05
6.3693456e-05
5.3380575e-05
3.7919178e-05
1.6561141e-05
3.5388288e-05
3.5772399e-05
3.6496389e-05
3.7897124e-05
4.1297621e-05
4.7383682e-05
5.5025242e-05
6.2402215e-05
6.8002756e-05
7.0714996e-05
6.9671027e-05
6.4150035e-05
5.3616597e-05
3.7998704e-05
1.6566298e-05
3.5741621e-05
3.6138223e-05
3.6928934e-05
3.8583011e-05
4.2422592e-05
4.8858431e-05
5.6597424e-05
6.386927e-05
6.9252143e-05
7.1697117e-05
7.0375289e-05
6.4595982e-05
5.3846739e-05
3.8076308e-05
1.6571522e-05
3.6133762e-05
3.6541596e-05
3.7413246e-05
3.9350928e-05
4.3627616e-05
5.0375284e-05
5.8177288e-05
6.5325812e-05
7.0484306e-05
7.2661577e-05
7.1064704e-05
6.5031592e-05
5.4071178e-05
3.8152053e-05
1.6576808e-05
3.656745e-05
3.6986078e-05
3.7955657e-05
4.0204315e-05
4.4908589e-05
5.1928808e-05
5.976183e-05
6.6770735e-05
7.1699059e-05
7.3608223e-05
7.1739655e-05
6.5457164e-05
5.4290105e-05
3.8226003e-05
1.6582153e-05
3.7045705e-05
3.7475839e-05
3.8562695e-05
4.1145421e-05
4.6260781e-05
5.3513868e-05
6.1348344e-05
6.8203058e-05
7.2896228e-05
7.4537356e-05
7.2400492e-05
6.5872961e-05
5.4503697e-05
3.8298217e-05
1.6587554e-05
3.7571913e-05
3.8015695e-05
3.9240847e-05
4.217525e-05
4.7679016e-05
5.5125651e-05
6.2934398e-05
6.9621915e-05
7.4075702e-05
7.5449303e-05
7.3047533e-05
6.6279231e-05
5.4712113e-05
3.8368751e-05
1.6593007e-05
3.8149907e-05
3.8611103e-05
3.9996287e-05
4.3293569e-05
4.9157845e-05
5.6759684e-05
6.451781e-05
7.102655e-05
7.5237338e-05
7.6344344e-05
7.3681076e-05
6.6676218e-05
5.49155e-05
3.8437654e-05
1.659851e-05
3.8784043e-05
3.9268107e-05
4.083462e-05
4.4498964e-05
5.0691698e-05
5.8411833e-05
6.6096628e-05
7.2416294e-05
7.6380925e-05
7.7222728e-05
7.4301396e-05
6.7064161e-05
5.5113999e-05
3.8504971e-05
1.6604058e-05
3.9479248e-05
3.9993207e-05
4.1760629e-05
4.5788961e-05
5.2275004e-05
6.0078288e-05
6.7669081e-05
7.3790524e-05
7.7506487e-05
7.8084758e-05
7.4908758e-05
6.7443287e-05
5.5307743e-05
3.8570746e-05
1.6609648e-05
4.0241028e-05
4.0793174e-05
4.2778079e-05
4.716016e-05
5.3902293e-05
6.1755546e-05
6.9233566e-05
7.5148707e-05
7.861411e-05
7.8930691e-05
7.5503414e-05
6.78138e-05
5.5496857e-05
3.8635016e-05
1.6615277e-05
4.1075412e-05
4.1674802e-05
4.3889565e-05
4.8608409e-05
5.5568277e-05
6.3440414e-05
7.0788677e-05
7.6490242e-05
7.9703726e-05
7.976073e-05
7.6085615e-05
6.8175899e-05
5.5681455e-05
3.8697816e-05
1.6620943e-05
4.1988829e-05
4.2644627e-05
4.5096424e-05
5.012897e-05
5.7267893e-05
6.5129948e-05
7.2333069e-05
7.7814662e-05
8.0775526e-05
8.057508e-05
7.6655598e-05
6.852977e-05
5.5861644e-05
3.875918e-05
1.662664e-05
4.2987901e-05
4.3708615e-05
4.6398715e-05
5.1716686e-05
5.899633e-05
6.6821437e-05
7.386552e-05
7.9121659e-05
8.1829643e-05
8.1373941e-05
7.7213581e-05
6.8875588e-05
5.6037525e-05
3.8819137e-05
1.6632367e-05
4.4079168e-05
4.4871864e-05
4.7795256e-05
5.3366139e-05
6.0749069e-05
6.8512441e-05
7.5384889e-05
8.0410759e-05
8.2866127e-05
8.215751e-05
7.7759769e-05
6.9213514e-05
5.6209189e-05
3.8877713e-05
1.663812e-05
4.5268747e-05
4.6138333e-05
4.9283705e-05
5.5071777e-05
6.2521854e-05
7.0200641e-05
7.6890077e-05
8.1681868e-05
8.3885037e-05
8.2925971e-05
7.8294356e-05
6.9543698e-05
5.6376722e-05
3.8934932e-05
1.6643896e-05
4.6561964e-05
4.7510612e-05
5.0860686e-05
5.6828017e-05
6.4310689e-05
7.1883887e-05
7.838014e-05
8.2934859e-05
8.4886444e-05
8.3679492e-05
7.8817523e-05
6.9866282e-05
5.6540201e-05
3.8990816e-05
1.6649692e-05
4.7962987e-05
4.898977e-05
5.2521933e-05
5.8629356e-05
6.6111885e-05
7.3560208e-05
7.9854054e-05
8.416951e-05
8.5870408e-05
8.4418227e-05
7.9329434e-05
7.0181392e-05
5.6699698e-05
3.9045384e-05
1.6655505e-05
4.9474481e-05
5.0575257e-05
5.4262438e-05
6.0470384e-05
6.7921892e-05
7.5227644e-05
8.1311332e-05
8.5385639e-05
8.6836982e-05
8.5142319e-05
7.9830241e-05
7.0489147e-05
5.6855278e-05
3.9098651e-05
1.6661331e-05
5.1097346e-05
5.22649e-05
5.6076617e-05
6.2345894e-05
6.9737443e-05
7.6884239e-05
8.2751348e-05
8.6583069e-05
8.7786206e-05
8.5851893e-05
8.0320081e-05
7.0789651e-05
5.7006996e-05
3.9150632e-05
1.6667168e-05
5.2830534e-05
5.4054943e-05
5.7958419e-05
6.4250781e-05
7.1555308e-05
7.85286e-05
8.4173492e-05
8.7761626e-05
8.8718107e-05
8.6547059e-05
8.0799075e-05
7.1083e-05
5.7154905e-05
3.9201339e-05
1.6673012e-05
5.4670985e-05
5.5940173e-05
5.9901486e-05
6.6180155e-05
7.337225e-05
8.0159433e-05
8.5577187e-05
8.8921127e-05
8.9632698e-05
8.7227909e-05
8.126733e-05
7.1369278e-05
5.729905e-05
3.925078e-05
1.6678861e-05
5.661367e-05
5.7914053e-05
6.1899153e-05
6.8129085e-05
7.5185695e-05
8.1775476e-05
8.6961874e-05
9.0061384e-05
9.0529973e-05
8.7894518e-05
8.1724939e-05
7.1648557e-05
5.7439467e-05
3.9298963e-05
1.6684711e-05
5.8651743e-05
5.9968914e-05
6.394454e-05
7.0092772e-05
7.6993265e-05
8.3375528e-05
8.8327006e-05
9.1182197e-05
9.1409911e-05
8.8546942e-05
8.2171977e-05
7.1920899e-05
5.757619e-05
3.9345892e-05
1.669056e-05
6.0776723e-05
6.2096029e-05
6.6030493e-05
7.2067045e-05
7.8792702e-05
8.495844e-05
8.9672042e-05
9.2283354e-05
9.2272468e-05
8.9185218e-05
8.2608504e-05
7.2186355e-05
5.7709243e-05
3.9391568e-05
1.6696404e-05
6.2978704e-05
6.4285984e-05
6.8150171e-05
7.4047889e-05
8.0581853e-05
8.6523104e-05
9.0996444e-05
9.3364625e-05
9.3117583e-05
8.9809363e-05
8.3034566e-05
7.2444963e-05
5.7838646e-05
3.9435992e-05
1.6702239e-05
6.524681e-05
6.652897e-05
7.029678e-05
7.6031426e-05
8.2358655e-05
8.8068445e-05
9.2299671e-05
9.4425764e-05
9.394517e-05
9.0419375e-05
8.345019e-05
7.2696752e-05
5.796441e-05
3.9479161e-05
1.6708064e-05
6.7569588e-05
6.8814961e-05
7.2463614e-05
7.8013908e-05
8.4121124e-05
8.9593416e-05
9.3581179e-05
9.5466508e-05
9.4755122e-05
9.101523e-05
8.3855388e-05
7.2941738e-05
5.8086543e-05
3.9521071e-05
1.6713873e-05
6.9935353e-05
7.1133918e-05
7.4644092e-05
7.9991705e-05
8.5867343e-05
9.1096996e-05
9.4840419e-05
9.6486574e-05
9.5547312e-05
9.1596885e-05
8.4250156e-05
7.3179927e-05
5.8205043e-05
3.9561714e-05
1.6719665e-05
7.233251e-05
7.3475968e-05
7.6831794e-05
8.1961292e-05
8.7595454e-05
9.2578178e-05
9.6076837e-05
9.7485661e-05
9.6321589e-05
9.2164274e-05
8.4634472e-05
7.3411312e-05
5.8319906e-05
3.960108e-05
1.6725435e-05
7.4749806e-05
7.5831565e-05
7.9020499e-05
8.3919256e-05
8.9303653e-05
9.4035976e-05
9.7289871e-05
9.8463451e-05
9.7077779e-05
9.2717313e-05
8.5008299e-05
7.3635876e-05
5.8431117e-05
3.9639158e-05
1.6731181e-05
7.7176545e-05
7.819161e-05
8.1204225e-05
8.5862284e-05
9.0990183e-05
9.546942e-05
9.8478957e-05
9.9419608e-05
9.7815691e-05
9.3255899e-05
8.5371584e-05
7.385359e-05
5.8538657e-05
3.9675933e-05
1.6736897e-05
7.9602736e-05
8.0547561e-05
8.3377266e-05
8.778718e-05
9.2653337e-05
9.6877557e-05
9.9643528e-05
0.00010035379
9.8535114e-05
9.3779908e-05
8.5724259e-05
7.4064415e-05
5.8642502e-05
3.971139e-05
1.674258e-05
8.2019192e-05
8.2891497e-05
8.5534222e-05
8.9690863e-05
9.4291453e-05
9.8259454e-05
0.00010078302
0.00010126562
9.923582e-05
9.4289202e-05
8.606624e-05
7.4268301e-05
5.8742618e-05
3.9745508e-05
1.6748227e-05
8.4417588e-05
8.5216172e-05
8.7670035e-05
9.1570385e-05
9.5902925e-05
9.9614196e-05
0.00010189687
0.00010215476
9.991757e-05
9.4783624e-05
8.6397428e-05
7.4465187e-05
5.8838969e-05
3.9778267e-05
1.6753833e-05
8.6790477e-05
8.7515029e-05
8.9780007e-05
9.3422942e-05
9.74862e-05
0.0001009409
0.00010298452
0.00010302082
0.00010058011
9.5263007e-05
8.6717716e-05
7.4655001e-05
5.8931511e-05
3.9809643e-05
1.6759394e-05
8.9131285e-05
8.9782213e-05
9.1859822e-05
9.5245884e-05
9.9039793e-05
0.00010223871
0.00010404544
0.00010386345
0.00010122319
9.5727172e-05
8.7026981e-05
7.4837667e-05
5.9020194e-05
3.983961e-05
1.6764904e-05
9.1434274e-05
9.2012551e-05
9.3905556e-05
9.7036731e-05
0.00010056229
0.00010350681
0.00010507912
0.00010468228
0.00010184655
9.6175935e-05
8.7325097e-05
7.5013097e-05
5.9104965e-05
3.9868141e-05
1.6770361e-05
9.3694503e-05
9.4201532e-05
9.5913681e-05
9.8793184e-05
0.00010205234
0.00010474441
0.00010608504
0.00010547696
0.00010244992
9.6609107e-05
8.7611926e-05
7.51812e-05
5.9185765e-05
3.9895206e-05
1.6775757e-05
9.5907766e-05
9.634527e-05
9.7881061e-05
0.00010051314
0.00010350872
0.0001059508
0.00010706277
0.00010624717
0.00010303307
9.70265e-05
8.7887332e-05
7.5341879e-05
5.9262536e-05
3.9920774e-05
1.6781088e-05
9.8070539e-05
9.8440464e-05
9.9804951e-05
0.00010219468
0.00010493026
0.00010712529
0.00010801185
0.00010699261
0.00010359576
9.742793e-05
8.8151177e-05
7.5495036e-05
5.9335213e-05
3.9944815e-05
1.678635e-05
0.00010017991
0.00010048436
0.00010168298
0.00010383611
0.00010631591
0.00010826728
0.00010893192
0.00010771299
0.00010413777
9.7813225e-05
8.8403325e-05
7.5640575e-05
5.9403734e-05
3.9967298e-05
1.6791536e-05
0.00010223354
0.00010247469
0.00010351312
0.00010543591
0.00010766474
0.00010937622
0.00010982263
0.00010840808
0.00010465891
9.8182223e-05
8.864365e-05
7.5778399e-05
5.9468037e-05
3.998819e-05
1.679664e-05
0.00010422956
0.00010440965
0.00010529371
0.0001069928
0.00010897591
0.00011045161
0.0001106837
0.00010907766
0.00010515901
9.8534782e-05
8.8872032e-05
7.590842e-05
5.9528062e-05
4.0007462e-05
1.6801658e-05
0.00010616658
0.00010628785
0.00010702339
0.00010850568
0.00011024871
0.00011149307
0.00011151487
0.00010972158
0.00010563793
9.8870781e-05
8.9088367e-05
7.6030555e-05
5.9583755e-05
4.0025086e-05
1.6806583e-05
0.00010804357
0.00010810824
0.00010870109
0.00010997365
0.00011148254
0.00011250025
0.00011231599
0.00011033972
0.00010609557
9.9190122e-05
8.9292568e-05
7.6144731e-05
5.9635064e-05
4.0041037e-05
1.6811409e-05
0.00010985986
0.00010987013
0.00011032603
0.000111396
0.00011267694
0.0001134729
0.00011308691
0.00011093201
0.00010653187
9.9492738e-05
8.9484564e-05
7.6250889e-05
5.9681947e-05
4.0055291e-05
1.6816132e-05
0.00011161509
0.00011157308
0.00011189765
0.00011277219
0.00011383152
0.00011441084
0.00011382759
0.00011149842
0.00010694681
9.977859e-05
8.9664308e-05
7.6348982e-05
5.9724368e-05
4.0067831e-05
1.6820744e-05
0.00011330914
0.00011321693
0.00011341564
0.00011410186
0.00011494605
0.00011531398
0.00011453801
0.00011203898
0.0001073404
0.00010004767
8.9831776e-05
7.6438979e-05
5.9762301e-05
4.0078643e-05
1.6825242e-05
0.00011494214
0.00011480174
0.00011487989
0.0001153848
0.00011602038
0.00011618228
0.00011521823
0.00011255376
0.00010771269
0.0001003
8.9986967e-05
7.6520865e-05
5.9795731e-05
4.0087715e-05
1.6829619e-05
0.0001165144
0.00011632774
0.00011629045
0.00011662096
0.00011705447
0.0001170158
0.00011586835
0.00011304288
0.00010806378
0.00010053565
9.0129906e-05
7.6594644e-05
5.9824653e-05
4.0095044e-05
1.683387e-05
0.0001180264
0.00011779537
0.00011764755
0.0001178104
0.00011804838
0.00011781466
0.00011648854
0.00011350652
0.00010839381
0.00010075471
9.0260645e-05
7.6660339e-05
5.9849072e-05
4.0100631e-05
1.683799e-05
0.00011947879
0.00011920517
0.00011895156
0.00011895332
0.00011900226
0.00011857903
0.00011707903
0.00011394488
0.00010870296
0.0001009573
9.0379263e-05
7.6717989e-05
5.9869007e-05
4.010448e-05
1.6841976e-05
0.0001208723
0.00012055783
0.00012020297
0.00012005002
0.00011991636
0.00011930917
0.00011764007
0.00011435823
0.00010899145
0.00010114359
9.0485864e-05
7.6767655e-05
5.9884487e-05
4.0106603e-05
1.6845823e-05
0.0001222078
0.00012185414
0.00012140239
0.00012110093
0.00012079098
0.00012000539
0.00011817199
0.00011474686
0.00010925953
0.00010131376
9.0580579e-05
7.6809418e-05
5.9895555e-05
4.0107018e-05
1.6849527e-05
0.00012348624
0.00012309498
0.0001225505
0.00012210653
0.00012162653
0.00012066806
0.00011867515
0.00011511111
0.00010950749
0.00010146805
9.0663567e-05
7.6843376e-05
5.9902266e-05
4.0105746e-05
1.6853084e-05
0.00012470864
0.00012428132
0.0001236481
0.00012306741
0.00012242346
0.00012129759
0.00011914995
0.00011545137
0.00010973565
0.0001016067
9.0735012e-05
7.6869649e-05
5.9904687e-05
4.0102816e-05
1.6856493e-05
0.0001258761
0.00012541418
0.00012469604
0.00012398423
0.00012318231
0.00012189447
0.00011959685
0.00011576804
0.00010994437
0.00010173001
9.0795121e-05
7.6888376e-05
5.9902898e-05
4.0098262e-05
1.6859749e-05
0.00012698976
0.00012649467
0.00012569525
0.00012485772
0.00012390366
0.00012245922
0.00012001633
0.00011606157
0.00011013404
0.00010183829
9.084413e-05
7.6899713e-05
5.9896992e-05
4.0092123e-05
1.6862852e-05
0.00012805083
0.00012752391
0.00012664671
0.00012568865
0.00012458815
0.0001229924
0.00012040892
0.00011633245
0.00011030509
0.00010193188
9.0882297e-05
7.6903839e-05
5.9887073e-05
4.0084444e-05
1.6865799e-05
0.00012906054
0.0001285031
0.00012755146
0.00012647787
0.00012523647
0.00012349462
0.00012077518
0.00011658118
0.00011045795
0.00010201115
9.0909901e-05
7.6900948e-05
5.9873258e-05
4.0075275e-05
1.6868589e-05
0.00013002016
0.00012943345
0.00012841057
0.00012722626
0.00012584935
0.00012396652
0.00012111569
0.00011680832
0.00011059311
0.00010207649
9.0927247e-05
7.6891253e-05
5.9855675e-05
4.0064673e-05
1.6871222e-05
0.000130931
0.00013031621
0.00012922515
0.00012793475
0.00012642758
0.00012440879
0.00012143109
0.00011701441
0.00011071106
0.00010212832
9.0934657e-05
7.6874982e-05
5.9834464e-05
4.0052697e-05
1.6873699e-05
0.00013179438
0.00013115266
0.00012999634
0.00012860431
0.00012697197
0.00012482213
0.00012172201
0.00011720005
0.00011081231
0.00010216707
9.0932473e-05
7.6852379e-05
5.9809775e-05
4.0039414e-05
1.6876018e-05
0.00013261162
0.00013194408
0.00013072531
0.00012923593
0.00012748334
0.00012520729
0.00012198912
0.00011736585
0.00011089742