/*--------------------------------*- C++ -*----------------------------------*\
| =========                 |                                                 |
| \\      /  F ield         | OpenFOAM: The Open Source CFD Toolbox           |
|  \\    /   O peration     | Version:  2506                                  |
|   \\  /    A nd           | Website:  www.openfoam.com                      |
|    \\/     M anipulation  |                                                 |
\*---------------------------------------------------------------------------*/
FoamFile
{
    version     2.0;
    format      ascii;
    arch        "LSB;label=32;scalar=64";
    class       volScalarField;
    location    "11000/water";
    object      T;
}
// * * * * * * * * * * * * * * * * * * * * * * * * * * * * * * * * * * * * * //

dimensions      [0 0 0 1 0 0 0];

internalField   nonuniform List<scalar> 
6000
(
333.15
333.15
333.15
333.15
333.15
333.15
333.15
333.15
333.15
333.15
333.15
333.14998
333.14989
333.14924
333.14255
333.15
333.15
333.15
333.15
333.15
333.15
333.15
333.15
333.15
333.15
333.14999
333.14994
333.14968
333.14816
333.13665
333.15
333.15
333.15
333.15
333.15
333.15
333.15
333.15
333.15
333.14999
333.14997
333.14987
333.14939
333.14688
333.1317
333.15
333.15
333.15
333.15
333.15
333.15
333.15
333.15
333.15
333.14999
333.14994
333.14976
333.14903
333.14547
333.12737
333.15
333.15
333.15
333.15
333.15
333.15
333.15
333.15
333.14999
333.14997
333.1499
333.14963
333.1486
333.14395
333.12349
333.15
333.15
333.15
333.15
333.15
333.15
333.15
333.15
333.14999
333.14996
333.14985
333.14947
333.14812
333.14236
333.11995
333.15
333.15
333.15
333.15
333.15
333.15
333.15
333.14999
333.14998
333.14994
333.14978
333.14929
333.1476
333.14072
333.11669
333.15
333.15
333.15
333.15
333.15
333.15
333.15
333.14999
333.14997
333.14991
333.1497
333.14909
333.14703
333.13904
333.11367
333.15
333.15
333.15
333.15
333.15
333.15
333.15
333.14999
333.14996
333.14987
333.14961
333.14886
333.14642
333.13735
333.11086
333.15
333.15
333.15
333.15
333.15
333.15
333.14999
333.14998
333.14994
333.14983
333.14951
333.14862
333.14578
333.13564
333.10823
333.15
333.15
333.15
333.15
333.15
333.15
333.14999
333.14998
333.14993
333.14978
333.1494
333.14835
333.14509
333.13394
333.10578
333.15
333.15
333.15
333.15
333.15
333.15
333.14999
333.14997
333.1499
333.14973
333.14928
333.14807
333.14436
333.13224
333.10348
333.15
333.15
333.15
333.15
333.15
333.14999
333.14998
333.14996
333.14988
333.14967
333.14915
333.14777
333.1436
333.13056
333.10133
333.15
333.15
333.15
333.15
333.15
333.14999
333.14998
333.14994
333.14985
333.14961
333.14901
333.14744
333.14279
333.12889
333.09932
333.15
333.15
333.15
333.15
333.15
333.14999
333.14997
333.14993
333.14982
333.14954
333.14886
333.1471
333.14194
333.12726
333.09745
333.15
333.15
333.15
333.15
333.15
333.14999
333.14997
333.14991
333.14978
333.14946
333.1487
333.14673
333.14105
333.12566
333.09572
333.15
333.15
333.15
333.15
333.14999
333.14998
333.14996
333.1499
333.14974
333.14938
333.14852
333.14633
333.14011
333.1241
333.09413
333.15
333.15
333.15
333.15
333.14999
333.14998
333.14995
333.14988
333.1497
333.14929
333.14834
333.1459
333.13913
333.12259
333.09266
333.15
333.15
333.15
333.15
333.14999
333.14998
333.14994
333.14985
333.14965
333.1492
333.14814
333.14545
333.13812
333.12113
333.09132
333.15
333.15
333.15
333.14999
333.14999
333.14997
333.14993
333.14983
333.1496
333.14909
333.14792
333.14496
333.13706
333.11973
333.09009
333.15
333.15
333.15
333.14999
333.14999
333.14997
333.14992
333.1498
333.14955
333.14898
333.14769
333.14443
333.13598
333.11838
333.08898
333.15
333.15
333.15
333.14999
333.14998
333.14996
333.1499
333.14977
333.14949
333.14887
333.14745
333.14387
333.13487
333.1171
333.08797
333.15
333.15
333.15
333.14999
333.14998
333.14995
333.14989
333.14974
333.14943
333.14874
333.14718
333.14326
333.13375
333.11588
333.08706
333.15
333.15
333.14999
333.14999
333.14998
333.14994
333.14987
333.14971
333.14936
333.14861
333.14689
333.14262
333.13262
333.11472
333.08623
333.15
333.15
333.14999
333.14999
333.14997
333.14993
333.14985
333.14967
333.14929
333.14847
333.14658
333.14193
333.13149
333.11363
333.08549
333.15
333.15
333.14999
333.14998
333.14997
333.14992
333.14983
333.14963
333.14921
333.14831
333.14624
333.1412
333.13037
333.1126
333.08482
333.15
333.15
333.14999
333.14998
333.14996
333.14991
333.14981
333.14959
333.14913
333.14814
333.14588
333.14044
333.12926
333.11163
333.08421
333.15
333.14999
333.14999
333.14998
333.14995
333.1499
333.14978
333.14954
333.14904
333.14796
333.14548
333.13964
333.12818
333.11071
333.08366
333.15
333.14999
333.14999
333.14998
333.14995
333.14989
333.14976
333.14949
333.14894
333.14777
333.14505
333.13882
333.12713
333.10985
333.08316
333.14999
333.14999
333.14999
333.14997
333.14994
333.14987
333.14973
333.14944
333.14884
333.14756
333.14459
333.13797
333.12611
333.10904
333.08271
333.14999
333.14999
333.14998
333.14997
333.14993
333.14986
333.1497
333.14938
333.14873
333.14733
333.1441
333.13711
333.12513
333.10827
333.08229
333.14999
333.14999
333.14998
333.14996
333.14992
333.14984
333.14967
333.14932
333.14861
333.14708
333.14357
333.13624
333.12419
333.10755
333.08191
333.14999
333.14999
333.14998
333.14996
333.14991
333.14982
333.14964
333.14926
333.14848
333.1468
333.14301
333.13537
333.12328
333.10687
333.08156
333.14999
333.14999
333.14998
333.14995
333.1499
333.1498
333.1496
333.14919
333.14834
333.14651
333.14242
333.1345
333.12241
333.10622
333.08124
333.14999
333.14998
333.14997
333.14995
333.14989
333.14978
333.14956
333.14911
333.14819
333.14619
333.14181
333.13363
333.12158
333.10561
333.08094
333.14999
333.14998
333.14997
333.14994
333.14988
333.14976
333.14952
333.14903
333.14803
333.14585
333.14117
333.13278
333.12079
333.10503
333.08067
333.14999
333.14998
333.14997
333.14993
333.14987
333.14973
333.14947
333.14894
333.14785
333.14548
333.1405
333.13195
333.12003
333.10449
333.08041
333.14998
333.14998
333.14996
333.14993
333.14985
333.14971
333.14942
333.14885
333.14766
333.14508
333.13983
333.13113
333.1193
333.10396
333.08017
333.14998
333.14998
333.14996
333.14992
333.14984
333.14968
333.14937
333.14874
333.14745
333.14466
333.13914
333.13034
333.1186
333.10347
333.07995
333.14998
333.14997
333.14995
333.14991
333.14982
333.14965
333.14931
333.14863
333.14722
333.14421
333.13844
333.12956
333.11794
333.103
333.07974
333.14998
333.14997
333.14995
333.1499
333.1498
333.14962
333.14925
333.14851
333.14697
333.14373
333.13774
333.12881
333.1173
333.10255
333.07954
333.14997
333.14996
333.14994
333.14989
333.14978
333.14958
333.14918
333.14838
333.14671
333.14324
333.13704
333.12808
333.11669
333.10212
333.07936
333.14997
333.14996
333.14993
333.14988
333.14976
333.14954
333.14911
333.14824
333.14642
333.14272
333.13634
333.12738
333.1161
333.10171
333.07919
333.14997
333.14996
333.14993
333.14986
333.14974
333.1495
333.14903
333.14808
333.14611
333.14218
333.13565
333.12669
333.11554
333.10132
333.07902
333.14996
333.14995
333.14992
333.14985
333.14972
333.14946
333.14895
333.14792
333.14578
333.14163
333.13496
333.12603
333.11499
333.10094
333.07887
333.14996
333.14995
333.14991
333.14984
333.14969
333.14941
333.14885
333.14773
333.14543
333.14107
333.13429
333.12539
333.11447
333.10059
333.07873
333.14995
333.14994
333.1499
333.14982
333.14966
333.14936
333.14876
333.14754
333.14505
333.1405
333.13363
333.12477
333.11397
333.10024
333.07859
333.14995
333.14993
333.14989
333.1498
333.14963
333.1493
333.14865
333.14732
333.14466
333.13992
333.13298
333.12417
333.11349
333.09991
333.07846
333.14994
333.14993
333.14988
333.14979
333.1496
333.14924
333.14853
333.14709
333.14425
333.13933
333.13234
333.12359
333.11303
333.09959
333.07834
333.14994
333.14992
333.14987
333.14977
333.14956
333.14917
333.1484
333.14685
333.14381
333.13875
333.13172
333.12303
333.11258
333.09929
333.07823
333.14993
333.14991
333.14986
333.14974
333.14953
333.1491
333.14826
333.14658
333.14337
333.13816
333.13111
333.12248
333.11214
333.09899
333.07812
333.14993
333.1499
333.14984
333.14972
333.14948
333.14903
333.14812
333.1463
333.14291
333.13758
333.13051
333.12196
333.11173
333.09871
333.07801
333.14992
333.14989
333.14983
333.1497
333.14944
333.14894
333.14795
333.14599
333.14243
333.137
333.12993
333.12145
333.11132
333.09844
333.07792
333.14991
333.14988
333.14981
333.14967
333.14939
333.14885
333.14778
333.14567
333.14195
333.13642
333.12936
333.12095
333.11093
333.09817
333.07782
333.1499
333.14987
333.1498
333.14964
333.14934
333.14875
333.14759
333.14534
333.14146
333.13586
333.12881
333.12047
333.11056
333.09792
333.07773
333.14989
333.14986
333.14978
333.14961
333.14928
333.14864
333.14739
333.14498
333.14096
333.13529
333.12827
333.12
333.11019
333.09767
333.07765
333.14988
333.14985
333.14976
333.14957
333.14922
333.14853
333.14717
333.14461
333.14046
333.13474
333.12774
333.11955
333.10983
333.09744
333.07757
333.14987
333.14983
333.14974
333.14954
333.14915
333.1484
333.14693
333.14423
333.13995
333.1342
333.12723
333.11911
333.10949
333.09721
333.0775
333.14986
333.14982
333.14971
333.1495
333.14908
333.14826
333.14668
333.14383
333.13944
333.13366
333.12673
333.11868
333.10916
333.09698
333.07742
333.14985
333.1498
333.14969
333.14945
333.149
333.14812
333.14642
333.14342
333.13893
333.13313
333.12624
333.11826
333.10883
333.09677
333.07736
333.14983
333.14978
333.14966
333.14941
333.14891
333.14796
333.14613
333.143
333.13843
333.13261
333.12576
333.11786
333.10852
333.09656
333.07729
333.14982
333.14976
333.14963
333.14935
333.14882
333.14778
333.14584
333.14258
333.13792
333.13211
333.1253
333.11747
333.10821
333.09636
333.07723
333.1498
333.14974
333.1496
333.1493
333.14872
333.1476
333.14553
333.14214
333.13742
333.13161
333.12484
333.11708
333.10792
333.09616
333.07717
333.14978
333.14972
333.14956
333.14924
333.14861
333.1474
333.1452
333.1417
333.13693
333.13112
333.1244
333.11671
333.10763
333.09597
333.07711
333.14976
333.1497
333.14952
333.14917
333.14849
333.14719
333.14486
333.14125
333.13644
333.13064
333.12397
333.11635
333.10735
333.09578
333.07706
333.14974
333.14967
333.14948
333.1491
333.14836
333.14696
333.14451
333.1408
333.13595
333.13016
333.12354
333.11599
333.10707
333.0956
333.07701
333.14972
333.14964
333.14944
333.14902
333.14822
333.14672
333.14414
333.14035
333.13547
333.1297
333.12313
333.11564
333.1068
333.09542
333.07696
333.14969
333.14961
333.14939
333.14894
333.14807
333.14646
333.14377
333.13989
333.13499
333.12925
333.12273
333.11531
333.10654
333.09525
333.07691
333.14967
333.14957
333.14933
333.14884
333.14791
333.14619
333.14339
333.13944
333.13452
333.1288
333.12233
333.11498
333.10629
333.09509
333.07687
333.14964
333.14954
333.14927
333.14874
333.14773
333.14591
333.143
333.13898
333.13406
333.12837
333.12195
333.11465
333.10604
333.09492
333.07682
333.1496
333.14949
333.14921
333.14864
333.14754
333.14561
333.1426
333.13853
333.1336
333.12794
333.12157
333.11434
333.1058
333.09477
333.07678
333.14957
333.14945
333.14914
333.14852
333.14734
333.1453
333.14219
333.13808
333.13315
333.12752
333.1212
333.11403
333.10556
333.09461
333.07674
333.14953
333.1494
333.14906
333.14839
333.14713
333.14498
333.14178
333.13763
333.1327
333.1271
333.12084
333.11373
333.10533
333.09446
333.0767
333.14949
333.14935
333.14898
333.14825
333.1469
333.14465
333.14137
333.13719
333.13226
333.1267
333.12048
333.11344
333.1051
333.09431
333.07666
333.14944
333.14929
333.14889
333.1481
333.14666
333.1443
333.14096
333.13675
333.13183
333.1263
333.12013
333.11315
333.10488
333.09417
333.07663
333.14939
333.14922
333.14879
333.14794
333.1464
333.14395
333.14054
333.13631
333.13141
333.12591
333.11979
333.11286
333.10466
333.09403
333.07659
333.14934
333.14915
333.14869
333.14777
333.14614
333.14359
333.14012
333.13587
333.13099
333.12553
333.11946
333.11259
333.10445
333.09389
333.07656
333.14928
333.14908
333.14857
333.14758
333.14586
333.14322
333.1397
333.13544
333.13057
333.12515
333.11913
333.11232
333.10424
333.09375
333.07652
333.14921
333.14899
333.14844
333.14738
333.14556
333.14285
333.13928
333.13501
333.13017
333.12478
333.11881
333.11205
333.10404
333.09362
333.07649
333.14914
333.1489
333.14831
333.14717
333.14526
333.14247
333.13886
333.13459
333.12977
333.12442
333.1185
333.11179
333.10384
333.09349
333.07646
333.14906
333.1488
333.14816
333.14694
333.14494
333.14208
333.13844
333.13417
333.12937
333.12407
333.11819
333.11154
333.10365
333.09336
333.07643
333.14897
333.14869
333.148
333.1467
333.14462
333.14169
333.13803
333.13376
333.12898
333.12371
333.11788
333.11129
333.10345
333.09324
333.07639
333.14887
333.14857
333.14783
333.14645
333.14428
333.1413
333.13761
333.13335
333.1286
333.12337
333.11758
333.11104
333.10326
333.09312
333.07636
333.14876
333.14844
333.14764
333.14619
333.14394
333.1409
333.1372
333.13295
333.12822
333.12303
333.11729
333.1108
333.10308
333.09299
333.07633
333.14865
333.1483
333.14744
333.14591
333.14359
333.14051
333.13679
333.13255
333.12785
333.1227
333.117
333.11056
333.1029
333.09287
333.0763
333.14852
333.14815
333.14723
333.14562
333.14323
333.14011
333.13638
333.13215
333.12748
333.12237
333.11672
333.11033
333.10272
333.09276
333.07627
333.14838
333.14798
333.147
333.14531
333.14286
333.13971
333.13597
333.13176
333.12712
333.12205
333.11644
333.1101
333.10254
333.09264
333.07624
333.14823
333.1478
333.14676
333.145
333.14249
333.13931
333.13557
333.13137
333.12677
333.12173
333.11617
333.10987
333.10237
333.09253
333.07621
333.14806
333.1476
333.1465
333.14468
333.14211
333.1389
333.13517
333.13099
333.12641
333.12142
333.1159
333.10965
333.10219
333.09241
333.07618
333.14788
333.14739
333.14623
333.14434
333.14173
333.1385
333.13477
333.13061
333.12607
333.12111
333.11563
333.10943
333.10203
333.0923
333.07615
333.14768
333.14716
333.14594
333.144
333.14134
333.1381
333.13438
333.13024
333.12573
333.1208
333.11537
333.10921
333.10186
333.09219
333.07612
333.14746
333.14691
333.14565
333.14364
333.14096
333.1377
333.13398
333.12987
333.12539
333.1205
333.11511
333.109
333.10169
333.09208
333.07609
333.14723
333.14665
333.14533
333.14328
333.14056
333.1373
333.13359
333.12951
333.12506
333.12021
333.11486
333.10879
333.10153
333.09198
333.07606
333.14698
333.14637
333.14501
333.14291
333.14017
333.1369
333.13321
333.12915
333.12473
333.11992
333.11461
333.10858
333.10137
333.09187
333.07603
333.1467
333.14608
333.14467
333.14253
333.13977
333.1365
333.13283
333.12879
333.12441
333.11963
333.11436
333.10838
333.10121
333.09176
333.07599
333.14641
333.14576
333.14431
333.14215
333.13937
333.13611
333.13245
333.12844
333.12409
333.11935
333.11412
333.10818
333.10106
333.09166
333.07596
333.1461
333.14543
333.14395
333.14176
333.13897
333.13571
333.13207
333.12809
333.12377
333.11907
333.11388
333.10798
333.1009
333.09156
333.07593
333.14578
333.14508
333.14358
333.14136
333.13857
333.13532
333.1317
333.12774
333.12346
333.11879
333.11364
333.10778
333.10075
333.09145
333.0759
333.14543
333.14472
333.14319
333.14096
333.13816
333.13493
333.13133
333.1274
333.12315
333.11852
333.11341
333.10759
333.1006
333.09135
333.07586
333.14506
333.14434
333.14279
333.14055
333.13776
333.13454
333.13096
333.12706
333.12284
333.11825
333.11318
333.10739
333.10045
333.09125
333.07583
333.14467
333.14395
333.14238
333.14014
333.13735
333.13415
333.13059
333.12673
333.12254
333.11799
333.11295
333.1072
333.1003
333.09115
333.07579
333.14427
333.14354
333.14197
333.13972
333.13695
333.13376
333.13023
333.1264
333.12224
333.11772
333.11272
333.10702
333.10015
333.09105
333.07576
333.14385
333.14312
333.14155
333.1393
333.13654
333.13337
333.12987
333.12607
333.12195
333.11746
333.1125
333.10683
333.1
333.09094
333.07572
333.14342
333.14268
333.14111
333.13888
333.13613
333.13299
333.12952
333.12574
333.12165
333.1172
333.11227
333.10664
333.09986
333.09084
333.07568
333.14297
333.14224
333.14067
333.13845
333.13573
333.13261
333.12916
333.12542
333.12137
333.11695
333.11205
333.10646
333.09972
333.09074
333.07565
333.14251
333.14178
333.14023
333.13802
333.13532
333.13223
333.12881
333.1251
333.12108
333.1167
333.11184
333.10628
333.09957
333.09064
333.07561
333.14204
333.14132
333.13978
333.13759
333.13491
333.13185
333.12846
333.12478
333.12079
333.11645
333.11162
333.1061
333.09943
333.09055
333.07557
333.14156
333.14084
333.13932
333.13716
333.1345
333.13147
333.12811
333.12447
333.12051
333.1162
333.11141
333.10592
333.09929
333.09045
333.07553
333.14107
333.14036
333.13886
333.13672
333.1341
333.13109
333.12777
333.12415
333.12023
333.11595
333.11119
333.10574
333.09915
333.09035
333.07549
333.14058
333.13988
333.1384
333.13629
333.13369
333.13072
333.12742
333.12384
333.11995
333.11571
333.11098
333.10557
333.09901
333.09025
333.07544
333.14008
333.13939
333.13793
333.13585
333.13328
333.13034
333.12708
333.12353
333.11968
333.11546
333.11077
333.10539
333.09887
333.09015
333.0754
333.13957
333.13889
333.13746
333.13541
333.13288
333.12997
333.12674
333.12323
333.11941
333.11522
333.11057
333.10522
333.09873
333.09005
333.07535
333.13906
333.1384
333.13698
333.13497
333.13247
333.12959
333.1264
333.12292
333.11913
333.11498
333.11036
333.10504
333.09859
333.08995
333.07531
333.13855
333.1379
333.13651
333.13452
333.13206
333.12922
333.12607
333.12262
333.11886
333.11475
333.11015
333.10487
333.09845
333.08985
333.07526
333.13803
333.13739
333.13603
333.13408
333.13166
333.12885
333.12573
333.12232
333.1186
333.11451
333.10995
333.1047
333.09831
333.08975
333.07521
333.13752
333.13689
333.13556
333.13364
333.13125
333.12848
333.1254
333.12202
333.11833
333.11428
333.10975
333.10453
333.09817
333.08965
333.07516
333.137
333.13639
333.13508
333.1332
333.13085
333.12812
333.12507
333.12172
333.11806
333.11404
333.10954
333.10436
333.09804
333.08954
333.07511
333.13649
333.13589
333.13461
333.13276
333.13044
333.12775
333.12474
333.12142
333.1178
333.11381
333.10934
333.10419
333.0979
333.08944
333.07506
333.13597
333.13539
333.13413
333.13232
333.13004
333.12738
333.12441
333.12113
333.11754
333.11358
333.10914
333.10402
333.09776
333.08934
333.075
333.13546
333.13489
333.13366
333.13188
333.12964
333.12702
333.12408
333.12083
333.11727
333.11335
333.10894
333.10385
333.09762
333.08923
333.07495
333.13495
333.13439
333.13319
333.13144
333.12924
333.12666
333.12375
333.12054
333.11701
333.11312
333.10874
333.10368
333.09748
333.08913
333.07489
333.13444
333.1339
333.13272
333.13101
333.12884
333.1263
333.12342
333.12025
333.11675
333.11289
333.10854
333.10351
333.09734
333.08903
333.07483
333.13394
333.13341
333.13225
333.13057
333.12844
333.12594
333.1231
333.11996
333.11649
333.11266
333.10835
333.10334
333.0972
333.08892
333.07477
333.13344
333.13292
333.13179
333.13014
333.12805
333.12558
333.12278
333.11967
333.11624
333.11243
333.10815
333.10317
333.09706
333.08881
333.07471
333.13294
333.13243
333.13133
333.12971
333.12766
333.12522
333.12245
333.11938
333.11598
333.1122
333.10795
333.103
333.09692
333.0887
333.07464
333.13245
333.13195
333.13087
333.12929
333.12726
333.12486
333.12213
333.11909
333.11572
333.11198
333.10775
333.10283
333.09678
333.0886
333.07458
333.13196
333.13147
333.13042
333.12886
333.12687
333.12451
333.12181
333.1188
333.11547
333.11175
333.10755
333.10266
333.09664
333.08849
333.07451
333.13148
333.131
333.12997
333.12844
333.12649
333.12416
333.12149
333.11852
333.11521
333.11153
333.10736
333.10249
333.0965
333.08837
333.07444
333.131
333.13053
333.12952
333.12802
333.1261
333.12381
333.12118
333.11823
333.11496
333.1113
333.10716
333.10232
333.09636
333.08826
333.07437
333.13052
333.13007
333.12907
333.12761
333.12572
333.12346
333.12086
333.11795
333.1147
333.11108
333.10696
333.10215
333.09621
333.08815
333.07429
333.13006
333.12961
333.12864
333.1272
333.12534
333.12311
333.12055
333.11766
333.11445
333.11085
333.10676
333.10198
333.09607
333.08803
333.07422
333.12959
333.12915
333.1282
333.12679
333.12496
333.12276
333.12023
333.11738
333.1142
333.11063
333.10657
333.10181
333.09593
333.08792
333.07414
333.12913
333.1287
333.12777
333.12638
333.12458
333.12242
333.11992
333.1171
333.11394
333.1104
333.10637
333.10163
333.09578
333.0878
333.07406
333.12868
333.12826
333.12734
333.12598
333.12421
333.12208
333.11961
333.11682
333.11369
333.11018
333.10617
333.10146
333.09563
333.08768
333.07397
333.12823
333.12782
333.12692
333.12558
333.12384
333.12174
333.1193
333.11654
333.11344
333.10995
333.10597
333.10129
333.09548
333.08756
333.07389
333.12778
333.12738
333.1265
333.12518
333.12347
333.1214
333.11899
333.11626
333.11319
333.10973
333.10577
333.10112
333.09534
333.08743
333.0738
333.12734
333.12695
333.12608
333.12479
333.12311
333.12107
333.11869
333.11599
333.11294
333.10951
333.10558
333.10094
333.09519
333.08731
333.07371
333.12691
333.12652
333.12567
333.12441
333.12275
333.12073
333.11838
333.11571
333.11269
333.10928
333.10538
333.10077
333.09503
333.08719
333.07362
333.12648
333.1261
333.12527
333.12402
333.12239
333.1204
333.11808
333.11543
333.11244
333.10906
333.10518
333.10059
333.09488
333.08706
333.07353
333.12606
333.12568
333.12486
333.12364
333.12203
333.12007
333.11778
333.11516
333.1122
333.10884
333.10498
333.10041
333.09473
333.08693
333.07343
333.12564
333.12527
333.12447
333.12326
333.12168
333.11975
333.11748
333.11489
333.11195
333.10861
333.10478
333.10024
333.09457
333.0868
333.07333
333.12522
333.12486
333.12407
333.12289
333.12133
333.11942
333.11718
333.11461
333.1117
333.10839
333.10458
333.10006
333.09442
333.08667
333.07323
333.12482
333.12446
333.12368
333.12252
333.12098
333.1191
333.11689
333.11434
333.11145
333.10817
333.10438
333.09988
333.09426
333.08653
333.07313
333.12441
333.12406
333.1233
333.12215
333.12064
333.11878
333.11659
333.11407
333.11121
333.10794
333.10418
333.0997
333.0941
333.0864
333.07302
333.12401
333.12367
333.12292
333.12179
333.1203
333.11846
333.1163
333.1138
333.11096
333.10772
333.10398
333.09952
333.09394
333.08626
333.07291
333.12362
333.12328
333.12254
333.12143
333.11996
333.11815
333.116
333.11354
333.11072
333.1075
333.10377
333.09934
333.09378
333.08612
333.0728
333.12323
333.1229
333.12217
333.12107
333.11962
333.11783
333.11571
333.11327
333.11047
333.10728
333.10357
333.09916
333.09362
333.08598
333.07269
333.12284
333.12252
333.1218
333.12072
333.11929
333.11752
333.11543
333.113
333.11023
333.10705
333.10337
333.09898
333.09346
333.08584
333.07257
333.12246
333.12214
333.12144
333.12037
333.11896
333.11721
333.11514
333.11274
333.10999
333.10683
333.10317
333.09879
333.0933
333.08569
333.07245
333.12209
333.12177
333.12108
333.12003
333.11863
333.1169
333.11485
333.11247
333.10974
333.10661
333.10297
333.09861
333.09313
333.08555
333.07233
333.12172
333.1214
333.12072
333.11968
333.11831
333.1166
333.11457
333.11221
333.1095
333.10639
333.10276
333.09843
333.09296
333.0854
333.07221
333.12135
333.12104
333.12037
333.11934
333.11798
333.1163
333.11429
333.11195
333.10926
333.10617
333.10256
333.09824
333.0928
333.08525
333.07209
333.12099
333.12068
333.12002
333.11901
333.11767
333.116
333.11401
333.11169
333.10902
333.10594
333.10236
333.09805
333.09263
333.0851
333.07196
333.12063
333.12033
333.11967
333.11868
333.11735
333.1157
333.11373
333.11143
333.10878
333.10572
333.10215
333.09787
333.09246
333.08495
333.07183
333.12027
333.11998
333.11933
333.11835
333.11704
333.1154
333.11345
333.11117
333.10854
333.1055
333.10195
333.09768
333.09229
333.0848
333.0717
333.11992
333.11963
333.11899
333.11802
333.11672
333.11511
333.11317
333.11091
333.1083
333.10528
333.10174
333.09749
333.09211
333.08464
333.07157
333.11957
333.11929
333.11866
333.1177
333.11642
333.11482
333.1129
333.11066
333.10806
333.10506
333.10154
333.0973
333.09194
333.08448
333.07143
333.11923
333.11895
333.11832
333.11738
333.11611
333.11453
333.11263
333.1104
333.10782
333.10484
333.10133
333.09711
333.09177
333.08433
333.0713
333.11889
333.11861
333.118
333.11706
333.11581
333.11424
333.11236
333.11015
333.10759
333.10461
333.10113
333.09692
333.09159
333.08417
333.07116
333.11856
333.11828
333.11767
333.11675
333.11551
333.11395
333.11209
333.10989
333.10735
333.10439
333.10092
333.09673
333.09141
333.08401
333.07102
333.11822
333.11795
333.11735
333.11643
333.11521
333.11367
333.11182
333.10964
333.10711
333.10417
333.10071
333.09654
333.09124
333.08384
333.07087
333.11789
333.11763
333.11703
333.11613
333.11491
333.11339
333.11155
333.10939
333.10688
333.10395
333.10051
333.09634
333.09106
333.08368
333.07073
333.11757
333.1173
333.11672
333.11582
333.11462
333.11311
333.11128
333.10914
333.10664
333.10373
333.1003
333.09615
333.09088
333.08351
333.07058
333.11725
333.11698
333.1164
333.11552
333.11432
333.11283
333.11102
333.10889
333.1064
333.10351
333.10009
333.09596
333.0907
333.08335
333.07043
333.11693
333.11667
333.11609
333.11522
333.11404
333.11255
333.11076
333.10864
333.10617
333.10329
333.09988
333.09576
333.09051
333.08318
333.07028
333.11661
333.11636
333.11579
333.11492
333.11375
333.11228
333.1105
333.10839
333.10594
333.10307
333.09968
333.09557
333.09033
333.08301
333.07013
333.1163
333.11605
333.11548
333.11462
333.11346
333.112
333.11024
333.10815
333.1057
333.10285
333.09947
333.09537
333.09015
333.08284
333.06998
333.11599
333.11574
333.11518
333.11433
333.11318
333.11173
333.10998
333.1079
333.10547
333.10262
333.09926
333.09517
333.08996
333.08267
333.06982
333.11569
333.11544
333.11488
333.11404
333.1129
333.11146
333.10972
333.10765
333.10524
333.1024
333.09905
333.09498
333.08978
333.08249
333.06967
333.11538
333.11514
333.11459
333.11375
333.11262
333.11119
333.10946
333.10741
333.105
333.10218
333.09884
333.09478
333.08959
333.08232
333.06951
333.11508
333.11484
333.11429
333.11346
333.11234
333.11093
333.10921
333.10717
333.10477
333.10196
333.09863
333.09458
333.0894
333.08214
333.06935
333.11478
333.11454
333.114
333.11318
333.11207
333.11066
333.10895
333.10692
333.10454
333.10174
333.09842
333.09438
333.08921
333.08197
333.06919
333.11449
333.11425
333.11371
333.1129
333.11179
333.1104
333.1087
333.10668
333.10431
333.10152
333.09821
333.09418
333.08902
333.08179
333.06902
333.1142
333.11396
333.11343
333.11262
333.11152
333.11014
333.10845
333.10644
333.10408
333.1013
333.098
333.09398
333.08883
333.08161
333.06886
333.11391
333.11367
333.11314
333.11234
333.11125
333.10988
333.1082
333.1062
333.10385
333.10108
333.09779
333.09378
333.08864
333.08143
333.06869
333.11362
333.11338
333.11286
333.11206
333.11098
333.10962
333.10795
333.10596
333.10362
333.10086
333.09758
333.09358
333.08845
333.08125
333.06853
333.11333
333.1131
333.11258
333.11179
333.11072
333.10936
333.1077
333.10572
333.10339
333.10064
333.09737
333.09338
333.08826
333.08107
333.06836
333.11305
333.11282
333.11231
333.11152
333.11045
333.1091
333.10745
333.10548
333.10316
333.10042
333.09716
333.09318
333.08807
333.08088
333.06819
333.11277
333.11254
333.11203
333.11125
333.11019
333.10885
333.10721
333.10525
333.10293
333.1002
333.09695
333.09298
333.08787
333.0807
333.06802
333.11249
333.11226
333.11176
333.11098
333.10993
333.10859
333.10696
333.10501
333.1027
333.09998
333.09674
333.09277
333.08768
333.08051
333.06785
333.11221
333.11199
333.11149
333.11072
333.10967
333.10834
333.10671
333.10477
333.10248
333.09976
333.09653
333.09257
333.08749
333.08033
333.06767
333.11194
333.11172
333.11122
333.11045
333.10941
333.10809
333.10647
333.10454
333.10225
333.09954
333.09632
333.09237
333.08729
333.08014
333.0675
333.11167
333.11144
333.11095
333.11019
333.10915
333.10784
333.10623
333.1043
333.10202
333.09933
333.09611
333.09216
333.08709
333.07996
333.06732
333.1114
333.11118
333.11068
333.10993
333.1089
333.10759
333.10599
333.10407
333.10179
333.09911
333.09589
333.09196
333.0869
333.07977
333.06715
333.11113
333.11091
333.11042
333.10967
333.10864
333.10734
333.10575
333.10383
333.10157
333.09889
333.09568
333.09175
333.0867
333.07958
333.06697
333.11086
333.11064
333.11016
333.10941
333.10839
333.10709
333.10551
333.1036
333.10134
333.09867
333.09547
333.09155
333.0865
333.07939
333.06679
333.1106
333.11038
333.1099
333.10915
333.10814
333.10685
333.10527
333.10337
333.10112
333.09845
333.09526
333.09134
333.0863
333.0792
333.06661
333.11033
333.11012
333.10964
333.1089
333.10789
333.1066
333.10503
333.10313
333.10089
333.09823
333.09504
333.09114
333.08611
333.07901
333.06643
333.11007
333.10986
333.10938
333.10864
333.10764
333.10636
333.10479
333.1029
333.10066
333.09801
333.09483
333.09093
333.08591
333.07882
333.06625
333.10981
333.1096
333.10912
333.10839
333.10739
333.10612
333.10455
333.10267
333.10044
333.09779
333.09462
333.09072
333.08571
333.07862
333.06607
333.10956
333.10934
333.10887
333.10814
333.10714
333.10588
333.10432
333.10244
333.10021
333.09757
333.09441
333.09052
333.08551
333.07843
333.06589
333.1093
333.10909
333.10861
333.10789
333.1069
333.10563
333.10408
333.10221
333.09999
333.09735
333.09419
333.09031
333.08531
333.07824
333.0657
333.10904
333.10883
333.10836
333.10764
333.10665
333.10539
333.10384
333.10198
333.09977
333.09714
333.09398
333.0901
333.0851
333.07804
333.06552
333.10879
333.10858
333.10811
333.10739
333.10641
333.10515
333.10361
333.10175
333.09954
333.09692
333.09377
333.0899
333.0849
333.07785
333.06533
333.10854
333.10833
333.10786
333.10714
333.10617
333.10492
333.10338
333.10152
333.09932
333.0967
333.09355
333.08969
333.0847
333.07765
333.06514
333.10829
333.10808
333.10761
333.1069
333.10592
333.10468
333.10314
333.10129
333.0991
333.09648
333.09334
333.08948
333.0845
333.07746
333.06496
333.10804
333.10783
333.10737
333.10665
333.10568
333.10444
333.10291
333.10107
333.09887
333.09626
333.09313
333.08927
333.0843
333.07726
333.06477
333.10779
333.10758
333.10712
333.10641
333.10544
333.1042
333.10268
333.10084
333.09865
333.09604
333.09291
333.08906
333.08409
333.07707
333.06458
333.10754
333.10733
333.10688
333.10617
333.1052
333.10397
333.10245
333.10061
333.09843
333.09583
333.0927
333.08886
333.08389
333.07687
333.06439