/*--------------------------------*- C++ -*----------------------------------*\
| =========                 |                                                 |
| \\      /  F ield         | OpenFOAM: The Open Source CFD Toolbox           |
|  \\    /   O peration     | Version:  2506                                  |
|   \\  /    A nd           | Website:  www.openfoam.com                      |
|    \\/     M anipulation  |                                                 |
\*---------------------------------------------------------------------------*/
FoamFile
{
    version     2.0;
    format      ascii;
    arch        "LSB;label=32;scalar=64";
    class       volVectorField;
    location    "11000/water";
    object      U;
}
// * * * * * * * * * * * * * * * * * * * * * * * * * * * * * * * * * * * * * //

dimensions      [0 1 -1 0 0 0 0];

internalField   nonuniform List<vector> 
6000
(
(0.25028648 -3.4193493e-05 5.0385861e-20)
(0.25028875 -7.4648813e-05 -5.5827795e-18)
(0.25029344 -0.00011804414 -3.4714562e-19)
(0.25030059 -0.00016540046 -9.6432099e-21)
(0.25031046 -0.00021487336 1.5201615e-19)
(0.25032332 -0.00026685039 -2.1360829e-19)
(0.25033948 -0.00032192175 -4.4741553e-19)
(0.25035939 -0.00038078672 1.0290698e-19)
(0.25038356 -0.00044434477 -1.789803e-19)
(0.25041254 -0.00051362452 -1.2717246e-19)
(0.25044587 -0.0005867756 1.6598459e-19)
(0.25047643 -0.00065822056 9.9197649e-20)
(0.25046276 -0.00078466513 1.33884e-19)
(0.25013031 -0.0015987837 -8.4856592e-21)
(0.24584996 0.0019968142 -1.3195969e-19)
(0.25104035 -3.7261305e-05 2.4518851e-19)
(0.25104514 -8.9895981e-05 -4.0568217e-18)
(0.2510558 -0.00014352114 -4.0671188e-19)
(0.25107219 -0.00020025424 4.5141695e-19)
(0.2510947 -0.0002571822 1.0775418e-18)
(0.25112368 -0.00031440571 1.2613681e-19)
(0.25115965 -0.00037188242 -4.4841238e-19)
(0.25120324 -0.00042947839 -1.0531459e-19)
(0.2512551 -0.00048709454 -1.2807967e-20)
(0.25131538 -0.00054561245 -2.0776715e-19)
(0.25138039 -0.00060405492 8.4336287e-20)
(0.25142587 -0.00063755822 1.1679262e-19)
(0.25133175 -0.00059164843 1.9617097e-19)
(0.25037931 -0.0014370973 -6.9811877e-20)
(0.24194277 0.00099520264 -1.0729966e-19)
(0.25195051 -3.6589029e-05 -2.5141277e-18)
(0.25195563 -9.0250613e-05 3.4189742e-18)
(0.25196731 -0.00014313025 8.463789e-19)
(0.25198528 -0.00019912656 -7.8972629e-19)
(0.25200977 -0.00025508716 7.0073864e-19)
(0.25204101 -0.0003112558 -6.9239521e-19)
(0.25207932 -0.00036762123 -1.0978354e-18)
(0.25212505 -0.00042413945 -9.2325516e-19)
(0.25217823 -0.00048056787 -4.552802e-19)
(0.25223708 -0.0005377572 -1.4561322e-19)
(0.25229114 -0.00060007155 -5.8598975e-19)
(0.25229033 -0.00065419842 -3.3321136e-19)
(0.25200573 -0.00054460881 -3.7680286e-19)
(0.25014357 -0.0012195308 -3.8534793e-19)
(0.23758495 0.00043820543 -2.4457528e-19)
(0.25283353 -3.7446604e-05 -1.2449458e-18)
(0.25283867 -9.3611089e-05 9.2040936e-19)
(0.25285018 -0.00014906892 6.9764744e-19)
(0.25286783 -0.00020791578 -7.5704976e-19)
(0.25289182 -0.00026672308 7.431024e-19)
(0.25292238 -0.00032582165 -6.366399e-19)
(0.25295982 -0.00038519269 -9.5825223e-19)
(0.25300432 -0.00044485276 -6.4870341e-19)
(0.25305525 -0.00050441426 -5.08132e-19)
(0.25310809 -0.00056332944 1.3329232e-19)
(0.25314261 -0.00062607506 -4.0496456e-19)
(0.25307635 -0.00069910336 -3.6026065e-19)
(0.25255493 -0.0005845712 -5.1222329e-19)
(0.24963188 -0.001063787 -3.2427491e-19)
(0.23320285 0.0001058672 -2.4692938e-19)
(0.25372643 -3.8342944e-05 1.0035992e-17)
(0.2537317 -9.6368692e-05 2.8720386e-18)
(0.25374347 -0.00015372841 1.5870149e-18)
(0.25376156 -0.00021453144 1.5214383e-18)
(0.25378616 -0.00027516439 9.512853e-19)
(0.25381749 -0.00033599427 7.1052341e-19)
(0.25385581 -0.00039694563 5.2633569e-19)
(0.25390101 -0.00045805575 3.0347384e-19)
(0.25395133 -0.00051907431 8.4942189e-20)
(0.25399821 -0.00057855465 1.1411619e-20)
(0.25400834 -0.00063773998 1.4767895e-19)
(0.25386022 -0.0007177221 -4.7528608e-20)
(0.25305737 -0.00062191547 4.7703867e-20)
(0.24895451 -0.00093835859 -8.4939882e-21)
(0.22897365 -8.3792339e-05 -5.301809e-20)
(0.25464474 -3.866162e-05 3.1921531e-18)
(0.25465014 -9.732012e-05 -5.1945239e-19)
(0.2546622 -0.00015516462 7.4020293e-19)
(0.25468073 -0.00021648309 1.64068e-18)
(0.2547059 -0.00027758564 3.9239569e-20)
(0.25473792 -0.000338881 7.0281926e-19)
(0.25477689 -0.00040025681 6.2460665e-19)
(0.25482222 -0.000461728 3.5423743e-19)
(0.25487049 -0.00052322808 2.6439492e-19)
(0.2549078 -0.000583188 2.4979894e-19)
(0.25488519 -0.00063896641 1.4951182e-19)
(0.25463685 -0.00071821651 -1.3308714e-19)
(0.25350729 -0.0006469875 1.0449414e-19)
(0.248129 -0.00083894719 -7.5837294e-20)
(0.2249409 -0.00018589273 -1.0542302e-19)
(0.25557031 -3.8595293e-05 -3.2176499e-18)
(0.25557581 -9.7309347e-05 -3.7701975e-18)
(0.25558805 -0.00015511983 -1.4743745e-18)
(0.25560682 -0.00021642526 6.790893e-19)
(0.2556323 -0.00027749359 -7.8454646e-19)
(0.25566463 -0.00033876345 4.624952e-19)
(0.25570371 -0.00040009734 2.5984732e-19)
(0.25574825 -0.00046144626 2.8692247e-19)
(0.25579256 -0.00052279714 1.5862623e-19)
(0.25581623 -0.0005828814 7.6113914e-20)
(0.25575267 -0.00063600477 1.9088155e-19)
(0.25538743 -0.00071016267 6.5370963e-20)
(0.25388915 -0.00066107344 5.2534684e-20)
(0.24716598 -0.00076077854 -1.3818309e-19)
(0.22112141 -0.00023459296 -1.5037149e-19)
(0.25649134 -3.8297106e-05 2.6989272e-18)
(0.25649692 -9.6712129e-05 1.9435531e-18)
(0.25650928 -0.00015419069 1.4898405e-18)
(0.25652824 -0.00021515485 7.095572e-19)
(0.25655393 -0.00027585718 -9.7103874e-19)
(0.25658641 -0.0003367553 -1.9789853e-19)
(0.25662528 -0.00039769653 4.6181648e-20)
(0.2566683 -0.00045856441 1.7066427e-19)
(0.25670691 -0.00051927104 8.6524137e-20)
(0.25671305 -0.00057893859 -5.1960992e-19)
(0.25660095 -0.00063003278 1.9693658e-19)
(0.25610359 -0.00069722485 2.9597352e-19)
(0.25419746 -0.0006651972 8.1100534e-20)
(0.24608527 -0.00069788903 -1.0641413e-19)
(0.21752738 -0.00025081848 -1.1687087e-19)
(0.25740382 -3.785286e-05 -1.4256459e-18)
(0.25740947 -9.5689494e-05 -9.1312614e-19)
(0.25742193 -0.00015257331 7.3390406e-19)
(0.25744104 -0.00021291358 4.8553796e-19)
(0.25746687 -0.00027297291 2.1997844e-19)
(0.25749936 -0.0003332193 -4.4578155e-20)
(0.2575377 -0.00039348924 1.6852139e-19)
(0.2575784 -0.00045361302 1.5788802e-19)
(0.25760945 -0.00051335259 3.3967961e-19)
(0.25759421 -0.00057212213 8.6399842e-20)
(0.25742635 -0.00062159363 1.1750956e-19)
(0.25678237 -0.00068144217 2.2685917e-19)
(0.25443121 -0.00066103685 7.1198583e-20)
(0.24490935 -0.00064561644 -5.6964915e-20)
(0.21416513 -0.00024776584 -1.3149195e-20)
(0.25830515 -3.7308638e-05 1.0386405e-18)
(0.25831084 -9.437277e-05 -9.2542536e-19)
(0.25832339 -0.00015047649 -1.9182756e-18)
(0.2583426 -0.00020999612 -2.1960212e-19)
(0.25836849 -0.00026922145 -4.6522498e-19)
(0.25840083 -0.00032862339 2.3688975e-19)
(0.25843826 -0.00038802595 3.460937e-19)
(0.25847573 -0.00044722018 2.1492431e-19)
(0.25849727 -0.00050579279 2.0271555e-19)
(0.25845683 -0.00056328987 1.9839879e-19)
(0.25822634 -0.00061131676 9.604133e-20)
(0.25742154 -0.00066417743 1.5847836e-19)
(0.2545896 -0.00065044234 -1.1260487e-20)
(0.24365871 -0.00060064453 -4.1509691e-20)
(0.21103455 -0.00023378679 -7.4396922e-21)
(0.259193 -3.6693881e-05 7.5422148e-18)
(0.25919873 -9.285746e-05 5.9348089e-18)
(0.25921134 -0.00014806165 -1.8080099e-18)
(0.25923061 -0.00020663289 -3.0599897e-19)
(0.25925648 -0.0002648995 2.4218339e-19)
(0.25928848 -0.00032332972 2.8109428e-19)
(0.25932457 -0.00038173097 5.0461876e-19)
(0.25935785 -0.00043986308 3.7155088e-19)
(0.25936788 -0.00049714489 1.4025087e-19)
(0.25929853 -0.00055310431 -2.1477606e-19)
(0.2589988 -0.00059970361 1.482371e-20)
(0.25801896 -0.00064623361 1.5567341e-19)
(0.25467145 -0.00063499349 -7.1465759e-20)
(0.24235144 -0.00056062195 -9.1222293e-21)
(0.20813123 -0.0002141088 1.2822842e-20)
(0.26006576 -3.6034055e-05 3.4812552e-18)
(0.26007152 -9.1214285e-05 4.7230496e-18)
(0.26008417 -0.00014544281 -3.5541323e-19)
(0.26010346 -0.00020298347 -4.6721087e-19)
(0.26012923 -0.00026021093 1.5029423e-19)
(0.2601607 -0.0003175869 4.5461808e-19)
(0.26019497 -0.00037489796 5.5436424e-19)
(0.26022303 -0.0004318747 3.7591226e-19)
(0.26021952 -0.00048779067 1.6354014e-19)
(0.26011767 -0.00054204301 -2.3181538e-19)
(0.25974224 -0.00058714002 -5.2820709e-21)
(0.25857279 -0.00062806077 4.4509791e-20)
(0.25467557 -0.00061594005 7.2144868e-20)
(0.24100379 -0.00052390611 7.8169524e-20)
(0.20544863 -0.00019196316 9.2963149e-20)
(0.2609225 -3.5349633e-05 6.3452838e-19)
(0.26092828 -8.9497286e-05 2.027826e-18)
(0.26094096 -0.00014270541 5.4877965e-19)
(0.26096023 -0.00019916671 4.9736606e-19)
(0.2609858 -0.00025530722 6.3668288e-19)
(0.2610165 -0.00031157922 6.3030081e-19)
(0.26104844 -0.00036774517 5.2057896e-19)
(0.2610702 -0.00042350433 5.5320859e-20)
(0.26105114 -0.00047801113 1.1949557e-19)
(0.26091327 -0.00053046085 4.7819496e-20)
(0.2604557 -0.00057393662 7.0921377e-20)
(0.2590814 -0.00060990566 1.8195134e-20)
(0.2546009 -0.00059424331 9.3390203e-20)
(0.23963056 -0.00048937354 7.3084314e-22)
(0.20297926 -0.00016931833 6.6676802e-20)
(0.26176274 -3.4655538e-05 4.8123441e-18)
(0.26176854 -8.7746856e-05 9.944763e-19)
(0.26178122 -0.00013991377 -9.5599155e-19)
(0.26180042 -0.00019527247 8.8642103e-19)
(0.26182568 -0.00025030306 8.191267e-19)
(0.26185536 -0.00030544608 3.295868e-19)
(0.26188442 -0.00036043768 3.9931632e-19)
(0.26189878 -0.00041494196 -6.2354077e-20)
(0.26186213 -0.00046801763 -1.6366079e-19)
(0.2616848 -0.00051862213 2.1220136e-19)
(0.26113855 -0.00056034346 2.546722e-19)
(0.25954316 -0.00059189152 4.4304955e-20)
(0.25444651 -0.0005706321 2.3584875e-20)
(0.23824529 -0.00045627776 -2.7329864e-21)
(0.20071509 -0.00014735259 -3.7026623e-21)
(0.26258633 -3.396306e-05 2.561052e-18)
(0.26259213 -8.5993781e-05 5.3029454e-19)
(0.26260479 -0.00013711719 2.1353931e-18)
(0.26262388 -0.00019136968 6.3636399e-19)
(0.2626487 -0.00024528655 -1.4014125e-18)
(0.26267708 -0.00029929459 -2.3977348e-19)
(0.26270267 -0.00035310243 3.3029601e-19)
(0.26270848 -0.00040633486 2.8235726e-19)
(0.26265224 -0.00045797299 -1.6535015e-19)
(0.26243199 -0.00050672605 1.4342122e-19)
(0.26179026 -0.00054656345 3.2836241e-19)
(0.25995633 -0.0005740675 1.1668169e-19)
(0.25421177 -0.00054566294 6.9941164e-20)
(0.23686046 -0.00042415213 2.7487437e-20)
(0.19864765 -0.0001267576 3.3149185e-20)
(0.26339335 -3.32814e-05 1.0201148e-18)
(0.26339915 -8.4262741e-05 3.9063149e-18)
(0.26341177 -0.0001343551 2.6092575e-18)
(0.26343068 -0.0001875135 8.5790115e-19)
(0.26345493 -0.00024032822 1.0167205e-18)
(0.26348171 -0.00029321054 4.8865272e-19)
(0.2635032 -0.00034584107 3.5920465e-19)
(0.2634993 -0.00039780175 3.5916246e-19)
(0.26342146 -0.00044800829 1.4618216e-19)
(0.26315482 -0.00049492779 3.7154886e-20)
(0.26241041 -0.00053276478 1.194622e-19)
(0.26031893 -0.00055643964 1.2760718e-19)
(0.2538966 -0.000519773 4.9900508e-20)
(0.23548766 -0.00039274464 1.3059351e-20)
(0.19676807 -0.00010792878 9.4206086e-20)
(0.26418413 -3.2618313e-05 3.970437e-18)
(0.26418991 -8.2574227e-05 2.6899745e-18)
(0.26420246 -0.00013166021 1.3100335e-18)
(0.26422112 -0.0001837496 9.6610217e-19)
(0.26424465 -0.00023548649 1.1982483e-18)
(0.2642695 -0.00028726512 6.4897446e-19)
(0.26428624 -0.00033873796 1.280632e-19)
(0.26427145 -0.00038944152 8.7795706e-20)
(0.26416998 -0.0004382328 2.8691047e-19)
(0.26385341 -0.00048335173 2.2604679e-20)
(0.26299854 -0.00051908846 1.1711507e-19)
(0.26062878 -0.00053898816 1.2227658e-20)
(0.25350187 -0.00049331965 -3.8082996e-20)
(0.2341376 -0.00036197184 -5.3211989e-21)
(0.19506692 -9.1079356e-05 1.94621e-20)
(0.26495914 -3.1980325e-05 3.5367441e-18)
(0.2649649 -8.094539e-05 3.100659e-18)
(0.26497734 -0.00012905989 1.7467712e-18)
(0.26499568 -0.00018011622 1.0033673e-18)
(0.26501831 -0.00023081031 1.1238566e-18)
(0.26504088 -0.00028151807 6.680342e-19)
(0.2650522 -0.00033186392 3.1508144e-19)
(0.2650253 -0.00038133727 3.6534749e-19)
(0.26489816 -0.00042873842 3.9163935e-19)
(0.26452796 -0.00047209828 2.1387559e-19)
(0.26355413 -0.00050565096 3.6486451e-20)
(0.2608835 -0.00052167636 8.6102731e-20)
(0.25302971 -0.00046660631 4.226796e-20)
(0.23282016 -0.00033188327 6.6989577e-23)
(0.19353413 -7.6303786e-05 -5.7079708e-20)
(0.26571903 -3.1372765e-05 3.1371374e-18)
(0.26572475 -7.9390279e-05 2.3737452e-18)
(0.26573705 -0.00012657659 -4.3749738e-19)
(0.26575498 -0.00017664472 2.7488552e-19)
(0.26577653 -0.00022633987 1.2765683e-18)
(0.26579644 -0.0002760185 8.9652437e-19)
(0.26580163 -0.0003252772 6.9928006e-19)
(0.26576141 -0.00037355728 4.972618e-19)
(0.26560652 -0.00041960061 4.4823645e-19)
(0.26517878 -0.00046124612 1.4896031e-19)
(0.26407657 -0.00049254343 -1.8509183e-20)
(0.26108058 -0.00050445572 1.5827334e-19)
(0.25248384 -0.000439897 1.2096987e-19)
(0.23154421 -0.00030262987 1.3314271e-19)
(0.19215888 -6.3609732e-05 -9.1072135e-20)
(0.26646455 -3.0799673e-05 7.3535655e-18)
(0.26647021 -7.7919712e-05 4.701656e-19)
(0.26648233 -0.00012422759 2.7940959e-18)
(0.26649975 -0.0001733593 1.2226266e-18)
(0.26652002 -0.00022210618 -6.414157e-19)
(0.26653688 -0.0002708044 1.5126126e-18)
(0.26653522 -0.00031902284 1.4349966e-18)
(0.26648042 -0.00036615421 1.0783943e-18)
(0.26629564 -0.00041087723 7.3604165e-19)
(0.26580617 -0.00045085191 -2.3542673e-19)
(0.26456508 -0.00047982866 5.0969178e-19)
(0.26121753 -0.00048726982 4.3201176e-19)
(0.25186982 -0.00041342264 2.9537866e-19)
(0.23031742 -0.00027443217 3.0788658e-19)
(0.1909297 -5.2932835e-05 2.1059446e-19)
(0.26719653 -3.0263688e-05 2.4758348e-18)
(0.26720212 -7.6541025e-05 -4.2422766e-19)
(0.26721401 -0.00012202465 2.6861282e-18)
(0.26723083 -0.00017027642 2.1532217e-18)
(0.2672496 -0.00021813034 8.151407e-19)
(0.26726299 -0.00026590165 1.1860718e-18)
(0.26725373 -0.0003131315 1.2058843e-18)
(0.26718309 -0.00035916374 9.8701095e-19)
(0.26696618 -0.00040260692 5.560612e-19)
(0.26641044 -0.00044094906 -6.2698273e-20)
(0.26501868 -0.00046753759 5.4279514e-19)
(0.26129202 -0.00047005901 3.7905684e-19)
(0.25119506 -0.00038738325 3.3478873e-19)
(0.2291461 -0.00024754677 2.5967604e-19)
(0.18983455 -4.4145101e-05 3.3641549e-19)
(0.26791589 -2.9765993e-05 -2.9584876e-18)
(0.26792138 -7.5257934e-05 1.778286e-18)
(0.26793299 -0.00011997377 1.2458386e-18)
(0.26794908 -0.00016740449 1.5495061e-18)
(0.26796613 -0.00021442313 2.0813317e-18)
(0.26797562 -0.00026132352 8.4216601e-20)
(0.267958 -0.00030761888 3.2576272e-19)
(0.26787018 -0.00035260382 2.5854741e-19)
(0.2676188 -0.00039480805 -4.8382257e-20)
(0.2669918 -0.00043154706 7.9677835e-20)
(0.26543617 -0.00045566687 3.2004568e-20)
(0.2613021 -0.00045276643 1.3811316e-19)
(0.2504687 -0.00036194908 1.8630135e-19)
(0.22803501 -0.00022223217 1.3429263e-19)
(0.18886112 -3.7064088e-05 1.477911e-19)
(0.26862352 -2.9306384e-05 5.5254618e-18)
(0.2686289 -7.4070664e-05 3.4292876e-18)
(0.26864017 -0.00011807533 3.7494447e-18)
(0.26865542 -0.00016474413 2.2801115e-18)
(0.26867049 -0.00021098533 1.7729618e-18)
(0.26867563 -0.00025707101 1.4735112e-18)
(0.26864885 -0.00030248607 1.0687839e-18)
(0.26854251 -0.00034647516 1.0654985e-18)
(0.26825414 -0.00038747925 4.9878985e-19)
(0.26755035 -0.00042263245 1.1776108e-20)
(0.2658161 -0.00044417905 3.78181e-19)
(0.26124652 -0.00043534493 3.8190693e-19)
(0.24970133 -0.00033726333 4.209916e-19)
(0.22698727 -0.00019871676 3.1131333e-19)
(0.18799711 -3.1466401e-05 2.7109774e-19)
(0.26932033 -2.8883462e-05 6.1671122e-18)
(0.26932558 -7.2976358e-05 4.8114206e-19)
(0.26933645 -0.00011632482 1.0912368e-18)
(0.26935072 -0.00016228909 1.935858e-18)
(0.26936357 -0.0002078089 1.6568729e-18)
(0.26936389 -0.00025313433 1.771213e-18)
(0.26932713 -0.0002977213 1.0174583e-18)
(0.26920083 -0.00034076322 1.228104e-18)
(0.2688728 -0.00038060159 7.8107204e-19)
(0.26808605 -0.00041417146 4.7414821e-19)
(0.26615679 -0.00043300583 3.140093e-19)
(0.26112496 -0.00041776402 3.5970128e-19)
(0.24890441 -0.00031344658 3.4195539e-19)
(0.22600436 -0.00017717261 2.8712775e-19)
(0.18723056 -2.7105589e-05 2.1648378e-19)
(0.27000719 -2.8494912e-05 6.1517399e-18)
(0.27001228 -7.1969747e-05 2.9346396e-18)
(0.27002267 -0.00011471385 3.3384435e-18)
(0.27003582 -0.00016002771 2.5602277e-18)
(0.27004618 -0.00020487886 1.0629673e-18)
(0.27004119 -0.00024949516 1.3517257e-18)
(0.2699936 -0.00029330263 1.1463734e-18)
(0.26984584 -0.00033544136 1.0292761e-18)
(0.26947524 -0.00037414209 8.6495056e-19)
(0.2685986 -0.00040611399 3.8142406e-19)
(0.26645635 -0.00042205446 2.4606097e-19)
(0.2609383 -0.00040001524 4.2874206e-19)
(0.24808975 -0.00029060213 3.1394222e-19)
(0.22508629 -0.00015769827 2.597922e-19)
(0.18655015 -2.3732132e-05 1.9401731e-19)
(0.27068489 -2.8137828e-05 5.0316078e-18)
(0.2706898 -7.104391e-05 3.2511431e-18)
(0.27069965 -0.00011323138 5.4476638e-18)
(0.27071153 -0.00015794463 3.7161259e-18)
(0.2707191 -0.00020217545 1.3660361e-18)
(0.27070829 -0.00024612933 2.1228766e-18)
(0.27064898 -0.00028920109 1.9023316e-18)
(0.27047818 -0.00033047455 1.5479102e-18)
(0.27006181 -0.00036805784 1.1326164e-18)
(0.26908753 -0.00039839813 2.0013452e-20)
(0.26671278 -0.00041121649 5.3034424e-19)
(0.26068881 -0.00038211516 5.8288232e-19)
(0.24726882 -0.00026882041 6.5957611e-19)
(0.22423175 -0.00014031231 4.9154216e-19)
(0.18594537 -2.1112149e-05 3.8255318e-19)
(0.27135418 -2.7809013e-05 -4.1212842e-19)
(0.27135887 -7.0191044e-05 3.9147102e-18)
(0.2713681 -0.00011186497 2.2334125e-18)
(0.27137855 -0.00015602247 2.1061985e-18)
(0.27138303 -0.00019967637 2.2034895e-18)
(0.27136587 -0.00024300949 1.2120934e-18)
(0.27129391 -0.00028538386 1.1038335e-18)
(0.27109836 -0.000325823 9.8949251e-19)
(0.27063272 -0.00036230005 4.7365819e-19)
(0.26955206 -0.00039095432 1.1978888e-19)
(0.26692403 -0.00040037784 2.6682642e-19)
(0.26038022 -0.00036410564 2.0858098e-19)
(0.24645221 -0.00024818088 4.2148162e-19)
(0.22343841 -0.00012495719 3.8067194e-19)
(0.18540672 -1.9041835e-05 3.5055816e-19)
(0.27201571 -2.7505238e-05 2.701268e-18)
(0.27202015 -6.9403103e-05 4.6143574e-18)
(0.27202866 -0.00011060176 2.1240647e-18)
(0.27203751 -0.00015424332 2.446584e-18)
(0.2720386 -0.00019735859 2.1126241e-18)
(0.27201452 -0.00024010733 1.406957e-18)
(0.27192892 -0.00028181693 1.268711e-18)
(0.2717068 -0.00032144525 9.1450061e-19)
(0.27118802 -0.00035681747 7.2361953e-19)
(0.26999119 -0.00038370884 3.8190625e-19)
(0.26708822 -0.000389429 2.8590207e-19)
(0.26001771 -0.00034605163 4.019665e-19)
(0.24564917 -0.00022875086 4.8993891e-19)
(0.22270324 -0.00011151162 5.2127963e-19)
(0.18492573 -1.7355847e-05 4.2788391e-19)
(0.27267005 -2.7223406e-05 2.4649812e-18)
(0.2726742 -6.8672273e-05 1.0162301e-18)
(0.27268192 -0.00010942927 8.8482864e-19)
(0.27268898 -0.00015258974 2.3742035e-18)
(0.27268634 -0.00019519967 2.3532495e-18)
(0.27265476 -0.00023739528 1.5759963e-18)
(0.27255447 -0.00027846699 1.3342227e-18)
(0.2723038 -0.00031730048 8.9734851e-19)
(0.27172756 -0.00035155884 7.0068129e-19)
(0.27040369 -0.00037658611 7.3069313e-19)
(0.26720375 -0.00037827411 3.2256247e-19)
(0.25960771 -0.00032803713 5.2960229e-19)
(0.24486735 -0.00021058184 4.2491207e-19)
(0.22202277 -9.9808142e-05 4.9487635e-19)
(0.18449494 -1.5929488e-05 3.0536935e-19)
(0.27331772 -2.6960669e-05 3.7727305e-18)
(0.27332155 -6.7991278e-05 2.6747517e-18)
(0.27332837 -0.00010833587 3.048007e-18)
(0.27333345 -0.00015104548 2.1282281e-18)
(0.27332673 -0.0001931787 1.2811983e-18)
(0.27328702 -0.00023484751 1.4557938e-18)
(0.27317093 -0.0002753027 1.0577878e-18)
(0.27288957 -0.0003133499 8.0159234e-19)
(0.27225107 -0.00034647443 6.7200968e-19)
(0.27078808 -0.0003695104 6.1887587e-19)
(0.26726952 -0.00036683814 5.3596509e-19)
(0.25915765 -0.0003101602 4.7186713e-19)
(0.24411266 -0.00019370463 4.3407605e-19)
(0.22139331 -8.9652401e-05 4.4622544e-19)
(0.1841079 -1.4675689e-05 1.5941074e-19)
(0.27395916 -2.6714476e-05 6.7744284e-18)
(0.27396262 -6.7353544e-05 3.9180115e-18)
(0.27396843 -0.00010731105 4.8604272e-18)
(0.27397134 -0.00014959584 3.7127167e-18)
(0.27396016 -0.00019127672 1.5546285e-18)
(0.27391168 -0.00023244055 2.2930696e-18)
(0.2737786 -0.00027229533 1.881118e-18)
(0.27346419 -0.00030955757 1.6013694e-18)
(0.27275806 -0.00034151676 1.3588143e-18)
(0.27114274 -0.00036240704 5.7396102e-19)
(0.26728512 -0.00035507154 7.282138e-19)
(0.25867552 -0.00029252748 7.3055816e-19)
(0.24338933 -0.00017812521 6.9118716e-19)
(0.22081116 -8.0841195e-05 6.8772267e-19)
(0.18375901 -1.3538671e-05 3.906595e-19)
(0.27459474 -2.648259e-05 1.140746e-19)
(0.2745978 -6.6753262e-05 4.7346894e-18)
(0.27460249 -0.0001063455 3.6091517e-18)
(0.274603 -0.0001482278 2.3463902e-18)
(0.27458699 -0.00018947691 2.5960446e-18)
(0.27452902 -0.00023015346 1.5796397e-18)
(0.27437767 -0.00026941896 1.4148201e-18)
(0.27402763 -0.00030589064 1.1541222e-18)
(0.27324789 -0.00033664079 5.941248e-19)
(0.27146593 -0.00035520381 4.6906288e-19)
(0.26725094 -0.0003429525 2.3756443e-19)
(0.25816956 -0.0002752486 4.1981525e-19)
(0.24270004 -0.00016382254 2.1341107e-19)
(0.22027275 -7.3177108e-05 2.6430215e-19)
(0.18344349 -1.2486088e-05 2.9702561e-19)
(0.27522481 -2.6263073e-05 1.4131291e-18)
(0.27522741 -6.618537e-05 3.9318765e-18)
(0.27523087 -0.00010543114 3.4573624e-18)
(0.27522875 -0.00014693 2.2480323e-18)
(0.27520748 -0.00018776456 2.4551309e-18)
(0.2751393 -0.00022796774 1.6680685e-18)
(0.27496829 -0.00026665041 1.2748978e-18)
(0.27457978 -0.00030231922 9.0746913e-19)
(0.27371976 -0.0003318036 5.1233772e-19)
(0.27175586 -0.00034783257 4.0358315e-19)
(0.26716832 -0.00033048644 2.7825155e-19)
(0.25764777 -0.00025843059 3.8306145e-19)
(0.2420462 -0.0001507494 4.2086369e-19)
(0.21977469 -6.6478882e-05 2.2743627e-19)
(0.18315725 -1.1501421e-05 2.0690077e-19)
(0.27584964 -2.6054262e-05 1.2991372e-18)
(0.27585173 -6.5645514e-05 7.3216196e-19)
(0.27585383 -0.00010456099 1.4594991e-18)
(0.27584885 -0.00014569264 2.7197984e-18)
(0.27582189 -0.00018612689 2.7370225e-18)
(0.2757427 -0.00022586726 1.6086666e-18)
(0.27555052 -0.00026396906 1.4268582e-18)
(0.27512041 -0.00029881616 8.9307404e-19)
(0.27417268 -0.00032696406 7.2533391e-19)
(0.27201082 -0.00034023145 8.1373304e-19)
(0.26703956 -0.00031770399 4.8393535e-19)
(0.25711762 -0.00024217267 3.0622614e-19)
(0.24142819 -0.0001388359 5.6456619e-19)
(0.21931381 -6.0587294e-05 3.3776766e-19)
(0.18289682 -1.0577464e-05 2.4186698e-19)
(0.27646948 -2.5854748e-05 2.150762e-18)
(0.27647102 -6.512998e-05 4.1470233e-18)
(0.27647162 -0.00010372909 3.5619759e-18)
(0.27646352 -0.0001445073 2.6268961e-18)
(0.2764304 -0.00018455289 2.0107816e-18)
(0.27633935 -0.00022383791 1.5856399e-18)
(0.27612438 -0.00026135648 1.4766701e-18)
(0.27564919 -0.00029535665 9.1663995e-19)
(0.27460555 -0.00032208225 7.1986193e-19)
(0.27222923 -0.00033234719 6.5327134e-19)
(0.26686787 -0.00030465718 6.3233038e-19)
(0.25658579 -0.00022656125 4.466093e-19)
(0.2408456 -0.00012799525 5.4207971e-19)
(0.21888719 -5.5367364e-05 4.6572687e-19)
(0.18265925 -9.7115803e-06 3.2879987e-19)
(0.27708455 -2.5663344e-05 9.0512732e-18)
(0.27708548 -6.463563e-05 4.4965806e-18)
(0.27708444 -0.0001029304 5.2118765e-18)
(0.27707294 -0.00014336686 3.9195483e-18)
(0.27703318 -0.00018303314 1.9486571e-18)
(0.27692935 -0.00022186743 2.3240509e-18)
(0.2766898 -0.00025879623 1.9868088e-18)
(0.27616569 -0.00029191777 1.4391863e-18)
(0.27501711 -0.00031711916 1.3019218e-18)
(0.27240981 -0.00032413774 5.7071161e-19)
(0.26665728 -0.00029141517 9.8646765e-19)
(0.256058 -0.00021166603 9.563158e-19)
(0.24029748 -0.00011813046 8.221758e-19)
(0.21849214 -5.0707638e-05 7.2218995e-19)
(0.18244204 -8.9025301e-06 4.5474498e-19)
(0.27769504 -2.5479044e-05 1.4310321e-18)
(0.27769529 -6.4159806e-05 4.7470435e-18)
(0.27769247 -0.00010216064 3.1975344e-18)
(0.27767729 -0.00014226521 2.9292076e-18)
(0.27763035 -0.0001815595 2.4621698e-18)
(0.27751275 -0.00021994503 1.5396561e-18)
(0.27724666 -0.00025627339 1.3640957e-18)
(0.27666938 -0.00028847796 9.8543173e-19)
(0.275406 -0.00031203633 8.3502404e-19)
(0.27255164 -0.0003155742 6.2369807e-19)
(0.26641246 -0.00027805925 5.6261413e-19)
(0.25553894 -0.0001975371 5.656659e-19)
(0.23978254 -0.00010914112 3.811832e-19)
(0.2181262 -4.6517855e-05 2.802058e-19)
(0.18224308 -8.1488519e-06 2.454373e-19)
(0.27830111 -2.5301004e-05 2.721528e-19)
(0.27830062 -6.3700269e-05 5.3741948e-18)
(0.27829586 -0.0001014162 3.0986184e-18)
(0.27827669 -0.00014119716 2.8606959e-18)
(0.278222 -0.00018012494 2.5097147e-18)
(0.27808956 -0.00021806116 1.8557791e-18)
(0.2777948 -0.00025377436 1.2739396e-18)
(0.27715962 -0.0002850166 1.1119831e-18)
(0.27577079 -0.00030679609 6.9070352e-19)
(0.27265429 -0.00030664249 5.898368e-19)
(0.26613848 -0.00026467813 5.3771382e-19)
(0.2550323 -0.00018420368 6.2981055e-19)
(0.23929925 -0.00010092915 5.537794e-19)
(0.21778713 -4.2725632e-05 4.4562759e-19)
(0.18206056 -7.448134e-06 3.2413156e-19)
(0.27890291 -2.5128514e-05 2.4846222e-18)
(0.27890162 -6.3255125e-05 1.8594089e-18)
(0.27889474 -0.000100694 2.4004398e-18)
(0.27887126 -0.00014015826 2.7511328e-18)
(0.27880821 -0.00017872331 2.8648808e-18)
(0.27865976 -0.00021620724 1.9748455e-18)
(0.27833397 -0.00025128651 1.007999e-18)
(0.27763569 -0.00028151344 1.0495329e-18)
(0.27611001 -0.00030136188 8.1582596e-19)
(0.2727179 -0.00029734385 1.0922323e-18)
(0.26584062 -0.00025136316 6.6492953e-19)
(0.25454084 -0.00017167439 5.6198221e-19)
(0.23884602 -9.3403154e-05 6.8005465e-19)
(0.21747286 -3.9273082e-05 4.8984574e-19)
(0.18189296 -6.7970302e-06 3.6863831e-19)
(0.27950056 -2.496097e-05 8.8671891e-19)
(0.2794984 -6.2822771e-05 3.9693269e-18)
(0.27948922 -9.9991428e-05 2.9116718e-18)
(0.27946108 -0.00013914466 1.4694954e-18)
(0.279389 -0.00017734922 2.6542276e-18)
(0.27922329 -0.00021437542 8.9622466e-19)
(0.27886389 -0.00024879792 4.6988697e-19)
(0.27809674 -0.00027794828 4.9625068e-19)
(0.27642222 -0.0002956992 4.6494726e-19)
(0.27274323 -0.00028769474 8.9517982e-19)
(0.2655241 -0.00023820406 2.7633927e-19)
(0.25406651 -0.00015993912 1.6834702e-19)
(0.23842119 -8.6481047e-05 7.5698395e-20)
(0.21718151 -3.6113604e-05 2.1879063e-20)
(0.18173897 -6.1914677e-06 1.3576357e-19)
(0.28009418 -2.4797855e-05 3.3536819e-18)
(0.28009107 -6.2401832e-05 3.7286834e-18)
(0.28007941 -9.9306211e-05 3.5301584e-18)
(0.28004623 -0.00013815299 1.3727353e-18)
(0.27996442 -0.00017599776 1.9203484e-18)
(0.27978006 -0.00021255837 1.1603027e-18)
(0.2793842 -0.00024629715 7.8407889e-19)
(0.27854186 -0.0002743005 6.0860171e-19)
(0.27670605 -0.00028977675 5.8795719e-19)
(0.27273166 -0.00027772559 7.3474171e-19)
(0.26519392 -0.0002252849 1.9142222e-19)
(0.25361059 -0.00014897205 1.4442532e-19)
(0.23802316 -8.0091225e-05 4.5666019e-21)
(0.21691137 -3.3209331e-05 8.6213756e-20)
(0.18159747 -5.6270922e-06 1.259094e-19)
(0.28068388 -2.463872e-05 2.4668683e-18)
(0.28067974 -6.1991113e-05 3.0636161e-18)
(0.28066539 -9.8636368e-05 2.7795232e-18)
(0.28062676 -0.00013718022 1.6343947e-18)
(0.28053445 -0.00017466447 1.5341702e-18)
(0.28032993 -0.00021074911 1.0631185e-18)
(0.27989449 -0.00024377295 8.5558478e-19)
(0.27897002 -0.0002705489 6.6253011e-19)
(0.27696025 -0.00028356785 5.5814302e-19)
(0.27268518 -0.00026747915 5.2137804e-19)
(0.26485469 -0.00021268092 3.1610978e-19)
(0.25317379 -0.00013873548 -3.1271476e-20)
(0.23765034 -7.417251e-05 1.7236214e-19)
(0.2166609 -3.0529019e-05 9.0299511e-20)
(0.18146749 -5.099557e-06 1.7751075e-19)
(0.28126974 -2.4483171e-05 2.0190256e-18)
(0.28126448 -6.1589564e-05 5.987146e-18)
(0.28124722 -9.7980132e-05 2.9696671e-18)
(0.28120271 -0.00013622363 7.2126015e-19)
(0.28109907 -0.00017334514 7.4733506e-19)
(0.28087275 -0.00020894082 2.0060564e-19)
(0.28039427 -0.00024121405 2.5054941e-19)
(0.27938014 -0.0002666715 -1.2132443e-19)
(0.27718382 -0.0002770519 -6.8594989e-21)
(0.27260633 -0.00025700811 -2.5085069e-20)
(0.26451052 -0.00020045586 -1.8066937e-19)
(0.25275643 -0.00012918377 -4.2332771e-19)
(0.23730122 -6.8673273e-05 -4.5522663e-19)
(0.21642866 -2.8046556e-05 -2.3411185e-19)
(0.18134818 -4.6048093e-06 -4.0582336e-20)
(0.28185185 -2.4330855e-05 2.4138753e-18)
(0.28184539 -6.1196248e-05 6.1367107e-18)
(0.28182498 -9.7335904e-05 2.9691611e-18)
(0.28177412 -0.00013528067 1.0779776e-18)
(0.28165823 -0.00017203573 1.0950689e-18)
(0.2814083 -0.00020712676 2.5446487e-19)
(0.28088299 -0.00023860898 1.8475064e-19)
(0.27977106 -0.00026264569 -1.2302821e-19)
(0.27737601 -0.00027021574 1.450387e-20)
(0.27249806 -0.00024637257 6.7076611e-20)
(0.26416497 -0.0001886604 -3.1449905e-19)
(0.2523585 -0.00012026722 -2.4059829e-19)
(0.23697438 -6.3550125e-05 -5.2585554e-19)
(0.21621337 -2.5739812e-05 -1.1393244e-19)
(0.18123881 -4.1392009e-06 -8.3228975e-20)
(0.28243029 -2.4181447e-05 2.124012e-18)
(0.28242252 -6.0810306e-05 5.3896987e-18)
(0.28239871 -9.6702195e-05 3.0944567e-18)
(0.28234099 -0.00013434892 2.7376982e-18)
(0.28221186 -0.00017073227 1.9955855e-18)
(0.28193636 -0.00020530013 1.2247466e-18)
(0.28136003 -0.00023594579 7.0548471e-19)
(0.2801416 -0.00025844846 6.9825257e-19)
(0.27753642 -0.00026305461 5.0383914e-19)
(0.27236366 -0.00023563725 6.6336831e-20)
(0.26382105 -0.00017733135 1.8396052e-19)
(0.25197976 -0.00011193519 2.12009e-19)
(0.23666845 -5.8766488e-05 4.7205348e-20)
(0.21601387 -2.3589917e-05 1.8966783e-19)
(0.1811387 -3.6995956e-06 6.3750885e-20)
(0.28300512 -2.4034646e-05 3.7648833e-18)
(0.28299594 -6.0430936e-05 1.6931235e-18)
(0.28296845 -9.6077594e-05 3.3117972e-18)
(0.28290332 -0.00013342601 2.6641089e-18)
(0.28275987 -0.00016943078 1.8887019e-18)
(0.28245663 -0.00020345397 1.3591071e-18)
(0.28182471 -0.00023321186 9.0172431e-19)
(0.28049056 -0.0002540569 7.2429037e-19)
(0.27766504 -0.00025557284 5.5882245e-19)
(0.27220658 -0.00022486879 3.9909145e-19)
(0.26348123 -0.00016649191 1.2367554e-19)
(0.25161982 -0.00010413863 1.7357893e-19)
(0.23638216 -5.429123e-05 9.7197292e-20)
(0.21582908 -2.1580656e-05 4.5086909e-20)
(0.18104728 -3.283339e-06 7.9289324e-20)
(0.2835764 -2.3890166e-05 5.098152e-18)
(0.28356569 -6.0057377e-05 2.9074098e-18)
(0.28353424 -9.5460736e-05 3.0340617e-18)
(0.2834611 -0.00013250961 2.5052577e-18)
(0.28330215 -0.00016812718 1.581421e-18)
(0.28296879 -0.00020158114 1.3854271e-18)