/*--------------------------------*- C++ -*----------------------------------*\
| =========                 |                                                 |
| \\      /  F ield         | OpenFOAM: The Open Source CFD Toolbox           |
|  \\    /   O peration     | Version:  2506                                  |
|   \\  /    A nd           | Website:  www.openfoam.com                      |
|    \\/     M anipulation  |                                                 |
\*---------------------------------------------------------------------------*/
FoamFile
{
    version     2.0;
    format      ascii;
    arch        "LSB;label=32;scalar=64";
    class       volScalarField;
    location    "24000/water";
    object      alphat;
}
// * * * * * * * * * * * * * * * * * * * * * * * * * * * * * * * * * * * * * //

dimensions      [1 -1 -1 0 0 0 0];

internalField   nonuniform List<scalar> 
2600
(
0.040489031
0.04048893
0.040488932
0.040488969
0.04048893
0.040488424
0.040485257
0.04046703
0.040362559
0.039762099
0.036475623
0.024118064
0.014862723
0.039376404
0.039376463
0.039376584
0.03937667
0.03937627
0.039373342
0.039357935
0.03928206
0.038918252
0.037247647
0.030707814
0.017504579
0.016810247
0.03845331
0.038453299
0.038453385
0.038453188
0.038451259
0.038441479
0.038397507
0.038208927
0.037432867
0.034484227
0.025768479
0.01464355
0.017680736
0.037674097
0.037673994
0.037673876
0.037672833
0.03766736
0.037643826
0.037549741
0.037190974
0.035896577
0.031717985
0.022022178
0.013507107
0.017935556
0.037006829
0.037006634
0.03700605
0.037003229
0.036991211
0.03694503
0.036777672
0.036201229
0.034343725
0.029136321
0.019390213
0.01332192
0.01787019
0.036428097
0.036427705
0.036426239
0.036420305
0.036397905
0.036319194
0.03605724
0.035231095
0.03281421
0.026833154
0.017684561
0.01376901
0.017658004
0.035920433
0.035919673
0.03591673
0.035905979
0.035868817
0.035747845
0.035374204
0.034281783
0.031338745
0.024847734
0.016751764
0.014701365
0.017395975
0.035470606
0.03546924
0.035464057
0.035446499
0.035390052
0.035218253
0.034721129
0.033357857
0.029935921
0.02320089
0.016491475
0.016024754
0.017137191
0.035068412
0.03506614
0.035057811
0.035031314
0.034951338
0.034722033
0.034094772
0.032463227
0.028616047
0.021918168
0.016839593
0.01764423
0.016909598
0.034705855
0.034702323
0.034689851
0.034652315
0.034545228
0.034254009
0.03349406
0.031599319
0.027389013
0.021039007
0.017742707
0.01944683
0.016725717
0.034376582
0.0343714
0.034353768
0.03430331
0.034166516
0.033811296
0.032918607
0.030765036
0.026274288
0.020612421
0.019134169
0.021310298
0.0165878
0.034075484
0.034068256
0.034044512
0.033979658
0.033811775
0.033392551
0.032367695
0.029958513
0.025310236
0.020682513
0.02092045
0.023125093
0.01649134
0.03379842
0.033788771
0.033758129
0.033677993
0.033478994
0.032997353
0.031839672
0.029180919
0.024557973
0.021270678
0.022983307
0.024813262
0.016428198
0.033542011
0.033529635
0.033491576
0.033396025
0.033167279
0.032625685
0.031331905
0.02844226
0.024095307
0.02236241
0.025195919
0.026333969
0.016389375
0.033303501
0.033288203
0.033242589
0.033132389
0.0328766
0.032277488
0.030841496
0.027768047
0.024001078
0.023903802
0.027443847
0.027676786
0.016366908
0.033080659
0.033062404
0.03300959
0.032886524
0.032607559
0.031952311
0.030367144
0.027204004
0.02433601
0.025808536
0.029640409
0.028850257
0.01635471
0.032871707
0.032850677
0.032791627
0.032658586
0.032361164
0.031649138
0.029912405
0.026815113
0.025128026
0.027972561
0.031731261
0.029871995
0.016348606
0.032675278
0.032651931
0.032588332
0.032449362
0.032138606
0.031366538
0.029490156
0.026676984
0.02636662
0.030291378
0.033689748
0.030762439
0.016345973
0.032490392
0.032465523
0.0323999
0.032260198
0.031941021
0.031103392
0.02912715
0.026861559
0.028006318
0.032674378
0.035508202
0.031541613
0.016345289
0.03231644
0.032291251
0.032227075
0.032092906
0.0317693
0.030860474
0.028866522
0.027422392
0.02997661
0.035052625
0.037189756
0.032227633
0.016345749
0.032153193
0.032129366
0.032071151
0.03194966
0.031623986
0.030643052
0.028765901
0.028384666
0.032194873
0.037379728
0.038742713
0.03283612
0.016346971
0.032000817
0.031980587
0.031933965
0.031832869
0.031505423
0.030464306
0.028890209
0.029742268
0.034578895
0.039628039
0.040177388
0.03338011
0.016348812
0.031859898
0.031846136
0.031817892
0.031745018
0.031414332
0.030348687
0.029300795
0.031461309
0.037056243
0.041783221
0.041504536
0.033870256
0.016351246
0.031731488
0.031727775
0.031725824
0.031688525
0.031353059
0.030333689
0.030044463
0.033487924
0.03956915
0.043839374
0.042734578
0.034315152
0.016354289
0.031617156
0.031627852
0.031661123
0.031665646
0.031327616
0.03046839
0.03114581
0.035757861
0.042075206
0.045795593
0.043877212
0.034721702
0.016357969
0.031519059
0.031549348
0.031627545
0.031678558
0.031350385
0.030808115
0.032604582
0.038205562
0.044545297
0.047653851
0.044941233
0.035095454
0.016362308
0.03144002
0.031495925
0.031629136
0.03172978
0.031442846
0.031406231
0.034397781
0.04077106
0.046960464
0.049417769
0.045934484
0.035440885
0.01636731
0.031383622
0.031471952
0.031670108
0.031823119
0.031637178
0.032305486
0.036485148
0.043403915
0.049308922
0.051091863
0.046863894
0.035761637
0.016372969
0.03135431
0.031482518
0.031754744
0.031965284
0.031975483
0.033531426
0.038816231
0.046064359
0.051583767
0.052681065
0.047735561
0.036060692
0.016379266
0.031357497
0.031533412
0.031887426
0.032168111
0.032505943
0.035089406
0.041337342
0.048722488
0.053781401
0.054190402
0.048554836
0.036340517
0.016386174
0.03139966
0.031631057
0.032072921
0.032450914
0.033276472
0.036965347
0.043997164
0.05135652
0.055900491
0.055624808
0.049326439
0.036603249
0.016393659
0.031488426
0.031782428
0.032317109
0.032842097
0.034327507
0.039129411
0.046750328
0.053950898
0.057941205
0.056988871
0.050054078
0.036848496
0.016401672
0.031632621
0.031994973
0.032628308
0.033378941
0.035685984
0.041541295
0.049558962
0.056494681
0.059904717
0.058286904
0.050741227
0.037078061
0.016410157
0.031842264
0.03227662
0.033019161
0.034104836
0.037361924
0.044155831
0.052392711
0.058980323
0.061792814
0.059522756
0.051390026
0.037293993
0.01641906
0.03212853
0.032636021
0.03350877
0.035064177
0.039348106
0.046927801
0.055227856
0.06140278
0.06360764
0.060699936
0.052002676
0.037497696
0.016428334
0.03250367
0.033083204
0.034124295
0.036296096
0.041622399
0.049815354
0.058046131
0.063758858
0.065351544
0.061821637
0.05258258
0.037690193
0.016437945
0.032981002
0.033630796
0.034901057
0.037828729
0.044151811
0.052781865
0.060833582
0.066046676
0.067026699
0.062889499
0.053132467
0.03787253
0.016447871
0.033575095
0.034295804
0.035880364
0.039675445
0.04689715
0.0557965
0.063579596
0.068265328
0.068635566
0.063907353
0.053654301
0.038045473
0.016458088
0.034302369
0.035101605
0.037105067
0.041833717
0.049817341
0.058833929
0.066276149
0.070414389
0.070179105
0.064878395
0.054149993
0.038209783
0.016468569
0.03518228
0.036079355
0.038613761
0.044286501
0.05287273
0.061873592
0.068917171
0.072494021
0.071660185
0.065805207
0.054621163
0.038366084
0.016479288
0.036239045
0.037267813
0.040435155
0.047005433
0.056027171
0.06489891
0.071498021
0.074503815
0.073081479
0.066690097
0.055069325
0.038514917
0.016490218
0.037503422
0.038710793
0.042584046
0.049954861
0.059248934
0.067896459
0.074015177
0.076444637
0.074445472
0.067535116
0.055495817
0.038656742
0.016501334
0.039013506
0.040452272
0.045059719
0.05309583
0.062510842
0.070855329
0.076465319
0.078317606
0.0757543
0.068342164
0.055901825
0.038791952
0.01651261
0.04081331
0.042530163
0.04784681
0.056389296
0.065789803
0.073766501
0.078846458
0.080124246
0.077009862
0.069112935
0.056288382
0.038920881
0.016524019
0.042948319
0.044970323
0.050918052
0.059798374
0.069066314
0.07662196
0.081156908
0.081865786
0.078213918
0.069848937
0.056656392
0.039043803
0.016535536
0.045458373
0.047782286
0.054237937
0.063289378
0.072323478
0.079415195
0.083396331
0.083543317
0.07936801
0.070551484
0.057006625
0.039160948
0.016547136
0.048369483
0.050957551
0.057766446
0.066832225
0.07554654
0.082140728
0.085564119
0.085157795
0.080473474
0.071221701
0.057339731
0.039272495
0.016558794
0.051686905
0.054470395
0.061462095
0.070399905
0.078721972
0.084794894
0.087659678
0.086709976
0.081531419
0.071860525
0.057656243
0.039378582
0.016570485
0.055391468
0.05828053
0.065283657
0.073967526
0.081839591
0.087374089
0.089682308
0.08820038
0.082542716
0.072468707
0.057956581
0.039479306
0.016582185
0.059440031
0.062336492
0.069190787
0.077513991
0.084890556
0.089874862
0.091631129
0.089629266
0.083507991
0.073046811
0.058241056
0.039574721
0.016593867
0.063769476
0.066579722
0.073146291
0.081021464
0.087866722
0.092293792
0.093505034
0.090996607
0.084427613
0.073595216
0.058509867
0.039664843
0.016605507
0.068304176
0.070949139
0.077116122
0.084473709
0.090760476
0.094627423
0.095302662
0.09230208
0.085301696
0.074114113
0.058763108
0.039749648
0.016617075
0.072963985
0.075384358
0.081068537
0.08785578
0.093564619
0.096872242
0.097022403
0.093545077
0.086130102
0.07460351
0.059000769
0.039829072
0.016628545
0.077671256
0.079828387
0.084974056
0.09115383
0.096272329
0.099024705
0.098662428
0.094724723
0.086912459
0.075063247
0.059222738
0.039903017
0.016639885
0.082355905
0.084229621
0.08880556
0.094355016
0.098877166
0.1010813
0.10022076
0.095839934
0.08764819
0.075493008
0.059428816
0.039971349
0.016651062
0.086958287
0.088543141
0.092538526
0.097447523
0.10137314
0.10303864
0.10169537
0.096889478
0.088336564
0.075892352
0.059618727
0.040033909
0.016662041
0.091430189
0.092731348
0.096151301
0.10042065
0.10375481
0.1048936
0.10308427
0.09787207
0.08897675
0.076260748
0.05979214
0.040090514
0.016672786
0.095734493
0.096764037
0.099625353
0.10326497
0.10601738
0.10664342
0.10438566
0.09878647
0.089567896
0.076597625
0.059948691
0.040140976
0.016683256
0.099844057
0.10061803
0.10294543
0.10597244
0.10815682
0.10828583
0.10559805
0.099631591
0.090109209
0.076902424
0.06008802
0.040185104
0.016693412
0.10374024
0.10427654
0.10609956
0.10853655
0.11016999
0.10981917
0.10672034
0.1004066
0.090600034
0.077174654
0.060209799
0.040222729
0.016703211
0.10741141
0.10772832
0.10907902
0.1109524
0.11205469
0.11124245
0.10775194
0.10111101
0.091039938
0.077413956
0.06031377
0.040253711
0.016712613
0.11085152
0.11096686
0.11187802
0.11321671
0.11380969
0.11255542
0.10869283
0.10174477
0.091428774
0.077620148
0.060399779
0.040277959
0.016721579
0.11405889
0.11398953
0.11449353
0.11532775
0.11543476
0.11375856
0.10954359
0.10230826
0.091766736
0.077793276
0.060467803
0.040295438
0.01673007
0.11703525
0.11679686
0.11692488
0.11728534
0.11693068
0.11485311
0.11030542
0.1028024
0.092054391
0.077933643
0.060517975
0.040306186
0.016738055
0.11978485
0.11939184
0.11917344
0.11909064
0.11829912
0.11584102
0.11098012
0.10322859
0.092292702
0.078041832
0.060550598
0.040310317
0.016745503
0.12231386
0.1217794
0.1212423
0.12074604
0.1195426
0.11672491
0.11157005
0.10358872
0.092483019
0.078118709
0.060566154
0.040308024
0.016752393
0.12462985
0.12396594
0.12313594
0.12225501
0.12066442
0.11750798
0.11207808
0.10388512
0.092627063
0.078165418
0.060565298
0.040299578
0.016758707
0.12674138
0.12595897
0.12485994
0.12362191
0.12166852
0.11819394
0.11250754
0.10412052
0.092726892
0.078183358
0.06054885
0.040285325
0.016764436
0.1286577
0.12776674
0.12642076
0.12485184
0.12255943
0.11878696
0.11286213
0.104298
0.092784863
0.078174162
0.06051778
0.040265675
0.016769576
0.13038849
0.12939807
0.1278255
0.1259505
0.12334208
0.11929155
0.11314585
0.10442092
0.092803577
0.078139655
0.060473182
0.040241092
0.01677413
0.13194368
0.13086212
0.12908171
0.12692402
0.1240218
0.11971249
0.11336295
0.10449284
0.092785829
0.078081817
0.06041625
0.040212083
0.01677811
0.13333329
0.1321682
0.13019725
0.12777888
0.12460416
0.12005475
0.11351783
0.1045175
0.092734553
0.078002741
0.060348252
0.040179185
0.016781528
0.13456732
0.1333257
0.13118015
0.12852172
0.12509488
0.12032344
0.11361499
0.1044987
0.092652772
0.077904595
0.0602705
0.040142949
0.016784408
0.13565567
0.13434392
0.13203849
0.12915935
0.1254998
0.12052371
0.11365897
0.10444029
0.092543546
0.077789576
0.060184326
0.04010393
0.016786771
0.13660803
0.13523208
0.13278033
0.12969858
0.12582479
0.12066071
0.1136543
0.10434612
0.092409929
0.077659882
0.060091055
0.040062679
0.016788648
0.13743386
0.13599914
0.13341362
0.13014617
0.12607565
0.12073956
0.11360543
0.10421996
0.092254933
0.077517673
0.059991985
0.040019724
0.016790069
0.13814232
0.13665386
0.13394614
0.13050881
0.12625813
0.12076526
0.11351675
0.10406552
0.092081486
0.077365047
0.059888366
0.039975571
0.016791065
0.13874226
0.13720469
0.13438549
0.13079301
0.12637785
0.1207427
0.1133925
0.10388635
0.091892414
0.077204014
0.059781389
0.039930693
0.016791671
0.13924215
0.13765976
0.13473897
0.13100512
0.12644025
0.12067661
0.11323675
0.10368588
0.091690413
0.077036482
0.059672168
0.039885527
0.016791922
0.13965013
0.13802687
0.13501366
0.13115127
0.12645061
0.12057155
0.11305342
0.10346738
0.091478031
0.076864239
0.059561738
0.039840468
0.01679185
0.13997393
0.13831346
0.1352163
0.13123734
0.12641399
0.12043186
0.11284622
0.10323391
0.091257658
0.076688944
0.059451043
0.039795872
0.01679149
0.14022093
0.13852663
0.13535335
0.13126896
0.12633523
0.1202617
0.11261868
0.10298836
0.091031516
0.076512123
0.059340938
0.039752049
0.016790873
0.14039808
0.13867307
0.13543094
0.13125151
0.12621892
0.12006499
0.1123741
0.10273344
0.090801656
0.076335162
0.059232184
0.039709272
0.016790032
0.14051199
0.13875915
0.13545489
0.13119006
0.12606945
0.11984545
0.11211558
0.10247163
0.090569953
0.076159311
0.059125452
0.03966777
0.016788996
0.14056886
0.13879086
0.13543067
0.13108944
0.12589092
0.11960654
0.11184601
0.10220524
0.09033811
0.07598568
0.059021321
0.039627733
0.016787793
0.14057452
0.13877382
0.13536346
0.13095419
0.12568721
0.11935152
0.11156805
0.10193636
0.090107653
0.075815233
0.058920239
0.039589104
0.016786448
0.14053444
0.13871333
0.13525812
0.13078858
0.12546196
0.11908343
0.11128417
0.10166691
0.089879936
0.075648796
0.058822564
0.039551833
0.016784983
0.14045375
0.13861432
0.13511918
0.13059658
0.12521856
0.11880507
0.11099662
0.10139858
0.08965613
0.075487005
0.058728316
0.039516211
0.016783417
0.14033721
0.13848141
0.1349509
0.13038194
0.12496017
0.11851902
0.11070744
0.1011329
0.089437262
0.07533044
0.058637836
0.039482364
0.016781769
0.14018928
0.1383189
0.13475724
0.13014812
0.12468969
0.11822767
0.11041848
0.1008712
0.089224122
0.075179228
0.058551559
0.039450384
0.016780059
0.14001408
0.13813078
0.13454187
0.12989834
0.12440984
0.11793319
0.11013139
0.10061462
0.089017341
0.075034063
0.05846963
0.039420321
0.016778308
0.13981546
0.13792076
0.1343082
0.12963557
0.12412309
0.11763752
0.10984763
0.10036415
0.088817462
0.074895406
0.058392177
0.039392207
0.016776531
0.13959694
0.13769227
0.13405937
0.12936257
0.1238317
0.11734244
0.10956844
0.10012042
0.088625285
0.074763502
0.058319278
0.039366055
0.016774744
0.1393618
0.13744846
0.13379829
0.12908184
0.12353772
0.1170495
0.10929484
0.099884397
0.088441275
0.074638529
0.05825097
0.039341853
0.016772961
0.13911306
0.13719223
0.13352762
0.12879566
0.12324299
0.11676003
0.10902785
0.099656857
0.088265776
0.074520601
0.058187251
0.039319577
0.016771193
0.13885345
0.13692625
0.13324977
0.12850612
0.12294912
0.11647519
0.10876852
0.099438353
0.088099042
0.074409774
0.058128083
0.039299184
0.016769451
0.13858551
0.13665294
0.13296695
0.12821501
0.1226575
0.11619632
0.10851767
0.099229322
0.08794124
0.074306048
0.058073401
0.039280622
0.016767743
0.1383115
0.13637446
0.13268106
0.12792399
0.12236967
0.11592445
0.10827594
0.099030097
0.087792466
0.074209377
0.05802311
0.039263829
0.016766077
0.13803345
0.13609276
0.13239393
0.12763472
0.1220869
0.11566049
0.10804388
0.098840918
0.087652747
0.074119668
0.057977096
0.039248736
0.016764459
0.13775322
0.13580965
0.13210727
0.12734865
0.12181031
0.1154052
0.10782191
0.098661938
0.087522047
0.074036794
0.057935224
0.039235267
0.016762894
0.13747253
0.13552682
0.13182261
0.12706707
0.12154088
0.11515921
0.10761036
0.098493236
0.08740028
0.073960593
0.057897345
0.039223345
0.016761387
0.13719294
0.13524579
0.13154135
0.12679114
0.12127945
0.11492305
0.10740946
0.098334817
0.08728731
0.073890877
0.057863298
0.039212889
0.016759941
0.13691588
0.13496793
0.1312647
0.12652185
0.12102674
0.11469712
0.10721935
0.098186625
0.087182959
0.073827435
0.057832913
0.039203814
0.016758559
0.13664262
0.13469445
0.13099377
0.12626008
0.12078334
0.11448175
0.10704012
0.098048551
0.087087015
0.073770036
0.057806014
0.039196039
0.016757243
0.1363743
0.13442646
0.13072949
0.12600656
0.12054973
0.11427717
0.10687175
0.097920431
0.086999235
0.073718434
0.057782419
0.03918948
0.016755993
0.13611192
0.1341649
0.13047271
0.12576194
0.12032632
0.11408351
0.10671419
0.097802063
0.086919349
0.073672373
0.057761944
0.039184055
0.016754811
0.13585636
0.13391059
0.13022413
0.12552672
0.12011339
0.11390085
0.10656732
0.097693203
0.086847067
0.073631587
0.057744405
0.039179683
0.016753696
0.13560838
0.13366427
0.12998436
0.12530135
0.11991116
0.11372919
0.10643097
0.097593578
0.08678208
0.073595805
0.057729618
0.039176286
0.01675265
0.13536864
0.13342652
0.12975388
0.12508615
0.11971976
0.11356848
0.10630493
0.097502884
0.086724069
0.073564751
0.057717401
0.039173787
0.01675167
0.13513767
0.13319787
0.12953311
0.12488136
0.11953925
0.11341859
0.10618895
0.097420798
0.086672702
0.073538152
0.057707575
0.039172112
0.016750757
0.13491594
0.1329787
0.12932236
0.12468716
0.11936964
0.11327936
0.10608274
0.097346975
0.086627641
0.073515731
0.057699964
0.03917119
0.016749909
0.13470379
0.13276936
0.12912187
0.12450364
0.11921085
0.11315059
0.10598599
0.097281055
0.086588543
0.073497216
0.057694396
0.039170951
0.016749125
0.13450151
0.13257007
0.12893178
0.12433084
0.11906277
0.11303202
0.10589837
0.097222667
0.086555064
0.073482337
0.057690706
0.039171331
0.016748403
0.13430929
0.13238101
0.12875218
0.12416871
0.11892524
0.11292336
0.1058195
0.097171432
0.086526859
0.073470829
0.057688732
0.039172266
0.01674774
0.13412726
0.13220227
0.12858311
0.12401717
0.11879804
0.11282432
0.10574902
0.097126964
0.086503587
0.073462434
0.057688318
0.039173696
0.016747136
0.13395549
0.13203389
0.12842451
0.12387609
0.11868093
0.11273455
0.10568654
0.097088879
0.08648491
0.073456901
0.057689316
0.039175565
0.016746588
0.13379397
0.13187583
0.12827632
0.1237453
0.11857364
0.11265369
0.10563167
0.09705679
0.086470499
0.073453988
0.057691583
0.03917782
0.016746093
0.13364266
0.13172804
0.12813839
0.12362456
0.11847586
0.11258138
0.105584
0.097030317
0.086460032
0.073453462
0.057694987
0.039180411
0.016745649
0.13350146
0.13159038
0.12801055
0.12351364
0.11838726
0.11251723
0.10554314
0.097009084
0.086453198
0.073455101
0.0576994
0.039183292
0.016745255
0.13337023
0.1314627
0.12789259
0.12341226
0.1183075
0.11246085
0.10550868
0.096992724
0.086449697
0.073458693
0.057704703
0.039186419
0.016744907
0.13324878
0.1313448
0.12778427
0.1233201
0.11823621
0.11241184
0.10548023
0.096980876
0.086449237
0.073464036
0.057710783
0.039189754
0.016744603
0.13313691
0.13123643
0.12768531
0.12323685
0.11817302
0.11236979
0.10545739
0.096973188
0.086451537
0.073470937
0.057717535
0.039193257
0.016744341
0.13303435
0.13113733
0.1275954
0.12316215
0.11811753
0.11233431
0.10543977
0.096969316
0.086456328
0.07347921
0.057724857
0.039196894
0.016744119
0.13294083
0.13104721
0.12751422
0.12309562
0.11806934
0.11230498
0.10542698
0.096968922
0.086463346
0.07348868
0.057732654
0.039200632
0.016743934
0.13285603
0.13096573
0.12744141
0.1230369
0.11802805
0.11228138
0.10541864
0.096971681
0.086472341
0.073499177
0.057740836
0.039204439
0.016743783
0.13277962
0.13089256
0.12737661
0.12298558
0.11799325
0.11226312
0.10541438
0.096977275
0.086483069
0.073510541
0.057749316
0.039208286
0.016743664
0.13271125
0.13082733
0.12731944
0.12294126
0.11796452
0.1122498
0.10541382
0.0969854
0.0864953
0.07352262
0.057758015
0.039212146
0.016743575
0.13265057
0.13076969
0.12726952
0.12290354
0.11794146
0.11224102
0.10541662
0.096995766
0.08650882
0.073535275
0.057766861
0.039215994
0.016743514
0.13259721
0.13071925
0.12722645
0.12287203
0.11792366
0.1122364
0.10542246
0.097008101
0.086523426
0.073548377
0.057775788
0.03921981
0.016743477
0.1325508
0.13067564
0.12718986
0.12284632
0.11791075
0.1122356
0.105431
0.097022152
0.086538936
0.073561811
0.057784739
0.039223576
0.016743463
0.13251097
0.13063849
0.12715935
0.12282604
0.11790235
0.11223825
0.10544196
0.097037683
0.08655518
0.073575474
0.057793663
0.039227275
0.01674347
0.13247736
0.13060743
0.12713456
0.12281081
0.1178981
0.11224404
0.10545506
0.097054479
0.086572008
0.073589275
0.057802519
0.039230898
0.016743495
0.13244961
0.13058209
0.12711511
0.12280026
0.11789765
0.11225266
0.10547004
0.097072337
0.08658928
0.07360313
0.057811269
0.039234432
0.016743538
0.13242734
0.13056209
0.12710064
0.12279404
0.11790067
0.11226381
0.10548665
0.097091071
0.086606869
0.073616968
0.05781988
0.03923787
0.016743597
0.13241019
0.13054709
0.12709078
0.1227918
0.11790684
0.1122772
0.10550466
0.097110502
0.086624654
0.073630716
0.057828321
0.039241203
0.016743669
0.13239779
0.1305367
0.12708517
0.12279318
0.11791583
0.11229255
0.10552384
0.097130461
0.086642519
0.07364431
0.05783656
0.039244422
0.016743754
0.13238978
0.13053057
0.12708345
0.12279785
0.11792732
0.11230959
0.10554397
0.097150782
0.086660355
0.073657684
0.05784457
0.03924752
0.01674385
0.13238579
0.13052832
0.12708527
0.12280546
0.11794102
0.11232807
0.10556484
0.097171309
0.086678056
0.073670776
0.057852317
0.039250468
0.016743955
0.13238545
0.13052959
0.12709025
0.12281568
0.11795662
0.11234771
0.10558624
0.097191892
0.086695521
0.073683528
0.057859773
0.039253252
0.016744067
0.1323884
0.13053403
0.12709808
0.12282819
0.11797383
0.1123683
0.105608
0.097212394
0.086712658
0.073695883
0.057866895
0.039255878
0.016744185
0.13239432
0.1305413
0.12710841
0.12284269
0.1179924
0.11238959
0.10562992
0.097232689
0.086729387
0.073707795
0.057873666
0.039258349
0.016744307
0.13240287
0.1305511
0.12712096
0.1228589
0.11801207
0.1124114
0.10565187
0.097252669
0.086745634
0.073719208
0.057880089
0.039260665
0.016744431
0.13241377
0.13056312
0.12713543
0.12287656
0.11803264
0.11243355
0.10567371
0.097272242
0.086761346
0.073730108
0.05788616
0.039262827
0.016744557
0.13242674
0.1305771
0.12715157
0.12289545
0.11805389
0.11245588
0.10569532
0.097291331
0.08677646
0.073740495
0.057891881
0.039264841
0.016744685
0.13244154
0.1305928
0.12716916
0.12291536
0.11807567
0.11247826
0.10571662
0.097309871
0.086790971
0.073750363
0.057897254
0.039266711
0.016744812
0.13245794
0.13061
0.12718797
0.1229361
0.11809781
0.11250057
0.10573751
0.097327815
0.086804872
0.073759715
0.05790229
0.039268444
0.016744939
0.13247573
0.13062847
0.12720783
0.1229575
0.11812018
0.11252271
0.10575792
0.097345148
0.086818155
0.073768556
0.057907
0.039270046
0.016745066
0.1324947
0.13064804
0.12722854
0.1229794
0.11814265
0.11254457
0.10577782
0.097361849
0.086830818
0.073776898
0.057911395
0.039271527
0.016745191
0.13251466
0.1306685
0.12724992
0.12300164
0.11816509
0.11256609
0.10579715
0.097377897
0.086842861
0.07378475
0.057915489
0.03927289
0.016745315
0.1325354
0.13068965
0.12727179
0.12302406
0.11818738
0.11258717
0.10581587
0.097393273
0.086854283
0.073792122
0.057919291
0.039274143
0.016745437
0.13255673
0.13071131
0.12729396
0.12304652
0.1182094
0.11260775
0.10583394
0.097407954
0.086865079
0.07379902
0.057922811
0.03927529
0.016745558
0.13257843
0.13073327
0.12731627
0.12306886
0.11823105
0.11262774
0.1058513
0.097421915
0.086875243
0.073805446
0.057926051
0.039276334
0.016745676
0.13260031
0.13075534
0.12733854
0.12309095
0.11825222
0.11264707
0.1058679
0.097435127
0.086884762
0.073811398
0.057929016
0.039277276
0.016745791
0.13262218
0.13077736
0.12736062
0.12311264
0.11827279
0.11266565
0.10588369
0.097447564
0.086893625
0.073816874
0.057931705
0.039278116
0.016745902
0.13264389
0.13079915
0.12738235
0.12313383
0.11829268
0.11268342
0.10589862
0.097459199
0.086901821
0.073821871
0.057934117
0.039278856
0.01674601
0.1326653
0.1308206
0.12740362
0.12315439
0.11831179
0.11270032
0.10591267
0.097470016
0.086909343
0.073826386
0.057936255
0.039279494
0.016746112
0.13268628
0.13084158
0.12742433
0.12317425
0.11833008
0.11271631
0.10592582
0.097480008
0.086916193
0.073830427
0.057938123
0.039280035
0.016746209
0.13270678
0.13086202
0.12744441
0.12319337
0.11834751
0.11273138
0.10593805
0.097489185
0.086922384
0.073834004
0.057939728
0.039280479
0.016746301
0.13272673
0.13088189
0.12746382
0.1232117
0.11836406
0.11274554
0.1059494
0.097497572
0.086927942
0.07383714
0.057941086
0.039280834
0.016746386
0.13274611
0.13090114
0.12748254
0.12322926
0.11837976
0.1127588
0.10595989
0.097505212
0.086932908
0.073839868
0.057942218
0.039281107
0.016746465
0.13276493
0.13091979
0.12750059
0.12324605
0.11839463
0.11277123
0.10596959
0.097512159
0.086937331
0.073842227
0.057943148
0.03928131
0.01674654
0.13278318
0.13093783
0.12751797
0.12326211
0.11840872
0.11278287
0.10597856
0.097518477
0.086941271
0.073844264
0.057943908
0.039281455
0.016746609
0.13280086
0.13095528
0.1275347
0.12327747
0.11842207
0.11279378
0.10598685
0.097524232
0.086944785
0.073846024
0.057944525
0.039281553
0.016746673
0.13281796
0.13097213
0.12755079
0.12329214
0.11843471
0.11280401
0.10599454
0.09752948
0.086947926
0.07384755
0.057945027
0.039281617
0.016746734
0.13283445
0.13098835
0.12756622
0.12330613
0.11844667
0.11281359
0.10600164
0.097534266
0.086950735
0.073848874
0.057945435
0.039281654
0.016746792
0.13285026
0.13100389
0.12758096
0.12331941
0.11845794
0.11282253
0.1060082
0.097538614
0.086953238
0.073850016
0.057945761
0.039281669
0.016746847
0.13286534
0.13101868
0.12759495
0.12333195
0.11846849
0.11283081
0.10601419
0.097542529
0.08695544
0.073850982
0.057946009
0.039281665
0.0167469
0.13287958
0.13103265
0.12760811
0.12334367
0.11847828
0.1128384
0.10601961
0.097545993
0.086957329
0.073851761
0.05794617
0.039281636
0.01674695
0.1328929
0.13104571
0.12762037
0.12335453
0.11848724
0.11284526
0.10602441
0.097548977
0.08695888
0.073852335
0.057946231
0.039281578
0.016746996
0.13290524
0.13105779
0.12763167
0.12336445
0.11849534
0.11285135
0.10602855
0.097551449
0.086960064
0.073852677
0.057946174
0.039281481
0.016747039
0.13291655
0.13106884
0.12764196
0.1233734
0.11850253
0.11285663
0.10603202
0.097553382
0.086960858
0.073852768
0.057945986
0.039281338
0.016747076
0.13292682
0.13107887
0.12765124
0.12338138
0.11850881
0.1128611
0.1060348
0.09755477
0.086961251
0.073852598
0.057945656
0.039281144
0.016747108
0.13293612
0.13108791
0.12765954
0.12338841
0.11851423
0.11286479
0.10603692
0.097555634
0.086961259
0.073852175
0.05794519
0.039280902
0.016747134
0.13294453
0.13109605
0.12766695
0.12339459
0.11851884
0.11286777
0.10603844
0.097556025
0.08696092
0.073851526
0.057944602
0.039280615
0.016747154
0.13295217
0.13110342
0.12767358
0.12340003
0.11852277
0.11287016
0.10603947
0.097556026
0.0869603
0.073850699
0.057943922
0.039280295
0.016747168
0.13295918
0.13111015
0.12767958
0.12340485
0.11852615
0.11287207
0.10604011
0.097555737
0.086959484
0.073849757
0.057943189
0.039279959
0.016747178
0.13296571
0.13111638
0.12768509
0.12340921
0.11852912
0.11287364
0.10604049
0.097555271
0.086958565
0.073848771
0.057942447
0.039279625
0.016747185
0.13297186
0.13112222
0.12769021
0.12341323
0.11853179
0.11287499
0.10604073
0.097554733
0.086957631
0.073847807
0.05794174
0.039279312
0.016747191
0.1329777
0.13112775
0.12769505
0.12341698
0.11853427
0.11287622
0.10604092
0.097554201
0.086956749
0.073846917
0.057941098
0.039279033
0.016747196
0.13298323
0.13113299
0.12769961
0.12342052
0.11853659
0.11287736
0.10604109
0.09755372
0.086955958
0.07384613
0.057940541
0.039278796
0.016747203
0.13298841
0.1311379
0.12770388
0.12342381
0.11853875
0.11287841
0.10604125
0.097553289
0.086955258
0.073845444
0.057940065
0.039278598
0.016747211
0.13299315
0.13114239
0.12770777
0.1234268
0.11854067
0.11287932
0.10604135
0.097552869
0.086954614
0.073844831
0.057939651
0.039278433
0.016747221
0.13299732
0.13114634
0.12771118
0.12342937
0.11854226
0.11287999
0.10604131
0.097552385
0.086953962
0.07384424
0.057939265
0.039278284
0.016747231
0.13300081
0.13114964
0.12771399
0.12343141
0.11854342
0.11288033
0.10604103
0.097551746
0.086953223
0.073843607
0.057938863
0.039278133
0.01674724
0.13300351
0.1311522
0.1277161
0.12343284
0.11854406
0.11288025
0.10604042
0.097550865
0.086952317
0.07384287
0.057938405
0.039277961
0.016747247
0.13300539
0.13115396
0.12771747
0.12343359
0.1185441
0.11287967
0.10603941
0.09754968
0.086951188
0.073841978
0.057937856
0.039277752
0.01674725
0.13300648
0.13115493
0.1277181
0.12343366
0.11854355
0.11287858
0.10603799
0.097548166
0.086949809
0.073840913
0.057937199
0.039277496
0.016747248
0.13300687
0.13115522
0.12771806
0.12343313
0.11854246
0.11287704
0.1060362
0.097546352
0.086948201
0.073839684
0.057936444
0.039277191
0.01674724
0.13300673
0.13115497
0.12771751
0.12343211
0.11854096
0.11287515
0.10603412
0.097544313
0.086946424
0.073838339
0.057935617
0.039276854
0.016747228
0.13300624
0.13115436
0.12771661
0.12343079
0.1185392
0.11287305
0.10603188
0.097542165
0.086944575
0.073836951
0.05793477
0.039276513
0.016747212
0.13300561
0.1311536
0.12771556
0.12342935
0.11853736
0.11287092
0.10602965
0.097540044
0.086942766
0.073835606
0.05793396
0.039276194
0.016747194
0.13300502
0.13115286
0.12771455
0.12342797
0.11853561
0.11286892
0.10602756
0.097538081
0.08694111
0.073834392
0.057933244
0.039275924
0.016747176
0.13300458
0.13115227
0.12771369
0.12342676
0.11853407
0.11286715
0.10602574
0.097536381
0.086939699
0.07383338
0.057932662
0.039275714
0.016747162
0.13300433
0.13115188
0.12771304
0.1234258
0.11853281
0.11286569
0.10602423
0.097534998
0.086938578
0.073832607
0.057932244
0.039275573
0.016747151
0.13300424
0.13115165
0.12771258
0.12342505
0.11853179
0.11286451
0.10602303
0.097533916
0.086937735
0.073832062