/*--------------------------------*- C++ -*----------------------------------*\
| =========                 |                                                 |
| \\      /  F ield         | OpenFOAM: The Open Source CFD Toolbox           |
|  \\    /   O peration     | Version:  2506                                  |
|   \\  /    A nd           | Website:  www.openfoam.com                      |
|    \\/     M anipulation  |                                                 |
\*---------------------------------------------------------------------------*/
FoamFile
{
    version     2.0;
    format      ascii;
    arch        "LSB;label=32;scalar=64";
    class       volScalarField;
    location    "24000/water";
    object      epsilon;
}
// * * * * * * * * * * * * * * * * * * * * * * * * * * * * * * * * * * * * * //

dimensions      [0 2 -3 0 0 0 0];

internalField   nonuniform List<scalar> 
2600
(
8.8079773e-05
8.8079245e-05
8.8079271e-05
8.807949e-05
8.8079744e-05
8.8080245e-05
8.8082926e-05
8.8104349e-05
8.8272771e-05
8.9512908e-05
9.8428186e-05
0.00017145296
0.0010138716
6.7789348e-05
6.7791881e-05
6.7793339e-05
6.7794963e-05
6.7796901e-05
6.7799886e-05
6.7810178e-05
6.7875511e-05
6.8312468e-05
7.1039872e-05
8.7857083e-05
0.00021159534
0.0014669324
5.3500886e-05
5.3503148e-05
5.3504846e-05
5.3506859e-05
5.3509287e-05
5.3513643e-05
5.3532992e-05
5.3656306e-05
5.4399641e-05
5.8506995e-05
8.1500797e-05
0.00023956052
0.0017068244
4.3127504e-05
4.3128883e-05
4.3130503e-05
4.3132598e-05
4.3135149e-05
4.3140834e-05
4.3171684e-05
4.3362646e-05
4.4413342e-05
4.9710824e-05
7.7552644e-05
0.00025818579
0.0017816909
3.539909e-05
3.5400132e-05
3.5401605e-05
3.5403513e-05
3.5405834e-05
3.5412916e-05
3.5457613e-05
3.5722605e-05
3.7073304e-05
4.3450503e-05
7.5629285e-05
0.00027290618
0.0017622817
2.9510599e-05
2.9511446e-05
2.95127e-05
2.9514227e-05
2.9516143e-05
2.9525119e-05
2.9586798e-05
2.9933924e-05
3.159515e-05
3.9095388e-05
7.5939385e-05
0.00028837858
0.0017002497
2.4935213e-05
2.4935877e-05
2.4936847e-05
2.4937875e-05
2.4939416e-05
2.4951342e-05
2.503458e-05
2.5477125e-05
2.7489448e-05
3.6318413e-05
7.8818158e-05
0.0003073199
0.0016256765
2.1318423e-05
2.1318913e-05
2.1319549e-05
2.132003e-05
2.1321464e-05
2.1338095e-05
2.144948e-05
2.2008273e-05
2.4447975e-05
3.4968795e-05
8.4593389e-05
0.00033066897
0.0015541994
1.8415642e-05
1.8415958e-05
1.8416233e-05
1.8416208e-05
1.8418091e-05
1.8442025e-05
1.8590687e-05
1.9295945e-05
2.2279378e-05
3.5010665e-05
9.3512814e-05
0.00035786641
0.0014930959
1.6054297e-05
1.6054439e-05
1.6054351e-05
1.6053968e-05
1.6057197e-05
1.6092028e-05
1.6290179e-05
1.7183376e-05
2.0872546e-05
3.6486908e-05
0.00010564207
0.00038720676
0.0014449141
1.411016e-05
1.4110129e-05
1.4109712e-05
1.4109249e-05
1.4115119e-05
1.4165612e-05
1.4429188e-05
1.5565379e-05
2.0175367e-05
3.948647e-05
0.00012074249
0.00041640751
0.0014094648
1.249217e-05
1.2491978e-05
1.249131e-05
1.24912e-05
1.2501471e-05
1.2573786e-05
1.2923263e-05
1.4374121e-05
2.0181311e-05
4.4103574e-05
0.000138194
0.0004433175
0.0013850187
1.1132483e-05
1.1132152e-05
1.1131368e-05
1.1132227e-05
1.1149209e-05
1.1251189e-05
1.1712642e-05
1.3570321e-05
2.0918928e-05
5.0386672e-05
0.00015703479
0.00046647967
0.0013691707
9.9797899e-06
9.9793621e-06
9.9786681e-06
9.9813266e-06
1.0007987e-05
1.0149541e-05
1.0756002e-05
1.3137755e-05
2.2440689e-05
5.8285038e-05
0.00017613324
0.00048532286
0.0013594869
8.994766e-06
8.994305e-06
8.9939894e-06
8.9995396e-06
9.0396464e-06
9.2332357e-06
1.0026406e-05
1.3079617e-05
2.4808572e-05
6.7609618e-05
0.00019442665
0.00050000486
0.0013539038
8.1468971e-06
8.1464947e-06
8.1469469e-06
8.1567947e-06
8.2150975e-06
8.4763588e-06
9.5087285e-06
1.3415553e-05
2.807526e-05
7.8026841e-05
0.0002111215
0.00051110137
0.0013508788
7.4122408e-06
7.412023e-06
7.4137548e-06
7.4296903e-06
7.5121568e-06
7.8606834e-06
9.1980664e-06
1.4178291e-05
3.2262331e-05
8.9094588e-05
0.00022578146
0.00051932558
0.0013493668
6.7718206e-06
6.7719549e-06
6.7756276e-06
6.7999151e-06
6.9140283e-06
7.3743439e-06
9.0987625e-06
1.5408888e-05
3.7339829e-05
0.00010033156
0.00023829849
0.00052535583
0.0013487149
6.2104575e-06
6.2111621e-06
6.2176208e-06
6.2531142e-06
6.4082476e-06
7.0110033e-06
9.2236697e-06
1.7149875e-05
4.3213605e-05
0.00011129559
0.00024879509
0.00052976262
0.0013485457
5.7159095e-06
5.7174657e-06
5.7277834e-06
5.7780724e-06
5.9859581e-06
6.7693776e-06
9.5932706e-06
1.9436232e-05
4.9726067e-05
0.00012164393
0.00025751549
0.00053299526
0.0013486594
5.2782322e-06
5.2809984e-06
5.2965329e-06
5.3661281e-06
5.6414368e-06
6.6530083e-06
1.0234238e-05
2.228513e-05
5.6672016e-05
0.00013115952
0.00026474159
0.0005353945
0.0013489619
4.889296e-06
4.893728e-06
4.9161934e-06
5.0107595e-06
5.3718124e-06
6.6701645e-06
1.1177042e-05
2.5686553e-05
6.3825677e-05
0.00013974422
0.00027074337
0.00053721257
0.0013494179
4.5424222e-06
4.549097e-06
4.5806559e-06
4.707302e-06
5.1769356e-06
6.8337316e-06
1.2452335e-05
2.9597476e-05
7.0970789e-05
0.00014739148
0.0002757568
0.0005386328
0.0013500205
4.2321037e-06
4.2417515e-06
4.2851315e-06
4.4527719e-06
5.0593678e-06
7.1609028e-06
1.4086151e-05
3.394183e-05
7.7925112e-05
0.00015415333
0.00027997823
0.00053978641
0.0013507744
3.9537926e-06
3.9673375e-06
4.0259782e-06
4.2457763e-06
5.0244498e-06
7.6724685e-06
1.6094424e-05
3.8616918e-05
8.4553951e-05
0.00016011197
0.00028356674
0.00054076615
0.0013516866
3.7037376e-06
3.7223496e-06
3.8005873e-06
4.0864974e-06
5.0804008e-06
8.3914976e-06
1.8477844e-05
4.3504911e-05
9.077206e-05
0.00016536002
0.00028664926
0.00054163684
0.0013527623
3.4788613e-06
3.504022e-06
3.6073203e-06
3.9767408e-06
5.2383695e-06
9.3412706e-06
2.1218351e-05
4.8486363e-05
9.6537093e-05
0.00016998886
0.00028932618
0.00054244334
0.0013540034
3.2766694e-06
3.3102566e-06
3.4454921e-06
3.9200366e-06
5.5123349e-06
1.0542478e-05
2.427837e-05
5.3452375e-05
0.00010183911
0.00017408281
0.00029167656
0.00054321636
0.0013554084
3.0951868e-06
3.1395803e-06
3.315394e-06
3.9217755e-06
5.9187331e-06
1.2009944e-05
2.7603266e-05
5.8312861e-05
0.0001066899
0.00017771679
0.00029376257
0.00054397675
0.0013569728
2.9329181e-06
2.991133e-06
3.2183574e-06
3.9893517e-06
6.47568e-06
1.3749403e-05
3.112658e-05
6.3000084e-05
0.00011111418
0.0001809559
0.00029563312
0.00054473837
0.0013586903
2.7888292e-06
2.8646819e-06
3.1568533e-06
4.132263e-06
7.2016967e-06
1.5755029e-05
3.4776807e-05
6.7468123e-05
0.00011514328
0.00018385585
0.00029732665
0.00054550992
0.0013605531
2.6623516e-06
2.7606642e-06
3.1346229e-06
4.362102e-06
8.1139275e-06
1.8008404e-05
3.8484155e-05
7.1689804e-05
0.00011881108
0.00018646428
0.00029887505
0.00054629402
0.0013625491
2.5534088e-06
2.680258e-06
3.1568304e-06
4.6923497e-06
9.22598e-06
2.0479254e-05
4.21859e-05
7.5652556e-05
0.00012215122
0.00018882083
0.00030030031
0.00054708344
0.001364665
2.4624667e-06
2.6254827e-06
3.2302147e-06
5.1378784e-06
1.0545685e-05
2.3127918e-05
4.5829653e-05
7.9354439e-05
0.00012519597
0.00019095973
0.00030162122
0.00054787012
0.0013668874
2.3906118e-06
2.5993266e-06
3.3632046e-06
5.7140892e-06
1.2073206e-05
2.5908984e-05
4.9374527e-05
8.2800767e-05
0.00012797522
0.0001929092
0.00030285018
0.00054865287
0.0013692048
2.3396576e-06
2.6059009e-06
3.5659451e-06
6.4356567e-06
1.3799941e-05
2.8775319e-05
5.2790669e-05
8.6001443e-05
0.00013051585
0.00019469159
0.00030399376
0.00054944273
0.0013716092
2.3122834e-06
2.6506068e-06
3.8501619e-06
7.3149533e-06
1.5708513e-05
3.1681693e-05
5.6057927e-05
8.8969441e-05
0.00013284315
0.00019632773
0.00030505437
0.00055025018
0.0013740956
2.312204e-06
2.7402971e-06
4.2287857e-06
8.3603383e-06
1.7773921e-05
3.4587408e-05
5.9163895e-05
9.1718485e-05
0.000134977
0.0001978295
0.00030604752
0.00055107622
0.0013766577
2.3443665e-06
2.8833944e-06
4.7152662e-06
9.5746048e-06
1.9965609e-05
3.7457895e-05
6.2102575e-05
9.4263947e-05
0.00013693775
0.00019920349
0.00030698675
0.00055192215
0.0013792894
2.4151613e-06
3.0899101e-06
5.3225446e-06
1.0953905e-05
2.2249994e-05
4.026506e-05
6.4872079e-05
9.6618924e-05
0.00013873802
0.00020046565
0.00030788006
0.00055278755
0.0013819844
2.5326206e-06
3.3712893e-06
6.0617312e-06
1.2487422e-05
2.4593018e-05
4.2987258e-05
6.7474462e-05
9.8797812e-05
0.00014038632
0.00020163083
0.00030873381
0.00055367121
0.0013847362
2.7065546e-06
3.7399973e-06
6.9406294e-06
1.4157864e-05
2.6962173e-05
4.5608169e-05
6.9912765e-05
0.00010081055
0.00014189658
0.00020271013
0.00030955281
0.00055457137
0.0013875384
2.9485503e-06
4.2087765e-06
7.9623508e-06
1.5942735e-05
2.9328092e-05
4.8116704e-05
7.2192972e-05
0.0001026631
0.00014328329
0.00020371266
0.00031034058
0.00055548595
0.0013903847
3.2717209e-06
4.7895539e-06
9.1242828e-06
1.7815987e-05
3.1665001e-05
5.0504533e-05
7.431848e-05
0.00010436656
0.00014455809
0.0002046458
0.0003110997
0.00055641259
0.0013932686
3.6900861e-06
5.4920735e-06
1.0417684e-05
1.9750012e-05
3.3951699e-05
5.2768184e-05
7.6289668e-05
0.00010593299
0.00014573089
0.00020551555
0.00031183196
0.00055734877
0.0013961839
4.2174853e-06
6.3224287e-06
1.1827953e-05
2.1717141e-05
3.6170246e-05
5.490116e-05
7.8113757e-05
0.00010737249
0.00014680993
0.00020632674
0.00031253851
0.0005582918
0.0013991243
4.8660269e-06
7.2817756e-06
1.3335594e-05
2.3691124e-05
3.8306688e-05
5.6898168e-05
7.9798305e-05
0.0001086939
0.00014780214
0.00020708321
0.00031321993
0.0005592389
0.0014020836
5.6442507e-06
8.3655579e-06
1.4917867e-05
2.5648782e-05
4.0344258e-05
5.8760207e-05
8.13501e-05
0.00010990478
0.00014871321
0.00020778792
0.00031387635
0.00056018712
0.0014050555
6.5553612e-06
9.5634617e-06
1.6550687e-05
2.7565322e-05
4.2272542e-05
6.0488809e-05
8.2775229e-05
0.00011101156
0.00014954783
0.00020844308
0.00031450744
0.0005611334
0.0014080338
7.596156e-06
1.0860444e-05
1.8207371e-05
2.9419103e-05
4.4084531e-05
6.2085815e-05
8.4079035e-05
0.0001120196
0.00015030969
0.00020905022
0.00031511249
0.00056207453
0.0014110119
8.7563185e-06
1.2235553e-05
1.9861234e-05
3.1193218e-05
4.5774967e-05
6.3553182e-05
8.5266114e-05
0.00011293328
0.00015100165
0.00020961024
0.00031569038
0.00056300711
0.0014139831
1.0017526e-05
1.3664338e-05
2.1488451e-05
3.2873861e-05
4.7340056e-05
6.489287e-05
8.634035e-05
0.00011375612
0.00015162581
0.00021012347
0.00031623966
0.00056392755
0.0014169405
1.1355905e-05
1.5121215e-05
2.3068174e-05
3.4450181e-05
4.8777292e-05
6.6106815e-05
8.7304988e-05
0.00011449085
0.00015218355
0.00021058975
0.00031675852
0.00056483205
0.0014198766
1.274427e-05
1.6581085e-05
2.4582906e-05
3.5914126e-05
5.0085358e-05
6.7196974e-05
8.8162742e-05
0.00011513953
0.00015267569
0.00021100843
0.00031724483
0.00056571655
0.0014227834
1.4154487e-05
1.8020642e-05
2.6018607e-05
3.7260268e-05
5.1264095e-05
6.8165417e-05
8.8915937e-05
0.0001157037
0.00015310254
0.00021137849
0.00031769617
0.00056657678
0.0014256524
1.5559586e-05
1.9419306e-05
2.736461e-05
3.8485601e-05
5.2314494e-05
6.9014454e-05
8.956667e-05
0.00011618451
0.00015346401
0.0002116986
0.00031810991
0.00056740826
0.0014284744
1.6935345e-05
2.0759792e-05
2.8613382e-05
3.9589307e-05
5.3238674e-05
6.9746762e-05
9.0116994e-05
0.00011658289
0.00015375983
0.00021196725
0.00031848325
0.00056820637
0.0014312397
1.8261274e-05
2.202833e-05
2.976021e-05
4.0572482e-05
5.4039846e-05
7.0365501e-05
9.0569084e-05
0.00011689976
0.00015398962
0.00021218285
0.00031881339
0.00056896643
0.0014339378
1.9521053e-05
2.321464e-05
3.0802839e-05
4.1437845e-05
5.4722232e-05
7.0874397e-05
9.0925397e-05
0.00011713614
0.00015415308
0.00021234391
0.00031909761
0.00056968383
0.001436558
2.070252e-05
2.4311693e-05
3.174109e-05
4.2189439e-05
5.5290942e-05
7.1277778e-05
9.1188797e-05
0.00011729337
0.00015425016
0.00021244917
0.00031933343
0.00057035415
0.0014390893
2.1797374e-05
2.5315358e-05
3.2576493e-05
4.2832336e-05
5.5751832e-05
7.1580563e-05
9.1362632e-05
0.0001173732
0.00015428121
0.00021249775
0.00031951875
0.00057097335
0.0014415209
2.2800697e-05
2.6223987e-05
3.3311945e-05
4.3372365e-05
5.6111341e-05
7.1788224e-05
9.1450783e-05
0.00011737787
0.00015424705
0.00021248928
0.00031965203
0.00057153792
0.001443842
2.3710406e-05
2.7037981e-05
3.3951391e-05
4.3815877e-05
5.6376319e-05
7.1906696e-05
9.1457662e-05
0.00011731023
0.00015414912
0.00021242402
0.00031973235
0.00057204502
0.0014460428
2.4526704e-05
2.7759363e-05
3.4499557e-05
4.4169532e-05
5.6553873e-05
7.1942287e-05
9.1388175e-05
0.00011717368
0.00015398952
0.00021230292
0.00031975956
0.00057249259
0.0014481141
2.5251563e-05
2.8391405e-05
3.4961709e-05
4.4440133e-05
5.6651216e-05
7.1901563e-05
9.124766e-05
0.00011697222
0.000153771
0.00021212769
0.00031973429
0.00057287947
0.0014500482
2.5888278e-05
2.8938288e-05
3.5343457e-05
4.4634488e-05
5.6675548e-05
7.1791238e-05
9.1041806e-05
0.00011671034
0.00015349695
0.00021190076
0.000319658
0.00057320543
0.0014518387
2.6441082e-05
2.9404817e-05
3.5650593e-05
4.4759305e-05
5.6633951e-05
7.161807e-05
9.0776558e-05
0.000116393
0.00015317137
0.00021162527
0.00031953295
0.00057347116
0.0014534809
2.6914834e-05
2.9796197e-05
3.5888958e-05
4.4821108e-05
5.6533307e-05
7.1388769e-05
9.0458016e-05
0.00011602548
0.00015279874
0.00021130498
0.00031936213
0.00057367825
0.001454972
2.731477e-05
3.0117836e-05
3.6064345e-05
4.4826185e-05
5.6380238e-05
7.1109907e-05
9.0092346e-05
0.00011561336
0.00015238399
0.0002109442
0.00031914914
0.0005738291
0.0014563107
2.764631e-05
3.037521e-05
3.6182416e-05
4.4780538e-05
5.6181061e-05
7.0787859e-05
8.9685681e-05
0.00011516233
0.00015193234
0.00021054765
0.00031889813
0.00057392679
0.0014574977
2.791491e-05
3.0573745e-05
3.6248644e-05
4.4689865e-05
5.5941756e-05
7.0428744e-05
8.9244051e-05
0.00011467816
0.0001514492
0.00021012035
0.00031861364
0.000573975
0.0014585351
2.8125954e-05
3.0718739e-05
3.6268274e-05
4.4559537e-05
5.5667948e-05
7.0038383e-05
8.8773302e-05
0.00011416657
0.00015094006
0.00020966751
0.00031830046
0.00057397784
0.001459427
2.8284672e-05
3.08153e-05
3.6246293e-05
4.4394595e-05
5.53649e-05
6.9622268e-05
8.8279045e-05
0.00011363314
0.00015041038
0.00020919439
0.00031796351
0.00057393973
0.0014601782
2.839609e-05
3.0868311e-05
3.6187413e-05
4.4199747e-05
5.5037505e-05
6.9185542e-05
8.7766605e-05
0.00011308328
0.00014986552
0.00020870617
0.00031760772
0.00057386524
0.0014607953
2.8464989e-05
3.0882397e-05
3.609606e-05
4.3979368e-05
5.4690294e-05
6.8732988e-05
8.7240987e-05
0.0001125221
0.00014931061
0.00020820791
0.0003172379
0.00057375899
0.0014612853
2.8495886e-05
3.0861914e-05
3.5976372e-05
4.3737514e-05
5.4327439e-05
6.8269018e-05
8.6706846e-05
0.00011195444
0.00014875054
0.0002077044
0.00031685868
0.00057362554
0.0014616562
2.8493019e-05
3.0810941e-05
3.5832201e-05
4.3477922e-05
5.3952764e-05
6.7797679e-05
8.6168474e-05
0.00011138475
0.00014818984
0.00020720013
0.0003164744
0.00057346929
0.0014619165
2.8460348e-05
3.0733278e-05
3.5667115e-05
4.320403e-05
5.3569758e-05
6.7322654e-05
8.562979e-05
0.00011081716
0.0001476327
0.00020669925
0.00031608906
0.00057329443
0.0014620749
2.8401552e-05
3.0632452e-05
3.5484409e-05
4.2918982e-05
5.3181585e-05
6.6847273e-05
8.5094338e-05
0.00011025537
0.00014708291
0.00020620548
0.00031570629
0.00057310485
0.0014621402
2.8320038e-05
3.0511722e-05
3.5287113e-05
4.2625646e-05
5.2791105e-05
6.6374523e-05
8.4565289e-05
0.00010970271
0.00014654385
0.00020572217
0.00031532934
0.00057290415
0.0014621215
2.8218947e-05
3.0374089e-05
3.5078004e-05
4.2326624e-05
5.2400884e-05
6.5907063e-05
8.4045453e-05
0.00010916211
0.0001460185
0.00020525221
0.00031496101
0.00057269558
0.0014620274
2.8101168e-05
3.0222306e-05
3.4859616e-05
4.2024267e-05
5.2013209e-05
6.5447238e-05
8.3537289e-05
0.00010863613
0.00014550942
0.00020479809
0.00031460372
0.00057248206
0.0014618664
2.7969347e-05
3.0058892e-05
3.4634252e-05
4.1720692e-05
5.1630112e-05
6.4997101e-05
8.3042924e-05
0.00010812694
0.00014501877
0.00020436187
0.00031425949
0.00057226615
0.0014616467
2.7825898e-05
2.988614e-05
3.4403999e-05
4.1417791e-05
5.1253376e-05
6.4558422e-05
8.2564166e-05
0.00010763639
0.00014454834
0.00020394523
0.00031392996
0.00057205009
0.0014613762
2.7673023e-05
2.9706133e-05
3.4170739e-05
4.1117248e-05
5.0884558e-05
6.4132714e-05
8.2102528e-05
0.00010716596
0.00014409957
0.00020354948
0.00031361638
0.00057183575
0.0014610621
2.7512717e-05
2.9520756e-05
3.393616e-05
4.0820551e-05
5.0525003e-05
6.3721248e-05
8.1659244e-05
0.00010671685
0.00014367354
0.0002031756
0.00031331979
0.00057162449
0.001460711
2.7346784e-05
2.9331708e-05
3.3701772e-05
4.0529008e-05
5.0175858e-05
6.332507e-05
8.1235295e-05
0.00010628995
0.00014327104
0.00020282423
0.0003130407
0.00057141641
0.0014603285
2.717685e-05
2.9140515e-05
3.3468916e-05
4.0243755e-05
4.9838089e-05
6.2945025e-05
8.0831428e-05
0.00010588593
0.00014289261
0.00020249588
0.00031277953
0.00057120927
0.0014599197
2.7004376e-05
2.8948538e-05
3.3238777e-05
3.9965773e-05
4.9512495e-05
6.2581763e-05
8.0448175e-05
0.00010550517
0.00014253849
0.00020219043
0.00031253534
0.00057100468
0.0014594897
2.6830665e-05
2.8756992e-05
3.3012392e-05
3.9695898e-05
4.919972e-05
6.2235775e-05
8.0085893e-05
0.00010514793
0.00014220886
0.000201908
0.00031230611
0.0005708057
0.0014590437
2.6656881e-05
2.8566949e-05
3.2790669e-05
3.9434835e-05
4.8900274e-05
6.1907396e-05
7.9744767e-05
0.00010481423
0.00014190343
0.00020164698
0.00031209274
0.00057061389
0.0014585869
2.6484051e-05
2.8379354e-05
3.2574389e-05
3.9183165e-05
4.8614537e-05
6.1596822e-05
7.9424814e-05
0.00010450388
0.0001416217
0.00020140638
0.00031189574
0.00057043041
0.0014581236
2.6313084e-05
2.8195033e-05
3.236422e-05
3.8941361e-05
4.8342783e-05
6.1304144e-05
7.9125968e-05
0.00010421666
0.0001413622
0.0002011862
0.00031171519
0.00057025603
0.0014576577
2.6144775e-05
2.8014703e-05
3.2160729e-05
3.8709799e-05
4.8085184e-05
6.1029338e-05
7.8847983e-05
0.00010395152
0.00014112445
0.00020098611
0.00031155093
0.00057009121
0.0014571929
2.5979814e-05
2.7838982e-05
3.1964387e-05
3.8488761e-05
4.784182e-05
6.0772271e-05
7.859033e-05
0.00010370763
0.00014090796
0.00020080563
0.00031140262
0.00056993623
0.0014567322
2.5818801e-05
2.7668397e-05
3.1775581e-05
3.8278453e-05
4.7612701e-05
6.05327e-05
7.8352148e-05
0.00010348448
0.00014071214
0.00020064412
0.00031126974
0.00056979118
0.0014562783
2.5662248e-05
2.7503396e-05
3.1594629e-05
3.807903e-05
4.7397752e-05
6.0309952e-05
7.8132954e-05
0.00010328146
0.00014053627
0.00020050083
0.00031115171
0.000569656
0.0014558334
2.5510596e-05
2.7344357e-05
3.1421796e-05
3.789053e-05
4.7196569e-05
6.0103637e-05
7.79322e-05
0.00010309787
0.00014037955
0.00020037495
0.00031104784
0.00056953057
0.0014553994
2.5364225e-05
2.7191602e-05
3.125721e-05
3.7712807e-05
4.7008893e-05
5.9913321e-05
7.7749284e-05
0.00010293297
0.00014024112
0.00020026559
0.0003109574
0.00056941467
0.0014549781
2.5223414e-05
2.7045319e-05
3.1100912e-05
3.7545746e-05
4.6834434e-05
5.9738531e-05
7.7583562e-05
0.00010278597
0.0001401201
0.00020017185
0.00031087962
0.00056930803
0.0014545708
2.5088365e-05
2.6905644e-05
3.0952914e-05
3.73892e-05
4.6672866e-05
5.9578759e-05
7.743435e-05
0.00010265602
0.00014001553
0.00020009278
0.00031081373
0.00056921034
0.0014541785
2.4959229e-05
2.6772667e-05
3.0813188e-05
3.724299e-05
4.6523833e-05
5.9433466e-05
7.7300937e-05
0.00010254227
0.00013992648
0.00020002743
0.00031075891
0.00056912124
0.0014538022
2.4836109e-05
2.6646436e-05
3.0681673e-05
3.7106905e-05
4.6386952e-05
5.9302088e-05
7.7182586e-05
0.00010244385
0.00013985198
0.00019997485
0.0003107144
0.00056904038
0.0014534425
2.4719071e-05
2.6526965e-05
3.0558276e-05
3.6980707e-05
4.6261816e-05
5.9184042e-05
7.7078548e-05
0.00010235986
0.00013979107
0.00019993411
0.00031067942
0.00056896737
0.0014531
2.4608142e-05
2.6414233e-05
3.0442875e-05
3.6864134e-05
4.6147997e-05
5.9078727e-05
7.6988062e-05
0.00010228943
0.0001397428
0.00019990427
0.00031065319
0.00056890182
0.0014527749
2.4503321e-05
2.6308191e-05
3.0335322e-05
3.6756901e-05
4.6045051e-05
5.8985531e-05
7.6910361e-05
0.00010223167
0.00013970624
0.00019988444
0.000310635
0.00056884335
0.0014524674
2.4404576e-05
2.620876e-05
3.0235445e-05
3.6658706e-05
4.5952519e-05
5.8903834e-05
7.6844679e-05
0.0001021857
0.00013968046
0.00019987375
0.00031062413
0.00056879156
0.0014521777
2.4311849e-05
2.6115839e-05
3.0143053e-05
3.6569227e-05
4.5869931e-05
5.8833011e-05
7.6790254e-05
0.00010215067
0.00013966457
0.00019987135
0.0003106199
0.00056874607
0.0014519056
2.4225061e-05
2.6029307e-05
3.0057935e-05
3.6488133e-05
4.579681e-05
5.8772439e-05
7.6746335e-05
0.00010212573
0.0001396577
0.00019987644
0.00031062166
0.0005687065
0.001451651
2.4144109e-05
2.5949021e-05
2.9979863e-05
3.6415079e-05
4.5732673e-05
5.8721496e-05
7.6712178e-05
0.00010211007
0.00013965903
0.00019988825
0.00031062879
0.00056867248
0.0014514136
2.4068874e-05
2.5874822e-05
2.9908598e-05
3.634971e-05
4.5677036e-05
5.8679566e-05
7.6687059e-05
0.00010210289
0.00013966774
0.00019990604
0.00031064071
0.00056864364
0.0014511932
2.399922e-05
2.5806536e-05
2.9843887e-05
3.6291668e-05
4.5629415e-05
5.8646041e-05
7.6670268e-05
0.00010210342
0.00013968308
0.00019992912
0.00031065686
0.00056861962
0.0014509893
2.3934995e-05
2.5743976e-05
2.978547e-05
3.6240588e-05
4.5589327e-05
5.8620325e-05
7.6661117e-05
0.00010211093
0.00013970431
0.00019995684
0.00031067673
0.00056860008
0.0014508016
2.3876036e-05
2.5686944e-05
2.9733077e-05
3.6196103e-05
4.5556295e-05
5.8601833e-05
7.665894e-05
0.00010212471
0.00013973074
0.00019998857
0.00031069983
0.00056858469
0.0014506294
2.3822169e-05
2.5635233e-05
2.9686434e-05
3.6157846e-05
4.5529848e-05
5.8589996e-05
7.6663093e-05
0.00010214408
0.00013976172
0.00020002373
0.00031072571
0.00056857313
0.0014504724
2.377321e-05
2.5588628e-05
2.9645262e-05
3.6125452e-05
4.5509522e-05
5.8584261e-05
7.6672959e-05
0.00010216841
0.00013979663
0.0002000618
0.00031075393
0.0005685651
0.0014503299
2.3728968e-05
2.554691e-05
2.960928e-05
3.6098556e-05
4.5494864e-05
5.8584093e-05
7.6687945e-05
0.00010219707
0.00013983489
0.00020010226
0.00031078412
0.0005685603
0.0014502013
2.3689246e-05
2.5509851e-05
2.9578205e-05
3.6076801e-05
4.5485432e-05
5.8588975e-05
7.6707488e-05
0.00010222951
0.00013987596
0.00020014466
0.00031081591
0.00056855846
0.0014500861
2.3653841e-05
2.5477225e-05
2.9551755e-05
3.6059832e-05
4.5480795e-05
5.8598412e-05
7.673105e-05
0.00010226518
0.00013991934
0.00020018857
0.00031084897
0.00056855932
0.0014499836
2.3622548e-05
2.54488e-05
2.9529649e-05
3.6047302e-05
4.5480537e-05
5.8611927e-05
7.6758122e-05
0.00010230356
0.00013996456
0.00020023358
0.00031088298
0.00056856262
0.0014498933
2.3595158e-05
2.5424345e-05
2.9511609e-05
3.6038873e-05
4.5484256e-05
5.8629066e-05
7.6788223e-05
0.00010234419
0.00014001119
0.00020027934
0.00031091767
0.00056856812
0.0014498145
2.3571463e-05
2.5403628e-05
2.9497362e-05
3.6034213e-05
4.5491563e-05
5.8649396e-05
7.6820898e-05
0.00010238662
0.00014005882
0.00020032552
0.00031095278
0.00056857558
0.0014497466
2.3551253e-05
2.5386422e-05
2.9486637e-05
3.6033003e-05
4.5502087e-05
5.8672507e-05
7.6855723e-05
0.00010243044
0.0001401071
0.0002003718
0.00031098806
0.00056858477
0.0014496889
2.3534319e-05
2.5372498e-05
2.947917e-05
3.6034932e-05
4.5515472e-05
5.8698011e-05
7.6892299e-05
0.00010247527
0.00014015568
0.00020041793
0.0003110233
0.00056859546
0.0014496408
2.3520453e-05
2.5361632e-05
2.9474705e-05
3.6039701e-05
4.5531379e-05
5.8725542e-05
7.6930255e-05
0.00010252076
0.00014020425
0.00020046364
0.00031105829
0.00056860745
0.0014496016
2.3509453e-05
2.5353604e-05
2.947299e-05
3.6047022e-05
4.5549487e-05
5.8754757e-05
7.6969248e-05
0.0001025666
0.00014025256
0.00020050873
0.00031109288
0.00056862055
0.0014495707
2.3501115e-05
2.5348199e-05
2.9473784e-05
3.6056619e-05
4.5569489e-05
5.8785335e-05
7.700896e-05
0.00010261248
0.00014030033
0.00020055299
0.00031112689
0.00056863458
0.0014495474
2.3495244e-05
2.5345207e-05
2.9476851e-05
3.6068231e-05
4.55911e-05
5.8816976e-05
7.70491e-05
0.00010265814
0.00014034736
0.00020059625
0.00031116021
0.00056864938
0.0014495312
2.3491647e-05
2.5344425e-05
2.9481967e-05
3.6081606e-05
4.561405e-05
5.8849404e-05
7.7089401e-05
0.00010270336
0.00014039346
0.00020063837
0.00031119271
0.00056866482
0.0014495215
2.3490135e-05
2.5345654e-05
2.9488916e-05
3.6096509e-05
4.5638085e-05
5.8882364e-05
7.7129621e-05
0.00010274791
0.00014043844
0.00020067923
0.0003112243
0.00056868077
0.0014495178
2.3490528e-05
2.5348705e-05
2.9497491e-05
3.6112715e-05
4.5662972e-05
5.891562e-05
7.7169541e-05
0.0001027916
0.00014048217
0.00020071872
0.0003112549
0.00056869712
0.0014495196
2.3492649e-05
2.5353394e-05
2.9507495e-05
3.6130013e-05
4.568849e-05
5.8948957e-05
7.7208964e-05
0.00010283428
0.00014052451
0.00020075674
0.00031128444
0.00056871376
0.0014495263
2.3496328e-05
2.5359544e-05
2.9518741e-05
3.6148206e-05
4.5714437e-05
5.898218e-05
7.7247713e-05
0.00010287579
0.00014056537
0.00020079323
0.00031131285
0.00056873058
0.0014495377
2.3501404e-05
2.5366989e-05
2.9531052e-05
3.6167109e-05
4.5740628e-05
5.901511e-05
7.7285632e-05
0.00010291601
0.00014060465
0.00020082812
0.00031134009
0.00056874747
0.0014495531
2.350772e-05
2.5375567e-05
2.9544262e-05
3.6186549e-05
4.5766891e-05
5.9047588e-05
7.7322583e-05
0.00010295484
0.00014064227
0.00020086137
0.00031136611
0.00056876432
0.0014495721
2.3515126e-05
2.5385127e-05
2.9558212e-05
3.6206366e-05
4.579307e-05
5.9079471e-05
7.7358445e-05
0.00010299217
0.00014067817
0.00020089295
0.00031139087
0.00056878101
0.0014495944
2.3523482e-05
2.5395524e-05
2.9572756e-05
3.6226414e-05
4.5819024e-05
5.9110633e-05
7.7393116e-05
0.00010302795
0.00014071232
0.00020092281
0.00031141433
0.00056879745
0.0014496193
2.3532654e-05
2.5406624e-05
2.9587756e-05
3.6246557e-05
4.5844626e-05
5.9140962e-05
7.7426508e-05
0.0001030621
0.00014074468
0.00020095096
0.0003114365
0.00056881354
0.0014496465
2.3542515e-05
2.5418299e-05
2.9603087e-05
3.6266672e-05
4.5869762e-05
5.9170363e-05
7.745855e-05
0.00010309459
0.00014077523
0.00020097739
0.00031145734
0.00056882909
0.0014496755
2.3552947e-05
2.5430431e-05
2.961863e-05
3.6286646e-05
4.5894332e-05
5.9198755e-05
7.7489184e-05
0.00010312539
0.00014080397
0.00020100211
0.00031147686
0.00056884384
0.0014497059
2.3563838e-05
2.5442909e-05
2.9634278e-05
3.630638e-05
4.5918249e-05
5.9226069e-05
7.7518369e-05
0.00010315447
0.0001408309
0.00020102515
0.00031149501
0.00056885777
0.0014497372
2.3575086e-05
2.545563e-05
2.9649932e-05
3.6325784e-05
4.5941437e-05
5.9252251e-05
7.7546074e-05
0.00010318184
0.00014085605
0.00020104653
0.00031151167
0.00056887103
0.0014497693
2.3586593e-05
2.5468502e-05
2.9665505e-05
3.6344778e-05
4.5963833e-05
5.9277257e-05
7.7572281e-05
0.00010320751
0.00014087944
0.00020106624
0.00031152692
0.00056888367
0.0014498018
2.3598273e-05
2.5481437e-05
2.9680914e-05
3.6363292e-05
4.5985383e-05
5.9301057e-05
7.7596985e-05
0.00010323149
0.00014090111
0.00020108423
0.00031154087
0.00056889578
0.0014498347
2.3610042e-05
2.5494357e-05
2.9696089e-05
3.6381266e-05
4.6006045e-05
5.932363e-05
7.7620189e-05
0.00010325381
0.00014092104
0.00020110059
0.00031155361
0.00056890738
0.0014498679
2.3621826e-05
2.5507189e-05
2.9710965e-05
3.639865e-05
4.6025784e-05
5.9344963e-05
7.76419e-05
0.00010327449
0.00014093924
0.00020111542
0.0003115652
0.00056891849
0.001449901
2.3633557e-05
2.5519871e-05
2.9725485e-05
3.6415398e-05
4.6044576e-05
5.9365053e-05
7.7662144e-05
0.0001032935
0.00014095579
0.00020112879
0.00031157571
0.00056892913
0.0014499342
2.3645174e-05
2.5532342e-05
2.97396e-05
3.6431476e-05
4.6062403e-05
5.9383908e-05
7.7680905e-05
0.0001033109
0.00014097077
0.00020114077
0.0003115852
0.00056893928
0.0014499671
2.365662e-05
2.5544553e-05
2.9753268e-05
3.6446857e-05
4.6079259e-05
5.9401516e-05
7.7698201e-05
0.00010332675
0.00014098423
0.00020115144
0.00031159372
0.00056894896
0.0014499997
2.3667846e-05
2.5556458e-05
2.9766454e-05
3.646152e-05
4.6095127e-05
5.9417877e-05
7.7714069e-05
0.0001033411
0.00014099625
0.00020116086
0.00031160131
0.00056895812
0.0014500319
2.3678811e-05
2.5568019e-05
2.977913e-05
3.6475442e-05
4.6109998e-05
5.9433011e-05
7.7728553e-05
0.00010335401
0.0001410069
0.00020116909
0.00031160801
0.00056896675
0.0014500635
2.3689477e-05
2.5579203e-05
2.9791266e-05
3.6488607e-05
4.6123873e-05
5.9446943e-05
7.7741697e-05
0.00010336554
0.00014101625
0.0002011762
0.00031161385
0.00056897482
0.0014500942
2.3699809e-05
2.5589979e-05
2.980284e-05
3.6501004e-05
4.6136765e-05
5.9459704e-05
7.7753551e-05
0.00010337575
0.00014102435
0.00020118225
0.00031161887
0.00056898231
0.0014501241
2.3709778e-05
2.5600319e-05
2.9813834e-05
3.6512631e-05
4.6148688e-05
5.9471329e-05
7.7764168e-05
0.00010338472
0.00014103129
0.0002011873
0.0003116231
0.00056898919
0.0014501527
2.3719359e-05
2.5610204e-05
2.9824237e-05
3.6523492e-05
4.6159664e-05
5.9481857e-05
7.7773601e-05
0.0001033925
0.00014103713
0.00020119141
0.0003116266
0.00056899548
0.0014501802
2.3728532e-05
2.5619618e-05
2.9834044e-05
3.6533596e-05
4.6169718e-05
5.9491331e-05
7.778191e-05
0.00010339916
0.00014104194
0.00020119464
0.0003116294
0.00056900118
0.0014502062
2.373728e-05
2.5628549e-05
2.9843252e-05
3.6542953e-05
4.6178878e-05
5.9499795e-05
7.7789153e-05
0.00010340477
0.00014104579
0.00020119706
0.00031163156
0.00056900633
0.0014502309
2.3745594e-05
2.5636991e-05
2.9851865e-05
3.6551582e-05
4.6187176e-05
5.9507298e-05
7.7795391e-05
0.00010340941
0.00014104876
0.00020119875
0.00031163315
0.00056901098
0.0014502541
2.3753464e-05
2.564494e-05
2.9859888e-05
3.65595e-05
4.6194647e-05
5.9513889e-05
7.7800686e-05
0.00010341314
0.00014105091
0.00020119977
0.00031163422
0.00056901518
0.001450276
2.3760888e-05
2.5652398e-05
2.9867332e-05
3.656673e-05
4.6201328e-05
5.9519619e-05
7.7805101e-05
0.00010341602
0.00014105233
0.00020120018
0.00031163485
0.00056901901
0.0014502966
2.3767863e-05
2.5659366e-05
2.9874207e-05
3.6573295e-05
4.6207254e-05
5.9524536e-05
7.7808695e-05
0.00010341814
0.00014105307
0.00020120007
0.00031163508
0.00056902254
0.001450316
2.3774391e-05
2.5665851e-05
2.9880528e-05
3.657922e-05
4.6212465e-05
5.9528692e-05
7.7811528e-05
0.00010341954
0.00014105321
0.00020119947
0.00031163498
0.00056902579
0.0014503345