/*--------------------------------*- C++ -*----------------------------------*\
| =========                 |                                                 |
| \\      /  F ield         | OpenFOAM: The Open Source CFD Toolbox           |
|  \\    /   O peration     | Version:  2506                                  |
|   \\  /    A nd           | Website:  www.openfoam.com                      |
|    \\/     M anipulation  |                                                 |
\*---------------------------------------------------------------------------*/
FoamFile
{
    version     2.0;
    format      ascii;
    arch        "LSB;label=32;scalar=64";
    class       volScalarField;
    location    "24000/water";
    object      k;
}
// * * * * * * * * * * * * * * * * * * * * * * * * * * * * * * * * * * * * * //

dimensions      [0 2 -2 0 0 0 0];

internalField   nonuniform List<scalar> 
2600
(
0.0001992401
0.00019923925
0.00019923929
0.00019923963
0.00019923982
0.00019923914
0.00019923438
0.00019921375
0.00019914651
0.00019904325
0.00019990841
0.00021454267
0.00040955349
0.00017237279
0.00017237614
0.00017237826
0.00017238051
0.0001723821
0.00017237949
0.00017235884
0.00017227555
0.000172027
0.00017162102
0.00017329371
0.00020304806
0.00052391648
0.00015132731
0.00015133049
0.00015133306
0.00015133552
0.00015133516
0.00015132207
0.00015126283
0.00015106462
0.00015055477
0.00014985944
0.0001528957
0.00019760629
0.00057958156
0.00013448336
0.00013448533
0.00013448764
0.00013448905
0.00013448325
0.00013445009
0.00013432997
0.00013398205
0.00013321503
0.00013247936
0.00013787909
0.00019702317
0.00059640815
0.00012075551
0.00012075697
0.00012075853
0.00012075718
0.00012074152
0.0001206782
0.00012048052
0.00011997843
0.0001190486
0.00011870929
0.00012776334
0.00020116854
0.00059206885
0.0001093899
0.00010939088
0.000109391
0.00010938492
0.00010935483
0.00010925313
0.00010897207
0.00010834649
0.00010742643
0.0001080609
0.00012226457
0.00021023394
0.00057809221
9.984982e-05
9.9850093e-05
9.9847944e-05
9.9835056e-05
9.9786463e-05
9.9641865e-05
9.9284958e-05
9.859999e-05
9.7925043e-05
0.00010022517
0.00012123091
0.00022425603
0.00056106272
9.1744874e-05
9.174416e-05
9.1738826e-05
9.1717148e-05
9.1647174e-05
9.1460104e-05
9.1049018e-05
9.0398665e-05
9.0258419e-05
9.5030413e-05
0.00012461431
0.00024286356
0.00054449405
8.4785472e-05
8.4783454e-05
8.4774018e-05
8.4741918e-05
8.4649457e-05
8.4426122e-05
8.3996574e-05
8.3502376e-05
8.4241543e-05
9.2421343e-05
0.00013239492
0.00026511347
0.00053012765
7.8752977e-05
7.8749319e-05
7.8734951e-05
7.8691403e-05
7.8577619e-05
7.8330528e-05
7.7932172e-05
7.7743318e-05
7.9771153e-05
9.2438122e-05
0.00014444361
0.00028951151
0.0005186607
7.3479682e-05
7.3474066e-05
7.3454131e-05
7.3398964e-05
7.3267704e-05
7.3016085e-05
7.2712929e-05
7.3009357e-05
7.6815021e-05
9.5182832e-05
0.00016036324
0.00031428525
0.00051014247
6.8835097e-05
6.8827266e-05
6.8801436e-05
6.8735571e-05
6.8593744e-05
6.836405e-05
6.8235745e-05
6.9234209e-05
7.5403716e-05
0.00010076472
0.00017939076
0.00033780739
0.0005042266
6.4716374e-05
6.4706175e-05
6.4674551e-05
6.4600233e-05
6.4458202e-05
6.4284863e-05
6.4429045e-05
6.6391811e-05
7.5619871e-05
0.0001092241
0.00020043528
0.00035894529
0.00050037283
6.1041501e-05
6.1028932e-05
6.0992164e-05
6.091321e-05
6.0785257e-05
6.0711783e-05
6.1247563e-05
6.4493002e-05
7.7580807e-05
0.00012045028
0.00022225715
0.00037717552
0.0004980107
5.7744396e-05
5.7729653e-05
5.7689074e-05
5.7611142e-05
5.751606e-05
5.7596592e-05
5.8669223e-05
6.3582872e-05
8.1411586e-05
0.00013412437
0.00024370832
0.00039247762
0.00049664628
5.4771313e-05
5.4754847e-05
5.4712615e-05
5.4643526e-05
5.4605384e-05
5.4906753e-05
5.6693486e-05
6.3736861e-05
8.7208043e-05
0.00014971788
0.00026392364
0.00040513366
0.00049590625
5.2078186e-05
5.206076e-05
5.2020025e-05
5.1970154e-05
5.2019282e-05
5.2623661e-05
5.5340605e-05
6.5053658e-05
9.4994185e-05
0.00016655656
0.0002823955
0.00041554871
0.00049553614
4.9628636e-05
4.9611393e-05
4.9576492e-05
4.9559258e-05
4.9733503e-05
5.0741693e-05
5.4651195e-05
6.7643172e-05
0.00010468473
0.00018392817
0.00029893687
0.00042413794
0.00049537652
4.7392458e-05
4.7377004e-05
4.7353699e-05
4.7386176e-05
4.773248e-05
4.9267886e-05
5.4685329e-05
7.1608743e-05
0.00011606686
0.00020119288
0.00031358495
0.0004312733
0.0004953351
4.5344476e-05
4.5332971e-05
4.5328746e-05
4.5432431e-05
4.600877e-05
4.8222045e-05
5.5520139e-05
7.7024462e-05
0.0001288111
0.00021785898
0.00032650009
0.00043726613
0.00049536294
4.3463657e-05
4.3458933e-05
4.3483358e-05
4.3685127e-05
4.4562868e-05
4.7637066e-05
5.7244888e-05
8.3911106e-05
0.00014251076
0.00023360813
0.00033789056
0.00044236711
0.00049543702
4.1732429e-05
4.173814e-05
4.1803329e-05
4.2136614e-05
4.3403329e-05
4.7559127e-05
5.9952699e-05
9.2216773e-05
0.00015673762
0.00024827796
0.00034796834
0.00044677301
0.00049554866
4.0136167e-05
4.015697e-05
4.0278148e-05
4.0784372e-05
4.2547129e-05
4.8047288e-05
6.3728701e-05
0.00010180889
0.00017109624
0.00026182258
0.0003569282
0.00045063571
0.00049569617
3.8662802e-05
3.8704582e-05
3.8900797e-05
3.9631106e-05
4.2020194e-05
4.9171841e-05
6.863543e-05
0.00011248165
0.0001852623
0.00027427018
0.00036494028
0.00045407114
0.00049588069
3.7302531e-05
3.7372692e-05
3.7667676e-05
3.8685008e-05
4.1857944e-05
5.1010816e-05
7.4697746e-05
0.00012397797
0.00019899861
0.00028568912
0.00037214923
0.00045716736
0.00049610392
3.6047628e-05
3.6155447e-05
3.6578682e-05
3.7960181e-05
4.2105652e-05
5.3644137e-05
8.1890765e-05
0.00013601988
0.00021215193
0.00029616533
0.00037867608
0.00045999117
0.00049636709
3.4892327e-05
3.5049398e-05
3.5637397e-05
3.74772e-05
4.2818254e-05
5.7145344e-05
9.0134487e-05
0.00014833914
0.00022463802
0.00030578893
0.00038462123
0.0004625934
0.00049667064
3.383279e-05
3.4053569e-05
3.4851411e-05
3.7263736e-05
4.4059202e-05
6.1571461e-05
9.9297379e-05
0.00016070076
0.00023642316
0.00031464713
0.00039006764
0.00046501299
0.00049701416
3.2867148e-05
3.316962e-05
3.4232754e-05
3.7355161e-05
4.5897909e-05
6.695245e-05
0.00010920861
0.00017291579
0.00024750737
0.00032282077
0.00039508378
0.00046727996
0.00049739654
3.1995627e-05
3.2402111e-05
3.3798454e-05
3.7794961e-05
4.8405425e-05
7.3282434e-05
0.00011967596
0.00018484396
0.00025791153
0.00033038287
0.00039972633
0.00046941773
0.00049781615
3.1220754e-05
3.1758868e-05
3.3571165e-05
3.8634688e-05
5.1648298e-05
8.0515031e-05
0.000130505
0.00019638896
0.00026766838
0.00033739835
0.00040404224
0.00047144508
0.00049827105
3.0547674e-05
3.1251458e-05
3.3579859e-05
3.9933127e-05
5.5680953e-05
8.8564408e-05
0.00014151526
0.0002074904
0.00027681664
0.00034392426
0.00040806987
0.00047336165
0.00049875826
2.9984563e-05
3.0895778e-05
3.3860461e-05
4.1754321e-05
6.053758e-05
9.7312146e-05
0.00015255088
0.00021811501
0.00028539698
0.00035000996
0.00041183982
0.00047517683
0.00049927448
2.9543172e-05
3.071274e-05
3.4456303e-05
4.4164148e-05
6.6225001e-05
0.00010661843
0.00016348529
0.00022824914
0.00029345001
0.00035569878
0.00041537497
0.00047690098
0.00049981638
2.9239498e-05
3.072904e-05
3.5418148e-05
4.7225362e-05
7.2718212e-05
0.00011633496
0.00017422101
0.00023789272
0.00030101459
0.00036102772
0.00041869399
0.00047854312
0.00050038114
2.9094595e-05
3.0977951e-05
3.6803501e-05
5.0991332e-05
7.9959879e-05
0.00012631695
0.00018468651
0.00024705469
0.00030812683
0.00036602758
0.00042181619
0.00048011509
0.00050096676
2.9135496e-05
3.1500046e-05
3.867486e-05
5.5499187e-05
8.7864161e-05
0.00013643209
0.00019483195
0.00025575014
0.00031482083
0.00037072328
0.00042475508
0.00048162854
0.000501572
2.9396232e-05
3.2343669e-05
4.1096631e-05
6.0763502e-05
9.6324068e-05
0.00014656574
0.00020462431
0.00026399669
0.00032112525
0.00037513787
0.00042753007
0.00048308916
0.00050219529
2.9918841e-05
3.3564909e-05
4.4130584e-05
6.6771882e-05
0.00010522078
0.00015662301
0.00021404417
0.00027181504
0.00032706605
0.00037928746
0.00043015897
0.00048450265
0.00050283511
3.0754242e-05
3.5226725e-05
4.7830032e-05
7.3483551e-05
0.00011443287
0.00016652782
0.000223081
0.00027922362
0.00033266466
0.00038319521
0.00043265449
0.00048587307
0.00050348988
3.1962696e-05
3.7396842e-05
5.2233347e-05
8.0831452e-05
0.00012384407
0.00017622135
0.00023173236
0.00028624169
0.00033793722
0.00038688252
0.00043502773
0.00048720352
0.00050415803
3.3613506e-05
4.0144092e-05
5.7357848e-05
8.8727391e-05
0.00013334836
0.0001856585
0.00023999854
0.00029288456
0.00034290598
0.00039036648
0.0004372879
0.00048849633
0.00050483797
3.578341e-05
4.3533076e-05
6.3195311e-05
9.706923e-05
0.00014285306
0.00019480682
0.00024788467
0.0002991623
0.00034759329
0.00039366186
0.00043944268
0.00048975324
0.00050552811
3.8553073e-05
4.7617438e-05
6.9710119e-05
0.00010574826
0.00015227865
0.00020364077
0.00025539328
0.00030509326
0.00035201757
0.00039678116
0.00044149841
0.00049097544
0.00050622691
4.2001161e-05
5.2432569e-05
7.6840723e-05
0.00011465641
0.00016156001
0.00021214493
0.00026252192
0.0003106968
0.00035619498
0.00039973502
0.00044346029
0.00049216366
0.00050693282
4.6195928e-05
5.798897e-05
8.4503818e-05
0.0001236906
0.00017064177
0.000220299
0.00026928192
0.00031598926
0.00036013923
0.00040253236
0.0004453325
0.00049331825
0.00050764432
5.1185027e-05
6.4267718e-05
9.2600637e-05
0.00013275649
0.00017947938
0.00022808587
0.00027568468
0.000320985
0.00036386199
0.00040518054
0.00044711834
0.0004944392
0.00050835988
5.698537e-05
7.1219297e-05
0.00010102457
0.00014177164
0.00018802206
0.00023550302
0.00028174028
0.00032569627
0.00036737301
0.00040768553
0.00044882024
0.00049552613
0.00050907799
6.3575489e-05
7.8766087e-05
0.00010966807
0.00015065101
0.00019623699
0.00024254862
0.00028745743
0.00033013328
0.0003706802
0.00041005202
0.00045043985
0.00049657835
0.00050979712
7.0893499e-05
8.6809034e-05
0.000118418
0.00015932163
0.00020409989
0.00024922137
0.00029284333
0.00033430424
0.00037378981
0.00041228345
0.0004519781
0.00049759482
0.0005105157
7.8838284e-05
9.522539e-05
0.00012716548
0.00016772589
0.00021159051
0.00025551998
0.00029790356
0.00033821552
0.00037670646
0.00041438211
0.00045343516
0.00049857417
0.00051123213
8.7271778e-05
0.00010388141
0.00013581418
0.00017581507
0.00021869192
0.00026144296
0.00030264213
0.00034187166
0.00037943322
0.00041634917
0.00045481053
0.00049951469
0.00051194472
9.6036234e-05
0.00011264293
0.00014427887
0.00018354852
0.00022538999
0.00026698862
0.0003070616
0.00034527555
0.0003819718
0.00041818477
0.00045610303
0.00050041431
0.00051265169
0.00010496817
0.00012138223
0.00015248592
0.00019089303
0.00023167336
0.00027215518
0.00031116333
0.00034842866
0.00038432261
0.00041988808
0.00045731083
0.00050127064
0.00051335113
0.00011391067
0.00012998329
0.0001603733
0.00019782239
0.00023753336
0.00027694111
0.00031494783
0.0003513313
0.00038648499
0.00042145744
0.00045843155
0.00050208096
0.000514041
0.00012272258
0.00013834526
0.00016789041
0.000204317
0.00024296428
0.00028134556
0.00031841518
0.00035398298
0.00038845748
0.00042289053
0.00045946233
0.00050284228
0.00051471913
0.000131284
0.00014638438
0.00017499762
0.00021036352
0.00024796346
0.0002853688
0.00032156555
0.00035638282
0.00039023811
0.00042418458
0.00046039999
0.00050355142
0.00051538317
0.00013949856
0.00015403441
0.00018166568
0.0002159545
0.00025253149
0.00028901268
0.00032439965
0.00035853
0.00039182476
0.0004253366
0.0004612412
0.00050420511
0.00051603068
0.0001472932
0.00016124596
0.00018787494
0.00022108792
0.00025667219
0.00029228093
0.00032691927
0.00036042421
0.00039321552
0.00042634373
0.00046198267
0.00050480013
0.00051665912
0.00015461627
0.00016798514
0.00019361441
0.00022576668
0.00026039259
0.00029517945
0.0003291276
0.00036206607
0.00039440913
0.00042720353
0.00046262142
0.00050533343
0.00051726587
0.00016143484
0.0001742316
0.00019888074
0.00022999808
0.00026370269
0.00029771643
0.00033102958
0.00036345752
0.00039540527
0.00042791426
0.00046315502
0.00050580236
0.00051784838
0.00016773158
0.00017997657
0.00020367717
0.00023379315
0.0002666152
0.00029990228
0.00033263207
0.00036460206
0.0003962049
0.00042847522
0.00046358179
0.00050620475
0.00051840412
0.00017350182
0.00018522072
0.0002080124
0.00023716611
0.0002691452
0.00030174957
0.00033394388
0.00036550495
0.00039681048
0.00042888692
0.00046390104
0.00050653914
0.00051893076
0.00017875076
0.00018997231
0.00021189963
0.00024013377
0.00027130974
0.0003032728
0.00033497577
0.00036617327
0.00039722612
0.00042915131
0.0004641132
0.00050680483
0.00051942619
0.00018349111
0.00019424539
0.00021535553
0.00024271491
0.00027312744
0.0003044881
0.00033574026
0.00036661593
0.00039745765
0.00042927182
0.00046421994
0.00050700203
0.00051988858
0.00018774111
0.00019805841
0.00021839946
0.00024492983
0.00027461811
0.00030541296
0.00033625148
0.00036684353
0.00039751254
0.00042925341
0.00046422417
0.00050713182
0.00052031646
0.00019152286
0.0002014329
0.00022105266
0.00024679989
0.00027580238
0.0003060659
0.00033652486
0.00036686818
0.00039739985
0.00042910251
0.00046413008
0.00050719622
0.00052070876
0.00019486105
0.00020439248
0.00022333765
0.00024834703
0.00027670135
0.00030646615
0.0003365769
0.00036670329
0.00039713001
0.00042882687
0.00046394299
0.00050719807
0.00052106481
0.00019778194
0.00020696207
0.00022527769
0.00024959353
0.00027733634
0.00030663336
0.00033642481
0.00036636329
0.00039671462
0.00042843543
0.00046366925
0.00050714102
0.00052138438
0.00020031256
0.00020916717
0.00022689634
0.00025056163
0.00027772858
0.00030658732
0.00033608632
0.00036586337
0.00039616622
0.00042793805
0.00046331606
0.00050702934
0.00052166765
0.00020248011
0.00021103343
0.00022821711
0.00025127333
0.00027789903
0.00030634773
0.0003355793
0.00036521919
0.00039549799
0.00042734534
0.00046289131
0.00050686784
0.00052191517
0.00020431153
0.00021258624
0.00022926318
0.0002517502
0.00027786819
0.00030593397
0.00033492162
0.00036444663
0.00039472353
0.00042666839
0.00046240332
0.00050666171
0.0005221279
0.00020583316
0.00021385041
0.00023005719
0.0002520132
0.00027765595
0.00030536494
0.00033413086
0.00036356152
0.00039385656
0.00042591851
0.00046186069
0.00050641638
0.00052230707
0.00020707049
0.00021485003
0.00023062108
0.00025208255
0.00027728148
0.00030465891
0.00033322415
0.00036257945
0.00039291073
0.00042510705
0.0004612721
0.00050613736
0.00052245421
0.00020804802
0.00021560822
0.00023097593
0.00025197768
0.0002767631
0.0003038334
0.00033221801
0.00036151559
0.00039189942
0.0004242452
0.00046064612
0.00050583014
0.00052257104
0.00020878915
0.00021614713
0.00023114193
0.00025171709
0.0002761183
0.0003029051
0.00033112823
0.00036038447
0.00039083553
0.00042334377
0.00045999105
0.0005055001
0.00052265947
0.00020931607
0.00021648778
0.00023113825
0.00025131839
0.00027536358
0.00030188976
0.00032996976
0.00035919994
0.00038973134
0.00042241309
0.00045931485
0.00050515236
0.00052272151
0.0002096498
0.00021665009
0.00023098306
0.00025079817
0.0002745145
0.00030080221
0.00032875666
0.00035797501
0.00038859846
0.0004214629
0.00045862497
0.00050479175
0.00052275926
0.00020981009
0.00021665282
0.0002306935
0.00025017206
0.00027358563
0.00029965627
0.00032750202
0.0003567218
0.00038744765
0.00042050221
0.00045792831
0.00050442276
0.00052277484
0.00020981549
0.00021651358
0.00023028565
0.0002494547
0.00027259056
0.00029846478
0.00032621797
0.0003554515
0.00038628884
0.00041953933
0.00045723117
0.00050404947
0.00052277037
0.00020968335
0.00021624886
0.00022977455
0.00024865974
0.00027154189
0.00029723958
0.00032491561
0.00035417435
0.00038513108
0.00041858173
0.00045653923
0.00050367557
0.00052274794
0.00020942984
0.00021587403
0.00022917422
0.00024779986
0.00027045127
0.00029599154
0.00032360511
0.00035289961
0.00038398247
0.0004176361
0.00045585749
0.00050330433
0.00052270956
0.00020907
0.00021540338
0.00022849769
0.0002468868
0.00026932938
0.00029473055
0.00032229561
0.0003516356
0.00038285027
0.00041670836
0.00045519034
0.00050293858
0.0005226572
0.00020861775
0.00021485017
0.00022775702
0.00024593135
0.00026818601
0.00029346559
0.00032099536
0.00035038972
0.00038174081
0.00041580359
0.00045454154
0.00050258079
0.0005225927
0.00020808598
0.00021422663
0.00022696331
0.00024494346
0.00026703007
0.00029220472
0.00031971166
0.00034916844
0.00038065961
0.00041492618
0.00045391422
0.00050223298
0.00052251781
0.00020748658
0.00021354405
0.0002261268
0.00024393218
0.0002658696
0.00029095517
0.00031845096
0.00034797739
0.00037961136
0.00041407974
0.00045331086
0.0005018954
0.0005224341
0.00020683045
0.0002128128
0.00022525685
0.00024290578
0.00026471186
0.00028972333
0.00031721889
0.00034682139
0.00037859994
0.00041326716
0.0004527332
0.00050156777
0.00052234291
0.00020612762
0.00021204235
0.00022436199
0.00024187173
0.00026356335
0.00028851484
0.00031602029
0.00034570448
0.00037762857
0.0004124907
0.00045218161
0.00050125098
0.00052224543
0.00020538724
0.00021124139
0.00022345001
0.00024083676
0.00026242981
0.00028733458
0.00031485925
0.00034462999
0.00037669971
0.00041175181
0.00045165674
0.00050094653
0.00052214286
0.00020461764
0.00021041779
0.00022252792
0.00023980693
0.00026131633
0.00028618679
0.00031373925
0.00034360061
0.00037581527
0.00041105095
0.0004511588
0.00050065635
0.0005220365
0.00020382642
0.00020957869
0.00022160208
0.0002387876
0.00026022737
0.00028507507
0.00031266309
0.00034261837
0.00037497621
0.00041038838
0.00045068902
0.00050038146
0.00052192752
0.00020302044
0.00020873056
0.00022067816
0.00023778355
0.00025916678
0.00028400243
0.00031163298
0.00034168466
0.00037418299
0.00040976434
0.00045024823
0.00050012257
0.00052181698
0.00020220588
0.0002078792
0.00021976126
0.00023679899
0.00025813786
0.00028297133
0.00031065061
0.00034080022
0.00037343535
0.0004091795
0.00044983683
0.0004998801
0.00052170584
0.00020138833
0.00020702982
0.00021885587
0.00023583757
0.00025714341
0.00028198374
0.00030971704
0.000339965
0.00037273363
0.00040863402
0.00044945485
0.0004996542
0.00052159493
0.00020057275
0.00020618706
0.00021796597
0.00023490245
0.00025618572
0.00028104107
0.00030883267
0.00033917897
0.00037207793
0.00040812771
0.00044910202
0.00049944482
0.00052148499
0.00019976359
0.00020535502
0.00021709506
0.00023399633
0.00025526665
0.00028014424
0.00030799739
0.00033844223
0.00037146795
0.00040766007
0.00044877786
0.00049925174
0.00052137665
0.00019896479
0.00020453734
0.00021624618
0.00023312151
0.00025438757
0.00027929338
0.00030721139
0.00033775451
0.0003709031
0.00040723035
0.00044848166
0.00049907461
0.00052127045
0.00019817981
0.00020373721
0.00021542194
0.00023227973
0.00025354909
0.00027848889
0.00030647455
0.00033711526
0.00037038254
0.00040683758
0.0004482126
0.00049891299
0.00052116686
0.00019741172
0.00020295739
0.0002146244
0.00023147218
0.00025275194
0.00027773089
0.00030578646
0.00033652366
0.00036990519
0.00040648064
0.0004479697
0.00049876633
0.00052106628
0.00019666305
0.00020220008
0.00021385523
0.00023069995
0.00025199657
0.00027701924
0.00030514645
0.00033597866
0.00036946977
0.00040615824
0.0004477519
0.00049863404
0.00052096902
0.00019593594
0.00020146717
0.00021311582
0.00022996385
0.00025128316
0.00027635354
0.00030455366
0.00033547902
0.00036907487
0.00040586898
0.00044755806
0.0004985155
0.00052087535
0.00019523219
0.00020076022
0.00021240729
0.00022926443
0.00025061169
0.0002757332
0.00030400701
0.00033502335
0.00036871896
0.0004056114
0.00044738699
0.00049841003
0.00052078549
0.00019455333
0.00020008052
0.00021173052
0.00022860204
0.00024998189
0.00027515741
0.00030350525
0.00033461012
0.00036840038
0.00040538395
0.00044723748
0.00049831696
0.00052069959
0.00019390059
0.00019942914
0.00021108613
0.00022797677
0.00024939332
0.00027462522
0.00030304702
0.00033423767
0.00036811743
0.00040518504
0.00044710828
0.00049823557
0.00052061777
0.00019327498
0.00019880685
0.00021047455
0.00022738853
0.00024884534
0.00027413549
0.00030263079
0.00033390429
0.00036786833
0.00040501308
0.00044699816
0.00049816519
0.00052054012
0.00019267728
0.00019821426
0.00020989597
0.00022683706
0.00024833718
0.00027368699
0.00030225498
0.00033360818
0.00036765129
0.00040486645
0.00044690587
0.0004981051
0.00052046668
0.00019210805
0.00019765175
0.00020935044
0.00022632192
0.00024786793
0.00027327835
0.00030191791
0.0003333475
0.00036746448
0.00040474354
0.0004468302
0.00049805464
0.00052039745
0.00019156767
0.00019711951
0.00020883781
0.00022584253
0.00024743652
0.00027290813
0.00030161784
0.00033312037
0.00036730607
0.00040464275
0.00044676994
0.00049801314
0.00052033244
0.00019105633
0.00019661758
0.00020835777
0.00022539817
0.00024704183
0.00027257481
0.00030135298
0.0003329249
0.00036717426
0.00040456253
0.00044672393
0.00049797993
0.00052027161
0.00019057405
0.00019614583
0.00020790991
0.00022498802
0.0002466826
0.0002722768
0.00030112151
0.00033275921
0.00036706725
0.00040450133
0.00044669102
0.00049795438
0.0005202149
0.00019012073
0.000195704
0.00020749365
0.00022461115
0.00024635754
0.00027201246
0.00030092161
0.00033262141
0.00036698327
0.00040445766
0.00044667014
0.00049793589
0.00052016223
0.00018969612
0.00019529168
0.00020710832
0.00022426653
0.00024606526
0.00027178014
0.00030075143
0.00033250964
0.00036692059
0.00040443007
0.0004466602
0.00049792386
0.00052011351
0.00018929983
0.00019490838
0.00020675317
0.00022395306
0.00024580434
0.00027157814
0.00030060913
0.00033242207
0.00036687752
0.00040441716
0.0004466602
0.00049791772
0.00052006864
0.00018893138
0.00019455349
0.00020642733
0.00022366959
0.00024557332
0.00027140476
0.00030049291
0.00033235688
0.00036685244
0.00040441757
0.00044666916
0.00049791693
0.00052002751
0.00018859021
0.00019422631
0.00020612987
0.00022341491
0.0002453707
0.00027125832
0.00030040096
0.00033231234
0.00036684376
0.00040443002
0.00044668615
0.00049792096
0.00051998997
0.00018827564
0.00019392606
0.00020585981
0.00022318775
0.00024519498
0.00027113711
0.00030033153
0.00033228674
0.00036684996
0.00040445327
0.00044671031
0.00049792932
0.00051995591
0.00018798693
0.0001936519
0.0002056161
0.00022298684
0.00024504465
0.00027103947
0.00030028289
0.00033227843
0.00036686959
0.00040448615
0.00044674078
0.00049794155
0.00051992518
0.00018772328
0.00019340293
0.00020539766
0.00022281086
0.0002449182
0.00027096375
0.00030025338
0.00033228584
0.00036690125
0.00040452755
0.00044677681
0.00049795721
0.00051989765
0.00018748382
0.00019317819
0.00020520336
0.0002226585
0.00024481413
0.00027090836
0.00030024138
0.00033230743
0.00036694364
0.00040457643
0.00044681765
0.00049797589
0.00051987315
0.00018726766
0.00019297671
0.00020503207
0.00022252842
0.00024473095
0.0002708717
0.00030024531
0.00033234176
0.0003669955
0.00040463181
0.00044686263
0.00049799721
0.00051985156
0.00018707383
0.00019279745
0.00020488261
0.00022241932
0.0002446672
0.00027085227
0.00030026369
0.00033238744
0.00036705565
0.00040469276
0.00044691111
0.0004980208
0.00051983272
0.00018690136
0.00019263937
0.00020475382
0.00022232985
0.00024462146
0.00027084856
0.00030029505
0.00033244316
0.00036712297
0.00040475841
0.00044696248
0.00049804633
0.00051981648
0.00018674925
0.0001925014
0.00020464451
0.00022225872
0.00024459231
0.00027085914
0.00030033801
0.00033250765
0.00036719641
0.00040482796
0.00044701619
0.00049807346
0.00051980268
0.00018661647
0.00019238245
0.00020455349
0.00022220464
0.00024457838
0.00027088263
0.00030039125
0.00033257974
0.00036727497
0.00040490065
0.00044707171
0.00049810189
0.00051979118
0.00018650197
0.00019228145
0.0002044796
0.00022216633
0.00024457834
0.00027091769
0.00030045349
0.00033265828
0.00036735772
0.00040497574
0.00044712854
0.00049813133
0.00051978181
0.00018640473
0.0001921973
0.00020442166
0.00022214255
0.00024459089
0.00027096303
0.00030052355
0.00033274223
0.00036744378
0.00040505259
0.00044718623
0.00049816151
0.00051977443
0.00018632369
0.00019212893
0.00020437853
0.00022213209
0.00024461481
0.00027101745
0.00030060027
0.00033283059
0.00036753235
0.00040513057
0.00044724436
0.00049819217
0.00051976888
0.00018625781
0.00019207526
0.00020434909
0.00022213377
0.00024464888
0.00027107977
0.0003006826
0.00033292243
0.00036762267
0.00040520914
0.00044730255
0.0004982231
0.00051976502
0.00018620609
0.00019203525
0.00020433224
0.00022214647
0.00024469199
0.00027114891
0.00030076955
0.00033301691
0.00036771407
0.00040528778
0.00044736047
0.00049825411
0.00051976271
0.00018616751
0.00019200787
0.00020432693
0.00022216909
0.00024474305
0.00027122386
0.00030086019
0.00033311325
0.00036780594
0.00040536606
0.00044741783
0.00049828501
0.00051976183
0.0001861411
0.00019199213
0.00020433213
0.00022220061
0.00024480105
0.00027130365
0.00030095368
0.00033321074
0.00036789772
0.00040544358
0.00044747438
0.00049831568
0.00051976225
0.00018612589
0.00019198706
0.00020434685
0.00022224004
0.00024486503
0.0002713874
0.00030104924
0.00033330874
0.00036798893
0.00040552001
0.00044752989
0.00049834597
0.00051976386
0.00018612097
0.00019199171
0.00020437015
0.00022228645
0.00024493408
0.00027147428
0.00030114616
0.00033340668
0.00036807913
0.00040559504
0.00044758419
0.00049837579
0.00051976656
0.00018612542
0.00019200519
0.00020440113
0.00022233893
0.00024500738
0.00027156354
0.00030124379
0.00033350403
0.00036816794
0.00040566841
0.00044763711
0.00049840503
0.00051977023
0.00018613837
0.00019202662
0.00020443891
0.00022239664
0.00024508412
0.00027165445
0.00030134151
0.0003336003
0.000368255
0.00040573987
0.00044768849
0.00049843358
0.00051977477
0.00018615898
0.00019205515
0.00020448266
0.00022245879
0.00024516355
0.00027174636
0.00030143878
0.00033369507
0.00036833998
0.00040580921
0.00044773818
0.00049846133
0.00051978007
0.00018618642
0.00019208996
0.00020453158
0.0002225246
0.00024524496
0.00027183864
0.00030153508
0.00033378794
0.0003684226
0.00040587623
0.00044778605
0.00049848821
0.00051978604
0.00018621991
0.00019213028
0.0002045849
0.00022259335
0.00024532771
0.00027193074
0.00030162994
0.00033387852
0.00036850258
0.00040594073
0.00044783197
0.00049851398
0.00051979254
0.00018625868
0.00019217535
0.00020464191
0.00022266437
0.00024541119
0.00027202211
0.00030172293
0.00033396651
0.0003685797
0.00040600256
0.00044787581
0.00049853848
0.00051979949
0.00018630202
0.00019222448
0.00020470193
0.00022273702
0.00024549482
0.00027211228
0.00030181367
0.00033405161
0.00036865375
0.00040606157
0.00044791741
0.00049856162
0.00051980676
0.00018634925
0.00019227699
0.00020476432
0.00022281073
0.0002455781
0.00027220084
0.00030190184
0.00033413359
0.00036872457
0.00040611765
0.00044795666
0.00049858341
0.00051981426
0.00018639974
0.00019233227
0.0002048285
0.00022288496
0.00024566058
0.00027228742
0.00030198715
0.00033421225
0.00036879203
0.00040617069
0.00044799351
0.00049860393
0.00051982194
0.0001864529
0.00019238975
0.00020489395
0.00022295925
0.00024574186
0.0002723717
0.00030206939
0.00033428745
0.00036885605
0.00040622063
0.00044802797
0.0004986232
0.00051982974
0.00018650819
0.0001924489
0.00020496017
0.00022303317
0.00024582159
0.00027245342
0.00030214838
0.00033435909
0.00036891655
0.00040626741
0.00044806014
0.00049864129
0.00051983761
0.00018656512
0.00019250926
0.00020502673
0.00022310636
0.00024589948
0.00027253238
0.00030222399
0.00033442709
0.00036897348
0.00040631113
0.00044809009
0.00049865825
0.00051984553
0.00018662323
0.00019257037
0.00020509325
0.00022317848
0.00024597529
0.00027260841
0.00030229613
0.00033449141
0.00036902686
0.00040635187
0.00044811791
0.00049867412
0.00051985345
0.0001866821
0.00019263186
0.00020515937
0.00022324925
0.0002460488
0.00027268138
0.00030236472
0.00033455199
0.00036907676
0.00040638973
0.0004481437
0.00049868896
0.00051986135
0.00018674134
0.00019269335
0.00020522477
0.00022331841
0.00024611984
0.00027275118
0.00030242968
0.00033460887
0.00036912328
0.00040642481
0.00044816753
0.00049870281
0.0005198692
0.0001868006
0.00019275452
0.00020528918
0.00022338574
0.00024618824
0.00027281768
0.00030249098
0.00033466211
0.00036916651
0.00040645721
0.0004481895
0.00049871571
0.00051987698
0.00018685955
0.00019281503
0.0002053523
0.00022345104
0.00024625384
0.0002728808
0.00030254863
0.00033471176
0.00036920652
0.00040648704
0.00044820967
0.00049872768
0.00051988465
0.00018691786
0.00019287462
0.00020541392
0.00022351409
0.00024631651
0.00027294049
0.00030260265
0.0003347579
0.00036924341
0.00040651436
0.0004482281
0.00049873874
0.00051989218
0.00018697525
0.000192933
0.00020547378
0.00022357472
0.00024637613
0.00027299671
0.00030265306
0.00033480056
0.00036927725
0.00040653924
0.00044824484
0.00049874891
0.00051989952
0.00018703146
0.00019298993
0.00020553166
0.00022363276
0.00024643261
0.00027304943
0.00030269986
0.00033483981
0.0003693081
0.00040656174
0.00044825992
0.00049875817
0.00051990665
0.00018708622
0.00019304517
0.00020558738
0.00022368809
0.00024648589
0.00027309865
0.0003027431
0.00033487569
0.00036933602
0.00040658192
0.00044827337
0.00049876652
0.00051991352
0.00018713933
0.00019309852
0.00020564079
0.0002237406
0.00024653593
0.00027314435
0.00030278282
0.00033490829
0.00036936108
0.00040659983
0.00044828522
0.00049877397
0.00051992011
0.00018719061
0.00019314984
0.00020569177
0.00022379023
0.00024658269
0.00027318659
0.00030281908
0.00033493766
0.00036938336
0.00040661554
0.00044829551
0.00049878053
0.00051992637
0.00018723992
0.00019319899
0.00020574023
0.00022383694
0.00024662621
0.00027322541
0.00030285196
0.00033496392
0.00036940296
0.00040662911
0.00044830429
0.00049878622
0.00051993229
0.00018728717
0.00019324591
0.00020578613
0.00022388073
0.00024666653
0.0002732609
0.0003028816
0.0003349872
0.00036942001
0.00040664067
0.00044831164
0.00049879107
0.00051993787
0.00018733229
0.00019329053
0.00020582945
0.00022392164
0.00024670373
0.00027329319
0.00030290813
0.00033500764
0.00036943464
0.00040665033
0.00044831767
0.00049879517
0.00051994312
0.00018737524
0.00019333285
0.00020587022
0.00022395973
0.00024673793
0.00027332242
0.00030293172
0.00033502544
0.00036944704
0.00040665826
0.00044832249
0.00049879859
0.00051994804
0.00018741602
0.00019337288
0.00020590849
0.0002239951
0.00024676925
0.00027334878
0.00030295258
0.0003350408
0.00036945742
0.00040666464
0.00044832626
0.00049880142
0.00051995268