/*--------------------------------*- C++ -*----------------------------------*\
| =========                 |                                                 |
| \\      /  F ield         | OpenFOAM: The Open Source CFD Toolbox           |
|  \\    /   O peration     | Version:  2506                                  |
|   \\  /    A nd           | Website:  www.openfoam.com                      |
|    \\/     M anipulation  |                                                 |
\*---------------------------------------------------------------------------*/
FoamFile
{
    version     2.0;
    format      ascii;
    arch        "LSB;label=32;scalar=64";
    class       volScalarField;
    location    "24000/water";
    object      nut;
}
// * * * * * * * * * * * * * * * * * * * * * * * * * * * * * * * * * * * * * //

dimensions      [0 2 -1 0 0 0 0];

internalField   nonuniform List<scalar> 
2600
(
4.0562043e-05
4.0561942e-05
4.0561944e-05
4.0561981e-05
4.0561942e-05
4.0561434e-05
4.0558261e-05
4.0540002e-05
4.0435343e-05
3.98338e-05
3.6541397e-05
2.4161555e-05
1.4889524e-05
3.944741e-05
3.9447468e-05
3.944759e-05
3.9447676e-05
3.9447275e-05
3.9444342e-05
3.9428907e-05
3.9352895e-05
3.8988431e-05
3.7314814e-05
3.0763187e-05
1.7536145e-05
1.684056e-05
3.852265e-05
3.852264e-05
3.8522725e-05
3.8522528e-05
3.8520597e-05
3.8510798e-05
3.8466747e-05
3.8277827e-05
3.7500368e-05
3.454641e-05
2.5814945e-05
1.4669956e-05
1.7712619e-05
3.7742032e-05
3.774193e-05
3.7741811e-05
3.7740766e-05
3.7735283e-05
3.7711707e-05
3.7617453e-05
3.7258039e-05
3.5961308e-05
3.177518e-05
2.2061889e-05
1.3531464e-05
1.7967898e-05
3.7073562e-05
3.7073366e-05
3.7072781e-05
3.7069955e-05
3.7057916e-05
3.7011651e-05
3.6843992e-05
3.6266509e-05
3.4405655e-05
2.9188861e-05
1.9425178e-05
1.3345943e-05
1.7902414e-05
3.6493786e-05
3.6493393e-05
3.6491924e-05
3.648598e-05
3.646354e-05
3.6384687e-05
3.612226e-05
3.5294625e-05
3.2873382e-05
2.6881541e-05
1.771645e-05
1.3793839e-05
1.7689846e-05
3.5985207e-05
3.5984445e-05
3.5981496e-05
3.5970726e-05
3.5933497e-05
3.5812307e-05
3.5437992e-05
3.4343601e-05
3.1395257e-05
2.4892541e-05
1.6781972e-05
1.4727875e-05
1.7427344e-05
3.5534568e-05
3.55332e-05
3.5528007e-05
3.5510417e-05
3.5453869e-05
3.5281761e-05
3.478374e-05
3.3418009e-05
2.9989903e-05
2.3242727e-05
1.6521213e-05
1.605365e-05
1.7168093e-05
3.5131649e-05
3.5129373e-05
3.5121029e-05
3.5094485e-05
3.5014364e-05
3.4784646e-05
3.4156253e-05
3.2521766e-05
2.8667649e-05
2.1957692e-05
1.6869959e-05
1.7676047e-05
1.694009e-05
3.4768438e-05
3.47649e-05
3.4752406e-05
3.4714802e-05
3.4607522e-05
3.4315777e-05
3.3554458e-05
3.16563e-05
2.7438403e-05
2.1076946e-05
1.7774701e-05
1.9481897e-05
1.6755877e-05
3.4438571e-05
3.443338e-05
3.4415717e-05
3.4365168e-05
3.4228127e-05
3.3872266e-05
3.2977968e-05
3.0820513e-05
2.6321667e-05
2.064959e-05
1.9168673e-05
2.1348725e-05
1.6617712e-05
3.4136931e-05
3.4129689e-05
3.4105903e-05
3.4040932e-05
3.3872746e-05
3.3452766e-05
3.2426062e-05
3.0012536e-05
2.5355877e-05
2.0719809e-05
2.0958175e-05
2.3166793e-05
1.6521078e-05
3.3859367e-05
3.3849701e-05
3.3819003e-05
3.3738723e-05
3.3539365e-05
3.3056856e-05
3.1897087e-05
2.923354e-05
2.4602257e-05
2.1309035e-05
2.3024752e-05
2.4858007e-05
1.6457822e-05
3.3602495e-05
3.3590098e-05
3.355197e-05
3.3456247e-05
3.3227088e-05
3.2684517e-05
3.1388405e-05
2.8493548e-05
2.4138757e-05
2.2402734e-05
2.5241354e-05
2.6381455e-05
1.6418929e-05
3.3363555e-05
3.334823e-05
3.3302533e-05
3.3192135e-05
3.2935885e-05
3.2335692e-05
3.0897111e-05
2.7818119e-05
2.4044358e-05
2.3946906e-05
2.7493335e-05
2.7726694e-05
1.6396422e-05
3.3140311e-05
3.3122024e-05
3.3069114e-05
3.2945826e-05
3.2666358e-05
3.2009929e-05
3.0421904e-05
2.725306e-05
2.4379894e-05
2.5855075e-05
2.9693858e-05
2.8902281e-05
1.6384202e-05
3.2930983e-05
3.2909915e-05
3.2850758e-05
3.2717477e-05
3.2419519e-05
3.1706209e-05
2.9966345e-05
2.6863467e-05
2.5173338e-05
2.8023002e-05
3.1788481e-05
2.9925862e-05
1.6378087e-05
3.27342e-05
3.2710811e-05
3.2647097e-05
3.2507877e-05
3.219656e-05
3.14231e-05
2.9543334e-05
2.6725089e-05
2.6414165e-05
3.0346001e-05
3.3750499e-05
3.0817911e-05
1.6375449e-05
3.254898e-05
3.2524066e-05
3.2458325e-05
3.2318372e-05
3.1998619e-05
3.1159479e-05
2.9179673e-05
2.6909997e-05
2.8056821e-05
3.2733298e-05
3.5572232e-05
3.159849e-05
1.6374764e-05
3.2374714e-05
3.234948e-05
3.2285189e-05
3.2150777e-05
3.1826588e-05
3.0916123e-05
2.8918576e-05
2.7471841e-05
3.0030665e-05
3.5115834e-05
3.7256818e-05
3.2285747e-05
1.6375224e-05
3.2211173e-05
3.2187303e-05
3.2128983e-05
3.2007273e-05
3.1681012e-05
3.0698309e-05
2.8817773e-05
2.8435851e-05
3.2252929e-05
3.7447133e-05
3.8812575e-05
3.2895331e-05
1.6376448e-05
3.2058522e-05
3.2038256e-05
3.199155e-05
3.1890271e-05
3.1562235e-05
3.051924e-05
2.8942305e-05
2.9795901e-05
3.4641249e-05
3.9699498e-05
4.0249838e-05
3.3440303e-05
1.6378293e-05
3.1917349e-05
3.1903563e-05
3.1875268e-05
3.1802262e-05
3.147098e-05
3.0403414e-05
2.9353632e-05
3.1518041e-05
3.7123065e-05
4.1858566e-05
4.1579379e-05
3.3931332e-05
1.6380731e-05
3.1788707e-05
3.1784988e-05
3.1783034e-05
3.1745667e-05
3.1409596e-05
3.0388388e-05
3.009864e-05
3.3548311e-05
3.9640503e-05
4.3918427e-05
4.2811639e-05
3.4377031e-05
1.638378e-05
3.167417e-05
3.1684884e-05
3.1718215e-05
3.1722747e-05
3.1384107e-05
3.0523332e-05
3.1201974e-05
3.5822341e-05
4.2151078e-05
4.5878174e-05
4.3956334e-05
3.4784314e-05
1.6387467e-05
3.1575896e-05
3.1606239e-05
3.1684577e-05
3.1735682e-05
3.1406918e-05
3.086367e-05
3.2663376e-05
3.8274456e-05
4.4625623e-05
4.7739783e-05
4.5022273e-05
3.5158739e-05
1.6391813e-05
3.1496714e-05
3.155272e-05
3.1686171e-05
3.1786997e-05
3.1499545e-05
3.1462864e-05
3.4459808e-05
4.084458e-05
4.7045145e-05
4.9506881e-05
4.6017315e-05
3.5504794e-05
1.6396824e-05
3.1440215e-05
3.1528703e-05
3.1727217e-05
3.1880504e-05
3.1694228e-05
3.236374e-05
3.655094e-05
4.3482183e-05
4.9397838e-05
5.1183995e-05
4.6948402e-05
3.5826124e-05
1.6402494e-05
3.141085e-05
3.1539289e-05
3.1812006e-05
3.2022925e-05
3.2033142e-05
3.3591891e-05
3.8886226e-05
4.6147424e-05
5.1676785e-05
5.2776062e-05
4.782164e-05
3.6125718e-05
1.6408802e-05
3.1414042e-05
3.1590274e-05
3.1944927e-05
3.2226118e-05
3.256456e-05
3.5152681e-05
4.1411883e-05
4.8810346e-05
5.3878382e-05
5.428812e-05
4.8642392e-05
3.6406047e-05
1.6415722e-05
3.1456281e-05
3.1688095e-05
3.2130756e-05
3.250943e-05
3.3336477e-05
3.7032005e-05
4.4076502e-05
5.1449128e-05
5.6001294e-05
5.5725113e-05
4.9415387e-05
3.6669254e-05
1.642322e-05
3.1545208e-05
3.183974e-05
3.2375385e-05
3.290132e-05
3.4389408e-05
3.9199971e-05
4.683463e-05
5.4048185e-05
5.8045687e-05
5.7091636e-05
5.0144338e-05
3.6914943e-05
1.6431248e-05
3.1689662e-05
3.2052668e-05
3.2687145e-05
3.3439132e-05
3.5750335e-05
4.1616204e-05
4.9648329e-05
5.6596555e-05
6.001274e-05
5.8392009e-05
5.0832726e-05
3.7144922e-05
1.6439749e-05
3.1899684e-05
3.2334823e-05
3.3078703e-05
3.4166336e-05
3.7429297e-05
4.4235455e-05
5.2487188e-05
5.9086679e-05
6.1904241e-05
5.963009e-05
5.1482695e-05
3.7361243e-05
1.6448668e-05
3.2186465e-05
3.2694872e-05
3.3569195e-05
3.5127407e-05
3.941906e-05
4.7012424e-05
5.5327445e-05
6.1513504e-05
6.3722341e-05
6.0809393e-05
5.209645e-05
3.7565313e-05
1.6457958e-05
3.2562282e-05
3.3142861e-05
3.418583e-05
3.6361547e-05
4.1697454e-05
4.9905183e-05
5.8150803e-05
6.3873831e-05
6.5469389e-05
6.1933116e-05
5.2677399e-05
3.7758158e-05
1.6467586e-05
3.3040475e-05
3.3691441e-05
3.4963992e-05
3.7896944e-05
4.4231427e-05
5.2877044e-05
6.094328e-05
6.6165775e-05
6.7147564e-05
6.3002904e-05
5.3228278e-05
3.7940823e-05
1.6477531e-05
3.3635639e-05
3.4357648e-05
3.5945065e-05
3.974699e-05
4.6981718e-05
5.5897115e-05
6.3694245e-05
6.8388428e-05
6.8759333e-05
6.4022594e-05
5.3751053e-05
3.8114078e-05
1.6487766e-05
3.4364225e-05
3.5164902e-05
3.7171976e-05
4.1909153e-05
4.9907174e-05
5.8940021e-05
6.6395661e-05
7.0541364e-05
7.0305656e-05
6.4995387e-05
5.4247639e-05
3.8278684e-05
1.6498266e-05
3.5245722e-05
3.6144415e-05
3.8683391e-05
4.436636e-05
5.2968073e-05
6.1985165e-05
6.9041445e-05
7.2624745e-05
7.1789406e-05
6.592387e-05
5.4719659e-05
3.8435268e-05
1.6509004e-05
3.6304393e-05
3.7335016e-05
4.050807e-05
4.7090195e-05
5.6128202e-05
6.5015939e-05
7.162695e-05
7.4638164e-05
7.3213262e-05
6.6810356e-05
5.5168629e-05
3.8584368e-05
1.6519954e-05
3.757105e-05
3.8780598e-05
4.2660835e-05
5.0044942e-05
5.9355774e-05
6.8018893e-05
7.4148645e-05
7.6582485e-05
7.4579716e-05
6.7656898e-05
5.559589e-05
3.8726449e-05
1.653109e-05
3.9083857e-05
4.0525218e-05
4.5140973e-05
5.3191575e-05
6.2623565e-05
7.0983099e-05
7.6603204e-05
7.8458832e-05
7.5890904e-05
6.8465402e-05
5.6002629e-05
3.8861904e-05
1.6542386e-05
4.0886906e-05
4.2606856e-05
4.793309e-05
5.649098e-05
6.5908439e-05
7.389952e-05
7.8988638e-05
8.0268729e-05
7.714873e-05
6.9237562e-05
5.6389884e-05
3.8991065e-05
1.6553815e-05
4.3025766e-05
4.5051415e-05
5.100987e-05
5.9906205e-05
6.9190857e-05
7.6760128e-05
8.1303254e-05
8.201341e-05
7.8354957e-05
6.9974892e-05
5.6758557e-05
3.9114209e-05
1.6565353e-05
4.5540346e-05
4.786845e-05
5.4335742e-05
6.3403504e-05
7.2453895e-05
7.95584e-05
8.3546715e-05
8.3693966e-05
7.951113e-05
7.0678706e-05
5.7109422e-05
3.9231564e-05
1.6576974e-05
4.8456705e-05
5.104944e-05
5.7870614e-05
6.695274e-05
7.5682769e-05
8.2288848e-05
8.5718412e-05
8.5311356e-05
8.0618588e-05
7.1350131e-05
5.7443128e-05
3.9343313e-05
1.6588653e-05
5.1780109e-05
5.4568618e-05
6.1572926e-05
7.0526853e-05
7.8863928e-05
8.49478e-05
8.781775e-05
8.6866335e-05
8.167844e-05
7.1990107e-05
5.7760211e-05
3.9449592e-05
1.6600366e-05
5.5491352e-05
5.8385624e-05
6.5401379e-05
7.4100908e-05
8.1987168e-05
8.7531646e-05
8.9844027e-05
8.8359427e-05
8.2691561e-05
7.2599385e-05
5.8061091e-05
3.9550497e-05
1.6612086e-05
5.9547216e-05
6.24489e-05
6.9315555e-05
7.7653768e-05
8.5043634e-05
9.0036928e-05
9.1796362e-05
8.979089e-05
8.3658576e-05
7.3178533e-05
5.8346079e-05
3.9646084e-05
1.662379e-05
6.3884468e-05
6.6699782e-05
7.3278192e-05
8.1167566e-05
8.8025168e-05
9.246022e-05
9.3673646e-05
9.1160696e-05
8.4579857e-05
7.3727926e-05
5.8615375e-05
3.9736369e-05
1.663545e-05
6.8427345e-05
7.1077077e-05
7.7255182e-05
8.4626035e-05
9.0924139e-05
9.4798059e-05
9.5474516e-05
9.2468524e-05
8.5455516e-05
7.4247758e-05
5.8869073e-05
3.9821326e-05
1.664704e-05
7.3095557e-05
7.5520295e-05
8.1214724e-05
8.8014206e-05
9.3733339e-05
9.7046927e-05
9.7197358e-05
9.3713761e-05
8.6285416e-05
7.4738038e-05
5.9107162e-05
3.9900894e-05
1.665853e-05
7.7811317e-05
7.9972337e-05
8.5127285e-05
9.1318203e-05
9.6445931e-05
9.9203271e-05
9.8840341e-05
9.4895535e-05
8.7069183e-05
7.5198604e-05
5.9329531e-05
3.9974972e-05
1.6669891e-05
8.2504413e-05
8.4381508e-05
8.8965699e-05
9.4525162e-05
9.9055466e-05
0.00010126357
0.00010040148
9.6012757e-05
8.7806241e-05
7.562914e-05
5.9535981e-05
4.0043427e-05
1.6681088e-05
8.7115094e-05
8.8702806e-05
9.2705396e-05
9.7623245e-05
0.00010155594
0.00010322445
0.00010187875
9.7064194e-05
8.8495856e-05
7.6029204e-05
5.9726235e-05
4.01061e-05
1.6692087e-05
9.159506e-05
9.2898565e-05
9.6324686e-05
0.00010060174
0.0001039419
0.00010508275
0.00010327016
9.8048557e-05
8.9137197e-05
7.6398265e-05
5.989996e-05
4.0162807e-05
1.6702851e-05
9.5907126e-05
9.6938526e-05
9.9805002e-05
0.00010345118
0.00010620855
0.00010683573
0.0001045739
9.8964606e-05
8.9729409e-05
7.6735749e-05
6.0056793e-05
4.021336e-05
1.671334e-05
0.0001000241
0.00010079947
0.00010313106
0.00010616353
0.00010835186
0.0001084811
0.00010578847
9.9811251e-05
9.0271698e-05
7.7041098e-05
6.0196373e-05
4.0257568e-05
1.6723514e-05
0.00010392731
0.00010446457
0.00010629089
0.00010873227
0.00011036866
0.0001100172
0.00010691278
0.00010058766
9.0763409e-05
7.7313819e-05
6.0318372e-05
4.0295261e-05
1.6733331e-05
0.0001076051
0.00010792258
0.00010927571
0.00011115248
0.00011225675
0.00011144305
0.00010794624
0.00010129334
9.1204106e-05
7.7553552e-05
6.0422531e-05
4.0326299e-05
1.674275e-05
0.00011105141
0.00011116696
0.00011207977
0.00011342086
0.00011401491
0.00011275838
0.00010888883
0.00010192824
9.1593643e-05
7.7760116e-05
6.0508695e-05
4.035059e-05
1.6751732e-05
0.00011426457
0.00011419508
0.00011469999
0.00011553572
0.00011564292
0.00011396369
0.00010974112
0.00010249275
9.1932214e-05
7.7933556e-05
6.0576842e-05
4.03681e-05
1.6760239e-05
0.00011724629
0.00011700747
0.00011713573
0.00011749684
0.00011714154
0.00011506022
0.00011050433
0.00010298778
9.2220388e-05
7.8074177e-05
6.0627104e-05
4.0378868e-05
1.6768238e-05
0.00012000085
0.00011960713
0.00011938834
0.00011930539
0.00011851244
0.00011604991
0.00011118024
0.00010341474
9.2459129e-05
7.8182561e-05
6.0659786e-05
4.0383006e-05
1.6775699e-05
0.00012253442
0.000121999
0.00012146093
0.00012096378
0.00011975816
0.0001169354
0.00011177124
0.00010377551
9.2649789e-05
7.8259577e-05
6.067537e-05
4.0380709e-05
1.6782601e-05
0.00012485459
0.00012418949
0.00012335798
0.00012247546
0.000120882
0.00011771987
0.00011228018
0.00010407245
9.2794092e-05
7.8306369e-05
6.0674512e-05
4.0372248e-05
1.6788927e-05
0.00012696993
0.0001261861
0.00012508509
0.00012384483
0.00012188792
0.00011840707
0.00011271042
0.00010430827
9.2894102e-05
7.8324342e-05
6.0658035e-05
4.035797e-05
1.6794666e-05
0.0001288897
0.00012799713
0.00012664873
0.00012507698
0.00012278043
0.00011900116
0.00011306564
0.00010448607
9.2952177e-05
7.831513e-05
6.0626908e-05
4.0338284e-05
1.6799815e-05
0.00013062361
0.00012963141
0.000128056
0.00012617762
0.0001235645
0.00011950666
0.00011334988
0.00010460921
9.2970925e-05
7.828056e-05
6.058223e-05
4.0313657e-05
1.6804378e-05
0.0001321816
0.0001310981
0.00012931448
0.0001271529
0.00012424545
0.00011992836
0.00011356737
0.00010468127
9.2953145e-05
7.8222618e-05
6.0525195e-05
4.0284596e-05
1.6808365e-05
0.00013357372
0.00013240653
0.00013043203
0.00012800929
0.00012482885
0.00012027124
0.00011372253
0.00010470597
9.2901776e-05
7.8143399e-05
6.0457075e-05
4.0251638e-05
1.681179e-05
0.00013480998
0.00013356611
0.0001314167
0.00012875348
0.00012532046
0.00012054042
0.00011381987
0.00010468713
9.2819848e-05
7.8045076e-05
6.0379183e-05
4.0215336e-05
1.6814674e-05
0.00013590029
0.00013458618
0.00013227659
0.00012939226
0.00012572611
0.00012074105
0.00011386392
0.00010462862
9.2710425e-05
7.792985e-05
6.0292853e-05
4.0176248e-05
1.6817042e-05
0.00013685437
0.00013547593
0.00013301976
0.00012993246
0.00012605168
0.0001208783
0.00011385924
0.00010453428
9.2576567e-05
7.7799922e-05
6.0199414e-05
4.0134922e-05
1.6818922e-05
0.00013768169
0.00013624438
0.00013365419
0.00013038086
0.00012630299
0.00012095728
0.00011381029
0.0001044079
9.2421291e-05
7.7657457e-05
6.0100165e-05
4.0091889e-05
1.6820345e-05
0.00013839143
0.00013690028
0.00013418768
0.00013074415
0.00012648581
0.00012098303
0.00011372145
0.00010425317
9.2247532e-05
7.7504555e-05
5.999636e-05
4.0047657e-05
1.6821344e-05
0.00013899244
0.0001374521
0.00013462782
0.00013102886
0.00012660574
0.00012096043
0.00011359697
0.00010407368
9.2058119e-05
7.7343232e-05
5.9889189e-05
4.0002698e-05
1.6821951e-05
0.00013949324
0.00013790799
0.00013498194
0.00013124136
0.00012666826
0.00012089422
0.00011344094
0.00010387285
9.1855753e-05
7.7175397e-05
5.9779772e-05
3.9957451e-05
1.6822202e-05
0.00013990195
0.00013827577
0.00013525712
0.00013138777
0.00012667864
0.00012078897
0.00011325728
0.00010365395
9.1642988e-05
7.7002844e-05
5.9669142e-05
3.9912311e-05
1.682213e-05
0.00014022634
0.00013856288
0.00013546013
0.00013147399
0.00012664195
0.00012064903
0.00011304971
0.00010342006
9.1422218e-05
7.6827233e-05
5.9558248e-05
3.9867633e-05
1.6821769e-05
0.00014047378
0.00013877642
0.00013559743
0.00013150567
0.00012656304
0.00012047856
0.00011282176
0.00010317408
9.1195668e-05
7.6650093e-05
5.9447945e-05
3.9823732e-05
1.6821151e-05
0.00014065126
0.00013892313
0.00013567516
0.00013148818
0.00012644653
0.0001202815
0.00011257674
0.00010291869
9.0965394e-05
7.6472813e-05
5.9338995e-05
3.9780878e-05
1.6820309e-05
0.00014076537
0.00013900937
0.00013569914
0.00013142663
0.00012629678
0.00012006156
0.00011231775
0.00010265641
9.0733273e-05
7.6296645e-05
5.9232069e-05
3.9739301e-05
1.6819271e-05
0.00014082234
0.00013904113
0.00013567488
0.00013132583
0.00012611793
0.00011982222
0.0001120477
0.00010238954
9.0501012e-05
7.6122701e-05
5.912775e-05
3.9699192e-05
1.6818066e-05
0.00014082801
0.00013902407
0.00013560755
0.00013119034
0.00012591386
0.00011956674
0.00011176924
0.00010212018
9.0270139e-05
7.5951947e-05
5.9026487e-05
3.9660493e-05
1.6816719e-05
0.00014078786
0.00013896346
0.00013550202
0.00013102442
0.0001256882
0.00011929817
0.00011148485
0.00010185024
9.0042012e-05
7.5785209e-05
5.8928635e-05
3.9623155e-05
1.6815251e-05
0.00014070702
0.00013886427
0.00013536283
0.00013083208
0.00012544436
0.0001190193
0.00011119677
0.00010158142
8.9817802e-05
7.5623126e-05
5.8834217e-05
3.9587469e-05
1.6813682e-05
0.00014059027
0.00013873112
0.00013519425
0.00013061705
0.0001251855
0.00011873274
0.00011090707
0.00010131527
8.9598539e-05
7.546628e-05
5.8743575e-05
3.9553561e-05
1.681203e-05
0.00014044207
0.00013856832
0.00013500024
0.00013038281
0.00012491454
0.00011844087
0.00011061759
0.0001010531
8.9385015e-05
7.5314795e-05
5.8657142e-05
3.9521523e-05
1.6810318e-05
0.00014026656
0.00013837986
0.00013478448
0.00013013257
0.00012463418
0.00011814585
0.00011032998
0.00010079606
8.9177861e-05
7.5169368e-05
5.8575066e-05
3.9491405e-05
1.6808563e-05
0.00014006758
0.00013816947
0.00013455039
0.00012986934
0.00012434692
0.00011784965
0.00011004571
0.00010054513
8.8977622e-05
7.503046e-05
5.8497472e-05
3.9463241e-05
1.6806783e-05
0.00013984867
0.00013794056
0.00013430111
0.00012959584
0.000124055
0.00011755404
0.00010976602
0.00010030096
8.8785098e-05
7.4898319e-05
5.8424442e-05
3.9437041e-05
1.6804993e-05
0.00013961311
0.00013769631
0.00013403956
0.0001293146
0.00012376049
0.00011726057
0.00010949193
0.00010006451
8.8600756e-05
7.4773121e-05
5.8356011e-05
3.9412796e-05
1.6803207e-05
0.00013936391
0.00013743963
0.0001337684
0.00012902791
0.00012346523
0.00011697057
0.00010922445
9.9836563e-05
8.8424941e-05
7.465498e-05
5.8292176e-05
3.939048e-05
1.6801436e-05
0.00013910384
0.00013717317
0.00013349005
0.00012873785
0.00012317083
0.00011668523
0.00010896466
9.9617665e-05
8.8257906e-05
7.4543953e-05
5.8232903e-05
3.937005e-05
1.6799691e-05
0.00013883541
0.00013689936
0.00013320672
0.00012844622
0.00012287868
0.00011640585
0.00010871335
9.9408257e-05
8.809982e-05
7.4440041e-05
5.8178122e-05
3.9351455e-05
1.679798e-05
0.00013856091
0.00013662038
0.00013292032
0.00012815467
0.00012259033
0.00011613349
0.00010847119
9.9208672e-05
8.7950778e-05
7.4343194e-05
5.812774e-05
3.9334631e-05
1.679631e-05
0.00013828236
0.00013633816
0.00013263267
0.00012786487
0.00012230705
0.00011586906
0.00010823871
9.9019152e-05
8.7810806e-05
7.4253324e-05
5.8081643e-05
3.9319511e-05
1.6794689e-05
0.00013800162
0.00013605455
0.00013234549
0.00012757829
0.00012202996
0.00011561331
0.00010801634
9.883985e-05
8.7679871e-05
7.41703e-05
5.8039695e-05
3.9306018e-05
1.6793122e-05
0.00013772043
0.00013577121
0.00013206032
0.00012729621
0.00012176005
0.00011536687
0.00010780441
9.8670843e-05
8.7557884e-05
7.4093962e-05
5.8001748e-05
3.9294075e-05
1.6791612e-05
0.00013744034
0.00013548967
0.00013177855
0.00012701978
0.00012149815
0.00011513028
0.00010760314
9.8512138e-05
8.744471e-05
7.402412e-05
5.796764e-05
3.9283599e-05
1.6790164e-05
0.00013716278
0.00013521131
0.0001315014
0.00012675
0.00012124498
0.00011490395
0.00010741269
9.836368e-05
8.7340171e-05
7.3960564e-05
5.79372e-05
3.9274508e-05
1.6788779e-05
0.00013688902
0.00013493734
0.00013122998
0.00012648776
0.00012100114
0.00011468819
0.00010723314
9.8225356e-05
8.7244055e-05
7.3903061e-05
5.7910253e-05
3.9266719e-05
1.678746e-05
0.00013662021
0.00013466886
0.00013096523
0.00012623378
0.00012076711
0.00011448324
0.00010706446
9.8097006e-05
8.7156116e-05
7.3851367e-05
5.7886615e-05
3.9260148e-05
1.6786208e-05
0.00013635736
0.00013440683
0.00013070799
0.00012598872
0.00012054329
0.00011428923
0.00010690662
9.7978424e-05
8.7076086e-05
7.3805222e-05
5.7866103e-05
3.9254713e-05
1.6785024e-05
0.00013610134
0.00013415207
0.00013045896
0.00012575308
0.00012032998
0.00011410624
0.00010675949
9.7869368e-05
8.7003673e-05
7.3764363e-05
5.7848533e-05
3.9250334e-05
1.6783907e-05
0.00013585291
0.0001339053
0.00013021875
0.0001255273
0.00012012739
0.00011393427
0.00010662289
9.7769563e-05
8.693857e-05
7.3728516e-05
5.7833719e-05
3.924693e-05
1.6782859e-05
0.00013561274
0.00013366712
0.00012998786
0.00012531171
0.00011993564
0.00011377327
0.00010649662
9.7678706e-05
8.6880454e-05
7.3697407e-05
5.782148e-05
3.9244427e-05
1.6781878e-05
0.00013538136
0.00013343805
0.00012976669
0.00012510655
0.00011975481
0.00011362311
0.00010638043
9.7596472e-05
8.6828994e-05
7.3670759e-05
5.7811636e-05
3.9242749e-05
1.6780963e-05
0.00013515923
0.0001332185
0.00012955557
0.000124912
0.00011958489
0.00011348363
0.00010627404
9.7522516e-05
8.6783852e-05
7.3648298e-05
5.7804011e-05
3.9241825e-05
1.6780114e-05
0.0001349467
0.00013300878
0.00012935471
0.00012472815
0.00011942582
0.00011335463
0.00010617711
9.7456477e-05
8.6744684e-05
7.3629749e-05
5.7798434e-05
3.9241586e-05
1.6779328e-05
0.00013474405
0.00013280913
0.00012916427
0.00012455504
0.00011927747
0.00011323584
0.00010608933
9.7397984e-05
8.6711144e-05
7.3614843e-05
5.7794737e-05
3.9241966e-05
1.6778604e-05
0.00013455149
0.00013261973
0.00012898435
0.00012439261
0.00011913969
0.00011312699
0.00010601032
9.7346656e-05
8.6682889e-05
7.3603315e-05
5.7792759e-05
3.9242903e-05
1.6777941e-05
0.00013436913
0.00013244067
0.00012881497
0.0001242408
0.00011901226
0.00011302777
0.00010593972
9.7302108e-05
8.6659574e-05
7.3594905e-05
5.7792344e-05
3.9244336e-05
1.6777335e-05
0.00013419704
0.00013227198
0.00012865609
0.00012409947
0.00011889494
0.00011293784
0.00010587712
9.7263954e-05
8.6640864e-05
7.3589362e-05
5.7793344e-05
3.9246209e-05
1.6776786e-05
0.00013403523
0.00013211364
0.00012850763
0.00012396844
0.00011878746
0.00011285683
0.00010582215
9.7231807e-05
8.6626426e-05
7.3586443e-05
5.7795615e-05
3.9248468e-05
1.677629e-05
0.00013388365
0.00013196558
0.00012836945
0.00012384749
0.0001186895
0.00011278439
0.0001057744
9.7205286e-05
8.6615941e-05
7.3585916e-05
5.7799025e-05
3.9251063e-05
1.6775846e-05
0.00013374219
0.00013182767
0.00012824138
0.00012373637
0.00011860074
0.00011272013
0.00010573346
9.7184015e-05
8.6609095e-05
7.3587559e-05
5.7803446e-05
3.9253949e-05
1.6775451e-05
0.00013361072
0.00013169976
0.00012812321
0.0001236348
0.00011852084
0.00011266364
0.00010569894
9.7167626e-05
8.6605587e-05
7.3591157e-05
5.7808759e-05
3.9257082e-05
1.6775102e-05
0.00013348906
0.00013158165
0.0001280147
0.00012354248
0.00011844942
0.00011261454
0.00010567044
9.7155757e-05
8.6605126e-05
7.359651e-05
5.781485e-05
3.9260422e-05
1.6774798e-05
0.00013337699
0.00013147308
0.00012791555
0.00012345908
0.00011838611
0.00011257242
0.00010564756
9.7148055e-05
8.6607431e-05
7.3603423e-05
5.7821614e-05
3.9263932e-05
1.6774535e-05
0.00013327424
0.00013137381
0.00012782548
0.00012338424
0.00011833052
0.00011253688
0.00010562991
9.7144175e-05
8.661223e-05
7.3611711e-05
5.7828949e-05
3.9267576e-05
1.6774313e-05
0.00013318055
0.00013128352
0.00012774416
0.0001233176
0.00011828225
0.00011250749
0.00010561709
9.7143781e-05
8.6619261e-05
7.3621198e-05
5.783676e-05
3.927132e-05
1.6774127e-05
0.0001330956
0.00013120189
0.00012767122
0.00012325877
0.00011824089
0.00011248385
0.00010560874
9.7146545e-05
8.6628271e-05
7.3631714e-05
5.7844957e-05
3.9275134e-05
1.6773976e-05
0.00013301905
0.00013112859
0.0001276063
0.00012320735
0.00011820602
0.00011246556
0.00010560446
9.7152149e-05
8.6639019e-05
7.3643098e-05
5.7853452e-05
3.9278988e-05
1.6773857e-05
0.00013295056
0.00013106325
0.00012754903
0.00012316295
0.00011817724
0.00011245221
0.00010560391
9.7160288e-05
8.6651273e-05
7.3655199e-05
5.7862167e-05
3.9282855e-05
1.6773768e-05
0.00013288977
0.0001310055
0.00012749902
0.00012312517
0.00011815413
0.00011244342
0.00010560672
9.7170673e-05
8.6664816e-05
7.3667877e-05
5.7871029e-05
3.928671e-05
1.6773706e-05
0.00013283631
0.00013095497
0.00012745587
0.0001230936
0.00011813631
0.00011243879
0.00010561256
9.7183031e-05
8.6679449e-05
7.3681003e-05
5.7879972e-05
3.9290533e-05
1.6773669e-05
0.00013278982
0.00013091128
0.00012741921
0.00012306784
0.00011812337
0.00011243798
0.00010562112
9.7197107e-05
8.6694987e-05
7.3694461e-05
5.7888939e-05
3.9294305e-05
1.6773655e-05
0.00013274992
0.00013087407
0.00012738865
0.00012304752
0.00011811495
0.00011244064
0.0001056321
9.7212666e-05
8.6711261e-05
7.3708149e-05
5.789788e-05
3.9298012e-05
1.6773662e-05
0.00013271625
0.00013084295
0.00012736381
0.00012303227
0.00011811069
0.00011244645
0.00010564522
9.7229492e-05
8.6728119e-05
7.3721974e-05
5.7906752e-05
3.9301641e-05
1.6773688e-05
0.00013268844
0.00013081756
0.00012734433
0.0001230217
0.00011811025
0.00011245508
0.00010566023
9.7247383e-05
8.6745422e-05
7.3735855e-05
5.7915517e-05
3.9305182e-05
1.6773731e-05
0.00013266613
0.00013079753
0.00012732983
0.00012301547
0.00011811328
0.00011246625
0.00010567687
9.726615e-05
8.6763043e-05
7.3749717e-05
5.7924144e-05
3.9308626e-05
1.6773789e-05
0.00013264896
0.0001307825
0.00012731996
0.00012301322
0.00011811945
0.00011247966
0.00010569491
9.7285616e-05
8.6780859e-05
7.376349e-05
5.7932599e-05
3.9311964e-05
1.6773862e-05
0.00013263654
0.00013077209
0.00012731434
0.00012301461
0.00011812846
0.00011249504
0.00010571413
9.7305611e-05
8.6798757e-05
7.3777108e-05
5.7940854e-05
3.9315189e-05
1.6773947e-05
0.00013262852
0.00013076595
0.00012731262
0.00012301929
0.00011813997
0.00011251212
0.00010573429
9.7325969e-05
8.6816625e-05
7.3790507e-05
5.7948878e-05
3.9318293e-05
1.6774043e-05
0.00013262452
0.00013076369
0.00012731443
0.00012302691
0.00011815369
0.00011253062
0.0001057552
9.7346533e-05
8.6834358e-05
7.3803623e-05
5.7956639e-05
3.9321247e-05
1.6774148e-05
0.00013262417
0.00013076496
0.00012731943
0.00012303715
0.00011816932
0.0001125503
0.00010577664
9.7367153e-05
8.6851854e-05
7.3816398e-05
5.7964109e-05
3.9324035e-05
1.6774261e-05
0.00013262713
0.00013076941
0.00012732727
0.00012304968
0.00011818657
0.00011257092
0.00010579843
9.7387692e-05
8.6869023e-05
7.3828775e-05
5.7971243e-05
3.9326666e-05
1.6774379e-05
0.00013263306
0.0001307767
0.00012733762
0.0001230642
0.00011820517
0.00011259226
0.0001058204
9.7408023e-05
8.6885781e-05
7.3840708e-05
5.7978026e-05
3.9329141e-05
1.6774501e-05
0.00013264162
0.00013078652
0.00012735019
0.00012308044
0.00011822488
0.00011261411
0.00010584239
9.7428039e-05
8.6902058e-05
7.3852142e-05
5.7984461e-05
3.9331461e-05
1.6774625e-05
0.00013265254
0.00013079856
0.00012736468
0.00012309814
0.00011824548
0.0001126363
0.00010586427
9.7447648e-05
8.6917798e-05
7.3863061e-05
5.7990543e-05
3.9333628e-05
1.6774752e-05
0.00013266554
0.00013081257
0.00012738086
0.00012311706
0.00011826677
0.00011265867
0.00010588592
9.7466771e-05
8.693294e-05
7.3873467e-05
5.7996274e-05
3.9335645e-05
1.6774879e-05
0.00013268036
0.00013082829
0.00012739847
0.00012313701
0.00011828859
0.00011268108
0.00010590725
9.7485345e-05
8.6947477e-05
7.3883353e-05
5.8001657e-05
3.9337518e-05
1.6775007e-05
0.00013269679
0.00013084552
0.00012741732
0.00012315778
0.00011831077
0.00011270344
0.00010592818
9.7503321e-05
8.6961403e-05
7.3892721e-05
5.8006702e-05
3.9339254e-05
1.6775134e-05
0.00013271462
0.00013086403
0.00012743722
0.00012317922
0.00011833318
0.00011272562
0.00010594863
9.7520686e-05
8.697471e-05
7.3901579e-05
5.801142e-05
3.934086e-05
1.6775261e-05
0.00013273362
0.00013088363
0.00012745796
0.00012320116
0.00011835569
0.00011274752
0.00010596856
9.7537417e-05
8.6987396e-05
7.3909936e-05
5.8015824e-05
3.9342343e-05
1.6775387e-05
0.00013275362
0.00013090412
0.00012747938
0.00012322344
0.00011837817
0.00011276907
0.00010598793
9.7553494e-05
8.699946e-05
7.3917802e-05
5.8019925e-05
3.9343709e-05
1.6775511e-05
0.0001327744
0.00013092532
0.00012750129
0.00012324591
0.0001184005
0.00011279019
0.00010600668
9.7568897e-05
8.7010902e-05
7.3925187e-05
5.8023734e-05
3.9344964e-05
1.6775634e-05
0.00013279576
0.00013094701
0.00012752351
0.0001232684
0.00011842256
0.00011281081
0.00010602478
9.7583604e-05
8.7021718e-05
7.3932098e-05
5.802726e-05
3.9346113e-05
1.6775754e-05
0.0001328175
0.00013096901
0.00012754586
0.00012329079
0.00011844425
0.00011283084
0.00010604217
9.759759e-05
8.70319e-05
7.3938535e-05
5.8030506e-05
3.9347159e-05
1.6775873e-05
0.00013283942
0.00013099113
0.00012756817
0.00012331291
0.00011846546
0.0001128502
0.0001060588
9.7610827e-05
8.7041437e-05
7.3944498e-05
5.8033476e-05
3.9348102e-05
1.6775988e-05
0.00013286133
0.00013101318
0.00012759028
0.00012333465
0.00011848607
0.00011286881
0.00010607462
9.7623286e-05
8.7050316e-05
7.3949984e-05
5.803617e-05
3.9348944e-05
1.6776099e-05
0.00013288308
0.00013103502
0.00012761206
0.00012335587
0.00011850599
0.00011288661
0.00010608959
9.7634942e-05
8.7058526e-05
7.395499e-05
5.8038587e-05
3.9349685e-05
1.6776207e-05
0.00013290452
0.0001310565
0.00012763336
0.00012337647
0.00011852514
0.00011290354
0.00010610366
9.7645778e-05
8.7066062e-05
7.3959513e-05
5.8040729e-05
3.9350325e-05
1.677631e-05
0.00013292555
0.00013107752
0.00012765411
0.00012339637
0.00011854346
0.00011291956
0.00010611683
9.7655789e-05
8.7072924e-05
7.3963561e-05
5.80426e-05
3.9350866e-05
1.6776407e-05
0.00013294608
0.000131098
0.00012767423
0.00012341552
0.00011856092
0.00011293466
0.00010612908
9.7664982e-05
8.7079126e-05
7.3967145e-05
5.8044208e-05
3.9351311e-05
1.6776498e-05
0.00013296606
0.0001311179
0.00012769367
0.00012343388
0.0001185775
0.00011294884
0.00010614045
9.7673385e-05
8.7084695e-05
7.3970287e-05
5.8045568e-05
3.9351667e-05
1.6776584e-05
0.00013298548
0.00013113719
0.00012771243
0.00012345147
0.00011859322
0.00011296214
0.00010615097
9.7681038e-05
8.7089669e-05
7.3973019e-05
5.8046702e-05
3.9351941e-05
1.6776663e-05
0.00013300433
0.00013115587
0.0001277305
0.00012346829
0.00011860812
0.00011297459
0.00010616068
9.7687997e-05
8.7094101e-05
7.3975383e-05
5.8047634e-05
3.9352144e-05
1.6776738e-05
0.00013302262
0.00013117395