/*--------------------------------*- C++ -*----------------------------------*\
| =========                 |                                                 |
| \\      /  F ield         | OpenFOAM: The Open Source CFD Toolbox           |
|  \\    /   O peration     | Version:  2506                                  |
|   \\  /    A nd           | Website:  www.openfoam.com                      |
|    \\/     M anipulation  |                                                 |
\*---------------------------------------------------------------------------*/
FoamFile
{
    version     2.0;
    format      ascii;
    arch        "LSB;label=32;scalar=64";
    class       surfaceScalarField;
    location    "24000/water";
    object      phi;
}
// * * * * * * * * * * * * * * * * * * * * * * * * * * * * * * * * * * * * * //

dimensions      [1 0 -1 0 0 0 0];

oriented        oriented;

internalField   nonuniform List<scalar> 
4987
(
-6.9167736e-06
0.00085760419
-2.7656569e-05
0.0024926737
-6.1431121e-05
0.0040117068
-0.0001075903
0.0054211695
-0.00016565319
0.0067272392
-0.00023525167
0.0079357375
-0.00031606519
0.0090521266
-0.00040763483
0.010081416
-0.00050867084
0.011027654
-0.00061447105
0.011892066
-0.00070641237
0.012665127
-0.00069017742
0.01327532
0.013255156
-6.4252097e-06
0.00086402939
-2.4701717e-05
0.0025109502
-5.3973207e-05
0.0040409782
-9.3433184e-05
0.0054606295
-0.00014227852
0.0067760845
-0.00019970621
0.0079931652
-0.00026484255
0.0091172629
-0.00033648012
0.010153054
-0.00041221923
0.011103393
-0.0004856843
0.011965531
-0.00053558126
0.012715024
-0.00047144624
0.013211185
0.01278371
-6.163969e-06
0.00087019336
-2.380905e-05
0.0025285953
-5.2164898e-05
0.0040693341
-9.0528703e-05
0.0054989933
-0.00013822172
0.0068237776
-0.00019455674
0.0080495002
-0.00025870612
0.0091814123
-0.00032929751
0.010223645
-0.00040329175
0.011177387
-0.00047276141
0.012035
-0.00051220841
0.012754471
-0.00042242592
0.013121403
0.012361284
-6.1054146e-06
0.00087629878
-2.3924376e-05
0.0025464143
-5.2620538e-05
0.0040980303
-9.1395558e-05
0.0055377683
-0.00013947504
0.006871857
-0.00019604176
0.0081060669
-0.00026004543
0.009245416
-0.00032969289
0.010293293
-0.00040116834
0.011248863
-0.00046497904
0.012098811
-0.00049117541
0.012780667
-0.00037835998
0.013008587
0.011982924
-5.9919785e-06
0.00088229076
-2.3432324e-05
0.0025638546
-5.1502782e-05
0.0041261007
-8.9417765e-05
0.0055756833
-0.0001363976
0.0069188369
-0.00019157934
0.0081612487
-0.00025377584
0.0093076125
-0.0003208868
0.010360404
-0.00038849228
0.011316468
-0.0004456482
0.012155967
-0.00045837524
0.012793394
-0.00033102689
0.012881239
0.011651897
-5.8197985e-06
0.00088811056
-2.2720415e-05
0.0025807553
-4.9911333e-05
0.0041532916
-8.6629801e-05
0.0056124017
-0.00013209822
0.0069643053
-0.00018540983
0.0082145603
-0.00024524283
0.0093674455
-0.00030921061
0.010424371
-0.00037232044
0.011379578
-0.00042207813
0.012205725
-0.00042081904
0.012792135
-0.00028517408
0.012745594
0.011366723
-5.6148952e-06
0.00089372545
-2.1923414e-05
0.0025970638
-4.8158186e-05
0.0041795264
-8.35701e-05
0.0056478136
-0.00012737381
0.007008109
-0.00017860877
0.0082657952
-0.00023581604
0.0094246528
-0.00029633568
0.010484891
-0.00035458539
0.011437828
-0.00039630862
0.012247448
-0.00038067559
0.012776502
-0.00024201049
0.012606929
0.011124713
-5.4046946e-06
0.00089913015
-2.1106786e-05
0.0026127659
-4.6361914e-05
0.0042047815
-8.0433154e-05
0.0056818849
-0.00012252438
0.0070502002
-0.00017161842
0.0083148893
-0.0002261212
0.0094791555
-0.00028309872
0.010541869
-0.00033629459
0.011491024
-0.00036936757
0.012280521
-0.00033930313
0.012746438
-0.00020218079
0.012469807
0.010922532
-5.2040372e-06
0.00090433418
-2.0322449e-05
0.0026278843
-4.4632487e-05
0.0042290916
-7.7407183e-05
0.0057146596
-0.000117836
0.007090629
-0.00016484161
0.0083618949
-0.00021669175
0.0095310057
-0.00027015443
0.010595331
-0.00031814583
0.011539015
-0.00034189245
0.012304267
-0.00029797663
0.012702522
-0.0001662914
0.012338121
0.010756241
-5.0193754e-06
0.00090935356
-1.9599432e-05
0.0026424643
-4.3036007e-05
0.0042525281
-7.460817e-05
0.0057462317
-0.00011348606
0.0071295069
-0.00015852683
0.0084069356
-0.0002078498
0.0095803287
-0.00025787593
0.010645357
-0.00030047882
0.011581618
-0.00031421626
0.012318005
-0.00025799659
0.012646302
-0.00013488814
0.012215013
0.010621352
-4.8544121e-06
0.00091420797
-1.8953518e-05
0.0026565634
-4.1607992e-05
0.0042751826
-7.2098328e-05
0.0057767221
-0.00010956978
0.0071669784
-0.00015280648
0.0084501723
-0.00019976083
0.009627283
-0.00024643025
0.010692027
-0.00028338284
0.01161857
-0.00028657101
0.012321193
-0.00022065197
0.012580383
-0.00010831398
0.012102675
0.010513039
-4.7104906e-06
0.00091891846
-1.838964e-05
0.0026702426
-4.0359024e-05
0.004297152
-6.9895773e-05
0.0058062588
-0.00010611414
0.0072031967
-0.00014771517
0.0084917734
-0.00019245611
0.0096720239
-0.00023580475
0.010735375
-0.00026674607
0.011649512
-0.00025920371
0.012313651
-0.00018698909
0.012508168
-8.6549236e-05
0.012002235
0.010426489
-4.5864893e-06
0.00092350495
-1.7903118e-05
0.0026835592
-3.9278552e-05
0.0043185274
-6.7981782e-05
0.0058349621
-0.00010308929
0.0072383042
-0.0001432058
0.0085318899
-0.00018585427
0.0097146724
-0.00022583645
0.010775358
-0.0002503233
0.011673999
-0.00023244679
0.012295774
-0.00015760689
0.012433329
-6.9195205e-05
0.011913823
0.010357294
-4.4797101e-06
0.00092798466
-1.7483378e-05
0.0026965629
-3.8343222e-05
0.0043393873
-6.631536e-05
0.0058629342
-0.00010043089
0.0072724198
-0.00013918123
0.0085706402
-0.00017980338
0.0097552946
-0.00021627053
0.010811825
-0.0002338457
0.011691574
-0.00020673153
0.01226866
-0.00013260939
0.012359206
-5.560311e-05
0.011836817
0.010301691
-4.3869483e-06
0.00093237161
-1.7117943e-05
0.0027092939
-3.7525518e-05
0.0043597948
-6.4848148e-05
0.0058902568
-9.8062773e-05
0.0073056344
-0.00013552609
0.0086081035
-0.00017412332
0.0097938918
-0.00020682319
0.010844525
-0.00021713162
0.011701882
-0.00018252415
0.012234053
-0.00011170489
0.012288387
-4.5044653e-05
0.011770157
0.010256646
-4.3051908e-06
0.0009366768
-1.6795059e-05
0.0027217838
-3.6799451e-05
0.0043797992
-6.3534222e-05
0.0059169916
-9.5911854e-05
0.007338012
-0.0001321276
0.0086443193
-0.00016863371
0.0098303979
-0.0001972305
0.010873121
-0.00020015793
0.01170481
-0.00016022089
0.012194115
-9.4372482e-05
0.012222539
-3.6838817e-05
0.011712623
0.010219807
-4.2319149e-06
0.00094090871
-1.6504851e-05
0.0027340567
-3.6143084e-05
0.0043994375
-6.2334438e-05
0.005943183
-9.3914666e-05
0.0073695922
-0.00012888455
0.0086792892
-0.00016316714
0.0098646805
-0.00018728235
0.010897237
-0.00018307195
0.011700599
-0.00014006424
0.012151108
-8.0017928e-05
0.012162492
-3.0412508e-05
0.011663018
0.010189395
-4.1651418e-06
0.00094507386
-1.6239539e-05
0.0027461311
-3.5538992e-05
0.0044187369
-6.1217189e-05
0.0059688612
-9.2018424e-05
0.0074003935
-0.00012570858
0.0087129793
-0.00015757395
0.0098965459
-0.00017684648
0.010916509
-0.00016614712
0.0116899
-0.0001221172
0.012107078
-6.8078242e-05
0.012108453
-2.5313026e-05
0.011620253
0.010164082
-4.1033745e-06
0.00094917723
-1.5993201e-05
0.0027580209
-3.4973725e-05
0.0044377174
-6.0157434e-05
0.0059940449
-9.0179432e-05
0.0074304155
-0.00012252186
0.0087453218
-0.00015172469
0.0099257487
-0.0001658846
0.010930669
-0.00014970629
0.011673722
-0.00010629218
0.012063664
-5.8071524e-05
0.012060233
-2.1196922e-05
0.011583378
0.010142885
-4.045497e-06
0.00095322273
-1.5761374e-05
0.0027697368
-3.4436919e-05
0.004456393
-5.9135102e-05
0.0060187431
-8.8360528e-05
0.0074596409
-0.00011925379
0.008776215
-0.00014551369
0.0099520086
-0.00015445694
0.010939612
-0.00013404494
0.01165331
-9.2406393e-05
0.012022025
-4.9608159e-05
0.012017435
-1.7811016e-05
0.011551581
0.010125074
-3.9906706e-06
0.0009572134
-1.5540649e-05
0.0027812868
-3.3920384e-05
0.0044747727
-5.8133472e-05
0.0060429561
-8.6528477e-05
0.0074880359
-0.00011583835
0.0088055249
-0.00013886507
0.0099750353
-0.00014270997
0.010943457
-0.00011937991
0.01162998
-8.0236233e-05
0.011982881
-4.2382127e-05
0.01197958
-1.4972587e-05
0.011524171
0.010110101
-3.938246e-06
0.00096115164
-1.5328322e-05
0.0027926768
-3.3417324e-05
0.0044928617
-5.7137748e-05
0.0060666766
-8.4651726e-05
0.0075155499
-0.00011221299
0.0088330861
-0.00013174064
0.009994563
-0.00013084741
0.010942564
-0.00010583199
0.011604964
-6.9555659e-05
0.011946605
-3.615582e-05
0.011946181
-1.2551512e-05
0.011500567
0.01009755
-3.8876948e-06
0.00096503934
-1.512212e-05
0.0028039113
-3.2921708e-05
0.0045106613
-5.613392e-05
0.0060898888
-8.2698665e-05
0.0075421146
-0.00010831969
0.0088587072
-0.00012414736
0.010010391
-0.00011909198
0.010937509
-9.3435702e-05
0.011579308
-6.0156891e-05
0.011913326
-3.0745124e-05
0.011916769
-1.04555e-05
0.011480277
0.010087094
-3.8385568e-06
0.00096887789
-1.4919992e-05
0.0028149927
-3.2427783e-05
0.0045281691
-5.510785e-05
0.0061125688
-8.0636493e-05
0.0075676433
-0.00010410814
0.0088821788
-0.00011614034
0.010022423
-0.00010764918
0.010929017
-8.2162718e-05
0.011553821
-5.1858105e-05
0.011883022
-2.6007009e-05
0.011890918
-8.618752e-06
0.011462889
0.010078476
-3.7904019e-06
0.0009726683
-1.471995e-05
0.0028259223
-3.1929704e-05
0.0045453789
-5.4044565e-05
0.0061346837
-7.8430838e-05
0.0075920295
-9.9540735e-05
0.0089032887
-0.00010781835
0.0100307
-9.6682484e-05
0.010917882
-7.1946847e-05
0.011529086
-4.4503961e-05
0.011855579
-2.1829745e-05
0.011868244
-6.9937044e-06
0.011448053
0.010071482
-3.7428e-06
0.0009764111
-1.4519945e-05
0.0028366994
-3.1421227e-05
0.0045622801
-5.2927708e-05
0.0061561902
-7.6046257e-05
0.0076151481
-9.4598626e-05
0.0089218411
-9.9310964e-05
0.010035413
-8.6303358e-05
0.010904874
-6.2703778e-05
0.011505486
-3.7963131e-05
0.011830838
-1.8125325e-05
0.011848406
-5.5452885e-06
0.011435473
0.010065937
-3.6952978e-06
0.00098010639
-1.4317763e-05
0.0028473219
-3.0895462e-05
0.0045788578
-5.1739149e-05
0.0061770339
-7.34478e-05
0.0076368567
-8.9287318e-05
0.0089376806
-9.0760485e-05
0.010036886
-7.6573766e-05
0.010890687
-5.4344024e-05
0.011483256
-3.2125053e-05
0.011808619
-1.4823684e-05
0.011831104
-4.2469964e-06
0.011424896
0.01006169
-3.6473963e-06
0.00098375379
-1.4110936e-05
0.0028577854
-3.0344641e-05
0.0045950915
-5.0458783e-05
0.006197148
-7.0603635e-05
0.0076570016
-8.3639734e-05
0.0089507167
-8.23036e-05
0.01003555
-6.7515804e-05
0.010875899
-4.6780166e-05
0.011462521
-2.6896731e-05
0.011788736
-1.1868359e-05
0.011816076
-3.0782579e-06
0.011416106
0.010058611
-3.5985288e-06
0.00098735232
-1.3896642e-05
0.0028680835
-2.9759896e-05
0.0046109548
-4.906462e-05
0.0062164527
-6.7488585e-05
0.0076754255
-7.7715074e-05
0.0089609432
-7.405734e-05
0.010031892
-5.9123312e-05
0.010860965
-3.9930399e-05
0.011443328
-2.2199858e-05
0.011771005
-9.213285e-06
0.011803089
-2.0226614e-06
0.011408916
0.010056589
-3.5480256e-06
0.00099090035
-1.3671564e-05
0.0028782071
-2.9130949e-05
0.0046264142
-4.753311e-05
0.0062348549
-6.4087909e-05
0.0076919803
-7.1592545e-05
0.0089684478
-6.611109e-05
0.010026411
-5.1371382e-05
0.010846226
-3.3718973e-05
0.011425676
-1.7967097e-05
0.011755253
-6.8191931e-06
0.011791942
-1.0665741e-06
0.011403163
0.010055522
-3.4950998e-06
0.00099439544
-1.343182e-05
0.0028881438
-2.8446031e-05
0.0046414284
-4.5840364e-05
0.0062522492
-6.0401302e-05
0.0077065413
-6.5362289e-05
0.0089734088
-5.8525783e-05
0.010019574
-4.4224382e-05
0.010831924
-2.8076926e-05
0.011409528
-1.4140032e-05
0.011741316
-4.6491671e-06
0.011782451
-1.6922721e-07
0.011398683
0.010055353
-3.4388796e-06
0.00099783432
-1.3173131e-05
0.002897878
-2.7692439e-05
0.0046559477
-4.3964995e-05
0.0062685218
-5.6447128e-05
0.0077190234
-5.911756e-05
0.0089760793
-5.1340493e-05
0.010011797
-3.764556e-05
0.010818229
-2.2947465e-05
0.01139483
-1.0674763e-05
0.011729044
-2.6810948e-06
0.011774457
6.6544837e-07
0.011395337
0.010056018
-3.378315e-06
0.0010012126
-1.2890438e-05
0.0029073902
-2.6855996e-05
0.0046699133
-4.1889312e-05
0.0062835551
-5.2260839e-05
0.0077293949
-5.2943431e-05
0.0089767618
-4.4574255e-05
0.010003428
-3.1595996e-05
0.010805251
-1.827961e-05
0.011381514
-7.5311708e-06
0.011718295
-8.8302119e-07
0.011767809
1.4049924e-06
0.011393049
0.010057423
-3.3120984e-06
0.0010045247
-1.2577617e-05
0.0029166557
-2.5921007e-05
0.0046832566
-3.9601334e-05
0.0062972354
-4.7891273e-05
0.0077376849
-4.6909585e-05
0.0089757802
-3.8229285e-05
0.0099947476
-2.6033923e-05
0.010793056
-1.4024264e-05
0.011369504
-4.6695318e-06
0.011708941
7.7466892e-07
0.011762365
2.0667361e-06
0.011391757
0.01005949
-3.2386928e-06
0.0010077634
-1.2227714e-05
0.0029256447
-2.4871687e-05
0.0046959006
-3.7098719e-05
0.0063094625
-4.3397666e-05
0.0077439838
-4.1070814e-05
0.0089734533
-3.2299142e-05
0.0099859759
-2.0920726e-05
0.010781677
-1.0139943e-05
0.011358723
-2.059123e-06
0.01170086
2.2780054e-06
0.011758028
2.6638815e-06
0.011391371
0.010062154
-3.1562771e-06
0.0010109197
-1.1832823e-05
0.0029343212
-2.3693038e-05
0.0047077608
-3.4390254e-05
0.0063201597
-3.8842816e-05
0.0077484364
-3.5466329e-05
0.0089700768
-2.6770486e-05
0.0099772801
-1.621881e-05
0.010771126
-6.5853409e-06
0.01134909
3.4752093e-07
0.011693927
3.6322546e-06
0.011754743
3.2023361e-06
0.011391801
0.010065356
-3.0627119e-06
0.0010139824
-1.1384178e-05
0.0029426427
-2.2372404e-05
0.0047187491
-3.1496503e-05
0.0063292838
-3.428736e-05
0.0077512272
-3.0121868e-05
0.0089659113
-2.1625943e-05
0.0099687842
-1.1894067e-05
0.010761394
-3.3303347e-06
0.011340526
2.5510808e-06
0.011688046
4.8616631e-06
0.011752432
3.6898377e-06
0.011392972
0.010069046
-2.9555339e-06
0.001016938
-1.0872488e-05
0.0029505597
-2.0901462e-05
0.004728778
-2.8448948e-05
0.0063368313
-2.9785801e-05
0.0077525641
-2.5052611e-05
0.0089611781
-1.6845484e-05
0.009960577
-7.9112381e-06
0.01075246
-3.2674825e-07
0.011332941
4.5433855e-06
0.011683175
5.9753501e-06
0.011751
4.1313171e-06
0.011394816
0.010073178
-2.8319478e-06
0.0010197699
-1.0288359e-05
0.0029580161
-1.9277897e-05
0.0047377676
-2.5286905e-05
0.0063428403
-2.5383503e-05
0.0077526607
-2.026501e-05
0.0089560596
-1.2407975e-05
0.00995272
-4.2418936e-06
0.010744293
2.4380138e-06
0.011326262
6.3569953e-06
0.011679256
6.9857671e-06
0.011750371
4.5313222e-06
0.011397271
0.010077709
-2.6889071e-06
0.0010224588
-9.6232119e-06
0.0029649504
-1.7507131e-05
0.0047456515
-2.2054216e-05
0.0063473874
-2.1116479e-05
0.0077517229
-1.5759131e-05
0.0089507023
-8.2896852e-06
0.0099452505
-8.4672099e-07
0.010736851
4.953669e-06
0.011320461
8.0064805e-06
0.011676204
7.9030711e-06
0.011750475
4.8939877e-06
0.01140028
0.010082603
-2.5232504e-06
0.0010249821
-8.8703651e-06
0.0029712975
-1.5602914e-05
0.004752384
-1.8795227e-05
0.0063505797
-1.7011666e-05
0.0077499394
-1.1530737e-05
0.0089452214
-4.4700366e-06
0.0099381898
2.2909421e-06
0.01073009
7.2494883e-06
0.011315503
9.5068647e-06
0.011673946
8.735425e-06
0.011751246
5.2223253e-06
0.011403793
0.010087825
-2.3319749e-06
0.001027314
-8.0264256e-06
0.0029769919
-1.3587011e-05
0.0047579446
-1.5551705e-05
0.0063525444
-1.3087802e-05
0.0077474755
-7.5700601e-06
0.0089397036
-9.168775e-07
0.0099315367
5.165323e-06
0.010724007
9.3448386e-06
0.011311323
1.0871939e-05
0.011672419
9.4905941e-06
0.011752628
5.519337e-06
0.011407764
0.010093344
-2.1126546e-06
0.0010294267
-7.0926615e-06
0.002981972
-1.1487682e-05
0.0047623396
-1.2360768e-05
0.0063534175
-9.3574557e-06
0.0077444722
-3.8681068e-06
0.0089342143
2.3811786e-06
0.0099252874
7.7971072e-06
0.010718591
1.1256304e-05
0.011307864
1.2113231e-05
0.011671562
1.017498e-05
0.011754566
5.7874182e-06
0.011412152
0.010099132
-1.8640272e-06
0.0010312907
-6.0761521e-06
0.0029861841
-9.3374798e-06
0.004765601
-9.2535971e-06
0.0063533336
-5.8255935e-06
0.0077410442
-4.0088702e-07
0.0089287896
5.4171354e-06
0.0099194694
1.0206065e-05
0.010713802
1.2999112e-05
0.011305071
1.3241013e-05
0.01167132
1.0794259e-05
0.011757013
6.0287113e-06
0.011416917
0.010105161
-1.5866522e-06
0.0010328774
-4.990239e-06
0.0029895877
-7.1706317e-06
0.0047677814
-6.2552754e-06
0.0063524182
-2.4927414e-06
0.0077372816
2.8316806e-06
0.0089234651
8.2067909e-06
0.0099140942
1.2408937e-05
0.0107096
1.4586631e-05
0.011302893
1.4264255e-05
0.011671643
1.1353351e-05
0.011759924
6.2450597e-06
0.011422026
0.010111406
-1.2835175e-06
0.0010341609
-3.854183e-06
0.0029921583
-5.0207796e-06
0.004768948
-3.3849429e-06
0.0063507824
6.462286e-07
0.0077332505
5.8153855e-06
0.008918296
1.0765937e-05
0.0099091437
1.4420844e-05
0.010705945
1.6030829e-05
0.011301283
1.5190999e-05
0.011672482
1.1856695e-05
0.011763258
6.4381567e-06
0.011427444
0.010117844
-9.6034957e-07
0.0010351212
-2.69182e-06
0.0029938898
-2.9183342e-06
0.0047691745
-6.5059422e-07
0.0063485146
3.5782733e-06
0.0077290216
8.5629446e-06
0.0089133113
1.3108595e-05
0.009904598
1.6254549e-05
0.010702799
1.7341542e-05
0.011300196
1.6027693e-05
0.011673796
1.2307723e-05
0.011766978
6.6092212e-06
0.011433143
0.010124453
-6.2535118e-07
0.0010357466
-1.5291117e-06
0.0029947936
-8.8735132e-07
0.0047685327
1.9291201e-06
0.0063456982
6.2873472e-06
0.0077246634
1.1084101e-05
0.0089085146
1.524753e-05
0.0099004346
1.7921749e-05
0.010700125
1.8527775e-05
0.01129959
1.6780268e-05
0.011675544
1.2709644e-05
0.011771048
6.7594516e-06
0.011439093
0.010131212
-2.882159e-07
0.0010360348
-3.906677e-07
0.002994896
1.0457309e-06
0.0047670963
4.3267024e-06
0.0063424172
8.7771582e-06
0.0077202129
1.3387498e-05
0.0089039042
1.7193176e-05
0.0098966289
1.9431882e-05
0.010697887
1.9596665e-05
0.011299425
1.7453289e-05
0.011677687
1.3064804e-05
0.011775437
6.8896376e-06
0.011445268
0.010138102
4.0784709e-08
0.001035994
6.9667019e-07
0.0029942401
2.8486198e-06
0.0047649444
6.5296423e-06
0.0063387362
1.1049562e-05
0.007715693
1.5480351e-05
0.0088994734
1.8954119e-05
0.0098931552
2.0792605e-05
0.010696048
2.0553893e-05
0.011299664
1.8050283e-05
0.011680191
1.337492e-05
0.011780112
7.0002938e-06
0.011451643
0.010145102
3.5067812e-07
0.0010356433
1.7048808e-06
0.0029928859
4.4971152e-06
0.0047621521
8.5308246e-06
0.0063347025
1.3105773e-05
0.007711118
1.7368076e-05
0.0088952111
2.0536808e-05
0.0098899864
2.2009552e-05
0.010694575
2.1403475e-05
0.01130027
1.8573549e-05
0.011683021
1.3640935e-05
0.011785045
7.0915786e-06
0.011458192
0.010152194
6.3199761e-07
0.0010350113
2.6138116e-06
0.0029909041
5.977225e-06
0.0047587887
1.0324554e-05
0.0063303551
1.494634e-05
0.0077064962
1.9054331e-05
0.0088911031
2.1945594e-05
0.0098870952
2.308636e-05
0.010693435
2.2147749e-05
0.011301209
1.9024135e-05
0.011686144
1.3862977e-05
0.011790206
7.1632689e-06
0.011464892
0.010159357
8.7876694e-07
0.0010341326
3.4113965e-06
0.0029883715
7.2795769e-06
0.0047549205
1.1906951e-05
0.0063257278
1.6571553e-05
0.0077018316
2.0541414e-05
0.0088871333
2.3183064e-05
0.0098844535
2.4024918e-05
0.010692593
2.2787561e-05
0.011302446
1.9401955e-05
0.01168953
1.4040446e-05
0.011795568
7.2147974e-06
0.011471717
0.010166572
1.0879053e-06
0.0010330447
4.0915669e-06
0.0029853678
8.3995346e-06
0.0047506126
1.3276292e-05
0.006320851
1.7981882e-05
0.0076971261
2.1830674e-05
0.0088832845
2.4250386e-05
0.0098820338
2.4825635e-05
0.010692017
2.3322443e-05
0.011303949
1.9705903e-05
0.011693147
1.4172059e-05
0.011801101
7.2452732e-06
0.011478644
0.010173817
1.2588987e-06
0.0010317858
4.653673e-06
0.002981973
9.3371102e-06
0.0047459291
1.443337e-05
0.0063157547
1.9178499e-05
0.0076923809
2.2923045e-05
0.0088795399
2.5147763e-05
0.0098798091
2.5487791e-05
0.010691677
2.3750872e-05
0.011305686
1.9934026e-05
0.011696963
1.4255976e-05
0.01180678
7.2535447e-06
0.011485647
0.010181071
1.3932159e-06
0.0010303926
5.1015242e-06
0.0029782647
1.0096618e-05
0.004740934
1.5381748e-05
0.0063104696
2.0163824e-05
0.0076875989
2.3819648e-05
0.0088758841
2.5874987e-05
0.0098777537
2.601e-05
0.010691542
2.4070634e-05
0.011307626
2.0083789e-05
0.01170095
1.4289951e-05
0.011812573
7.2382686e-06
0.011492698
0.010188309
1.4936564e-06
0.0010288989
5.4422462e-06
0.0029743161
1.0686082e-05
0.0047356902
1.612784e-05
0.0063050279
2.0941974e-05
0.0076827847
2.4522377e-05
0.0088723037
2.6432023e-05
0.0098758441
2.6390725e-05
0.010691584
2.4279232e-05
0.011309737
2.0152385e-05
0.011705077
1.4271557e-05
0.011818454
7.1980264e-06
0.011499772
0.010195507
1.5637645e-06
0.0010273351
5.685141e-06
0.0029701948
1.1116476e-05
0.0047302589
1.668077e-05
0.0062994636
2.1519071e-05
0.0076779464
2.5034404e-05
0.0088687884
2.6819568e-05
0.0098740589
2.6628804e-05
0.010691774
2.4374349e-05
0.011311992
2.0137096e-05
0.011709314
1.4198425e-05
0.011824393
7.1314459e-06
0.011506839
0.010202639
1.6073723e-06
0.0010257278
5.8406821e-06
0.0029659615
1.140087e-05
0.0047246987
1.7052045e-05
0.0062938124
2.1903345e-05
0.0076730951
2.5360549e-05
0.0088653312
2.7039525e-05
0.00987238
2.672394e-05
0.01069209
2.4354291e-05
0.011314361
2.0035652e-05
0.011713633
1.4068506e-05
0.01183036
7.037338e-06
0.01151387
0.010209676
1.6282834e-06
0.0010240995
5.9197108e-06
0.00296167
1.155361e-05
0.0047190648
1.7255082e-05
0.0062881109
2.2105061e-05
0.0076682451
2.5507479e-05
0.0088619288
2.7095362e-05
0.0098707921
2.6677117e-05
0.010692508
2.4218386e-05
0.01131682
1.9846583e-05
0.011718005
1.388033e-05
0.011836326
6.9148315e-06
0.011520835
0.010216591
1.6300769e-06
0.0010224694
5.9328514e-06
0.0029573673
1.1589575e-05
0.0047134081
1.7304657e-05
0.0062823958
2.2136282e-05
0.0076634135
2.5483751e-05
0.0088585813
2.6992321e-05
0.0098692835
2.6490897e-05
0.01069301
2.3967314e-05
0.011319344
1.9569516e-05
0.011722403
1.3633225e-05
0.011842263
6.7634936e-06
0.011527705
0.010223354
1.6160035e-06
0.0010208534
5.8901244e-06
0.0029530931
1.1523573e-05
0.0047077746
1.7216347e-05
0.0062767031
2.2010527e-05
0.0076586193
2.5299686e-05
0.0088552921
2.6737479e-05
0.0098678457
2.6169592e-05
0.010693578
2.3603322e-05
0.01132191
1.920539e-05
0.0117268
1.3327494e-05
0.01184814
6.583427e-06
0.011534449
0.010229938
1.588945e-06
0.0010192645
5.800723e-06
0.0029488814
1.1369885e-05
0.0047022054
1.7006016e-05
0.0062710669
2.1742362e-05
0.007653883
2.4967144e-05
0.0088520673
2.6339678e-05
0.0098664732
2.5719312e-05
0.010694198
2.3130347e-05
0.011324499
1.8756592e-05
0.011731174
1.2964531e-05
0.011853932
6.3753276e-06
0.011541038
0.010236313
1.5514127e-06
0.001017713
5.6729098e-06
0.0029447599
1.1141953e-05
0.0046967364
1.6689366e-05
0.0062655195
2.1346976e-05
0.0076492254
2.4499204e-05
0.0088489151
2.5809331e-05
0.0098651631
2.514788e-05
0.010694859
2.2553998e-05
0.011327093
1.8226993e-05
0.011735501
1.2546859e-05
0.011859613
6.1405124e-06
0.011547445
0.010242454
1.5055689e-06
0.0010162075
5.5139984e-06
0.0029407514
1.0852181e-05
0.0046913982
1.6281586e-05
0.0062600901
2.0839786e-05
0.0076446672
2.3909818e-05
0.0088458451
2.5158165e-05
0.0098639147
2.4464657e-05
0.010695553
2.1881462e-05
0.011329676
1.7621892e-05
0.011739761
1.2078099e-05
0.011865156
5.8809006e-06
0.011553642
0.010248334
1.453259e-06
0.0010147542
5.3303859e-06
0.0029368743
1.0511839e-05
0.0046862168
1.5797085e-05
0.0062548049
2.0236069e-05
0.0076402282
2.3213439e-05
0.0088428677
2.4398892e-05
0.0098627293
2.3680287e-05
0.010696272
2.1121302e-05
0.011332235
1.6947874e-05
0.011743934
1.1562881e-05
0.011870541
5.5989634e-06
0.011559606
0.010253933
1.396048e-06
0.0010133582
5.1276188e-06
0.0029331427
1.0131043e-05
0.0046812133
1.5249313e-05
0.0062496866
1.9550675e-05
0.0076359268
2.2424681e-05
0.0088399937
2.3544881e-05
0.0098616091
2.2806399e-05
0.01069701
2.0283218e-05
0.011334758
1.6212613e-05
0.011748005
1.100669e-05
0.011875747
5.2976372e-06
0.011565315
0.010259231
1.3352571e-06
0.0010120229
4.9104707e-06
0.0029295675
9.7187722e-06
0.004676405
1.4650654e-05
0.0062447547
1.8797786e-05
0.0076317797
2.1558006e-05
0.0088372335
2.2609818e-05
0.0098605572
2.1855279e-05
0.010697765
1.9377744e-05
0.011337236
1.5424624e-05
0.011751958
1.0415681e-05
0.011880756
4.980222e-06
0.01157075
0.010264211
1.271997e-06
0.0010107509
4.683027e-06
0.0029261565
9.282932e-06
0.0046718051
1.4012369e-05
0.0062400253
1.799074e-05
0.0076278013
2.0627462e-05
0.0088345968
2.1607397e-05
0.0098595773
2.0839555e-05
0.010698532
1.8415951e-05
0.011339659
1.4593001e-05
0.011755781
9.7964774e-06
0.011885553
4.6502604e-06
0.011575897
0.010268862
1.2071982e-06
0.0010095437
4.4487654e-06
0.0029229149
8.8304257e-06
0.0046674235
1.3344597e-05
0.0062355111
1.7141914e-05
0.007624004
1.9646463e-05
0.0088320922
2.0551042e-05
0.0098586727
1.9771889e-05
0.010699312
1.740914e-05
0.011342022
1.3727137e-05
0.011759463
9.1559523e-06
0.011890124
4.3114197e-06
0.011580741
0.010273173
1.1416379e-06
0.0010084021
4.2106324e-06
0.0029198459
8.3672408e-06
0.0046632669
1.2656373e-05
0.006231222
1.6262653e-05
0.0076203977
1.8627632e-05
0.0088297272
1.9453681e-05
0.0098578467
1.866471e-05
0.010700101
1.6368572e-05
0.011344318
1.2836472e-05
0.011762995
8.5010236e-06
0.011894459
3.9673733e-06
0.011585275
0.01027714
1.0759623e-06
0.0010073261
3.9711128e-06
0.0029169508
7.8985357e-06
0.0046593394
1.1955682e-05
0.0062271648
1.5363241e-05
0.0076169902
1.758268e-05
0.0088275078
1.8327555e-05
0.0098571018
1.7529986e-05
0.010700898
1.5305212e-05
0.011346543
1.1930257e-05
0.01176637
7.8384723e-06
0.011898551
3.6216957e-06
0.011589492
0.010280762
1.010707e-06
0.0010063154
3.7322909e-06
0.0029142292
7.4287248e-06
0.004655643
1.1249517e-05
0.006223344
1.4452895e-05
0.0076137868
1.6522334e-05
0.0088254384
1.7184078e-05
0.0098564401
1.6379032e-05
0.010701703
1.4229528e-05
0.011348692
1.1017357e-05
0.011769582
7.1747732e-06
0.011902394
3.2777758e-06
0.011593389
0.01028404
9.4631308e-07
0.0010053691
3.4959046e-06
0.0029116796
6.9615603e-06
0.0046521774
1.0543955e-05
0.0062197616
1.3539799e-05
0.007610791
1.5456297e-05
0.0088235219
1.6033745e-05
0.0098558626
1.5222373e-05
0.010702514
1.3151324e-05
0.011350763
1.0106087e-05
0.011772627
6.5159762e-06
0.011905984
2.9387377e-06
0.011596966
0.010286979
8.8314141e-07
0.0010044859
3.2633936e-06
0.0029092994
6.5002062e-06
0.0046489405
9.844223e-06
0.0062164176
1.2631138e-05
0.007608004
1.4393244e-05
0.0088217598
1.4886064e-05
0.0098553698
1.4069641e-05
0.010703331
1.2079615e-05
0.011352753
9.2040805e-06
0.011775503
5.8675934e-06
0.01190932
2.6073972e-06
0.011600226
0.010289586
8.2148464e-07
0.0010036645
3.0359393e-06
0.0029070849
6.0473083e-06
0.0046459292
9.1547832e-06
0.0062133101
1.1733157e-05
0.0076054257
1.3340834e-05
0.0088201521
1.3749539e-05
0.0098549611
1.2929514e-05
0.010704151
1.1022544e-05
0.01135466
8.3182218e-06
0.011778207
5.2345467e-06
0.011912404
2.2862211e-06
0.011603174
0.010291872
7.6157729e-07
0.0010029029
2.8145016e-06
0.002905032
5.6050562e-06
0.0046431386
8.4793993e-06
0.0062104358
1.0851221e-05
0.0076030538
1.2305746e-05
0.0088186976
1.2631661e-05
0.0098546352
1.1809688e-05
0.010704973
9.9873371e-06
0.011356483
7.4545744e-06
0.01178074
4.6211145e-06
0.011915238
1.977311e-06
0.011605818
0.010293849
7.036044e-07
0.0010021993
2.599849e-06
0.0029031357
5.1752387e-06
0.0046405632
7.8212111e-06
0.0062077898
9.989886e-06
0.0076008852
1.1293728e-05
0.0088173937
1.153894e-05
0.00985439
1.0716872e-05
0.010705795
8.9802833e-06
0.011358219
6.6183754e-06
0.011783102
4.0309269e-06
0.011917825
1.6823993e-06
0.011608167
0.010295532
6.4770884e-07
0.0010015516
2.3925859e-06
0.0029013909
4.7592953e-06
0.0046381965
7.1827979e-06
0.0062053663
9.152961e-06
0.007598915
1.0309651e-05
0.008816237
1.0476936e-05
0.0098542227
9.6568098e-06
0.010706615
8.0067412e-06
0.011359869
5.81403e-06
0.011785295
3.4669702e-06
0.011920172
1.4028617e-06
0.011610231
0.010296935
5.9399756e-07
0.0010009576
2.1931752e-06
0.0028997917
4.35836e-06
0.0046360313
6.5662436e-06
0.0062031584
8.3435814e-06
0.0075971377
9.3575761e-06
0.008815223
9.4503127e-06
0.0098541299
8.6343229e-06
0.010707431
7.0711739e-06
0.011361432
5.0451389e-06
0.011787321
2.9316051e-06
0.011922286
1.1397275e-06
0.011612023
0.010298074
5.4254691e-07
0.001000415
2.0019585e-06
0.0028983323
3.9733016e-06
0.00463406
5.9731917e-06
0.0062011586
7.5642731e-06
0.0075955466
8.4408178e-06
0.0088143465
8.4628991e-06
0.0098541079
7.653354e-06
0.010708241
6.1771852e-06
0.011362909
4.314542e-06
0.011789183
2.4266132e-06
0.011924174
8.9371336e-07
0.011613556
0.010298968
4.9340728e-07
0.00099992162
1.8191739e-06
0.0028970065
3.6047582e-06
0.0046322744
5.4048987e-06
0.0061993584
6.8170169e-06
0.0075941345
7.5620116e-06
0.0088136015
7.5177532e-06
0.0098541521
6.7170342e-06
0.010709041
5.3275847e-06
0.011364298
3.6243659e-06
0.011790887
1.9532307e-06
0.011925845
6.6524536e-07
0.011614844
0.010299633
4.4660725e-07
0.00099947502
1.6449716e-06
0.0028958081
3.253172e-06
0.0046306662
4.862285e-06
0.0061977493
6.1033124e-06
0.0075928934
6.7231876e-06
0.0088129816
6.6172357e-06
0.0098542581
5.8277549e-06
0.010709831
4.524456e-06
0.011365601
2.9760976e-06
0.011792435
1.5122218e-06
0.011927309
4.5450336e-07
0.011615901
0.010300088
4.0215826e-07
0.00099907286
1.4794321e-06
0.0028947309
2.9188255e-06
0.0046292268
4.3459978e-06
0.0061963221
5.4242663e-06
0.0075918152
5.9258777e-06
0.00881248
5.7631404e-06
0.0098544208
4.9873171e-06
0.010710607
3.769325e-06
0.011366819
2.3707681e-06
0.011793833
1.104059e-06
0.011928575
2.6158406e-07
0.011616744
0.01030035
3.6005715e-07
0.0009987128
1.3225772e-06
0.0028937683
2.6018687e-06
0.0046279475
3.8564509e-06
0.0061950675
4.780644e-06
0.007590891
5.1711812e-06
0.0088120895
4.9567665e-06
0.0098546352
4.197009e-06
0.010711366
3.0632508e-06
0.011367953
1.8090825e-06
0.011795088
7.2930067e-07
0.011929655
8.9004849e-08
0.011617384
0.010300439
3.2028379e-07
0.00099839252
1.1743587e-06
0.0028929143
2.302289e-06
0.0046268196
3.3937715e-06
0.0061939761
4.1727834e-06
0.007590112
4.4596254e-06
0.0088118026
4.1987147e-06
0.0098548961
3.4573247e-06
0.010712108
2.4064436e-06
0.011369004
1.2908916e-06
0.011796203
3.8767833e-07
0.011930558
-6.2296e-08
0.011617834
0.010300376
2.8280232e-07
0.00099810971
1.0346635e-06
0.0028921624
2.0199246e-06
0.0046258343
2.9578205e-06
0.0061930382
3.6006179e-06
0.0075894692
3.7911957e-06
0.008811612
3.488924e-06
0.0098551984
2.7680258e-06
0.010712829
1.7984398e-06
0.011369974
8.1587608e-07
0.011797186
8.1270491e-08
0.011931293
-1.9797849e-07