/*--------------------------------*- C++ -*----------------------------------*\
| =========                 |                                                 |
| \\      /  F ield         | OpenFOAM: The Open Source CFD Toolbox           |
|  \\    /   O peration     | Version:  2506                                  |
|   \\  /    A nd           | Website:  www.openfoam.com                      |
|    \\/     M anipulation  |                                                 |
\*---------------------------------------------------------------------------*/
FoamFile
{
    version     2.0;
    format      ascii;
    arch        "LSB;label=32;scalar=64";
    class       volScalarField;
    location    "16000/water";
    object      alphat;
}
// * * * * * * * * * * * * * * * * * * * * * * * * * * * * * * * * * * * * * //

dimensions      [1 -1 -1 0 0 0 0];

internalField   nonuniform List<scalar> 
1000
(
0.038690245
0.038689577
0.038688046
0.038679676
0.038634252
0.038395956
0.037190881
0.031863289
0.019099264
0.016301307
0.036437656
0.036436968
0.036430539
0.036397696
0.036243742
0.035561449
0.032798674
0.024476362
0.014644259
0.017654592
0.034756095
0.034752687
0.034735392
0.034658264
0.034338315
0.033096042
0.028914324
0.020078519
0.014287375
0.017671294
0.033455039
0.033447371
0.03341324
0.03327659
0.03276073
0.030940105
0.025769919
0.018272035
0.015952018
0.017301529
0.032418332
0.032405139
0.032350677
0.032150526
0.031437434
0.029070394
0.023556196
0.018635982
0.018861669
0.016925715
0.031571667
0.031552637
0.031479596
0.031226162
0.030328124
0.027485304
0.022555231
0.020803901
0.022279013
0.016666263
0.030866455
0.030843488
0.030761492
0.030477932
0.029402062
0.026292225
0.023061972
0.024244037
0.025541419
0.016525222
0.03027085
0.030249444
0.030178143
0.029894442
0.028644211
0.025787323
0.025138434
0.028280533
0.028304984
0.016463217
0.029764732
0.029755534
0.029725646
0.029468562
0.028106942
0.026356987
0.028508314
0.03233456
0.030519241
0.016442694
0.029337061
0.029357524
0.029409746
0.029196659
0.027980887
0.028237237
0.032681299
0.036080793
0.032267665
0.016440715
0.028984751
0.029060635
0.029241327
0.029099537
0.028583402
0.031375013
0.037164842
0.039413818
0.03365928
0.016446412
0.028712546
0.028878703
0.02923315
0.02927034
0.030215199
0.035478547
0.041608839
0.042341733
0.034787834
0.016455616
0.028533642
0.028833089
0.029403388
0.029912902
0.033002615
0.040161362
0.045828149
0.04491063
0.03572343
0.016467076
0.028470738
0.028950971
0.029795639
0.031303684
0.036851963
0.045075375
0.049751566
0.047172327
0.036515395
0.016480528
0.028557136
0.029264066
0.03051604
0.03367567
0.041511789
0.049976964
0.053365717
0.049174012
0.037197797
0.016495913
0.0288373
0.029812365
0.031757425
0.037113841
0.046676065
0.054725911
0.05668171
0.050955471
0.037793703
0.016513134
0.029366665
0.030660609
0.033764396
0.041530853
0.052070769
0.05925271
0.059719501
0.052547767
0.03831291
0.016531933
0.030212329
0.031928118
0.036741622
0.046714291
0.057495021
0.063527106
0.062500634
0.053971504
0.038771726
0.016552021
0.031460447
0.03380807
0.040768985
0.052403032
0.062820274
0.067538722
0.065043823
0.055249952
0.039180802
0.016573203
0.033237274
0.036537658
0.045775385
0.058353622
0.067969815
0.071287002
0.067367584
0.056402496
0.039547888
0.016595311
0.035735236
0.040316676
0.05157111
0.064374829
0.072897558
0.074772671
0.069492295
0.057443869
0.039878916
0.016618167
0.039206226
0.045225192
0.057909517
0.070330369
0.077571393
0.078005608
0.071434782
0.05838593
0.040178203
0.016641576
0.043888309
0.051190232
0.06454528
0.076123312
0.08197317
0.080996764
0.073208687
0.059237997
0.040448876
0.016665342
0.049892095
0.058009123
0.071267309
0.081682328
0.086094076
0.083754646
0.074824645
0.06000705
0.04069309
0.016689267
0.05711981
0.065403898
0.07790529
0.086957045
0.089927412
0.086284775
0.076290079
0.060697867
0.040912135
0.016713142
0.065267474
0.073076308
0.084332475
0.091909832
0.093464766
0.088589169
0.077609209
0.061313178
0.041106525
0.016736748
0.073906217
0.080754068
0.090454108
0.096507391
0.096695766
0.090666521
0.078783366
0.061853925
0.04127612
0.016759843
0.082592492
0.088207308
0.09619376
0.10072072
0.099609148
0.092513185
0.079811718
0.062319721
0.041420316
0.016782161
0.090953646
0.095254184
0.10149043
0.10452642
0.1021948
0.094124822
0.080692386
0.062709479
0.041538302
0.016803422
0.098725921
0.1017617
0.10629864
0.10790857
0.10444611
0.09549838
0.081423797
0.06302218
0.04162936
0.016823341
0.10575319
0.10764363
0.11058938
0.1108603
0.10636202
0.09663395
0.082006033
0.063257658
0.04169317
0.016841649
0.11196572
0.11285567
0.11435039
0.11338448
0.10794822
0.097536103
0.082441911
0.063417255
0.041730078
0.016858112
0.1173547
0.11738826
0.11758531
0.11549358
0.10921747
0.098214511
0.082737613
0.063504256
0.041741262
0.016872552
0.12195024
0.12125855
0.12031165
0.11720856
0.11018902
0.098683814
0.082902785
0.063524002
0.041728785
0.016884864
0.12580535
0.12450248
0.12255802
0.11855726
0.11088738
0.098962879
0.08295015
0.063483701
0.041695499
0.016895021
0.12898497
0.12716811
0.12436109
0.11957248
0.11134085
0.099073675
0.082894761
0.063391992
0.041644848
0.016903077
0.13155895
0.12931023
0.12576267
0.12029008
0.11157991
0.099039974
0.082753059
0.063258356
0.041580598
0.01690915
0.13359765
0.13098633
0.12680713
0.12074715
0.11163569
0.098886089
0.082541915
0.063092506
0.041506566
0.016913412
0.13516911
0.13225375
0.12753925
0.1209806
0.11153879
0.098635789
0.082277777
0.062903838
0.041426373
0.016916068
0.13633743
0.13316767
0.12800269
0.12102595
0.11131824
0.098311464
0.081976009
0.062701005
0.041343277
0.01691734
0.13716181
0.13377989
0.12823879
0.12091653
0.11100093
0.097933561
0.081650444
0.062491644
0.041260062
0.016917452
0.13769618
0.13413815
0.12828594
0.12068301
0.11061115
0.097520257
0.081313141
0.062282235
0.041179002
0.016916621
0.13798904
0.13428573
0.12817915
0.12035307
0.11017047
0.097087317
0.080974285
0.062078065
0.041101864
0.016915051
0.13808361
0.13426147
0.1279499
0.11995135
0.10969763
0.096648093
0.080642209
0.061883261
0.041029931
0.016912923
0.13801808
0.13409982
0.12762613
0.11949943
0.10920864
0.096213557
0.080323387
0.061700606
0.040962977
0.016910387
0.13782594
0.13383102
0.12723235
0.11901588
0.10871685
0.095792396
0.080022436
0.061531175
0.040902145
0.01690757
0.13753626
0.13348142
0.12678974
0.11851646
0.10823307
0.095391066
0.079741903
0.061377054
0.040847905
0.016904597
0.1371741
0.13307366
0.12631637
0.11801418
0.10776565
0.095013712
0.079484902
0.061239035
0.040800416
0.016901573
0.13676086
0.13262701
0.12582738
0.11751946
0.10732051
0.094664606
0.079252872
0.061117329
0.040759591
0.01689858
0.13631454
0.1321576
0.12533501
0.11704022
0.10690334
0.094346144
0.079046342
0.06101169
0.040725156
0.016895684
0.13585001
0.13167854
0.12484932
0.1165838
0.10651783
0.094059541
0.078865142
0.060921517
0.040696711
0.016892931
0.13537957
0.13120099
0.12437907
0.11615546
0.10616629
0.093805072
0.078708548
0.060845943
0.040673777
0.016890356
0.13491359
0.13073426
0.12393099
0.11575893
0.10584986
0.093582261
0.07857541
0.060783916
0.040655827
0.016887983
0.13446053
0.13028574
0.12351016
0.11539656
0.10556876
0.093390028
0.078464264
0.060734269
0.040642319
0.016885824
0.13402705
0.12986111
0.12312015
0.11506962
0.10532241
0.093226834
0.078373431
0.060695771
0.040632709
0.016883885
0.13361827
0.12946457
0.12276331
0.11477839
0.10510961
0.093090799
0.078301098
0.060667176
0.040626471
0.016882166
0.1332379
0.12909901
0.12244087
0.11452239
0.10492868
0.092979815
0.078245391
0.060647254
0.040623104
0.016880662
0.13288844
0.12876621
0.12215321
0.11430054
0.10477762
0.092891636
0.078204432
0.060634826
0.040622147
0.016879363
0.13257137
0.128467
0.12189993
0.11411124
0.10465414
0.092823962
0.078176388
0.060628778
0.040623175
0.01687826
0.1322873
0.12820145
0.12168006
0.11395256
0.10455585
0.092774495
0.078159501
0.060628074
0.040625805
0.016877339
0.13203609
0.12796894
0.12149213
0.11382229
0.10448027
0.092740984
0.078152108
0.060631765
0.040629696
0.016876586
0.13181702
0.12776835
0.12133431
0.11371804
0.10442488
0.09272126
0.078152655
0.060638984
0.04063454
0.016875987
0.13162884
0.1275981
0.12120447
0.11363731
0.10438722
0.092713253
0.078159699
0.060648944
0.040640065
0.016875527
0.1314699
0.12745628
0.1211003
0.11357757
0.10436488
0.092715014
0.078171919
0.060660939
0.040646031
0.016875189
0.13133826
0.12734073
0.12101935
0.11353627
0.10435555
0.09272474
0.07818812
0.060674348
0.04065223
0.016874957
0.13123175
0.12724915
0.12095913
0.11351096
0.1043571
0.092740791
0.078207244
0.060688635
0.04065849
0.016874818
0.1311481
0.12717914
0.1209172
0.11349931
0.10436755
0.092761707
0.078228379
0.060703353
0.040664676
0.016874757
0.13108499
0.12712835
0.12089118
0.11349914
0.1043851
0.092786209
0.078250748
0.060718137
0.040670684
0.016874761
0.13104012
0.12709446
0.12087882
0.11350846
0.10440818
0.092813188
0.078273702
0.060732695
0.040676433
0.01687482
0.13101125
0.12707521
0.120878
0.11352542
0.10443537
0.092841686
0.078296695
0.060746786
0.040681862
0.016874924
0.1309962
0.12706848
0.12088674
0.11354836
0.1044654
0.092870866
0.078319262
0.060760216
0.040686921
0.016875063
0.13099286
0.12707219
0.12090317
0.11357575
0.10449714
0.092900003
0.078341008
0.060772808
0.040691517
0.016875228
0.13099923
0.12708442
0.12092556
0.1136062
0.10452962
0.092928478
0.078361597
0.060784393
0.040695623
0.01687541
0.13101341
0.12710337
0.12095237
0.11363851
0.10456199
0.092955781
0.078380752
0.06079489
0.040699256
0.016875599
0.13103368
0.12712739
0.1209822
0.11367163
0.10459357
0.092981502
0.078398303
0.06080429
0.040702428
0.016875791
0.1310585
0.12715507
0.12101387
0.11370472
0.10462381
0.093005365
0.078414198
0.060812598
0.040705163
0.016875982
0.13108653
0.12718517
0.1210464
0.11373707
0.1046523
0.093027249
0.078428419
0.060819853
0.040707494
0.016876167
0.13111663
0.12721664
0.12107895
0.11376815
0.10467883
0.093047089
0.078441
0.060826115
0.040709457
0.016876346
0.13114783
0.12724859
0.12111088
0.11379761
0.10470324
0.093064877
0.078452004
0.060831454
0.04071109
0.016876516
0.13117932
0.12728033
0.12114168
0.11382517
0.10472543
0.093080636
0.078461505
0.060835938
0.040712423
0.016876677
0.13121042
0.12731125
0.12117095
0.11385062
0.10474536
0.09309441
0.078469581
0.060839629
0.040713483
0.016876828
0.13124055
0.12734087
0.12119834
0.11387378
0.10476301
0.093106256
0.078476308
0.060842586
0.040714289
0.016876966
0.13126922
0.12736876
0.12122358
0.11389456
0.10477837
0.093116248
0.078481769
0.060844862
0.040714863
0.01687709
0.13129604
0.12739461
0.12124649
0.11391291
0.10479151
0.093124484
0.078486057
0.060846521
0.040715226
0.016877199
0.13132073
0.12741818
0.12126697
0.11392885
0.10480254
0.093131091
0.078489282
0.06084763
0.040715407
0.016877294
0.13134311
0.12743937
0.121285
0.11394247
0.10481159
0.093136224
0.078491569
0.060848268
0.040715436
0.016877374
0.13136313
0.12745816
0.12130067
0.11395392
0.10481886
0.093140056
0.078493051
0.060848516
0.040715346
0.016877441
0.13138083
0.12747462
0.12131409
0.11396338
0.10482453
0.093142763
0.078493861
0.06084845
0.040715167
0.016877496
0.1313963
0.12748886
0.12132543
0.11397104
0.1048288
0.093144513
0.078494117
0.060848139
0.040714923
0.016877542
0.13140966
0.12750104
0.12133486
0.11397709
0.10483185
0.093145451
0.078493921
0.060847636
0.040714633
0.016877578
0.13142105
0.12751129
0.12134254
0.1139817
0.10483384
0.093145705
0.078493357
0.060846985
0.040714307
0.016877607
0.13143059
0.12751975
0.12134862
0.11398502
0.10483491
0.093145381
0.078492493
0.060846218
0.040713956
0.016877629
0.13143842
0.12752655
0.12135325
0.11398721
0.10483518
0.093144575
0.078491388
0.060845364
0.040713585
0.016877643
0.13144466
0.12753185
0.12135658
0.1139884
0.10483478
0.093143378
0.0784901
0.060844449
0.040713205
0.016877651
0.13144944
0.12753577
0.12135875
0.11398873
0.10483382
0.093141878
0.078488683
0.060843501
0.040712822
0.016877654
0.13145293
0.12753848
0.12135994
0.11398836
0.10483244
0.093140161
0.078487191
0.060842547
0.040712448
0.016877652
0.1314553
0.12754016
0.12136029
0.11398742
0.10483073
0.093138311
0.078485675
0.060841612
0.04071209
0.016877646
0.13145672
0.12754098
0.12135998
0.11398606
0.10482882
0.093136399
0.078484179
0.060840718
0.040711757
0.016877637
0.13145738
0.1275411
0.12135915
0.1139844
0.10482678
0.093134487
0.078482736
0.060839879
0.040711452
0.016877627
0.13145743
0.12754068
0.12135794
0.11398254
0.1048247
0.093132616
0.078481364
0.0608391
0.040711172
0.016877616
)
;

boundaryField
{
    water_inlet
    {
        type            calculated;
        value           uniform 0.041850807;
    }
    water_outlet
    {
        type            calculated;
        value           nonuniform List<scalar> 10(0.13145743 0.12754068 0.12135794 0.11398254 0.1048247 0.093132616 0.078481364 0.0608391 0.040711172 0.016877616);
    }
    water_wedge1
    {
        type            wedge;
    }
    water_wedge2
    {
        type            wedge;
    }
    water_to_rock
    {
        type            compressible::alphatWallFunction;
        value           nonuniform List<scalar> 
100
(
0.0020384971
0.0022594581
0.0022621707
0.0022020355
0.002140741
0.0020983185
0.0020752205
0.0020650581
0.0020616934
0.0020613686
0.0020623026
0.002063812
0.002065691
0.0020678961
0.0020704178
0.0020732402
0.002076321
0.0020796123
0.002083082
0.0020867026
0.002090445
0.0020942778
0.0020981685
0.0021020844
0.0021059913
0.002109853
0.0021136301
0.0021172797
0.0021207561
0.0021240128
0.0021270057
0.0021296963
0.0021320559
0.0021340673
0.0021357267
0.0021370428
0.0021380351
0.0021387315
0.0021391656
0.0021393734
0.0021393915
0.0021392557
0.002138999
0.0021386514
0.0021382371
0.0021377771
0.0021372915
0.0021367974
0.0021363085
0.0021358352
0.0021353855
0.0021349649
0.0021345771
0.0021342243
0.0021339074
0.0021336264
0.0021333806
0.0021331684
0.0021329882
0.0021328377
0.0021327148
0.002132617
0.0021325417
0.0021324863
0.0021324484
0.0021324256
0.0021324157
0.0021324166
0.0021324265
0.0021324436
0.0021324664
0.0021324932
0.0021325225
0.0021325533
0.0021325845
0.0021326156
0.0021326461
0.0021326755
0.0021327035
0.0021327298
0.0021327543
0.0021327765
0.0021327965
0.0021328141
0.0021328295
0.0021328426
0.0021328536
0.0021328629
0.0021328705
0.0021328767
0.0021328814
0.0021328849
0.0021328873
0.0021328887
0.0021328891
0.0021328889
0.0021328882
0.0021328871
0.0021328856
0.002132884
)
;
    }
}


// ************************************************************************* //
