/*--------------------------------*- C++ -*----------------------------------*\
| =========                 |                                                 |
| \\      /  F ield         | OpenFOAM: The Open Source CFD Toolbox           |
|  \\    /   O peration     | Version:  2506                                  |
|   \\  /    A nd           | Website:  www.openfoam.com                      |
|    \\/     M anipulation  |                                                 |
\*---------------------------------------------------------------------------*/
FoamFile
{
    version     2.0;
    format      ascii;
    arch        "LSB;label=32;scalar=64";
    class       volScalarField;
    location    "16000/water";
    object      epsilon;
}
// * * * * * * * * * * * * * * * * * * * * * * * * * * * * * * * * * * * * * //

dimensions      [0 2 -3 0 0 0 0];

internalField   nonuniform List<scalar> 
1000
(
7.2399316e-05
7.2397808e-05
7.2397502e-05
7.2398682e-05
7.2424146e-05
7.2686938e-05
7.4736184e-05
8.8973294e-05
0.00019794853
0.0013048048
4.7739543e-05
4.7745807e-05
4.7746167e-05
4.7748745e-05
4.7810065e-05
4.8371229e-05
5.2145897e-05
7.5319324e-05
0.0002360734
0.0016574915
3.3261229e-05
3.326441e-05
3.3263962e-05
3.3272039e-05
3.3396639e-05
3.4348942e-05
3.9973145e-05
7.1502092e-05
0.00026549975
0.0016622
2.4212884e-05
2.4213778e-05
2.421353e-05
2.4236018e-05
2.4468827e-05
2.5979959e-05
3.4086665e-05
7.6375104e-05
0.00030233546
0.0015600257
1.8263229e-05
1.8263302e-05
1.8265922e-05
1.8318446e-05
1.8730723e-05
2.1090729e-05
3.2935653e-05
9.0423508e-05
0.00035053656
0.0014605598
1.4183053e-05
1.4183388e-05
1.4193788e-05
1.4301413e-05
1.5003321e-05
1.8678178e-05
3.616812e-05
0.00011337764
0.00040230558
0.0013944166
1.1285033e-05
1.1287109e-05
1.1313191e-05
1.1514087e-05
1.267205e-05
1.8360641e-05
4.385414e-05
0.00014255066
0.00044702285
0.0013593135
9.1651308e-06
9.1712237e-06
9.2251469e-06
9.5765156e-06
1.143766e-05
2.0107158e-05
5.5828104e-05
0.00017322849
0.00047957497
0.0013440706
7.5754962e-06
7.5890767e-06
7.6892448e-06
8.2761011e-06
1.11982e-05
2.4041181e-05
7.1186984e-05
0.00020099055
0.00050080743
0.0013390505
6.3585386e-06
6.3848726e-06
6.5589452e-06
7.5064195e-06
1.1984512e-05
3.0236096e-05
8.8277498e-05
0.00022355946
0.00051393068
0.0013385666
5.4111025e-06
5.4581715e-06
5.7474932e-06
7.2369243e-06
1.390665e-05
3.8515408e-05
0.00010524321
0.00024078314
0.000521979
0.0013399584
4.6642398e-06
4.74413e-06
5.2100512e-06
7.4969326e-06
1.7086948e-05
4.8355481e-05
0.00012068236
0.00025359535
0.00052708032
0.0013422098
4.0714679e-06
4.2024401e-06
4.9349783e-06
8.3622412e-06
2.1575381e-05
5.897542e-05
0.0001339306
0.00026313413
0.00053055265
0.0013450164
3.6019037e-06
3.8114133e-06
4.9402412e-06
9.9350878e-06
2.7272146e-05
6.9567058e-05
0.00014492638
0.0002703545
0.00053316301
0.0013483153
3.2363935e-06
3.5653611e-06
5.27155e-06
1.2311428e-05
3.3901646e-05
7.9510724e-05
0.00015392459
0.00027595649
0.00053534109
0.0013520948
2.9656647e-06
3.4742252e-06
5.9984087e-06
1.5537476e-05
4.1062694e-05
8.8461e-05
0.00016127365
0.00028042543
0.00053731667
0.0013563339
2.7900138e-06
3.5645556e-06
7.2040677e-06
1.956994e-05
4.8330012e-05
9.6306995e-05
0.00016730374
0.00028408906
0.00053917743
0.001360972
2.7202663e-06
3.8804187e-06
8.9663865e-06
2.4261395e-05
5.5349962e-05
0.00010308376
0.00017229227
0.00028715781
0.00054093678
0.0013659395
2.7797397e-06
4.481966e-06
1.1330797e-05
2.9383023e-05
6.1887448e-05
0.00010889373
0.00017645201
0.00028975392
0.00054267265
0.0013711901
3.0065685e-06
5.4387008e-06
1.4283608e-05
3.4675032e-05
6.7820851e-05
0.00011385664
0.00017993861
0.00029198051
0.00054443469
0.0013766841
3.4547933e-06
6.8148618e-06
1.773863e-05
3.9899728e-05
7.3111858e-05
0.00011808674
0.00018285395
0.00029394166
0.00054623674
0.0013823795
4.1911527e-06
8.6476081e-06
2.1546238e-05
4.4874711e-05
7.7769148e-05
0.00012165878
0.00018531786
0.0002956974
0.0005480738
0.0013882298
5.2835834e-06
1.0924856e-05
2.552172e-05
4.9478001e-05
8.1803615e-05
0.00012466933
0.0001874127
0.00029728378
0.00054993228
0.0013941869
6.7798997e-06
1.3574393e-05
2.948022e-05
5.3622503e-05
8.5253042e-05
0.0001271992
0.00018919503
0.00029872077
0.00055179353
0.0014002007
8.6831923e-06
1.647402e-05
3.3249951e-05
5.725947e-05
8.816698e-05
0.00012930763
0.00019070217
0.00030001664
0.00055363498
0.0014062191
1.0937764e-05
1.9464178e-05
3.6694084e-05
6.0377138e-05
9.0586568e-05
0.00013103649
0.00019195672
0.00030117065
0.00055543053
0.0014121857
1.3423213e-05
2.2384286e-05
3.9726942e-05
6.2977844e-05
9.2544753e-05
0.0001324142
0.00019297024
0.00030217532
0.00055715098
0.0014180389
1.5988069e-05
2.5103475e-05
4.2303142e-05
6.5074396e-05
9.4068661e-05
0.00013345986
0.00019374681
0.00030301865
0.00055876506
0.0014237108
1.8484506e-05
2.7531373e-05
4.4410693e-05
6.6689245e-05
9.5183154e-05
0.00013418761
0.00019428673
0.00030368691
0.00056024124
0.0014291287
2.0793645e-05
2.9617732e-05
4.6063536e-05
6.7854287e-05
9.5914456e-05
0.00013461094
0.00019459029
0.00030416769
0.00056155016
0.0014342176
2.2836463e-05
3.1345699e-05
4.7294028e-05
6.860995e-05
9.6292825e-05
0.0001347463
0.00019466126
0.00030445306
0.00056266765
0.0014389057
2.4572741e-05
3.2723025e-05
4.8145977e-05
6.9003227e-05
9.6353715e-05
0.00013461544
0.00019450948
0.00030454207
0.00056357745
0.0014431296
2.5993475e-05
3.3773728e-05
4.8668811e-05
6.9085001e-05
9.6137427e-05
0.00013424626
0.00019415214
0.00030444225
0.00056427316
0.0014468408
2.7111478e-05
3.4531278e-05
4.8913185e-05
6.8907229e-05
9.5687651e-05
0.00013367222
0.00019361368
0.00030416973
0.00056475885
0.0014500098
2.7952874e-05
3.5033507e-05
4.8927994e-05
6.8520483e-05
9.5049442e-05
0.00013293073
0.00019292436
0.00030374801
0.0005650483
0.0014526278
2.8550543e-05
3.5319078e-05
4.8758552e-05
6.797208e-05
9.426714e-05
0.00013206103
0.00019211823
0.00030320586
0.00056516298
0.0014547066
2.8939573e-05
3.5425198e-05
4.8445629e-05
6.7304865e-05
9.338258e-05
0.00013110203
0.0001912306
0.00030257466
0.00056512942
0.0014562756
2.915437e-05
3.5386267e-05
4.8025076e-05
6.6556554e-05
9.2433748e-05
0.00013009035
0.00019029583
0.00030188592
0.00056497639
0.0014573776
2.9226989e-05
3.5233172e-05
4.7527827e-05
6.5759532e-05
9.145395e-05
0.00012905894
0.00018934546
0.00030116913
0.00056473253
0.0014580647
2.9186285e-05
3.4993035e-05
4.6980125e-05
6.4940954e-05
9.0471419e-05
0.00012803617
0.00018840691
0.00030045027
0.00056442449
0.0014583936
2.9057603e-05
3.4689229e-05
4.6403871e-05
6.4123064e-05
8.9509292e-05
0.00012704542
0.00018750285
0.00029975095
0.00056407579
0.0014584223
2.8862782e-05
3.4341578e-05
4.5817039e-05
6.332362e-05
8.8585842e-05
0.00012610504
0.00018665091
0.00029908807
0.00056370623
0.0014582071
2.8620347e-05
3.3966639e-05
4.5234117e-05
6.2556396e-05
8.7714879e-05
0.00012522864
0.00018586393
0.00029847395
0.00056333181
0.0014578006
2.8345788e-05
3.3578032e-05
4.4666529e-05
6.1831674e-05
8.6906247e-05
0.0001244255
0.00018515029
0.00029791665
0.00056296464
0.0014572505
2.8051887e-05
3.3186781e-05
4.412305e-05
6.1156742e-05
8.6166344e-05
0.00012370113
0.00018451445
0.00029742029
0.00056260911
0.0014565952
2.7749041e-05
3.2801645e-05
4.3610182e-05
6.0536357e-05
8.5498693e-05
0.00012305792
0.00018395779
0.00029698496
0.00056226331
0.0014558676
2.7445582e-05
3.2429431e-05
4.313251e-05
5.9973192e-05
8.4904493e-05
0.0001224958
0.00018347857
0.0002966045
0.00056194012
0.0014550999
2.7148064e-05
3.2075284e-05
4.2693022e-05
5.9468231e-05
8.4383055e-05
0.0001220123
0.00018307003
0.00029628026
0.00056164621
0.0014543191
2.6861538e-05
3.1742951e-05
4.2293399e-05
5.9021114e-05
8.3932062e-05
0.00012160121
0.00018272937
0.00029601097
0.00056138442
0.0014535467
2.6589793e-05
3.1435037e-05
4.1934327e-05
5.8630253e-05
8.3546402e-05
0.00012125848
0.00018245253
0.0002957934
0.00056115534
0.0014527993
2.6335597e-05
3.1153223e-05
4.1615285e-05
5.8292252e-05
8.3222201e-05
0.00012097928
0.00018223431
0.00029562322
0.00056095814
0.0014520893
2.6100748e-05
3.0898069e-05
4.1334774e-05
5.8004132e-05
8.2955025e-05
0.00012075816
0.00018206894
0.00029549555
0.00056079115
0.0014514255
2.5886142e-05
3.0669461e-05
4.1091113e-05
5.7762552e-05
8.2740074e-05
0.00012058933
0.00018195037
0.00029540529
0.00056065216
0.0014508137
2.5692133e-05
3.0466878e-05
4.0882307e-05
5.7563909e-05
8.2572344e-05
0.00012046688
0.00018187259
0.00029534735
0.00056053873
0.0014502573
2.5518647e-05
3.0289454e-05
4.0706113e-05
5.7404433e-05
8.2446767e-05
0.00012038496
0.00018182975
0.0002953169
0.00056044829
0.0014497576
2.5365267e-05
3.0136046e-05
4.0560103e-05
5.7280284e-05
8.2358327e-05
0.00012033794
0.0001818163
0.00029530937
0.00056037831
0.0014493147
2.5231298e-05
3.0005291e-05
4.0441735e-05
5.7187625e-05
8.2302157e-05
0.00012032044
0.00018182709
0.0002953206
0.00056032631
0.0014489271
2.5115828e-05
2.9895666e-05
4.0348402e-05
5.7122691e-05
8.2273609e-05
0.00012032747
0.00018185744
0.00029534681
0.00056028997
0.0014485928
2.5017777e-05
2.9805536e-05
4.0277495e-05
5.7081846e-05
8.2268311e-05
0.00012035445
0.00018190311
0.00029538467
0.00056026711
0.0014483088
2.4935944e-05
2.9733197e-05
4.0226439e-05
5.7061628e-05
8.2282208e-05
0.00012039719
0.00018196034
0.00029543121
0.00056025572
0.0014480719
2.4869042e-05
2.9676914e-05
4.0192731e-05
5.7058779e-05
8.2311582e-05
0.00012045197
0.00018202583
0.00029548389
0.00056025395
0.0014478783
2.4815736e-05
2.9634956e-05
4.0173975e-05
5.7070275e-05
8.2353066e-05
0.0001205155
0.00018209673
0.00029554048
0.00056026009
0.0014477242
2.4774672e-05
2.9605623e-05
4.0167903e-05
5.7093336e-05
8.240365e-05
0.00012058488
0.00018217058
0.00029559911
0.00056027257
0.0014476056
2.4744499e-05
2.9587269e-05
4.0172395e-05
5.7125443e-05
8.2460674e-05
0.00012065764
0.00018224534
0.00029565819
0.00056028997
0.0014475183
2.4723896e-05
2.9578324e-05
4.0185493e-05
5.716434e-05
8.2521825e-05
0.00012073169
0.00018231929
0.00029571642
0.00056031105
0.0014474586
2.4711589e-05
2.9577308e-05
4.0205414e-05
5.7208032e-05
8.2585119e-05
0.00012080527
0.00018239108
0.00029577279
0.00056033471
0.0014474227
2.4706364e-05
2.9582845e-05
4.023055e-05
5.7254781e-05
8.2648885e-05
0.00012087697
0.00018245964
0.00029582649
0.00056036008
0.0014474071
2.4707081e-05
2.9593671e-05
4.0259471e-05
5.7303097e-05
8.2711744e-05
0.00012094568
0.00018252418
0.00029587697
0.00056038641
0.0014474086
2.4712684e-05
2.9608636e-05
4.0290923e-05
5.7351721e-05
8.277258e-05
0.00012101053
0.00018258411
0.0002959238
0.00056041306
0.0014474243
2.47222e-05
2.962671e-05
4.032382e-05
5.7399607e-05
8.2830514e-05
0.00012107091
0.00018263905
0.0002959667
0.00056043946
0.0014474514
2.4734751e-05
2.9646978e-05
4.0357237e-05
5.7445907e-05
8.288488e-05
0.00012112637
0.00018268878
0.00029600551
0.00056046512
0.0014474872
2.4749546e-05
2.9668639e-05
4.0390396e-05
5.7489955e-05
8.2935196e-05
0.00012117666
0.00018273319
0.00029604011
0.00056048938
0.0014475293
2.4765889e-05
2.9691005e-05
4.0422664e-05
5.7531243e-05
8.2981148e-05
0.00012122166
0.00018277232
0.00029607048
0.00056051147
0.0014475754
2.4783173e-05
2.9713493e-05
4.0453534e-05
5.7569413e-05
8.3022571e-05
0.00012126139
0.00018280628
0.00029609648
0.00056053131
0.0014476237
2.4800877e-05
2.973562e-05
4.0482621e-05
5.7604238e-05
8.3059425e-05
0.00012129597
0.00018283517
0.00029611828
0.00056054921
0.0014476728
2.4818566e-05
2.9756996e-05
4.0509646e-05
5.7635603e-05
8.3091777e-05
0.00012132556
0.00018285919
0.00029613636
0.00056056535
0.0014477218
2.4835882e-05
2.977732e-05
4.0534428e-05
5.7663492e-05
8.3119726e-05
0.00012135033
0.00018287882
0.0002961511
0.00056057982
0.0014477698
2.4852539e-05
2.9796367e-05
4.0556869e-05
5.7687925e-05
8.3143416e-05
0.00012137068
0.00018289449
0.0002961629
0.00056059272
0.0014478162
2.4868322e-05
2.9813984e-05
4.0576903e-05
5.7708975e-05
8.3163132e-05
0.00012138702
0.00018290663
0.00029617207
0.00056060413
0.0014478605
2.4883058e-05
2.9830046e-05
4.0594526e-05
5.7726808e-05
8.3179186e-05
0.00012139973
0.00018291565
0.00029617893
0.00056061409
0.001447902
2.489662e-05
2.9844488e-05
4.0609795e-05
5.7741629e-05
8.3191907e-05
0.00012140922
0.00018292192
0.00029618373
0.00056062262
0.0014479404
2.4908928e-05
2.9857291e-05
4.0622809e-05
5.7753668e-05
8.3201632e-05
0.00012141587
0.00018292581
0.00029618673
0.00056062975
0.0014479754
2.4919946e-05
2.9868478e-05
4.0633699e-05
5.7763176e-05
8.3208699e-05
0.00012142006
0.00018292765
0.00029618816
0.00056063553
0.0014480067
2.4929671e-05
2.9878101e-05
4.0642617e-05
5.7770408e-05
8.3213438e-05
0.00012142213
0.00018292778
0.00029618827
0.00056064006
0.0014480343
2.493813e-05
2.9886239e-05
4.0649733e-05
5.7775627e-05
8.3216175e-05
0.00012142243
0.00018292649
0.0002961873
0.00056064347
0.0014480583
2.4945374e-05
2.9892991e-05
4.0655225e-05
5.777909e-05
8.3217218e-05
0.00012142128
0.00018292408
0.00029618547
0.00056064594
0.001448079
2.4951473e-05
2.9898467e-05
4.0659274e-05
5.7781046e-05
8.3216856e-05
0.00012141897
0.00018292082
0.000296183
0.00056064762
0.0014480965
2.4956507e-05
2.9902785e-05
4.066206e-05
5.7781731e-05
8.3215356e-05
0.00012141576
0.00018291693
0.00029618007
0.00056064865
0.0014481112
2.4960566e-05
2.9906067e-05
4.0663754e-05
5.7781362e-05
8.3212958e-05
0.00012141189
0.00018291261
0.00029617684
0.00056064915
0.0014481234
2.4963744e-05
2.9908434e-05
4.0664521e-05
5.7780139e-05
8.3209874e-05
0.00012140756
0.00018290803
0.00029617342
0.00056064919
0.0014481331
2.4966134e-05
2.9910002e-05
4.0664513e-05
5.7778242e-05
8.3206292e-05
0.00012140294
0.00018290332
0.0002961699
0.00056064883
0.0014481406
2.4967831e-05
2.9910884e-05
4.066387e-05
5.7775831e-05
8.3202374e-05
0.00012139817
0.00018289861
0.00029616636
0.00056064812
0.0014481462
2.4968924e-05
2.9911186e-05
4.0662719e-05
5.7773047e-05
8.3198258e-05
0.00012139337
0.00018289397
0.00029616287
0.0005606471
0.0014481499
2.49695e-05
2.9911006e-05
4.0661177e-05
5.7770016e-05
8.3194066e-05
0.00012138865
0.00018288949
0.00029615948
0.00056064587
0.001448152
2.4969642e-05
2.9910436e-05
4.0659345e-05
5.7766844e-05
8.3189899e-05
0.00012138409
0.00018288524
0.00029615625
0.00056064448
0.0014481528
2.4969425e-05
2.9909559e-05
4.0657317e-05
5.7763625e-05
8.318584e-05
0.00012137976
0.00018288127
0.00029615323
0.00056064301
0.0014481526
2.4968922e-05
2.9908451e-05
4.065517e-05
5.7760437e-05
8.3181955e-05
0.00012137571
0.00018287761
0.00029615045
0.00056064153
0.0014481515
2.4968195e-05
2.9907177e-05
4.0652973e-05
5.775734e-05
8.3178297e-05
0.00012137197
0.00018287428
0.00029614794
0.00056064009
0.0014481498
2.4967303e-05
2.9905797e-05
4.0650783e-05
5.7754386e-05
8.3174902e-05
0.00012136858
0.00018287131
0.00029614569
0.00056063871
0.0014481477
2.4966299e-05
2.9904364e-05
4.0648654e-05
5.7751623e-05
8.3171805e-05
0.00012136554
0.00018286866
0.00029614367
0.00056063734
0.0014481453
)
;

boundaryField
{
    water_inlet
    {
        type            turbulentMixingLengthDissipationRateInlet;
        mixingLength    0.005;
        phi             phi;
        k               k;
        value           uniform 0.00011791765;
    }
    water_outlet
    {
        type            inletOutlet;
        inletValue      uniform 0.0001;
        value           nonuniform List<scalar> 10(2.4966299e-05 2.9904364e-05 4.0648654e-05 5.7751623e-05 8.3171805e-05 0.00012136554 0.00018286866 0.00029614367 0.00056063734 0.0014481453);
    }
    water_wedge1
    {
        type            wedge;
    }
    water_wedge2
    {
        type            wedge;
    }
    water_to_rock
    {
        type            epsilonWallFunction;
        blending        stepwise;
        value           nonuniform List<scalar> 
100
(
0.0013048048
0.0016574915
0.0016622
0.0015600257
0.0014605598
0.0013944166
0.0013593135
0.0013440706
0.0013390505
0.0013385666
0.0013399584
0.0013422098
0.0013450164
0.0013483153
0.0013520948
0.0013563339
0.001360972
0.0013659395
0.0013711901
0.0013766841
0.0013823795
0.0013882298
0.0013941869
0.0014002007
0.0014062191
0.0014121857
0.0014180389
0.0014237108
0.0014291287
0.0014342176
0.0014389057
0.0014431296
0.0014468408
0.0014500098
0.0014526278
0.0014547066
0.0014562756
0.0014573776
0.0014580647
0.0014583936
0.0014584223
0.0014582071
0.0014578006
0.0014572505
0.0014565952
0.0014558676
0.0014550999
0.0014543191
0.0014535467
0.0014527993
0.0014520893
0.0014514255
0.0014508137
0.0014502573
0.0014497576
0.0014493147
0.0014489271
0.0014485928
0.0014483088
0.0014480719
0.0014478783
0.0014477242
0.0014476056
0.0014475183
0.0014474586
0.0014474227
0.0014474071
0.0014474086
0.0014474243
0.0014474514
0.0014474872
0.0014475293
0.0014475754
0.0014476237
0.0014476728
0.0014477218
0.0014477698
0.0014478162
0.0014478605
0.001447902
0.0014479404
0.0014479754
0.0014480067
0.0014480343
0.0014480583
0.001448079
0.0014480965
0.0014481112
0.0014481234
0.0014481331
0.0014481406
0.0014481462
0.0014481499
0.001448152
0.0014481528
0.0014481526
0.0014481515
0.0014481498
0.0014481477
0.0014481453
)
;
    }
}


// ************************************************************************* //
