/*--------------------------------*- C++ -*----------------------------------*\
| =========                 |                                                 |
| \\      /  F ield         | OpenFOAM: The Open Source CFD Toolbox           |
|  \\    /   O peration     | Version:  2506                                  |
|   \\  /    A nd           | Website:  www.openfoam.com                      |
|    \\/     M anipulation  |                                                 |
\*---------------------------------------------------------------------------*/
FoamFile
{
    version     2.0;
    format      ascii;
    arch        "LSB;label=32;scalar=64";
    class       volScalarField;
    location    "16000/water";
    object      k;
}
// * * * * * * * * * * * * * * * * * * * * * * * * * * * * * * * * * * * * * //

dimensions      [0 2 -2 0 0 0 0];

internalField   nonuniform List<scalar> 
1000
(
0.00017657855
0.00017657518
0.00017657131
0.00017655365
0.00017648098
0.00017625478
0.00017589507
0.00017764177
0.00020514192
0.00048657967
0.00013915035
0.00013915817
0.00013914641
0.00013908743
0.00013888206
0.0001383736
0.00013797747
0.00014325065
0.00019616756
0.00057072179
0.00011343696
0.00011343683
0.00011340783
0.00011329561
0.00011298241
0.0001124902
0.00011342548
0.000126414
0.00020548411
0.00057180213
9.4956345e-05
9.4947216e-05
9.4898274e-05
9.4747989e-05
9.4461171e-05
9.4591059e-05
9.8882343e-05
0.0001246348
0.00023169802
0.00054812307
8.1180941e-05
8.1164581e-05
8.1102165e-05
8.096705e-05
8.0960053e-05
8.2611634e-05
9.2929945e-05
0.0001369578
0.00027128557
0.00052456962
7.0599818e-05
7.0579371e-05
7.0523472e-05
7.050481e-05
7.1168273e-05
7.5594029e-05
9.5292027e-05
0.00016203396
0.00031586097
0.00050861053
6.2267978e-05
6.2250532e-05
6.2239519e-05
6.2499632e-05
6.439947e-05
7.3303979e-05
0.00010610198
0.00019613588
0.00035649819
0.00050003848
5.5571434e-05
5.5570244e-05
5.5667647e-05
5.645065e-05
6.0388881e-05
7.5971103e-05
0.00012498719
0.00023351964
0.00038871354
0.00049629323
5.0098704e-05
5.0135841e-05
5.0440277e-05
5.2102952e-05
5.9190346e-05
8.3983843e-05
0.00015029898
0.00026896221
0.00041246985
0.00049505668
4.5567681e-05
4.5677865e-05
4.63375e-05
4.9391584e-05
6.1095732e-05
9.7486375e-05
0.00017920273
0.00029964327
0.00042964128
0.00049493743
4.1782808e-05
4.2019038e-05
4.3252153e-05
4.8416124e-05
6.6517846e-05
0.00011597895
0.00020865709
0.00032501788
0.0004422307
0.00049528046
3.8609684e-05
3.9051444e-05
4.1174541e-05
4.9422607e-05
7.5807983e-05
0.00013818972
0.00023642025
0.00034572033
0.00045177486
0.00049583507
3.5960363e-05
3.6725381e-05
4.0189377e-05
5.2766778e-05
8.9027336e-05
0.00016237146
0.00026138222
0.00036268795
0.00045931516
0.00049652601
3.3785891e-05
3.5046492e-05
4.0478125e-05
5.8837409e-05
0.00010576937
0.00018682778
0.00028330032
0.00037677355
0.0004655196
0.00049733755
3.2074356e-05
3.4079174e-05
4.2315864e-05
6.7933235e-05
0.00012516015
0.00021031379
0.00030238145
0.00038864948
0.00047080803
0.00049826652
3.0853773e-05
3.3954486e-05
4.6047985e-05
8.011764e-05
0.0001460632
0.00023213594
0.00031898711
0.00039881738
0.00047543905
0.00049930743
3.0199549e-05
3.4878922e-05
5.2034136e-05
9.5115245e-05
0.00016736915
0.00025203043
0.00033348851
0.00040763771
0.00047952183
0.00050044502
3.0245988e-05
3.7136068e-05
6.0556093e-05
0.00011231887
0.00018821045
0.0002699881
0.00034621435
0.0004153484
0.00048317092
0.00050166201
3.1199991e-05
4.1069028e-05
7.1707593e-05
0.00013091711
0.0002080277
0.00028611974
0.00035742612
0.00042213423
0.00048649187
0.00050294676
3.3351718e-05
4.7031399e-05
8.5310978e-05
0.00015007637
0.0002265216
0.00030057601
0.00036733104
0.0004281501
0.0004895584
0.00050428937
3.7070575e-05
5.5302002e-05
0.00010090978
0.00016908807
0.00024356807
0.0003135032
0.00037608886
0.00043353321
0.00049241592
0.00050567928
4.2767536e-05
6.5979371e-05
0.00011785029
0.00018743135
0.00025913402
0.0003250159
0.00038386938
0.00043837706
0.00049509067
0.00050710498
5.0805259e-05
7.8898976e-05
0.00013541201
0.00020475517
0.00027320716
0.00033526144
0.0003907966
0.00044274713
0.00049759705
0.00050855459
6.1361712e-05
9.3622088e-05
0.00015292571
0.00022080432
0.00028583245
0.00034436309
0.00039696037
0.00044668751
0.00049994082
0.00051001593
7.4302436e-05
0.00010951449
0.0001698044
0.00023542144
0.00029707697
0.00035241073
0.00040242209
0.00045022473
0.00050212032
0.0005114763
8.9142054e-05
0.00012582771
0.00018559463
0.0002485348
0.00030699113
0.00035946482
0.0004072192
0.00045337044
0.0005041273
0.0005129221
0.00010508451
0.00014184819
0.00019999847
0.00026010227
0.00031560915
0.00036556173
0.00041136979
0.00045612417
0.00050594795
0.00051433846
0.00012123786
0.00015699621
0.00021282847
0.00027010613
0.00032295503
0.00037072093
0.00041487816
0.00045847683
0.00050756456
0.0005157091
0.00013679932
0.0001708543
0.00022398879
0.00027855496
0.0003290519
0.00037495422
0.00041774168
0.00046041514
0.00050895791
0.00051701661
0.00015116487
0.00018316312
0.00023345998
0.00028548716
0.00033393207
0.00037827543
0.00041995835
0.00046192686
0.00051011032
0.00051824321
0.00016395744
0.00019379971
0.00024128472
0.00029097222
0.00033764491
0.00038070909
0.00042153402
0.00046300607
0.00051100882
0.00051937188
0.00017500051
0.00020274884
0.00024755334
0.00029510833
0.00034026081
0.0003822963
0.00042248799
0.00046365754
0.0005116481
0.00052038779
0.00018426904
0.00021007376
0.00025238984
0.00029801681
0.00034187101
0.00038309712
0.00042285605
0.00046389943
0.0005120324
0.00052127959
0.00019183944
0.00021588997
0.00025593918
0.00029983479
0.00034258399
0.00038318941
0.00042269055
0.00046376384
0.00051217615
0.00052204051
0.0001978485
0.00022034377
0.00025835658
0.00030070749
0.0003425199
0.00038266506
0.00042205795
0.00046329521
0.00051210302
0.00052266872
0.00020246348
0.00022359586
0.00025979908
0.00030078133
0.0003418042
0.00038162467
0.0004210346
0.00046254709
0.00051184381
0.00052316726
0.00020586202
0.00022580968
0.00026041928
0.0003001982
0.00034056177
0.00038017182
0.00041970166
0.00046157809
0.00051143364
0.00052354333
0.00020821941
0.00022714351
0.00026036093
0.00029909133
0.00033891187
0.00037840781
0.00041814015
0.00046044767
0.00051090895
0.00052380739
0.00020970111
0.00022774551
0.00025975617
0.00029758236
0.0003369645
0.00037642743
0.00041642681
0.00045921256
0.000510305
0.00052397198
0.00021045872
0.00022775093
0.00025872392
0.00029577982
0.00033481803
0.00037431599
0.00041463099
0.00045792411
0.00050965388
0.00052405078
0.00021062818
0.00022728078
0.00025736932
0.00029377845
0.00033255795
0.00037214762
0.00041281282
0.00045662661
0.00050898341
0.00052405768
0.00021032941
0.00022644161
0.00025578378
0.00029165934
0.00033025666
0.00036998457
0.00041102231
0.00045535656
0.00050831659
0.00052400615
0.00020966681
0.00022532594
0.00025404562
0.00028949056
0.00032797383
0.00036787735
0.00040929938
0.00045414262
0.00050767158
0.00052390879
0.0002087302
0.00022401303
0.00025222088
0.00028732806
0.00032575724
0.00036586537
0.00040767434
0.00045300599
0.00050706183
0.00052377699
0.00020759601
0.00022257
0.00025036437
0.00028521676
0.0003236438
0.00036397782
0.00040616842
0.00045195997
0.00050648793
0.00052361993
0.0002063286
0.00022105288
0.00024852077
0.00028319173
0.0003216608
0.00036223489
0.00040479482
0.00045100857
0.00050595615
0.00052344554
0.00020498156
0.00021950784
0.00024672569
0.00028127937
0.00031982711
0.00036064873
0.00040355797
0.00045015477
0.00050547522
0.0005232615
0.00020359891
0.00021797228
0.00024500685
0.00027949856
0.00031815428
0.00035922364
0.00040245832
0.00044940251
0.00050504918
0.00052307428
0.00020221637
0.00021647593
0.00024338501
0.00027786162
0.00031664693
0.00035795854
0.00040149639
0.00044875164
0.00050467878
0.00052288907
0.00020086234
0.00021504187
0.00024187501
0.00027637478
0.000315304
0.00035685197
0.00040066905
0.00044819884
0.00050436262
0.00052270982
0.00019955903
0.00021368742
0.00024048583
0.00027503912
0.00031412371
0.0003558991
0.00039997015
0.00044773866
0.00050409785
0.00052253951
0.00019832296
0.00021242429
0.00023922215
0.0002738541
0.00031310112
0.0003550924
0.00039939152
0.00044736422
0.00050388077
0.00052238025
0.00019716575
0.00021126023
0.00023808601
0.00027281635
0.00031222887
0.00035442241
0.00039892363
0.00044706784
0.00050370715
0.00052223344
0.00019609542
0.00021019984
0.00023707677
0.00027192024
0.0003114978
0.00035387839
0.00039855618
0.0004468414
0.00050357251
0.00052209991
0.00019511696
0.00020924508
0.00023619155
0.00027115837
0.00031089745
0.00035344884
0.0003982785
0.00044667673
0.00050347235
0.00052197999
0.00019423282
0.00020839561
0.00023542565
0.00027052201
0.00031041659
0.00035312188
0.00039807994
0.0004465658
0.00050340227
0.00052187367
0.00019344328
0.00020764924
0.00023477295
0.00027000152
0.00031004354
0.00035288566
0.00039795012
0.00044650097
0.00050335806
0.00052178064
0.00019274686
0.00020700223
0.00023422626
0.00026958668
0.00030976653
0.0003527286
0.00039787915
0.00044647503
0.0005033358
0.00052170038
0.00019214063
0.00020644968
0.00023377762
0.00026926703
0.00030957399
0.0003526396
0.00039785775
0.00044648137
0.0005033319
0.00052163219
0.00019162049
0.00020598577
0.0002334186
0.00026903209
0.00030945472
0.00035260822
0.00039787735
0.00044651396
0.00050334308
0.00052157529
0.00019118148
0.00020560403
0.00023314054
0.00026887155
0.00030939805
0.00035262473
0.00039793013
0.00044656735
0.00050336639
0.0005215288
0.00019081798
0.00020529754
0.00023293469
0.00026877547
0.00030939397
0.0003526802
0.00039800901
0.0004466367
0.00050339915
0.00052149179
0.00019052389
0.00020505916
0.00023279244
0.00026873433
0.00030943316
0.00035276647
0.00039810765
0.00044671768
0.00050343898
0.0005214633
0.00019029285
0.00020488163
0.00023270539
0.00026873921
0.00030950708
0.00035287624
0.00039822045
0.0004468065
0.00050348375
0.00052144237
0.00019011836
0.00020475778
0.00023266552
0.00026878181
0.00030960799
0.00035300301
0.00039834251
0.00044689988
0.00050353161
0.00052142804
0.00018999395
0.00020468062
0.00023266527
0.00026885453
0.000309729
0.00035314112
0.00039846965
0.00044699509
0.00050358102
0.00052141942
0.0001899133
0.00020464347
0.00023269764
0.00026895056
0.00030986405
0.00035328574
0.00039859839
0.00044708988
0.00050363073
0.00052141566
0.00018987036
0.00020464003
0.00023275622
0.00026906382
0.00031000794
0.0003534328
0.00039872587
0.00044718246
0.00050367976
0.000521416
0.00018985938
0.00020466448
0.00023283522
0.00026918899
0.00031015621
0.00035357894
0.00039884981
0.00044727146
0.00050372733
0.00052141974
0.00018987502
0.00020471144
0.00023292947
0.00026932148
0.00031030512
0.00035372143
0.0003989684
0.00044735577
0.00050377282
0.00052142622
0.0001899123
0.00020477602
0.00023303439
0.0002694573
0.00031045156
0.00035385804
0.00039908021
0.00044743455
0.00050381567
0.00052143483
0.00018996667
0.00020485381
0.00023314594
0.00026959309
0.00031059296
0.000353987
0.00039918412
0.00044750706
0.00050385503
0.00052144497
0.000190034
0.00020494087
0.00023326065
0.00026972603
0.00031072727
0.00035410697
0.00039927932
0.00044757266
0.00050389038
0.00052145607
0.00019011059
0.00020503374
0.00023337556
0.00026985385
0.00031085294
0.00035421703
0.00039936521
0.00044763097
0.00050392178
0.00052146769
0.00019019319
0.00020512946
0.00023348824
0.0002699748
0.00031096888
0.00035431655
0.00039944148
0.00044768205
0.00050394947
0.00052147951
0.00019027902
0.00020522551
0.00023359673
0.00027008759
0.00031107438
0.00035440522
0.00039950821
0.0004477263
0.00050397365
0.00052149127
0.00019036574
0.00020531988
0.00023369958
0.00027019135
0.00031116906
0.0003544831
0.00039956588
0.00044776416
0.00050399459
0.00052150279
0.00019045143
0.00020541094
0.00023379569
0.00027028551
0.00031125284
0.00035455063
0.00039961504
0.00044779612
0.00050401255
0.00052151391
0.00019053456
0.00020549746
0.00023388425
0.00027036982
0.00031132603
0.00035460837
0.00039965634
0.00044782271
0.00050402778
0.0005215245
0.00019061388
0.00020557844
0.00023396478
0.00027044434
0.00031138908
0.00035465697
0.00039969039
0.0004478444
0.00050404051
0.00052153447
0.00019068842
0.00020565318
0.00023403705
0.00027050928
0.00031144252
0.00035469707
0.00039971782
0.00044786161
0.00050405091
0.00052154371
0.00019075745
0.00020572121
0.000234101
0.000270565
0.00031148695
0.00035472936
0.0003997392
0.00044787476
0.0005040591
0.00052155214
0.00019082047
0.00020578228
0.00023415676
0.00027061196
0.00031152302
0.0003547545
0.00039975512
0.00044788422
0.00050406525
0.0005215597
0.0001908772
0.0002058363
0.00023420458
0.0002706507
0.00031155143
0.00035477321
0.00039976617
0.00044789041
0.00050406954
0.00052156636
0.00019092753
0.00020588338
0.00023424486
0.00027068186
0.00031157295
0.00035478624
0.00039977298
0.00044789376
0.00050407219
0.00052157215
0.00019097153
0.00020592375
0.00023427811
0.00027070615
0.00031158836
0.00035479433
0.00039977617
0.00044789472
0.00050407348
0.00052157711
0.00019100943
0.0002059578
0.0002343049
0.00027072434
0.00031159848
0.00035479826
0.00039977638
0.00044789377
0.00050407368
0.00052158131
0.00019104156
0.00020598597
0.00023432589
0.00027073718
0.0003116041
0.00035479873
0.00039977419
0.00044789131
0.00050407303
0.00052158481
0.00019106834
0.00020600878
0.00023434173
0.00027074542
0.00031160595
0.00035479641
0.00039977013
0.00044788772
0.00050407175
0.0005215877
0.00019109022
0.00020602677
0.00023435304
0.00027074974
0.00031160471
0.00035479187
0.00039976462
0.00044788329
0.00050406997
0.00052159002
0.00019110765
0.00020604045
0.00023436043
0.00027075076
0.00031160096
0.00035478559
0.00039975805
0.00044787823
0.00050406779
0.00052159182
0.00019112108
0.00020605033
0.00023436445
0.00027074906
0.00031159521
0.00035477801
0.00039975069
0.00044787273
0.00050406529
0.00052159314
0.00019113096
0.00020605687
0.00023436561
0.00027074513
0.00031158791
0.00035476946
0.00039974281
0.00044786695
0.00050406255
0.00052159404
0.0001911377
0.00020606052
0.00023436437
0.00027073944
0.00031157947
0.00035476028
0.00039973464
0.00044786102
0.00050405963
0.00052159455
0.00019114172
0.00020606173
0.0002343612
0.00027073241
0.00031157025
0.00035475076
0.00039972638
0.00044785509
0.00050405664
0.00052159473
0.00019114343
0.0002060609
0.00023435649
0.00027072442
0.00031156058
0.00035474117
0.00039971824
0.00044784929
0.00050405366
0.00052159465
0.00019114322
0.00020605844
0.00023435065
0.00027071584
0.00031155078
0.00035473172
0.00039971038
0.00044784375
0.00050405079
0.00052159437
0.00019114148
0.00020605471
0.00023434401
0.00027070696
0.00031154108
0.00035472263
0.00039970294
0.00044783856
0.00050404807
0.00052159394
0.00019113854
0.00020605005
0.0002343369
0.00027069806
0.0003115317
0.00035471402
0.00039969601
0.00044783377
0.00050404556
0.00052159341
0.00019113473
0.00020604478
0.0002343296
0.00027068938
0.0003115228
0.00035470601
0.00039968963
0.00044782938
0.00050404322
0.0005215928
)
;

boundaryField
{
    water_inlet
    {
        type            turbulentIntensityKineticEnergyInlet;
        intensity       0.05;
        value           uniform 0.000234375;
    }
    water_outlet
    {
        type            inletOutlet;
        inletValue      uniform 0.0001;
        value           nonuniform List<scalar> 10(0.00019113473 0.00020604478 0.0002343296 0.00027068938 0.0003115228 0.00035470601 0.00039968963 0.00044782938 0.00050404322 0.0005215928);
    }
    water_wedge1
    {
        type            wedge;
    }
    water_wedge2
    {
        type            wedge;
    }
    water_to_rock
    {
        type            kqRWallFunction;
        value           nonuniform List<scalar> 
100
(
0.00048657967
0.00057072179
0.00057180213
0.00054812307
0.00052456962
0.00050861053
0.00050003848
0.00049629323
0.00049505668
0.00049493743
0.00049528046
0.00049583507
0.00049652601
0.00049733755
0.00049826652
0.00049930743
0.00050044502
0.00050166201
0.00050294676
0.00050428937
0.00050567928
0.00050710498
0.00050855459
0.00051001593
0.0005114763
0.0005129221
0.00051433846
0.0005157091
0.00051701661
0.00051824321
0.00051937188
0.00052038779
0.00052127959
0.00052204051
0.00052266872
0.00052316726
0.00052354333
0.00052380739
0.00052397198
0.00052405078
0.00052405768
0.00052400615
0.00052390879
0.00052377699
0.00052361993
0.00052344554
0.0005232615
0.00052307428
0.00052288907
0.00052270982
0.00052253951
0.00052238025
0.00052223344
0.00052209991
0.00052197999
0.00052187367
0.00052178064
0.00052170038
0.00052163219
0.00052157529
0.0005215288
0.00052149179
0.0005214633
0.00052144237
0.00052142804
0.00052141942
0.00052141566
0.000521416
0.00052141974
0.00052142622
0.00052143483
0.00052144497
0.00052145607
0.00052146769
0.00052147951
0.00052149127
0.00052150279
0.00052151391
0.0005215245
0.00052153447
0.00052154371
0.00052155214
0.0005215597
0.00052156636
0.00052157215
0.00052157711
0.00052158131
0.00052158481
0.0005215877
0.00052159002
0.00052159182
0.00052159314
0.00052159404
0.00052159455
0.00052159473
0.00052159465
0.00052159437
0.00052159394
0.00052159341
0.0005215928
)
;
    }
}


// ************************************************************************* //
