/*--------------------------------*- C++ -*----------------------------------*\
| =========                 |                                                 |
| \\      /  F ield         | OpenFOAM: The Open Source CFD Toolbox           |
|  \\    /   O peration     | Version:  2506                                  |
|   \\  /    A nd           | Website:  www.openfoam.com                      |
|    \\/     M anipulation  |                                                 |
\*---------------------------------------------------------------------------*/
FoamFile
{
    version     2.0;
    format      ascii;
    arch        "LSB;label=32;scalar=64";
    class       volScalarField;
    location    "16000/water";
    object      nut;
}
// * * * * * * * * * * * * * * * * * * * * * * * * * * * * * * * * * * * * * //

dimensions      [0 2 -1 0 0 0 0];

internalField   nonuniform List<scalar> 
1000
(
3.8760013e-05
3.8759344e-05
3.875781e-05
3.8749425e-05
3.8703919e-05
3.8465194e-05
3.7257946e-05
3.1920746e-05
1.9133704e-05
1.6330702e-05
3.6503362e-05
3.6502673e-05
3.6496232e-05
3.646333e-05
3.6309099e-05
3.5625575e-05
3.2857818e-05
2.4520499e-05
1.4670666e-05
1.7686427e-05
3.4818769e-05
3.4815355e-05
3.4798028e-05
3.4720761e-05
3.4400236e-05
3.3155722e-05
2.8966463e-05
2.0114725e-05
1.4313139e-05
1.7703159e-05
3.3515366e-05
3.3507685e-05
3.3473492e-05
3.3336596e-05
3.2819806e-05
3.0995898e-05
2.5816389e-05
1.8304984e-05
1.5980784e-05
1.7332728e-05
3.247679e-05
3.2463573e-05
3.2409014e-05
3.2208501e-05
3.1494123e-05
2.9122815e-05
2.3598673e-05
1.8669587e-05
1.8895682e-05
1.6956236e-05
3.1628598e-05
3.1609534e-05
3.1536361e-05
3.1282471e-05
3.0382813e-05
2.7534867e-05
2.2595903e-05
2.0841415e-05
2.2319188e-05
1.6696316e-05
3.0922115e-05
3.0899106e-05
3.0816963e-05
3.0532891e-05
2.9455081e-05
2.6339637e-05
2.3103559e-05
2.4287755e-05
2.5587476e-05
1.6555021e-05
3.0325436e-05
3.0303991e-05
3.0232562e-05
2.9948349e-05
2.8695864e-05
2.5833824e-05
2.5183764e-05
2.8331529e-05
2.8356025e-05
1.6492904e-05
2.9818405e-05
2.980919e-05
2.9779249e-05
2.9521701e-05
2.8157626e-05
2.6404515e-05
2.8559721e-05
3.2392867e-05
3.0574275e-05
1.6472344e-05
2.9389963e-05
2.9410463e-05
2.9462779e-05
2.9249308e-05
2.8031344e-05
2.8288156e-05
3.2740231e-05
3.6145855e-05
3.2325852e-05
1.6470361e-05
2.9037017e-05
2.9113039e-05
2.9294056e-05
2.9152011e-05
2.8634945e-05
3.143159e-05
3.7231859e-05
3.9484891e-05
3.3719976e-05
1.6476069e-05
2.8764322e-05
2.8930778e-05
2.9285865e-05
2.9323122e-05
3.0269685e-05
3.5542523e-05
4.168387e-05
4.2418085e-05
3.4850565e-05
1.6485289e-05
2.8585095e-05
2.8885082e-05
2.945641e-05
2.9966842e-05
3.3062127e-05
4.0233783e-05
4.5910789e-05
4.4991615e-05
3.5787848e-05
1.649677e-05
2.8522078e-05
2.9003176e-05
2.9849368e-05
3.1360132e-05
3.6918416e-05
4.5156657e-05
4.9841281e-05
4.725739e-05
3.6581241e-05
1.6510247e-05
2.8608631e-05
2.9316837e-05
3.0571067e-05
3.3736396e-05
4.1586645e-05
5.0067085e-05
5.3461948e-05
4.9262685e-05
3.7264874e-05
1.6525659e-05
2.8889301e-05
2.9866124e-05
3.1814691e-05
3.7180766e-05
4.6760233e-05
5.4824595e-05
5.6783921e-05
5.1047356e-05
3.7861855e-05
1.6542911e-05
2.941962e-05
3.0715898e-05
3.3825282e-05
4.1605743e-05
5.2164666e-05
5.9359557e-05
5.982719e-05
5.2642524e-05
3.8381998e-05
1.6561744e-05
3.0266809e-05
3.1985692e-05
3.6807876e-05
4.6798529e-05
5.7598699e-05
6.3641661e-05
6.2613338e-05
5.4068828e-05
3.884164e-05
1.6581868e-05
3.1517178e-05
3.3869034e-05
4.0842501e-05
5.2497527e-05
6.2933554e-05
6.7660511e-05
6.5161113e-05
5.5349581e-05
3.9251454e-05
1.6603088e-05
3.3297209e-05
3.6603545e-05
4.5857929e-05
5.8458847e-05
6.8092381e-05
7.141555e-05
6.7489064e-05
5.6504203e-05
3.9619203e-05
1.6625236e-05
3.5799675e-05
4.0389377e-05
5.1664105e-05
6.4490912e-05
7.302901e-05
7.4907505e-05
6.9617607e-05
5.7547454e-05
3.9950828e-05
1.6648133e-05
3.9276925e-05
4.5306744e-05
5.8013942e-05
7.0457192e-05
7.7711273e-05
7.8146271e-05
7.1563597e-05
5.8491214e-05
4.0250654e-05
1.6671585e-05
4.396745e-05
5.1282541e-05
6.4661671e-05
7.6260581e-05
8.2120988e-05
8.1142821e-05
7.3340701e-05
5.9344818e-05
4.0521816e-05
1.6695394e-05
4.9982063e-05
5.8113728e-05
7.1395822e-05
8.1829622e-05
8.6249325e-05
8.3905676e-05
7.4959572e-05
6.0115257e-05
4.076647e-05
1.6719361e-05
5.7222811e-05
6.5521837e-05
7.8045772e-05
8.711385e-05
9.0089573e-05
8.6440368e-05
7.6427649e-05
6.0807321e-05
4.098591e-05
1.674328e-05
6.5385168e-05
7.3208083e-05
8.4484548e-05
9.2075568e-05
9.3633306e-05
8.8748917e-05
7.7749158e-05
6.1423741e-05
4.118065e-05
1.6766929e-05
7.4039488e-05
8.0899688e-05
9.0617219e-05
9.6681418e-05
9.6870132e-05
9.0830015e-05
7.8925432e-05
6.1965463e-05
4.1350551e-05
1.6790065e-05
8.2741426e-05
8.8366367e-05
9.6367221e-05
0.00010090234
9.9788768e-05
9.2680009e-05
7.9955638e-05
6.2432099e-05
4.1495007e-05
1.6812423e-05
9.1117657e-05
9.5425951e-05
0.00010167344
0.00010471491
0.00010237908
9.4294552e-05
8.0837894e-05
6.2822559e-05
4.1613206e-05
1.6833723e-05
9.8903948e-05
0.0001019452
0.00010649032
0.00010810316
0.00010463445
9.5670587e-05
8.1570624e-05
6.3135825e-05
4.1704428e-05
1.6853678e-05
0.00010594389
0.00010783774
0.0001107888
0.0001110602
0.00010655381
9.6808204e-05
8.215391e-05
6.3371727e-05
4.1768353e-05
1.6872019e-05
0.00011216763
0.00011305917
0.00011455659
0.00011358894
0.00010814287
9.7711985e-05
8.2590574e-05
6.3531612e-05
4.1805327e-05
1.6888511e-05
0.00011756632
0.00011759994
0.00011779735
0.00011570184
0.00010941442
9.8391616e-05
8.2886809e-05
6.361877e-05
4.1816532e-05
1.6902977e-05
0.00012217015
0.00012147721
0.0001205286
0.00011741992
0.00011038771
9.8861765e-05
8.3052279e-05
6.3638551e-05
4.1804032e-05
1.6915311e-05
0.00012603221
0.00012472699
0.00012277902
0.00011877105
0.00011108733
9.9141333e-05
8.309973e-05
6.3598178e-05
4.1770686e-05
1.6925487e-05
0.00012921756
0.00012739743
0.00012458534
0.0001197881
0.00011154163
9.9252329e-05
8.3044241e-05
6.3506303e-05
4.1719944e-05
1.6933557e-05
0.00013179619
0.00012954341
0.00012598945
0.00012050699
0.00011178111
9.9218567e-05
8.2902283e-05
6.3372426e-05
4.1655578e-05
1.6939641e-05
0.00013383856
0.00013122253
0.00012703579
0.00012096489
0.000111837
9.9064405e-05
8.2690759e-05
6.3206277e-05
4.1581412e-05
1.6943911e-05
0.00013541286
0.00013249223
0.00012776924
0.00012119876
0.00011173992
9.8813653e-05
8.2426144e-05
6.3017269e-05
4.1501075e-05
1.6946572e-05
0.00013658328
0.0001334078
0.00012823351
0.00012124419
0.00011151898
9.8488744e-05
8.2123831e-05
6.281407e-05
4.1417829e-05
1.6947846e-05
0.00013740915
0.00013402113
0.00012847004
0.00012113457
0.00011120109
9.811016e-05
8.179768e-05
6.2604332e-05
4.1334464e-05
1.6947958e-05
0.00013794448
0.00013438003
0.00012851727
0.00012090063
0.00011081061
9.769611e-05
8.1459769e-05
6.2394545e-05
4.1253258e-05
1.6947126e-05
0.00013823786
0.00013452788
0.00012841028
0.0001205701
0.00011036913
9.726239e-05
8.1120302e-05
6.2190007e-05
4.117598e-05
1.6945553e-05
0.0001383326
0.00013450358
0.00012818062
0.00012016766
0.00010989544
9.6822373e-05
8.0787627e-05
6.1994852e-05
4.1103918e-05
1.6943421e-05
0.00013826696
0.00013434163
0.00012785627
0.00011971491
0.00010940557
9.6387054e-05
8.0468229e-05
6.1811867e-05
4.1036844e-05
1.6940881e-05
0.00013807447
0.00013407235
0.00012746178
0.0001192305
0.00010891289
9.5965134e-05
8.0166736e-05
6.1642131e-05
4.0975901e-05
1.6938059e-05
0.00013778427
0.00013372212
0.00012701837
0.00011873017
0.00010842824
9.556308e-05
7.9885697e-05
6.1487732e-05
4.0921563e-05
1.693508e-05
0.00013742146
0.00013331362
0.00012654415
0.00011822699
0.00010795998
9.5185045e-05
7.9628233e-05
6.1349464e-05
4.0873989e-05
1.693205e-05
0.00013700747
0.00013286617
0.00012605428
0.00011773138
0.00010751404
9.4835309e-05
7.9395784e-05
6.1227538e-05
4.083309e-05
1.6929052e-05
0.00013656035
0.00013239591
0.00012556102
0.00011725127
0.00010709611
9.4516274e-05
7.9188882e-05
6.1121709e-05
4.0798593e-05
1.6926151e-05
0.00013609498
0.00013191598
0.00012507446
0.00011679403
0.00010670991
9.4229153e-05
7.9007356e-05
6.1031374e-05
4.0770097e-05
1.6923393e-05
0.00013562369
0.00013143758
0.00012460335
0.00011636492
0.00010635773
9.3974226e-05
7.8850479e-05
6.0955663e-05
4.0747121e-05
1.6920814e-05
0.00013515687
0.00013097001
0.00012415447
0.00011596767
0.00010604073
9.3751013e-05
7.8717101e-05
6.0893524e-05
4.072914e-05
1.6918436e-05
0.00013470299
0.00013052068
0.00012373288
0.00011560465
0.00010575913
9.3558433e-05
7.8605754e-05
6.0843787e-05
4.0715607e-05
1.6916273e-05
0.00013426874
0.00013009529
0.00012334217
0.00011527712
0.00010551233
9.3394945e-05
7.8514758e-05
6.080522e-05
4.070598e-05
1.6914331e-05
0.00013385922
0.00012969803
0.00012298468
0.00011498536
0.00010529914
9.3258665e-05
7.8442294e-05
6.0776573e-05
4.069973e-05
1.6912609e-05
0.00013347816
0.00012933181
0.00012266167
0.00011472891
0.0001051179
9.314748e-05
7.8386487e-05
6.0756616e-05
4.0696358e-05
1.6911102e-05
0.00013312807
0.0001289984
0.00012237348
0.00011450665
0.00010496656
9.3059142e-05
7.8345454e-05
6.0744166e-05
4.0695399e-05
1.6909801e-05
0.00013281043
0.00012869866
0.00012211975
0.00011431701
0.00010484286
9.2991346e-05
7.8317359e-05
6.0738106e-05
4.0696428e-05
1.6908696e-05
0.00013252585
0.00012843262
0.00012189948
0.00011415804
0.00010474439
9.294179e-05
7.8300441e-05
6.0737402e-05
4.0699064e-05
1.6907773e-05
0.00013227419
0.0001281997
0.00012171121
0.00011402754
0.00010466867
9.2908219e-05
7.8293035e-05
6.0741099e-05
4.0702961e-05
1.6907019e-05
0.00013205472
0.00012799875
0.00012155311
0.0001139231
0.00010461318
9.288846e-05
7.8293583e-05
6.0748331e-05
4.0707814e-05
1.6906419e-05
0.0001318662
0.00012782819
0.00012142304
0.00011384223
0.00010457546
9.2880437e-05
7.8300641e-05
6.0758308e-05
4.0713349e-05
1.6905957e-05
0.00013170697
0.00012768611
0.00012131868
0.00011378238
0.00010455307
9.2882202e-05
7.8312882e-05
6.0770326e-05
4.0719325e-05
1.6905619e-05
0.0001315751
0.00012757036
0.00012123758
0.000113741
0.00010454373
9.2891945e-05
7.8329112e-05
6.0783759e-05
4.0725536e-05
1.6905387e-05
0.0001314684
0.00012747861
0.00012117725
0.00011371565
0.00010454528
9.2908025e-05
7.8348271e-05
6.0798072e-05
4.0731808e-05
1.6905248e-05
0.0001313846
0.00012740848
0.00012113524
0.00011370398
0.00010455575
9.2928979e-05
7.8369444e-05
6.0812816e-05
4.0738005e-05
1.6905186e-05
0.00013132137
0.0001273576
0.00012110917
0.00011370381
0.00010457333
9.2953525e-05
7.8391853e-05
6.0827627e-05
4.0744023e-05
1.690519e-05
0.00013127642
0.00012732364
0.00012109679
0.00011371314
0.00010459646
9.2980553e-05
7.8414849e-05
6.0842211e-05
4.0749782e-05
1.6905249e-05
0.0001312475
0.00012730436
0.00012109598
0.00011373014
0.00010462369
9.3009102e-05
7.8437883e-05
6.0856328e-05
4.0755222e-05
1.6905354e-05
0.00013123242
0.00012729761
0.00012110473
0.00011375312
0.00010465377
9.3038335e-05
7.8460491e-05
6.0869782e-05
4.0760289e-05
1.6905493e-05
0.00013122908
0.00012730133
0.00012112119
0.00011378055
0.00010468557
9.3067524e-05
7.8482276e-05
6.0882396e-05
4.0764894e-05
1.6905659e-05
0.00013123545
0.00012731359
0.00012114362
0.00011381106
0.00010471811
9.309605e-05
7.8502903e-05
6.0894002e-05
4.0769008e-05
1.690584e-05
0.00013124966
0.00012733256
0.00012117047
0.00011384342
0.00010475054
9.3123403e-05
7.8522092e-05
6.0904518e-05
4.0772647e-05
1.690603e-05
0.00013126997
0.00012735664
0.00012120036
0.00011387661
0.00010478218
9.3149171e-05
7.8539675e-05
6.0913935e-05
4.0775824e-05
1.6906223e-05
0.00013129483
0.00012738436
0.00012123209
0.00011390976
0.00010481247
9.3173077e-05
7.8555598e-05
6.0922258e-05
4.0778564e-05
1.6906413e-05
0.00013132291
0.00012741451
0.00012126468
0.00011394216
0.00010484101
9.3195e-05
7.8569845e-05
6.0929526e-05
4.0780899e-05
1.6906599e-05
0.00013135306
0.00012744604
0.00012129729
0.0001139733
0.00010486759
9.3214876e-05
7.8582449e-05
6.09358e-05
4.0782867e-05
1.6906778e-05
0.00013138432
0.00012747805
0.00012132927
0.00011400282
0.00010489204
9.3232696e-05
7.8593472e-05
6.0941148e-05
4.0784502e-05
1.6906949e-05
0.00013141587
0.00012750984
0.00012136013
0.00011403043
0.00010491428
9.3248483e-05
7.860299e-05
6.094564e-05
4.0785838e-05
1.690711e-05
0.00013144702
0.00012754083
0.00012138945
0.00011405592
0.00010493425
9.3262282e-05
7.8611081e-05
6.0949338e-05
4.0786899e-05
1.6907261e-05
0.00013147721
0.0001275705
0.00012141689
0.00011407912
0.00010495192
9.327415e-05
7.861782e-05
6.09523e-05
4.0787707e-05
1.6907399e-05
0.00013150593
0.00012759844
0.00012144217
0.00011409994
0.00010496731
9.328416e-05
7.8623291e-05
6.0954581e-05
4.0788282e-05
1.6907523e-05
0.0001315328
0.00012762433
0.00012146513
0.00011411832
0.00010498048
9.329241e-05
7.8627586e-05
6.0956242e-05
4.0788646e-05
1.6907633e-05
0.00013155753
0.00012764794
0.00012148564
0.00011413429
0.00010499152
9.3299029e-05
7.8630817e-05
6.0957353e-05
4.0788827e-05
1.6907728e-05
0.00013157995
0.00012766917
0.00012150371
0.00011414794
0.0001050006
9.3304172e-05
7.8633108e-05
6.0957993e-05
4.0788856e-05
1.6907808e-05
0.00013160001
0.00012768799
0.00012151941
0.00011415941
0.00010500787
9.3308011e-05
7.8634593e-05
6.0958241e-05
4.0788766e-05
1.6907875e-05
0.00013161774
0.00012770448
0.00012153285
0.00011416889
0.00010501355
9.3310723e-05
7.8635404e-05
6.0958175e-05
4.0788587e-05
1.6907931e-05
0.00013163324
0.00012771876
0.00012154421
0.00011417656
0.00010501783
9.3312475e-05
7.8635661e-05
6.0957863e-05
4.0788342e-05
1.6907976e-05
0.00013164662
0.00012773095
0.00012155366
0.00011418262
0.00010502089
9.3313415e-05
7.8635465e-05
6.095736e-05
4.0788051e-05
1.6908013e-05
0.00013165803
0.00012774122
0.00012156135
0.00011418724
0.00010502288
9.331367e-05
7.86349e-05
6.0956707e-05
4.0787725e-05
1.6908042e-05
0.00013166759
0.0001277497
0.00012156744
0.00011419057
0.00010502395
9.3313345e-05
7.8634034e-05
6.0955939e-05
4.0787373e-05
1.6908063e-05
0.00013167543
0.00012775652
0.00012157208
0.00011419276
0.00010502422
9.3312538e-05
7.8632927e-05
6.0955083e-05
4.0787002e-05
1.6908078e-05
0.00013168168
0.00012776182
0.00012157541
0.00011419395
0.00010502382
9.3311339e-05
7.8631637e-05
6.0954167e-05
4.0786621e-05
1.6908086e-05
0.00013168648
0.00012776575
0.00012157759
0.00011419428
0.00010502287
9.3309835e-05
7.8630217e-05
6.0953217e-05
4.0786237e-05
1.6908088e-05
0.00013168998
0.00012776847
0.00012157878
0.00011419391
0.00010502148
9.3308116e-05
7.8628723e-05
6.0952261e-05
4.0785862e-05
1.6908086e-05
0.00013169235
0.00012777015
0.00012157913
0.00011419297
0.00010501977
9.3306262e-05
7.8627204e-05
6.0951325e-05
4.0785504e-05
1.690808e-05
0.00013169377
0.00012777097
0.00012157882
0.00011419161
0.00010501785
9.3304347e-05
7.8625705e-05
6.0950429e-05
4.078517e-05
1.6908072e-05
0.00013169443
0.00012777109
0.00012157799
0.00011418994
0.00010501581
9.3302432e-05
7.8624259e-05
6.0949589e-05
4.0784864e-05
1.6908062e-05
0.00013169448
0.00012777067
0.00012157678
0.00011418807
0.00010501372
9.3300557e-05
7.8622886e-05
6.0948808e-05
4.0784585e-05
1.6908051e-05
)
;

boundaryField
{
    water_inlet
    {
        type            calculated;
        value           uniform 4.1926275e-05;
    }
    water_outlet
    {
        type            calculated;
        value           nonuniform List<scalar> 10(0.00013169448 0.00012777067 0.00012157678 0.00011418807 0.00010501372 9.3300557e-05 7.8622886e-05 6.0948808e-05 4.0784585e-05 1.6908051e-05);
    }
    water_wedge1
    {
        type            wedge;
    }
    water_wedge2
    {
        type            wedge;
    }
    water_to_rock
    {
        type            nutkWallFunction;
        blending        stepwise;
        value           nonuniform List<scalar> 
100
(
1.7358471e-06
1.9240026e-06
1.9263125e-06
1.8751054e-06
1.8229111e-06
1.786787e-06
1.7671182e-06
1.7584646e-06
1.7555994e-06
1.7553229e-06
1.7561183e-06
1.7574035e-06
1.7590036e-06
1.7608813e-06
1.7630286e-06
1.765432e-06
1.7680553e-06
1.770858e-06
1.7738126e-06
1.7768957e-06
1.7800824e-06
1.7833461e-06
1.7866592e-06
1.7899937e-06
1.7933206e-06
1.796609e-06
1.7998253e-06
1.802933e-06
1.8058933e-06
1.8086665e-06
1.811215e-06
1.8135062e-06
1.8155154e-06
1.8172282e-06
1.8186413e-06
1.8197619e-06
1.8206069e-06
1.8212e-06
1.8215696e-06
1.8217465e-06
1.821762e-06
1.8216463e-06
1.8214277e-06
1.8211317e-06
1.820779e-06
1.8203872e-06
1.8199737e-06
1.819553e-06
1.8191366e-06
1.8187337e-06
1.8183507e-06
1.8179925e-06
1.8176623e-06
1.8173619e-06
1.8170921e-06
1.8168528e-06
1.8166434e-06
1.8164628e-06
1.8163093e-06
1.8161812e-06
1.8160765e-06
1.8159932e-06
1.8159291e-06
1.815882e-06
1.8158497e-06
1.8158303e-06
1.8158218e-06
1.8158226e-06
1.815831e-06
1.8158456e-06
1.815865e-06
1.8158878e-06
1.8159128e-06
1.815939e-06
1.8159656e-06
1.8159921e-06
1.816018e-06
1.816043e-06
1.8160669e-06
1.8160893e-06
1.8161101e-06
1.8161291e-06
1.8161461e-06
1.8161611e-06
1.8161741e-06
1.8161853e-06
1.8161948e-06
1.8162026e-06
1.8162091e-06
1.8162144e-06
1.8162184e-06
1.8162214e-06
1.8162234e-06
1.8162246e-06
1.816225e-06
1.8162248e-06
1.8162242e-06
1.8162232e-06
1.816222e-06
1.8162206e-06
)
;
    }
}


// ************************************************************************* //
