/*--------------------------------*- C++ -*----------------------------------*\
| =========                 |                                                 |
| \\      /  F ield         | OpenFOAM: The Open Source CFD Toolbox           |
|  \\    /   O peration     | Version:  2506                                  |
|   \\  /    A nd           | Website:  www.openfoam.com                      |
|    \\/     M anipulation  |                                                 |
\*---------------------------------------------------------------------------*/
FoamFile
{
    version     2.0;
    format      ascii;
    arch        "LSB;label=32;scalar=64";
    class       volVectorField;
    location    "16000/water";
    object      U;
}
// * * * * * * * * * * * * * * * * * * * * * * * * * * * * * * * * * * * * * //

dimensions      [0 1 -1 0 0 0 0];

internalField   nonuniform List<vector> 
1000
(
(0.25225587 -0.00012859767 2.3678185e-18)
(0.25226258 -0.00027067836 5.7647858e-19)
(0.25227485 -0.0004145054 2.0213107e-18)
(0.25228819 -0.00055572717 3.886377e-19)
(0.25229018 -0.0006857579 5.4265955e-19)
(0.25223998 -0.00079863172 1.237119e-20)
(0.25200713 -0.00089615194 -6.1799195e-20)
(0.25115686 -0.0010460356 -2.4099124e-19)
(0.24780473 -0.0012820719 -8.2629361e-20)
(0.23308261 0.0010121611 -5.565996e-19)
(0.25653043 -7.7330446e-05 1.194878e-18)
(0.25653977 -0.0001890383 7.4957837e-19)
(0.25655871 -0.00029096537 2.4732521e-18)
(0.25657276 -0.00039024488 7.4618404e-19)
(0.25654377 -0.0004817504 4.8650472e-19)
(0.25636039 -0.00055898445 -1.2860449e-20)
(0.25570613 -0.00060536503 -1.3798884e-19)
(0.25355952 -0.0006544137 -3.5641146e-19)
(0.24574266 -0.00084724766 -2.5923867e-19)
(0.21968686 0.00025718795 -6.1299434e-19)
(0.26021787 -7.3909981e-05 -7.0826813e-19)
(0.26022468 -0.00018059833 8.3750438e-20)
(0.26023383 -0.00027741911 1.3265717e-18)
(0.26021807 -0.00037159742 6.0608751e-19)
(0.26010153 -0.00045735772 -4.0395671e-19)
(0.25968006 -0.00053044598 -2.2378014e-19)
(0.25840621 -0.00057093101 -2.3354891e-19)
(0.25452354 -0.00056554762 -3.8577847e-19)
(0.24186464 -0.00061987695 -4.3041933e-19)
(0.20839342 1.125271e-05 -4.7777056e-19)
(0.26340527 -6.8945959e-05 3.9219775e-19)
(0.26340956 -0.00017058504 4.5373216e-19)
(0.26340597 -0.00026279222 1.2109629e-18)
(0.2633478 -0.00035138357 3.7373828e-19)
(0.26310913 -0.00042951121 -5.8810036e-19)
(0.26237282 -0.00049394964 -3.4453635e-19)
(0.26030373 -0.00052750946 -3.2047578e-19)
(0.25430847 -0.00049289889 -4.5917564e-19)
(0.23723184 -0.00045934269 -3.7652739e-19)
(0.19958843 -4.8875828e-05 -4.1852769e-19)
(0.26641628 -6.4388906e-05 -1.1866336e-18)
(0.26641556 -0.00015946864 1.0180725e-18)
(0.266392 -0.00024539845 6.3519293e-19)
(0.26627267 -0.00032748748 2.0107319e-19)
(0.26586989 -0.00039791722 -1.6064543e-19)
(0.26472852 -0.00045250584 1.3168048e-19)
(0.26164539 -0.00047360792 -1.5170194e-19)
(0.25321244 -0.00041483748 -4.4014215e-19)
(0.23271017 -0.00033459286 -3.6876261e-19)
(0.19329521 -5.0633508e-05 -3.8257777e-19)
(0.26927574 -6.0867474e-05 -5.1964025e-20)
(0.26926716 -0.00015024318 8.4152454e-19)
(0.26921481 -0.0002307043 4.8668194e-19)
(0.26901237 -0.00030702723 3.2700561e-19)
(0.26839647 -0.00037049991 1.1037703e-19)
(0.26673517 -0.00041493239 2.0259865e-19)
(0.26236785 -0.00041871837 -9.2808652e-20)
(0.25136274 -0.00033835043 -2.5606072e-19)
(0.22869805 -0.00023662923 -1.8499576e-19)
(0.18902138 -3.9495653e-05 -2.7833695e-19)
(0.27197991 -5.8057507e-05 2.4849475e-18)
(0.27196007 -0.00014287128 2.0770604e-18)
(0.2718683 -0.00021894828 1.3165228e-19)
(0.2715565 -0.00029030354 1.6825784e-19)
(0.27066608 -0.00034729011 7.0811581e-20)
(0.26833152 -0.00038068333 -2.2472086e-19)
(0.26239848 -0.00036437333 -2.3712987e-19)
(0.24902638 -0.0002685256 -2.0306023e-19)
(0.22536101 -0.0001627277 -1.4153178e-19)
(0.18616828 -2.8774641e-05 -2.7194237e-19)
(0.27455816 -5.5861806e-05 1.0453469e-19)
(0.27452281 -0.00013703203 1.7549024e-18)
(0.27437848 -0.0002095201 2.5434143e-19)
(0.27392443 -0.00027640507 3.1633552e-19)
(0.27267858 -0.00032682119 3.0703942e-19)
(0.26947688 -0.00034738488 1.6148002e-19)
(0.26178467 -0.00031092742 5.2102876e-20)
(0.24657378 -0.0002081692 -1.942512e-19)
(0.22271519 -0.00011050133 -4.1828338e-19)
(0.18425838 -2.0836433e-05 -2.6342421e-19)
(0.27704027 -5.4085692e-05 1.7412472e-20)
(0.27698407 -0.0001322543 5.6973206e-19)
(0.27677058 -0.00020162566 9.6657348e-19)
(0.27613171 -0.00026417287 5.1329271e-19)
(0.27442314 -0.00030720598 2.414819e-19)
(0.27014174 -0.00031294801 2.5033518e-19)
(0.26068997 -0.00025925811 3.1407549e-21)
(0.24429829 -0.00015836463 -1.6650773e-19)
(0.22067581 -7.5408758e-05 -1.2259014e-19)
(0.182962 -1.5153446e-05 -8.6637688e-20)
(0.2794434 -5.2555725e-05 2.1157139e-18)
(0.27935955 -0.00012814129 2.0594823e-18)
(0.27905543 -0.00019460743 5.0882633e-19)
(0.27817576 -0.00025259229 2.996362e-19)
(0.27586798 -0.00028673456 1.1422879e-20)
(0.27032644 -0.00027659219 -2.5158638e-19)
(0.25933498 -0.0002109404 -2.9821935e-19)
(0.24234211 -0.00011891225 -1.9456545e-19)
(0.21912382 -5.2172061e-05 -1.1024263e-19)
(0.18206603 -1.0946037e-05 -2.0735392e-19)
(0.28177654 -5.1166637e-05 9.704932e-19)
(0.28165619 -0.00012441966 3.9960748e-19)
(0.2812333 -0.00018797289 2.803079e-19)
(0.28003902 -0.00024077448 1.025615e-18)
(0.276974 -0.0002641765 3.9833806e-19)
(0.27008763 -0.00023880424 6.9878677e-20)
(0.25792264 -0.00016762341 -1.6531184e-19)
(0.24073177 -8.8481543e-05 -1.5464417e-19)
(0.21795021 -3.6445918e-05 -2.2908951e-19)
(0.18143939 -7.6996092e-06 -2.1865622e-19)
(0.28404476 -4.9854743e-05 1.6159685e-18)
(0.28387625 -0.00012089416 5.3464346e-19)
(0.2832974 -0.00018132899 4.3659121e-19)
(0.28169345 -0.00022787705 9.0012595e-19)
(0.27771475 -0.00023897395 5.5592824e-19)
(0.2695351 -0.00020087574 2.2900017e-19)
(0.25659135 -0.00013036533 -3.8410818e-20)
(0.23943778 -6.5171541e-05 -1.7345789e-19)
(0.21706901 -2.5325674e-05 -1.4357469e-19)
(0.18100325 -5.122176e-06 -1.4255753e-19)
(0.28625048 -4.8572062e-05 1.9261625e-18)
(0.28601827 -0.00011740085 7.2559517e-19)
(0.28523427 -0.00017430179 6.1563233e-20)
(0.28310495 -0.00021314186 6.5550752e-19)
(0.27809441 -0.00021129071 1.2180051e-19)
(0.26879942 -0.00016439828 -2.0202279e-19)
(0.25541091 -9.9329377e-05 -1.7397744e-19)
(0.23841398 -4.7155718e-05 -1.2765778e-19)
(0.21641537 -1.7079003e-05 -1.2407564e-19)
(0.18070893 -3.0435564e-06 -1.3362965e-19)
(0.28839354 -4.7270955e-05 4.8619629e-19)
(0.28807682 -0.00011377571 6.1851624e-19)
(0.28702342 -0.00016645972 3.1599501e-19)
(0.2842408 -0.00019602593 5.8371575e-19)
(0.27815552 -0.00018188535 -4.3331104e-20)
(0.267996 -0.00013078967 -2.640217e-19)
(0.25440305 -7.3936892e-05 -5.6106673e-19)
(0.23761475 -3.3003595e-05 -2.4868489e-19)
(0.21594074 -1.071585e-05 -2.1615407e-19)
(0.18052451 -1.3527011e-06 -2.7352884e-19)
(0.29047097 -4.5891438e-05 1.243092e-18)
(0.29004194 -0.00010982905 2.9583523e-18)
(0.28863779 -0.00015729294 5.3927015e-19)
(0.28508025 -0.00017633843 1.0022234e-19)
(0.27797085 -0.00015188713 4.0096216e-19)
(0.26720626 -0.00010094658 3.0374665e-19)
(0.253564 -5.3258512e-05 -1.9184097e-19)
(0.23700052 -2.169838e-05 -2.8756645e-19)
(0.21560861 -5.6593768e-06 -2.2972782e-19)
(0.18042761 3.4065471e-08 -1.5636933e-19)
(0.29247637 -4.4351549e-05 7.1054339e-19)
(0.2918983 -0.00010531337 4.2642819e-19)
(0.29004631 -0.00014628199 5.2766777e-19)
(0.28562472 -0.00015430651 8.3102954e-19)
(0.2776241 -0.00012253949 7.5030019e-19)
(0.26647733 -7.514794e-05 3.6525826e-19)
(0.25287922 -3.6357904e-05 3.4620808e-19)
(0.23653861 -1.2544602e-05 -1.6602411e-20)
(0.21539111 -1.5277834e-06 -9.3659244e-20)
(0.18040204 1.2056822e-06 1.0066349e-19)
(0.294399 -4.2542667e-05 1.8613927e-19)
(0.2936244 -9.9894599e-05 2.1444804e-19)
(0.2912191 -0.00013303038 5.4019896e-19)
(0.28590174 -0.00013054549 5.0173525e-19)
(0.27719087 -9.4944217e-05 5.8607265e-19)
(0.26583134 -5.3198354e-05 1.6397241e-19)
(0.25233096 -2.245288e-05 1.2182925e-19)
(0.23620235 -5.0206515e-06 -1.3447977e-20)
(0.21526449 1.8971519e-06 -6.5325985e-20)
(0.18043772 2.1934518e-06 -1.1530806e-19)
(0.29622248 -4.0322296e-05 1.5080389e-18)
(0.29519258 -9.315543e-05 1.0155274e-19)
(0.29213504 -0.00011739318 2.7976134e-19)
(0.2859599 -0.00010594368 7.9154506e-19)
(0.27672823 -6.9857318e-05 5.0652254e-19)
(0.26527517 -3.4649228e-05 6.1386951e-19)
(0.2519011 -1.0910655e-05 2.3538278e-19)
(0.23596806 1.2318338e-06 1.5828697e-19)
(0.21521691 4.7057147e-06 6.7388749e-20)
(0.18052213 2.988419e-06 -3.8336775e-20)
(0.29792335 -3.7501327e-05 1.0445441e-18)
(0.29657068 -8.46605e-05 8.7964757e-19)
(0.29278918 -9.9552333e-05 6.9413605e-19)
(0.28585702 -8.1496327e-05 9.1357854e-19)
(0.27627359 -4.7619303e-05 4.8506324e-19)
(0.26480714 -1.898355e-05 2.3173535e-19)
(0.25157194 -1.2534002e-06 -9.1646984e-20)
(0.23582161 6.4209924e-06 1.4451053e-19)
(0.21523437 6.9892057e-06 -1.8751737e-20)
(0.18064613 3.6202366e-06 -1.3901065e-19)
(0.29946983 -3.3841685e-05 -1.5803132e-18)
(0.29772603 -7.4080377e-05 1.8475649e-18)
(0.29319629 -8.0019975e-05 2.402939e-19)
(0.28564804 -5.8126119e-05 -1.059756e-18)
(0.27584862 -2.8225249e-05 -2.2266145e-19)
(0.2644212 -5.6900542e-06 -4.7556138e-19)
(0.25132937 6.8566059e-06 -8.2807512e-20)
(0.23575038 1.0705219e-05 -1.0752314e-20)
(0.21530525 8.8452757e-06 1.741961e-20)
(0.18080246 4.1234808e-06 3.0320883e-20)
(0.30082185 -2.9095008e-05 5.7469507e-19)
(0.29863175 -6.1332509e-05 1.2626877e-18)
(0.29338823 -5.956762e-05 -7.8558493e-19)
(0.28537719 -3.6523151e-05 -9.3921434e-19)
(0.27546384 -1.1417732e-05 -6.0543238e-19)
(0.26410765 5.6159597e-06 -4.8097733e-19)
(0.2511654 1.3622928e-05 -1.2035716e-19)
(0.23574182 1.4219425e-05 -6.7182021e-20)
(0.21542013 1.0354872e-05 -5.6838212e-21)
(0.18098522 4.526315e-06 1.9012961e-19)
(0.30193375 -2.3108994e-05 2.9943483e-18)
(0.29927338 -4.6685256e-05 1.2096604e-18)
(0.29340603 -3.9092524e-05 -5.6412e-19)
(0.28507548 -1.7048811e-05 2.4219096e-19)
(0.27512089 3.0824429e-06 6.371786e-19)
(0.26386445 1.5138881e-05 2.0809515e-19)
(0.25106782 1.920858e-05 -9.9476166e-20)
(0.2357854 1.7093777e-05 -1.168161e-19)
(0.2155712 1.15804e-05 -3.2156927e-20)
(0.18118948 4.8477163e-06 -2.0587774e-20)
(0.30276113 -1.5977246e-05 -1.8199271e-18)
(0.29965289 -3.0773849e-05 -5.2361916e-19)
(0.29329057 -1.9437345e-05 -6.054942e-19)
(0.28476122 1.663801e-07 -7.6324558e-19)
(0.27482458 1.5439219e-05 5.1433094e-20)
(0.2636834 2.3070048e-05 4.9219989e-21)
(0.2510265 2.3801045e-05 2.0702526e-19)
(0.2358724 1.9433259e-05 8.4249404e-20)
(0.21575198 1.2564315e-05 9.3143585e-20)
(0.18141105 5.0989442e-06 1.4788707e-19)
(0.30327137 -8.1280785e-06 2.8821414e-19)
(0.29978737 -1.4486635e-05 1.2310071e-18)
(0.2930748 -1.3062339e-06 -1.6756923e-19)
(0.2844492 1.5038592e-05 -7.7144201e-19)
(0.27457434 2.5803163e-05 -7.6088585e-19)
(0.26355616 2.9612931e-05 -1.1813877e-20)
(0.25103263 2.7544056e-05 -6.3416699e-21)
(0.23599543 2.1310782e-05 1.6337299e-19)
(0.21595695 1.3335547e-05 -2.4256432e-20)
(0.18164625 5.2873214e-06 6.5051142e-20)
(0.30345401 -2.4228929e-07 1.0470327e-18)
(0.29970267 1.1328562e-06 7.7965152e-19)
(0.2927864 1.4662191e-05 -2.432934e-19)
(0.28414895 2.7525699e-05 -1.1216922e-18)
(0.27436561 3.4336818e-05 -2.502215e-19)
(0.26347497 3.4930125e-05 -3.4107602e-21)
(0.25107851 3.0536334e-05 7.6043323e-20)
(0.2361481 2.2774292e-05 1.3358906e-19)
(0.21618128 1.3912486e-05 8.0587433e-20)
(0.18189177 5.4170519e-06 8.5688271e-20)
(0.30332517 6.8812502e-06 -3.5860874e-18)
(0.29943298 1.4985273e-05 -1.7869556e-18)
(0.29244691 2.7994468e-05 -1.5457178e-18)
(0.28386233 3.767727e-05 -2.4149215e-18)
(0.27419303 4.1187866e-05 -1.1951647e-18)
(0.26343257 3.9128724e-05 -1.060958e-18)
(0.2511573 3.283684e-05 -1.6625895e-19)
(0.23632475 2.3849716e-05 -1.6789265e-19)
(0.21642057 1.4303006e-05 8.2606569e-20)
(0.18214444 5.4889207e-06 1.9317388e-19)
(0.30293054 1.2607232e-05 8.6783023e-19)
(0.29901533 2.6253401e-05 -1.5443688e-18)
(0.29206924 3.8508618e-05 -1.5571049e-18)
(0.28358876 4.5590539e-05 -1.4955647e-19)
(0.27405096 4.6452796e-05 3.3843836e-19)
(0.2634222 4.226775e-05 -1.451983e-19)
(0.25126271 3.4473055e-05 -1.6460944e-19)
(0.23652015 2.4544381e-05 -8.4064558e-20)
(0.21667065 1.4505388e-05 1.2023398e-20)
(0.18240108 5.5003805e-06 -2.7548611e-20)
(0.30233165 1.6686313e-05 9.2752841e-19)
(0.29848534 3.460123e-05 -1.3608302e-18)
(0.29166294 4.6231962e-05 -1.0352752e-18)
(0.28332653 5.1360785e-05 -6.3883891e-20)
(0.27393382 5.0195579e-05 3.1117436e-19)
(0.26343755 4.4378843e-05 3.0791536e-19)
(0.25138894 3.5453054e-05 -6.0478492e-20)
(0.23672934 2.4853687e-05 1.1002515e-19)
(0.21692739 1.4511848e-05 9.8479976e-20)
(0.18265839 5.4468276e-06 -5.2374083e-21)
(0.30159324 1.9182009e-05 1.3342968e-18)
(0.29787659 4.0084387e-05 3.2498885e-18)
(0.29123636 5.1327341e-05 1.4353112e-19)
(0.28307384 5.5103121e-05 -1.9187816e-19)
(0.27383649 5.2478038e-05 -1.2492166e-18)
(0.26347281 4.5486791e-05 -2.9806804e-19)
(0.25153052 3.5778903e-05 -4.619714e-19)
(0.23694749 2.476971e-05 -2.6979411e-19)
(0.21718659 1.4313444e-05 -1.1383421e-19)
(0.18291287 5.3234856e-06 -4.8345751e-22)
(0.30077405 2.0343791e-05 1.3171628e-18)
(0.29721993 4.3029634e-05 3.155892e-18)
(0.29079789 5.406323e-05 7.472217e-19)
(0.28282962 5.6974872e-05 5.1202538e-19)
(0.2737546 5.3382388e-05 -5.8075893e-20)
(0.26352281 4.5627318e-05 -2.7946826e-19)
(0.25168237 3.5459965e-05 -3.0101252e-19)
(0.23716992 2.4290168e-05 -3.119427e-19)
(0.21744401 1.3905205e-05 -2.1525701e-19)
(0.18316089 5.1273729e-06 -2.6412245e-20)
(0.29992221 2.0483698e-05 -2.5002694e-18)
(0.29654261 4.3898866e-05 -2.2402219e-18)
(0.29035626 5.4780593e-05 -7.3725006e-19)
(0.28259384 5.718176e-05 -1.3929577e-18)
(0.27368475 5.3024191e-05 -5.1327399e-19)
(0.26358307 4.4860218e-05 -4.3883265e-19)
(0.25183984 3.4523765e-05 2.2532542e-19)
(0.23739211 2.3426054e-05 3.3628315e-20)
(0.21769544 1.3290606e-05 3.3419357e-20)
(0.18339877 4.8590562e-06 6.8459381e-20)
(0.29907422 1.9896715e-05 2.2939885e-18)
(0.29586746 4.3179311e-05 -1.5205521e-18)
(0.28992021 5.3855087e-05 -7.5426264e-19)
(0.2823675 5.596946e-05 6.6355485e-19)
(0.27362456 5.1554622e-05 9.3138982e-19)
(0.26364989 4.3275176e-05 7.8889143e-19)
(0.2519988 3.3021894e-05 6.0443065e-19)
(0.23760991 2.2206098e-05 3.4135502e-19)
(0.21793688 1.2484233e-05 5.0988955e-20)
(0.18362303 4.52365e-06 -7.7633547e-20)
(0.29825614 1.8826154e-05 5.47573e-19)
(0.29521263 4.1316305e-05 -1.1214667e-19)
(0.28949797 5.1661604e-05 -1.3958813e-19)
(0.28215236 5.3606246e-05 3.8192051e-19)
(0.27357255 4.9153637e-05 8.986168e-19)
(0.26372035 4.0989963e-05 6.8449951e-19)
(0.25215571 3.1030147e-05 2.6502008e-19)
(0.2378196 2.0677306e-05 2.3313473e-19)
(0.21816472 1.1512149e-05 7.6425199e-20)
(0.18383054 4.1308821e-06 -1.5202848e-20)
(0.29748542 1.7457829e-05 6.9839086e-19)
(0.29459166 3.8683391e-05 3.0561896e-18)
(0.28909668 4.8547315e-05 2.5664055e-19)
(0.28195053 5.0363236e-05 -6.7740496e-19)
(0.27352798 4.6017586e-05 -1.3111742e-18)
(0.26379222 3.8142831e-05 -6.84e-19)
(0.25230768 2.8643696e-05 -6.5628859e-19)
(0.23801801 1.8901844e-05 -2.729817e-19)
(0.21837593 1.0410051e-05 1.0382606e-20)
(0.18401878 3.6942887e-06 -2.4165536e-21)
(0.2967729 1.5927315e-05 1.7856456e-18)
(0.29401395 3.5576743e-05 2.0131136e-18)
(0.28872208 4.481543e-05 6.0846577e-19)
(0.28176412 4.649714e-05 2.0866714e-19)
(0.27349054 4.2345255e-05 -7.3334719e-19)
(0.26386387 3.4881884e-05 -6.9979617e-19)
(0.2524524 2.5969192e-05 -4.5065995e-19)
(0.23820264 1.6951469e-05 -2.1888792e-19)
(0.21856817 9.2198699e-06 -9.7163764e-20)
(0.18418595 3.2298238e-06 -2.8972349e-20)
(0.29612448 1.4330689e-05 -2.541763e-18)
(0.29348539 3.2222009e-05 -2.484768e-18)
(0.28837834 4.0718457e-05 -2.9170015e-19)
(0.2815949 4.2237892e-05 -1.5597496e-18)
(0.27346017 3.8325289e-05 -6.8196267e-19)
(0.26393413 3.1354039e-05 -8.5314855e-19)
(0.25258815 2.3115766e-05 -8.0994973e-22)
(0.23837164 1.4900865e-05 -4.8803289e-21)
(0.21873985 7.9855866e-06 -5.9436483e-20)
(0.18433108 2.7541721e-06 5.6069469e-20)
(0.29554246 1.2734597e-05 3.0763455e-18)
(0.29300905 2.8785875e-05 2.4453056e-20)
(0.28806808 3.6458442e-05 6.6791646e-19)
(0.28144415 3.7781828e-05 9.3382081e-19)
(0.27343686 3.4126975e-05 1.3421081e-18)
(0.26400216 2.7695845e-05 4.78115e-19)
(0.2527137 2.0187039e-05 1.5645069e-19)
(0.23852382 1.282153e-05 9.3554853e-20)
(0.21889018 6.7493432e-06 2.1849505e-20)
(0.18445397 2.2832371e-06 -5.5507262e-20)
(0.29502661 1.1184253e-05 5.9173783e-19)
(0.29258576 2.538805e-05 3.7114187e-19)
(0.28779257 3.2191293e-05 6.4645294e-19)
(0.28131253 3.3289476e-05 1.3020006e-18)
(0.27342052 2.9894737e-05 1.1206952e-18)
(0.26406734 2.4027016e-05 1.0162065e-18)
(0.25282827 1.727506e-05 4.5247993e-19)
(0.23865858 1.0776985e-05 2.5287078e-19)
(0.21901904 5.5483118e-06 2.1345133e-19)
(0.18455514 1.8309015e-06 1.2189136e-19)
(0.29457491 9.709449e-06 -4.5769625e-19)
(0.29221471 2.2111966e-05 2.7990143e-18)
(0.28755189 2.8033125e-05 8.7515719e-19)
(0.28120013 2.8886811e-05 9.1203226e-19)
(0.2734109 2.5746118e-05 -2.8847939e-19)
(0.26412921 2.0446996e-05 7.5468862e-20)
(0.25293145 1.4456725e-05 7.3662681e-20)
(0.23877584 8.8198552e-06 9.8841861e-20)
(0.21912697 4.4127692e-06 1.9728254e-19)
(0.1846357 1.4082753e-06 1.7153328e-19)
(0.29418417 8.3289412e-06 6.4283285e-18)
(0.29189391 1.9013602e-05 4.4138278e-18)
(0.28734518 2.4067121e-05 2.6423002e-18)
(0.28110651 2.4668602e-05 2.8943638e-18)
(0.27340762 2.1772371e-05 2.0272984e-18)
(0.26418744 1.7034088e-05 1.150424e-18)
(0.25302316 1.1792441e-05 4.0760159e-19)
(0.238876 6.9907162e-06 2.2335114e-19)
(0.21921495 3.365356e-06 1.5275615e-19)
(0.1846972 1.0234192e-06 2.1789597e-20)
(0.29385043 7.0535733e-06 4.606918e-18)
(0.29162051 1.6128407e-05 1.878725e-18)
(0.28717087 2.0349975e-05 4.8291483e-18)
(0.2810308 2.0702688e-05 3.0162058e-18)
(0.27341012 1.8040642e-05 2.2792119e-18)
(0.26424177 1.3846316e-05 1.9365417e-18)
(0.25310353 9.326395e-06 1.1920718e-18)
(0.23895978 5.3182328e-06 6.7171232e-19)
(0.21928439 2.4211886e-06 4.8993003e-19)
(0.18474148 6.813668e-07 1.7107324e-19)
(0.29356928 5.8885623e-06 1.5799869e-18)
(0.29139116 1.3476677e-05 3.0501159e-18)
(0.28702689 1.6917584e-05 3.5874787e-18)
(0.28097178 1.7034504e-05 3.2591075e-18)
(0.27341773 1.4597046e-05 2.4663337e-18)
(0.264292 1.0923444e-05 1.4844476e-18)
(0.25317294 7.087976e-06 1.1163928e-18)
(0.23902821 3.8202643e-06 7.0323063e-19)
(0.21933694 1.5886907e-06 4.3291107e-19)
(0.18477056 3.845179e-07 2.3546592e-19)
(0.2933361 4.8351277e-06 8.5269991e-19)
(0.29120217 1.106764e-05 3.2418236e-18)
(0.28691081 1.3789867e-05 3.8329379e-18)
(0.28092799 1.3691431e-05 5.3169879e-18)
(0.27342969 1.1470113e-05 4.0840504e-18)
(0.26433799 8.2896548e-06 2.1381096e-18)
(0.2532319 5.0939244e-06 1.4198644e-18)
(0.23908248 2.5056102e-06 9.5285374e-19)
(0.2193744 8.7090334e-07 6.6364833e-19)
(0.18478651 1.3322086e-07 4.1847722e-19)
(0.29314622 3.8916585e-06 -5.6851984e-20)
(0.29104971 8.9024547e-06 2.1714055e-18)
(0.28681999 1.0974535e-05 2.9058486e-18)
(0.28089782 1.0686441e-05 3.8798277e-18)
(0.27344522 8.6738681e-06 3.3120527e-18)
(0.26437967 5.9559873e-06 2.6993221e-18)
(0.25328104 3.3500629e-06 1.9851642e-18)
(0.23912393 1.3750001e-06 1.4555216e-18)
(0.21939865 2.7157843e-07 1.0199511e-18)
(0.18479142 -6.9765534e-08 6.142052e-19)
(0.29299503 3.0544007e-06 -3.7930367e-20)
(0.29092993 6.9760892e-06 6.9355181e-19)
(0.28675173 8.4695347e-06 -5.7713638e-19)
(0.28087961 8.0204775e-06 7.1489987e-19)
(0.2734635 6.2097388e-06 2.1746429e-18)
(0.26441701 3.9218076e-06 2.4755969e-18)
(0.25332108 1.8532775e-06 1.9745254e-18)
(0.23915392 4.2822124e-07 1.3169625e-18)
(0.21941123 -2.1416536e-07 8.1595059e-19)
(0.18478765 -2.2852033e-07 5.7439887e-19)
(0.29287808 2.3182047e-06 1.117988e-18)
(0.29083906 5.2792662e-06 9.9308225e-19)
(0.28670331 6.2658301e-06 3.2255513e-18)
(0.28087167 5.6856552e-06 1.8536625e-18)
(0.27348375 4.0699734e-06 1.2481722e-18)
(0.26445004 2.179026e-06 2.0019798e-18)
(0.25335275 5.9894476e-07 1.6891653e-18)
(0.23917355 -3.4365752e-07 1.1799694e-18)
(0.21941459 -6.0453027e-07 1.0506233e-18)
(0.18477676 -3.5404968e-07 7.1132703e-19)
(0.29279114 1.6771101e-06 1.1225137e-18)
(0.29077348 3.800092e-06 2.1152929e-18)
(0.28667211 4.3499067e-06 2.8459213e-18)
(0.28087237 3.6684732e-06 2.1435139e-18)
(0.27350525 2.2418967e-06 1.7470622e-18)
(0.26447879 7.1850136e-07 1.6790602e-18)
(0.2533766 -4.2732275e-07 1.5719063e-18)
(0.23918483 -9.6366711e-07 1.4327772e-18)
(0.21941033 -9.1329699e-07 1.1112615e-18)
(0.18476021 -4.5109532e-07 8.282602e-19)
(0.29273023 1.1247242e-06 1.9765501e-18)
(0.29072975 2.525056e-06 3.7806154e-18)
(0.2866556 2.705411e-06 2.9887031e-18)
(0.28088015 1.9525543e-06 3.2277912e-18)
(0.27352726 7.122417e-07 3.1548922e-18)
(0.26450319 -4.7860509e-07 1.7454887e-18)
(0.253394 -1.2534514e-06 1.6489964e-18)
(0.23918902 -1.451274e-06 1.5464254e-18)
(0.21939989 -1.1471596e-06 1.277213e-18)
(0.18473939 -5.2132787e-07 1.000348e-18)
(0.29269163 6.5446166e-07 2.0565138e-18)
(0.29070467 1.4400319e-06 3.3934845e-18)
(0.2866514 1.3157865e-06 3.16813e-18)
(0.28089348 5.2203978e-07 2.2276753e-18)
(0.27354904 -5.4148489e-07 2.5834211e-18)
(0.26452391 -1.4437745e-06 2.0663149e-18)
(0.25340577 -1.9038222e-06 1.8206665e-18)
(0.2391873 -1.8195172e-06 1.6179063e-18)
(0.21938462 -1.3131189e-06 1.3857809e-18)
(0.18471555 -5.6724605e-07 1.143656e-18)
(0.29267191 2.6019348e-07 1.7687745e-18)
(0.29069522 5.3196862e-07 9.8470562e-19)
(0.28665723 1.636994e-07 -3.6856867e-19)
(0.28091095 -6.4863713e-07 6.9507957e-19)
(0.27357051 -1.5529166e-06 1.9431812e-18)
(0.26454118 -2.2047157e-06 1.8543561e-18)
(0.25341264 -2.3963415e-06 1.8141797e-18)
(0.23918074 -2.0812207e-06 1.6628026e-18)
(0.21936572 -1.4195397e-06 1.1852006e-18)
(0.18468977 -5.9207866e-07 9.8753049e-19)
(0.29266787 -6.4589405e-08 1.2915407e-18)
(0.29069861 -2.1500984e-07 1.5813285e-18)
(0.28667109 -7.7603122e-07 2.5019453e-18)
(0.28093165 -1.5922921e-06 1.9405009e-18)
(0.27359126 -2.3506626e-06 8.5708526e-19)
(0.26455525 -2.7825907e-06 1.7345882e-18)
(0.25341533 -2.7485439e-06 1.6149813e-18)
(0.23917035 -2.2500801e-06 1.5129462e-18)
(0.21934425 -1.4752007e-06 1.4540257e-18)
(0.18466299 -5.9922815e-07 1.0151504e-18)
(0.29267664 -3.2791282e-07 -1.1264604e-19)
(0.2907124 -8.2014286e-07 8.3074783e-19)
(0.28669132 -1.529887e-06 2.2322409e-18)
(0.28095458 -2.3343761e-06 2.0570429e-18)
(0.27361098 -2.9569089e-06 1.3354131e-18)
(0.26456636 -3.1980913e-06 1.7902486e-18)
(0.2534145 -2.9785243e-06 1.5622018e-18)
(0.23915703 -2.3397423e-06 1.4714313e-18)
(0.21932115 -1.4885305e-06 1.5082129e-18)
(0.18463597 -5.9192274e-07 1.1497743e-18)
(0.29269573 -5.3720249e-07 1.1368346e-18)
(0.29073445 -1.2999181e-06 1.3076498e-18)
(0.28671638 -2.1180521e-06 1.6596906e-18)
(0.28097886 -2.8964384e-06 1.6133918e-18)
(0.27362942 -3.3936951e-06 1.4488878e-18)
(0.26457479 -3.4721157e-06 1.5421442e-18)
(0.25341079 -3.1040057e-06 1.6579269e-18)
(0.23914159 -2.3631834e-06 1.5934683e-18)
(0.2192972 -1.4673773e-06 1.5100953e-18)
(0.18460934 -5.7314729e-07 1.240761e-18)
(0.2927229 -6.9838883e-07 1.7413192e-18)
(0.29076286 -1.6680835e-06 2.1376275e-18)
(0.2867449 -2.5589254e-06 2.5015587e-18)
(0.28100374 -3.2995913e-06 1.1985554e-18)
(0.27364642 -3.6827424e-06 7.0984471e-19)
(0.26458082 -3.6248213e-06 1.2473243e-18)
(0.25340478 -3.1417051e-06 1.6633655e-18)
(0.23912472 -2.3323867e-06 1.6193219e-18)
(0.21927308 -1.4188296e-06 1.4856533e-18)
(0.18458361 -5.4554545e-07 1.2796958e-18)
(0.29275617 -8.1710491e-07 3.1777164e-18)
(0.29079593 -1.9376918e-06 3.6576561e-18)
(0.28677568 -2.8702905e-06 4.06748e-18)
(0.2810286 -3.5643127e-06 2.1486093e-18)
(0.27366186 -3.8448798e-06 2.1790087e-18)
(0.26458474 -3.6752329e-06 1.261681e-18)
(0.253397 -3.1071271e-06 1.6362078e-18)
(0.23910703 -2.2582601e-06 1.4714882e-18)
(0.21924931 -1.3492221e-06 1.2149933e-18)
(0.18455915 -5.1144904e-07 1.1427054e-18)
(0.2927938 -8.9866561e-07 3.4494857e-18)
(0.29083216 -2.1211363e-06 3.7597536e-18)
(0.28680769 -3.0691286e-06 3.7822081e-18)
(0.28105291 -3.7100791e-06 2.0648526e-18)
(0.27367569 -3.8996974e-06 2.1349695e-18)
(0.26458684 -3.6409755e-06 2.2174136e-18)
(0.25338791 -3.0143819e-06 1.7465392e-18)
(0.23908904 -2.150533e-06 1.7032884e-18)
(0.21922633 -1.2640829e-06 1.6194985e-18)
(0.18453625 -4.7285057e-07 1.245009e-18)
(0.29283428 -9.4807717e-07 1.4039348e-18)
(0.29087028 -2.2301247e-06 1.254568e-18)
(0.28684007 -3.1714796e-06 -3.0163158e-19)
(0.28107628 -3.7551653e-06 1.6533715e-18)
(0.27368789 -3.8653662e-06 2.406431e-18)
(0.26458737 -3.5381521e-06 2.4920373e-18)
(0.25337794 -2.8761293e-06 1.8108213e-18)
(0.23907117 -2.0177628e-06 1.7253506e-18)
(0.21920447 -1.1681813e-06 1.6094678e-18)
(0.18451509 -4.3144606e-07 1.2606863e-18)
(0.2928763 -9.7002663e-07 1.4878037e-18)
(0.29090919 -2.2756266e-06 9.5123388e-19)
(0.28687209 -3.1923311e-06 1.1470091e-18)
(0.28109838 -3.7165157e-06 1.7056358e-18)
(0.2736985 -3.7585268e-06 1.7490996e-18)
(0.26458662 -3.3812728e-06 1.7044989e-18)
(0.25336744 -2.703563e-06 1.6791358e-18)
(0.23905377 -1.8673587e-06 1.5423218e-18)
(0.21918399 -1.0655561e-06 1.4219681e-18)
(0.1844958 -3.8864833e-07 1.1994288e-18)
(0.29291875 -9.6887516e-07 -6.9659152e-19)
(0.29094797 -2.267847e-06 5.0918472e-19)
(0.28690317 -3.1455616e-06 5.1015781e-19)
(0.28111899 -3.6096813e-06 9.0899581e-19)
(0.27370757 -3.5942551e-06 5.947501e-19)
(0.2645848 -3.1832693e-06 1.2045825e-18)
(0.25335673 -2.5064679e-06 1.6125541e-18)
(0.23903712 -1.7056558e-06 1.7009736e-18)
(0.21916506 -9.5957593e-07 1.5642168e-18)
(0.18447843 -3.456132e-07 1.2852806e-18)
(0.29296073 -9.4865794e-07 -7.2526995e-19)
(0.29098588 -2.2162147e-06 1.5907986e-18)
(0.28693285 -3.0439243e-06 2.7801212e-18)
(0.28113793 -3.448816e-06 1.9655747e-18)
(0.27371519 -3.3860914e-06 1.8458323e-18)
(0.26458216 -2.95557e-06 1.0134306e-18)
(0.25334606 -2.2933319e-06 1.3713444e-18)
(0.23902142 -1.5380382e-06 1.588157e-18)
(0.21914778 -8.5303316e-07 1.3963592e-18)
(0.18446299 -3.0327754e-07 1.2743093e-18)
(0.29300147 -9.1307458e-07 2.4505239e-18)
(0.2910223 -2.1293672e-06 3.3233242e-18)
(0.28696077 -2.8990287e-06 4.3618314e-18)
(0.28115513 -3.2466765e-06 3.0185944e-18)
(0.27372146 -3.1460767e-06 1.9563216e-18)
(0.26457888 -2.7081718e-06 2.0225712e-18)
(0.25333565 -2.0714412e-06 1.5940396e-18)
(0.23900683 -1.3690246e-06 1.5240766e-18)
(0.21913222 -7.4820308e-07 1.519959e-18)
(0.18444946 -2.6237888e-07 1.2967124e-18)
(0.29304037 -8.6549018e-07 2.8143597e-18)
(0.29105677 -2.0151483e-06 1.8398979e-18)
(0.28698667 -2.7213475e-06 1.3971516e-19)
(0.28117053 -3.0146453e-06 2.5995208e-18)
(0.27372649 -2.8848055e-06 2.4605304e-18)
(0.26457516 -2.4497296e-06 2.3757723e-18)
(0.25332565 -1.8469891e-06 1.917801e-18)
(0.23899344 -1.2023803e-06 1.6669444e-18)
(0.21911839 -6.4693657e-07 1.5247755e-18)
(0.18443776 -2.2349674e-07 1.3026575e-18)
(0.29307699 -8.0892132e-07 1.8009138e-18)
(0.29108893 -1.8805836e-06 1.1244552e-18)
(0.28701038 -2.5201897e-06 9.4449093e-19)
(0.28118414 -2.7627212e-06 1.9994081e-18)
(0.27373039 -2.611439e-06 1.8452923e-18)
(0.26457114 -2.1875873e-06 1.7018319e-18)
(0.25331621 -1.6251192e-06 1.7474849e-18)
(0.23898132 -1.0411535e-06 1.6795929e-18)
(0.21910626 -5.5068373e-07 1.5324736e-18)
(0.18442781 -1.870554e-07 1.2560522e-18)
(0.29311098 -7.4604572e-07 1.5025813e-18)
(0.29111855 -1.7318891e-06 2.3996901e-18)
(0.28703182 -2.3037108e-06 1.6227602e-18)
(0.281196 -2.4995364e-06 9.4501153e-19)
(0.27373329 -2.3337421e-06 4.1966685e-19)
(0.26456696 -1.9278335e-06 1.3125123e-18)
(0.25330741 -1.4099854e-06 1.5909571e-18)
(0.23897048 -8.8773772e-07 1.5034821e-18)
(0.21909576 -4.6055517e-07 1.5046565e-18)
(0.1844195 -1.5336514e-07 1.2539085e-18)
(0.29314213 -6.7918439e-07 1.5640355e-18)
(0.29114547 -1.5744499e-06 1.5795902e-18)
(0.28705095 -2.0789e-06 3.2192933e-18)
(0.28120619 -2.2323594e-06 1.5671051e-18)
(0.27373531 -2.0580928e-06 2.3901298e-18)
(0.26456274 -1.6753078e-06 1.2951181e-18)
(0.25329933 -1.2047504e-06 1.4652008e-18)
(0.23896092 -7.4385137e-07 1.4727838e-18)
(0.21908683 -3.7729145e-07 1.2643934e-18)
(0.18441268 -1.2260658e-07 1.1779486e-18)
(0.29317031 -6.1034562e-07 2.8168947e-19)
(0.29116963 -1.4128881e-06 1.4063327e-18)
(0.2870678 -1.8516608e-06 4.3815106e-18)
(0.28121479 -1.9671996e-06 2.9015758e-18)
(0.27373657 -1.7896148e-06 2.4362316e-18)
(0.26455857 -1.4337477e-06 2.0114481e-18)
(0.253292 -1.0117226e-06 1.6511639e-18)
(0.23895261 -6.1064762e-07 1.6400766e-18)
(0.21907935 -3.0133856e-07 1.5554533e-18)
(0.18440724 -9.4881547e-08 1.1537103e-18)
(0.29319546 -5.4121554e-07 -7.8173035e-19)
(0.29119102 -1.2510789e-06 2.079689e-18)
(0.28708241 -1.6268715e-06 -1.7837563e-19)
(0.28122191 -1.7089033e-06 2.0119448e-18)
(0.27373718 -1.5322916e-06 1.777426e-18)
(0.26455454 -1.2059003e-06 1.8251515e-18)
(0.25328545 -8.3244376e-07 1.77306e-18)
(0.23894549 -4.887574e-07 1.7570332e-18)
(0.21907323 -2.3283196e-07 1.6139615e-18)
(0.18440303 -7.0179124e-08 1.2417724e-18)
(0.29321762 -4.7322572e-07 1.1254626e-18)
(0.29120969 -1.0922791e-06 2.7743465e-18)
(0.2870949 -1.4085561e-06 7.4058184e-19)
(0.28122767 -1.4613702e-06 1.7678724e-18)
(0.27373724 -1.2892197e-06 1.9452416e-18)
(0.2645507 -9.9378809e-07 2.3674331e-18)
(0.25327965 -6.6793615e-07 2.204493e-18)
(0.23893949 -3.784946e-07 1.8818266e-18)
(0.21906834 -1.717479e-07 1.5955582e-18)
(0.18439993 -4.8453474e-08 1.3040235e-18)
(0.29323685 -4.0754456e-07 9.0666831e-19)
(0.29122575 -9.3914954e-07 1.4589999e-18)
(0.28710539 -1.1999596e-06 1.8248134e-18)
(0.2812322 -1.227669e-06 1.6386884e-18)
(0.27373685 -1.0627407e-06 1.4555433e-18)
(0.2645471 -7.9883942e-07 2.1886169e-18)
(0.25327461 -5.1881594e-07 2.1982233e-18)
(0.23893454 -2.7992528e-07 1.8171913e-18)
(0.21906457 -1.1790931e-07 1.6425356e-18)
(0.1843978 -2.9585637e-08 1.3686771e-18)
(0.29325328 -3.4512214e-07 2.1357557e-18)
(0.29123933 -7.9384262e-07 1.5151635e-18)
(0.287114 -1.0036614e-06 4.0276395e-18)
(0.28123562 -1.0101747e-06 2.13994e-18)
(0.2737361 -8.5459564e-07 2.6180836e-18)
(0.26454376 -6.2204065e-07 1.1964045e-18)
(0.25327029 -3.8542819e-07 1.7009812e-18)
(0.23893056 -1.9298894e-07 1.7655971e-18)
(0.2190618 -7.110094e-08 1.5367175e-18)
(0.18439652 -1.3440751e-08 1.3852032e-18)