/*--------------------------------*- C++ -*----------------------------------*\
| =========                 |                                                 |
| \\      /  F ield         | OpenFOAM: The Open Source CFD Toolbox           |
|  \\    /   O peration     | Version:  2506                                  |
|   \\  /    A nd           | Website:  www.openfoam.com                      |
|    \\/     M anipulation  |                                                 |
\*---------------------------------------------------------------------------*/
FoamFile
{
    version     2.0;
    format      ascii;
    arch        "LSB;label=32;scalar=64";
    class       volScalarField;
    location    "3000/water";
    object      alphat;
}
// * * * * * * * * * * * * * * * * * * * * * * * * * * * * * * * * * * * * * //

dimensions      [1 -1 -1 0 0 0 0];

internalField   nonuniform List<scalar> 
2600
(
0.040489031
0.04048893
0.040488932
0.040488969
0.04048893
0.040488424
0.040485257
0.04046703
0.040362559
0.039762099
0.036475623
0.024118064
0.014862723
0.039376404
0.039376463
0.039376584
0.03937667
0.03937627
0.039373342
0.039357935
0.03928206
0.038918252
0.037247647
0.030707814
0.017504579
0.016810247
0.03845331
0.038453299
0.038453385
0.038453188
0.038451259
0.038441479
0.038397507
0.038208927
0.037432867
0.034484227
0.025768479
0.01464355
0.017680736
0.037674097
0.037673994
0.037673876
0.037672833
0.03766736
0.037643826
0.037549741
0.037190974
0.035896577
0.031717985
0.022022178
0.013507107
0.017935556
0.037006829
0.037006634
0.03700605
0.037003229
0.036991211
0.03694503
0.036777672
0.036201229
0.034343725
0.029136321
0.019390213
0.01332192
0.01787019
0.036428097
0.036427705
0.036426239
0.036420305
0.036397905
0.036319194
0.03605724
0.035231095
0.03281421
0.026833154
0.017684561
0.01376901
0.017658004
0.035920433
0.035919673
0.03591673
0.035905979
0.035868817
0.035747845
0.035374204
0.034281783
0.031338745
0.024847734
0.016751764
0.014701365
0.017395975
0.035470606
0.03546924
0.035464057
0.035446499
0.035390052
0.035218253
0.034721129
0.033357857
0.029935921
0.02320089
0.016491475
0.016024754
0.017137191
0.035068412
0.03506614
0.035057811
0.035031314
0.034951338
0.034722033
0.034094772
0.032463227
0.028616047
0.021918168
0.016839593
0.01764423
0.016909598
0.034705855
0.034702323
0.034689851
0.034652315
0.034545228
0.034254009
0.03349406
0.031599319
0.027389013
0.021039007
0.017742707
0.01944683
0.016725717
0.034376582
0.0343714
0.034353768
0.03430331
0.034166516
0.033811296
0.032918607
0.030765036
0.026274288
0.020612421
0.019134169
0.021310298
0.0165878
0.034075484
0.034068256
0.034044512
0.033979658
0.033811775
0.033392551
0.032367695
0.029958513
0.025310237
0.020682514
0.02092045
0.023125093
0.01649134
0.03379842
0.033788771
0.033758129
0.033677993
0.033478994
0.032997353
0.031839672
0.029180919
0.024557973
0.021270679
0.022983308
0.024813262
0.016428198
0.033542011
0.033529635
0.033491576
0.033396025
0.033167279
0.032625685
0.031331905
0.02844226
0.024095308
0.02236241
0.02519592
0.026333969
0.016389375
0.033303501
0.033288203
0.033242589
0.033132389
0.0328766
0.032277488
0.030841496
0.027768047
0.024001078
0.023903802
0.027443847
0.027676786
0.016366908
0.033080659
0.033062404
0.03300959
0.032886524
0.032607559
0.031952311
0.030367144
0.027204004
0.02433601
0.025808536
0.029640409
0.028850257
0.01635471
0.032871707
0.032850677
0.032791627
0.032658586
0.032361164
0.031649138
0.029912405
0.026815112
0.025128026
0.027972561
0.031731261
0.029871995
0.016348606
0.032675278
0.032651931
0.032588332
0.032449362
0.032138606
0.031366538
0.029490156
0.026676983
0.02636662
0.030291378
0.033689748
0.030762439
0.016345973
0.032490392
0.032465523
0.0323999
0.032260198
0.031941021
0.031103392
0.02912715
0.026861559
0.028006318
0.032674378
0.035508202
0.031541613
0.016345289
0.03231644
0.032291251
0.032227075
0.032092906
0.0317693
0.030860474
0.028866522
0.027422392
0.02997661
0.035052625
0.037189756
0.032227633
0.016345749
0.032153193
0.032129365
0.032071151
0.03194966
0.031623986
0.030643052
0.028765901
0.028384666
0.032194873
0.037379728
0.038742713
0.032836119
0.016346971
0.032000817
0.031980587
0.031933965
0.031832869
0.031505423
0.030464306
0.028890209
0.029742268
0.034578895
0.039628039
0.040177388
0.03338011
0.016348812
0.031859898
0.031846136
0.031817892
0.031745018
0.031414332
0.030348688
0.029300795
0.031461309
0.037056243
0.041783221
0.041504536
0.033870256
0.016351246
0.031731488
0.031727775
0.031725824
0.031688525
0.031353059
0.030333689
0.030044463
0.033487924
0.03956915
0.043839374
0.042734578
0.034315152
0.016354289
0.031617156
0.031627852
0.031661123
0.031665646
0.031327616
0.030468391
0.031145811
0.035757861
0.042075206
0.045795593
0.043877212
0.034721702
0.016357969
0.031519059
0.031549348
0.031627545
0.031678558
0.031350386
0.030808116
0.032604583
0.038205562
0.044545297
0.047653852
0.044941233
0.035095454
0.016362308
0.03144002
0.031495925
0.031629136
0.031729781
0.031442847
0.031406233
0.034397782
0.040771061
0.046960464
0.049417769
0.045934484
0.035440885
0.01636731
0.031383622
0.031471952
0.031670108
0.031823119
0.03163718
0.032305488
0.03648515
0.043403916
0.049308923
0.051091864
0.046863895
0.035761637
0.016372969
0.03135431
0.031482519
0.031754745
0.031965285
0.031975485
0.033531428
0.038816233
0.04606436
0.051583768
0.052681065
0.047735561
0.036060692
0.016379266
0.031357497
0.031533412
0.031887427
0.032168112
0.032505946
0.035089409
0.041337344
0.04872249
0.053781403
0.054190403
0.048554836
0.036340517
0.016386174
0.03139966
0.031631057
0.032072922
0.032450916
0.033276475
0.036965351
0.043997168
0.051356522
0.055900493
0.055624809
0.04932644
0.036603249
0.016393659
0.031488427
0.031782429
0.032317111
0.0328421
0.034327511
0.039129415
0.046750331
0.0539509
0.057941207
0.056988872
0.050054079
0.036848496
0.016401672
0.031632621
0.031994974
0.032628309
0.033378945
0.035685989
0.0415413
0.049558966
0.056494684
0.059904719
0.058286905
0.050741228
0.037078062
0.016410157
0.031842264
0.032276621
0.033019163
0.034104841
0.03736193
0.044155836
0.052392715
0.058980326
0.061792816
0.059522758
0.051390027
0.037293993
0.01641906
0.03212853
0.032636022
0.033508773
0.035064182
0.039348112
0.046927807
0.05522786
0.061402783
0.063607643
0.060699937
0.052002677
0.037497696
0.016428334
0.03250367
0.033083205
0.034124298
0.036296102
0.041622405
0.04981536
0.058046136
0.063758862
0.065351546
0.061821638
0.05258258
0.037690193
0.016437945
0.032981002
0.033630797
0.034901061
0.037828735
0.044151818
0.052781871
0.060833586
0.06604668
0.067026701
0.0628895
0.053132468
0.03787253
0.016447871
0.033575095
0.034295806
0.035880368
0.039675452
0.046897158
0.055796506
0.0635796
0.068265332
0.068635568
0.063907354
0.053654302
0.038045473
0.016458088
0.03430237
0.035101608
0.037105072
0.041833724
0.049817349
0.058833935
0.066276154
0.070414393
0.070179108
0.064878397
0.054149994
0.038209783
0.016468569
0.035182281
0.036079359
0.038613768
0.044286509
0.052872739
0.061873599
0.068917176
0.072494025
0.071660188
0.065805209
0.054621164
0.038366085
0.016479288
0.036239048
0.037267818
0.040435163
0.047005442
0.05602718
0.064898918
0.071498027
0.07450382
0.073081482
0.066690099
0.055069326
0.038514917
0.016490218
0.037503425
0.038710799
0.042584055
0.049954872
0.059248944
0.067896468
0.074015185
0.076444643
0.074445477
0.067535119
0.055495819
0.038656742
0.016501334
0.039013511
0.040452281
0.045059731
0.053095843
0.062510854
0.07085534
0.076465328
0.078317614
0.075754306
0.068342168
0.055901827
0.038791953
0.01651261
0.040813318
0.042530175
0.047846824
0.056389311
0.065789817
0.073766513
0.078846469
0.080124255
0.077009869
0.06911294
0.056288385
0.038920882
0.016524019
0.04294833
0.044970337
0.050918068
0.05979839
0.069066329
0.076621973
0.08115692
0.081865796
0.078213926
0.069848943
0.056656395
0.039043805
0.016535536
0.045458387
0.047782302
0.054237955
0.063289395
0.072323494
0.079415209
0.083396344
0.083543328
0.07936802
0.070551491
0.057006629
0.039160949
0.016547136
0.048369498
0.050957568
0.057766464
0.066832241
0.075546556
0.082140743
0.085564133
0.085157807
0.080473484
0.071221708
0.057339735
0.039272496
0.016558794
0.051686919
0.054470411
0.061462111
0.070399921
0.078721988
0.084794908
0.087659692
0.086709988
0.081531428
0.071860532
0.057656247
0.039378584
0.016570485
0.055391479
0.058280543
0.06528367
0.073967539
0.081839605
0.087374102
0.08968232
0.088200391
0.082542725
0.072468713
0.057956585
0.039479307
0.016582185
0.059440036
0.062336499
0.069190796
0.077514001
0.084890567
0.089874873
0.09163114
0.089629276
0.083507999
0.073046817
0.058241059
0.039574722
0.016593867
0.063769472
0.066579721
0.073146294
0.08102147
0.08786673
0.092293801
0.093505043
0.090996616
0.084427621
0.073595222
0.05850987
0.039664844
0.016605507
0.068304159
0.070949128
0.077116119
0.08447371
0.090760481
0.09462743
0.09530267
0.092302089
0.085301704
0.074114118
0.058763112
0.039749649
0.016617075
0.072963954
0.075384337
0.081068526
0.087855777
0.093564621
0.096872247
0.09702241
0.093545085
0.08613011
0.074603516
0.059000773
0.039829074
0.016628545
0.077671209
0.079828353
0.084974036
0.09115382
0.096272325
0.099024707
0.098662433
0.09472473
0.086912466
0.075063254
0.059222743
0.039903019
0.016639885
0.082355839
0.084229572
0.088805529
0.094354998
0.098877156
0.1010813
0.10022076
0.095839938
0.087648196
0.075493014
0.059428821
0.039971352
0.016651062
0.086958198
0.088543074
0.092538481
0.097447493
0.10137312
0.10303863
0.10169536
0.096889477
0.088336565
0.075892355
0.059618731
0.040033911
0.016662042
0.091430075
0.092731259
0.096151239
0.10042061
0.10375478
0.10489358
0.10308425
0.09787206
0.088976745
0.076260746
0.05979214
0.040090515
0.016672786
0.095734354
0.096763925
0.099625271
0.10326491
0.10601733
0.10664339
0.10438564
0.098786449
0.089567882
0.076597617
0.059948687
0.040140974
0.016683256
0.099843891
0.1006179
0.10294532
0.10597236
0.10815676
0.10828578
0.10559801
0.099631558
0.090109185
0.076902407
0.06008801
0.0401851
0.016693412
0.10374006
0.10427638
0.10609944
0.10853646
0.11016992
0.10981911
0.10672028
0.10040656
0.090600002
0.077174631
0.060209784
0.040222722
0.016703211
0.10741121
0.10772814
0.10907888
0.1109523
0.1120546
0.11124238
0.10775188
0.10111097
0.091039901
0.077413928
0.060313753
0.040253703
0.016712613
0.11085131
0.11096668
0.11187788
0.1132166
0.1138096
0.11255534
0.10869277
0.10174472
0.091428736
0.077620121
0.060399762
0.04027795
0.016721578
0.11405869
0.11398935
0.11449339
0.11532765
0.11543468
0.11375849
0.10954353
0.10230822
0.091766703
0.077793253
0.060467789
0.040295432
0.01673007
0.11703505
0.11679669
0.11692475
0.11728524
0.1169306
0.11485305
0.11030537
0.10280237
0.092054367
0.077933628
0.060517967
0.040306183
0.016738054
0.11978467
0.11939168
0.11917332
0.11909055
0.11829905
0.11584097
0.11098008
0.10322857
0.092292688
0.078041826
0.060550597
0.040310318
0.016745503
0.1223137
0.12177926
0.1212422
0.12074596
0.11954254
0.11672487
0.11157002
0.1035887
0.092483012
0.078118709
0.060566158
0.040308028
0.016752393
0.1246297
0.12396582
0.12313584
0.12225493
0.12066436
0.11750794
0.11207805
0.1038851
0.092627058
0.07816542
0.060565303
0.040299584
0.016758707
0.12674124
0.12595884
0.12485984
0.12362183
0.12166847
0.1181939
0.11250751
0.1041205
0.092726884
0.078183357
0.060548853
0.040285329
0.016764436
0.12865756
0.12776661
0.12642065
0.12485175
0.12255936
0.11878691
0.11286208
0.10429797
0.092784844
0.078174153
0.060517777
0.040265675
0.016769576
0.13038834
0.12939794
0.12782538
0.1259504
0.123342
0.11929148
0.11314579
0.10442087
0.092803544
0.078139634
0.06047317
0.040241087
0.01677413
0.13194352
0.13086197
0.12908158
0.12692391
0.1240217
0.1197124
0.11336287
0.10449278
0.092785781
0.078081783
0.060416229
0.040212073
0.016778109
0.13333312
0.13216805
0.13019711
0.12777875
0.12460405
0.12005465
0.11351774
0.10451742
0.092734495
0.078002699
0.060348224
0.040179171
0.016781528
0.13456716
0.13332554
0.13118001
0.1285216
0.12509477
0.12032334
0.1136149
0.10449862
0.09265271
0.077904549
0.06027047
0.040142934
0.016784406
0.13565553
0.13434379
0.13203836
0.12915924
0.1254997
0.12052362
0.11365889
0.10444022
0.092543489
0.077789534
0.060184299
0.040103917
0.01678677
0.13660792
0.13523197
0.13278022
0.12969848
0.1258247
0.12066064
0.11365423
0.10434606
0.092409885
0.07765985
0.060091034
0.040062669
0.016788647
0.13743379
0.13599907
0.13341355
0.13014611
0.12607559
0.12073951
0.11360539
0.10421993
0.092254905
0.077517654
0.059991974
0.04001972
0.016790068
0.1381423
0.13665383
0.13394611
0.13050878
0.1262581
0.12076523
0.11351674
0.1040655
0.092081477
0.077365043
0.059888366
0.039975573
0.016791065
0.13874227
0.1372047
0.13438549
0.13079301
0.12637785
0.1207427
0.1133925
0.10388635
0.091892422
0.077204023
0.059781397
0.0399307
0.016791671
0.1392422
0.1376598
0.134739
0.13100515
0.12644027
0.12067663
0.11323677
0.1036859
0.091690431
0.077036498
0.059672182
0.039885536
0.016791922
0.1396502
0.13802693
0.13501371
0.13115131
0.12645065
0.12057157
0.11305344
0.1034674
0.091478051
0.076864257
0.059561753
0.039840477
0.016791851
0.13997402
0.13831354
0.13521636
0.13123738
0.12641402
0.12043189
0.11284624
0.10323392
0.091257673
0.076688958
0.059451055
0.039795878
0.01679149
0.14022101
0.1385267
0.1353534
0.131269
0.12633525
0.12026171
0.11261869
0.10298837
0.091031521
0.076512128
0.059340943
0.039752052
0.016790874
0.14039815
0.13867313
0.13543098
0.13125153
0.12621893
0.12006499
0.11237409
0.10273343
0.090801647
0.076335155
0.05923218
0.03970927
0.016790033
0.14051205
0.1387592
0.13545491
0.13119007
0.12606944
0.11984543
0.11211556
0.10247161
0.09056993
0.076159292
0.059125439
0.039667764
0.016788996
0.1405689
0.13879089
0.13543068
0.13108944
0.12589089
0.11960651
0.11184597
0.1022052
0.090338076
0.075985653
0.059021302
0.039627724
0.016787793
0.14057455
0.13877384
0.13536346
0.13095418
0.12568718
0.11935148
0.11156801
0.10193632
0.090107614
0.075815202
0.058920218
0.039589093
0.016786448
0.14053447
0.13871335
0.13525812
0.13078856
0.12546193
0.11908339
0.11128413
0.10166686
0.089879898
0.075648766
0.058822543
0.039551823
0.016784983
0.14045379
0.13861435
0.13511919
0.13059657
0.12521854
0.11880504
0.11099658
0.10139854
0.089656099
0.07548698
0.0587283
0.039516205
0.016783416
0.14033727
0.13848145
0.13495093
0.13038195
0.12496016
0.11851901
0.11070742
0.10113288
0.089437242
0.075330425
0.058637828
0.039482362
0.016781768
0.14018936
0.13831897
0.13475729
0.13014815
0.12468971
0.11822768
0.11041848
0.1008712
0.089224114
0.075179224
0.058551558
0.039450386
0.016780059
0.1400142
0.13813088
0.13454195
0.12989839
0.12440988
0.11793321
0.1101314
0.10061463
0.089017345
0.075034068
0.058469636
0.039420325
0.016778308
0.13981559
0.13792088
0.1343083
0.12963565
0.12412314
0.11763756
0.10984765
0.10036417
0.088817474
0.074895416
0.058392185
0.039392213
0.016776531
0.1395971
0.13769241
0.13405949
0.12936266
0.12383177
0.11734249
0.10956847
0.10012044
0.0886253
0.074763513
0.058319286
0.039366059
0.016774745
0.13936198
0.13744861
0.13379842
0.12908193
0.12353779
0.11704954
0.10929488
0.099884416
0.088441287
0.074638537
0.058250975
0.039341856
0.016772962
0.13911324
0.1371924
0.13352775
0.12879577
0.12324306
0.11676007
0.10902787
0.099656872
0.088265783
0.074520603
0.05818725
0.039319576
0.016771194
0.13885364
0.13692642
0.13324991
0.12850622
0.12294919
0.11647524
0.10876855
0.099438362
0.088099041
0.074409769
0.058128077
0.039299179
0.016769451
0.13858571
0.13665312
0.13296709
0.12821512
0.12265757
0.11619636
0.10851769
0.099229327
0.087941235
0.074306039
0.058073391
0.039280615
0.016767743
0.13831171
0.13637465
0.13268121
0.12792411
0.12236975
0.1159245
0.10827596
0.099030103
0.087792462
0.074209366
0.058023099
0.039263822
0.016766076
0.13803368
0.13609296
0.1323941
0.12763485
0.12208699
0.11566056
0.10804391
0.098840933
0.087652749
0.074119663
0.057977088
0.03924873
0.016764458
0.13775347
0.13580988
0.13210746
0.1273488
0.12181042
0.11540529
0.10782196
0.098661971
0.087522064
0.0740368
0.057935224
0.039235267
0.016762894
0.13747281
0.13552708
0.13182284
0.12706726
0.12154103
0.11515933
0.10761044
0.098493293
0.087400317
0.073960615
0.057897357
0.039223351
0.016761387
0.13719325
0.13524608
0.1315416
0.12679136
0.12127963
0.11492319
0.10740957
0.098334901
0.08728737
0.073890918
0.057863323
0.039212901
0.016759942
0.13691621
0.13496824
0.13126498
0.1265221
0.12102695
0.1146973
0.10721949
0.098186736
0.087183042
0.073827494
0.057832951
0.039203833
0.01675856
0.13664296
0.13469478
0.13099407
0.12626035
0.12078357
0.11448195
0.10704028
0.098048682
0.087087117
0.073770109
0.057806061
0.039196063
0.016757244
0.13637463
0.13442678
0.13072979
0.12600684
0.12054997
0.11427738
0.10687192
0.097920574
0.086999346
0.073718514
0.057782471
0.039189505
0.016755995
0.13611222
0.13416519
0.13047299
0.1257622
0.12032655
0.11408371
0.10671436
0.097802204
0.086919459
0.073672452
0.057761995
0.039184079
0.016754813
0.1358566
0.13391084
0.13022437
0.12552695
0.12011359
0.11390103
0.10656747
0.097693328
0.086847164
0.073631656
0.057744449
0.039179703
0.016753699
0.13560854
0.13366444
0.12998453
0.12530152
0.11991131
0.11372933
0.10643109
0.097593674
0.086782154
0.073595856
0.05772965
0.039176299
0.016752652
0.1353687
0.1334266
0.12975397
0.12508624
0.11971985
0.11356856
0.106305
0.097502942
0.086724111
0.073564779
0.057717416
0.039173791
0.016751672
0.13513762
0.13319784
0.12953311
0.12488137
0.11953927
0.11341861
0.10618897
0.09742081
0.086672707
0.073538152
0.057707571
0.039172107
0.016750758
0.13491577
0.13297856
0.12932226
0.12468708
0.11936958
0.11327931
0.1060827
0.097346939
0.086627608
0.073515703
0.057699942
0.039171175
0.016749909
0.13470352
0.13276911
0.12912166
0.12450348
0.11921071
0.11315047
0.1059859
0.097280975
0.086588476
0.073497162
0.057694358
0.03917093
0.016749124
0.13450114
0.13256974
0.12893149
0.1243306
0.11906257
0.11303185
0.10589823
0.097222552
0.08655497
0.073482264
0.057690656
0.039171305
0.016748401
0.13430886
0.13238062
0.12875184
0.12416842
0.11892499
0.11292316
0.10581933
0.097171294
0.08652675
0.073470746
0.057688676
0.039172238
0.016747738
0.13412681
0.13220185
0.12858273
0.12401686
0.11879778
0.1128241
0.10574885
0.097126821
0.086503475
0.073462351
0.057688264
0.03917367
0.016747133
0.13395504
0.13203347
0.12842414
0.12387578
0.11868068
0.11273434
0.10568638
0.097088746
0.086484809
0.073456828
0.05768927
0.039175544
0.016746585
0.13379357
0.13187546
0.12827598
0.12374502
0.11857341
0.11265351
0.10563153
0.097056683
0.086470421
0.073453935
0.057691552
0.039177807
0.01674609
0.13364233
0.13172773
0.12813812
0.12362434
0.11847568
0.11258124
0.1055839
0.097030247
0.086459986
0.073453435
0.057694974
0.039180407
0.016745648
0.13350123
0.13159017
0.12801036
0.12351349
0.11838715
0.11251715
0.10554309
0.097009057
0.086453189
0.073455102
0.057699406
0.039183297
0.016745254
0.13337011
0.13146259
0.12789249
0.12341218
0.11830745
0.11246083
0.10550868
0.096992738
0.086449721
0.07345872
0.057704725
0.039186433
0.016744907
0.13324877
0.13134478
0.12778426
0.1233201
0.11823622
0.11241186
0.10548027
0.096980923
0.086449286
0.073464081
0.057710817
0.039189772
0.016744604
0.133137
0.1312365
0.12768537
0.12323691
0.11817307
0.11236986
0.10545746
0.096973253
0.086451598
0.073470989
0.057717572
0.039193276
0.016744343
0.13303452
0.13113748
0.12759552
0.12316225
0.11811762
0.11233439
0.10543985
0.096969382
0.086456386
0.073479257
0.057724889
0.03919691
0.01674412
0.13294105
0.1310474
0.12751438
0.12309575
0.11806944
0.11230506
0.10542705
0.096968976
0.086463389
0.073488711
0.057732674
0.039200641
0.016743935
0.13285628
0.13096596
0.12744159
0.12303704
0.11802815
0.11228145
0.10541869
0.096971712
0.086472359
0.073499186
0.057740839
0.03920444
0.016743784
0.1327799
0.1308928
0.12737681
0.12298572
0.11799334
0.11226318
0.1054144
0.096977282
0.086483062
0.073510528
0.057749303
0.039208279
0.016743665
0.13271155
0.13082759
0.12731965
0.12294141
0.11796461
0.11224985
0.10541383
0.09698539
0.086495277
0.073522592
0.057757992
0.039212134
0.016743575
0.13265088
0.13076997
0.12726974
0.1229037
0.11794155
0.11224107
0.10541664
0.096995756
0.086508795
0.073535245
0.057766837
0.039215982
0.016743513
0.13259754
0.13071955
0.1272267
0.12287221
0.11792379
0.11223648
0.10542249
0.097008112
0.086523419
0.073548362
0.057775774
0.039219804
0.016743476
0.13255115
0.13067597
0.12719013
0.12284654
0.11791091
0.11223571
0.10543108
0.097022203
0.086538964
0.073561826
0.057784746
0.03922358
0.016743463
0.13251134
0.13063884
0.12715966
0.1228263
0.11790256
0.11223842
0.1054421
0.097037787
0.086555257
0.073575529
0.0577937
0.039227294
0.01674347
0.13247773
0.13060778
0.12713489
0.1228111
0.11789835
0.11224426
0.10545525
0.097054635
0.086572134
0.073589371
0.057802585
0.03923093
0.016743497
0.13244994
0.13058241
0.12711543
0.12280056
0.11789792
0.11225291
0.10547026
0.097072531
0.086589443
0.073603258
0.057811357
0.039234475
0.016743541
0.13242758
0.13056236
0.12710091
0.12279431
0.11790093
0.11226405
0.10548688
0.097091273
0.086607042
0.073617105
0.057819974
0.039237916
0.0167436
0.1324103
0.13054723
0.12709095
0.12279198
0.11790703
0.11227739
0.10550484
0.097110671
0.086624801
0.073630834
0.057828401
0.039241241
0.016743673
0.13239773
0.13053667
0.12708519
0.12279323
0.1179159
0.11229263
0.10552393
0.097130553
0.086642603
0.073644377
0.057836606
0.039244442
0.016743757
0.1323895
0.13053033
0.12708327
0.12279772
0.11792723
0.11230953
0.10554393
0.097150759
0.086660342
0.073657675
0.057844563
0.039247513
0.016743852
0.13238528
0.13052785
0.12708487
0.12280513
0.11794074
0.11232783
0.10556464
0.097171149
0.086677926
0.073670676
0.057852248
0.039250435
0.016743954
0.13238473
0.13052892
0.12708966
0.12281516
0.11795616
0.11234731
0.1055859
0.097191596
0.086695276
0.073683338
0.057859644
0.039253191
0.016744064
0.13238753
0.13053321
0.12709733
0.12282752
0.11797323
0.11236776
0.10560753
0.097211988
0.086712321
0.073695621
0.057866719
0.039255795
0.016744179
0.13239339
0.13054041
0.12710759
0.12284194
0.11799173
0.11238899
0.10562939
0.097232225
0.086728999
0.073707494
0.057873463
0.039258253
0.016744299
0.13240199
0.13055025
0.12712016
0.12285817
0.11801141
0.11241081
0.10565135
0.097252212
0.086745252
0.073718911
0.057879889
0.03926057
0.016744422
0.13241306
0.13056242
0.12713477
0.12287596
0.11803209
0.11243306
0.10567327
0.097271864
0.086761029
0.07372986
0.057885993
0.039262746
0.016744549
0.1324263
0.13057666
0.12715114
0.12289506
0.11805354
0.11245557
0.10569505
0.097291095
0.08677626
0.073740336
0.057891772
0.039264787
0.016744677
0.13244145
0.13059269
0.12716903
0.12291524
0.11807557
0.11247818
0.10571655
0.097309819
0.086790925
0.073750322
0.057897224
0.039266694
0.016744807
0.13245823
0.13061024
0.12718818
0.12293629
0.118098
0.11250075
0.10573768
0.097327963
0.086804992
0.073759802
0.057902345
0.039268468
0.016744937
0.13247636
0.13062905
0.12720835
0.12295798
0.11812063
0.11252312
0.1057583
0.097345479
0.086818428
0.073768762
0.057907133
0.039270108
0.016745067
0.13249561
0.13064888
0.1272293
0.1229801
0.1181433
0.11254516
0.10577835
0.097362315
0.086831204
0.073777191
0.057911586
0.039271615
0.016745196
0.13251573
0.1306695
0.12725083
0.12300247
0.11816584
0.11256676
0.10579776
0.097378428
0.086843301
0.073785085
0.057915707
0.039272992
0.016745323
0.13253651
0.13069069
0.12727273
0.1230249
0.11818812
0.11258784
0.10581646
0.097393785
0.086854706
0.073792443
0.0579195
0.03927424
0.016745447
0.13255774
0.13071226
0.12729481
0.12304726
0.11821004
0.11260831
0.10583442
0.097408368
0.086865418
0.073799274
0.057922974
0.039275366
0.016745567
0.13257925
0.13073403
0.12731694
0.12306941
0.1182315
0.11262811
0.10585161
0.097422168
0.086875443
0.073805591
0.057926142
0.039276375
0.016745683
0.13260088
0.13075587
0.12733897
0.12309127
0.11825244
0.11264721
0.10586799
0.097435186
0.086884795
0.073811412
0.057929019
0.039277277
0.016745795
0.13262251
0.13077764
0.12736081
0.12311273
0.11827279
0.11266558
0.10588357
0.097447432
0.086893493
0.073816759
0.057931622
0.039278078
0.016745903
0.13264402
0.13079924
0.12738235
0.12313373
0.11829249
0.11268317
0.10589835
0.097458915
0.086901557
0.073821652
0.057933967
0.039278787
0.016746007
0.13266532
0.13082057
0.12740352
0.12315419
0.11831151
0.11269998
0.10591231
0.097469649
0.086909005
0.073826109
0.057936068
0.03927941
0.016746107
0.13268631
0.13084156
0.12742423
0.12317407
0.11832982
0.11271599
0.10592546
0.097479645
0.086915855
0.073830149
0.057937935
0.03927995
0.016746202
0.13270691
0.13086211
0.12744442
0.1231933
0.11834736
0.11273117
0.1059378
0.097488914
0.086922121
0.073833783
0.057939579
0.039280412
0.016746294
0.13272705
0.13088216
0.12746403
0.12321184
0.11836412
0.11274553
0.10594933
0.097497466
0.086927818
0.073837026
0.057941006
0.039280797
0.016746381
0.13274666
0.13090165
0.127483
0.12322965
0.11838008
0.11275905
0.10596007
0.097505319
0.086932964
0.073839893
0.057942226
0.039281107
0.016746463
0.13276569
0.13092052
0.12750129
0.1232467
0.11839521
0.11277174
0.10597001
0.097512491
0.08693758
0.073842399
0.057943251
0.039281349
0.01674654
0.13278407
0.13093873
0.12751885
0.12326296
0.11840952
0.1127836
0.1059792
0.097519011
0.086941693
0.073844569
0.057944094
0.039281527
0.016746612
0.13280178
0.13095623
0.12753567
0.12327843
0.118423
0.11279466
0.10598764
0.09752491
0.086945335
0.073846429
0.057944773
0.039281651
0.016746679
0.13281876
0.13097299
0.12755171
0.12329309
0.11843566
0.11280493
0.10599538
0.097530223
0.086948539
0.073848006
0.057945308
0.039281729
0.016746742
0.13283499
0.13098898
0.12756695
0.12330693
0.11844751
0.11281443
0.10600244
0.097534982
0.086951337
0.073849326
0.057945716
0.039281769
0.016746801
0.13285043
0.13100417
0.12758138
0.12331994
0.11845855
0.11282317
0.10600884
0.097539213
0.086953753
0.073850409
0.057946009
0.039281778
0.016746857
0.13286503
0.13101852
0.12759495
0.1233321
0.11846877
0.11283117
0.10601459
0.097542928
0.0869558
0.073851265
0.057946194
0.039281756
0.016746909
0.13287875
0.13103198
0.12760765
0.1233434
0.11847816
0.11283841
0.1060197
0.097546133
0.086957481
0.073851896
0.05794627
0.039281701
0.016746957
0.13289157
0.13104455
0.12761943
0.12335381
0.11848671
0.11284489
0.10602416
0.097548824
0.086958794
0.073852296
0.05794623
0.039281606
0.016747002
0.13290346
0.13105618
0.1276303
0.12336331
0.11849441
0.11285061
0.10602797
0.097550999
0.086959734
0.073852459
0.057946065
0.039281465
0.016747042
0.13291444
0.13106689
0.12764024
0.12337192
0.11850127
0.11285557
0.10603114
0.097552667
0.086960304
0.073852382
0.05794577
0.039281273
0.016747076
0.13292452
0.1310767
0.12764929
0.12337967
0.11850733
0.11285981
0.1060337
0.097553852
0.086960523
0.073852077
0.05794535
0.039281029
0.016747104
0.13293379
0.13108569
0.12765752
0.12338662
0.11851264
0.1128634
0.10603571
0.097554606
0.08696043
0.07385157
0.057944819
0.039280741
0.016747125
0.13294233
0.13109395
0.12766502
0.12339286
0.11851731
0.11286642
0.10603725
0.097555002
0.086960086
0.073850907
0.057944208
0.039280424
0.016747141
0.13295026
0.13110158
0.12767189
0.12339851
0.11852144
0.11286898
0.10603843
0.097555132
0.086959569
0.073850148
0.057943557
0.039280098
0.016747152
0.13295769
0.1311087
0.12767826
0.12340369
0.11852514
0.1128712
0.10603935
0.097555094
0.08695896
0.073849357
0.057942908
0.039279786
0.016747161
0.13296472
0.13111541
0.12768423
0.12340849
0.11852853
0.11287317
0.10604012
0.097554971
0.086958331
0.07384859
0.057942301
0.039279508
0.016747169
0.1329714
0.13112177
0.12768985
0.12341298
0.11853167
0.11287497
0.10604078
0.097554821
0.086957732
0.073847885
0.057941763
0.039279277
0.016747178
0.13297772
0.13112779
0.12769515
0.12341719
0.11853458
0.11287661
0.10604136
0.097554664
0.086957178
0.073847254
0.057941299
0.039279096
0.01674719
0.13298365
0.13113341
0.12770008
0.12342107
0.11853724
0.11287807
0.10604185
0.097554474
0.086956646
0.073846677
0.057940895
0.039278952
0.016747204
0.13298907
0.13113856
0.12770456
0.12342456
0.11853956
0.11287929
0.10604216
0.097554192
0.086956081
0.073846109
0.057940516
0.039278828
0.016747221
0.13299387
0.1311431
0.12770848
0.12342754
0.11854145
0.11288015
0.10604222
0.097553733
0.08695541
0.073845487
0.057940116
0.039278693
0.016747237
0.13299792
0.13114692
0.12771172
0.1234299
0.11854281
0.11288058
0.10604193
0.097553011
0.086954553
0.073844745
0.057939646
0.039278523
0.016747251
0.13300112
0.13114993
0.1277142
0.12343157
0.11854356
0.11288049
0.10604122
0.097551962
0.086953455
0.073843835
0.057939069
0.039278296
0.01674726
0.13300347
0.13115209
0.12771589
0.12343253
0.11854368
0.11287986
0.10604006
0.097550565
0.086952092
0.073842735
0.057938369
0.039278004
0.016747262
0.13300499
0.13115346
0.12771683
0.1234328
0.11854321
0.11287874
0.10603851
0.09754885
0.08695049
0.073841464
0.057937557
0.039277653
0.016747256
0.13300582
0.13115415
0.12771712
0.1234325
0.11854225
0.11287721
0.10603664
0.0975469
0.086948717
0.073840075
0.057936668
0.039277261
0.016747243
0.13300614
0.13115433
0.12771695
0.12343179
0.11854096
0.11287544
0.10603459
0.097544836
0.086946877
0.073838648
0.05793576
0.03927686
0.016747224
0.13300618
0.13115423
0.12771651
0.12343087
0.11853952
0.1128736
0.10603253
0.097542801
0.086945089
0.073837277
0.057934896
0.039276487
0.016747203
0.13300613
0.13115404
0.12771602
0.12342994
0.11853813
0.11287184
0.10603061
0.09754093
0.086943466
0.073836052
0.057934142
0.039276178
0.016747181
0.13300619
0.13115394
0.12771562
0.12342914
0.11853692
0.11287032
0.10602895
0.097539324
0.086942095
0.073835041
0.057933543
0.039275956
0.016747164
0.13300644
0.13115404
0.12771543
0.12342856
0.11853597
0.11286909
0.1060276
0.097538033
0.086941017
0.073834277
0.057933125
0.039275833
0.016747153
0.13300689
0.13115434
0.12771544
0.12342823
0.11853528
0.11286815
0.10602655
0.097537044
0.086940218
0.073833749
0.05793288
0.039275802
0.01674715
0.13300745
0.13115476
0.1277156
0.12342805
0.11853478
0.11286741
0.10602573
0.097536279
0.086939627
0.073833397
0.05793276
0.039275832
0.016747154
0.13300798
0.13115517
0.12771576
0.1234279
0.11853433
0.11286676
0.106025
0.097535613
0.08693913
0.073833123
0.057932691