/*--------------------------------*- C++ -*----------------------------------*\
| =========                 |                                                 |
| \\      /  F ield         | OpenFOAM: The Open Source CFD Toolbox           |
|  \\    /   O peration     | Version:  2506                                  |
|   \\  /    A nd           | Website:  www.openfoam.com                      |
|    \\/     M anipulation  |                                                 |
\*---------------------------------------------------------------------------*/
FoamFile
{
    version     2.0;
    format      ascii;
    arch        "LSB;label=32;scalar=64";
    class       volScalarField;
    location    "3000/water";
    object      epsilon;
}
// * * * * * * * * * * * * * * * * * * * * * * * * * * * * * * * * * * * * * //

dimensions      [0 2 -3 0 0 0 0];

internalField   nonuniform List<scalar> 
2600
(
8.8079773e-05
8.8079245e-05
8.8079271e-05
8.807949e-05
8.8079744e-05
8.8080245e-05
8.8082926e-05
8.8104349e-05
8.8272771e-05
8.9512908e-05
9.8428186e-05
0.00017145296
0.0010138716
6.7789348e-05
6.7791881e-05
6.7793339e-05
6.7794963e-05
6.7796901e-05
6.7799886e-05
6.7810178e-05
6.7875511e-05
6.8312468e-05
7.1039872e-05
8.7857083e-05
0.00021159534
0.0014669324
5.3500886e-05
5.3503148e-05
5.3504846e-05
5.3506859e-05
5.3509287e-05
5.3513643e-05
5.3532992e-05
5.3656306e-05
5.4399641e-05
5.8506995e-05
8.1500797e-05
0.00023956052
0.0017068244
4.3127504e-05
4.3128883e-05
4.3130503e-05
4.3132598e-05
4.3135149e-05
4.3140834e-05
4.3171684e-05
4.3362646e-05
4.4413342e-05
4.9710824e-05
7.7552644e-05
0.00025818579
0.0017816909
3.539909e-05
3.5400132e-05
3.5401605e-05
3.5403513e-05
3.5405834e-05
3.5412916e-05
3.5457613e-05
3.5722605e-05
3.7073304e-05
4.3450503e-05
7.5629285e-05
0.00027290618
0.0017622817
2.9510599e-05
2.9511446e-05
2.95127e-05
2.9514227e-05
2.9516143e-05
2.9525119e-05
2.9586798e-05
2.9933924e-05
3.159515e-05
3.9095388e-05
7.5939385e-05
0.00028837858
0.0017002497
2.4935213e-05
2.4935877e-05
2.4936847e-05
2.4937875e-05
2.4939416e-05
2.4951342e-05
2.503458e-05
2.5477125e-05
2.7489448e-05
3.6318413e-05
7.8818158e-05
0.0003073199
0.0016256765
2.1318423e-05
2.1318913e-05
2.1319549e-05
2.132003e-05
2.1321464e-05
2.1338095e-05
2.144948e-05
2.2008273e-05
2.4447975e-05
3.4968795e-05
8.4593389e-05
0.00033066897
0.0015541994
1.8415642e-05
1.8415958e-05
1.8416233e-05
1.8416208e-05
1.8418091e-05
1.8442025e-05
1.8590687e-05
1.9295945e-05
2.2279378e-05
3.5010665e-05
9.3512814e-05
0.00035786641
0.0014930959
1.6054297e-05
1.6054439e-05
1.6054351e-05
1.6053968e-05
1.6057197e-05
1.6092028e-05
1.6290179e-05
1.7183376e-05
2.0872546e-05
3.6486908e-05
0.00010564207
0.00038720676
0.0014449141
1.411016e-05
1.4110129e-05
1.4109712e-05
1.4109249e-05
1.4115119e-05
1.4165612e-05
1.4429188e-05
1.5565379e-05
2.0175367e-05
3.9486471e-05
0.00012074249
0.00041640751
0.0014094648
1.249217e-05
1.2491978e-05
1.249131e-05
1.24912e-05
1.2501471e-05
1.2573786e-05
1.2923263e-05
1.4374121e-05
2.0181311e-05
4.4103574e-05
0.00013819401
0.0004433175
0.0013850187
1.1132483e-05
1.1132152e-05
1.1131368e-05
1.1132227e-05
1.1149209e-05
1.1251189e-05
1.1712642e-05
1.3570321e-05
2.0918928e-05
5.0386672e-05
0.00015703479
0.00046647967
0.0013691707
9.9797899e-06
9.9793621e-06
9.9786681e-06
9.9813266e-06
1.0007987e-05
1.0149541e-05
1.0756002e-05
1.3137755e-05
2.2440689e-05
5.8285037e-05
0.00017613324
0.00048532286
0.0013594869
8.994766e-06
8.994305e-06
8.9939894e-06
8.9995396e-06
9.0396464e-06
9.2332357e-06
1.0026406e-05
1.3079617e-05
2.4808572e-05
6.7609618e-05
0.00019442665
0.00050000486
0.0013539038
8.1468971e-06
8.1464947e-06
8.1469469e-06
8.1567947e-06
8.2150975e-06
8.4763588e-06
9.5087285e-06
1.3415553e-05
2.807526e-05
7.8026841e-05
0.0002111215
0.00051110137
0.0013508788
7.4122408e-06
7.412023e-06
7.4137548e-06
7.4296903e-06
7.5121568e-06
7.8606834e-06
9.1980664e-06
1.4178291e-05
3.2262331e-05
8.9094588e-05
0.00022578146
0.00051932558
0.0013493668
6.7718206e-06
6.7719549e-06
6.7756276e-06
6.7999151e-06
6.9140283e-06
7.3743439e-06
9.0987625e-06
1.5408888e-05
3.7339829e-05
0.00010033156
0.00023829849
0.00052535583
0.0013487149
6.2104575e-06
6.2111621e-06
6.2176208e-06
6.2531142e-06
6.4082476e-06
7.0110033e-06
9.2236697e-06
1.7149875e-05
4.3213605e-05
0.00011129559
0.0002487951
0.00052976262
0.0013485457
5.7159095e-06
5.7174657e-06
5.7277834e-06
5.7780724e-06
5.9859581e-06
6.7693776e-06
9.5932706e-06
1.9436233e-05
4.9726067e-05
0.00012164394
0.00025751549
0.00053299526
0.0013486594
5.2782322e-06
5.2809984e-06
5.2965329e-06
5.3661281e-06
5.6414368e-06
6.6530083e-06
1.0234238e-05
2.228513e-05
5.6672016e-05
0.00013115952
0.00026474159
0.0005353945
0.0013489619
4.889296e-06
4.893728e-06
4.9161934e-06
5.0107595e-06
5.3718124e-06
6.6701645e-06
1.1177042e-05
2.5686553e-05
6.3825677e-05
0.00013974422
0.00027074337
0.00053721257
0.0013494179
4.5424222e-06
4.549097e-06
4.5806559e-06
4.707302e-06
5.1769356e-06
6.8337316e-06
1.2452335e-05
2.9597477e-05
7.0970789e-05
0.00014739148
0.0002757568
0.0005386328
0.0013500205
4.2321037e-06
4.2417515e-06
4.2851315e-06
4.4527719e-06
5.0593678e-06
7.1609028e-06
1.4086152e-05
3.394183e-05
7.7925113e-05
0.00015415333
0.00027997823
0.00053978641
0.0013507744
3.9537926e-06
3.9673375e-06
4.0259782e-06
4.2457763e-06
5.0244499e-06
7.6724686e-06
1.6094424e-05
3.8616919e-05
8.4553951e-05
0.00016011197
0.00028356674
0.00054076615
0.0013516866
3.7037376e-06
3.7223496e-06
3.8005873e-06
4.0864974e-06
5.0804009e-06
8.3914976e-06
1.8477844e-05
4.3504911e-05
9.077206e-05
0.00016536002
0.00028664926
0.00054163685
0.0013527623
3.4788613e-06
3.504022e-06
3.6073203e-06
3.9767408e-06
5.2383695e-06
9.3412707e-06
2.1218352e-05
4.8486363e-05
9.6537094e-05
0.00016998886
0.00028932618
0.00054244334
0.0013540034
3.2766694e-06
3.3102566e-06
3.4454921e-06
3.9200366e-06
5.512335e-06
1.0542478e-05
2.4278371e-05
5.3452376e-05
0.00010183911
0.00017408281
0.00029167656
0.00054321637
0.0013554084
3.0951868e-06
3.1395803e-06
3.315394e-06
3.9217755e-06
5.9187332e-06
1.2009945e-05
2.7603266e-05
5.8312862e-05
0.0001066899
0.00017771679
0.00029376257
0.00054397675
0.0013569728
2.9329181e-06
2.991133e-06
3.2183574e-06
3.9893517e-06
6.4756801e-06
1.3749403e-05
3.112658e-05
6.3000084e-05
0.00011111418
0.0001809559
0.00029563313
0.00054473837
0.0013586903
2.7888292e-06
2.8646819e-06
3.1568533e-06
4.132263e-06
7.2016968e-06
1.5755029e-05
3.4776808e-05
6.7468124e-05
0.00011514328
0.00018385585
0.00029732665
0.00054550992
0.0013605531
2.6623516e-06
2.7606642e-06
3.1346229e-06
4.3621021e-06
8.1139276e-06
1.8008404e-05
3.8484156e-05
7.1689805e-05
0.00011881108
0.00018646428
0.00029887505
0.00054629402
0.0013625491
2.5534088e-06
2.680258e-06
3.1568304e-06
4.6923497e-06
9.2259802e-06
2.0479255e-05
4.21859e-05
7.5652556e-05
0.00012215122
0.00018882083
0.00030030031
0.00054708344
0.001364665
2.4624667e-06
2.6254827e-06
3.2302147e-06
5.1378785e-06
1.0545685e-05
2.3127918e-05
4.5829653e-05
7.9354439e-05
0.00012519597
0.00019095973
0.00030162122
0.00054787013
0.0013668874
2.3906118e-06
2.5993266e-06
3.3632046e-06
5.7140892e-06
1.2073206e-05
2.5908985e-05
4.9374528e-05
8.2800768e-05
0.00012797522
0.0001929092
0.00030285018
0.00054865287
0.0013692048
2.3396576e-06
2.6059009e-06
3.5659451e-06
6.4356567e-06
1.3799941e-05
2.877532e-05
5.2790669e-05
8.6001443e-05
0.00013051585
0.0001946916
0.00030399376
0.00054944273
0.0013716092
2.3122834e-06
2.6506068e-06
3.8501619e-06
7.3149533e-06
1.5708513e-05
3.1681693e-05
5.6057927e-05
8.8969442e-05
0.00013284315
0.00019632773
0.00030505437
0.00055025018
0.0013740956
2.312204e-06
2.7402971e-06
4.2287857e-06
8.3603383e-06
1.7773921e-05
3.4587408e-05
5.9163895e-05
9.1718485e-05
0.000134977
0.0001978295
0.00030604752
0.00055107622
0.0013766577
2.3443665e-06
2.8833943e-06
4.7152661e-06
9.5746048e-06
1.996561e-05
3.7457895e-05
6.2102576e-05
9.4263947e-05
0.00013693775
0.00019920349
0.00030698675
0.00055192215
0.0013792894
2.4151613e-06
3.08991e-06
5.3225445e-06
1.0953905e-05
2.2249994e-05
4.0265061e-05
6.4872079e-05
9.6618924e-05
0.00013873802
0.00020046565
0.00030788006
0.00055278756
0.0013819844
2.5326205e-06
3.3712893e-06
6.0617311e-06
1.2487422e-05
2.4593018e-05
4.2987258e-05
6.7474462e-05
9.8797813e-05
0.00014038632
0.00020163083
0.00030873382
0.00055367121
0.0013847362
2.7065545e-06
3.7399971e-06
6.9406293e-06
1.4157864e-05
2.6962173e-05
4.560817e-05
6.9912765e-05
0.00010081055
0.00014189658
0.00020271014
0.00030955281
0.00055457138
0.0013875385
2.9485502e-06
4.2087763e-06
7.9623507e-06
1.5942735e-05
2.9328092e-05
4.8116705e-05
7.2192973e-05
0.00010266311
0.00014328329
0.00020371267
0.00031034059
0.00055548596
0.0013903847
3.2717207e-06
4.7895536e-06
9.1242825e-06
1.7815987e-05
3.1665001e-05
5.0504533e-05
7.431848e-05
0.00010436656
0.00014455809
0.0002046458
0.00031109971
0.0005564126
0.0013932687
3.6900858e-06
5.4920731e-06
1.0417684e-05
1.9750012e-05
3.3951699e-05
5.2768184e-05
7.6289669e-05
0.00010593299
0.00014573089
0.00020551555
0.00031183197
0.00055734878
0.0013961839
4.2174848e-06
6.3224281e-06
1.1827952e-05
2.171714e-05
3.6170246e-05
5.4901159e-05
7.8113757e-05
0.00010737249
0.00014680993
0.00020632674
0.00031253851
0.00055829181
0.0013991243
4.866026e-06
7.2817747e-06
1.3335593e-05
2.3691123e-05
3.8306688e-05
5.6898168e-05
7.9798304e-05
0.0001086939
0.00014780214
0.00020708321
0.00031321994
0.0005592389
0.0014020836
5.6442494e-06
8.3655566e-06
1.4917866e-05
2.564878e-05
4.0344257e-05
5.8760207e-05
8.1350099e-05
0.00010990478
0.00014871321
0.00020778792
0.00031387635
0.00056018712
0.0014050556
6.5553593e-06
9.5634599e-06
1.6550686e-05
2.7565321e-05
4.2272541e-05
6.0488808e-05
8.2775228e-05
0.00011101156
0.00014954783
0.00020844308
0.00031450744
0.0005611334
0.0014080338
7.5961535e-06
1.0860441e-05
1.8207369e-05
2.9419102e-05
4.4084529e-05
6.2085814e-05
8.4079033e-05
0.0001120196
0.00015030968
0.00020905022
0.00031511248
0.00056207453
0.0014110119
8.7563153e-06
1.2235551e-05
1.9861232e-05
3.1193216e-05
4.5774965e-05
6.355318e-05
8.5266112e-05
0.00011293328
0.00015100165
0.00020961023
0.00031569038
0.0005630071
0.0014139831
1.0017522e-05
1.3664335e-05
2.1488449e-05
3.2873859e-05
4.7340054e-05
6.4892868e-05
8.6340347e-05
0.00011375612
0.0001516258
0.00021012347
0.00031623966
0.00056392755
0.0014169405
1.1355901e-05
1.5121211e-05
2.3068172e-05
3.4450179e-05
4.8777289e-05
6.6106812e-05
8.7304985e-05
0.00011449085
0.00015218355
0.00021058975
0.00031675852
0.00056483204
0.0014198766
1.2744265e-05
1.6581081e-05
2.4582903e-05
3.5914124e-05
5.0085355e-05
6.7196971e-05
8.8162739e-05
0.00011513953
0.00015267569
0.00021100843
0.00031724483
0.00056571654
0.0014227834
1.4154481e-05
1.8020637e-05
2.6018604e-05
3.7260265e-05
5.1264092e-05
6.8165414e-05
8.8915933e-05
0.0001157037
0.00015310253
0.00021137849
0.00031769617
0.00056657677
0.0014256524
1.555958e-05
1.9419302e-05
2.7364607e-05
3.8485598e-05
5.231449e-05
6.901445e-05
8.9566666e-05
0.0001161845
0.00015346401
0.0002116986
0.0003181099
0.00056740824
0.0014284744
1.6935338e-05
2.0759786e-05
2.8613378e-05
3.9589303e-05
5.323867e-05
6.9746757e-05
9.0116988e-05
0.00011658289
0.00015375983
0.00021196724
0.00031848324
0.00056820634
0.0014312396
1.8261268e-05
2.2028325e-05
2.9760206e-05
4.0572478e-05
5.4039842e-05
7.0365496e-05
9.0569077e-05
0.00011689975
0.00015398961
0.00021218284
0.00031881337
0.00056896639
0.0014339377
1.9521047e-05
2.3214635e-05
3.0802835e-05
4.1437841e-05
5.4722227e-05
7.0874392e-05
9.0925391e-05
0.00011713613
0.00015415307
0.0002123439
0.00031909758
0.00056968378
0.0014365579
2.0702514e-05
2.4311687e-05
3.1741085e-05
4.2189435e-05
5.5290937e-05
7.1277772e-05
9.118879e-05
0.00011729336
0.00015425015
0.00021244916
0.0003193334
0.00057035409
0.0014390892
2.1797369e-05
2.5315353e-05
3.2576489e-05
4.2832332e-05
5.5751828e-05
7.1580558e-05
9.1362625e-05
0.00011737319
0.00015428119
0.00021249773
0.00031951873
0.0005709733
0.0014415208
2.2800692e-05
2.6223983e-05
3.3311941e-05
4.3372362e-05
5.6111337e-05
7.1788219e-05
9.1450777e-05
0.00011737786
0.00015424704
0.00021248927
0.00031965201
0.00057153789
0.0014438419
2.3710402e-05
2.7037977e-05
3.3951388e-05
4.3815874e-05
5.6376316e-05
7.1906692e-05
9.1457657e-05
0.00011731022
0.00015414911
0.00021242401
0.00031973234
0.000572045
0.0014460427
2.4526701e-05
2.775936e-05
3.4499555e-05
4.4169529e-05
5.655387e-05
7.1942284e-05
9.1388171e-05
0.00011717368
0.00015398952
0.00021230292
0.00031975955
0.00057249259
0.001448114
2.5251561e-05
2.8391403e-05
3.4961707e-05
4.4440131e-05
5.6651214e-05
7.190156e-05
9.1247657e-05
0.00011697222
0.000153771
0.00021212769
0.00031973429
0.00057287949
0.0014500482
2.5888277e-05
2.8938286e-05
3.5343456e-05
4.4634486e-05
5.6675546e-05
7.1791235e-05
9.1041804e-05
0.00011671034
0.00015349695
0.00021190077
0.00031965801
0.00057320546
0.0014518387
2.6441082e-05
2.9404816e-05
3.5650591e-05
4.4759303e-05
5.6633949e-05
7.1618068e-05
9.0776555e-05
0.00011639299
0.00015317136
0.00021162527
0.00031953296
0.00057347118
0.0014534809
2.6914834e-05
2.9796196e-05
3.5888957e-05
4.4821106e-05
5.6533305e-05
7.1388766e-05
9.0458013e-05
0.00011602548
0.00015279874
0.00021130498
0.00031936212
0.00057367826
0.001454972
2.7314769e-05
3.0117835e-05
3.6064344e-05
4.4826183e-05
5.6380235e-05
7.1109903e-05
9.0092341e-05
0.00011561335
0.00015238399
0.00021094419
0.00031914912
0.00057382907
0.0014563106
2.764631e-05
3.0375209e-05
3.6182414e-05
4.4780536e-05
5.6181058e-05
7.0787855e-05
8.9685675e-05
0.00011516232
0.00015193233
0.00021054763
0.0003188981
0.00057392673
0.0014574975
2.791491e-05
3.0573744e-05
3.6248642e-05
4.4689862e-05
5.5941752e-05
7.0428739e-05
8.9244044e-05
0.00011467815
0.00015144919
0.00021012033
0.0003186136
0.00057397493
0.001458535
2.8125954e-05
3.0718738e-05
3.6268273e-05
4.4559535e-05
5.5667945e-05
7.0038378e-05
8.8773295e-05
0.00011416656
0.00015094005
0.00020966749
0.00031830042
0.00057397776
0.0014594268
2.8284674e-05
3.0815301e-05
3.6246292e-05
4.4394594e-05
5.5364897e-05
6.9622264e-05
8.8279039e-05
0.00011363313
0.00015041037
0.00020919437
0.00031796348
0.00057393966
0.0014601781
2.8396093e-05
3.0868313e-05
3.6187413e-05
4.4199746e-05
5.5037504e-05
6.918554e-05
8.7766601e-05
0.00011308327
0.00014986551
0.00020870616
0.0003176077
0.00057386519
0.0014607952
2.8464993e-05
3.0882399e-05
3.6096061e-05
4.3979369e-05
5.4690294e-05
6.8732986e-05
8.7240985e-05
0.0001125221
0.00014931061
0.0002082079
0.0003172379
0.00057375898
0.0014612852
2.849589e-05
3.0861917e-05
3.5976375e-05
4.3737515e-05
5.432744e-05
6.8269018e-05
8.6706846e-05
0.00011195444
0.00014875054
0.0002077044
0.00031685869
0.00057362556
0.0014616562
2.8493024e-05
3.0810945e-05
3.5832204e-05
4.3477925e-05
5.3952766e-05
6.779768e-05
8.6168476e-05
0.00011138476
0.00014818984
0.00020720014
0.00031647442
0.00057346934
0.0014619166
2.8460354e-05
3.0733282e-05
3.5667119e-05
4.3204033e-05
5.3569761e-05
6.7322656e-05
8.5629793e-05
0.00011081716
0.0001476327
0.00020669926
0.00031608908
0.00057329449
0.001462075
2.8401558e-05
3.0632457e-05
3.5484413e-05
4.2918986e-05
5.3181589e-05
6.6847276e-05
8.5094341e-05
0.00011025537
0.00014708291
0.00020620549
0.00031570632
0.00057310491
0.0014621404
2.8320044e-05
3.0511727e-05
3.5287118e-05
4.262565e-05
5.2791109e-05
6.6374526e-05
8.4565292e-05
0.00010970271
0.00014654386
0.00020572218
0.00031532935
0.0005729042
0.0014621216
2.8218953e-05
3.0374094e-05
3.5078009e-05
4.2326627e-05
5.2400887e-05
6.5907065e-05
8.4045455e-05
0.00010916211
0.0001460185
0.00020525221
0.00031496101
0.0005726956
0.0014620274
2.8101173e-05
3.0222311e-05
3.485962e-05
4.202427e-05
5.2013212e-05
6.544724e-05
8.353729e-05
0.00010863613
0.00014550942
0.00020479808
0.00031460371
0.00057248205
0.0014618664
2.7969351e-05
3.0058896e-05
3.4634256e-05
4.1720695e-05
5.1630114e-05
6.4997102e-05
8.3042924e-05
0.00010812694
0.00014501877
0.00020436186
0.00031425948
0.00057226612
0.0014616467
2.7825902e-05
2.9886144e-05
3.4404002e-05
4.1417794e-05
5.1253377e-05
6.4558422e-05
8.2564165e-05
0.00010763639
0.00014454834
0.00020394522
0.00031392993
0.00057205004
0.0014613761
2.7673027e-05
2.9706136e-05
3.4170742e-05
4.111725e-05
5.0884559e-05
6.4132714e-05
8.2102527e-05
0.00010716596
0.00014409956
0.00020354947
0.00031361635
0.00057183569
0.0014610619
2.7512721e-05
2.952076e-05
3.3936163e-05
4.0820554e-05
5.0525004e-05
6.3721248e-05
8.1659244e-05
0.00010671685
0.00014367353
0.00020317559
0.00031331977
0.00057162445
0.0014607109
2.7346788e-05
2.9331712e-05
3.3701776e-05
4.0529011e-05
5.017586e-05
6.3325072e-05
8.1235296e-05
0.00010628995
0.00014327103
0.00020282423
0.00031304069
0.00057141638
0.0014603284
2.7176854e-05
2.9140519e-05
3.346892e-05
4.0243758e-05
4.9838092e-05
6.2945027e-05
8.083143e-05
0.00010588593
0.00014289262
0.00020249588
0.00031277953
0.00057120927
0.0014599197
2.700438e-05
2.8948543e-05
3.3238781e-05
3.9965777e-05
4.9512499e-05
6.2581767e-05
8.0448179e-05
0.00010550517
0.0001425385
0.00020219044
0.00031253535
0.0005710047
0.0014594897
2.683067e-05
2.8756997e-05
3.3012397e-05
3.9695903e-05
4.9199725e-05
6.223578e-05
8.0085898e-05
0.00010514794
0.00014220886
0.00020190801
0.00031230613
0.00057080574
0.0014590438
2.6656885e-05
2.8566954e-05
3.2790674e-05
3.943484e-05
4.890028e-05
6.1907402e-05
7.9744773e-05
0.00010481424
0.00014190344
0.00020164699
0.00031209277
0.00057061395
0.001458587
2.6484056e-05
2.8379359e-05
3.2574394e-05
3.918317e-05
4.8614543e-05
6.1596828e-05
7.942482e-05
0.00010450389
0.00014162171
0.00020140639
0.00031189576
0.00057043046
0.0014581237
2.6313089e-05
2.8195038e-05
3.2364225e-05
3.8941367e-05
4.8342789e-05
6.130415e-05
7.9125975e-05
0.00010421666
0.00014136221
0.00020118621
0.0003117152
0.00057025606
0.0014576578
2.6144779e-05
2.8014708e-05
3.2160734e-05
3.8709804e-05
4.808519e-05
6.1029343e-05
7.8847989e-05
0.00010395153
0.00014112445
0.00020098612
0.00031155094
0.00057009123
0.001457193
2.5979819e-05
2.7838987e-05
3.1964392e-05
3.8488766e-05
4.7841825e-05
6.0772277e-05
7.8590335e-05
0.00010370764
0.00014090797
0.00020080564
0.00031140262
0.00056993623
0.0014567323
2.5818805e-05
2.7668402e-05
3.1775586e-05
3.8278458e-05
4.7612707e-05
6.0532705e-05
7.8352154e-05
0.00010348449
0.00014071215
0.00020064412
0.00031126974
0.00056979116
0.0014562783
2.5662252e-05
2.75034e-05
3.1594634e-05
3.8079035e-05
4.7397758e-05
6.0309957e-05
7.813296e-05
0.00010328147
0.00014053627
0.00020050083
0.00031115171
0.00056965598
0.0014558334
2.55106e-05
2.7344362e-05
3.1421801e-05
3.7890536e-05
4.7196575e-05
6.0103643e-05
7.7932206e-05
0.00010309788
0.00014037956
0.00020037495
0.00031104784
0.00056953057
0.0014553995
2.5364229e-05
2.7191606e-05
3.1257215e-05
3.7712812e-05
4.70089e-05
5.9913328e-05
7.7749292e-05
0.00010293298
0.00014024113
0.00020026561
0.00031095741
0.00056941469
0.0014549782
2.5223417e-05
2.7045323e-05
3.1100918e-05
3.7545752e-05
4.6834441e-05
5.9738539e-05
7.7583572e-05
0.00010278598
0.00014012011
0.00020017187
0.00031087965
0.00056930809
0.0014545709
2.5088369e-05
2.6905648e-05
3.0952919e-05
3.7389207e-05
4.6672874e-05
5.9578768e-05
7.7434362e-05
0.00010265603
0.00014001555
0.00020009281
0.00031081377
0.00056921043
0.0014541787
2.4959232e-05
2.6772671e-05
3.0813193e-05
3.7242996e-05
4.6523841e-05
5.9433476e-05
7.7300949e-05
0.00010254229
0.0001399265
0.00020002746
0.00031075897
0.00056912136
0.0014538025
2.4836111e-05
2.664644e-05
3.0681677e-05
3.7106911e-05
4.638696e-05
5.9302099e-05
7.71826e-05
0.00010244386
0.000139852
0.00019997489
0.00031071447
0.00056904051
0.0014534429
2.4719072e-05
2.6526968e-05
3.055828e-05
3.6980712e-05
4.6261823e-05
5.9184052e-05
7.7078562e-05
0.00010235988
0.00013979109
0.00019993414
0.00031067948
0.0005689675
0.0014531004
2.4608142e-05
2.6414235e-05
3.0442877e-05
3.6864138e-05
4.6148004e-05
5.9078736e-05
7.6988074e-05
0.00010228945
0.00013974282
0.0001999043
0.00031065325
0.00056890194
0.0014527752
2.4503319e-05
2.630819e-05
3.0335323e-05
3.6756904e-05
4.6045056e-05
5.8985538e-05
7.691037e-05
0.00010223168
0.00013970625
0.00019988446
0.00031063504
0.00056884343
0.0014524677
2.4404572e-05
2.6208757e-05
3.0235445e-05
3.6658706e-05
4.5952521e-05
5.8903837e-05
7.6844684e-05
0.00010218571
0.00013968047
0.00019987376
0.00031062414
0.00056879159
0.0014521779
2.4311844e-05
2.6115835e-05
3.014305e-05
3.6569226e-05
4.586993e-05
5.8833011e-05
7.6790255e-05
0.00010215067
0.00013966457
0.00019987135
0.00031061988
0.00056874604
0.0014519056
2.4225054e-05
2.6029301e-05
3.005793e-05
3.6488129e-05
4.5796806e-05
5.8772436e-05
7.6746331e-05
0.00010212573
0.00013965769
0.00019987642
0.00031062161
0.00056870641
0.0014516509
2.4144101e-05
2.5949014e-05
2.9979856e-05
3.6415072e-05
4.5732667e-05
5.8721489e-05
7.671217e-05
0.00010211006
0.00013965901
0.00019988822
0.00031062872
0.00056867234
0.0014514134
2.4068865e-05
2.5874813e-05
2.9908589e-05
3.6349702e-05
4.5677028e-05
5.8679557e-05
7.6687048e-05
0.00010210287
0.00013966772
0.000199906
0.00031064063
0.00056864346
0.0014511929
2.3999211e-05
2.5806526e-05
2.9843878e-05
3.6291658e-05
4.5629405e-05
5.864603e-05
7.6670255e-05
0.0001021034
0.00013968305
0.00019992908
0.00031065678
0.00056861943
0.0014509889
2.3934986e-05
2.5743966e-05
2.978546e-05
3.6240578e-05
4.5589317e-05
5.8620313e-05
7.6661104e-05
0.00010211091
0.00013970428
0.0001999568
0.00031067666
0.0005685999
0.0014508011
2.3876028e-05
2.5686935e-05
2.9733068e-05
3.6196093e-05
4.5556285e-05
5.8601822e-05
7.6658927e-05
0.00010212469
0.00013973072
0.00019998853
0.00031069977
0.00056858454
0.001450629
2.3822162e-05
2.5635225e-05
2.9686426e-05
3.6157838e-05
4.5529839e-05
5.8589987e-05
7.6663082e-05
0.00010214407
0.0001397617
0.00020002371
0.00031072567
0.00056857304
0.001450472
2.3773205e-05
2.5588623e-05
2.9645256e-05
3.6125445e-05
4.5509515e-05
5.8584254e-05
7.6672951e-05
0.0001021684
0.00013979662
0.00020006179
0.00031075393
0.00056856507
0.0014503296
2.3728965e-05
2.5546906e-05
2.9609276e-05
3.6098552e-05
4.549486e-05
5.8584089e-05
7.6687942e-05
0.00010219707
0.00013983489
0.00020010227
0.00031078414
0.00056856034
0.0014502012
2.3689245e-05
2.550985e-05
2.9578203e-05
3.6076799e-05
4.548543e-05
5.8588975e-05
7.6707489e-05
0.00010222951
0.00013987597
0.00020014468
0.00031081596
0.00056855855
0.0014500861
2.3653843e-05
2.5477226e-05
2.9551755e-05
3.6059832e-05
4.5480796e-05
5.8598414e-05
7.6731054e-05
0.00010226518
0.00013991935
0.00020018859
0.00031084903
0.00056855945
0.0014499838
2.3622552e-05
2.5448803e-05
2.9529651e-05
3.6047304e-05
4.548054e-05
5.861193e-05
7.6758128e-05
0.00010230357
0.00013996458
0.00020023361
0.00031088304
0.00056856276
0.0014498936
2.3595164e-05
2.5424349e-05
2.9511613e-05
3.6038876e-05
4.548426e-05
5.862907e-05
7.6788229e-05
0.0001023442
0.0001400112
0.00020027937
0.00031091772
0.00056856824
0.0014498148
2.357147e-05
2.5403634e-05
2.9497367e-05
3.6034218e-05
4.5491568e-05
5.8649401e-05
7.6820904e-05
0.00010238663
0.00014005883
0.00020032553
0.00031095281
0.00056857565
0.0014497469
2.355126e-05
2.5386429e-05
2.9486643e-05
3.6033009e-05
4.5502092e-05
5.8672512e-05
7.6855727e-05
0.00010243044
0.0001401071
0.00020037181
0.00031098807
0.00056858479
0.0014496891
2.3534326e-05
2.5372505e-05
2.9479177e-05
3.6034938e-05
4.5515477e-05
5.8698015e-05
7.6892302e-05
0.00010247527
0.00014015568
0.00020041792
0.00031102328
0.00056859543
0.0014496408
2.3520461e-05
2.5361639e-05
2.9474712e-05
3.6039707e-05
4.5531384e-05
5.8725546e-05
7.6930257e-05
0.00010252076
0.00014020425
0.00020046363
0.00031105827
0.0005686074
0.0014496015
2.350946e-05
2.5353611e-05
2.9472997e-05
3.6047028e-05
4.5549491e-05
5.8754761e-05
7.696925e-05
0.0001025666
0.00014025255
0.00020050871
0.00031109285
0.00056862049
0.0014495705
2.3501122e-05
2.5348206e-05
2.947379e-05
3.6056625e-05
4.5569495e-05
5.8785339e-05
7.7008963e-05
0.00010261248
0.00014030033
0.00020055298
0.00031112688
0.00056863456
0.0014495473
2.349525e-05
2.5345214e-05
2.9476858e-05
3.6068237e-05
4.5591106e-05
5.8816982e-05
7.7049106e-05
0.00010265815
0.00014034737
0.00020059626
0.00031116022
0.00056864942
0.0014495312
2.3491651e-05
2.5344431e-05
2.9481973e-05
3.6081613e-05
4.5614057e-05
5.8849412e-05
7.708941e-05
0.00010270337
0.00014039347
0.0002006384
0.00031119275
0.00056866494
0.0014495216
2.3490138e-05
2.5345659e-05
2.9488921e-05
3.6096515e-05
4.5638093e-05
5.8882373e-05
7.7129633e-05
0.00010274792
0.00014043846
0.00020067927
0.00031122437
0.00056868096
0.0014495181
2.3490529e-05
2.5348708e-05
2.9497495e-05
3.611272e-05
4.5662979e-05
5.891563e-05
7.7169555e-05
0.00010279162
0.0001404822
0.00020071876
0.00031125499
0.00056869735
0.00144952
2.3492648e-05
2.5353394e-05
2.9507497e-05
3.6130017e-05
4.5688496e-05
5.8948966e-05
7.7208977e-05
0.0001028343
0.00014052454
0.00020075679
0.00031128453
0.00056871399
0.0014495269
2.3496325e-05
2.5359542e-05
2.9518741e-05
3.6148207e-05
4.5714441e-05
5.8982186e-05
7.7247723e-05
0.0001028758
0.00014056539
0.00020079327
0.00031131292
0.00056873075
0.0014495383
2.3501398e-05
2.5366984e-05
2.9531049e-05
3.6167107e-05
4.5740628e-05
5.9015111e-05
7.7285636e-05
0.00010291602
0.00014060466
0.00020082814
0.00031134011
0.00056874752
0.0014495536
2.3507711e-05
2.5375559e-05
2.9544255e-05
3.6186543e-05
4.5766886e-05
5.9047583e-05
7.7322578e-05
0.00010295483
0.00014064226
0.00020086136
0.00031136606
0.00056876422
0.0014495723
2.3515115e-05
2.5385116e-05
2.9558201e-05
3.6206356e-05
4.579306e-05
5.9079459e-05
7.735843e-05
0.00010299215
0.00014067814
0.00020089289
0.00031139075
0.00056878074
0.0014495942
2.352347e-05
2.5395511e-05
2.9572742e-05
3.62264e-05
4.5819009e-05
5.9110614e-05
7.7393092e-05
0.00010302791
0.00014071227
0.00020092272
0.00031141415
0.00056879703
0.0014496187
2.3532641e-05
2.540661e-05
2.9587741e-05
3.6246541e-05
4.5844607e-05
5.9140939e-05
7.7426477e-05
0.00010306206
0.00014074461
0.00020095084
0.00031143627
0.000568813
0.0014496455
2.3542503e-05
2.5418286e-05
2.9603072e-05
3.6266655e-05
4.5869741e-05
5.9170338e-05
7.7458515e-05
0.00010309454
0.00014077515
0.00020097726
0.0003114571
0.00056882852
0.0014496742
2.3552938e-05
2.5430419e-05
2.9618616e-05
3.6286631e-05
4.5894313e-05
5.9198731e-05
7.7489152e-05
0.00010312534
0.0001408039
0.000201002
0.00031147664
0.00056884332
0.0014497044
2.3563833e-05
2.54429e-05
2.9634268e-05
3.6306369e-05
4.5918234e-05
5.922605e-05
7.7518344e-05
0.00010315443
0.00014083085
0.00020102506
0.00031149484
0.00056885737
0.0014497358
2.3575085e-05
2.5455627e-05
2.9649927e-05
3.6325778e-05
4.5941429e-05
5.9252241e-05
7.7546061e-05
0.00010318183
0.00014085603
0.00020104649
0.00031151159
0.0005688708
0.0014497682
2.3586598e-05
2.5468504e-05
2.9665506e-05
3.6344778e-05
4.5963834e-05
5.9277258e-05
7.7572283e-05
0.00010320751
0.00014087945
0.00020106625
0.00031152694
0.00056888368
0.0014498012
2.3598282e-05
2.5481445e-05
2.9680922e-05
3.63633e-05
4.5985393e-05
5.930107e-05
7.7597002e-05
0.00010323152
0.00014090115
0.00020108429
0.000311541
0.00056889602
0.0014498348
2.3610055e-05
2.549437e-05
2.9696102e-05
3.6381281e-05
4.6006063e-05
5.9323653e-05
7.762022e-05
0.00010325385
0.00014092111
0.0002011007
0.00031155382
0.00056890782
0.0014498685
2.3621843e-05
2.5507206e-05
2.9710982e-05
3.6398669e-05
4.6025808e-05
5.9344992e-05
7.7641941e-05
0.00010327454
0.00014093933
0.00020111556
0.00031156547
0.00056891907
0.0014499023
2.3633576e-05
2.551989e-05
2.9725505e-05
3.641542e-05
4.6044602e-05
5.9365087e-05
7.7662189e-05
0.00010329356
0.00014095589
0.00020112894
0.000311576
0.00056892976
0.0014499358
2.3645192e-05
2.5532362e-05
2.973962e-05
3.6431499e-05
4.6062429e-05
5.938394e-05
7.7680948e-05
0.00010331096
0.00014097085
0.00020114091
0.00031158546
0.00056893986
0.0014499689
2.3656636e-05
2.5544571e-05
2.9753287e-05
3.6446877e-05
4.6079281e-05
5.9401543e-05
7.7698236e-05
0.0001033268
0.0001409843
0.00020115154
0.00031159391
0.00056894937
0.0014500014
2.3667861e-05
2.5556473e-05
2.976647e-05
3.6461535e-05
4.6095144e-05
5.9417896e-05
7.7714092e-05
0.00010334112
0.00014099629
0.00020116091
0.00031160139
0.00056895831
0.0014500332
2.3678822e-05
2.5568031e-05
2.9779142e-05
3.6475453e-05
4.6110007e-05
5.943302e-05
7.7728561e-05
0.00010335401
0.0001410069
0.00020116908
0.00031160796
0.00056896667
0.0014500641
2.3689484e-05
2.5579212e-05
2.9791274e-05
3.6488612e-05
4.6123877e-05
5.9446943e-05
7.7741692e-05
0.00010336552
0.00014101621
0.00020117613
0.00031161369
0.0005689745
0.0014500942
2.3699814e-05
2.5589984e-05
2.9802845e-05
3.6501006e-05
4.6136763e-05
5.9459697e-05
7.7753536e-05
0.00010337572
0.0001410243
0.00020118214
0.00031161863
0.0005689818
0.0014501234
2.3709781e-05
2.5600323e-05
2.9813837e-05
3.6512632e-05
4.6148685e-05
5.9471319e-05
7.7764147e-05
0.00010338468
0.00014103122
0.00020118717
0.00031162284
0.00056898862
0.0014501516
2.3719361e-05
2.5610207e-05
2.982424e-05
3.6523493e-05
4.6159662e-05
5.9481849e-05
7.7773584e-05
0.00010339246
0.00014103707
0.00020119129
0.00031162636
0.00056899496
0.0014501787
2.3728533e-05
2.561962e-05
2.9834047e-05
3.6533599e-05
4.6169719e-05
5.9491329e-05
7.7781901e-05
0.00010339914
0.0001410419
0.00020119456
0.00031162925
0.00056900084
0.0014502048
2.3737281e-05
2.5628552e-05
2.9843257e-05
3.654296e-05
4.6178885e-05
5.9499803e-05
7.7789158e-05
0.00010340478
0.00014104579
0.00020119705
0.00031163153
0.00056900625
0.0014502298
2.3745594e-05
2.5636994e-05
2.9851872e-05
3.6551592e-05
4.6187191e-05
5.9507317e-05
7.7795413e-05
0.00010340944
0.00014104879
0.0002011988
0.00031163326
0.0005690112
0.0014502536
2.3753464e-05
2.5644944e-05
2.9859897e-05
3.6559514e-05
4.6194668e-05
5.9513918e-05
7.7800724e-05
0.00010341319
0.00014105099
0.00020119989
0.00031163446
0.00056901569
0.0014502762
2.3760885e-05
2.56524e-05
2.986734e-05
3.6566745e-05
4.6201352e-05
5.9519654e-05
7.780515e-05
0.00010341609
0.00014105243
0.00020120036
0.00031163517
0.00056901972
0.0014502975
2.3767857e-05
2.5659366e-05
2.9874213e-05
3.6573309e-05
4.6207279e-05
5.9524574e-05
7.780875e-05
0.00010341822
0.00014105319
0.00020120026
0.00031163545
0.00056902333
0.0014503176
2.3774381e-05
2.5665846e-05
2.988053e-05
3.6579231e-05
4.6212486e-05
5.9528727e-05
7.781158e-05
0.00010341962
0.00014105333
0.00020119967
0.00031163532
0.00056902653
0.0014503364