/*--------------------------------*- C++ -*----------------------------------*\
| =========                 |                                                 |
| \\      /  F ield         | OpenFOAM: The Open Source CFD Toolbox           |
|  \\    /   O peration     | Version:  2506                                  |
|   \\  /    A nd           | Website:  www.openfoam.com                      |
|    \\/     M anipulation  |                                                 |
\*---------------------------------------------------------------------------*/
FoamFile
{
    version     2.0;
    format      ascii;
    arch        "LSB;label=32;scalar=64";
    class       volScalarField;
    location    "3000/water";
    object      k;
}
// * * * * * * * * * * * * * * * * * * * * * * * * * * * * * * * * * * * * * //

dimensions      [0 2 -2 0 0 0 0];

internalField   nonuniform List<scalar> 
2600
(
0.0001992401
0.00019923925
0.00019923929
0.00019923963
0.00019923982
0.00019923914
0.00019923438
0.00019921375
0.00019914651
0.00019904325
0.00019990841
0.00021454267
0.00040955349
0.00017237279
0.00017237614
0.00017237826
0.00017238051
0.0001723821
0.00017237949
0.00017235884
0.00017227555
0.000172027
0.00017162102
0.00017329371
0.00020304806
0.00052391648
0.00015132731
0.00015133049
0.00015133306
0.00015133552
0.00015133516
0.00015132207
0.00015126283
0.00015106462
0.00015055477
0.00014985944
0.0001528957
0.00019760629
0.00057958156
0.00013448336
0.00013448533
0.00013448764
0.00013448905
0.00013448325
0.00013445009
0.00013432997
0.00013398205
0.00013321503
0.00013247936
0.00013787909
0.00019702317
0.00059640815
0.00012075551
0.00012075697
0.00012075853
0.00012075718
0.00012074152
0.0001206782
0.00012048052
0.00011997843
0.0001190486
0.00011870929
0.00012776334
0.00020116854
0.00059206885
0.0001093899
0.00010939088
0.000109391
0.00010938492
0.00010935483
0.00010925313
0.00010897207
0.00010834649
0.00010742643
0.0001080609
0.00012226457
0.00021023394
0.00057809221
9.984982e-05
9.9850093e-05
9.9847944e-05
9.9835056e-05
9.9786463e-05
9.9641865e-05
9.9284958e-05
9.859999e-05
9.7925044e-05
0.00010022517
0.00012123091
0.00022425603
0.00056106272
9.1744874e-05
9.174416e-05
9.1738826e-05
9.1717148e-05
9.1647174e-05
9.1460104e-05
9.1049018e-05
9.0398665e-05
9.0258419e-05
9.5030413e-05
0.00012461431
0.00024286356
0.00054449405
8.4785472e-05
8.4783454e-05
8.4774018e-05
8.4741918e-05
8.4649457e-05
8.4426122e-05
8.3996574e-05
8.3502376e-05
8.4241543e-05
9.2421343e-05
0.00013239492
0.00026511347
0.00053012765
7.8752977e-05
7.8749319e-05
7.8734951e-05
7.8691403e-05
7.8577619e-05
7.8330528e-05
7.7932172e-05
7.7743318e-05
7.9771153e-05
9.2438123e-05
0.00014444361
0.00028951151
0.0005186607
7.3479682e-05
7.3474066e-05
7.3454131e-05
7.3398964e-05
7.3267704e-05
7.3016085e-05
7.2712929e-05
7.3009357e-05
7.6815021e-05
9.5182833e-05
0.00016036324
0.00031428525
0.00051014247
6.8835097e-05
6.8827266e-05
6.8801436e-05
6.8735571e-05
6.8593744e-05
6.836405e-05
6.8235745e-05
6.9234209e-05
7.5403716e-05
0.00010076472
0.00017939076
0.00033780739
0.0005042266
6.4716374e-05
6.4706175e-05
6.4674551e-05
6.4600233e-05
6.4458202e-05
6.4284863e-05
6.4429045e-05
6.6391811e-05
7.5619872e-05
0.0001092241
0.00020043528
0.00035894529
0.00050037283
6.1041501e-05
6.1028932e-05
6.0992164e-05
6.091321e-05
6.0785257e-05
6.0711783e-05
6.1247563e-05
6.4493003e-05
7.7580807e-05
0.00012045028
0.00022225715
0.00037717552
0.0004980107
5.7744396e-05
5.7729653e-05
5.7689074e-05
5.7611142e-05
5.751606e-05
5.7596592e-05
5.8669223e-05
6.3582872e-05
8.1411587e-05
0.00013412437
0.00024370832
0.00039247762
0.00049664628
5.4771313e-05
5.4754847e-05
5.4712615e-05
5.4643526e-05
5.4605384e-05
5.4906753e-05
5.6693486e-05
6.3736861e-05
8.7208043e-05
0.00014971788
0.00026392364
0.00040513366
0.00049590625
5.2078186e-05
5.206076e-05
5.2020025e-05
5.1970154e-05
5.2019282e-05
5.2623661e-05
5.5340605e-05
6.5053658e-05
9.4994185e-05
0.00016655656
0.0002823955
0.00041554871
0.00049553614
4.9628636e-05
4.9611393e-05
4.9576492e-05
4.9559258e-05
4.9733503e-05
5.0741693e-05
5.4651195e-05
6.7643172e-05
0.00010468473
0.00018392817
0.00029893687
0.00042413794
0.00049537652
4.7392458e-05
4.7377004e-05
4.7353699e-05
4.7386176e-05
4.773248e-05
4.9267886e-05
5.4685329e-05
7.1608743e-05
0.00011606686
0.00020119288
0.00031358495
0.0004312733
0.0004953351
4.5344476e-05
4.5332971e-05
4.5328746e-05
4.5432431e-05
4.600877e-05
4.8222045e-05
5.5520138e-05
7.7024462e-05
0.0001288111
0.00021785898
0.00032650009
0.00043726613
0.00049536293
4.3463657e-05
4.3458933e-05
4.3483358e-05
4.3685127e-05
4.4562868e-05
4.7637066e-05
5.7244888e-05
8.3911106e-05
0.00014251076
0.00023360813
0.00033789056
0.00044236711
0.00049543702
4.1732429e-05
4.173814e-05
4.1803329e-05
4.2136614e-05
4.3403329e-05
4.7559127e-05
5.9952699e-05
9.2216773e-05
0.00015673762
0.00024827796
0.00034796834
0.00044677301
0.00049554866
4.0136167e-05
4.015697e-05
4.0278148e-05
4.0784372e-05
4.2547129e-05
4.8047288e-05
6.3728701e-05
0.00010180889
0.00017109624
0.00026182258
0.0003569282
0.00045063571
0.00049569617
3.8662802e-05
3.8704582e-05
3.8900797e-05
3.9631107e-05
4.2020194e-05
4.9171841e-05
6.8635431e-05
0.00011248166
0.0001852623
0.00027427018
0.00036494028
0.00045407114
0.00049588069
3.7302531e-05
3.7372692e-05
3.7667676e-05
3.8685008e-05
4.1857944e-05
5.1010817e-05
7.4697747e-05
0.00012397798
0.00019899861
0.00028568912
0.00037214923
0.00045716736
0.00049610392
3.6047628e-05
3.6155447e-05
3.6578682e-05
3.7960182e-05
4.2105652e-05
5.3644138e-05
8.1890767e-05
0.00013601988
0.00021215193
0.00029616533
0.00037867608
0.00045999117
0.00049636709
3.4892327e-05
3.5049398e-05
3.5637398e-05
3.7477201e-05
4.2818255e-05
5.7145346e-05
9.013449e-05
0.00014833915
0.00022463802
0.00030578893
0.00038462123
0.0004625934
0.00049667064
3.383279e-05
3.4053569e-05
3.4851411e-05
3.7263736e-05
4.4059204e-05
6.1571463e-05
9.9297382e-05
0.00016070076
0.00023642316
0.00031464713
0.00039006764
0.00046501299
0.00049701416
3.2867148e-05
3.316962e-05
3.4232755e-05
3.7355162e-05
4.589791e-05
6.6952453e-05
0.00010920861
0.00017291579
0.00024750737
0.00032282077
0.00039508379
0.00046727996
0.00049739654
3.1995627e-05
3.2402111e-05
3.3798454e-05
3.7794962e-05
4.8405428e-05
7.3282438e-05
0.00011967597
0.00018484396
0.00025791153
0.00033038288
0.00039972633
0.00046941774
0.00049781615
3.1220754e-05
3.1758868e-05
3.3571166e-05
3.8634689e-05
5.1648301e-05
8.0515036e-05
0.00013050501
0.00019638896
0.00026766839
0.00033739835
0.00040404224
0.00047144508
0.00049827105
3.0547674e-05
3.1251458e-05
3.3579859e-05
3.9933128e-05
5.5680956e-05
8.8564414e-05
0.00014151527
0.0002074904
0.00027681665
0.00034392427
0.00040806987
0.00047336165
0.00049875826
2.9984563e-05
3.0895779e-05
3.3860462e-05
4.1754323e-05
6.0537585e-05
9.7312152e-05
0.00015255089
0.00021811501
0.00028539698
0.00035000997
0.00041183983
0.00047517683
0.00049927448
2.9543172e-05
3.0712741e-05
3.4456304e-05
4.4164151e-05
6.6225006e-05
0.00010661843
0.0001634853
0.00022824915
0.00029345001
0.00035569879
0.00041537498
0.00047690098
0.00049981638
2.9239499e-05
3.072904e-05
3.5418149e-05
4.7225365e-05
7.2718218e-05
0.00011633497
0.00017422102
0.00023789273
0.00030101459
0.00036102773
0.000418694
0.00047854313
0.00050038114
2.9094595e-05
3.0977952e-05
3.6803503e-05
5.0991336e-05
7.9959885e-05
0.00012631696
0.00018468652
0.00024705469
0.00030812684
0.00036602759
0.00042181619
0.00048011509
0.00050096676
2.9135496e-05
3.1500047e-05
3.8674862e-05
5.5499191e-05
8.7864168e-05
0.00013643209
0.00019483196
0.00025575015
0.00031482084
0.00037072328
0.00042475508
0.00048162854
0.000501572
2.9396232e-05
3.234367e-05
4.1096633e-05
6.0763507e-05
9.6324076e-05
0.00014656574
0.00020462432
0.0002639967
0.00032112526
0.00037513787
0.00042753007
0.00048308916
0.00050219529
2.9918842e-05
3.356491e-05
4.4130587e-05
6.6771888e-05
0.00010522079
0.00015662302
0.00021404418
0.00027181505
0.00032706606
0.00037928747
0.00043015897
0.00048450265
0.00050283511
3.0754242e-05
3.5226726e-05
4.7830036e-05
7.3483558e-05
0.00011443288
0.00016652783
0.00022308101
0.00027922363
0.00033266467
0.00038319522
0.0004326545
0.00048587307
0.00050348988
3.1962696e-05
3.7396844e-05
5.2233352e-05
8.0831461e-05
0.00012384408
0.00017622137
0.00023173237
0.0002862417
0.00033793723
0.00038688252
0.00043502773
0.00048720352
0.00050415803
3.3613507e-05
4.0144094e-05
5.7357854e-05
8.87274e-05
0.00013334837
0.00018565852
0.00023999855
0.00029288457
0.000342906
0.00039036649
0.00043728791
0.00048849634
0.00050483797
3.5783412e-05
4.353308e-05
6.3195319e-05
9.7069241e-05
0.00014285307
0.00019480684
0.00024788469
0.00029916231
0.0003475933
0.00039366187
0.0004394427
0.00048975325
0.00050552812
3.8553075e-05
4.7617443e-05
6.9710128e-05
0.00010574828
0.00015227866
0.00020364079
0.0002553933
0.00030509328
0.00035201759
0.00039678118
0.00044149843
0.00049097545
0.00050622692
4.2001165e-05
5.2432575e-05
7.6840734e-05
0.00011465642
0.00016156002
0.00021214495
0.00026252194
0.00031069683
0.000356195
0.00039973504
0.0004434603
0.00049216367
0.00050693283
4.6195932e-05
5.7988977e-05
8.4503829e-05
0.00012369062
0.00017064179
0.00022029902
0.00026928194
0.00031598928
0.00036013925
0.00040253238
0.00044533252
0.00049331827
0.00050764432
5.1185031e-05
6.4267725e-05
9.2600648e-05
0.0001327565
0.0001794794
0.00022808589
0.0002756847
0.00032098503
0.00036386202
0.00040518056
0.00044711836
0.00049443921
0.00050835988
5.6985371e-05
7.1219301e-05
0.00010102458
0.00014177165
0.00018802208
0.00023550303
0.0002817403
0.00032569629
0.00036737303
0.00040768555
0.00044882025
0.00049552614
0.00050907799
6.3575487e-05
7.8766088e-05
0.00010966808
0.00015065102
0.000196237
0.00024254864
0.00028745745
0.00033013329
0.00037068022
0.00041005204
0.00045043986
0.00049657835
0.00050979712
7.089349e-05
8.680903e-05
0.000118418
0.00015932163
0.0002040999
0.00024922138
0.00029284335
0.00033430426
0.00037378983
0.00041228347
0.00045197811
0.00049759482
0.0005105157
7.8838267e-05
9.5225379e-05
0.00012716547
0.00016772589
0.00021159052
0.00025551998
0.00029790357
0.00033821554
0.00037670647
0.00041438212
0.00045343517
0.00049857417
0.00051123213
8.727175e-05
0.00010388139
0.00013581417
0.00017581507
0.00021869192
0.00026144297
0.00030264214
0.00034187167
0.00037943324
0.00041634918
0.00045481054
0.00049951469
0.00051194472
9.6036194e-05
0.0001126429
0.00014427886
0.00018354851
0.00022538999
0.00026698862
0.0003070616
0.00034527556
0.00038197182
0.00041818478
0.00045610304
0.00050041432
0.00051265169
0.00010496811
0.00012138219
0.00015248589
0.00019089301
0.00023167335
0.00027215517
0.00031116333
0.00034842867
0.00038432262
0.00041988809
0.00045731084
0.00050127065
0.00051335113
0.0001139106
0.00012998323
0.00016037326
0.00019782236
0.00023753334
0.00027694109
0.00031494782
0.0003513313
0.000386485
0.00042145745
0.00045843156
0.00050208097
0.000514041
0.00012272249
0.00013834519
0.00016789036
0.00020431696
0.00024296425
0.00028134553
0.00031841516
0.00035398297
0.00038845748
0.00042289054
0.00045946234
0.00050284229
0.00051471912
0.00013128389
0.00014638429
0.00017499755
0.00021036347
0.00024796342
0.00028536876
0.00032156551
0.00035638279
0.00039023809
0.00042418456
0.00046039998
0.00050355142
0.00051538316
0.00013949843
0.0001540343
0.0001816656
0.00021595443
0.00025253142
0.00028901262
0.0003243996
0.00035852995
0.00039182471
0.00042533656
0.00046124117
0.00050420509
0.00051603067
0.00014729305
0.00016124584
0.00018787484
0.00022108782
0.00025667211
0.00029228085
0.00032691919
0.00036042414
0.00039321546
0.00042634367
0.00046198261
0.00050480008
0.00051665909
0.00015461611
0.00016798499
0.00019361429
0.00022576657
0.00026039249
0.00029517936
0.0003291275
0.00036206598
0.00039440905
0.00042720345
0.00046262135
0.00050533336
0.00051726584
0.00016143467
0.00017423144
0.00019888061
0.00022999795
0.00026370257
0.00029771632
0.00033102948
0.00036345742
0.00039540517
0.00042791417
0.00046315494
0.00050580228
0.00051784834
0.00016773141
0.00017997641
0.00020367703
0.00023379302
0.00026661508
0.00029990217
0.00033263197
0.00036460196
0.0003962048
0.00042847513
0.00046358171
0.00050620468
0.00051840408
0.00017350165
0.00018522056
0.00020801227
0.00023716599
0.00026914509
0.00030174947
0.00033394379
0.00036550486
0.0003968104
0.00042888685
0.00046390098
0.00050653909
0.00051893073
0.0001787506
0.00018997216
0.0002118995
0.00024013366
0.00027130964
0.00030327271
0.00033497569
0.0003661732
0.00039722607
0.00042915126
0.00046411317
0.00050680482
0.00051942617
0.00018349097
0.00019424526
0.00021535542
0.00024271481
0.00027312735
0.00030448803
0.0003357402
0.00036661589
0.00039745762
0.0004292718
0.00046421993
0.00050700205
0.00051988857
0.00018774098
0.00019805829
0.00021839936
0.00024492975
0.00027461804
0.0003054129
0.00033625143
0.0003668435
0.00039751253
0.00042925341
0.00046422419
0.00050713186
0.00052031647
0.00019152274
0.00020143279
0.00022105257
0.00024679981
0.00027580231
0.00030606584
0.00033652482
0.00036686815
0.00039739984
0.00042910251
0.00046413011
0.00050719626
0.00052070877
0.00019486094
0.00020439238
0.00022333756
0.00024834695
0.00027670128
0.00030646609
0.00033657685
0.00036670325
0.00039712998
0.00042882686
0.000463943
0.0005071981
0.00052106482
0.00019778183
0.00020696196
0.00022527759
0.00024959344
0.00027733625
0.00030663328
0.00033642474
0.00036636323
0.00039671457
0.00042843539
0.00046366923
0.00050714101
0.00052138437
0.00020031244
0.00020916705
0.00022689623
0.00025056152
0.00027772847
0.00030658722
0.00033608622
0.00036586328
0.00039616613
0.00042793797
0.000463316
0.00050702928
0.00052166762
0.00020247999
0.00021103331
0.00022821699
0.00025127321
0.00027789891
0.00030634761
0.00033557918
0.00036521907
0.00039549787
0.00042734523
0.0004628912
0.00050686775
0.00052191514
0.00020431141
0.00021258611
0.00022926305
0.00025175007
0.00027786806
0.00030593383
0.00033492148
0.00036444648
0.00039472339
0.00042666825
0.00046240318
0.00050666159
0.00052212785
0.00020583304
0.00021385029
0.00023005707
0.00025201307
0.00027765582
0.0003053648
0.00033413072
0.00036356137
0.00039385641
0.00042591836
0.00046186055
0.00050641625
0.00052230702
0.00020707039
0.00021484992
0.00023062097
0.00025208244
0.00027728135
0.00030465879
0.00033322402
0.00036257932
0.0003929106
0.00042510693
0.00046127198
0.00050613725
0.00052245416
0.00020804795
0.00021560814
0.00023097585
0.00025197758
0.00027676301
0.00030383331
0.00033221791
0.00036151549
0.00039189932
0.0004242451
0.00046064603
0.00050583008
0.00052257101
0.00020878911
0.00021614708
0.00023114187
0.00025171703
0.00027611823
0.00030290503
0.00033112817
0.00036038441
0.00039083547
0.00042334372
0.00045999102
0.00050550008
0.00052265945
0.00020931607
0.00021648777
0.00023113823
0.00025131836
0.00027536355
0.00030188973
0.00032996974
0.00035919992
0.00038973133
0.00042241309
0.00045931486
0.00050515239
0.00052272152
0.00020964983
0.00021665012
0.00023098308
0.00025079818
0.0002745145
0.00030080221
0.00032875667
0.00035797503
0.00038859848
0.00042146293
0.00045862502
0.00050479182
0.00052275928
0.00020981014
0.00021665287
0.00023069355
0.0002501721
0.00027358566
0.00029965629
0.00032750206
0.00035672184
0.0003874477
0.00042050227
0.00045792838
0.00050442284
0.00052277487
0.00020981557
0.00021651365
0.00023028571
0.00024945475
0.0002725906
0.00029846482
0.00032621801
0.00035545154
0.00038628889
0.00041953938
0.00045723124
0.00050404955
0.0005227704
0.00020968343
0.00021624893
0.00022977461
0.0002486598
0.00027154193
0.00029723962
0.00032491565
0.00035417438
0.00038513111
0.00041858177
0.00045653927
0.00050367563
0.00052274796
0.00020942992
0.0002158741
0.00022917428
0.00024779991
0.0002704513
0.00029599156
0.00032360512
0.00035289962
0.00038398248
0.00041763611
0.0004558575
0.00050330434
0.00052270958
0.00020907007
0.00021540344
0.00022849774
0.00024688682
0.00026932939
0.00029473055
0.0003222956
0.00035163558
0.00038285024
0.00041670833
0.00045519032
0.00050293856
0.0005226572
0.0002086178
0.00021485021
0.00022775705
0.00024593136
0.00026818601
0.00029346557
0.00032099532
0.00035038967
0.00038174076
0.00041580353
0.00045454147
0.00050258073
0.00052259268
0.00020808603
0.00021422666
0.00022696333
0.00024494346
0.00026703005
0.00029220468
0.0003197116
0.00034916836
0.00038065953
0.00041492609
0.00045391413
0.0005022329
0.00052251778
0.00020748661
0.00021354408
0.00022612681
0.00024393218
0.00026586957
0.00029095512
0.0003184509
0.00034797731
0.00037961127
0.00041407964
0.00045331076
0.00050189531
0.00052243407
0.00020683049
0.00021281282
0.00022525686
0.00024290578
0.00026471184
0.00028972329
0.00031721883
0.00034682131
0.00037859986
0.00041326707
0.00045273311
0.0005015677
0.00052234288
0.00020612767
0.00021204239
0.00022436202
0.00024187174
0.00026356333
0.0002885148
0.00031602024
0.00034570443
0.00037762851
0.00041249063
0.00045218155
0.00050125094
0.00052224541
0.0002053873
0.00021124144
0.00022345005
0.00024083679
0.00026242981
0.00028733457
0.00031485923
0.00034462995
0.00037669968
0.00041175177
0.00045165672
0.00050094652
0.00052214285
0.00020461772
0.00021041786
0.00022252798
0.00023980697
0.00026131636
0.00028618681
0.00031373925
0.00034360061
0.00037581527
0.00041105095
0.00045115881
0.00050065638
0.00052203651
0.00020382652
0.00020957878
0.00022160216
0.00023878766
0.00026022743
0.00028507511
0.00031266312
0.0003426184
0.00037497623
0.0004103884
0.00045068905
0.00050038151
0.00052192754
0.00020302056
0.00020873067
0.00022067826
0.00023778364
0.00025916685
0.00028400248
0.00031163302
0.0003416847
0.00037418303
0.00040976438
0.00045024828
0.00050012263
0.00052181701
0.00020220602
0.00020787933
0.00021976137
0.00023679909
0.00025813794
0.0002829714
0.00031065067
0.00034080026
0.00037343539
0.00040917955
0.00044983688
0.00049988015
0.00052170586
0.00020138847
0.00020702996
0.00021885599
0.00023583767
0.0002571435
0.00028198381
0.00030971709
0.00033996504
0.00037273367
0.00040863405
0.00044945487
0.00049965422
0.00052159495
0.0002005729
0.0002061872
0.0002179661
0.00023490256
0.00025618581
0.00028104114
0.00030883272
0.00033917901
0.00037207795
0.00040812772
0.00044910202
0.00049944481
0.000521485
0.00019976374
0.00020535517
0.00021709519
0.00023399644
0.00025526674
0.00028014431
0.00030799743
0.00033844225
0.00037146795
0.00040766005
0.00044877783
0.0004992517
0.00052137664
0.00019896495
0.00020453749
0.00021624631
0.00023312162
0.00025438766
0.00027929344
0.00030721143
0.00033775453
0.0003709031
0.00040723032
0.00044848162
0.00049907456
0.00052127044
0.00019817998
0.00020373737
0.00021542208
0.00023227985
0.00025354919
0.00027848896
0.00030647459
0.00033711528
0.00037038254
0.00040683756
0.00044821256
0.00049891294
0.00052116686
0.0001974119
0.00020295756
0.00021462456
0.00023147232
0.00025275206
0.00027773098
0.00030578652
0.0003365237
0.0003699052
0.00040648064
0.00044796968
0.0004987663
0.00052106628
0.00019666325
0.00020220027
0.00021385541
0.00023070011
0.00025199671
0.00027701935
0.00030514655
0.00033597873
0.00036946982
0.00040615828
0.00044775192
0.00049863406
0.00052096904
0.00019593615
0.00020146738
0.00021311602
0.00022996403
0.00025128333
0.0002763537
0.0003045538
0.00033547914
0.00036907498
0.00040586907
0.00044755814
0.00049851558
0.00052087539
0.00019523242
0.00020076044
0.00021240751
0.00022926465
0.00025061189
0.0002757334
0.00030400719
0.00033502352
0.00036871912
0.00040561155
0.00044738713
0.00049841017
0.00052078555
0.00019455357
0.00020008077
0.00021173076
0.00022860228
0.00024998213
0.00027515765
0.00030350548
0.00033461033
0.00036840059
0.00040538414
0.00044723767
0.00049831714
0.00052069967
0.00019390083
0.00019942939
0.00021108639
0.00022797703
0.00024939357
0.00027462548
0.00030304727
0.00033423793
0.00036811768
0.00040518528
0.00044710851
0.00049823578
0.00052061787
0.00019327522
0.0001988071
0.0002104748
0.00022738879
0.00024884561
0.00027413576
0.00030263106
0.00033390456
0.0003678686
0.00040501333
0.0004469984
0.0004981654
0.00052054022
0.00019267749
0.00019821448
0.00020989621
0.00022683731
0.00024833744
0.00027368724
0.00030225524
0.00033360844
0.00036765154
0.00040486669
0.00044690609
0.00049810529
0.00052046676
0.00019210821
0.00019765192
0.00020935063
0.00022632213
0.00024786814
0.00027327857
0.00030191814
0.00033334772
0.00036746469
0.00040474374
0.00044683037
0.00049805478
0.00052039752
0.00019156777
0.00019711963
0.00020883794
0.00022584268
0.00024743668
0.0002729083
0.00030161801
0.00033312053
0.00036730623
0.00040464289
0.00044677004
0.0004980132
0.00052033249
0.00019105635
0.00019661762
0.00020835783
0.00022539825
0.00024704191
0.0002725749
0.00030135307
0.00033292499
0.00036717434
0.00040456258
0.00044672395
0.00049797991
0.00052027162
0.00019057399
0.00019614578
0.00020790988
0.00022498801
0.00024668261
0.00027227681
0.00030112152
0.00033275921
0.00036706724
0.0004045013
0.00044669096
0.00049795429
0.00052021487
0.00019012058
0.00019570386
0.00020749353
0.00022461105
0.00024635745
0.00027201238
0.00030092153
0.00033262133
0.00036698317
0.00040445754
0.00044666999
0.00049793573
0.00052016216
0.00018969588
0.00019529147
0.00020710813
0.00022426635
0.00024606509
0.00027177998
0.00030075126
0.00033250948
0.00036692041
0.00040442988
0.00044665999
0.00049792364
0.00052011342
0.00018929953
0.0001949081
0.00020675291
0.00022395282
0.00024580411
0.00027157791
0.00030060891
0.00033242184
0.00036687729
0.00040441692
0.00044665995
0.00049791748
0.00052006853
0.00018893105
0.00019455317
0.00020642702
0.0002236693
0.00024557304
0.0002714045
0.00030049264
0.00033235662
0.00036685218
0.00040441731
0.0004466689
0.00049791669
0.00052002739
0.00018858986
0.00019422597
0.00020612955
0.0002234146
0.0002453704
0.00027125803
0.00030040069
0.00033231208
0.0003668435
0.00040442977
0.00044668592
0.00049792075
0.00051998986
0.00018827531
0.00019392573
0.00020585949
0.00022318745
0.0002451947
0.00027113684
0.00030033127
0.0003322865
0.00036684974
0.00040445306
0.00044671012
0.00049792917
0.00051995583
0.00018798664
0.00019365161
0.00020561582
0.00022298657
0.0002450444
0.00027103924
0.00030028268
0.00033227825
0.00036686942
0.00040448601
0.00044674068
0.00049794148
0.00051992513
0.00018772305
0.0001934027
0.00020539744
0.00022281065
0.00024491801
0.00027096359
0.00030025324
0.00033228572
0.00036690117
0.0004045275
0.00044677679
0.00049795722
0.00051989763
0.00018748367
0.00019317804
0.00020520321
0.00022265836
0.00024481401
0.00027090826
0.00030024131
0.00033230739
0.00036694364
0.00040457646
0.00044681772
0.00049797598
0.00051987318
0.00018726759
0.00019297663
0.000205032
0.00022252836
0.00024473091
0.00027087168
0.00030024532
0.0003323418
0.00036699557
0.00040463191
0.00044686277
0.00049799735
0.00051985161
0.00018707384
0.00019279746
0.00020488262
0.00022241933
0.00024466723
0.00027085231
0.00030026375
0.00033238754
0.00036705577
0.00040469291
0.00044691128
0.00049802097
0.00051983279
0.00018690145
0.00019263944
0.00020475389
0.00022232992
0.00024462153
0.00027084864
0.00030029515
0.00033244328
0.00036712312
0.00040475858
0.00044696265
0.00049804648
0.00051981655
0.00018674939
0.00019250153
0.00020464462
0.00022225883
0.00024459241
0.00027085925
0.00030033812
0.00033250778
0.00036719654
0.0004048281
0.00044701632
0.00049807357
0.00051980274
0.00018661665
0.00019238262
0.00020455364
0.00022220477
0.00024457849
0.00027088274
0.00030039135
0.00033257983
0.00036727506
0.00040490073
0.00044707177
0.00049810194
0.00051979122
0.00018650218
0.00019228165
0.00020447977
0.00022216647
0.00024457845
0.00027091778
0.00030045356
0.00033265834
0.00036735775
0.00040497575
0.00044712853
0.00049813131
0.00051978182
0.00018640495
0.00019219751
0.00020442184
0.00022214269
0.000244591
0.00027096311
0.00030052359
0.00033274224
0.00036744376
0.00040505254
0.00044718616
0.00049816144
0.00051977442
0.00018632392
0.00019212915
0.00020437872
0.00022213224
0.00024461492
0.00027101751
0.0003006003
0.00033283057
0.00036753229
0.00040513049
0.00044724426
0.00049819209
0.00051976886
0.00018625806
0.00019207549
0.00020434929
0.00022213393
0.000244649
0.00027107985
0.00030068264
0.00033292242
0.00036762262
0.00040520906
0.00044730246
0.00049822304
0.000519765
0.00018620634
0.00019203549
0.00020433246
0.00022214665
0.00024469214
0.00027114902
0.00030076962
0.00033301694
0.00036771407
0.00040528776
0.00044736045
0.00049825412
0.00051976272
0.00018616777
0.00019200813
0.00020432717
0.00022216931
0.00024474324
0.00027122402
0.00030086033
0.00033311336
0.00036780603
0.00040536614
0.00044741791
0.00049828512
0.00051976188
0.00018614136
0.0001919924
0.00020433239
0.00022220087
0.00024480129
0.00027130388
0.0003009539
0.00033321095
0.00036789792
0.00040544378
0.00044747458
0.0004983159
0.00051976234
0.00018612614
0.00019198732
0.00020434712
0.00022224032
0.00024486531
0.00027138768
0.00030104954
0.00033330904
0.00036798924
0.00040552033
0.00044753021
0.00049834628
0.000519764
0.00018612118
0.00019199195
0.00020437041
0.00022228672
0.00024493438
0.0002714746
0.0003011465
0.00033340704
0.00036807951
0.00040559543
0.00044758458
0.00049837614
0.00051976671
0.00018612557
0.00019200537
0.00020440133
0.00022233916
0.00024500765
0.00027156383
0.00030124412
0.00033350438
0.00036816832
0.0004056688
0.00044763748
0.00049840534
0.00051977037
0.00018613842
0.00019202669
0.00020443902
0.00022239679
0.0002450843
0.00027165467
0.00030134176
0.00033360059
0.0003682553
0.00040574018
0.00044768876
0.00049843377
0.00051977487
0.00018615889
0.00019205508
0.00020448263
0.0002224588
0.00024516359
0.00027174643
0.00030143888
0.0003336952
0.00036834012
0.00040580934
0.00044773827
0.00049846134
0.00051978009
0.00018618617
0.00019208974
0.00020453138
0.00022252443
0.00024524483
0.00027183853
0.00030153498
0.00033378784
0.0003684225
0.00040587611
0.00044778589
0.00049848798
0.00051978595
0.00018621949
0.00019212989
0.00020458453
0.000222593
0.00024532738
0.0002719304
0.0003016296
0.00033387818
0.00036850222
0.00040594034
0.00044783154
0.00049851354
0.00051979235
0.00018625812
0.00019217481
0.00020464138
0.00022266384
0.00024541066
0.00027202156
0.00030172236
0.00033396592
0.00036857908
0.00040600191
0.00044787514
0.00049853784
0.00051979919
0.00018630137
0.00019222383
0.00020470128
0.00022273636
0.00024549414
0.00027211158
0.00030181294
0.00033405084
0.00036865294
0.00040606073
0.00044791657
0.00049856086
0.0005198064
0.00018634857
0.0001922763
0.00020476362
0.00022281001
0.00024557736
0.00027220007
0.00030190102
0.00033413273
0.00036872368
0.00040611674
0.00044795576
0.00049858263
0.00051981389
0.00018639912
0.00019233163
0.00020482784
0.00022288428
0.00024565987
0.00027228668
0.00030198638
0.00033421144
0.00036879119
0.00040616983
0.00044799268
0.00049860322
0.00051982161
0.00018645242
0.00019238924
0.00020489342
0.0002229587
0.00024574129
0.0002723711
0.00030206877
0.00033428681
0.00036885539
0.00040621995
0.00044802734
0.00049862269
0.00051982949
0.00018650792
0.0001924486
0.00020495985
0.00022303284
0.00024582125
0.00027245307
0.00030214802
0.00033435873
0.00036891618
0.00040626704
0.00044805981
0.00049864106
0.0005198375
0.00018656511
0.00019250922
0.00020502667
0.0002231063
0.00024589943
0.00027253234
0.00030222396
0.00033442708
0.00036897347
0.00040631113
0.00044809013
0.00049865834
0.00051984557
0.00018662349
0.00019257062
0.00020509348
0.00022317871
0.00024597555
0.0002726087
0.00030229644
0.00033449176
0.00036902723
0.00040635225
0.00044811832
0.00049867453
0.00051985364
0.00018668262
0.00019263236
0.00020515986
0.00022324975
0.00024604934
0.00027268196
0.00030236534
0.00033455266
0.00036907747
0.00040639045
0.00044814442
0.00049868963
0.00051986167
0.00018674205
0.00019269405
0.00020522547
0.00022331912
0.00024612058
0.00027275196
0.00030243052
0.00033460976
0.00036912422
0.00040642576
0.00044816846
0.00049870362
0.0005198696
0.00018680142
0.00019275533
0.00020528998
0.00022338656
0.00024618908
0.00027281856
0.00030249192
0.00033466309
0.00036916753
0.00040645824
0.00044819047
0.00049871653
0.0005198774
0.00018686038
0.00019281586
0.00020535312
0.00022345185
0.00024625466
0.00027288165
0.00030254952
0.00033471269
0.00036920747
0.00040648797
0.00044821053
0.00049872838
0.00051988501
0.00018691861
0.00019287537
0.00020541465
0.0002235148
0.0002463172
0.00027294119
0.00030260336
0.00033475862
0.00036924414
0.00040651505
0.0004482287
0.00049873919
0.00051989243
0.00018697586
0.0001929336
0.00020547434
0.00022357524
0.00024637661
0.00027299716
0.00030265349
0.00033480097
0.00036927763
0.00040653957
0.00044824508
0.00049874903
0.00051989963
0.00018703188
0.00019299034
0.00020553202
0.00022363306
0.00024643284
0.0002730496
0.00030269997
0.00033483986
0.00036930809
0.00040656167
0.00044825977
0.00049875795
0.0005199066
0.00018708646
0.00019304539
0.00020558755
0.00022368817
0.00024648588
0.00027309853
0.0003027429
0.00033487541
0.00036933565
0.00040658148
0.00044827286
0.00049876603
0.00051991332
0.00018713943
0.00019309859
0.0002056408
0.00022374051
0.00024653573
0.00027314404
0.00030278239
0.00033490774
0.00036936044
0.00040659911
0.00044828447
0.00049877331
0.00051991981
0.00018719063
0.00019314983
0.0002056917
0.00022379006
0.00024658241
0.00027318618
0.00030281854
0.000334937
0.00036938259
0.00040661469
0.00044829467
0.00049877984
0.00051992604
0.00018723994
0.00019319899
0.00020574017
0.00022383679
0.00024662596
0.00027322503
0.00030285146
0.0003349633
0.00036940224
0.00040662833
0.00044830354
0.00049878565
0.000519932
0.00018728727
0.00019324598
0.00020578616
0.0002238807
0.00024666642
0.00027326069
0.00030288128
0.00033498677
0.00036941949
0.00040664011
0.00044831114
0.00049879075
0.00051993768
0.00018733251
0.00019329075
0.00020582965
0.00022392181
0.00024670385
0.00027329325
0.00030290811
0.00033500754
0.00036943447
0.00040665014
0.00044831752
0.00049879515
0.00051994308
0.00018737562
0.00019333324
0.00020587062
0.00022396014
0.00024673833
0.0002733228
0.00030293207
0.00033502574
0.0003694473
0.00040665851
0.00044832276
0.0004987989
0.00051994818
0.00018741653
0.00019337342
0.00020590907
0.00022399573
0.00024676992
0.00027334948
0.00030295329
0.0003350415
0.0003694581
0.00040666532
0.00044832692
0.00049880201
0.00051995297