/*--------------------------------*- C++ -*----------------------------------*\
| =========                 |                                                 |
| \\      /  F ield         | OpenFOAM: The Open Source CFD Toolbox           |
|  \\    /   O peration     | Version:  2506                                  |
|   \\  /    A nd           | Website:  www.openfoam.com                      |
|    \\/     M anipulation  |                                                 |
\*---------------------------------------------------------------------------*/
FoamFile
{
    version     2.0;
    format      ascii;
    arch        "LSB;label=32;scalar=64";
    class       volScalarField;
    location    "3000/water";
    object      nut;
}
// * * * * * * * * * * * * * * * * * * * * * * * * * * * * * * * * * * * * * //

dimensions      [0 2 -1 0 0 0 0];

internalField   nonuniform List<scalar> 
2600
(
4.0562043e-05
4.0561942e-05
4.0561944e-05
4.0561981e-05
4.0561942e-05
4.0561434e-05
4.0558261e-05
4.0540002e-05
4.0435343e-05
3.98338e-05
3.6541397e-05
2.4161555e-05
1.4889524e-05
3.944741e-05
3.9447468e-05
3.944759e-05
3.9447676e-05
3.9447275e-05
3.9444342e-05
3.9428907e-05
3.9352895e-05
3.8988431e-05
3.7314814e-05
3.0763187e-05
1.7536144e-05
1.684056e-05
3.852265e-05
3.852264e-05
3.8522725e-05
3.8522528e-05
3.8520597e-05
3.8510798e-05
3.8466747e-05
3.8277827e-05
3.7500368e-05
3.454641e-05
2.5814945e-05
1.4669956e-05
1.7712619e-05
3.7742032e-05
3.774193e-05
3.7741811e-05
3.7740766e-05
3.7735283e-05
3.7711707e-05
3.7617453e-05
3.7258039e-05
3.5961308e-05
3.177518e-05
2.2061889e-05
1.3531464e-05
1.7967898e-05
3.7073562e-05
3.7073366e-05
3.7072781e-05
3.7069955e-05
3.7057916e-05
3.7011651e-05
3.6843992e-05
3.6266509e-05
3.4405655e-05
2.9188861e-05
1.9425178e-05
1.3345943e-05
1.7902414e-05
3.6493786e-05
3.6493393e-05
3.6491924e-05
3.648598e-05
3.646354e-05
3.6384687e-05
3.612226e-05
3.5294625e-05
3.2873382e-05
2.6881541e-05
1.771645e-05
1.3793839e-05
1.7689846e-05
3.5985207e-05
3.5984445e-05
3.5981496e-05
3.5970726e-05
3.5933497e-05
3.5812307e-05
3.5437992e-05
3.4343601e-05
3.1395257e-05
2.4892541e-05
1.6781972e-05
1.4727875e-05
1.7427344e-05
3.5534568e-05
3.55332e-05
3.5528007e-05
3.5510417e-05
3.5453869e-05
3.5281761e-05
3.478374e-05
3.3418009e-05
2.9989903e-05
2.3242727e-05
1.6521213e-05
1.605365e-05
1.7168093e-05
3.5131649e-05
3.5129373e-05
3.5121029e-05
3.5094485e-05
3.5014364e-05
3.4784646e-05
3.4156253e-05
3.2521766e-05
2.8667649e-05
2.1957692e-05
1.6869959e-05
1.7676047e-05
1.694009e-05
3.4768438e-05
3.47649e-05
3.4752406e-05
3.4714802e-05
3.4607522e-05
3.4315777e-05
3.3554458e-05
3.16563e-05
2.7438403e-05
2.1076946e-05
1.7774701e-05
1.9481897e-05
1.6755877e-05
3.4438571e-05
3.443338e-05
3.4415717e-05
3.4365168e-05
3.4228127e-05
3.3872266e-05
3.2977968e-05
3.0820513e-05
2.6321667e-05
2.0649591e-05
1.9168673e-05
2.1348725e-05
1.6617712e-05
3.4136931e-05
3.4129689e-05
3.4105903e-05
3.4040932e-05
3.3872746e-05
3.3452766e-05
3.2426062e-05
3.0012536e-05
2.5355877e-05
2.0719809e-05
2.0958175e-05
2.3166793e-05
1.6521078e-05
3.3859367e-05
3.3849701e-05
3.3819003e-05
3.3738723e-05
3.3539365e-05
3.3056856e-05
3.1897087e-05
2.923354e-05
2.4602257e-05
2.1309035e-05
2.3024752e-05
2.4858007e-05
1.6457822e-05
3.3602495e-05
3.3590098e-05
3.355197e-05
3.3456247e-05
3.3227088e-05
3.2684517e-05
3.1388405e-05
2.8493549e-05
2.4138757e-05
2.2402735e-05
2.5241354e-05
2.6381455e-05
1.6418929e-05
3.3363555e-05
3.334823e-05
3.3302533e-05
3.3192135e-05
3.2935885e-05
3.2335692e-05
3.0897111e-05
2.7818119e-05
2.4044358e-05
2.3946906e-05
2.7493335e-05
2.7726694e-05
1.6396422e-05
3.3140311e-05
3.3122024e-05
3.3069114e-05
3.2945826e-05
3.2666358e-05
3.2009929e-05
3.0421904e-05
2.725306e-05
2.4379894e-05
2.5855075e-05
2.9693858e-05
2.8902281e-05
1.6384202e-05
3.2930983e-05
3.2909915e-05
3.2850758e-05
3.2717477e-05
3.2419519e-05
3.1706209e-05
2.9966345e-05
2.6863467e-05
2.5173338e-05
2.8023002e-05
3.178848e-05
2.9925862e-05
1.6378087e-05
3.27342e-05
3.2710811e-05
3.2647097e-05
3.2507877e-05
3.219656e-05
3.1423099e-05
2.9543334e-05
2.6725089e-05
2.6414165e-05
3.0346001e-05
3.3750499e-05
3.0817911e-05
1.6375449e-05
3.254898e-05
3.2524066e-05
3.2458325e-05
3.2318371e-05
3.1998619e-05
3.1159479e-05
2.9179673e-05
2.6909997e-05
2.805682e-05
3.2733297e-05
3.5572232e-05
3.159849e-05
1.6374764e-05
3.2374714e-05
3.234948e-05
3.2285189e-05
3.2150777e-05
3.1826588e-05
3.0916123e-05
2.8918575e-05
2.7471841e-05
3.0030665e-05
3.5115834e-05
3.7256818e-05
3.2285747e-05
1.6375224e-05
3.2211173e-05
3.2187303e-05
3.2128983e-05
3.2007273e-05
3.1681012e-05
3.0698309e-05
2.8817773e-05
2.843585e-05
3.2252928e-05
3.7447133e-05
3.8812575e-05
3.2895331e-05
1.6376448e-05
3.2058522e-05
3.2038256e-05
3.199155e-05
3.1890271e-05
3.1562235e-05
3.051924e-05
2.8942305e-05
2.9795901e-05
3.4641249e-05
3.9699498e-05
4.0249838e-05
3.3440303e-05
1.6378293e-05
3.1917349e-05
3.1903563e-05
3.1875268e-05
3.1802262e-05
3.147098e-05
3.0403414e-05
2.9353632e-05
3.1518041e-05
3.7123065e-05
4.1858566e-05
4.1579379e-05
3.3931332e-05
1.6380731e-05
3.1788707e-05
3.1784988e-05
3.1783034e-05
3.1745667e-05
3.1409596e-05
3.0388388e-05
3.0098641e-05
3.3548311e-05
3.9640503e-05
4.3918427e-05
4.2811639e-05
3.4377031e-05
1.638378e-05
3.167417e-05
3.1684884e-05
3.1718215e-05
3.1722747e-05
3.1384108e-05
3.0523333e-05
3.1201975e-05
3.5822342e-05
4.2151078e-05
4.5878174e-05
4.3956334e-05
3.4784314e-05
1.6387467e-05
3.1575896e-05
3.1606239e-05
3.1684577e-05
3.1735683e-05
3.1406919e-05
3.0863671e-05
3.2663377e-05
3.8274456e-05
4.4625623e-05
4.7739783e-05
4.5022273e-05
3.5158739e-05
1.6391813e-05
3.1496714e-05
3.155272e-05
3.1686171e-05
3.1786998e-05
3.1499546e-05
3.1462866e-05
3.445981e-05
4.0844581e-05
4.7045146e-05
4.9506882e-05
4.6017315e-05
3.5504794e-05
1.6396824e-05
3.1440215e-05
3.1528703e-05
3.1727217e-05
3.1880504e-05
3.1694229e-05
3.2363743e-05
3.6550942e-05
4.3482184e-05
4.9397839e-05
5.1183995e-05
4.6948402e-05
3.5826124e-05
1.6402494e-05
3.141085e-05
3.1539289e-05
3.1812006e-05
3.2022927e-05
3.2033145e-05
3.3591894e-05
3.8886228e-05
4.6147426e-05
5.1676786e-05
5.2776062e-05
4.782164e-05
3.6125718e-05
1.6408802e-05
3.1414042e-05
3.1590274e-05
3.1944928e-05
3.2226119e-05
3.2564562e-05
3.5152684e-05
4.1411886e-05
4.8810348e-05
5.3878384e-05
5.4288121e-05
4.8642393e-05
3.6406047e-05
1.6415722e-05
3.1456281e-05
3.1688095e-05
3.2130757e-05
3.2509433e-05
3.3336481e-05
3.7032009e-05
4.4076505e-05
5.144913e-05
5.6001295e-05
5.5725114e-05
4.9415388e-05
3.6669254e-05
1.642322e-05
3.1545208e-05
3.183974e-05
3.2375386e-05
3.2901322e-05
3.4389412e-05
3.9199975e-05
4.6834633e-05
5.4048187e-05
5.8045689e-05
5.7091637e-05
5.0144339e-05
3.6914943e-05
1.6431248e-05
3.1689662e-05
3.2052669e-05
3.2687146e-05
3.3439135e-05
3.5750339e-05
4.1616209e-05
4.9648333e-05
5.6596558e-05
6.0012742e-05
5.839201e-05
5.0832727e-05
3.7144922e-05
1.6439749e-05
3.1899684e-05
3.2334824e-05
3.3078705e-05
3.416634e-05
3.7429302e-05
4.423546e-05
5.2487192e-05
5.9086682e-05
6.1904243e-05
5.9630092e-05
5.1482696e-05
3.7361243e-05
1.6448668e-05
3.2186466e-05
3.2694873e-05
3.3569197e-05
3.5127411e-05
3.9419066e-05
4.7012429e-05
5.532745e-05
6.1513508e-05
6.3722343e-05
6.0809394e-05
5.2096451e-05
3.7565313e-05
1.6457958e-05
3.2562282e-05
3.3142862e-05
3.4185833e-05
3.6361552e-05
4.1697461e-05
4.9905189e-05
5.8150807e-05
6.3873834e-05
6.5469391e-05
6.1933118e-05
5.26774e-05
3.7758158e-05
1.6467586e-05
3.3040475e-05
3.3691442e-05
3.4963996e-05
3.789695e-05
4.4231434e-05
5.287705e-05
6.0943284e-05
6.6165778e-05
6.7147567e-05
6.3002905e-05
5.3228279e-05
3.7940823e-05
1.6477531e-05
3.363564e-05
3.435765e-05
3.594507e-05
3.9746997e-05
4.6981725e-05
5.5897121e-05
6.369425e-05
6.8388431e-05
6.8759335e-05
6.4022595e-05
5.3751053e-05
3.8114079e-05
1.6487766e-05
3.4364226e-05
3.5164904e-05
3.7171982e-05
4.1909161e-05
4.9907182e-05
5.8940027e-05
6.6395666e-05
7.0541368e-05
7.0305658e-05
6.4995389e-05
5.424764e-05
3.8278685e-05
1.6498266e-05
3.5245724e-05
3.6144419e-05
3.8683398e-05
4.4366369e-05
5.2968081e-05
6.1985172e-05
6.9041451e-05
7.262475e-05
7.1789409e-05
6.5923872e-05
5.4719659e-05
3.8435268e-05
1.6509004e-05
3.6304395e-05
3.7335021e-05
4.0508078e-05
4.7090205e-05
5.6128211e-05
6.5015947e-05
7.1626956e-05
7.4638169e-05
7.3213266e-05
6.6810358e-05
5.516863e-05
3.8584369e-05
1.6519954e-05
3.7571053e-05
3.8780604e-05
4.2660845e-05
5.0044953e-05
5.9355784e-05
6.8018902e-05
7.4148652e-05
7.6582492e-05
7.457972e-05
6.7656901e-05
5.5595892e-05
3.872645e-05
1.653109e-05
3.9083862e-05
4.0525226e-05
4.5140984e-05
5.3191588e-05
6.2623577e-05
7.0983109e-05
7.6603213e-05
7.8458839e-05
7.589091e-05
6.8465406e-05
5.6002632e-05
3.8861905e-05
1.6542386e-05
4.0886914e-05
4.2606867e-05
4.7933104e-05
5.6490994e-05
6.5908452e-05
7.3899532e-05
7.8988649e-05
8.0268738e-05
7.7148737e-05
6.9237567e-05
5.6389887e-05
3.8991066e-05
1.6553816e-05
4.3025777e-05
4.5051429e-05
5.1009886e-05
5.9906221e-05
6.9190872e-05
7.6760142e-05
8.1303266e-05
8.201342e-05
7.8354965e-05
6.9974898e-05
5.6758561e-05
3.911421e-05
1.6565353e-05
4.5540359e-05
4.7868466e-05
5.4335759e-05
6.3403521e-05
7.2453911e-05
7.9558415e-05
8.3546728e-05
8.3693978e-05
7.951114e-05
7.0678713e-05
5.7109426e-05
3.9231566e-05
1.6576974e-05
4.845672e-05
5.1049457e-05
5.7870631e-05
6.6952756e-05
7.5682785e-05
8.2288863e-05
8.5718426e-05
8.5311368e-05
8.0618597e-05
7.1350138e-05
5.7443133e-05
3.9343314e-05
1.6588653e-05
5.1780123e-05
5.4568634e-05
6.1572942e-05
7.0526869e-05
7.8863943e-05
8.4947814e-05
8.7817764e-05
8.6866347e-05
8.1678449e-05
7.1990114e-05
5.7760215e-05
3.9449593e-05
1.6600366e-05
5.5491364e-05
5.8385637e-05
6.5401392e-05
7.4100921e-05
8.1987182e-05
8.7531659e-05
8.9844039e-05
8.8359438e-05
8.269157e-05
7.2599392e-05
5.8061095e-05
3.9550498e-05
1.6612086e-05
5.9547221e-05
6.2448907e-05
6.9315564e-05
7.7653777e-05
8.5043645e-05
9.003694e-05
9.1796373e-05
8.97909e-05
8.3658584e-05
7.3178538e-05
5.8346082e-05
3.9646085e-05
1.662379e-05
6.3884464e-05
6.6699781e-05
7.3278195e-05
8.1167572e-05
8.8025176e-05
9.2460229e-05
9.3673656e-05
9.1160705e-05
8.4579864e-05
7.3727932e-05
5.8615378e-05
3.973637e-05
1.663545e-05
6.8427328e-05
7.1077067e-05
7.7255178e-05
8.4626037e-05
9.0924144e-05
9.4798066e-05
9.5474524e-05
9.2468532e-05
8.5455524e-05
7.4247764e-05
5.8869076e-05
3.9821327e-05
1.664704e-05
7.3095526e-05
7.5520273e-05
8.1214713e-05
8.8014202e-05
9.3733341e-05
9.7046931e-05
9.7197365e-05
9.371377e-05
8.6285424e-05
7.4738045e-05
5.9107166e-05
3.9900895e-05
1.6658531e-05
7.7811269e-05
7.9972303e-05
8.5127265e-05
9.1318193e-05
9.6445928e-05
9.9203273e-05
9.8840346e-05
9.4895542e-05
8.7069191e-05
7.5198611e-05
5.9329536e-05
3.9974974e-05
1.6669891e-05
8.2504347e-05
8.4381459e-05
8.8965668e-05
9.4525143e-05
9.9055456e-05
0.00010126357
0.00010040149
9.6012761e-05
8.7806247e-05
7.5629146e-05
5.9535986e-05
4.004343e-05
1.6681088e-05
8.7115005e-05
8.8702739e-05
9.2705351e-05
9.7623215e-05
0.00010155592
0.00010322444
0.00010187875
9.7064192e-05
8.8495858e-05
7.6029208e-05
5.9726238e-05
4.0106102e-05
1.6692087e-05
9.1594946e-05
9.2898477e-05
9.6324623e-05
0.00010060169
0.00010394187
0.00010508273
0.00010327014
9.8048548e-05
8.9137192e-05
7.6398263e-05
5.989996e-05
4.0162808e-05
1.6702851e-05
9.5906986e-05
9.6938414e-05
9.980492e-05
0.00010345112
0.0001062085
0.00010683569
0.00010457387
9.8964586e-05
8.9729395e-05
7.6735741e-05
6.0056789e-05
4.0213358e-05
1.671334e-05
0.00010002393
0.00010079934
0.00010313096
0.00010616345
0.00010835179
0.00010848105
0.00010578843
9.9811219e-05
9.0271674e-05
7.7041081e-05
6.0196364e-05
4.0257563e-05
1.6723514e-05
0.00010392712
0.00010446441
0.00010629077
0.00010873218
0.00011036858
0.00011001714
0.00010691273
0.00010058762
9.0763376e-05
7.7313796e-05
6.0318357e-05
4.0295253e-05
1.6733331e-05
0.0001076049
0.0001079224
0.00010927558
0.00011115237
0.00011225666
0.00011144298
0.00010794618
0.00010129329
9.1204068e-05
7.7553525e-05
6.0422513e-05
4.032629e-05
1.674275e-05
0.0001110512
0.00011116678
0.00011207962
0.00011342075
0.00011401482
0.00011275831
0.00010888877
0.00010192819
9.1593605e-05
7.7760089e-05
6.0508678e-05
4.0350581e-05
1.6751731e-05
0.00011426436
0.0001141949
0.00011469985
0.00011553561
0.00011564284
0.00011396362
0.00010974107
0.0001024927
9.1932181e-05
7.7933533e-05
6.0576828e-05
4.0368094e-05
1.6760238e-05
0.0001172461
0.0001170073
0.00011713559
0.00011749674
0.00011714146
0.00011506016
0.00011050428
0.00010298775
9.2220364e-05
7.8074162e-05
6.0627096e-05
4.0378865e-05
1.6768237e-05
0.00012000067
0.00011960698
0.00011938822
0.0001193053
0.00011851237
0.00011604986
0.00011118021
0.00010341472
9.2459115e-05
7.8182554e-05
6.0659785e-05
4.0383008e-05
1.6775699e-05
0.00012253426
0.00012199886
0.00012146083
0.0001209637
0.0001197581
0.00011693535
0.00011177121
0.0001037755
9.2649782e-05
7.8259577e-05
6.0675373e-05
4.0380713e-05
1.6782602e-05
0.00012485444
0.00012418936
0.00012335788
0.00012247539
0.00012088195
0.00011771983
0.00011228016
0.00010407243
9.2794088e-05
7.8306371e-05
6.0674517e-05
4.0372254e-05
1.6788927e-05
0.00012696979
0.00012618598
0.00012508499
0.00012384475
0.00012188786
0.00011840703
0.00011271039
0.00010430825
9.2894093e-05
7.8324341e-05
6.0658038e-05
4.0357974e-05
1.6794666e-05
0.00012888956
0.00012799701
0.00012664862
0.00012507689
0.00012278036
0.00011900111
0.0001130656
0.00010448604
9.2952158e-05
7.831512e-05
6.0626906e-05
4.0338284e-05
1.6799816e-05
0.00013062346
0.00012963127
0.00012805588
0.00012617752
0.00012356441
0.00011950659
0.00011334982
0.00010460917
9.2970892e-05
7.8280539e-05
6.0582218e-05
4.0313652e-05
1.6804378e-05
0.00013218145
0.00013109795
0.00012931434
0.00012715278
0.00012424535
0.00011992827
0.0001135673
0.00010468121
9.2953097e-05
7.8222584e-05
6.0525175e-05
4.0284586e-05
1.6808364e-05
0.00013357356
0.00013240638
0.00013043189
0.00012800917
0.00012482874
0.00012027114
0.00011372244
0.00010470589
9.2901718e-05
7.8143357e-05
6.0457047e-05
4.0251624e-05
1.6811789e-05
0.00013480982
0.00013356596
0.00013141656
0.00012875335
0.00012532034
0.00012054031
0.00011381978
0.00010468706
9.2819786e-05
7.804503e-05
6.0379153e-05
4.0215321e-05
1.6814673e-05
0.00013590015
0.00013458604
0.00013227646
0.00012939214
0.000125726
0.00012074095
0.00011386384
0.00010462855
9.2710367e-05
7.7929808e-05
6.0292826e-05
4.0176234e-05
1.6817041e-05
0.00013685426
0.00013547582
0.00013301966
0.00012993236
0.00012605159
0.00012087822
0.00011385917
0.00010453422
9.2576522e-05
7.7799889e-05
6.0199393e-05
4.0134912e-05
1.6818921e-05
0.00013768162
0.00013624431
0.00013365412
0.00013038079
0.00012630293
0.00012095723
0.00011381025
0.00010440786
9.2421263e-05
7.7657438e-05
6.0100154e-05
4.0091885e-05
1.6820344e-05
0.0001383914
0.00013690025
0.00013418765
0.00013074412
0.00012648578
0.000120983
0.00011372143
0.00010425316
9.2247523e-05
7.7504551e-05
5.9996359e-05
4.0047658e-05
1.6821343e-05
0.00013899246
0.00013745211
0.00013462782
0.00013102886
0.00012660574
0.00012096043
0.00011359697
0.00010407369
9.2058127e-05
7.734324e-05
5.9889198e-05
4.0002704e-05
1.6821951e-05
0.00013949329
0.00013790804
0.00013498197
0.00013124138
0.00012666828
0.00012089424
0.00011344096
0.00010387287
9.1855771e-05
7.7175414e-05
5.9779786e-05
3.9957459e-05
1.6822202e-05
0.00013990202
0.00013827583
0.00013525717
0.00013138781
0.00012667867
0.00012078899
0.0001132573
0.00010365397
9.1643009e-05
7.7002862e-05
5.9669157e-05
3.9912319e-05
1.6822131e-05
0.00014022642
0.00013856295
0.00013546018
0.00013147403
0.00012664198
0.00012064905
0.00011304973
0.00010342008
9.1422233e-05
7.6827247e-05
5.955826e-05
3.986764e-05
1.682177e-05
0.00014047386
0.00013877649
0.00013559748
0.00013150571
0.00012656306
0.00012047858
0.00011282177
0.00010317408
9.1195673e-05
7.6650098e-05
5.9447949e-05
3.9823735e-05
1.6821152e-05
0.00014065133
0.00013892319
0.0001356752
0.00013148821
0.00012644653
0.0001202815
0.00011257673
0.00010291868
9.0965384e-05
7.6472806e-05
5.9338991e-05
3.9780876e-05
1.6820309e-05
0.00014076542
0.00013900941
0.00013569917
0.00013142664
0.00012629677
0.00012006154
0.00011231773
0.00010265639
9.073325e-05
7.6296626e-05
5.9232057e-05
3.9739295e-05
1.6819271e-05
0.00014082238
0.00013904116
0.00013567489
0.00013132582
0.00012611791
0.00011982219
0.00011204766
0.0001023895
9.0500978e-05
7.6122673e-05
5.9127732e-05
3.9699182e-05
1.6818065e-05
0.00014082804
0.00013902409
0.00013560756
0.00013119032
0.00012591383
0.0001195667
0.00011176919
0.00010212014
9.02701e-05
7.5951915e-05
5.9026466e-05
3.9660482e-05
1.6816718e-05
0.00014078789
0.00013896348
0.00013550202
0.0001310244
0.00012568817
0.00011929813
0.0001114848
0.00010185019
9.0041973e-05
7.5785179e-05
5.8928615e-05
3.9623145e-05
1.681525e-05
0.00014070706
0.0001388643
0.00013536285
0.00013083207
0.00012544434
0.00011901927
0.00011119674
0.00010158139
8.9817771e-05
7.5623102e-05
5.8834202e-05
3.9587462e-05
1.6813681e-05
0.00014059033
0.00013873117
0.00013519428
0.00013061706
0.0001251855
0.00011873273
0.00011090705
0.00010131525
8.9598519e-05
7.5466265e-05
5.8743566e-05
3.9553558e-05
1.681203e-05
0.00014044216
0.00013856839
0.00013500029
0.00013038284
0.00012491455
0.00011844087
0.00011061759
0.00010105309
8.9385007e-05
7.531479e-05
5.8657141e-05
3.9521524e-05
1.6810318e-05
0.00014026668
0.00013837996
0.00013478456
0.00013013263
0.00012463422
0.00011814587
0.00011032999
0.00010079606
8.9177865e-05
7.5169373e-05
5.8575071e-05
3.949141e-05
1.6808563e-05
0.00014006772
0.00013816959
0.00013455049
0.00012986941
0.00012434697
0.00011784969
0.00011004574
0.00010054515
8.8977634e-05
7.5030471e-05
5.8497481e-05
3.9463247e-05
1.6806784e-05
0.00013984883
0.0001379407
0.00013430123
0.00012959593
0.00012405506
0.00011755409
0.00010976605
0.00010030098
8.8785113e-05
7.489833e-05
5.842445e-05
3.9437046e-05
1.6804994e-05
0.00013961328
0.00013769647
0.00013403969
0.0001293147
0.00012376056
0.00011726061
0.00010949196
0.00010006453
8.8600769e-05
7.4773129e-05
5.8356016e-05
3.9412799e-05
1.6803207e-05
0.00013936409
0.00013743979
0.00013376853
0.00012902802
0.0001234653
0.00011697062
0.00010922448
9.9836578e-05
8.8424948e-05
7.4654982e-05
5.8292176e-05
3.9390478e-05
1.6801436e-05
0.00013910403
0.00013717334
0.00013349019
0.00012873795
0.0001231709
0.00011668527
0.00010896468
9.9617674e-05
8.8257905e-05
7.4543948e-05
5.8232896e-05
3.9370045e-05
1.6799691e-05
0.00013883561
0.00013689954
0.00013320686
0.00012844632
0.00012287875
0.00011640589
0.00010871337
9.9408262e-05
8.8099815e-05
7.4440031e-05
5.8178111e-05
3.9351448e-05
1.6797979e-05
0.00013856112
0.00013662057
0.00013292047
0.00012815479
0.00012259041
0.00011613354
0.00010847121
9.9208679e-05
8.7950773e-05
7.4343184e-05
5.8127729e-05
3.9334624e-05
1.679631e-05
0.00013828259
0.00013633837
0.00013263284
0.000127865
0.00012230714
0.00011586912
0.00010823874
9.9019168e-05
8.7810809e-05
7.4253319e-05
5.8081635e-05
3.9319506e-05
1.6794689e-05
0.00013800188
0.00013605478
0.00013234568
0.00012757844
0.00012203008
0.00011561339
0.00010801639
9.8839883e-05
8.7679888e-05
7.4170306e-05
5.8039696e-05
3.9306017e-05
1.6793122e-05
0.00013772071
0.00013577147
0.00013206054
0.00012729639
0.0001217602
0.00011536699
0.00010780449
9.86709e-05
8.7557922e-05
7.4093984e-05
5.800176e-05
3.929408e-05
1.6791612e-05
0.00013744065
0.00013548996
0.0001317788
0.00012701999
0.00012149833
0.00011513043
0.00010760325
9.8512223e-05
8.7444771e-05
7.4024162e-05
5.7967665e-05
3.9283612e-05
1.6790164e-05
0.00013716311
0.00013521162
0.00013150169
0.00012675025
0.00012124519
0.00011490413
0.00010741284
9.8363791e-05
8.7340255e-05
7.3960623e-05
5.7937238e-05
3.9274527e-05
1.678878e-05
0.00013688936
0.00013493767
0.00013123028
0.00012648802
0.00012100137
0.00011468839
0.0001072333
9.8225488e-05
8.7244156e-05
7.3903134e-05
5.79103e-05
3.9266743e-05
1.6787462e-05
0.00013662055
0.00013466919
0.00013096553
0.00012623406
0.00012076735
0.00011448345
0.00010706464
9.8097149e-05
8.7156227e-05
7.3851447e-05
5.7886667e-05
3.9260174e-05
1.678621e-05
0.00013635766
0.00013440713
0.00013070827
0.00012598898
0.00012054353
0.00011428943
0.00010690679
9.7978565e-05
8.7076196e-05
7.3805302e-05
5.7866154e-05
3.9254738e-05
1.6785026e-05
0.00013610158
0.00013415232
0.0001304592
0.0001257533
0.00012033019
0.00011410642
0.00010675964
9.7869493e-05
8.7003771e-05
7.3764432e-05
5.7848576e-05
3.9250354e-05
1.678391e-05
0.00013585308
0.00013390547
0.00013021893
0.00012552747
0.00012012754
0.00011393441
0.00010662301
9.776966e-05
8.6938644e-05
7.3728568e-05
5.783375e-05
3.9246943e-05
1.6782861e-05
0.0001356128
0.0001336672
0.00012998795
0.0001253118
0.00011993574
0.00011377335
0.0001064967
9.7678763e-05
8.6880496e-05
7.3697434e-05
5.7821495e-05
3.9244431e-05
1.6781879e-05
0.00013538131
0.00013343803
0.00012976669
0.00012510656
0.00011975483
0.00011362313
0.00010638045
9.7596483e-05
8.6828999e-05
7.3670759e-05
5.7811632e-05
3.9242744e-05
1.6780964e-05
0.00013515906
0.00013321836
0.00012955546
0.00012491192
0.00011958483
0.00011348358
0.00010627399
9.7522479e-05
8.6783819e-05
7.364827e-05
5.7803989e-05
3.9241811e-05
1.6780113e-05
0.00013494642
0.00013300853
0.0001293545
0.00012472799
0.00011942568
0.00011335451
0.00010617702
9.7456396e-05
8.6744617e-05
7.3629696e-05
5.7798395e-05
3.9241565e-05
1.6779327e-05
0.00013474368
0.0001328088
0.00012916399
0.0001245548
0.00011927727
0.00011323567
0.00010608919
9.7397868e-05
8.671105e-05
7.3614771e-05
5.7794687e-05
3.924194e-05
1.6778602e-05
0.00013455105
0.00013261933
0.00012898401
0.00012439232
0.00011913945
0.00011312679
0.00010601015
9.7346518e-05
8.6682779e-05
7.3603232e-05
5.7792703e-05
3.9242875e-05
1.6777938e-05
0.00013436867
0.00013244024
0.0001288146
0.00012424049
0.000119012
0.00011302755
0.00010593954
9.7301964e-05
8.6659462e-05
7.3594821e-05
5.779229e-05
3.924431e-05
1.6777332e-05
0.00013419659
0.00013227156
0.00012865572
0.00012409916
0.00011889469
0.00011293763
0.00010587695
9.7263821e-05
8.6640762e-05
7.3589289e-05
5.7793298e-05
3.9246188e-05
1.6776783e-05
0.00013403483
0.00013211326
0.0001285073
0.00012396816
0.00011878723
0.00011285665
0.00010582201
9.72317e-05
8.6626348e-05
7.358639e-05
5.7795584e-05
3.9248454e-05
1.6776288e-05
0.00013388332
0.00013196527
0.00012836918
0.00012384726
0.00011868932
0.00011278426
0.0001057743
9.7205216e-05
8.6615895e-05
7.3585889e-05
5.7799012e-05
3.9251059e-05
1.6775844e-05
0.00013374197
0.00013182746
0.00012824119
0.00012373621
0.00011860063
0.00011272005
0.00010573341
9.7183988e-05
8.6609085e-05
7.358756e-05
5.7803452e-05
3.9253955e-05
1.677545e-05
0.00013361061
0.00013169965
0.00012812311
0.00012363473
0.00011852079
0.00011266362
0.00010569894
9.716764e-05
8.6605611e-05
7.3591184e-05
5.7808781e-05
3.9257096e-05
1.6775102e-05
0.00013348905
0.00013158163
0.00012801468
0.00012354248
0.00011844943
0.00011261457
0.00010567048
9.7155803e-05
8.6605175e-05
7.3596555e-05
5.7814884e-05
3.9260441e-05
1.6774799e-05
0.00013337708
0.00013147316
0.00012791562
0.00012345914
0.00011838617
0.00011257249
0.00010564762
9.714812e-05
8.6607492e-05
7.3603475e-05
5.7821651e-05
3.9263951e-05
1.6774537e-05
0.00013327441
0.00013137395
0.0001278256
0.00012338434
0.00011833061
0.00011253696
0.00010562998
9.7144242e-05
8.6612288e-05
7.3611758e-05
5.7828982e-05
3.9267592e-05
1.6774314e-05
0.00013318077
0.00013128371
0.00012774432
0.00012331772
0.00011828235
0.00011250757
0.00010561716
9.7143835e-05
8.6619304e-05
7.3621229e-05
5.783678e-05
3.927133e-05
1.6774128e-05
0.00013309586
0.00013120212
0.0001276714
0.0001232589
0.00011824099
0.00011248392
0.00010560879
9.7146576e-05
8.662829e-05
7.3631723e-05
5.784496e-05
3.9275135e-05
1.6773977e-05
0.00013301933
0.00013112884
0.0001276065
0.00012320749
0.00011820611
0.00011246562
0.00010560449
9.7152156e-05
8.6639012e-05
7.3643085e-05
5.7853439e-05
3.9278981e-05
1.6773858e-05
0.00013295086
0.00013106351
0.00012754924
0.0001231631
0.00011817733
0.00011245226
0.00010560392
9.7160279e-05
8.6651249e-05
7.3655171e-05
5.7862144e-05
3.9282843e-05
1.6773768e-05
0.00013289009
0.00013100578
0.00012749924
0.00012312533
0.00011815423
0.00011244347
0.00010560673
9.7170664e-05
8.6664791e-05
7.3667847e-05
5.7871004e-05
3.9286698e-05
1.6773706e-05
0.00013283665
0.00013095527
0.00012745612
0.00012309378
0.00011813643
0.00011243887
0.0001056126
9.7183042e-05
8.6679442e-05
7.3680988e-05
5.7879958e-05
3.9290527e-05
1.6773669e-05
0.00013279018
0.00013091161
0.00012741949
0.00012306806
0.00011812354
0.0001124381
0.0001056212
9.7197158e-05
8.6695015e-05
7.3694476e-05
5.7888947e-05
3.929431e-05
1.6773655e-05
0.00013275029
0.00013087441
0.00012738896
0.00012304778
0.00011811517
0.00011244082
0.00010563223
9.721277e-05
8.6711338e-05
7.3708204e-05
5.7897916e-05
3.929803e-05
1.6773663e-05
0.00013271662
0.0001308433
0.00012736414
0.00012303256
0.00011811095
0.00011244667
0.00010564541
9.7229648e-05
8.6728245e-05
7.3722071e-05
5.7906817e-05
3.9301673e-05
1.677369e-05
0.00013268878
0.00013081789
0.00012734465
0.000123022
0.00011811052
0.00011245533
0.00010566045
9.7247577e-05
8.6745585e-05
7.3735982e-05
5.7915605e-05
3.9305225e-05
1.6773734e-05
0.00013266638
0.00013079779
0.0001273301
0.00012301574
0.00011811353
0.00011246649
0.0001056771
9.7266352e-05
8.6763216e-05
7.3749854e-05
5.7924238e-05
3.9308671e-05
1.6773793e-05
0.00013264907
0.00013078264
0.00012732012
0.00012301341
0.00011811964
0.00011247985
0.0001056951
9.7285786e-05
8.6781007e-05
7.3763609e-05
5.793268e-05
3.9312003e-05
1.6773866e-05
0.00013263647
0.00013077206
0.00012731435
0.00012301466
0.00011812853
0.00011249513
0.00010571422
9.7305703e-05
8.6798841e-05
7.3777176e-05
5.7940899e-05
3.9315209e-05
1.6773951e-05
0.00013262823
0.00013076571
0.00012731244
0.00012301915
0.00011813988
0.00011251205
0.00010573425
9.7325946e-05
8.6816612e-05
7.3790498e-05
5.7948871e-05
3.9318286e-05
1.6774045e-05
0.000132624
0.00013076323
0.00012731404
0.00012302658
0.00011815342
0.00011253039
0.000105755
9.7346373e-05
8.6834228e-05
7.3803523e-05
5.795657e-05
3.9321213e-05
1.6774148e-05
0.00013262345
0.0001307643
0.00012731883
0.00012303662
0.00011816886
0.0001125499
0.00010577629
9.7366857e-05
8.6851609e-05
7.3816207e-05
5.7963979e-05
3.9323974e-05
1.6774258e-05
0.00013262626
0.00013076859
0.00012732652
0.00012304901
0.00011818597
0.00011257039
0.00010579796
9.7387286e-05
8.6868684e-05
7.3828512e-05
5.7971066e-05
3.9326583e-05
1.6774373e-05
0.00013263212
0.00013077581
0.0001273368
0.00012306346
0.00011820449
0.00011259166
0.00010581986
9.7407558e-05
8.6885393e-05
7.3840407e-05
5.7977823e-05
3.9329046e-05
1.6774493e-05
0.00013264074
0.00013078566
0.00012734939
0.00012307971
0.00011822422
0.00011261352
0.00010584186
9.7427581e-05
8.6901675e-05
7.3851844e-05
5.7984261e-05
3.9331366e-05
1.6774617e-05
0.00013265183
0.00013079786
0.00012736402
0.00012309753
0.00011824493
0.0001126358
0.00010586383
9.7447269e-05
8.691748e-05
7.3862813e-05
5.7990376e-05
3.9333547e-05
1.6774743e-05
0.0001326651
0.00013081212
0.00012738043
0.00012311667
0.00011826642
0.00011265835
0.00010588564
9.7466535e-05
8.6932739e-05
7.3873308e-05
5.7996165e-05
3.9335592e-05
1.6774872e-05
0.00013268028
0.00013082818
0.00012739835
0.00012313689
0.00011828849
0.00011268101
0.00010590719
9.7485293e-05
8.694743e-05
7.3883312e-05
5.8001627e-05
3.9337502e-05
1.6775002e-05
0.00013269708
0.00013084576
0.00012741753
0.00012315797
0.00011831096
0.00011270362
0.00010592835
9.7503469e-05
8.6961522e-05
7.3892809e-05
5.8006757e-05
3.9339278e-05
1.6775133e-05
0.00013271525
0.00013086461
0.00012743774
0.0001231797
0.00011833363
0.00011272603
0.00010594901
9.7521017e-05
8.6974983e-05
7.3901785e-05
5.8011554e-05
3.9340921e-05
1.6775263e-05
0.00013273453
0.00013088447
0.00012745873
0.00012320186
0.00011835634
0.00011274811
0.0001059691
9.7537883e-05
8.6987782e-05
7.391023e-05
5.8016015e-05
3.9342432e-05
1.6775392e-05
0.00013275469
0.00013090513
0.0001274803
0.00012322427
0.00011837892
0.00011276975
0.00010598854
9.7554025e-05
8.6999901e-05
7.3918137e-05
5.8020143e-05
3.934381e-05
1.6775519e-05
0.0001327755
0.00013092636
0.00012750223
0.00012324675
0.00011840124
0.00011279086
0.00010600728
9.756941e-05
8.7011326e-05
7.3925509e-05
5.8023943e-05
3.9345061e-05
1.6775643e-05
0.00013279677
0.00013094797
0.00012752436
0.00012326914
0.0001184232
0.00011281137
0.00010602527
9.7584019e-05
8.7022057e-05
7.3932352e-05
5.8027424e-05
3.9346189e-05
1.6775763e-05
0.00013281832
0.00013096978
0.00012754652
0.00012329134
0.00011844471
0.00011283121
0.00010604248
9.7597844e-05
8.7032101e-05
7.3938681e-05
5.8030597e-05
3.93472e-05
1.6775879e-05
0.00013283999
0.00013099165
0.0001275686
0.00012331323
0.00011846568
0.00011285035
0.0001060589
9.7610886e-05
8.704147e-05
7.3944513e-05
5.8033479e-05
3.9348103e-05
1.6775992e-05
0.00013286166
0.00013101346
0.00012759047
0.00012333473
0.00011848606
0.00011286874
0.00010607451
9.7623153e-05
8.7050184e-05
7.3949869e-05
5.8036087e-05
3.9348906e-05
1.67761e-05
0.00013288321
0.0001310351
0.00012761206
0.00012335577
0.0001185058
0.00011288637
0.00010608931
9.7634657e-05
8.7058262e-05
7.395477e-05
5.8038436e-05
3.9349616e-05
1.6776204e-05
0.00013290454
0.00013105648
0.00012763326
0.00012337627
0.00011852486
0.00011290321
0.00010610329
9.7645411e-05
8.7065724e-05
7.3959236e-05
5.8040541e-05
3.935024e-05
1.6776304e-05
0.00013292557
0.0001310775
0.00012765401
0.00012339618
0.00011854319
0.00011291924
0.00010611647
9.7655425e-05
8.7072586e-05
7.3963282e-05
5.8042412e-05
3.9350782e-05
1.67764e-05
0.00013294621
0.00013109809
0.00012767424
0.00012341545
0.00011856077
0.00011293446
0.00010612883
9.766471e-05
8.7078863e-05
7.3966924e-05
5.8044058e-05
3.9351244e-05
1.6776492e-05
0.00013296639
0.00013111818
0.00012769388
0.00012343402
0.00011857756
0.00011294884
0.00010614039
9.7673278e-05
8.7084571e-05
7.3970173e-05
5.8045488e-05
3.935163e-05
1.6776579e-05
0.00013298604
0.0001311377
0.00012771288
0.00012345186
0.00011859355
0.00011296238
0.00010615114
9.7681145e-05
8.7089726e-05
7.3973044e-05
5.804671e-05
3.9351941e-05
1.6776661e-05
0.0001330051
0.0001311566
0.0001277312
0.00012346894
0.00011860871
0.00011297509
0.0001061611
9.768833e-05
8.709435e-05
7.3975555e-05
5.8047737e-05
3.9352183e-05
1.6776738e-05
0.00013302352
0.00013117484