/*--------------------------------*- C++ -*----------------------------------*\
| =========                 |                                                 |
| \\      /  F ield         | OpenFOAM: The Open Source CFD Toolbox           |
|  \\    /   O peration     | Version:  2506                                  |
|   \\  /    A nd           | Website:  www.openfoam.com                      |
|    \\/     M anipulation  |                                                 |
\*---------------------------------------------------------------------------*/
FoamFile
{
    version     2.0;
    format      ascii;
    arch        "LSB;label=32;scalar=64";
    class       surfaceScalarField;
    location    "3000/water";
    object      phi;
}
// * * * * * * * * * * * * * * * * * * * * * * * * * * * * * * * * * * * * * //

dimensions      [1 0 -1 0 0 0 0];

oriented        oriented;

internalField   nonuniform List<scalar> 
4987
(
-6.9167736e-06
0.00085760419
-2.7656569e-05
0.0024926737
-6.1431121e-05
0.0040117068
-0.0001075903
0.0054211695
-0.00016565319
0.0067272392
-0.00023525167
0.0079357375
-0.00031606519
0.0090521266
-0.00040763483
0.010081416
-0.00050867084
0.011027654
-0.00061447105
0.011892066
-0.00070641237
0.012665127
-0.00069017742
0.01327532
0.013255156
-6.4252097e-06
0.00086402939
-2.4701717e-05
0.0025109502
-5.3973207e-05
0.0040409782
-9.3433184e-05
0.0054606295
-0.00014227852
0.0067760845
-0.00019970621
0.0079931652
-0.00026484255
0.0091172629
-0.00033648012
0.010153054
-0.00041221923
0.011103393
-0.0004856843
0.011965531
-0.00053558126
0.012715024
-0.00047144624
0.013211185
0.01278371
-6.163969e-06
0.00087019336
-2.380905e-05
0.0025285953
-5.2164898e-05
0.0040693341
-9.0528704e-05
0.0054989933
-0.00013822172
0.0068237776
-0.00019455674
0.0080495002
-0.00025870612
0.0091814123
-0.00032929751
0.010223645
-0.00040329175
0.011177387
-0.00047276141
0.012035
-0.00051220841
0.012754471
-0.00042242592
0.013121403
0.012361284
-6.1054147e-06
0.00087629878
-2.3924376e-05
0.0025464143
-5.2620538e-05
0.0040980303
-9.1395558e-05
0.0055377683
-0.00013947504
0.006871857
-0.00019604176
0.0081060669
-0.00026004543
0.009245416
-0.00032969289
0.010293293
-0.00040116834
0.011248863
-0.00046497904
0.012098811
-0.00049117541
0.012780667
-0.00037835998
0.013008587
0.011982924
-5.9919785e-06
0.00088229076
-2.3432324e-05
0.0025638546
-5.1502782e-05
0.0041261007
-8.9417765e-05
0.0055756833
-0.0001363976
0.0069188369
-0.00019157934
0.0081612487
-0.00025377584
0.0093076125
-0.0003208868
0.010360404
-0.00038849227
0.011316468
-0.0004456482
0.012155967
-0.00045837524
0.012793394
-0.00033102689
0.012881239
0.011651897
-5.8197985e-06
0.00088811056
-2.2720415e-05
0.0025807553
-4.9911333e-05
0.0041532916
-8.6629801e-05
0.0056124017
-0.00013209822
0.0069643053
-0.00018540983
0.0082145603
-0.00024524283
0.0093674455
-0.00030921061
0.010424371
-0.00037232044
0.011379578
-0.00042207813
0.012205725
-0.00042081904
0.012792135
-0.00028517408
0.012745594
0.011366723
-5.6148951e-06
0.00089372545
-2.1923414e-05
0.0025970638
-4.8158186e-05
0.0041795264
-8.35701e-05
0.0056478136
-0.00012737381
0.007008109
-0.00017860877
0.0082657952
-0.00023581604
0.0094246528
-0.00029633568
0.010484891
-0.00035458539
0.011437828
-0.00039630862
0.012247448
-0.00038067559
0.012776502
-0.00024201049
0.012606929
0.011124713
-5.4046946e-06
0.00089913014
-2.1106786e-05
0.0026127659
-4.6361915e-05
0.0042047815
-8.0433154e-05
0.0056818849
-0.00012252438
0.0070502002
-0.00017161842
0.0083148893
-0.0002261212
0.0094791555
-0.00028309872
0.010541869
-0.00033629459
0.011491024
-0.00036936757
0.012280521
-0.00033930313
0.012746438
-0.00020218079
0.012469807
0.010922532
-5.2040372e-06
0.00090433418
-2.0322449e-05
0.0026278843
-4.4632486e-05
0.0042290916
-7.7407183e-05
0.0057146596
-0.000117836
0.007090629
-0.00016484161
0.0083618949
-0.00021669175
0.0095310057
-0.00027015443
0.010595331
-0.00031814583
0.011539015
-0.00034189245
0.012304267
-0.00029797663
0.012702522
-0.0001662914
0.012338121
0.010756241
-5.0193754e-06
0.00090935356
-1.9599432e-05
0.0026424643
-4.3036007e-05
0.0042525281
-7.4608171e-05
0.0057462317
-0.00011348606
0.0071295069
-0.00015852683
0.0084069356
-0.0002078498
0.0095803287
-0.00025787593
0.010645357
-0.00030047882
0.011581618
-0.00031421626
0.012318005
-0.00025799659
0.012646302
-0.00013488814
0.012215013
0.010621352
-4.8544122e-06
0.00091420797
-1.8953518e-05
0.0026565634
-4.1607992e-05
0.0042751826
-7.2098328e-05
0.0057767221
-0.00010956978
0.0071669784
-0.00015280648
0.0084501723
-0.00019976083
0.009627283
-0.00024643025
0.010692027
-0.00028338283
0.01161857
-0.00028657101
0.012321193
-0.00022065197
0.012580383
-0.00010831398
0.012102675
0.010513039
-4.7104907e-06
0.00091891846
-1.838964e-05
0.0026702426
-4.0359024e-05
0.004297152
-6.9895773e-05
0.0058062588
-0.00010611414
0.0072031967
-0.00014771517
0.0084917734
-0.00019245611
0.0096720239
-0.00023580475
0.010735375
-0.00026674607
0.011649512
-0.00025920371
0.012313651
-0.00018698909
0.012508168
-8.6549235e-05
0.012002235
0.010426489
-4.5864894e-06
0.00092350495
-1.7903118e-05
0.0026835592
-3.9278552e-05
0.0043185274
-6.7981782e-05
0.0058349621
-0.00010308929
0.0072383042
-0.0001432058
0.0085318899
-0.00018585427
0.0097146724
-0.00022583645
0.010775358
-0.0002503233
0.011673999
-0.00023244679
0.012295774
-0.00015760689
0.012433329
-6.9195206e-05
0.011913823
0.010357294
-4.47971e-06
0.00092798466
-1.7483378e-05
0.0026965629
-3.8343222e-05
0.0043393873
-6.631536e-05
0.0058629342
-0.00010043089
0.0072724198
-0.00013918123
0.0085706402
-0.00017980338
0.0097552946
-0.00021627053
0.010811825
-0.0002338457
0.011691574
-0.00020673154
0.01226866
-0.0001326094
0.012359206
-5.5603111e-05
0.011836817
0.010301691
-4.3869483e-06
0.00093237161
-1.7117943e-05
0.0027092939
-3.7525518e-05
0.0043597948
-6.4848148e-05
0.0058902568
-9.8062773e-05
0.0073056344
-0.00013552609
0.0086081035
-0.00017412332
0.0097938918
-0.00020682319
0.010844525
-0.00021713162
0.011701882
-0.00018252415
0.012234053
-0.00011170489
0.012288387
-4.5044655e-05
0.011770157
0.010256646
-4.3051909e-06
0.0009366768
-1.6795059e-05
0.0027217838
-3.6799451e-05
0.0043797992
-6.3534222e-05
0.0059169916
-9.5911854e-05
0.007338012
-0.0001321276
0.0086443193
-0.00016863371
0.0098303979
-0.0001972305
0.010873121
-0.00020015793
0.01170481
-0.0001602209
0.012194115
-9.4372484e-05
0.012222539
-3.6838819e-05
0.011712623
0.010219807
-4.231915e-06
0.00094090871
-1.6504851e-05
0.0027340567
-3.6143084e-05
0.0043994375
-6.2334438e-05
0.005943183
-9.3914665e-05
0.0073695922
-0.00012888455
0.0086792892
-0.00016316714
0.0098646805
-0.00018728236
0.010897237
-0.00018307195
0.011700599
-0.00014006424
0.012151108
-8.001793e-05
0.012162492
-3.0412509e-05
0.011663018
0.010189395
-4.1651418e-06
0.00094507386
-1.6239539e-05
0.0027461311
-3.5538992e-05
0.0044187369
-6.1217189e-05
0.0059688612
-9.2018424e-05
0.0074003935
-0.00012570858
0.0087129793
-0.00015757395
0.0098965459
-0.00017684648
0.010916509
-0.00016614712
0.0116899
-0.0001221172
0.012107078
-6.8078241e-05
0.012108453
-2.5313026e-05
0.011620253
0.010164082
-4.1033745e-06
0.00094917723
-1.5993201e-05
0.0027580209
-3.4973725e-05
0.0044377174
-6.0157434e-05
0.0059940449
-9.0179432e-05
0.0074304155
-0.00012252186
0.0087453218
-0.00015172469
0.0099257487
-0.0001658846
0.010930669
-0.00014970629
0.011673722
-0.00010629217
0.012063664
-5.8071522e-05
0.012060233
-2.1196921e-05
0.011583378
0.010142885
-4.045497e-06
0.00095322273
-1.5761374e-05
0.0027697368
-3.4436919e-05
0.004456393
-5.9135102e-05
0.0060187431
-8.8360527e-05
0.0074596409
-0.00011925379
0.008776215
-0.00014551369
0.0099520086
-0.00015445694
0.010939612
-0.00013404494
0.01165331
-9.240639e-05
0.012022025
-4.9608158e-05
0.012017435
-1.7811015e-05
0.011551581
0.010125074
-3.9906706e-06
0.0009572134
-1.5540649e-05
0.0027812868
-3.3920384e-05
0.0044747727
-5.8133471e-05
0.0060429561
-8.6528477e-05
0.0074880359
-0.00011583835
0.0088055249
-0.00013886507
0.0099750353
-0.00014270997
0.010943457
-0.00011937991
0.01162998
-8.0236232e-05
0.011982881
-4.2382126e-05
0.01197958
-1.4972586e-05
0.011524171
0.010110101
-3.938246e-06
0.00096115164
-1.5328322e-05
0.0027926768
-3.3417324e-05
0.0044928617
-5.7137748e-05
0.0060666766
-8.4651726e-05
0.0075155499
-0.00011221299
0.0088330861
-0.00013174064
0.009994563
-0.00013084741
0.010942564
-0.00010583199
0.011604964
-6.9555657e-05
0.011946605
-3.6155819e-05
0.011946181
-1.2551511e-05
0.011500567
0.01009755
-3.8876948e-06
0.00096503934
-1.512212e-05
0.0028039113
-3.2921708e-05
0.0045106613
-5.6133919e-05
0.0060898888
-8.2698664e-05
0.0075421146
-0.00010831969
0.0088587072
-0.00012414735
0.010010391
-0.00011909198
0.010937509
-9.3435699e-05
0.011579308
-6.0156889e-05
0.011913326
-3.0745123e-05
0.011916769
-1.04555e-05
0.011480277
0.010087094
-3.8385568e-06
0.00096887789
-1.4919993e-05
0.0028149927
-3.2427783e-05
0.0045281691
-5.5107849e-05
0.0061125688
-8.0636493e-05
0.0075676433
-0.00010410814
0.0088821788
-0.00011614034
0.010022423
-0.00010764918
0.010929017
-8.2162716e-05
0.011553821
-5.1858103e-05
0.011883022
-2.6007008e-05
0.011890918
-8.6187512e-06
0.011462889
0.010078476
-3.7904019e-06
0.0009726683
-1.4719951e-05
0.0028259223
-3.1929704e-05
0.0045453789
-5.4044565e-05
0.0061346837
-7.8430837e-05
0.0075920295
-9.9540734e-05
0.0089032887
-0.00010781835
0.0100307
-9.6682481e-05
0.010917882
-7.1946844e-05
0.011529086
-4.4503959e-05
0.011855579
-2.1829744e-05
0.011868244
-6.9937044e-06
0.011448053
0.010071482
-3.7428001e-06
0.0009764111
-1.4519945e-05
0.0028366994
-3.1421227e-05
0.0045622801
-5.2927708e-05
0.0061561902
-7.6046256e-05
0.0076151481
-9.4598625e-05
0.0089218411
-9.9310962e-05
0.010035413
-8.6303355e-05
0.010904874
-6.2703775e-05
0.011505486
-3.7963129e-05
0.011830838
-1.8125324e-05
0.011848406
-5.5452871e-06
0.011435473
0.010065937
-3.6952978e-06
0.00098010639
-1.4317762e-05
0.0028473219
-3.0895462e-05
0.0045788578
-5.1739148e-05
0.0061770339
-7.3447799e-05
0.0076368567
-8.9287315e-05
0.0089376806
-9.0760481e-05
0.010036886
-7.6573762e-05
0.010890687
-5.4344019e-05
0.011483256
-3.2125049e-05
0.011808619
-1.4823682e-05
0.011831104
-4.2469963e-06
0.011424896
0.01006169
-3.6473963e-06
0.00098375379
-1.4110936e-05
0.0028577854
-3.0344641e-05
0.0045950915
-5.0458783e-05
0.006197148
-7.0603634e-05
0.0076570016
-8.3639732e-05
0.0089507167
-8.2303597e-05
0.01003555
-6.75158e-05
0.010875899
-4.6780163e-05
0.011462521
-2.6896728e-05
0.011788736
-1.1868357e-05
0.011816076
-3.0782576e-06
0.011416106
0.010058611
-3.5985288e-06
0.00098735232
-1.3896642e-05
0.0028680835
-2.9759896e-05
0.0046109548
-4.9064619e-05
0.0062164527
-6.7488584e-05
0.0076754255
-7.7715072e-05
0.0089609432
-7.4057338e-05
0.010031892
-5.9123309e-05
0.010860965
-3.9930396e-05
0.011443328
-2.2199856e-05
0.011771005
-9.2132832e-06
0.011803089
-2.0226606e-06
0.011408916
0.010056589
-3.5480256e-06
0.00099090034
-1.3671564e-05
0.0028782071
-2.9130949e-05
0.0046264142
-4.753311e-05
0.0062348549
-6.4087908e-05
0.0076919803
-7.1592543e-05
0.0089684478
-6.6111087e-05
0.010026411
-5.1371378e-05
0.010846226
-3.371897e-05
0.011425676
-1.7967094e-05
0.011755253
-6.8191909e-06
0.011791942
-1.0665726e-06
0.011403163
0.010055522
-3.4950998e-06
0.00099439544
-1.343182e-05
0.0028881438
-2.8446031e-05
0.0046414284
-4.5840364e-05
0.0062522492
-6.04013e-05
0.0077065413
-6.5362287e-05
0.0089734088
-5.852578e-05
0.010019574
-4.4224378e-05
0.010831924
-2.8076923e-05
0.011409528
-1.4140029e-05
0.011741316
-4.6491647e-06
0.011782451
-1.692252e-07
0.011398683
0.010055353
-3.4388796e-06
0.00099783432
-1.3173131e-05
0.002897878
-2.7692439e-05
0.0046559477
-4.3964994e-05
0.0062685218
-5.6447127e-05
0.0077190234
-5.9117558e-05
0.0089760792
-5.1340491e-05
0.010011797
-3.7645558e-05
0.010818229
-2.2947463e-05
0.01139483
-1.0674761e-05
0.011729044
-2.6810934e-06
0.011774457
6.6544996e-07
0.011395337
0.010056018
-3.378315e-06
0.0010012126
-1.2890438e-05
0.0029073902
-2.6855995e-05
0.0046699133
-4.1889311e-05
0.0062835551
-5.2260838e-05
0.0077293949
-5.2943429e-05
0.0089767618
-4.4574252e-05
0.010003428
-3.1595993e-05
0.010805251
-1.8279607e-05
0.011381514
-7.531169e-06
0.011718295
-8.8301927e-07
0.011767809
1.4049935e-06
0.011393049
0.010057423
-3.3120984e-06
0.0010045247
-1.2577617e-05
0.0029166557
-2.5921007e-05
0.0046832566
-3.9601334e-05
0.0062972354
-4.7891272e-05
0.0077376849
-4.6909584e-05
0.0089757801
-3.8229283e-05
0.0099947476
-2.6033922e-05
0.010793056
-1.4024263e-05
0.011369504
-4.6695302e-06
0.011708941
7.7466927e-07
0.011762365
2.066736e-06
0.011391757
0.01005949
-3.2386928e-06
0.0010077634
-1.2227714e-05
0.0029256447
-2.4871687e-05
0.0046959006
-3.7098718e-05
0.0063094625
-4.3397665e-05
0.0077439838
-4.1070813e-05
0.0089734533
-3.2299141e-05
0.0099859759
-2.0920725e-05
0.010781677
-1.0139943e-05
0.011358723
-2.0591231e-06
0.01170086
2.278005e-06
0.011758028
2.663881e-06
0.011391371
0.010062154
-3.1562771e-06
0.0010109197
-1.1832823e-05
0.0029343212
-2.3693038e-05
0.0047077608
-3.4390254e-05
0.0063201597
-3.8842816e-05
0.0077484364
-3.5466328e-05
0.0089700768
-2.6770485e-05
0.0099772801
-1.621881e-05
0.010771126
-6.5853416e-06
0.01134909
3.4752045e-07
0.011693927
3.6322539e-06
0.011754743
3.2023351e-06
0.011391801
0.010065356
-3.0627119e-06
0.0010139824
-1.1384178e-05
0.0029426427
-2.2372403e-05
0.0047187491
-3.1496502e-05
0.0063292838
-3.4287358e-05
0.0077512272
-3.0121866e-05
0.0089659113
-2.1625941e-05
0.0099687841
-1.1894065e-05
0.010761394
-3.3303329e-06
0.011340526
2.5510823e-06
0.011688046
4.8616634e-06
0.011752432
3.6898372e-06
0.011392972
0.010069046
-2.955534e-06
0.001016938
-1.0872488e-05
0.0029505597
-2.0901462e-05
0.004728778
-2.8448947e-05
0.0063368313
-2.9785799e-05
0.0077525641
-2.5052609e-05
0.0089611781
-1.6845482e-05
0.009960577
-7.9112362e-06
0.01075246
-3.267461e-07
0.011332941
4.5433872e-06
0.011683175
5.9753505e-06
0.011751
4.1313181e-06
0.011394816
0.010073178
-2.8319478e-06
0.0010197699
-1.0288359e-05
0.0029580161
-1.9277896e-05
0.0047377676
-2.5286903e-05
0.0063428403
-2.5383501e-05
0.0077526607
-2.0265007e-05
0.0089560596
-1.2407971e-05
0.00995272
-4.2418901e-06
0.010744293
2.4380181e-06
0.011326262
6.3569991e-06
0.011679256
6.9857699e-06
0.011750371
4.5313243e-06
0.011397271
0.010077709
-2.6889071e-06
0.0010224588
-9.6232116e-06
0.0029649504
-1.750713e-05
0.0047456515
-2.2054214e-05
0.0063473874
-2.1116476e-05
0.0077517229
-1.5759128e-05
0.0089507023
-8.2896804e-06
0.0099452505
-8.4671523e-07
0.01073685
4.9536746e-06
0.011320461
8.006487e-06
0.011676204
7.9030774e-06
0.011750475
4.8939922e-06
0.01140028
0.010082603
-2.5232504e-06
0.0010249821
-8.8703646e-06
0.0029712975
-1.5602912e-05
0.004752384
-1.8795224e-05
0.0063505797
-1.7011662e-05
0.0077499394
-1.153073e-05
0.0089452213
-4.470028e-06
0.0099381898
2.2909527e-06
0.01073009
7.2494999e-06
0.011315503
9.5068766e-06
0.011673946
8.7354351e-06
0.011751246
5.2223314e-06
0.011403793
0.010087825
-2.3319749e-06
0.001027314
-8.0264252e-06
0.0029769919
-1.3587009e-05
0.0047579446
-1.5551703e-05
0.0063525444
-1.3087798e-05
0.0077474755
-7.5700543e-06
0.0089397036
-9.1686923e-07
0.0099315366
5.1653337e-06
0.010724007
9.344851e-06
0.011311323
1.0871953e-05
0.011672419
9.4906084e-06
0.011752628
5.5193461e-06
0.011407764
0.010093345
-2.1126547e-06
0.0010294267
-7.0926612e-06
0.002981972
-1.1487681e-05
0.0047623396
-1.2360766e-05
0.0063534174
-9.3574522e-06
0.0077444721
-3.8681015e-06
0.0089342143
2.3811859e-06
0.0099252874
7.7971171e-06
0.010718591
1.1256317e-05
0.011307864
1.2113247e-05
0.011671562
1.0174995e-05
0.011754566
5.7874283e-06
0.011412152
0.010099132
-1.8640275e-06
0.0010312907
-6.0761523e-06
0.0029861841
-9.33748e-06
0.004765601
-9.2535968e-06
0.0063533336
-5.8255923e-06
0.0077410441
-4.0088453e-07
0.0089287895
5.4171398e-06
0.0099194693
1.0206072e-05
0.010713802
1.2999122e-05
0.011305071
1.3241026e-05
0.01167132
1.0794273e-05
0.011757013
6.0287229e-06
0.011416917
0.010105161
-1.5866526e-06
0.0010328774
-4.99024e-06
0.0029895877
-7.1706334e-06
0.0047677814
-6.2552777e-06
0.0063524182
-2.4927439e-06
0.0077372816
2.8316785e-06
0.0089234651
8.2067905e-06
0.0099140942
1.2408939e-05
0.0107096
1.4586636e-05
0.011302893
1.4264262e-05
0.011671643
1.135336e-05
0.011759924
6.2450671e-06
0.011422026
0.010111406
-1.2835184e-06
0.0010341609
-3.8541855e-06
0.0029921583
-5.0207841e-06
0.004768948
-3.3849495e-06
0.0063507824
6.4622032e-07
0.0077332504
5.8153761e-06
0.008918296
1.0765928e-05
0.0099091437
1.4420837e-05
0.010705945
1.6030824e-05
0.011301283
1.5190998e-05
0.011672482
1.1856697e-05
0.011763258
6.4381589e-06
0.011427444
0.010117844
-9.6035097e-07
0.0010351212
-2.6918243e-06
0.0029938898
-2.9183421e-06
0.0047691745
-6.5060579e-07
0.0063485146
3.5782587e-06
0.0077290216
8.562928e-06
0.0089133113
1.3108578e-05
0.009904598
1.6254531e-05
0.010702799
1.7341528e-05
0.011300196
1.6027681e-05
0.011673796
1.2307714e-05
0.011766978
6.6092159e-06
0.011433143
0.010124453
-6.2535321e-07
0.0010357466
-1.5291181e-06
0.0029947936
-8.8736304e-07
0.0047685327
1.929103e-06
0.0063456982
6.2873257e-06
0.0077246633
1.1084077e-05
0.0089085145
1.5247503e-05
0.0099004346
1.7921722e-05
0.010700125
1.8527749e-05
0.01129959
1.6780245e-05
0.011675544
1.2709625e-05
0.011771048
6.7594414e-06
0.011439093
0.010131213
-2.8821853e-07
0.0010360348
-3.9067612e-07
0.002994896
1.0457159e-06
0.0047670963
4.3266815e-06
0.0063424172
8.7771323e-06
0.0077202129
1.3387469e-05
0.0089039042
1.7193144e-05
0.0098966289
1.943185e-05
0.010697887
1.9596634e-05
0.011299425
1.7453261e-05
0.011677687
1.3064781e-05
0.011775437
6.8896221e-06
0.011445268
0.010138102
4.0781633e-08
0.001035994
6.9666012e-07
0.0029942401
2.848602e-06
0.0047649444
6.5296174e-06
0.0063387362
1.1049532e-05
0.007715693
1.5480317e-05
0.0088994734
1.8954083e-05
0.0098931551
2.0792569e-05
0.010696048
2.055386e-05
0.011299664
1.8050254e-05
0.011680191
1.3374897e-05
0.011780112
7.0002804e-06
0.011451643
0.010145102
3.5067482e-07
0.0010356434
1.7048698e-06
0.002992886
4.4970959e-06
0.0047621522
8.5307979e-06
0.0063347025
1.3105741e-05
0.007711118
1.736804e-05
0.0088952111
2.0536771e-05
0.0098899864
2.2009517e-05
0.010694575
2.1403445e-05
0.01130027
1.8573525e-05
0.011683021
1.3640918e-05
0.011785045
7.0915706e-06
0.011458192
0.010152194
6.3199422e-07
0.0010350114
2.6138002e-06
0.0029909041
5.9772046e-06
0.0047587888
1.0324526e-05
0.0063303552
1.4946306e-05
0.0077064963
1.9054294e-05
0.0088911031
2.1945556e-05
0.0098870952
2.3086324e-05
0.010693435
2.214772e-05
0.011301209
1.9024115e-05
0.011686144
1.3862968e-05
0.011790206
7.1632683e-06
0.011464892
0.010159357
8.7876368e-07
0.0010341326
3.4113851e-06
0.0029883715
7.2795558e-06
0.0047549206
1.1906921e-05
0.0063257278
1.6571517e-05
0.0077018317
2.0541374e-05
0.0088871333
2.3183024e-05
0.0098844535
2.402488e-05
0.010692593
2.278753e-05
0.011302446
1.9401935e-05
0.01168953
1.4040438e-05
0.011795568
7.2148005e-06
0.011471717
0.010166572
1.0879023e-06
0.0010330447
4.0915555e-06
0.0029853679
8.399513e-06
0.0047506126
1.3276261e-05
0.006320851
1.7981842e-05
0.0076971261
2.1830628e-05
0.0088832845
2.4250337e-05
0.0098820338
2.4825588e-05
0.010692017
2.3322401e-05
0.011303949
1.9705873e-05
0.011693146
1.4172045e-05
0.011801101
7.2452738e-06
0.011478644
0.010173817
1.258896e-06
0.0010317858
4.6536619e-06
0.0029819731
9.3370878e-06
0.0047459292
1.4433336e-05
0.0063157548
1.9178454e-05
0.007692381
2.292299e-05
0.00887954
2.5147701e-05
0.0098798091
2.5487727e-05
0.010691677
2.375081e-05
0.011305686
1.9933974e-05
0.011696963
1.4255942e-05
0.011806779
7.2535318e-06
0.011485647
0.010181071
1.3932137e-06
0.0010303926
5.101514e-06
0.0029782648
1.0096595e-05
0.0047409341
1.5381712e-05
0.0063104697
2.0163773e-05
0.0076875989
2.3819585e-05
0.0088758841
2.5874912e-05
0.0098777538
2.6009918e-05
0.010691542
2.4070548e-05
0.011307626
2.0083709e-05
0.01170095
1.4289888e-05
0.011812573
7.2382325e-06
0.011492698
0.010188309
1.493655e-06
0.0010288989
5.4422375e-06
0.0029743162
1.0686062e-05
0.0047356903
1.6127804e-05
0.0063050279
2.0941922e-05
0.0076827848
2.4522308e-05
0.0088723038
2.6431939e-05
0.0098758441
2.6390627e-05
0.010691584
2.4279124e-05
0.011309737
2.0152278e-05
0.011705077
1.4271463e-05
0.011818454
7.1979679e-06
0.011499772
0.010195507
1.5637641e-06
0.0010273352
5.6851354e-06
0.0029701949
1.111646e-05
0.004730259
1.668074e-05
0.0062994637
2.1519025e-05
0.0076779465
2.503434e-05
0.0088687884
2.6819486e-05
0.009874059
2.6628705e-05
0.010691774
2.4374236e-05
0.011311992
2.0136975e-05
0.011709314
1.4198311e-05
0.011824393
7.1313668e-06
0.011506839
0.010202638
1.6073732e-06
0.0010257278
5.8406808e-06
0.0029659615
1.1400862e-05
0.0047246988
1.7052027e-05
0.0062938125
2.1903313e-05
0.0076730952
2.5360502e-05
0.0088653313
2.7039461e-05
0.00987238
2.6723859e-05
0.01069209
2.4354193e-05
0.011314361
2.0035541e-05
0.011713633
1.4068396e-05
0.01183036
7.0372568e-06
0.01151387
0.010209676
1.6282856e-06
0.0010240995
5.9197148e-06
0.0029616701
1.1553613e-05
0.0047190649
1.725508e-05
0.006288111
2.2105052e-05
0.0076682452
2.5507461e-05
0.0088619288
2.7095333e-05
0.0098707921
2.6677074e-05
0.010692508
2.4218328e-05
0.01131682
1.9846512e-05
0.011718005
1.3880252e-05
0.011836326
6.9147687e-06
0.011520835
0.01021659
1.6300803e-06
0.0010224694
5.9328608e-06
0.0029573673
1.1589589e-05
0.0047134082
1.7304674e-05
0.0062823959
2.2136301e-05
0.0076634136
2.5483771e-05
0.0088585814
2.6992338e-05
0.0098692836
2.6490909e-05
0.01069301
2.3967317e-05
0.011319344
1.9569508e-05
0.011722403
1.3633204e-05
0.011842262
6.7634676e-06
0.011527705
0.010223354
1.6160076e-06
0.0010208534
5.8901379e-06
0.0029530932
1.1523597e-05
0.0047077747
1.7216381e-05
0.0062767032
2.2010572e-05
0.0076586194
2.529974e-05
0.0088552922
2.6737541e-05
0.0098678458
2.6169658e-05
0.010693578
2.3603389e-05
0.01132191
1.9205451e-05
0.0117268
1.3327542e-05
0.01184814
6.5834542e-06
0.011534449
0.010229937
1.5889493e-06
0.0010192645
5.8007386e-06
0.0029488814
1.1369916e-05
0.0047022055
1.7006062e-05
0.006271067
2.1742425e-05
0.0076538831
2.4967223e-05
0.0088520674
2.6339774e-05
0.0098664732
2.5719422e-05
0.010694198
2.3130467e-05
0.011324499
1.8756714e-05
0.011731174
1.2964642e-05
0.011853932
6.3754014e-06
0.011541038
0.010236313
1.5514165e-06
0.0010177131
5.672925e-06
0.0029447599
1.1141984e-05
0.0046967365
1.6689414e-05
0.0062655196
2.1347043e-05
0.0076492254
2.4499291e-05
0.0088489152
2.5809437e-05
0.0098651631
2.5148005e-05
0.010694859
2.2554139e-05
0.011327093
1.8227144e-05
0.011735501
1.2547005e-05
0.011859613
6.1406171e-06
0.011547445
0.010242453
1.5055716e-06
0.0010162075
5.5140104e-06
0.0029407515
1.0852206e-05
0.0046913983
1.6281626e-05
0.0062600902
2.0839841e-05
0.0076446672
2.390989e-05
0.0088458451
2.5158253e-05
0.0098639147
2.4464763e-05
0.010695553
2.1881585e-05
0.011329676
1.7622029e-05
0.011739761
1.2078239e-05
0.011865156
5.8810063e-06
0.011553642
0.010248334
1.4532605e-06
0.0010147542
5.3303935e-06
0.0029368743
1.0511855e-05
0.0046862168
1.5797109e-05
0.0062548049
2.0236101e-05
0.0076402282
2.321348e-05
0.0088428677
2.4398941e-05
0.0098627293
2.3680346e-05
0.010696272
2.1121373e-05
0.011332235
1.6947957e-05
0.011743934
1.1562972e-05
0.011870541
5.5990365e-06
0.011559606
0.010253933
1.3960486e-06
0.0010133582
5.1276216e-06
0.0029331428
1.0131048e-05
0.0046812134
1.5249319e-05
0.0062496866
1.9550678e-05
0.0076359269
2.242468e-05
0.0088399937
2.3544876e-05
0.0098616091
2.2806391e-05
0.01069701
2.028321e-05
0.011334758
1.6212611e-05
0.011748005
1.1006699e-05
0.011875747
5.2976549e-06
0.011565315
0.010259231
1.3352573e-06
0.0010120229
4.9104703e-06
0.0029295675
9.7187687e-06
0.0046764051
1.4650643e-05
0.0062447548
1.8797763e-05
0.0076317798
2.1557968e-05
0.0088372335
2.2609763e-05
0.0098605573
2.1855207e-05
0.010697765
1.937766e-05
0.011337235
1.5424536e-05
0.011751958
1.0415601e-05
0.011880756
4.9801713e-06
0.01157075
0.010264211
1.2719973e-06
0.0010107509
4.6830255e-06
0.0029261565
9.2829241e-06
0.0046718052
1.4012349e-05
0.0062400253
1.7990701e-05
0.0076278014
2.0627399e-05
0.0088345968
2.1607307e-05
0.0098595774
2.0839436e-05
0.010698532
1.8415808e-05
0.011339659
1.4592844e-05
0.011755781
9.7963251e-06
0.011885553
4.6501547e-06
0.011575897
0.010268861
1.2071993e-06
0.0010095437
4.4487657e-06
0.002922915
8.8304204e-06
0.0046674235
1.3344579e-05
0.0062355112
1.7141877e-05
0.0076240041
1.9646401e-05
0.0088320923
2.055095e-05
0.0098586728
1.9771763e-05
0.010699312
1.7408983e-05
0.011342022
1.3726955e-05
0.011759463
9.1557666e-06
0.011890124
4.3112825e-06
0.011580741
0.010273173
1.1416401e-06
0.0010084021
4.2106371e-06
0.002919846
8.3672442e-06
0.0046632669
1.265637e-05
0.0062312221
1.6262637e-05
0.0076203978
1.8627596e-05
0.0088297274
1.945362e-05
0.0098578468
1.8664618e-05
0.010700101
1.6368448e-05
0.011344318
1.2836318e-05
0.011762995
8.5008578e-06
0.011894459
3.9672419e-06
0.011585275
0.01027714
1.0759658e-06
0.0010073261
3.971123e-06
0.0029169508
7.8985517e-06
0.0046593395
1.19557e-05
0.0062271649
1.5363257e-05
0.0076169903
1.7582689e-05
0.0088275079
1.832755e-05
0.0098571019
1.7529961e-05
0.010700898
1.5305161e-05
0.011346543
1.1930179e-05
0.01176637
7.8383733e-06
0.011898551
3.6216109e-06
0.011589491
0.010280762
1.0107116e-06
0.0010063154
3.7323068e-06
0.0029142292
7.4287552e-06
0.004655643
1.1249562e-05
0.0062233441
1.4452953e-05
0.0076137869
1.6522401e-05
0.0088254385
1.7184149e-05
0.0098564402
1.6379099e-05
0.010701703
1.4229584e-05
0.011348692
1.1017389e-05
0.011769582
7.1747749e-06
0.011902394
3.2777529e-06
0.011593388
0.010284039
9.4631814e-07
0.0010053691
3.4959244e-06
0.0029116796
6.9616015e-06
0.0046521774
1.0544021e-05
0.0062197617
1.3539891e-05
0.007610791
1.5456413e-05
0.0088235219
1.603388e-05
0.0098558627
1.5222521e-05
0.010702515
1.3151475e-05
0.011350763
1.0106225e-05
0.011772627
6.5160859e-06
0.011905984
2.9387983e-06
0.011596966
0.010286978
8.8314625e-07
0.0010044859
3.2634148e-06
0.0029092993
6.5002535e-06
0.0046489405
9.8443025e-06
0.0062164176
1.2631253e-05
0.0076080041
1.4393396e-05
0.0088217598
1.488625e-05
0.0098553699
1.4069854e-05
0.010703331
1.2079847e-05
0.011352753
9.2043111e-06
0.011775503
5.8677958e-06
0.01190932
2.6075245e-06
0.011600226
0.010289586
8.2148852e-07
0.0010036644
3.0359588e-06
0.0029070849
6.0473542e-06
0.0046459291
9.1548632e-06
0.0062133101
1.1733276e-05
0.0076054257
1.3340995e-05
0.0088201521
1.374974e-05
0.0098549611
1.2929751e-05
0.010704151
1.1022806e-05
0.01135466
8.3184937e-06
0.011778207
5.2347981e-06
0.011912404
2.2863924e-06
0.011603174
0.010291872
7.6157983e-07
0.0010029029
2.8145167e-06
0.0029050319
5.6050943e-06
0.0046431386
8.4794684e-06
0.0062104357
1.0851326e-05
0.0076030538
1.230589e-05
0.0088186975
1.2631845e-05
0.0098546352
1.1809908e-05
0.010704973
9.987586e-06
0.011356483
7.4548377e-06
0.01178074
4.6213638e-06
0.011915238
1.9774849e-06
0.011605818
0.01029385
7.0360529e-07
0.0010021993
2.5998578e-06
0.0029031357
5.1752634e-06
0.0046405632
7.8212579e-06
0.0062077898
9.9899593e-06
0.0076008851
1.129383e-05
0.0088173937
1.1539072e-05
0.0098543899
1.0717032e-05
0.010705795
8.9804674e-06
0.011358219
6.6185755e-06
0.011783102
4.0311228e-06
0.011917825
1.6825421e-06
0.011608167
0.010295532
6.4770822e-07
0.0010015516
2.3925878e-06
0.0029013908
4.7593042e-06
0.0046381964
7.1828175e-06
0.0062053662
9.1529934e-06
0.0075989149
1.0309697e-05
0.0088162369
1.0476996e-05
0.0098542226
9.6568844e-06
0.010706615
8.0068293e-06
0.011359869
5.8141294e-06
0.011785295
3.4670735e-06
0.011920172
1.4029444e-06
0.011610231
0.010296935
5.9399581e-07
0.0010009576
2.193171e-06
0.0028997916
4.3583545e-06
0.0046360313
6.5662367e-06
0.0062031584
8.3435727e-06
0.0075971376
9.357565e-06
0.008815223
9.4502988e-06
0.0098541299
8.634307e-06
0.010707431
7.0711587e-06
0.011361432
5.0451275e-06
0.011787321
2.9316031e-06
0.011922286
1.1397345e-06
0.011612023
0.010298075
5.4254458e-07
0.001000415
2.0019501e-06
0.0028983322
3.9732844e-06
0.0046340599
5.9731628e-06
0.0062011585
7.5642297e-06
0.0075955465
8.4407571e-06
0.0088143464
8.46282e-06
0.0098541078
7.6532573e-06
0.010708241
6.1770752e-06
0.011362909
4.3144288e-06
0.011789183
2.4265139e-06
0.011924174
8.9365463e-07
0.011613556
0.010298968
4.93405e-07
0.00099992161
1.819164e-06
0.0028970064
3.6047357e-06
0.0046322743
5.4048584e-06
0.0061993584
6.8169544e-06
0.0075941344
7.5619231e-06
0.0088136015
7.5176363e-06
0.0098541521
6.7168897e-06
0.010709041
5.3274177e-06
0.011364298
3.6241867e-06
0.011790887
1.9530631e-06
0.011925845
6.6513169e-07
0.011614844
0.010299634
4.4660559e-07
0.000999475
1.6449627e-06
0.0028958081
3.2531497e-06
0.0046306662
4.8622438e-06
0.0061977493
6.1032471e-06
0.0075928934
6.7230932e-06
0.0088129816
6.6171091e-06
0.0098542581
5.8275968e-06
0.010709831
4.5242695e-06
0.011365601
2.9758951e-06
0.011792435
1.5120271e-06
0.011927309
4.5436756e-07
0.011615901
0.010300088
4.0215757e-07
0.00099907284
1.4794264e-06
0.0028947308
2.9188095e-06
0.0046292268
4.3459663e-06
0.0061963221
5.4242144e-06
0.0075918152
5.9258013e-06
0.00881248
5.7630362e-06
0.0098544209
4.9871837e-06
0.010710607
3.7691652e-06
0.011366819
2.3705902e-06
0.011793833
1.1038832e-06
0.011928575
2.614565e-07
0.011616744
0.010300349
3.6005753e-07
0.00099871279
1.3225759e-06
0.0028937683
2.6018624e-06
0.0046279475
3.856436e-06
0.0061950675
4.7806176e-06
0.007590891
5.1711396e-06
0.0088120895
4.9567073e-06
0.0098546353
4.1969301e-06
0.010711367
3.0631528e-06
0.011367953
1.8089678e-06
0.011795088
7.2918252e-07
0.011929655
8.8913741e-08
0.011617384
0.010300438
3.2028512e-07
0.0009983925
1.1743619e-06
0.0028929142
2.3022935e-06
0.0046268196
3.3937763e-06
0.006193976
4.1727871e-06
0.007590112
4.4596264e-06
0.0088118027
4.1987115e-06
0.0098548962
3.4573148e-06
0.010712108
2.406425e-06
0.011369004
1.2908628e-06
0.011796203
3.876416e-07
0.011930558
-6.2331418e-08
0.011617834
0.010300376
2.8280434e-07
0.0009981097
1.0346708e-06
0.0028921624
2.0199393e-06
0.0046258343
2.9578443e-06
0.0061930381
3.6006521e-06
0.0075894692
3.7912406e-06
0.0088116121
3.4889781e-06
0.0098551985
2.7680872e-06
0.010712829
1.7985039e-06
0.011369974
8.1593628e-07
0.011797186
8.1317226e-08
0.011931293