/*--------------------------------*- C++ -*----------------------------------*\
| =========                 |                                                 |
| \\      /  F ield         | OpenFOAM: The Open Source CFD Toolbox           |
|  \\    /   O peration     | Version:  2506                                  |
|   \\  /    A nd           | Website:  www.openfoam.com                      |
|    \\/     M anipulation  |                                                 |
\*---------------------------------------------------------------------------*/
FoamFile
{
    version     2.0;
    format      ascii;
    arch        "LSB;label=32;scalar=64";
    class       volScalarField;
    location    "3000/water";
    object      T;
}
// * * * * * * * * * * * * * * * * * * * * * * * * * * * * * * * * * * * * * //

dimensions      [0 0 0 1 0 0 0];

internalField   nonuniform List<scalar> 
2600
(
333.15
333.15
333.15
333.15
333.15
333.15
333.15
333.14999
333.14998
333.14991
333.14959
333.14803
333.13781
333.15
333.15
333.15
333.15
333.15
333.15
333.14999
333.14998
333.14992
333.14971
333.14893
333.14548
333.12873
333.15
333.15
333.15
333.15
333.15
333.15
333.14999
333.14995
333.14982
333.14942
333.14806
333.14256
333.1214
333.15
333.15
333.15
333.15
333.15
333.14999
333.14997
333.1499
333.14969
333.14905
333.14702
333.13944
333.11518
333.15
333.15
333.15
333.15
333.14999
333.14998
333.14994
333.14983
333.14951
333.14861
333.14583
333.13622
333.10979
333.15
333.15
333.15
333.15
333.14999
333.14997
333.14991
333.14974
333.14929
333.14809
333.14451
333.13299
333.10506
333.15
333.15
333.15
333.14999
333.14998
333.14995
333.14987
333.14963
333.14904
333.1475
333.14303
333.1298
333.10092
333.15
333.15
333.15
333.14999
333.14998
333.14993
333.14981
333.1495
333.14875
333.14683
333.1414
333.1267
333.09732
333.15
333.15
333.15
333.14999
333.14996
333.1499
333.14974
333.14935
333.14842
333.14607
333.13962
333.12373
333.09423
333.15
333.15
333.14999
333.14998
333.14995
333.14987
333.14966
333.14918
333.14804
333.14519
333.1377
333.12095
333.09161
333.15
333.15
333.14999
333.14997
333.14993
333.14982
333.14957
333.14898
333.14761
333.1442
333.13567
333.11837
333.08941
333.15
333.14999
333.14999
333.14996
333.14991
333.14978
333.14946
333.14875
333.14711
333.14307
333.13357
333.11601
333.08759
333.14999
333.14999
333.14998
333.14995
333.14988
333.14972
333.14934
333.14849
333.14654
333.14181
333.13145
333.11388
333.08607
333.14999
333.14999
333.14998
333.14994
333.14985
333.14965
333.1492
333.1482
333.14587
333.14041
333.12937
333.11196
333.08481
333.14999
333.14999
333.14997
333.14992
333.14982
333.14957
333.14904
333.14785
333.14511
333.13891
333.12738
333.11025
333.08376
333.14999
333.14998
333.14996
333.1499
333.14977
333.14948
333.14885
333.14745
333.14424
333.13734
333.12549
333.10871
333.08286
333.14999
333.14998
333.14995
333.14988
333.14972
333.14938
333.14864
333.14698
333.14325
333.13573
333.12372
333.10732
333.0821
333.14998
333.14997
333.14994
333.14985
333.14967
333.14926
333.14839
333.14644
333.14217
333.13412
333.12209
333.10608
333.08144
333.14998
333.14996
333.14992
333.14982
333.1496
333.14913
333.1481
333.14582
333.141
333.13255
333.12058
333.10495
333.08087
333.14997
333.14995
333.1499
333.14979
333.14953
333.14897
333.14776
333.14512
333.13977
333.13102
333.11918
333.10393
333.08036
333.14996
333.14994
333.14988
333.14974
333.14944
333.14879
333.14737
333.14433
333.1385
333.12956
333.11789
333.10299
333.07992
333.14995
333.14993
333.14986
333.14969
333.14934
333.14858
333.14692
333.14345
333.13721
333.12817
333.1167
333.10214
333.07951
333.14994
333.14991
333.14983
333.14964
333.14922
333.14833
333.14641
333.14251
333.13593
333.12686
333.11559
333.10135
333.07915
333.14993
333.1499
333.1498
333.14957
333.14909
333.14804
333.14582
333.14151
333.13467
333.12562
333.11457
333.10062
333.07882
333.14992
333.14988
333.14976
333.1495
333.14893
333.14771
333.14517
333.14047
333.13344
333.12445
333.11361
333.09995
333.07853
333.1499
333.14985
333.14972
333.14941
333.14875
333.14733
333.14445
333.13941
333.13224
333.12335
333.11271
333.09932
333.07826
333.14988
333.14983
333.14967
333.14931
333.14853
333.14689
333.14366
333.13834
333.1311
333.12231
333.11187
333.09874
333.07801
333.14986
333.14979
333.14961
333.14919
333.14828
333.1464
333.14283
333.13726
333.12999
333.12132
333.11109
333.09819
333.07778
333.14984
333.14976
333.14954
333.14905
333.148
333.14584
333.14196
333.1362
333.12894
333.12039
333.11035
333.09768
333.07757
333.14981
333.14971
333.14946
333.14888
333.14767
333.14523
333.14105
333.13516
333.12792
333.11951
333.10965
333.09719
333.07737
333.14977
333.14966
333.14936
333.14869
333.14729
333.14456
333.14013
333.13414
333.12695
333.11867
333.10899
333.09674
333.07719
333.14973
333.1496
333.14925
333.14847
333.14686
333.14385
333.1392
333.13315
333.12603
333.11788
333.10836
333.09631
333.07702
333.14968
333.14953
333.14912
333.14822
333.14637
333.14309
333.13826
333.13219
333.12514
333.11712
333.10776
333.09589
333.07686
333.14963
333.14945
333.14897
333.14792
333.14584
333.1423
333.13733
333.13125
333.12428
333.1164
333.1072
333.0955
333.07671
333.14956
333.14935
333.14879
333.14758
333.14525
333.14149
333.13642
333.13035
333.12347
333.11571
333.10665
333.09513
333.07656
333.14948
333.14924
333.14858
333.14719
333.14462
333.14066
333.13551
333.12948
333.12268
333.11504
333.10613
333.09478
333.07643
333.14939
333.14911
333.14834
333.14676
333.14395
333.13982
333.13463
333.12863
333.12193
333.11441
333.10564
333.09444
333.0763
333.14928
333.14895
333.14806
333.14627
333.14324
333.13898
333.13376
333.12781
333.1212
333.1138
333.10516
333.09411
333.07617
333.14914
333.14876
333.14774
333.14574
333.1425
333.13814
333.13291
333.12702
333.1205
333.11322
333.1047
333.09379
333.07605
333.14899
333.14854
333.14737
333.14516
333.14175
333.1373
333.13208
333.12625
333.11983
333.11265
333.10426
333.09349
333.07593
333.1488
333.14828
333.14695
333.14454
333.14097
333.13647
333.13127
333.12551
333.11918
333.11211
333.10384
333.0932
333.07582
333.14857
333.14798
333.14648
333.14388
333.14019
333.13565
333.13048
333.12478
333.11855
333.11158
333.10342
333.09291
333.0757
333.14831
333.14763
333.14596
333.14319
333.1394
333.13484
333.1297
333.12408
333.11794
333.11107
333.10303
333.09263
333.07559
333.148
333.14722
333.1454
333.14247
333.1386
333.13404
333.12895
333.1234
333.11735
333.11058
333.10264
333.09236
333.07548
333.14763
333.14677
333.14478
333.14173
333.13781
333.13325
333.12821
333.12274
333.11677
333.1101
333.10226
333.0921
333.07536
333.1472
333.14625
333.14413
333.14097
333.13701
333.13248
333.1275
333.1221
333.11622
333.10964
333.10189
333.09184
333.07525
333.14671
333.14567
333.14343
333.1402
333.13622
333.13172
333.1268
333.12147
333.11568
333.10919
333.10153
333.09158
333.07514
333.14614
333.14504
333.1427
333.13941
333.13544
333.13097
333.12611
333.12086
333.11515
333.10874
333.10118
333.09133
333.07502
333.14551
333.14435
333.14194
333.13862
333.13466
333.13024
333.12544
333.12027
333.11463
333.10831
333.10084
333.09108
333.07491
333.14481
333.14361
333.14115
333.13782
333.13388
333.12951
333.12478
333.11969
333.11413
333.10789
333.1005
333.09084
333.07479
333.14404
333.14282
333.14034
333.13701
333.13311
333.1288
333.12414
333.11912
333.11363
333.10747
333.10017
333.0906
333.07467
333.14322
333.14198
333.13951
333.13621
333.13235
333.1281
333.12351
333.11856
333.11315
333.10707
333.09984
333.09036
333.07455
333.14234
333.14111
333.13866
333.1354
333.1316
333.12741
333.12288
333.11801
333.11268
333.10667
333.09952
333.09012
333.07442
333.14142
333.14021
333.1378
333.13458
333.13085
333.12672
333.12227
333.11747
333.11221
333.10627
333.09919
333.08988
333.07429
333.14047
333.13929
333.13692
333.13377
333.1301
333.12605
333.12167
333.11694
333.11175
333.10588
333.09888
333.08964
333.07415
333.13949
333.13834
333.13604
333.13296
333.12936
333.12538
333.12108
333.11641
333.11129
333.1055
333.09856
333.0894
333.07402
333.1385
333.13739
333.13515
333.13214
333.12862
333.12472
333.12049
333.1159
333.11084
333.10511
333.09825
333.08916
333.07387
333.1375
333.13642
333.13426
333.13133
333.12789
333.12407
333.11991
333.11538
333.1104
333.10473
333.09793
333.08891
333.07372
333.13649
333.13546
333.13336
333.13052
333.12717
333.12342
333.11933
333.11488
333.10996
333.10436
333.09762
333.08867
333.07357
333.13548
333.13449
333.13247
333.12972
333.12644
333.12278
333.11876
333.11437
333.10952
333.10398
333.09731
333.08842
333.07341
333.13448
333.13353
333.13159
333.12892
333.12573
333.12214
333.11819
333.11388
333.10909
333.10361
333.09699
333.08817
333.07324
333.13349
333.13258
333.13071
333.12812
333.12501
333.1215
333.11763
333.11338
333.10865
333.10323
333.09668
333.08792
333.07307
333.13252
333.13164
333.12983
333.12733
333.12431
333.12087
333.11707
333.11289
333.10822
333.10286
333.09636
333.08766
333.07289
333.13155
333.13071
333.12897
333.12655
333.1236
333.12024
333.11651
333.11239
333.10779
333.10248
333.09604
333.0874
333.0727
333.1306
333.12979
333.12812
333.12577
333.12291
333.11962
333.11596
333.1119
333.10736
333.10211
333.09571
333.08713
333.0725
333.12967
333.12889
333.12728
333.12501
333.12222
333.119
333.11541
333.11142
333.10692
333.10173
333.09539
333.08686
333.0723
333.12875
333.12801
333.12645
333.12425
333.12153
333.11839
333.11486
333.11093
333.10649
333.10135
333.09506
333.08658
333.07209
333.12786
333.12714
333.12563
333.1235
333.12086
333.11778
333.11432
333.11044
333.10606
333.10097
333.09472
333.08629
333.07186
333.12698
333.12628
333.12483
333.12276
333.12019
333.11718
333.11378
333.10996
333.10563
333.10058
333.09439
333.086
333.07163
333.12612
333.12545
333.12404
333.12203
333.11952
333.11658
333.11324
333.10947
333.10519
333.10019
333.09404
333.08571
333.07139
333.12527
333.12463
333.12327
333.12132
333.11887
333.11598
333.1127
333.10899
333.10476
333.0998
333.0937
333.0854
333.07115
333.12445
333.12383
333.12251
333.12061
333.11822
333.1154
333.11217
333.1085
333.10432
333.09941
333.09335
333.08509
333.07089
333.12364
333.12304
333.12176
333.11991
333.11758
333.11481
333.11163
333.10802
333.10388
333.09902
333.09299
333.08478
333.07062
333.12286
333.12227
333.12103
333.11923
333.11694
333.11423
333.1111
333.10754
333.10345
333.09862
333.09263
333.08445
333.07034
333.12208
333.12151
333.12031
333.11855
333.11632
333.11366
333.11058
333.10706
333.10301
333.09822
333.09226
333.08412
333.07006
333.12133
333.12077
333.1196
333.11789
333.1157
333.11309
333.11005
333.10658
333.10256
333.09781
333.09189
333.08379
333.06977
333.12059
333.12005
333.1189
333.11723
333.11509
333.11252
333.10953
333.1061
333.10212
333.0974
333.09152
333.08344
333.06946
333.11986
333.11934
333.11822
333.11659
333.11449
333.11196
333.10901
333.10562
333.10168
333.09699
333.09114
333.0831
333.06915
333.11916
333.11864
333.11755
333.11595
333.11389
333.1114
333.1085
333.10514
333.10123
333.09658
333.09075
333.08274
333.06884
333.11846
333.11796
333.11689
333.11532
333.1133
333.11085
333.10798
333.10466
333.10079
333.09616
333.09037
333.08238
333.06851
333.11778
333.11729
333.11624
333.11471
333.11272
333.11031
333.10747
333.10418
333.10034
333.09574
333.08997
333.08201
333.06818
333.11711
333.11663
333.11561
333.1141
333.11214
333.10977
333.10696
333.10371
333.09989
333.09532
333.08958
333.08164
333.06783
333.11645
333.11598
333.11498
333.1135
333.11157
333.10923
333.10646
333.10323
333.09944
333.0949
333.08917
333.08127
333.06749
333.11581
333.11535
333.11436
333.11291
333.11101
333.10869
333.10595
333.10275
333.09899
333.09447
333.08877
333.08088
333.06713
333.11517
333.11472
333.11375
333.11232
333.11045
333.10816
333.10545
333.10228
333.09854
333.09404
333.08836
333.0805
333.06677
333.11455
333.11411
333.11315
333.11174
333.1099
333.10764
333.10495
333.1018
333.09809
333.09361
333.08795
333.0801
333.0664
333.11394
333.1135
333.11256
333.11117
333.10935
333.10712
333.10445
333.10133
333.09763
333.09318
333.08753
333.07971
333.06603
333.11334
333.11291
333.11198
333.11061
333.10881
333.1066
333.10396
333.10085
333.09718
333.09274
333.08712
333.07931
333.06565
333.11274
333.11232
333.11141
333.11005
333.10827
333.10608
333.10346
333.10038
333.09672
333.0923
333.08669
333.0789
333.06527
333.11216
333.11174
333.11084
333.1095
333.10774
333.10557
333.10297
333.0999
333.09627
333.09186
333.08627
333.07849
333.06488
333.11158
333.11117
333.11028
333.10896
333.10721
333.10506
333.10248
333.09943
333.09581
333.09142
333.08584
333.07808
333.06449
333.11101
333.1106
333.10972
333.10842
333.10669
333.10455
333.10199
333.09896
333.09535
333.09098
333.08541
333.07767
333.06409
333.11045
333.11004
333.10918
333.10788
333.10617
333.10405
333.1015
333.09848
333.09489
333.09053
333.08498
333.07725
333.06369
333.10989
333.10949
333.10863
333.10735
333.10565
333.10355
333.10102
333.09801
333.09443
333.09009
333.08455
333.07683
333.06329
333.10934
333.10895
333.1081
333.10682
333.10514
333.10305
333.10053
333.09754
333.09397
333.08964
333.08411
333.0764
333.06288
333.1088
333.10841
333.10757
333.1063
333.10463
333.10255
333.10005
333.09707
333.09351
333.08919
333.08367
333.07598
333.06246
333.10826
333.10788
333.10704
333.10579
333.10413
333.10206
333.09956
333.0966
333.09305
333.08874
333.08323
333.07555
333.06205
333.10773
333.10735
333.10652
333.10527
333.10362
333.10156
333.09908
333.09612
333.09259
333.08829
333.08279
333.07512
333.06163
333.1072
333.10682
333.106
333.10476
333.10312
333.10107
333.0986
333.09565
333.09213
333.08783
333.08235
333.07468
333.06121
333.10668
333.1063
333.10548
333.10425
333.10262
333.10058
333.09812
333.09518
333.09167
333.08738
333.0819
333.07425
333.06079
333.10616
333.10579
333.10497
333.10375
333.10213
333.1001
333.09764
333.09471
333.09121
333.08693
333.08146
333.07381
333.06036
333.10565
333.10527
333.10446
333.10325
333.10163
333.09961
333.09716
333.09424
333.09074
333.08647
333.08101
333.07337
333.05993
333.10514
333.10477
333.10396
333.10275
333.10114
333.09913
333.09669
333.09377
333.09028
333.08601
333.08056
333.07293
333.0595
333.10463
333.10426
333.10346
333.10225
333.10065
333.09864
333.09621
333.0933
333.08982
333.08556
333.08011
333.07249
333.05907
333.10413
333.10376
333.10296
333.10176
333.10016
333.09816
333.09573
333.09283
333.08935
333.0851
333.07966
333.07205
333.05863
333.10363
333.10326
333.10246
333.10127
333.09967
333.09768
333.09526
333.09236
333.08889
333.08464
333.07921
333.0716
333.0582
333.10313
333.10276
333.10197
333.10078
333.09919
333.0972
333.09478
333.09189
333.08842
333.08418
333.07876
333.07116
333.05776
333.10263
333.10227
333.10148
333.10029
333.09871
333.09672
333.09431
333.09142
333.08796
333.08372
333.0783
333.07071
333.05732
333.10214
333.10178
333.10099
333.0998
333.09822
333.09624
333.09383
333.09095
333.08749
333.08326
333.07785
333.07026
333.05687
333.10165
333.10129
333.1005
333.09932
333.09774
333.09576
333.09336
333.09048
333.08703
333.0828
333.07739
333.06981
333.05643
333.10116
333.1008
333.10002
333.09884
333.09726
333.09529
333.09289
333.09001
333.08656
333.08234
333.07694
333.06936
333.05599
333.10068
333.10032
333.09953
333.09835
333.09678
333.09481
333.09241
333.08954
333.0861
333.08188
333.07648
333.06891
333.05554
333.10019
333.09983
333.09905
333.09787
333.0963
333.09433
333.09194
333.08907
333.08563
333.08142
333.07602
333.06846
333.05509
333.09971
333.09935
333.09857
333.09739
333.09583
333.09386
333.09147
333.08861
333.08517
333.08096
333.07557
333.068
333.05465
333.09923
333.09887
333.09809
333.09692
333.09535
333.09338
333.091
333.08814
333.0847
333.0805
333.07511
333.06755
333.0542
333.09874
333.09839
333.09761
333.09644
333.09487
333.09291
333.09053
333.08767
333.08424
333.08003
333.07465
333.0671
333.05374
333.09826
333.09791
333.09713
333.09596
333.0944
333.09244
333.09005
333.0872
333.08377
333.07957
333.07419
333.06664
333.05329
333.09779
333.09743
333.09665
333.09548
333.09392
333.09196
333.08958
333.08673
333.08331
333.07911
333.07373
333.06618
333.05284
333.09731
333.09695
333.09618
333.09501
333.09345
333.09149
333.08911
333.08626
333.08284
333.07865
333.07327
333.06573
333.05239
333.09683
333.09647
333.0957
333.09453
333.09297
333.09102
333.08864
333.08579
333.08237
333.07818
333.07281
333.06527
333.05193
333.09636
333.096
333.09522
333.09406
333.0925
333.09055
333.08817
333.08532
333.08191
333.07772
333.07235
333.06481
333.05148
333.09588
333.09552
333.09475
333.09358
333.09203
333.09007
333.0877
333.08486
333.08144
333.07726
333.07189
333.06435
333.05102
333.0954
333.09505
333.09428
333.09311
333.09156
333.0896
333.08723
333.08439
333.08097
333.07679
333.07143
333.06389
333.05056
333.09493
333.09457
333.0938
333.09264
333.09108
333.08913
333.08676
333.08392
333.08051
333.07633
333.07097
333.06343
333.0501
333.09446
333.0941
333.09333
333.09216
333.09061
333.08866
333.08629
333.08345
333.08004
333.07586
333.0705
333.06297
333.04964
333.09398
333.09363
333.09286
333.09169
333.09014
333.08819
333.08582
333.08298
333.07957
333.0754
333.07004
333.06251
333.04918
333.09351
333.09315
333.09238
333.09122
333.08967
333.08772
333.08535
333.08251
333.07911
333.07493
333.06958
333.06205
333.04872
333.09304
333.09268
333.09191
333.09075
333.0892
333.08725
333.08488
333.08205
333.07864
333.07447
333.06911
333.06159
333.04826
333.09256
333.09221
333.09144
333.09028
333.08872
333.08678
333.08441
333.08158
333.07817
333.074
333.06865
333.06113
333.04779
333.09209
333.09174
333.09097
333.0898
333.08825
333.08631
333.08394
333.08111
333.07771
333.07354
333.06819
333.06066
333.04733
333.09162
333.09126
333.09049
333.08933
333.08778
333.08583
333.08347
333.08064
333.07724
333.07307
333.06772
333.0602
333.04686
333.09115
333.09079
333.09002
333.08886
333.08731
333.08536
333.083
333.08017
333.07677
333.07261
333.06726
333.05974
333.0464
333.09068
333.09032
333.08955
333.08839
333.08684
333.08489
333.08253
333.0797
333.07631
333.07214
333.06679
333.05927
333.04593
333.0902
333.08985
333.08908
333.08792
333.08637
333.08442
333.08206
333.07923
333.07584
333.07167
333.06633
333.05881
333.04546
333.08973
333.08938
333.08861
333.08745
333.0859
333.08395
333.08159
333.07877
333.07537
333.07121
333.06586
333.05834
333.04499
333.08926
333.08891
333.08814
333.08697
333.08543
333.08348
333.08112
333.0783
333.0749
333.07074
333.06539
333.05787
333.04452
333.08879
333.08843
333.08766
333.0865
333.08495
333.08301
333.08065
333.07783
333.07443
333.07027
333.06493
333.05741
333.04405
333.08832
333.08796
333.08719
333.08603
333.08448
333.08254
333.08018
333.07736
333.07397
333.0698
333.06446
333.05694
333.04358
333.08785
333.08749
333.08672
333.08556
333.08401
333.08207
333.07971
333.07689
333.0735
333.06934
333.06399
333.05647
333.04311
333.08737
333.08702
333.08625
333.08509
333.08354
333.0816
333.07924
333.07642
333.07303
333.06887
333.06352
333.056
333.04263
333.0869
333.08655
333.08578
333.08462
333.08307
333.08113
333.07877
333.07595
333.07256
333.0684
333.06305
333.05553
333.04216
333.08643
333.08608
333.08531
333.08415
333.0826
333.08066
333.0783
333.07548
333.07209
333.06793
333.06259
333.05506
333.04168
333.08596
333.0856
333.08483
333.08368
333.08213
333.08019
333.07783
333.07501
333.07162
333.06746
333.06212
333.05458
333.0412
333.08549
333.08513
333.08436
333.0832
333.08166
333.07972
333.07736
333.07454
333.07115
333.06699
333.06164
333.05411
333.04072
333.08502
333.08466
333.08389
333.08273
333.08119
333.07925
333.07689
333.07407
333.07068
333.06652
333.06117
333.05364
333.04024
333.08454
333.08419
333.08342
333.08226
333.08071
333.07878
333.07642
333.0736
333.07021
333.06605
333.0607
333.05316
333.03976
333.08407
333.08372
333.08295
333.08179
333.08024
333.0783
333.07595
333.07313
333.06974
333.06558
333.06023
333.05269
333.03928
333.0836
333.08325
333.08248
333.08132
333.07977
333.07783
333.07548
333.07266
333.06927
333.06511
333.05976
333.05221
333.03879
333.08313
333.08277
333.082
333.08085
333.0793
333.07736
333.07501
333.07219
333.0688
333.06464
333.05928
333.05173
333.0383
333.08266
333.0823
333.08153
333.08037
333.07883
333.07689
333.07454
333.07172
333.06833
333.06416
333.05881
333.05126
333.03782
333.08218
333.08183
333.08106
333.0799
333.07836
333.07642
333.07406
333.07124
333.06785
333.06369
333.05833
333.05078
333.03733
333.08171
333.08136
333.08059
333.07943
333.07788
333.07595
333.07359
333.07077
333.06738
333.06322
333.05786
333.0503
333.03684
333.08124
333.08088
333.08011
333.07896
333.07741
333.07547
333.07312
333.0703
333.06691
333.06274
333.05738
333.04982
333.03634
333.08077
333.08041
333.07964
333.07848
333.07694
333.075
333.07265
333.06983
333.06643
333.06227
333.0569
333.04933
333.03585
333.08029
333.07994
333.07917
333.07801
333.07647
333.07453
333.07218
333.06935
333.06596
333.06179
333.05642
333.04885
333.03535
333.07982
333.07947
333.0787
333.07754
333.07599
333.07406
333.0717
333.06888
333.06549
333.06132
333.05595
333.04836
333.03485
333.07935
333.07899
333.07822
333.07707
333.07552
333.07358
333.07123
333.06841
333.06501
333.06084
333.05547
333.04788
333.03435
333.07887
333.07852
333.07775
333.07659
333.07505
333.07311
333.07076
333.06793
333.06454
333.06036
333.05498
333.04739
333.03385
333.0784
333.07805
333.07728
333.07612
333.07457
333.07264
333.07028
333.06746
333.06406
333.05988
333.0545
333.0469
333.03335
333.07793
333.07757
333.0768
333.07565
333.0741
333.07216
333.06981
333.06698
333.06358
333.0594
333.05402
333.04641
333.03284
333.07745
333.0771
333.07633
333.07517
333.07363
333.07169
333.06933
333.06651
333.06311
333.05892
333.05353
333.04592
333.03234
333.07698
333.07663
333.07586
333.0747
333.07315
333.07121
333.06886
333.06603
333.06263
333.05844
333.05305
333.04543
333.03182
333.07651
333.07615
333.07538
333.07422
333.07268
333.07074
333.06838
333.06555
333.06215
333.05796
333.05256
333.04493
333.03131
333.07603
333.07568
333.07491
333.07375
333.0722
333.07026
333.06791
333.06508
333.06167
333.05748
333.05207
333.04444
333.0308
333.07556
333.0752
333.07443
333.07328
333.07173
333.06979
333.06743
333.0646
333.06119
333.05699
333.05159
333.04394
333.03028
333.07508
333.07473
333.07396
333.0728
333.07125
333.06931
333.06695
333.06412
333.06071
333.05651
333.0511
333.04344
333.02976
333.07461
333.07425
333.07348
333.07233
333.07078
333.06884
333.06647
333.06364
333.06023
333.05602
333.0506
333.04294
333.02924
333.07413
333.07378
333.07301
333.07185
333.0703
333.06836
333.066
333.06316
333.05974
333.05554
333.05011
333.04243
333.02871
333.07366
333.0733
333.07253
333.07137
333.06983
333.06788
333.06552
333.06268
333.05926
333.05505
333.04962
333.04193
333.02818
333.07318
333.07283
333.07206
333.0709
333.06935
333.0674
333.06504
333.0622
333.05878
333.05456
333.04912
333.04142
333.02765
333.07271
333.07235
333.07158
333.07042
333.06887
333.06693
333.06456
333.06172
333.05829
333.05407
333.04862
333.04091
333.02711
333.07223
333.07188
333.07111
333.06994
333.06839
333.06645
333.06408
333.06123
333.0578
333.05358
333.04813
333.0404
333.02658
333.07175
333.0714
333.07063
333.06947
333.06792
333.06597
333.0636
333.06075
333.05732
333.05309
333.04762
333.03989
333.02603
333.07128
333.07092
333.07015
333.06899
333.06744
333.06549
333.06311
333.06026
333.05683
333.05259
333.04712
333.03937
333.02549
333.0708
333.07045
333.06967
333.06851
333.06696
333.06501
333.06263
333.05978
333.05634
333.0521
333.04662
333.03885
333.02494
333.07032
333.06997
333.0692
333.06803
333.06648
333.06452
333.06215
333.05929
333.05585
333.0516
333.04611
333.03833
333.02439
333.06985
333.06949
333.06872
333.06755
333.066
333.06404
333.06166
333.0588
333.05536
333.0511
333.0456
333.03781
333.02383
333.06937
333.06901
333.06824
333.06707
333.06552
333.06356
333.06118
333.05832
333.05486
333.0506
333.04509
333.03728
333.02327
333.06889
333.06853
333.06776
333.06659
333.06504
333.06308
333.06069
333.05783
333.05437
333.0501
333.04458
333.03675
333.0227
333.06841
333.06805
333.06728
333.06611
333.06455
333.06259
333.06021
333.05734
333.05387
333.0496
333.04407
333.03622
333.02213
333.06793
333.06758
333.0668
333.06563
333.06407
333.06211
333.05972
333.05684
333.05337
333.04909
333.04355
333.03568
333.02155
333.06745
333.0671
333.06632
333.06515
333.06359
333.06162
333.05923
333.05635
333.05288
333.04859
333.04303
333.03514
333.02097
333.06697
333.06661
333.06584
333.06467
333.0631
333.06114
333.05874
333.05586
333.05238
333.04808
333.04251
333.0346
333.02039
333.06649
333.06613
333.06536
333.06418
333.06262
333.06065
333.05825
333.05536
333.05187
333.04757
333.04199
333.03406
333.0198
333.06601
333.06565
333.06487
333.0637
333.06213
333.06016
333.05776
333.05486
333.05137
333.04705
333.04146
333.03351
333.0192
333.06553
333.06517
333.06439
333.06322
333.06164
333.05967
333.05726
333.05437
333.05086
333.04654
333.04093
333.03295
333.01859
333.06504
333.06469
333.06391
333.06273
333.06116
333.05918
333.05677
333.05387
333.05036
333.04602
333.0404
333.03239
333.01798
333.06456
333.0642
333.06342
333.06224
333.06067
333.05869
333.05627
333.05336
333.04985
333.0455
333.03986
333.03183
333.01736
333.06408
333.06372
333.06294
333.06176
333.06018
333.05819
333.05577
333.05286
333.04934
333.04498
333.03932
333.03126
333.01673
333.06359
333.06323
333.06245
333.06127
333.05969
333.0577
333.05528
333.05236
333.04882
333.04445
333.03878
333.03069
333.01609
333.06311
333.06275
333.06196
333.06078
333.0592
333.05721
333.05478
333.05185
333.04831
333.04392
333.03823
333.03011
333.01545
333.06262
333.06226
333.06147
333.06029
333.0587
333.05671
333.05427
333.05134
333.04779
333.04339
333.03768
333.02953
333.01479
333.06213
333.06177
333.06099
333.0598
333.05821
333.05621
333.05377
333.05083
333.04727
333.04286
333.03713
333.02894
333.01412
333.06165
333.06128
333.0605
333.05931
333.05772
333.05571
333.05327
333.05032
333.04675
333.04232
333.03657
333.02834
333.01344
333.06116
333.06079
333.06
333.05881
333.05722
333.05521
333.05276
333.0498
333.04622
333.04178
333.036
333.02773
333.01274
333.06067
333.0603
333.05951
333.05832
333.05672
333.05471
333.05225
333.04928
333.04569
333.04123
333.03543
333.02712
333.01202
333.06018
333.05981
333.05902
333.05782
333.05622
333.0542
333.05174
333.04876
333.04516
333.04068
333.03485
333.02649
333.01128
333.05968
333.05932
333.05852
333.05733
333.05572
333.0537
333.05122
333.04824
333.04462
333.04013
333.03426
333.02585
333.01051
333.05919
333.05883
333.05803
333.05683
333.05522
333.05319
333.05071
333.04771
333.04408
333.03956
333.03367
333.02519
333.00968
333.0587
333.05833
333.05753
333.05633
333.05472
333.05268
333.05019
333.04719
333.04354
333.03899
333.03306
333.0245
333.00877
)
;

boundaryField
{
    water_inlet
    {
        type            fixedValue;
        value           uniform 333.15;
    }
    water_outlet
    {
        type            zeroGradient;
    }
    water_wedge1
    {
        type            wedge;
    }
    water_wedge2
    {
        type            wedge;
    }
    water_to_rock
    {
        type            compressible::turbulentTemperatureRadCoupledMixed;
        refValue        nonuniform List<scalar> 
200
(
315.46782
319.07539
320.87201
321.95931
322.70984
323.27335
323.72046
324.08909
324.40167
324.67245
324.91098
325.12391
325.31601
325.49085
325.65111
325.79891
325.9359
326.06344
326.18263
326.29439
326.39948
326.49857
326.59219
326.68082
326.76488
326.84472
326.92065
326.99294
327.06185
327.12759
327.19035
327.25031
327.30762
327.36244
327.4149
327.4651
327.51318
327.55922
327.60333
327.6456
327.6861
327.72492
327.76213
327.7978
327.83199
327.86476
327.89618
327.9263
327.95516
327.98283
328.00934
328.03475
328.05909
328.08241
328.10474
328.12614
328.14662
328.16623
328.18499
328.20295
328.22013
328.23656
328.25227
328.26729
328.28163
328.29534
328.30842
328.32091
328.33283
328.3442
328.35504
328.36536
328.3752
328.38456
328.39348
328.40195
328.41001
328.41766
328.42493
328.43182
328.43836
328.44455
328.45041
328.45595
328.46119
328.46613
328.4708
328.47519
328.47931
328.48319
328.48683
328.49023
328.49341
328.49637
328.49913
328.50168
328.50404
328.50622
328.50822
328.51004
328.51169
328.51318
328.51452
328.5157
328.51673
328.51762
328.51837
328.51899
328.51947
328.51982
328.52005
328.52015
328.52013
328.51999
328.51974
328.51937
328.51888
328.51829
328.51758
328.51676
328.51583
328.51479
328.51364
328.51238
328.51101
328.50952
328.50793
328.50622
328.5044
328.50247
328.50042
328.49824
328.49595
328.49353
328.49099
328.48832
328.48552
328.48258
328.4795
328.47628
328.47292
328.4694
328.46573
328.46189
328.45789
328.45372
328.44938
328.44485
328.44013
328.43521
328.43009
328.42476
328.41921
328.41344
328.40743
328.40117
328.39466
328.38789
328.38084
328.3735
328.36587
328.35793
328.34966
328.34106
328.3321
328.32279
328.31308
328.30298
328.29246
328.28151
328.27009
328.2582
328.2458
328.23288
328.21939
328.20532
328.19063
328.17528
328.15923
328.14245
328.12487
328.10644
328.08711
328.0668
328.04542
328.02288
327.99906
327.97383
327.94701
327.9184
327.88773
327.85467
327.81875
327.77933
327.73547
327.6857
327.62749
327.55584
327.4592
327.30522
)
;
        refGradient     uniform 0;
        valueFraction   nonuniform List<scalar> 
200
(
0.021313587
0.018349032
0.017286587
0.016999676
0.017072311
0.017312679
0.017619574
0.017934173
0.018220835
0.018459614
0.01864309
0.018773723
0.018860286
0.018913928
0.018945118
0.018962099
0.018970608
0.018974281
0.018975235
0.018974594
0.018972889
0.01897032
0.018966927
0.018962686
0.018957559
0.018951519
0.01894456
0.018936694
0.018927949
0.018918366
0.018907994
0.018896903
0.018885173
0.018872882
0.018860098
0.018846868
0.018833224
0.018819204
0.018804843
0.018790181
0.018775253
0.018760098
0.018744752
0.018729251
0.018713631
0.018697926
0.018682171
0.018666398
0.018650643
0.018634938
0.018619319
0.018603823
0.018588486
0.018573349
0.018558454
0.018543848
0.018529578
0.018515694
0.018502248
0.018489294
0.018476882
0.018465064
0.018453885
0.018443386
0.018433604
0.018424565
0.018416289
0.018408788
0.018402063
0.018396109
0.01839091
0.018386445
0.018382687
0.018379602
0.018377154
0.018375302
0.018374002
0.018373211
0.018372885
0.018372979
0.018373449