/*--------------------------------*- C++ -*----------------------------------*\
| =========                 |                                                 |
| \\      /  F ield         | OpenFOAM: The Open Source CFD Toolbox           |
|  \\    /   O peration     | Version:  2506                                  |
|   \\  /    A nd           | Website:  www.openfoam.com                      |
|    \\/     M anipulation  |                                                 |
\*---------------------------------------------------------------------------*/
FoamFile
{
    version     2.0;
    format      ascii;
    arch        "LSB;label=32;scalar=64";
    class       volVectorField;
    location    "3000/water";
    object      U;
}
// * * * * * * * * * * * * * * * * * * * * * * * * * * * * * * * * * * * * * //

dimensions      [0 1 -1 0 0 0 0];

internalField   nonuniform List<vector> 
2600
(
(0.2509291 -6.6886033e-05 -4.8272793e-19)
(0.25093316 -0.00014739222 -3.0773282e-18)
(0.25094167 -0.00023143146 -1.0165053e-18)
(0.2509543 -0.00031980044 -7.1695255e-19)
(0.25097092 -0.0004082391 -2.3425935e-19)
(0.25099124 -0.00049673666 7.4087919e-20)
(0.25101467 -0.0005856609 3.8314983e-20)
(0.25103908 -0.00067482201 -1.2827335e-19)
(0.25105541 -0.00075972197 -2.1218088e-19)
(0.25102652 -0.00083857781 -2.1702867e-19)
(0.25079811 -0.00098580402 -1.2544837e-19)
(0.24954942 -0.001485464 7.0430356e-20)
(0.2411817 0.0014904344 -2.7937786e-19)
(0.25290631 -5.2391824e-05 -1.3227864e-18)
(0.25291356 -0.00012867936 -2.7736174e-18)
(0.25292967 -0.00020232594 -1.4160315e-18)
(0.25295369 -0.00027812692 -6.9017719e-19)
(0.25298503 -0.00035187867 -4.2752255e-20)
(0.25302278 -0.00042368282 1.4337213e-19)
(0.25306456 -0.0004936843 1.4944466e-19)
(0.25310219 -0.00056251339 -5.4412479e-20)
(0.25310631 -0.00062550536 -1.9490193e-19)
(0.25297401 -0.00066089399 -2.2945808e-19)
(0.25231856 -0.00068576655 -2.2598858e-19)
(0.24919071 -0.0011507908 -1.8379203e-19)
(0.23317376 0.00055016191 -4.0902178e-19)
(0.25485703 -5.0201261e-05 -1.8243305e-20)
(0.25486389 -0.00012463928 -6.4267848e-19)
(0.2548791 -0.00019574884 -1.7787695e-18)
(0.2549016 -0.00026956178 2.6981324e-19)
(0.25493052 -0.00034177627 2.7623384e-19)
(0.25496396 -0.00041257844 2.6983995e-19)
(0.25499618 -0.00048173979 1.9410459e-19)
(0.25500857 -0.00054996705 5.448168e-19)
(0.25494172 -0.0006163767 3.3242764e-19)
(0.2546073 -0.0006602417 7.9729672e-20)
(0.25332071 -0.00063871076 -7.1457257e-20)
(0.2478214 -0.00092597142 -3.3456362e-19)
(0.22526486 0.00012340436 -4.1855663e-19)
(0.25664521 -4.974385e-05 2.3629343e-18)
(0.25665224 -0.00012488064 1.2328993e-18)
(0.2566674 -0.00019721364 -7.2942527e-20)
(0.2566896 -0.0002720698 3.9638212e-19)
(0.25671747 -0.00034495172 -1.4344086e-20)
(0.25674738 -0.00041609227 2.4640556e-19)
(0.25676826 -0.0004848948 1.0645852e-19)
(0.25674667 -0.00055096518 3.4301713e-19)
(0.25658539 -0.00061444887 7.1432962e-20)
(0.2559957 -0.0006636637 1.7142151e-19)
(0.2539403 -0.00063277351 -4.5134403e-20)
(0.24583249 -0.00077044467 -3.1856096e-19)
(0.21800982 -5.9385922e-05 -3.9781196e-19)
(0.25841323 -4.8556775e-05 1.133751e-18)
(0.2584204 -0.00012219546 2.311119e-18)
(0.25843571 -0.00019301892 1.2177327e-18)
(0.25845781 -0.00026625064 -3.8773053e-19)
(0.25848442 -0.00033744492 -7.5539335e-20)
(0.25850914 -0.00040689654 2.3784103e-19)
(0.25851346 -0.00047389151 9.637862e-20)
(0.25844542 -0.00053705871 -8.5746517e-20)
(0.25816424 -0.00059536594 7.4483658e-20)
(0.25726648 -0.00064373127 2.4774528e-20)
(0.25431322 -0.00061442321 -1.431147e-19)
(0.24352458 -0.00065114415 -2.7374567e-19)
(0.21163262 -0.00012321892 -3.2554129e-19)
(0.26015467 -4.709344e-05 2.2801538e-18)
(0.26016187 -0.0001185153 2.2668944e-18)
(0.26017704 -0.0001870764 1.3645537e-18)
(0.2601984 -0.00025799462 4.9178597e-19)
(0.26022227 -0.00032687702 5.4057519e-20)
(0.26023853 -0.00039398781 1.8996584e-19)
(0.26021927 -0.00045855461 7.0518557e-20)
(0.26009115 -0.00051865148 -1.9849797e-20)
(0.25966515 -0.00057157394 -7.5643412e-20)
(0.2584067 -0.00061480871 -1.2074051e-19)
(0.25443266 -0.00058544056 -3.8434461e-20)
(0.24102793 -0.0005571206 2.7683376e-20)
(0.20612335 -0.00013293671 -1.8520857e-19)
(0.26183846 -4.5390267e-05 1.2393205e-18)
(0.26184561 -0.00011435405 1.4997291e-18)
(0.26186042 -0.00018050108 1.4865258e-18)
(0.26188043 -0.00024892327 1.5252179e-18)
(0.26190008 -0.00031528561 2.5590134e-19)
(0.26190445 -0.00037977027 -1.3582444e-20)
(0.26185458 -0.00044151446 7.5992121e-20)
(0.2616533 -0.00049832849 3.4822893e-21)
(0.26105826 -0.00054618084 -2.1303956e-19)
(0.25938354 -0.00058222647 -4.2675358e-20)
(0.25426994 -0.00054801504 -1.8962262e-20)
(0.23842933 -0.00047868139 -6.7587533e-20)
(0.20141646 -0.00011963306 -4.3766624e-19)
(0.26345768 -4.3664882e-05 -2.356295e-18)
(0.26346469 -0.00011008558 -1.0031509e-18)
(0.26347885 -0.00017377013 -1.824968e-20)
(0.26349678 -0.00023963045 2.9105521e-19)
(0.26351051 -0.00030340684 2.5420584e-19)
(0.26349932 -0.00036518044 1.3605856e-20)
(0.26341166 -0.00042394823 -9.1577416e-21)
(0.2631242 -0.00047735793 3.5364866e-20)
(0.26233468 -0.00052050214 2.6045874e-19)
(0.26018092 -0.00054846095 5.1899483e-20)
(0.25381559 -0.00050481858 -6.8302512e-20)
(0.23581666 -0.00040978299 -1.2903353e-20)
(0.19745226 -9.8494617e-05 -4.1581535e-19)
(0.26501552 -4.2046877e-05 1.7968818e-18)
(0.26502225 -0.00010599907 1.2562992e-18)
(0.26503542 -0.0001673021 8.7368841e-19)
(0.26505044 -0.00023067618 8.1646074e-19)
(0.26505633 -0.00029193976 9.3770718e-20)
(0.26502564 -0.00035106733 1.5431623e-19)
(0.26489279 -0.0004068816 -1.0140143e-19)
(0.26450568 -0.00045685738 -1.4485987e-19)
(0.26349313 -0.00049549056 -2.5214168e-19)
(0.26078727 -0.00051473411 -6.4301955e-20)
(0.25307513 -0.00045847926 -3.4745567e-20)
(0.23327192 -0.00034737981 9.9969348e-20)
(0.19416843 -7.6932879e-05 -1.4986191e-19)
(0.2665165 -4.057706e-05 9.674227e-19)
(0.26652283 -0.00010224007 5.9050426e-19)
(0.26653459 -0.00016134013 9.6135418e-19)
(0.26654572 -0.0002224043 1.01446e-18)
(0.26654166 -0.00028132047 3.804068e-19)
(0.26648729 -0.00033795568 1.6656942e-19)
(0.26630156 -0.0003909415 -1.3170865e-20)
(0.26580019 -0.00043752442 -1.158499e-19)
(0.26453091 -0.00047164498 -2.3861387e-19)
(0.26118849 -0.00048140525 -1.085855e-19)
(0.25206937 -0.00041120617 -8.2199086e-21)
(0.23086314 -0.00029047959 -1.426224e-19)
(0.19149027 -5.8333257e-05 -2.3577722e-19)
(0.26796591 -3.9276698e-05 -1.8253518e-18)
(0.26797166 -9.8886216e-05 -1.5972887e-18)
(0.26798155 -0.00015601486 -3.0091066e-19)
(0.26798768 -0.00021499986 3.6500507e-19)
(0.26797137 -0.00027178437 5.5702716e-19)
(0.26788889 -0.00032612646 1.682169e-19)
(0.26764202 -0.00037645613 2.1051547e-19)
(0.26700984 -0.00041972353 8.3716525e-21)
(0.26544297 -0.00044912486 3.3005328e-21)
(0.26137042 -0.00044842588 -5.1621139e-20)
(0.25083979 -0.00036475941 -1.3177962e-19)
(0.22864123 -0.00023936528 -3.7951653e-19)
(0.18933265 -4.3854024e-05 -2.2971882e-19)
(0.26936985 -3.8151202e-05 -8.6694015e-19)
(0.26937484 -9.5961772e-05 -5.1960603e-19)
(0.26938229 -0.00015136516 -7.0455642e-19)
(0.2693822 -0.00020851724 5.6310786e-20)
(0.26935114 -0.00026339986 2.1269123e-19)
(0.26923575 -0.00031565718 9.7036402e-20)
(0.26891866 -0.00036350366 2.0837658e-19)
(0.26813622 -0.00040351927 -2.470665e-21)
(0.26622207 -0.00042777198 -1.832993e-20)
(0.26132397 -0.00041560855 -1.031072e-19)
(0.24944814 -0.00032041762 -2.1027501e-19)
(0.22663743 -0.00019477817 -4.6921227e-19)
(0.18760708 -3.3365972e-05 -2.337044e-19)
(0.27073452 -3.7186892e-05 -1.1071333e-18)
(0.27073851 -9.3441594e-05 -2.5726034e-19)
(0.27074291 -0.00014735094 -9.4028053e-20)
(0.27073523 -0.00020290124 3.8469203e-19)
(0.27068668 -0.00025609589 7.3900925e-20)
(0.27053315 -0.00030645578 6.3731225e-20)
(0.27013553 -0.00035195662 9.9792057e-20)
(0.26917943 -0.00038871662 4.3614323e-20)
(0.26685881 -0.00040716162 -1.6758985e-19)
(0.26105041 -0.00038281108 -2.5317637e-19)
(0.24796793 -0.00027903903 -2.8604657e-19)
(0.2248628 -0.00015723519 -5.0701272e-19)
(0.18622942 -2.608962e-05 -2.6636965e-19)
(0.27206549 -3.6358598e-05 -3.4409669e-19)
(0.27206822 -9.1270024e-05 -5.7019577e-19)
(0.27206885 -0.00014388431 5.6674212e-19)
(0.27205207 -0.00019803069 1.0855493e-18)
(0.27198302 -0.00024971698 -8.459392e-20)
(0.27178551 -0.0002983267 2.4439017e-19)
(0.27129541 -0.00034156267 3.7463367e-19)
(0.27013718 -0.00037494839 4.1332501e-20)
(0.26734241 -0.00038673535 -1.6542484e-19)
(0.2605654 -0.00035005845 -2.3258177e-19)
(0.24647172 -0.00024119444 -3.1514736e-19)
(0.22331131 -0.00012666963 -4.6562606e-19)
(0.18512583 -2.107637e-05 -5.0975103e-19)
(0.27336737 -3.5638788e-05 9.4772076e-19)
(0.27336856 -8.938186e-05 -2.7990193e-20)
(0.27336463 -0.00014086217 1.2350392e-18)
(0.27333706 -0.00019376295 3.9968263e-19)
(0.27324415 -0.00024407934 1.3680945e-19)
(0.27299604 -0.00029103798 1.0630289e-19)
(0.27239931 -0.00033202382 1.7234217e-19)
(0.27100443 -0.00036176734 2.5601077e-20)
(0.26766283 -0.00036596046 1.6660489e-19)
(0.25989992 -0.00031757793 -7.2147032e-20)
(0.24502002 -0.00020725745 -5.0343811e-19)
(0.22196569 -0.00010242448 -1.7887039e-19)
(0.18423545 -1.7507117e-05 -2.9591054e-19)
(0.27464382 -3.5002894e-05 1.7634042e-18)
(0.27464313 -8.7716017e-05 5.644501e-19)
(0.27463375 -0.00013818758 7.4372939e-19)
(0.2745935 -0.00018996324 3.0503328e-19)
(0.27447297 -0.00023900779 7.4098513e-19)
(0.27416661 -0.00028436529 1.0177353e-19)
(0.27344636 -0.00032304577 2.9629033e-23)
(0.27177364 -0.00034871442 3.1749934e-20)
(0.26781391 -0.00034445792 -8.0174585e-20)
(0.25909705 -0.00028576382 -1.612693e-19)
(0.2436552 -0.00017740821 -4.4273867e-19)
(0.22080343 -8.3473061e-05 -2.8638189e-19)
(0.18351045 -1.4804616e-05 5.7249631e-23)
(0.27589768 -3.4431105e-05 1.42938e-18)
(0.27589473 -8.6221418e-05 2.3299819e-19)
(0.27587888 -0.00013577914 -5.1021432e-19)
(0.27582384 -0.00018651757 2.4195644e-19)
(0.27567139 -0.00023435206 4.7984137e-19)
(0.27529788 -0.00027811161 2.4610465e-19)
(0.27443375 -0.00031435606 -2.9454873e-20)
(0.27243556 -0.00033536392 2.9894985e-20)
(0.26779662 -0.00032206948 -5.8119092e-20)
(0.25820551 -0.00025510598 -2.1576631e-19)
(0.24240122 -0.00015160162 -1.0047394e-19)
(0.21980119 -6.8691003e-05 -2.3020952e-19)
(0.18291435 -1.2618553e-05 -3.3414622e-19)
(0.27713109 -3.3908296e-05 7.4890406e-19)
(0.27712546 -8.4858001e-05 3.2600684e-20)
(0.27710201 -0.00013357264 -5.0045214e-19)
(0.27702977 -0.00018333502 4.608931e-19)
(0.27684047 -0.00022998947 2.1727681e-19)
(0.2763893 -0.00027211088 2.9778152e-19)
(0.27535691 -0.00030570399 -4.557371e-20)
(0.2729805 -0.00032135787 -1.0486025e-19)
(0.26762111 -0.00029886295 -1.7174087e-19)
(0.25727242 -0.00022610441 -9.0216349e-20)
(0.24126718 -0.00012956886 -4.9237712e-20)
(0.21893722 -5.7057435e-05 -3.7295882e-19)
(0.18241982 -1.0759083e-05 -3.0709549e-19)
(0.27834572 -3.3423243e-05 -4.9953109e-19)
(0.27833694 -8.3595438e-05 4.9737483e-19)
(0.2783046 -0.00013151911 -4.2121315e-20)
(0.27821241 -0.00018034488 6.3897769e-19)
(0.27798052 -0.00022582105 -7.1444244e-21)
(0.27743925 -0.00026622306 2.9014302e-19)
(0.27620962 -0.00029685485 4.6405855e-19)
(0.27340008 -0.00030643644 -2.3093067e-20)
(0.26730692 -0.00027509383 -1.6836852e-19)
(0.25633756 -0.0001991843 -1.6423059e-19)
(0.24025214 -0.0001108758 -9.3870191e-20)
(0.21819234 -4.7749367e-05 -3.8803965e-19)
(0.18200662 -9.1303524e-06 -3.9288447e-19)
(0.27954284 -3.2967675e-05 -8.4585045e-19)
(0.27953036 -8.2411065e-05 4.3637072e-19)
(0.27948767 -0.00012958149 1.244389e-18)
(0.27937237 -0.00017749197 7.1412386e-20)
(0.27909121 -0.00022176546 1.0931357e-19)
(0.27844503 -0.00026032527 8.8077805e-20)
(0.27698441 -0.00028758731 1.7949921e-19)
(0.27368915 -0.00029046172 8.1270526e-20)
(0.26688073 -0.00025114512 9.5776238e-20)
(0.25543062 -0.00017462896 6.1252955e-20)
(0.2393495 -9.5013855e-05 -1.1995192e-19)
(0.21755 -4.0152308e-05 -3.1927293e-20)
(0.18165972 -7.6839568e-06 -2.056788e-19)
(0.28072346 -3.253541e-05 -9.5708287e-21)
(0.28070667 -8.1287794e-05 3.9867224e-19)
(0.28065194 -0.00012773124 8.7022417e-19)
(0.28050986 -0.0001747318 4.1647521e-19)
(0.28017156 -0.00021775304 2.89877e-19)
(0.27940289 -0.00025430188 4.2489023e-20)
(0.27767312 -0.00027769789 2.0505171e-19)
(0.27384765 -0.00027342828 2.6538782e-19)
(0.26637281 -0.00022746053 -3.0386067e-20)
(0.2545711 -0.00015254851 -3.0385102e-19)
(0.23855012 -8.1484032e-05 -4.8998353e-19)
(0.21699614 -3.3827435e-05 -8.1361481e-20)
(0.18136794 -6.3925383e-06 5.8827833e-20)
(0.28188837 -3.2121656e-05 -2.8852075e-19)
(0.28186655 -8.0212343e-05 1.6894459e-18)
(0.28179785 -0.00012594549 -2.0964846e-19)
(0.28162471 -0.00017202641 3.268168e-19)
(0.28121999 -0.00021372065 2.0906502e-19)
(0.28030804 -0.00024803604 1.8638389e-19)
(0.27826773 -0.00026701328 1.9081168e-19)
(0.27388156 -0.00025545692 2.9047822e-19)
(0.26581311 -0.00020447967 -3.1508338e-20)
(0.25377001 -0.00013289057 -5.0319825e-19)
(0.23784411 -6.9849922e-05 -3.2786177e-19)
(0.21651887 -2.8467155e-05 -1.5932399e-19)
(0.18112283 -5.2370933e-06 -5.3754698e-20)
(0.28303819 -3.1722486e-05 1.6354296e-18)
(0.28301052 -7.9173849e-05 1.8115284e-18)
(0.28292559 -0.00012420469 -3.8839997e-20)
(0.28271638 -0.00016934096 -2.2850492e-19)
(0.2822343 -0.00020960734 4.5487505e-19)
(0.28115476 -0.00024140493 3.5834553e-19)
(0.27876144 -0.00025540748 -1.5319504e-19)
(0.27380291 -0.00023677356 2.5445248e-19)
(0.26522808 -0.00018258167 8.4114139e-20)
(0.25303215 -0.00011548282 8.611072e-20)
(0.23722187 -5.9756961e-05 5.4781634e-20)
(0.21610816 -2.3855674e-05 -1.037617e-19)
(0.18091788 -4.2018433e-06 6.797834e-20)
(0.28417339 -3.1334452e-05 1.144742e-18)
(0.28413893 -7.8162819e-05 -2.7216298e-19)
(0.28403512 -0.00012249081 3.5505244e-19)
(0.28378396 -0.00016664114 1.5279048e-19)
(0.28321158 -0.0002053501 -4.2709358e-20)
(0.28193659 -0.00023428041 3.9335422e-19)
(0.27914984 -0.00024281874 3.6930753e-19)
(0.27362851 -0.00021767781 5.7872495e-19)
(0.26463906 -0.00016204558 6.5916933e-20)
(0.25235823 -0.00010008753 -3.9178046e-19)
(0.23667446 -5.0928432e-05 -3.7191674e-19)
(0.21575559 -1.9839553e-05 -7.9164769e-20)
(0.18074793 -3.2726371e-06 -1.552829e-20)
(0.28529433 -3.0954305e-05 1.3175464e-18)
(0.28525196 -7.7170337e-05 4.627337e-21)
(0.28512619 -0.000120786 1.408031e-18)
(0.28482614 -0.00016389138 4.1750812e-19)
(0.28414822 -0.00020087986 9.5926367e-20)
(0.28264669 -0.00022653515 1.9803278e-19)
(0.27943202 -0.00022926076 4.1586649e-19)
(0.27337791 -0.00019850622 1.7028438e-19)
(0.26406181 -0.0001430334 4.7332601e-20)
(0.25174654 -8.6449679e-05 1.7522754e-19)
(0.23619383 -4.315108e-05 -1.4856345e-19)
(0.21545404 -1.6307482e-05 -4.0681236e-20)
(0.18060883 -2.4367074e-06 -1.1581215e-20)
(0.28640123 -3.0578784e-05 2.6914246e-18)
(0.28634965 -7.6187464e-05 1.4659871e-18)
(0.28619826 -0.00011907139 9.5918165e-19)
(0.28584114 -0.00016105348 1.1679267e-19)
(0.28503985 -0.00019611847 5.7374008e-19)
(0.2832784 -0.00021805401 1.349457e-19)
(0.27961117 -0.00021482471 8.5724018e-20)
(0.27307114 -0.00017959427 2.4561266e-19)
(0.26350715 -0.00012559657 3.4693666e-19)
(0.25119402 -7.4328965e-05 5.7049271e-19)
(0.23577276 -3.6259371e-05 2.2858256e-19)
(0.21519748 -1.3176836e-05 7.7977905e-20)
(0.18049716 -1.6827584e-06 1.6618635e-19)
(0.28749419 -3.0204452e-05 1.7769122e-18)
(0.28743185 -7.5204721e-05 1.4352363e-18)
(0.28725056 -0.00011732616 1.2145263e-19)
(0.28682673 -0.0001580853 -1.5596784e-19)
(0.28588145 -0.00019097762 2.9815415e-19)
(0.28382593 -0.00020874813 2.3153472e-19)
(0.27969464 -0.00019967158 -8.7984277e-21)
(0.27272685 -0.00016124193 2.4318268e-19)
(0.26298189 -0.00010969946 3.0873045e-19)
(0.25069697 -6.3515018e-05 8.1931588e-20)
(0.23540492 -3.0122542e-05 2.4494844e-19)
(0.21498079 -1.0384801e-05 4.4130718e-20)
(0.18041 -1.0010023e-06 1.7428371e-20)
(0.28857317 -2.9827535e-05 1.3624121e-18)
(0.28849825 -7.4211612e-05 3.5680533e-19)
(0.28828196 -0.00011552671 3.1600504e-19)
(0.28778008 -0.00015493915 -4.1588344e-20)
(0.28666738 -0.00018536089 3.3537733e-19)
(0.28428521 -0.00019856896 1.6264004e-19)
(0.27969326 -0.00018401637 1.8010334e-20)
(0.27236107 -0.00014368791 4.9914947e-20)
(0.26248991 -9.5249865e-05 1.3361841e-19)
(0.25025143 -5.3830552e-05 2.4825552e-19)
(0.23508472 -2.4635271e-05 2.0569085e-19)
(0.21479959 -7.8824889e-06 1.2923257e-19)
(0.18034487 -3.8307926e-07 2.517035e-20)
(0.28963798 -2.944375e-05 4.4071377e-19)
(0.28954832 -7.3196105e-05 4.242639e-19)
(0.28929102 -0.00011364593 8.8335572e-20)
(0.2886978 -0.00015155982 9.20834e-19)
(0.28739174 -0.00017916927 2.4450864e-20)
(0.28465455 -0.00018751865 1.8757281e-19)
(0.27962017 -0.00016810641 7.3443937e-19)
(0.2719867 -0.00012709648 7.1185622e-19)
(0.26203302 -8.2127517e-05 2.6535301e-19)
(0.24985346 -4.5128129e-05 -3.5328898e-19)
(0.23480728 -1.9711264e-05 -2.6009241e-19)
(0.21465012 -5.6309913e-06 9.9224387e-20)
(0.18029962 1.7812881e-07 7.3916848e-23)
(0.29068824 -2.9047996e-05 3.6335707e-19)
(0.29058125 -7.2143821e-05 9.5963845e-19)
(0.29027586 -0.00011165221 7.2457617e-19)
(0.28957586 -0.00014788248 6.670406e-19)
(0.28804865 -0.00017230925 3.6387334e-19)
(0.28493523 -0.00017565385 3.901933e-19)
(0.2794894 -0.00015219579 6.216981e-19)
(0.2716136 -0.00011155661 3.1387666e-19)
(0.26161163 -7.020356e-05 2.2751264e-19)
(0.24949925 -3.7283206e-05 -2.1929209e-20)
(0.23456828 -1.527706e-05 -1.6882362e-19)
(0.21452909 -3.5978749e-06 -1.194592e-19)
(0.18027234 6.88916e-07 -1.4067171e-20)
(0.29172336 -2.8634279e-05 -7.6288488e-19)
(0.291596 -7.1037634e-05 9.4731942e-19)
(0.29123415 -0.00010950892 1.1103882e-18)
(0.29040962 -0.00014383257 -9.5096716e-20)
(0.28863287 -0.00016470429 9.5911655e-19)
(0.28513156 -0.00016308395 3.5483164e-19)
(0.27931466 -0.00013652205 3.0551113e-20)
(0.27124896 -9.7093553e-05 6.8250439e-20)
(0.26122524 -5.9353646e-05 1.2911616e-20)
(0.24918522 -3.0190175e-05 3.503192e-19)
(0.23436395 -1.12703e-05 2.3128921e-19)
(0.2144337 -1.7305508e-06 -3.2905994e-20)
(0.18026136 1.1761555e-06 1.45743e-19)
(0.29274252 -2.8196034e-05 2.4719571e-19)
(0.29259116 -6.985846e-05 2.3615139e-18)
(0.29216305 -0.00010717576 1.1841062e-18)
(0.29119393 -0.00013933085 4.6413871e-19)
(0.28914031 -0.00015631032 7.128463e-19)
(0.28525057 -0.00014996782 3.2758793e-19)
(0.27910837 -0.00012129297 2.2629993e-19)
(0.2708978 -8.3692841e-05 6.52842e-20)
(0.26087272 -4.94716e-05 -9.8045943e-20)
(0.24890802 -2.3766771e-05 -4.3782927e-20)
(0.23419085 -7.6476564e-06 4.772809e-20)
(0.21436056 -1.6258409e-08 4.2825151e-20)
(0.18026627 1.6403964e-06 -1.7038044e-20)
(0.2937446 -2.7725099e-05 -7.1950651e-19)
(0.29356496 -6.858319e-05 1.8478584e-18)
(0.29305914 -0.00010460504 1.4822436e-18)
(0.29192334 -0.00013429445 6.2720585e-19)
(0.28956868 -0.00014712077 6.5633619e-19)
(0.2853013 -0.00013649478 4.7021126e-19)
(0.27888121 -0.00010666836 1.5359361e-19)
(0.27056351 -7.1310467e-05 1.2801432e-20)
(0.26055265 -4.0462886e-05 6.5448132e-21)
(0.24866458 -1.794025e-05 6.140235e-20)
(0.23404606 -4.3539032e-06 4.5948551e-20)
(0.21430781 1.5374076e-06 -5.0534678e-20)
(0.18028522 2.0563884e-06 -1.643844e-20)
(0.29472815 -2.7211025e-05 -1.4507867e-18)
(0.29451518 -6.7183246e-05 -4.4740629e-19)
(0.29391842 -0.00010173906 1.6410595e-19)
(0.29259237 -0.00012864185 9.7087342e-19)
(0.28991788 -0.00013716948 -1.6718683e-19)
(0.28529395 -0.0001228645 4.5555066e-19)
(0.27864192 -9.2752914e-05 5.6311547e-19)
(0.27024822 -5.9882431e-05 7.1838785e-19)
(0.26026336 -3.2238653e-05 8.4872367e-20)
(0.24845204 -1.264237e-05 -2.8155354e-19)
(0.23392646 -1.335877e-06 -2.3476505e-19)
(0.21427448 2.956179e-06 -3.8126264e-20)
(0.18031663 2.4263124e-06 -2.3301811e-21)
(0.29569132 -2.6641403e-05 5.8999543e-19)
(0.2954391 -6.5625548e-05 -3.2481845e-19)
(0.29473631 -9.8512685e-05 3.1747485e-19)
(0.29319592 -0.00012230569 6.868747e-19)
(0.29019018 -0.00012653596 -1.9639642e-19)
(0.2852389 -0.00010927514 1.5594563e-19)
(0.27839743 -7.9607251e-05 4.5727203e-19)
(0.26995312 -4.9342214e-05 3.7275922e-19)
(0.26000309 -2.4722167e-05 4.013795e-19)
(0.24826773 -7.8150832e-06 2.4677465e-19)
(0.23382955 1.415155e-06 -7.3016619e-20)
(0.21425921 4.2390836e-06 3.5126971e-20)
(0.18035932 2.7544354e-06 -5.5635485e-21)
(0.29663173 -2.6001181e-05 1.8593771e-18)
(0.29633339 -6.3871156e-05 1.6806724e-19)
(0.29550768 -9.4853895e-05 9.4803033e-19)
(0.29372976 -0.00011524119 -2.3595175e-19)
(0.29039011 -0.00011533897 5.7781003e-19)
(0.28514604 -9.5905373e-05 2.6790418e-19)
(0.27815305 -6.7254126e-05 4.6648759e-20)
(0.26967872 -3.9623321e-05 8.654776e-20)
(0.25977003 -1.7841845e-05 4.2520079e-19)
(0.24810923 -3.383958e-06 7.2103039e-19)
(0.23375398 3.9312121e-06 4.1970263e-19)
(0.21425996 5.3906139e-06 6.3383365e-20)
(0.18041214 3.0443412e-06 9.852921e-20)
(0.29754645 -2.527239e-05 1.5672458e-19)
(0.29719411 -6.1874451e-05 9.045881e-19)
(0.29622706 -9.068776e-05 1.3787985e-19)
(0.29419101 -0.00010743479 -2.23648e-19)
(0.290524 -0.00010372736 5.0059332e-19)
(0.28502427 -8.2903358e-05 2.3113652e-19)
(0.27791277 -5.5688928e-05 3.663805e-20)
(0.26942499 -3.0662224e-05 3.8878568e-20)
(0.25956226 -1.1539674e-05 6.7056313e-20)
(0.24797362 6.7590244e-07 2.0802172e-19)
(0.23369893 6.2277243e-06 3.8291777e-19)
(0.21427538 6.4296387e-06 9.6533967e-20)
(0.18047413 3.3030878e-06 -8.9018111e-21)
(0.29843186 -2.4434089e-05 1.0951854e-19)
(0.29801658 -5.9582979e-05 1.2195986e-18)
(0.29688883 -8.5943394e-05 -3.3694242e-19)
(0.29457851 -9.8910841e-05 3.9045025e-19)
(0.29059935 -9.1868424e-05 5.5995184e-19)
(0.28488126 -7.0382614e-05 -9.2583518e-21)
(0.27767954 -4.4890673e-05 1.5492055e-19)
(0.26919163 -2.2395836e-05 2.8088191e-19)
(0.25937815 -5.73641e-06 1.8645735e-19)
(0.24785972 4.3904892e-06 1.1142003e-19)
(0.2336621 8.3015998e-06 3.1447201e-19)
(0.21430404 7.3666993e-06 2.2998978e-19)
(0.18054443 3.5354651e-06 8.84159e-20)
(0.29928359 -2.3462153e-05 2.3799752e-18)
(0.29879547 -5.6937591e-05 9.5799184e-19)
(0.29748763 -8.0561618e-05 1.2661805e-19)
(0.29489309 -8.9732423e-05 1.3443532e-18)
(0.29062422 -7.9932332e-05 -2.961063e-19)
(0.28472341 -5.8420094e-05 2.52106e-19)
(0.27745536 -3.4827523e-05 9.4740069e-19)
(0.26897782 -1.47704e-05 8.6853422e-19)
(0.25921519 -3.917911e-07 2.64545e-19)
(0.24776702 7.7920508e-06 -4.171272e-19)
(0.23364198 1.0181106e-05 -3.7482919e-19)
(0.21434474 8.2147645e-06 6.2099758e-20)
(0.18062225 3.744998e-06 6.8532807e-20)
(0.30009637 -2.2329729e-05 2.6582523e-18)
(0.29952479 -5.3875496e-05 2.6041172e-18)
(0.29801875 -7.450525e-05 3.3536313e-19)
(0.29513749 -7.9999944e-05 7.6445667e-19)
(0.29060659 -6.8080572e-05 -1.1205607e-19)
(0.28455591 -4.7062472e-05 5.5739873e-19)
(0.27724164 -2.5459218e-05 5.1190683e-19)
(0.2687829 -7.7156633e-06 2.4163634e-19)
(0.25907248 4.5153974e-06 3.1577513e-19)
(0.24769347 1.0881388e-05 -2.8138161e-19)
(0.23363709 1.1884866e-05 -3.3461943e-19)
(0.21439637 8.9837445e-06 -1.2671015e-19)
(0.1807069 3.9343488e-06 -1.3302693e-19)
(0.30086402 -2.1007837e-05 2.3182359e-18)
(0.30019808 -5.0335136e-05 2.1124115e-18)
(0.29847858 -6.7767495e-05 1.7263774e-18)
(0.29531607 -6.9843614e-05 -6.9570129e-19)
(0.29055391 -5.6454416e-05 6.8943502e-19)
(0.28438287 -3.6332015e-05 3.0458e-19)
(0.27703906 -1.6748254e-05 -3.6040089e-19)
(0.2686053 -1.1875175e-06 -3.2975937e-19)
(0.25894976 9.0213452e-06 2.3574916e-19)
(0.24763751 1.3689803e-05 4.0514413e-19)
(0.23364609 1.3431094e-05 3.7836566e-19)
(0.21445793 9.6806847e-06 -2.5864414e-19)
(0.18079772 4.1050212e-06 -1.2941663e-19)
(0.30157943 -1.946719e-05 8.6720328e-19)
(0.30080863 -4.6264337e-05 2.4648857e-18)
(0.29886499 -6.0378823e-05 1.4845076e-18)
(0.29543444 -5.9413947e-05 -4.1724185e-19)
(0.29047287 -4.5169361e-05 4.1969154e-19)
(0.28420752 -2.6229147e-05 1.5319065e-19)
(0.27684812 -8.6362636e-06 -6.921089e-20)
(0.26844451 4.8386513e-06 -4.6522616e-19)
(0.25884557 1.3135773e-05 -2.7839101e-19)
(0.2475977 1.6244103e-05 3.8012525e-19)
(0.23366777 1.4835361e-05 3.4206056e-19)
(0.21452852 1.0311988e-05 -5.4368327e-20)
(0.18089414 4.2585319e-06 -9.2437873e-20)
(0.30223466 -1.7681569e-05 -7.1835077e-19)
(0.3013499 -4.1630426e-05 1.9813318e-18)
(0.29917751 -5.2409535e-05 -7.4858338e-20)
(0.29549883 -4.8869418e-05 5.8937163e-19)
(0.29036918 -3.431365e-05 6.2698021e-19)
(0.28403214 -1.6747512e-05 4.1200879e-19)
(0.27666826 -1.0891052e-06 6.1056972e-19)
(0.26830088 1.0390981e-05 -2.8720629e-19)
(0.25875851 1.6888489e-05 -3.7680561e-19)
(0.24757272 1.856819e-05 -1.6437303e-19)
(0.23370102 1.6110027e-05 -7.8860816e-20)
(0.21460732 1.0882765e-05 -6.8801843e-20)
(0.18099561 4.396076e-06 -8.6766602e-20)
(0.30282117 -1.563339e-05 7.0896237e-19)
(0.30181594 -3.6431485e-05 1.7064338e-19)
(0.29941741 -4.3968556e-05 5.365828e-19)
(0.29551566 -3.8365468e-05 1.2681711e-18)
(0.2902477 -2.3945227e-05 9.6112471e-19)
(0.28385859 -7.8477303e-06 5.1694496e-19)
(0.27649982 5.9141187e-06 3.7565207e-19)
(0.26817344 1.547981e-05 8.593362e-20)
(0.25868728 2.0310838e-05 -1.9346413e-20)
(0.24756135 2.0682635e-05 -1.9472852e-19)
(0.23374484 1.7265704e-05 -8.6684034e-20)
(0.21469357 1.1397588e-05 1.1415141e-20)
(0.18110164 4.5187602e-06 -8.9351644e-20)
(0.30333026 -1.3320789e-05 3.3696428e-18)
(0.30220188 -3.0705588e-05 1.3746128e-18)
(0.29958744 -3.5196375e-05 9.0206898e-19)
(0.29549103 -2.8043652e-05 1.0868181e-18)
(0.29011218 -1.409985e-05 5.7733546e-19)
(0.28368733 4.851617e-07 4.9293238e-19)
(0.276344 1.2388889e-05 -4.4446768e-19)
(0.26806118 2.0135117e-05 -9.6075871e-20)
(0.2586307 2.3431343e-05 1.7472569e-19)
(0.24756246 2.2604559e-05 1.6373836e-19)
(0.23379832 1.8311468e-05 9.497462e-20)
(0.21478659 1.1860464e-05 2.899771e-19)
(0.18121176 4.6275462e-06 -8.191557e-21)
(0.30375374 -1.0764904e-05 -2.931148e-19)
(0.30250438 -2.4536356e-05 1.9207046e-18)
(0.29969147 -2.6255599e-05 2.749067e-18)
(0.29543051 -1.8024207e-05 -2.4809625e-19)
(0.28996562 -4.7858263e-06 1.5177996e-19)
(0.28352015 8.243104e-06 2.4328763e-20)
(0.27620025 1.8335867e-05 -3.02203e-19)
(0.26796311 2.4389451e-05 1.6094835e-19)
(0.25858763 2.6274642e-05 3.202103e-19)
(0.24757502 2.43489e-05 1.1439239e-19)
(0.2338606 1.9255526e-05 -1.1182978e-20)
(0.21488574 1.227508e-05 -1.8632143e-19)
(0.18132555 4.7233388e-06 -2.9434079e-21)
(0.30408466 -8.0145743e-06 4.5600313e-19)
(0.30272185 -1.8051793e-05 2.5611583e-18)
(0.29973407 -1.7315892e-05 2.6055659e-18)
(0.29533886 -8.389596e-06 9.9387043e-20)
(0.28980995 3.9789453e-06 4.0929777e-19)
(0.28335875 1.5424481e-05 7.7127257e-20)
(0.27606809 2.3784715e-05 3.2878054e-19)
(0.26787825 2.8272263e-05 4.5898594e-19)
(0.25855702 2.8860147e-05 2.2669357e-19)
(0.24759808 2.5927599e-05 2.2488526e-19)
(0.23393092 2.01044e-05 1.4256236e-19)
(0.21499042 1.2644225e-05 -1.7183681e-20)
(0.1814426 4.80672e-06 -4.9050926e-20)
(0.30431819 -5.1449433e-06 2.0821823e-18)
(0.30285461 -1.1412641e-05 3.2729263e-19)
(0.29971994 -8.5331691e-06 -3.8987911e-19)
(0.29521955 7.820711e-07 1.1498539e-18)
(0.28964857 1.2143065e-05 4.5051142e-19)
(0.28320331 2.2022601e-05 6.2147825e-19)
(0.27594691 2.8765101e-05 1.033811e-18)
(0.26780566 3.1808673e-05 2.0001443e-19)
(0.25853789 3.1205151e-05 -8.9206039e-20)
(0.24763076 2.7351692e-05 -2.4673559e-19)
(0.23400854 2.0864183e-05 9.2331904e-20)
(0.2151001 1.2970543e-05 1.3593661e-19)
(0.18156252 4.878283e-06 -2.3753319e-22)
(0.30445222 -2.2472319e-06 3.9944764e-19)
(0.30290466 -4.789238e-06 3.6053764e-20)
(0.2996534 -5.7448891e-08 -1.5427063e-19)
(0.29507686 9.3868635e-06 7.83481e-19)
(0.28948321 1.9670539e-05 4.5482882e-19)
(0.28305386 2.8057786e-05 3.5607098e-19)
(0.27583605 3.3302661e-05 5.3529905e-19)
(0.26774441 3.5018173e-05 3.3723006e-19)
(0.25852929 3.3323414e-05 2.5644661e-20)
(0.24767222 2.8629891e-05 -6.0520383e-20)
(0.23409279 2.1539474e-05 1.1369542e-19)
(0.21521426 1.3255881e-05 4.5637254e-20)
(0.18168496 4.9383529e-06 2.0809582e-20)
(0.30448759 5.8143276e-07 2.6048723e-18)
(0.30287533 1.6331956e-06 4.2757392e-18)
(0.29953939 7.9403819e-06 1.7787431e-18)
(0.29491435 1.7334238e-05 6.3081177e-19)
(0.28931491 2.6550378e-05 3.2311356e-19)
(0.28291026 3.354871e-05 1.1994027e-19)
(0.2757348 3.7416513e-05 -5.5736758e-20)
(0.26769361 3.7916262e-05 4.6377929e-19)
(0.25853035 3.52261e-05 3.6671741e-19)
(0.24772169 2.9769064e-05 5.7476731e-19)
(0.23418305 2.213372e-05 2.1006912e-19)
(0.2153324 1.3501517e-05 2.0759566e-19)
(0.18180955 4.9870826e-06 4.9278994e-20)
(0.30442824 3.2381421e-06 1.7750456e-18)
(0.30277199 7.6569884e-06 4.2455605e-18)
(0.29938292 1.5304007e-05 1.4720743e-18)
(0.29473444 2.4565373e-05 -2.8225589e-19)
(0.28914434 3.27817e-05 3.4730332e-19)
(0.28277222 3.850813e-05 6.3519769e-19)
(0.27564244 4.1120456e-05 2.9631048e-19)
(0.26765239 4.0514596e-05 2.7301291e-19)
(0.25854021 3.6921369e-05 2.7775814e-19)
(0.24777843 3.0773906e-05 4.1794963e-19)
(0.23427872 2.2649004e-05 3.0872291e-20)
(0.21545406 1.3708015e-05 -2.2718956e-20)
(0.18193595 5.0243956e-06 8.4374984e-20)
(0.30428148 5.6355943e-06 1.0914654e-18)
(0.30260141 1.312239e-05 6.397839e-19)
(0.29918843 2.1930431e-05 6.3085985e-19)
(0.29453912 3.1047533e-05 4.8847174e-19)
(0.28897192 3.8362702e-05 7.5655081e-19)
(0.28263933 4.2943567e-05 7.2774014e-19)
(0.2755582 4.4423863e-05 7.0688492e-20)
(0.26761989 4.2821012e-05 -1.8756029e-19)
(0.25855808 3.8414281e-05 1.7007859e-20)
(0.24784174 3.1646877e-05 5.2194073e-20)
(0.23437921 2.3085983e-05 3.10802e-20)
(0.21557877 1.3875182e-05 7.6720966e-20)
(0.18206381 5.0499606e-06 9.8109554e-20)
(0.30405678 7.7205488e-06 -3.7834409e-19)
(0.30237113 1.7926722e-05 5.4602087e-19)
(0.29896016 2.7756832e-05 2.2319999e-18)
(0.29433004 3.675954e-05 1.0300935e-18)
(0.28879784 4.3291029e-05 6.8977056e-19)
(0.2825111 4.6859646e-05 3.6257764e-19)
(0.2754813 4.7332644e-05 -1.1565305e-19)
(0.26759529 4.4839991e-05 -1.1568736e-21)
(0.25858316 3.9707148e-05 2.2697207e-19)
(0.24791094 3.2388448e-05 1.7765505e-19)
(0.23448396 2.3444042e-05 8.2738895e-20)
(0.21570609 1.4002137e-05 7.2866397e-21)
(0.18219278 5.0632216e-06 2.491716e-20)
(0.30376497 9.4676977e-06 1.7734608e-18)
(0.30208913 2.2015494e-05 3.1588081e-18)
(0.29870222 3.2751947e-05 1.395033e-18)
(0.29410866 4.1691481e-05 4.918018e-19)
(0.2886222 4.7566352e-05 3.9231765e-19)
(0.28238699 5.0259527e-05 1.5986961e-19)
(0.27541097 4.9849955e-05 2.7657549e-19)