/*--------------------------------*- C++ -*----------------------------------*\
| =========                 |                                                 |
| \\      /  F ield         | OpenFOAM: The Open Source CFD Toolbox           |
|  \\    /   O peration     | Version:  2506                                  |
|   \\  /    A nd           | Website:  www.openfoam.com                      |
|    \\/     M anipulation  |                                                 |
\*---------------------------------------------------------------------------*/
FoamFile
{
    version     2.0;
    format      ascii;
    arch        "LSB;label=32;scalar=64";
    class       volScalarField;
    location    "27000/water";
    object      alphat;
}
// * * * * * * * * * * * * * * * * * * * * * * * * * * * * * * * * * * * * * //

dimensions      [1 -1 -1 0 0 0 0];

internalField   nonuniform List<scalar> 
6000
(
0.041292847
0.041292824
0.041292831
0.041292856
0.041292889
0.041292932
0.041292983
0.041293016
0.041292808
0.041290571
0.041271537
0.041111294
0.0397723
0.030564074
0.013464793
0.040788543
0.040788537
0.040788576
0.040788654
0.040788758
0.040788888
0.04078902
0.040788972
0.040787494
0.040776037
0.040696382
0.040161217
0.036863805
0.023766469
0.015141611
0.04033569
0.040335696
0.040335761
0.040335884
0.040336044
0.040336229
0.04033633
0.040335685
0.040330323
0.040296649
0.040097616
0.038983223
0.033614213
0.0194951
0.016360294
0.039926215
0.039926219
0.039926301
0.039926459
0.03992666
0.039926848
0.039926701
0.039924457
0.039910659
0.039835636
0.039448738
0.037597438
0.030384627
0.016783058
0.017196555
0.039553796
0.039553808
0.039553906
0.039554093
0.039554312
0.039554413
0.039553622
0.0395481
0.039519187
0.039379112
0.038737841
0.036066498
0.027427863
0.015063192
0.01773179
0.039213273
0.039213296
0.039213408
0.039213613
0.039213809
0.039213657
0.039211571
0.039200298
0.039147643
0.038916647
0.037965398
0.034462847
0.024852826
0.013984463
0.018040007
0.038900366
0.038900399
0.038900521
0.038900723
0.038900826
0.038900159
0.038895819
0.03887551
0.038788999
0.038441492
0.037140256
0.032849727
0.022675913
0.013336844
0.018183117
0.038611532
0.038611573
0.038611697
0.038611866
0.038611765
0.038610199
0.038602307
0.038568928
0.038437606
0.037950376
0.036275872
0.031274836
0.020870828
0.012994967
0.018210197
0.038343817
0.038343862
0.038343975
0.038344065
0.0383436
0.038340605
0.038327517
0.03827644
0.038089201
0.037442856
0.03538704
0.029770034
0.019396999
0.012882914
0.018158676
0.038094736
0.03809478
0.038094862
0.038094803
0.038093753
0.038088644
0.038068396
0.037994592
0.037740813
0.036920504
0.03448763
0.028354169
0.018213448
0.012953916
0.018056304
0.037862183
0.037862216
0.037862238
0.037861935
0.037860009
0.037851941
0.037822294
0.037720559
0.037390607
0.036386134
0.033589398
0.02703684
0.017284481
0.013178532
0.017923231
0.03764436
0.037644371
0.037644291
0.037643618
0.037640447
0.037628426
0.037586933
0.037452106
0.037037684
0.035843147
0.032701562
0.025821837
0.016581272
0.013537499
0.017773886
0.037439726
0.037439699
0.03743946
0.037438254
0.037433393
0.037416287
0.037360374
0.037187532
0.036681868
0.035295042
0.031830871
0.02470985
0.016081614
0.014017191
0.017618497
0.037246949
0.037246861
0.037246392
0.037244452
0.037237378
0.037213943
0.037140989
0.036925609
0.0363235
0.034745073
0.030981931
0.023700436
0.015768976
0.014606606
0.017464261
0.037064871
0.037064693
0.037063903
0.037060987
0.037051109
0.037020016
0.036927437
0.036665512
0.035963258
0.03419604
0.030157673
0.022793377
0.015631332
0.015295285
0.017316197
0.03689248
0.036892177
0.036890955
0.036886782
0.036873442
0.036833316
0.036718634
0.03640675
0.035602004
0.033650187
0.029359858
0.021989539
0.015659917
0.016071914
0.01717775
0.036728885
0.036728414
0.036726628
0.036720878
0.03670337
0.036652818
0.036513731
0.036149096
0.035240656
0.033109157
0.028589603
0.021291346
0.015847992
0.016923492
0.017051196
0.036573301
0.03657261
0.036570106
0.036562424
0.036540005
0.036477653
0.03631208
0.035892529
0.034880099
0.032574024
0.027847913
0.02070292
0.016189617
0.01783505
0.016937915
0.036425028
0.036424056
0.036420663
0.036410663
0.036382564
0.036307092
0.036113215
0.03563717
0.034521109
0.032045349
0.027136212
0.020229919
0.016678486
0.018789895
0.016838558
0.036283441
0.03628212
0.036277645
0.036264917
0.036230367
0.036140535
0.03591682
0.035383242
0.034164308
0.031523285
0.026456862
0.019879123
0.017306891
0.019770317
0.016753165
0.036147982
0.036146234
0.036140468
0.036124584
0.036082821
0.035977497
0.035722708
0.035131018
0.033810124
0.031007717
0.025813646
0.019657797
0.018064912
0.0207586
0.016681265
0.036018143
0.036015885
0.036008605
0.035989127
0.035939416
0.035817597
0.035530799
0.034880794
0.033458783
0.030498445
0.025212142
0.019572905
0.018939949
0.021738147
0.016621966
0.03589347
0.03589061
0.035881581
0.035858069
0.035799718
0.035660549
0.035341095
0.034632853
0.033110301
0.029995409
0.024659951
0.019630248
0.019916664
0.02269449
0.016574063
0.035773545
0.035769987
0.035758968
0.035730991
0.035663366
0.035506152
0.035153669
0.034387441
0.032764498
0.029498968
0.024166686
0.019833637
0.020977366
0.023616003
0.016536152
0.035657992
0.035653635
0.035640383
0.035607524
0.035530063
0.035354279
0.034968643
0.03414475
0.03242103
0.029010211
0.023743688
0.020184173
0.022102784
0.024494228
0.016506745
0.035546464
0.035541207
0.035525479
0.035487349
0.035399574
0.035204869
0.034786172
0.033904896
0.032079439
0.028531301
0.023403466
0.020679734
0.023273104
0.025323802
0.016484372
0.035438647
0.035432386
0.035413948
0.035370193
0.035271718
0.035057919
0.034606436
0.03366791
0.03173923
0.028065807
0.023158914
0.021314706
0.024469101
0.026102089
0.016467662
0.035334251
0.035326887
0.035305516
0.035255823
0.03514637
0.034913479
0.03442962
0.033433727
0.031399978
0.02761899
0.023022388
0.022080017
0.02567317
0.026828633
0.016455398
0.035233012
0.035224448
0.035199939
0.03514405
0.035023453
0.034771643
0.034255909
0.033202186
0.031061475
0.027197981
0.02300477
0.022963453
0.026870128
0.027504567
0.016446544
0.035134691
0.035124836
0.035097009
0.035034724
0.034902936
0.03463254
0.03408547
0.032973033
0.030723902
0.0268118
0.023114633
0.023950249
0.02804767
0.02813208
0.016440248
0.035039067
0.03502784
0.034996542
0.034927732
0.034784832
0.034496333
0.033918446
0.032745938
0.030388046
0.026471167
0.023357596
0.025023883
0.02919649
0.028713983
0.016435834
0.034945943
0.034933275
0.034898386
0.034822996
0.034669194
0.034363211
0.033754944
0.032520522
0.030055535
0.026188099
0.023735915
0.026166982
0.030310099
0.029253407
0.016432778
0.034855141
0.034840974
0.034802418
0.034720475
0.034556112
0.034233382
0.033595029
0.032296401
0.029729078
0.025975302
0.024248334
0.02736225
0.031384439
0.029753594
0.016430685
0.034766502
0.034750797
0.03470854
0.034620164
0.034445715
0.034107066
0.033438713
0.032073259
0.029412692
0.025845434
0.024890189
0.028593298
0.032417399
0.030217765
0.016429265
0.034679887
0.034662624
0.034616684
0.034522088
0.034338162
0.033984492
0.033285952
0.031850929
0.029111866
0.025810313
0.025653731
0.029845306
0.033408314
0.030649046
0.016428312
0.034595176
0.034576356
0.034526808
0.034426308
0.034233647
0.033865888
0.033136649
0.03162952
0.028833633
0.025880169
0.026528618
0.031105458
0.034357529
0.03105041
0.016427682
0.034512269
0.034491917
0.034438897
0.034332917
0.034132389
0.033751478
0.032990657
0.031409555
0.028586514
0.026063009
0.027502553
0.032363144
0.035266042
0.031424648
0.01642728
0.034431083
0.034409252
0.034352965
0.034242042
0.034034637
0.033641469
0.032847794
0.031192142
0.028380314
0.026364174
0.028561978
0.033609948
0.036135248
0.031774346
0.016427047
0.034351558
0.034328331
0.034269052
0.034153841
0.033940664
0.03353605
0.032707868
0.03097915
0.028225758
0.026786089
0.029692787
0.034839473
0.03696677
0.032101874
0.01642695
0.034273652
0.034249145
0.03418723
0.034068505
0.03385076
0.033435383
0.03257072
0.030773392
0.028133996
0.027328219
0.030880992
0.036047067
0.037762344
0.032409381
0.016426974
0.034197344
0.03417171
0.034107598
0.033986257
0.033765237
0.033339598
0.032436275
0.030578781
0.028116031
0.027987223
0.032113283
0.037229502
0.038523755
0.032698799
0.016427117
0.034122637
0.034096065
0.034030285
0.033907355
0.033684417
0.033248788
0.032304627
0.030400434
0.028182106
0.028757248
0.033377459
0.038384662
0.039252794
0.032971855
0.016427382
0.034049553
0.034022276
0.033955452
0.033832084
0.033608631
0.033163012
0.03217613
0.030244713
0.028341139
0.029630357
0.034662706
0.039511265
0.039951228
0.033230086
0.016427779
0.03397814
0.033950437
0.033883292
0.033760766
0.033538214
0.033082299
0.032051523
0.030119153
0.028600246
0.03059702
0.035959726
0.04060864
0.040620777
0.033474856
0.016428318
0.033908471
0.033880668
0.033814033
0.033693749
0.033473498
0.033006661
0.031932061
0.030032289
0.028964395
0.03164665
0.037260743
0.041676558
0.0412631
0.033707373
0.01642901
0.033840644
0.033813121
0.033747936
0.033631414
0.033414804
0.032936115
0.031819661
0.029993368
0.029436209
0.032768128
0.038559404
0.042715108
0.04187978
0.033928706
0.016429865
0.033774787
0.03374798
0.033685299
0.033574167
0.033362441
0.032870717
0.031717044
0.03001196
0.030015932
0.033950282
0.039850628
0.043724611
0.042472314
0.034139802
0.016430892
0.033711057
0.03368546
0.033626458
0.03352244
0.033316699
0.032810615
0.031627852
0.030097518
0.030701522
0.0351823
0.041130414
0.044705564
0.043042114
0.034341502
0.016432097
0.033649643
0.033625814
0.033571787
0.033476689
0.033277844
0.032756113
0.031556734
0.030258903
0.031488876
0.036454042
0.042395662
0.045658586
0.043590498
0.034534553
0.016433487
0.03359077
0.033569333
0.033521698
0.033437387
0.03324612
0.032707756
0.031509357
0.030503937
0.032372142
0.037756265
0.043643994
0.046584395
0.044118699
0.034719618
0.016435064
0.033534699
0.033516348
0.033476647
0.033405019
0.033221753
0.032666433
0.031492358
0.030839026
0.033344086
0.039080733
0.04487361
0.047483769
0.044627864
0.034897289
0.016436831
0.033481731
0.033467235
0.033437127
0.033380083
0.033204961
0.032633491
0.031513197
0.031268865
0.03439649
0.040420263
0.046083174
0.048357533
0.04511906
0.035068097
0.016438788
0.033432211
0.033422413
0.033403675
0.033363077
0.033195978
0.032610856
0.031579922
0.031796264
0.035520553
0.041768688
0.047271716
0.04920653
0.045593277
0.035232514
0.016440933
0.033386531
0.033382352
0.033376864
0.033354498
0.033195078
0.03260115
0.031700871
0.03242209
0.036707254
0.043120787
0.048438562
0.050031614
0.046051438
0.035390969
0.016443266
0.033345134
0.033347573
0.033357309
0.033354836
0.033202628
0.032607793
0.031884307
0.033145317
0.037947674
0.04447218
0.049583281
0.050833633
0.046494398
0.035543845
0.016445782
0.033308518
0.033318652
0.033345661
0.033364572
0.033219143
0.032635062
0.032138042
0.033963177
0.03923325
0.045819221
0.050705638
0.051613421
0.046922952
0.03569149
0.016448478
0.033277237
0.03329622
0.033342601
0.033384174
0.033245363
0.03268811
0.03246907
0.034871381
0.040555966
0.047158891
0.05180556
0.052371796
0.04733784
0.035834219
0.016451351
0.033251914
0.033280969
0.033348845
0.033414106
0.033282345
0.032772917
0.032883246
0.035864398
0.041908471
0.0484887
0.0528831
0.053109547
0.047739749
0.03597232
0.016454394
0.033233235
0.033273652
0.033365129
0.033454836
0.033331563
0.032896166
0.033385033
0.036935758
0.04328414
0.049806603
0.053938419
0.053827443
0.048129319
0.036106054
0.016457603
0.033221962
0.033275082
0.033392211
0.033506852
0.033395017
0.033065051
0.033977334
0.038078363
0.044677084
0.051110934
0.054971757
0.054526219
0.048507145
0.036235659
0.016460974
0.033218934
0.033286139
0.033430864
0.033570697
0.033475332
0.033287022
0.034661421
0.039284777
0.046082129
0.052400341
0.055983417
0.055206587
0.048873783
0.036361357
0.016464499
0.033225073
0.033307763
0.033481871
0.033647009
0.033575846
0.033569484
0.035436951
0.04054749
0.047494761
0.053673744
0.056973754
0.055869226
0.049229756
0.036483355
0.016468174
0.033241386
0.033340956
0.033546021
0.033736578
0.03370066
0.033919478
0.036302066
0.041859135
0.048911066
0.054930291
0.057943149
0.056514768
0.049575443
0.036601083
0.01647199
0.033268972
0.03338678
0.033624113
0.033840421
0.033854652
0.034343362
0.037253557
0.043212655
0.05032767
0.056169322
0.058892007
0.057143807
0.049911242
0.036714879
0.016475942
0.033309024
0.033446356
0.033716953
0.033959861
0.034043421
0.034846538
0.038287075
0.044601423
0.051741665
0.057390338
0.059820745
0.057756912
0.050237556
0.036825046
0.016480019
0.03336283
0.033520853
0.033825376
0.034096628
0.034273182
0.035433218
0.039397374
0.046019312
0.053150556
0.058592977
0.060729791
0.058354635
0.050554797
0.036931851
0.016484214
0.033431775
0.033611491
0.033950258
0.034252955
0.034550592
0.036106273
0.040578557
0.047460736
0.05455221
0.059776991
0.061619574
0.058937454
0.050862924
0.037035581
0.016488518
0.033517344
0.033719533
0.034092549
0.034431665
0.034882516
0.036867153
0.041824322
0.048920648
0.055944805
0.060942226
0.062490515
0.059505811
0.051162151
0.037136397
0.016492923
0.033621114
0.033846282
0.034253324
0.034636251
0.035275766
0.037715884
0.043128178
0.050394525
0.057326791
0.062088605
0.063343035
0.060060163
0.051452981
0.037234385
0.016497425
0.033744758
0.03399308
0.034433835
0.034870907
0.035736813
0.038651137
0.044483638
0.051878335
0.058696857
0.063216113
0.064177551
0.060600973
0.051735851
0.037329654
0.016502019
0.033890035
0.034161309
0.034635592
0.035140534
0.036271505
0.03967036
0.045884368
0.053368504
0.060053897
0.064324793
0.064994471
0.061128572
0.052011163
0.037422331
0.0165067
0.034058787
0.034352406
0.034860441
0.035450672
0.036884817
0.040769939
0.047324306
0.054861868
0.061396988
0.065414725
0.065794142
0.061642947
0.052279305
0.037512563
0.016511467
0.034252938
0.034567873
0.035110665
0.035807392
0.037580647
0.041945409
0.048797735
0.056355637
0.062725354
0.066486016
0.066576928
0.062144667
0.052540483
0.037600453
0.016516317
0.034474482
0.034809315
0.035389066
0.036217115
0.038361672
0.043191654
0.050299336
0.057847353
0.064038355
0.067538803
0.067343213
0.062634244
0.052794917
0.037686088
0.016521247
0.03472549
0.035078476
0.035699052
0.036686392
0.039229275
0.044503116
0.051824203
0.059334856
0.06533546
0.06857325
0.068093394
0.063112137
0.053042836
0.037769546
0.016526253
0.035008112
0.035377302
0.036044685
0.037221647
0.040183535
0.045873992
0.05336785
0.060816255
0.066616243
0.069589501
0.06882737
0.063578808
0.05328449
0.037850923
0.016531331
0.035324591
0.03570801
0.036430698
0.037828913
0.041223288
0.047298393
0.054926197
0.06228989
0.06788035
0.070587708
0.069545619
0.064034565
0.053520088
0.037930307
0.016536479
0.035677288
0.036073177
0.036862465
0.038513566
0.042346236
0.048770488
0.05649555
0.063754305
0.069127488
0.071568061
0.070248613
0.064479709
0.053749815
0.038007771
0.016541693
0.036068724
0.036475824
0.037345907
0.039280102
0.043549092
0.050284612
0.058072571
0.065208225
0.070357434
0.072530785
0.070936788
0.064914536
0.053973851
0.03808338
0.016546969
0.036501632
0.036919508
0.037887343
0.040131954
0.04482776
0.051835341
0.05965426
0.066650548
0.07157
0.073475728
0.071610524
0.065339341
0.054192384
0.038157197
0.016552305
0.036979027
0.037408389
0.03849329
0.041071367
0.046177519
0.053417548
0.061237919
0.068080294
0.072765015
0.074403189
0.072270172
0.06575439
0.054405591
0.038229281
0.016557696
0.037504289
0.037947274
0.039170223
0.042099345
0.047593202
0.055026431
0.062821119
0.069496597
0.073942366
0.075313494
0.072916048
0.066159929
0.054613632
0.038299688
0.01656314
0.038081245
0.038541613
0.039924306
0.043215652
0.049069371
0.056657523
0.064401681
0.070898704
0.075101911
0.076206925
0.07354845
0.066556201
0.054816653
0.038368467
0.016568632
0.038714242
0.039197436
0.040761131
0.044418879
0.050600463
0.058306699
0.065977658
0.072285947
0.07624344
0.077083727
0.074167654
0.066943446
0.055014794
0.038435663
0.01657417
0.039408197
0.039921233
0.041685475
0.045706555
0.05218092
0.059970155
0.067547281
0.073657704
0.077366976
0.077944206
0.074773923
0.06732189
0.05520819
0.038501319
0.016579751
0.040168608
0.040719762
0.042701096
0.047075287
0.053805281
0.061644395
0.069108951
0.075013443
0.078472607
0.078788617
0.075367509
0.067691737
0.055396964
0.038565473
0.01658537
0.041001492
0.041599805
0.043810582
0.04852093
0.055468267
0.06332623
0.070661263
0.076352563
0.079560262
0.079617163
0.075948663
0.068053185
0.05558123
0.038628161
0.016591025
0.041913267
0.042567886
0.04501527
0.050038755
0.057164824
0.065012724
0.072202875
0.0776746
0.080630133
0.080430048
0.076517621
0.068406419
0.055761095
0.038689415
0.016596712
0.042910543
0.04362996
0.046315219
0.051623614
0.058890149
0.066701167
0.073732568
0.078979245
0.081682353
0.081227471
0.0770746
0.068751615
0.05593666
0.038749264
0.016602429
0.043999846
0.044791117
0.047709246
0.053270097
0.060639733
0.068389128
0.075249203
0.080266024
0.082716971
0.082009631
0.077619805
0.069088933
0.056108016
0.038807735
0.016608172
0.045187284
0.046055305
0.049195015
0.054972663
0.062409325
0.070074287
0.07675168
0.081534844
0.083734048
0.082776708
0.07815343
0.069418524
0.056275247
0.038864852
0.016613937
0.046478172
0.047425113
0.050769154
0.05672574
0.064194938
0.071754502
0.078239059
0.082785578
0.08473365
0.083528871
0.078675655
0.069740526
0.056438433
0.038920635
0.016619723
0.04787667
0.048901604
0.052427407
0.058523833
0.065992889
0.073427802
0.079710317
0.084018005
0.085715841
0.084266275
0.079186643
0.070055069
0.056597642
0.038975104
0.016625525
0.049385438
0.050484233
0.054164774
0.060361542
0.067799633
0.075092232
0.081164968
0.08523194
0.086680672
0.08498906
0.079686546
0.070362267
0.05675294
0.039028275
0.016631341
0.051005375
0.052170827
0.055975681
0.062233669
0.06961191
0.07674584
0.082602387
0.086427211
0.087628183
0.085697353
0.0801755
0.070662228
0.056904383
0.039080162
0.016637167
0.052735433
0.05395764
0.057854088
0.064135121
0.071426497
0.078387236
0.084021966
0.087603641
0.088558402
0.086391263
0.080653628
0.070955045
0.057052024
0.039130776
0.016643001
0.054572562
0.055839467
0.05979365
0.066061015
0.073240164
0.080015128
0.08542313
0.08876105
0.089471341
0.087070883
0.081121036
0.071240804
0.057195906
0.039180126
0.016648839
0.056511739
0.057809785
0.061787714
0.068006432
0.075050339
0.081628258
0.08680532
0.089899251
0.090366998
0.087736288
0.081577817
0.071519577
0.057336068
0.039228221
0.016654679
0.058546135
0.05986094
0.063829414
0.069966581
0.076854653
0.083225427
0.088167993
0.091018045
0.091245349
0.088387535
0.082024048
0.071791427
0.057472542
0.039275063
0.016660517
0.060667286
0.061984222
0.065911611
0.0719373
0.078650851
0.084805491
0.089510608
0.092117219
0.092106354
0.089024662
0.082459789
0.072056403
0.057605355
0.039320656
0.01666635
0.062865303
0.064170237
0.068027475
0.073914581
0.080436786
0.086367342
0.09083263
0.093196548
0.092949951
0.089647687
0.082885086
0.072314547
0.057734524
0.039365
0.016672175
0.065129334
0.066409192
0.070170227
0.075894555
0.082210398
0.087909909
0.092133518
0.094255784
0.093776055
0.090256607
0.083299967
0.072565886
0.057860064
0.039408092
0.016677989
0.067447943
0.06869108
0.072333172
0.07787348
0.083969705
0.089432147
0.093412731
0.095294666
0.094584559
0.090851398
0.083704443
0.072810437
0.057981981
0.039449928
0.016683788
0.069809469
0.071005879
0.07450974
0.079847731
0.085712794
0.090933033
0.094669718
0.096312908
0.095375336
0.091432017
0.08409851
0.073048205
0.058100274
0.039490501
0.016689569
0.072202333
0.073343733
0.076693521
0.081813789
0.087437809
0.092411564
0.095903924
0.097310211
0.096148231
0.091998397
0.084482145
0.073279183
0.058214936
0.0395298
0.016695329
0.074615301
0.07569511
0.078878303
0.083768242
0.089142947
0.093866751
0.097114788
0.098286253
0.096903073
0.092550453
0.084855311
0.073503353
0.058325955
0.039567814
0.016701064
0.077037692
0.078050924
0.081058113
0.085707785
0.090826452
0.095297625
0.098301743
0.099240699
0.097639667
0.093088079
0.085217952
0.073720684
0.058433309
0.039604527
0.016706771
0.079459529
0.080402646
0.083227251
0.087629222
0.092486617
0.096703232
0.099464223
0.1001732
0.0983578
0.093611151
0.085569998
0.073931135
0.058536971
0.039639923
0.016712444
0.081871638
0.082742366
0.085380325
0.089529478
0.094121783
0.098082639
0.10060166
0.1010834
0.099057244
0.094119528
0.085911364
0.074134656
0.05863691
0.039673982
0.016718081
0.084265708
0.085062848
0.087512285
0.091405608
0.095730344
0.099434933
0.10171349
0.10197092
0.099737759
0.094613053
0.086241951
0.074331184
0.058733087
0.039706682
0.016723677
0.086634304
0.087357548
0.089618441
0.093254812
0.097310752
0.10075923
0.10279917
0.10283541
0.10039909
0.095091559
0.086561651
0.074520649
0.058825456
0.039738
0.016729228
0.088970866
0.089620623
0.091694486
0.095074447
0.098861523
0.10205468
0.10385816
0.10367649
0.10104099
0.09555487
0.086870343
0.074702972
0.058913971
0.039767908
0.016734729
0.091269671
0.091846911
0.093736507
0.096862041
0.10038125
0.10332047
0.10488994
0.10449382
0.1016632
0.096002801
0.0871679
0.074878068
0.058998576
0.039796381
0.016740175
0.09352579
0.094031914
0.095740983
0.098615303
0.1018686
0.10455582
0.10589403
0.10528705
0.10226546
0.096435168
0.08745419
0.075045849
0.059079217
0.03982339
0.016745561
0.095735033
0.096171759
0.097704793
0.10033213
0.10332232
0.10576001
0.10686997
0.10605585
0.10284754
0.096851786
0.087729079
0.07520622
0.059155834
0.039848904
0.016750882
0.097893887
0.098263157
0.099625198
0.10201063
0.10474129
0.10693237
0.10781734
0.10679993
0.1034092
0.097252477
0.087992432
0.075359086
0.059228368
0.039872894
0.016756134
0.099999456
0.10030336
0.10149983
0.1036491
0.10612444
0.1080723
0.10873575
0.10751901
0.10395023
0.09763707
0.088244118
0.075504353
0.059296757
0.03989533
0.01676131
0.1020494
0.10229012
0.10332669
0.10524603
0.10747085
0.10917925
0.10962486
0.10821285
0.10447043
0.098005407
0.08848401
0.075641928
0.059360941
0.039916181
0.016766405
0.10404186
0.10422163
0.10510411
0.10680015
0.10877968
0.11025273
0.1104844
0.10888125
0.10496965
0.098357348
0.088711994
0.075771723
0.059420862
0.039935419
0.016771413
0.10597544
0.10609649
0.10683071
0.10831034
0.11005023
0.11129235
0.11131411
0.10952405
0.10544774
0.09869277
0.088927963
0.075893656
0.059476466
0.039953016
0.016776329
0.10784911
0.10791366
0.10850544
0.10977572
0.11128189
0.11229776
0.11211383
0.11014112
0.1059046
0.099011575
0.089131829
0.076007654
0.059527701
0.039968947
0.016781147
0.10966219
0.10967243
0.11012751
0.11119555
0.11247419
0.11326871
0.11288342
0.11073239
0.10634017
0.09931369
0.089323519
0.076113653
0.059574523
0.039983188
0.016785862
0.11141432
0.11137237
0.11169635
0.11256932
0.11362674
0.11420501
0.11362281
0.11129783
0.1067544
0.099599071
0.089502981
0.076211604
0.059616894
0.03999572
0.016790467
0.11310536
0.11301331
0.11321165
0.11389663
0.1147393
0.11510656
0.11433199
0.11183745
0.10714732
0.099867705
0.089670183
0.076301471
0.059654785
0.040006527
0.016794957
0.11473542
0.11459527
0.11467328
0.11517728
0.11581171
0.11597332
0.115011
0.11235133
0.10751896
0.10011961
0.089825121
0.076383236
0.059688176
0.040015597
0.016799326
0.11630483
0.11611852
0.11608129
0.1164112
0.11684393
0.11680534
0.11565995
0.11283957
0.10786943
0.10035484
0.089967814
0.076456896
0.05971706
0.040022922
0.016803571
0.11781406
0.11758345
0.11743591
0.11759846
0.11783602
0.11760272
0.116279
0.11330235
0.10819885
0.10057349
0.090098311
0.07652247
0.059741438
0.040028503
0.016807685
0.11926374
0.11899063
0.1187375
0.11873926
0.11878812
0.11836566
0.11686837
0.11373987
0.1085074
0.10077569
0.090216688
0.076579998
0.059761327
0.040032344
0.016811664
0.12065464
0.12034075
0.11998656
0.1198339
0.11970049
0.11909441
0.11742833
0.11415241
0.10879531
0.10096158
0.09032305
0.07662954
0.059776757
0.040034454
0.016815504
0.12198762
0.12163462
0.12118371
0.12088282
0.12057344
0.11978928
0.1179592
0.11454025
0.10906282
0.10113137
0.090417532
0.076671177
0.059787772
0.040034851
0.016819201
0.12326365
0.12287312
0.12232965
0.12188651
0.12140739
0.12045066
0.11846136
0.11490375
0.10931024
0.1012853
0.090500297
0.076705014
0.059794427
0.04003356
0.016822751
0.12448377
0.12405724
0.12342518
0.12284557
0.1222028
0.12107897
0.11893521
0.1152433
0.1095379
0.10142362
0.090571537
0.076731175
0.059796796
0.04003061
0.016826152
0.12564909
0.12518802
0.12447118
0.12376068
0.12296021
0.12167471
0.11938123
0.11555933
0.10974617
0.10154663
0.090631468
0.076749806
0.059794963
0.040026037
0.016829401
0.12676077
0.12626657
0.12546859
0.12463258
0.12368024
0.1222384
0.11979992
0.11585229
0.10993545
0.10165466
0.090680334
0.076761073
0.059789026
0.040019883
0.016832496
0.12782002
0.12729403
0.1264184
0.12546205
0.12436352
0.12277063
0.1201918
0.11612267
0.11010617
0.10174806
0.090718402
0.076765159
0.059779094
0.040012198
0.016835436
0.12882808
0.12827159
0.12732163
0.12624994
0.12501075
0.12327201
0.12055745
0.11637099
0.11025878
0.1018272
0.090745958
0.076762266
0.059765291
0.040003034
0.01683822
0.1297862
0.12920047
0.12817937
0.12699714
0.12562266
0.12374317
0.12089745
0.1165978
0.11039376
0.10189247
0.09076331
0.07675261
0.059747747
0.039992449
0.016840848
0.13069566
0.13008189
0.12899271
0.12770456
0.12620003
0.12418481
0.12121242
0.11680365
0.11051161
0.1019443
0.09077078
0.07673642
0.059726604
0.039980505
0.016843319
0.13155777
0.13091711
0.12976277
0.12837315
0.12674365
0.12459761
0.121503
0.11698912
0.11061283
0.10198311
0.090768706
0.076713938
0.059702011
0.039967267
0.016845635
0.13237383
0.13170739
0.13049069
0.12900388
0.12725434
0.1249823
0.12176984
0.11715482
0.11069796
0.10200935
0.090757438
0.076685416
0.059674123
0.039952805
0.016847796
0.13314513
0.13245398
0.13117762
0.12959774
0.12773295
0.12533961
0.12201361
0.11730134
0.11076753
0.10202347
0.090737339
0.076651116
0.059643102
0.039937189
0.016849805
0.133873
0.13315816
0.13182473
0.13015573
0.12818033
0.1256703
0.12223499
0.1174293
0.11082209
0.10202594
0.090708777
0.076611307
0.059609114
0.039920492
0.016851662
0.13455874
0.13382121
0.13243316
0.13067887
0.12859735
0.12597514
0.12243466
0.11753933
0.11086219
0.10201722
0.09067213
0.076566261
0.059572331
0.039902787
0.01685337
0.13520365
0.13444439
0.13300411
0.13116818
0.1289849
0.1262549
0.12261333
0.11763205
0.1108884
0.1019978
0.090627782
0.07651626
0.059532924
0.039884151
0.016854932
0.13580905
0.13502896
0.13353873
0.1316247
0.12934388
0.12651036
0.1227717
0.11770811
0.11090127
0.10196817
0.090576119
0.076461585
0.05949107
0.039864659
0.01685635
0.13637623
0.1355762
0.13403819
0.13204946
0.12967518
0.12674231
0.12291049
0.11776815
0.11090139
0.10192879
0.090517532
0.076402524
0.059446946
0.039844386
0.016857629
0.13690649
0.13608737
0.13450368
0.1324435
0.1299797
0.12695157
0.1230304
0.11781281
0.11088931
0.10188017
0.090452416
0.076339363
0.059400731
0.039823409
0.016858771
0.13740111
0.13656371
0.13493636
0.13280787
0.13025837
0.12713892
0.12313215
0.11784272
0.11086561
0.10182279
0.090381164
0.076272392
0.059352601
0.039801805
0.01685978
0.13786137
0.13700648
0.13533739
0.1331436
0.1305121
0.12730517
0.12321646
0.11785855
0.11083086
0.10175714
0.090304171
0.0762019
0.059302736
0.039779647
0.016860661
0.13828854
0.1374169
0.13570792
0.13345174
0.13074179
0.12745113
0.12328405
0.11786093
0.11078563
0.10168372
0.09022183
0.076128175
0.059251313
0.039757011
0.016861417
0.13868386
0.13779619
0.1360491
0.1337333
0.13094836
0.1275776
0.12333564
0.1178505
0.11073049
0.10160299
0.090134534
0.076051503
0.059198508
0.039733969
0.016862053
0.13904856
0.13814556
0.13636206
0.13398933
0.13113271
0.12768537
0.12337193
0.11782789
0.110666
0.10151546
0.090042668
0.075972166
0.059144492
0.039710594
0.016862574
0.13938386
0.13846619
0.1366479
0.13422082
0.13129574
0.12777525
0.12339363
0.11779375
0.11059272
0.10142158
0.089946616
0.075890444
0.059089438
0.039686956
0.016862984
0.13969094
0.13875923
0.13690774
0.13442877
0.13143832
0.12784801
0.12340144
0.11774869
0.11051119
0.10132183
0.089846752
0.075806611
0.05903351
0.039663123
0.016863289
0.13997095
0.13902583
0.13714263
0.13461416
0.13156134
0.12790442
0.12339605
0.11769332
0.11042195
0.10121666
0.089743447
0.075720932
0.05897687
0.03963916
0.016863492
0.14022503
0.13926709
0.13735363
0.13477795
0.13166565
0.12794525
0.12337813
0.11762825
0.11032553
0.10110653
0.089637056
0.075633669
0.058919674
0.039615131
0.0168636
0.14045426
0.13948408
0.13754176
0.13492107
0.13175208
0.12797123
0.12334834
0.11755405
0.11022244
0.10099186
0.089527929
0.075545069
0.058862072
0.039591095
0.016863617
0.14065972
0.13967784
0.137708
0.13504443
0.13182146
0.12798309
0.12330732
0.1174713
0.11011319
0.10087309
0.089416401
0.075455376
0.058804206
0.039567108
0.016863548
0.14084243
0.13984939
0.13785332
0.13514891
0.13187456
0.12798153
0.1232557
0.11738055
0.10999824
0.10075061
0.089302794
0.075364818
0.058746213
0.039543224
0.016863398
0.14100337
0.1399997
0.13797865
0.13523538
0.13191216
0.12796724
0.12319408
0.11728233
0.10987807
0.10062481
0.089187417
0.075273614
0.058688219
0.039519492
0.016863171
0.14114352
0.14012972
0.13808488
0.13530466
0.13193501
0.12794087
0.12312305
0.11717717
0.10975313
0.10049609
0.089070565
0.075181971
0.058630345
0.039495957
0.016862873
0.1412638
0.14024035
0.1381729
0.13535756
0.13194383
0.12790308
0.12304318
0.11706556
0.10962384
0.10036478
0.088952517
0.075090085
0.058572702
0.03947266
0.016862508
0.14136511
0.14033248
0.13824353
0.13539484
0.13193932
0.12785448
0.12295501
0.11694797
0.10949062
0.10023123
0.088833537
0.074998139
0.058515391
0.039449639
0.016862081
0.14144832
0.14040697
0.13829761
0.13541728
0.13192216
0.12779566
0.12285906
0.11682488
0.10935386
0.10009577
0.088713878
0.074906303
0.05845851
0.039426927
0.016861595
0.14151429
0.14046466
0.13833591
0.13542559
0.131893
0.12772722
0.12275586
0.11669672
0.10921394
0.09995871
0.088593776
0.07481474
0.058402145
0.039404556
0.016861055
0.14156384
0.14050634
0.13835922
0.1354205
0.13185249
0.12764972
0.1226459
0.11656391
0.10907123
0.099820344
0.088473454
0.074723597
0.058346376
0.03938255
0.016860465
0.14159777
0.14053282
0.13836829