/*--------------------------------*- C++ -*----------------------------------*\
| =========                 |                                                 |
| \\      /  F ield         | OpenFOAM: The Open Source CFD Toolbox           |
|  \\    /   O peration     | Version:  2506                                  |
|   \\  /    A nd           | Website:  www.openfoam.com                      |
|    \\/     M anipulation  |                                                 |
\*---------------------------------------------------------------------------*/
FoamFile
{
    version     2.0;
    format      ascii;
    arch        "LSB;label=32;scalar=64";
    class       volScalarField;
    location    "27000/water";
    object      k;
}
// * * * * * * * * * * * * * * * * * * * * * * * * * * * * * * * * * * * * * //

dimensions      [0 2 -2 0 0 0 0];

internalField   nonuniform List<scalar> 
6000
(
0.0002144485
0.00021444827
0.00021444833
0.00021444852
0.00021444878
0.00021444911
0.00021444953
0.00021445001
0.00021445038
0.00021444961
0.00021444477
0.00021444847
0.00021482328
0.00022098609
0.00033298785
0.00019735372
0.00019735408
0.00019735481
0.00019735601
0.00019735759
0.00019735962
0.00019736212
0.0001973649
0.00019736678
0.00019736231
0.00019733424
0.0001972933
0.00019808165
0.00021190706
0.00042108833
0.00018260526
0.00018260625
0.00018260756
0.00018260957
0.0001826122
0.00018261554
0.00018261945
0.00018262311
0.00018262253
0.00018260174
0.00018251429
0.00018235696
0.00018354965
0.00020571076
0.0004915993
0.00016977104
0.00016977195
0.00016977358
0.00016977617
0.00016977959
0.00016978384
0.00016978847
0.00016979119
0.00016978242
0.00016972799
0.0001695392
0.00016920344
0.00017083025
0.00020141509
0.00054314021
0.00015851703
0.00015851791
0.00015851979
0.00015852287
0.0001585269
0.00015853173
0.00015853623
0.00015853548
0.0001585108
0.00015840225
0.00015807228
0.00015752308
0.00015966967
0.00019844232
0.00057747636
0.00014858047
0.00014858142
0.00014858351
0.00014858695
0.00014859138
0.00014859636
0.00014859955
0.0001485919
0.00014854197
0.00014835849
0.00014785779
0.00014709963
0.00014993181
0.00019659445
0.00059772639
0.00013975169
0.00013975271
0.00013975496
0.00013975864
0.00013976325
0.00013976781
0.00013976817
0.00013974945
0.00013966425
0.0001393877
0.00013870223
0.00013778194
0.00014154644
0.00019585229
0.00060724748
0.00013186192
0.00013186298
0.00013186534
0.00013186914
0.00013187366
0.00013187713
0.00013187282
0.00013183836
0.00013170812
0.00013132527
0.00013045854
0.00012946164
0.00013447268
0.00019626303
0.00060905754
0.00012477404
0.00012477514
0.00012477755
0.00012478136
0.00012478548
0.00012478703
0.00012477592
0.00012472085
0.00012453699
0.00012404097
0.00012301362
0.00012205827
0.00012868159
0.00019789321
0.0006056161
0.00011837572
0.00011837682
0.00011837924
0.0001183829
0.00011838626
0.00011838492
0.00011836468
0.00011828424
0.00011804014
0.00011743108
0.00011627928
0.00011550993
0.00012414935
0.00020080676
0.00059880682
0.0001125741
0.0001125752
0.00011257756
0.00011258091
0.00011258305
0.00011257774
0.00011254594
0.00011243584
0.00011212738
0.0001114124
0.00011018555
0.00010976786
0.00012085593
0.00020505367
0.00059001308
0.00010729189
0.00010729297
0.0001072952
0.00010729803
0.00010729845
0.00010728799
0.00010724223
0.00010709893
0.00010672477
0.00010591759
0.00010467621
0.00010479348
0.00011878602
0.00021066301
0.00058022149
0.0001024643
0.00010246533
0.00010246733
0.00010246942
0.00010246756
0.00010245071
0.00010238875
0.00010220964
0.0001017714
0.00010089174
9.9705638e-05
0.000100557
0.00011793046
0.00021763683
0.00057012062
9.8036637e-05
9.8037572e-05
9.8039255e-05
9.8040328e-05
9.8035582e-05
9.8011091e-05
9.7930966e-05
9.7714594e-05
9.7216801e-05
9.6289669e-05
9.5236719e-05
9.703687e-05
0.00011828673
0.00022594366
0.0005601824
9.3962451e-05
9.3963259e-05
9.3964497e-05
9.3964262e-05
9.3955981e-05
9.3922652e-05
9.3822751e-05
9.3568903e-05
9.3018884e-05
9.2074025e-05
9.1239503e-05
9.4219615e-05
0.00011985802
0.00023551194
0.0005507241
9.0202076e-05
9.020271e-05
9.0203366e-05
9.0201504e-05
9.0189027e-05
9.0145749e-05
9.0024925e-05
8.9734681e-05
8.914241e-05
8.8213812e-05
8.7690324e-05
9.20998e-05
0.00012265038
0.00024622465
0.00054195294
8.6721448e-05
8.6721856e-05
8.6721775e-05
8.6717945e-05
8.6700619e-05
8.664642e-05
8.6504047e-05
8.61798e-05
8.5557736e-05
8.4683334e-05
8.4571272e-05
9.0679902e-05
0.00012666793
0.00025791693
0.00053399692
8.3491166e-05
8.3491287e-05
8.3490304e-05
8.3484151e-05
8.3461349e-05
8.3395437e-05
8.3231463e-05
8.2876915e-05
8.2239851e-05
8.1461425e-05
8.1869885e-05
8.9969913e-05
0.00013190642
0.00027037858
0.00052692519
8.0485733e-05
8.0485502e-05
8.0483437e-05
8.0474603e-05
8.0445747e-05
8.0367548e-05
8.018253e-05
7.9802669e-05
7.9167636e-05
7.8530889e-05
7.9578989e-05
8.9986538e-05
0.00013834557
0.00028336255
0.00052076146
7.7682937e-05
7.7682283e-05
7.767895e-05
7.7667083e-05
7.7631664e-05
7.7540855e-05
7.7335982e-05
7.6937064e-05
7.6323276e-05
7.5878109e-05
7.7696612e-05
9.0751816e-05
0.00014594134
0.00029659939
0.00051549302
7.5063349e-05
7.5062196e-05
7.5057404e-05
7.5042167e-05
7.4999765e-05
7.4896302e-05
7.4673418e-05
7.4262946e-05
7.369182e-05
7.3492783e-05
7.6225917e-05
9.229105e-05
0.00015461944
0.000309816
0.00051107779
7.2609902e-05
7.2608172e-05
7.260173e-05
7.2582813e-05
7.2533118e-05
7.2417256e-05
7.2178869e-05
7.1765596e-05
7.1260831e-05
7.1367745e-05
7.5175079e-05
9.4629939e-05
0.00016427135
0.00032275576
0.00050745065
7.0307551e-05
7.0305165e-05
7.0296888e-05
7.0274015e-05
7.0216842e-05
7.0089161e-05
6.9838457e-05
6.94324e-05
6.9020131e-05
6.9498869e-05
7.4557053e-05
9.7790947e-05
0.00017475428
0.00033519669
0.00050453001
6.8142984e-05
6.8139863e-05
6.8129574e-05
6.8102519e-05
6.8037823e-05
6.7899244e-05
6.7640104e-05
6.7252585e-05
6.6961603e-05
6.7885016e-05
7.4389159e-05
0.00010178904
0.0001858954
0.00034696444
0.00050222457
6.6104382e-05
6.6100451e-05
6.608799e-05
6.6056581e-05
6.5984475e-05
6.5836276e-05
6.5573296e-05
6.5217006e-05
6.5079053e-05
6.6528011e-05
7.4692423e-05
0.00010662718
0.00019750038
0.00035793856
0.00050043991
6.418122e-05
6.4176406e-05
6.4161633e-05
6.4125766e-05
6.4046535e-05
6.3890369e-05
6.3628889e-05
6.3317981e-05
6.3368113e-05
6.5432644e-05
7.5490605e-05
0.00011229203
0.00020936499
0.00036805173
0.00049908424
6.2364094e-05
6.2358333e-05
6.2341135e-05
6.230078e-05
6.2214894e-05
6.2052808e-05
6.1798947e-05
6.1549161e-05
6.182618e-05
6.4606648e-05
7.680889e-05
0.00011875054
0.00022128816
0.00037728353
0.00049807291
6.064458e-05
6.0637817e-05
6.0618111e-05
6.0573325e-05
6.0481451e-05
6.031591e-05
6.0076617e-05
5.9905429e-05
6.045239e-05
6.4060643e-05
7.8672185e-05
0.00012594803
0.00023308444
0.00038565069
0.00049733132
5.9015114e-05
5.9007302e-05
5.8985044e-05
5.8935977e-05
5.8838997e-05
5.8672904e-05
5.8456016e-05
5.8382826e-05
5.9247606e-05
6.380802e-05
8.1103078e-05
0.00013380822
0.00024459408
0.00039319634
0.00049679626
5.746888e-05
5.745999e-05
5.7435175e-05
5.7382083e-05
5.7281105e-05
5.7117831e-05
5.6932149e-05
5.6978499e-05
5.8214438e-05
6.3864707e-05
8.411951e-05
0.00014223536
0.0002556896
0.00039997992
0.00049641599
5.599973e-05
5.5989745e-05
5.596242e-05
5.590567e-05
5.5802046e-05
5.5645466e-05
5.5500841e-05
5.5690668e-05
5.7357258e-05
6.4248809e-05
8.7732329e-05
0.0001511185
0.00026627829
0.00040606903
0.00049614946
5.4602101e-05
5.4591025e-05
5.4561286e-05
5.4501369e-05
5.4396714e-05
5.4251246e-05
5.4158685e-05
5.4518612e-05
5.6682234e-05
6.4980078e-05
9.194294e-05
0.00016033717
0.00027630116
0.00041153336
0.00049596497
5.3270953e-05
5.3258808e-05
5.3226813e-05
5.3164353e-05
5.3060564e-05
5.2931212e-05
5.2903001e-05
5.3462663e-05
5.6197343e-05
6.607918e-05
9.6741325e-05
0.00016976802
0.00028572901
0.00041644086
0.00049583865
5.2001708e-05
5.198854e-05
5.1954511e-05
5.1890276e-05
5.1789556e-05
5.1681971e-05
5.1731808e-05
5.2524225e-05
5.5912363e-05
6.7566765e-05
0.00010210471
0.00017929137
0.00029455685
0.00042085544
0.00049575298
5.0790203e-05
5.0776083e-05
5.0740313e-05
5.067523e-05
5.0580113e-05
5.050065e-05
5.0643813e-05
5.1705788e-05
5.5838827e-05
6.9462329e-05
0.00010799714
0.00018879709
0.0003027979
0.00042483586
0.00049569544
4.9632648e-05
4.9617675e-05
4.9580534e-05
4.9515698e-05
4.942908e-05
4.9384875e-05
4.9638394e-05
5.1010966e-05
5.5989917e-05
7.1782919e-05
0.00011437
0.00019818901
0.00031047772
0.00042843533
0.0004956574
4.8525586e-05
4.8509888e-05
4.8471831e-05
4.8408525e-05
4.8333699e-05
4.8332748e-05
4.8715611e-05
5.0444524e-05
5.6380275e-05
7.4541725e-05
0.0001211637
0.00020738765
0.00031762942
0.0004317015
0.00049563313
4.7465859e-05
4.74496e-05
4.7411173e-05
4.7350883e-05
4.7291577e-05
4.7342831e-05
4.7876207e-05
5.0012417e-05
5.702572e-05
7.7746677e-05
0.00012831013
0.00021633122
0.00032428982
0.00043467667
0.00049561908
4.6450583e-05
4.6433963e-05
4.6395814e-05
4.6340247e-05
4.6300671e-05
4.641414e-05
4.7121628e-05
4.9721816e-05
5.7942847e-05
8.1399164e-05
0.00013573578
0.00022497509
0.00033049682
0.00043739817
0.00049561324
4.5477121e-05
4.5460379e-05
4.5423267e-05
4.5374375e-05
4.5359268e-05
4.5546142e-05
4.6454049e-05
4.9581125e-05
5.9148507e-05
8.5493016e-05
0.00014336521
0.00023329015
0.00033628764
0.00043989867
0.00049561471
4.4543061e-05
4.4526479e-05
4.4491284e-05
4.4451289e-05
4.446598e-05
4.4738756e-05
4.5876394e-05
4.9599965e-05
6.0659158e-05
9.0013879e-05
0.0001511244
0.00024126036
0.0003416978
0.00044220662
0.00049562332
4.3646195e-05
4.3630105e-05
4.359784e-05
4.3569259e-05
4.3619731e-05
4.3992365e-05
4.5392377e-05
4.9789137e-05
6.2490098e-05
9.4939087e-05
0.0001589437
0.0002488802
0.00034676053
0.00044434669
0.00049563933
4.2784505e-05
4.2769292e-05
4.2741115e-05
4.2726796e-05
4.2819756e-05
4.3307822e-05
4.500653e-05
5.0160521e-05
6.4654624e-05
0.00010023807
0.00016676013
0.00025615208
0.00035150661
0.00044634014
0.00049566327
4.1956147e-05
4.1942252e-05
4.1919486e-05
4.1922641e-05
4.2065604e-05
4.2686474e-05
4.4724243e-05
5.0726936e-05
6.7163133e-05
0.00010587333
0.00017451901
0.00026308403
0.00035596427
0.00044820531
0.00049569579
4.1159436e-05
4.1147367e-05
4.1131511e-05
4.1155759e-05
4.1357137e-05
4.2130176e-05
4.4551789e-05
5.1501906e-05
7.0022253e-05
0.0001118018
0.0001821746
0.00026968789
0.00036015925
0.00044995792
0.00049573755
4.039284e-05
4.0383173e-05
4.0375928e-05
4.0425336e-05
4.0694537e-05
4.1641323e-05
4.4496351e-05
5.2499368e-05
7.323406e-05
0.00011797661
0.00018969026
0.00027597786
0.0003641149
0.00045161147
0.00049578915
3.9654963e-05
3.9648355e-05
3.9651641e-05
3.9730781e-05
4.0078323e-05
4.1222872e-05
4.456603e-05
5.3733282e-05
7.6795464e-05
0.00012434896
0.00019703788
0.00028196939
0.00036785236
0.00045317754
0.00049585112
3.8944544e-05
3.8941738e-05
3.8957721e-05
3.9071722e-05
3.9509355e-05
4.0878378e-05
4.4769829e-05
5.5217169e-05
8.0697836e-05
0.00013087001
0.00020419698
0.00028767848
0.00037139066
0.00045466609
0.00049592389
3.8260447e-05
3.8262283e-05
3.8293404e-05
3.8448018e-05
3.8988856e-05
4.0612024e-05
4.5117613e-05
5.6963567e-05
8.4926925e-05
0.00013749256
0.00021115368
0.00029312117
0.00037474695
0.00045608564
0.00049600778
3.7601653e-05
3.7609082e-05
3.7658086e-05
3.7859757e-05
3.851843e-05
4.0428652e-05
4.5620028e-05
5.8983442e-05
8.9463089e-05
0.00014417245
0.0002178995
0.00029831319
0.00037793661
0.00045744356
0.00049610301
3.6967262e-05
3.6981351e-05
3.7051327e-05
3.7307273e-05
3.8100084e-05
4.0333799e-05
4.628838e-05
6.128558e-05
9.4281841e-05
0.00015086965
0.00022443029
0.00030326971
0.00038097346
0.0004587462
0.00049620967
3.6356483e-05
3.6378439e-05
3.6472854e-05
3.6791149e-05
3.7736253e-05
4.0333719e-05
4.7134449e-05
6.3875986e-05
9.9354664e-05
0.0001575488
0.00023074526
0.00030800524
0.00038386991
0.00045999903
0.00049632782
3.5768637e-05
3.5799814e-05
3.5922562e-05
3.6312237e-05
3.7429828e-05
4.0435397e-05
4.8170259e-05
6.6757353e-05
0.00010465002
0.00016417961
0.00023684619
0.00031253355
0.0003866371
0.00046120682
0.00049645738
3.5203153e-05
3.5245078e-05
3.5400526e-05
3.587167e-05
3.7184185e-05
4.064656e-05
4.9407776e-05
6.9928644e-05
0.00011013448
0.00017073672
0.00024273671
0.00031686759
0.00038928503
0.00046237371
0.00049659824
3.4659571e-05
3.4713957e-05
3.4907005e-05
3.5470884e-05
3.7003216e-05
4.0975654e-05
5.0858552e-05
7.3384821e-05
0.00011577386
0.00017719949
0.00024842185
0.00032101951
0.00039182273
0.00046350331
0.00049675024
3.4137541e-05
3.4206315e-05
3.4442453e-05
3.5111633e-05
3.689136e-05
4.1431807e-05
5.2533324e-05
7.7116762e-05
0.00012153432
0.00018355155
0.00025390756
0.00032500062
0.0003942583
0.00046459877
0.00049691314
3.3636827e-05
3.3722154e-05
3.4007531e-05
3.4796016e-05
3.6853631e-05
4.2024758e-05
5.4441565e-05
8.1111385e-05
0.00012738326
0.0001897803
0.00025920045
0.00032882148
0.00039659907
0.00046566289
0.00049708671
3.3157312e-05
3.3261621e-05
3.3603121e-05
3.4526502e-05
3.6895651e-05
4.2764745e-05
5.6591036e-05
8.5351966e-05
0.00013329011
0.00019587637
0.0002643075
0.00033249188
0.00039885166
0.0004666981
0.00049727064
3.2699001e-05
3.2825019e-05
3.3230344e-05
3.4305957e-05
3.7023661e-05
4.3662353e-05
5.8987342e-05
8.9818639e-05
0.00013922683
0.00020183314
0.00026923591
0.00033602092
0.00040102205
0.00046770657
0.00049746465
3.2262029e-05
3.2412818e-05
3.2890574e-05
3.4137671e-05
3.7244543e-05
4.4728317e-05
6.1633539e-05
9.4489029e-05
0.00014516825
0.00020764624
0.00027399294
0.000339417
0.00040311569
0.00046869022
0.00049766841
3.1846672e-05
3.2025663e-05
3.2585463e-05
3.402539e-05
3.7565811e-05
4.5973274e-05
6.4529812e-05
9.933898e-05
0.00015109219
0.00021331317
0.00027858579
0.00034268791
0.00040513749
0.00046965077
0.00049788159
3.1453353e-05
3.1664392e-05
3.2316961e-05
3.3973346e-05
3.7995596e-05
4.7407474e-05
6.7673267e-05
0.00010434331
0.00015697949
0.0002188329
0.00028302153
0.00034584087
0.00040709192
0.00047058969
0.00049810386
3.1082657e-05
3.1330051e-05
3.2087341e-05
3.3986286e-05
3.8542603e-05
4.9040451e-05
7.1057851e-05
0.00010947653
0.00016281381
0.00022420565
0.00028730705
0.00034888261
0.00040898324
0.00047150444
0.00049833478
3.0735342e-05
3.1023913e-05
3.1899228e-05
3.4069503e-05
3.9216041e-05
5.088067e-05
7.4674413e-05
0.00011471355
0.0001685815
0.00022943258
0.00029144901
0.00035181926
0.00041081467
0.00047239507
0.00049857391
3.0412362e-05
3.0747498e-05
3.1755626e-05
3.4228856e-05
4.0025518e-05
5.2935163e-05
7.8510903e-05
0.00012003019
0.00017427129
0.0002345156
0.00029545378
0.00035465641
0.00041258912
0.00047326295
0.00049882071
3.0114877e-05
3.0502598e-05
3.1659947e-05
3.4470788e-05
4.0980901e-05
5.5209178e-05
8.2552695e-05
0.00012540362
0.00017987401
0.00023945715
0.0002993274
0.00035739919
0.00041430938
0.00047410989
0.00049907467
2.9844281e-05
3.0291301e-05
3.1616048e-05
3.4802329e-05
4.2092136e-05
5.7705864e-05
8.6783019e-05
0.00013081272
0.0001853824
0.00024426015
0.00030307572
0.00036005265
0.00041597751
0.00047493648
0.0004993353
2.9602222e-05
3.0116018e-05
3.1628257e-05
3.5231094e-05
4.3369027e-05
6.0426015e-05
9.1183467e-05
0.00013623819
0.00019079078
0.00024892784
0.00030670433
0.00036262128
0.000417595
0.00047574363
0.00049960217
2.9390632e-05
2.9979518e-05
3.170141e-05
3.5765253e-05
4.4820977e-05
6.3367903e-05
9.5734522e-05
0.00014166271
0.0001960949
0.00025346365
0.00031021841
0.0003651089
0.00041916378
0.00047653275
0.00049987495
2.9211752e-05
2.9884956e-05
3.1840876e-05
3.641348e-05
4.6456705e-05
6.6527191e-05
0.00010041609
0.00014707089
0.00020129165
0.00025787113
0.00031362281
0.00036751902
0.00042068624
0.00047730511
0.00050015336
2.9068173e-05
2.9835914e-05
3.2052586e-05
3.7184879e-05
4.8283938e-05
6.9896976e-05
0.00010520799
0.00015244923
0.00020637894
0.00026215394
0.00031692219
0.00036985503
0.00042216442
0.00047806213
0.00050043718
2.8962865e-05
2.9836432e-05
3.234305e-05
3.8088871e-05
5.0309095e-05
7.3467923e-05
0.0001100904
0.00015778601
0.00021135553
0.00026631584
0.00032012127
0.00037211983
0.00042359913
0.00047880561
0.00050072626
2.8899218e-05
2.9891048e-05
3.2719371e-05
3.9135046e-05
5.2536996e-05
7.7228501e-05
0.00011504421
0.00016307115
0.00021622091
0.00027036053
0.00032322392
0.00037431561
0.00042499296
0.00047953646
0.00050102047
2.8881089e-05
3.0004839e-05
3.3189235e-05
4.0332989e-05
5.4970594e-05
8.1165304e-05
0.00012005128
0.00016829607
0.0002209751
0.00027429151
0.00032623367
0.00037644512
0.00042634819
0.00048025523
0.0005013196
2.8912838e-05
3.0183454e-05
3.3760896e-05
4.169205e-05
5.7610759e-05
8.5263419e-05
0.00012509468
0.00017345354
0.00022561854
0.00027811219
0.00032915391
0.00037851123
0.00042766687
0.00048096234
0.00050162344
2.8999385e-05
3.043315e-05
3.4443127e-05
4.3221105e-05
6.045614e-05
8.9506838e-05
0.00013015874
0.00017853754
0.00023015226
0.00028182647
0.00033198843
0.00038051456
0.00042895138
0.00048165852
0.00050193179
2.9146247e-05
3.076082e-05
3.5245156e-05
4.492827e-05
6.3503103e-05
9.3878859e-05
0.00013522921
0.00018354314
0.00023457747
0.00028543745
0.00033473928
0.00038245835
0.00043020342
0.00048234438
0.00050224443
2.9359593e-05
3.1174013e-05
3.6176557e-05
4.6820623e-05
6.6745754e-05
9.836248e-05
0.00014029314
0.0001884663
0.0002388955
0.00028894795
0.00033740912
0.00038434552
0.00043142431
0.00048302039
0.00050256119
2.9646284e-05
3.1680941e-05
3.7247115e-05
4.8903912e-05
7.0176061e-05
0.00010294074
0.00014533895
0.00019330376
0.0002431078
0.00029236074
0.00034000084
0.00038617868
0.00043261526
0.0004836869
0.00050288185
3.0013912e-05
3.229047e-05
3.8466651e-05
5.1182287e-05
7.3784041e-05
0.00010759703
0.00015035632
0.00019805314
0.00024721656
0.00029567951
0.00034251496
0.00038796054
0.00043377761
0.00048434422
0.00050320621
3.0470834e-05
3.3012083e-05
3.9844804e-05
5.3658071e-05
7.7558027e-05
0.00011231532
0.00015533616
0.00020271255
0.00025122334
0.00029890572
0.00034495508
0.00038969319
0.00043491256
0.00048499266
0.00050353407
3.1026185e-05
3.3855827e-05
4.1390789e-05
5.633158e-05
8.1484963e-05
0.00011708035
0.00016027041
0.00020728048
0.00025512959
0.00030204157
0.00034732434
0.0003913785
0.00043602117
0.00048563248
0.00050386521
3.1689878e-05
3.483221e-05
4.311312e-05
5.9201015e-05
8.5550743e-05
0.00012187774
0.00016515207
0.00021175603
0.00025893728
0.00030508875
0.00034962562
0.00039301822
0.00043710434
0.00048626389
0.00050419944
3.2472577e-05
3.5952066e-05
4.5019316e-05
6.2262422e-05
8.9740539e-05
0.00012669409
0.00016997512
0.00021613883
0.00026264852
0.00030804844
0.00035186156
0.00039461408
0.00043816291
0.00048688705
0.00050453655
3.3385635e-05
3.7226375e-05
4.7115611e-05
6.5509742e-05
9.4039117e-05
0.00013151702
0.00017473425
0.00022042826
0.00026626391
0.00031092398
0.00035403445
0.00039616766
0.0004391977
0.00048750213
0.00050487635
3.4440986e-05
3.8666035e-05
4.9406667e-05
6.8934928e-05
9.8431124e-05
0.00013633507
0.00017942476
0.00022462382
0.0002697848
0.00031371829
0.00035614637
0.00039768036
0.00044020939
0.00048810924
0.00050521864
3.5650996e-05
4.0281588e-05
5.1895335e-05
7.2528135e-05
0.00010290136
0.00014113793
0.00018404319
0.00022872687
0.00027321047
0.00031643403
0.00035819938
0.00039915349
0.00044119864
0.00048870846
0.00050556322
3.7028236e-05
4.2082907e-05
5.4582446e-05
7.6277959e-05
0.00010743497
0.00014591612
0.00018858597
0.00023273618
0.00027654356
0.00031907355
0.00036019536
0.00040058825
0.00044216602
0.00048929988
0.00050590989
3.8585207e-05
4.4078852e-05
5.7466684e-05
8.0171704e-05
0.00011201755
0.00015066095
0.00019304976
0.00023665128
0.00027978652
0.00032163898
0.00036213603
0.00040198576
0.00044311205
0.00048988352
0.00050625847
4.0333984e-05
4.6276909e-05
6.0544523e-05
8.4195692e-05
0.00011663544
0.00015536502
0.00019743344
0.00024047004
0.0002829415
0.00032413243
0.00036402299
0.00040334701
0.00044403721
0.00049045943
0.00050660875
4.22858e-05
4.8682834e-05
6.3810247e-05
8.833554e-05
0.00012127561
0.00016002114
0.00020173345
0.00024419357
0.00028601044
0.00032655581
0.0003658577
0.00040467293
0.00044494189
0.0004910276
0.00050696056
4.4450584e-05
5.1300322e-05
6.7256033e-05
9.2576418e-05
0.0001259257
0.0001646228
0.00020594657
0.00024782319
0.00028899516
0.0003289109
0.00036764151
0.00040596435
0.00044582648
0.00049158802
0.00050731369
4.6836461e-05
5.4130724e-05
7.0872137e-05
9.69034e-05
0.00013057454
0.00016916548
0.00021006867
0.00025135992
0.00029189738
0.00033119935
0.00036937566
0.00040722202
0.00044669128
0.00049214066
0.00050766797
4.9449258e-05
5.7172823e-05
7.4647074e-05
0.00010130149
0.00013521102
0.00017364211
0.00021409922
0.00025480474
0.00029471871
0.00033342266
0.00037106126
0.00040844662
0.00044753656
0.00049268546
0.00050802321
5.2292045e-05
6.0422715e-05
7.8567954e-05
0.00010575626
0.00013982631
0.0001780451
0.0002180375
0.00025815861
0.00029746065
0.00033558221
0.00037269934
0.00040963875
0.00044836256
0.00049322236
0.00050837921
5.536475e-05
6.3873756e-05
8.2620648e-05
0.00011025322
0.00014440994
0.00018236977
0.00022188278
0.00026142242
0.00030012455
0.00033767926
0.00037429082
0.00041079894
0.00044916946
0.00049375128
0.0005087358
5.8663903e-05
6.7516684e-05
8.6790398e-05
0.0001147797
0.00014895016
0.00018661248
0.00022563445
0.000264597
0.00030271164
0.00033971494
0.0003758365
0.00041192764
0.00044995739
0.0004942721
0.00050909279
6.2182518e-05
7.1339753e-05
9.1061792e-05
0.00011932099
0.00015343811
0.00019076982
0.00022929196
0.00026768308
0.00030522305
0.00034169027
0.00037733712
0.00041302526
0.00045072646
0.0004947847
0.00050944999
6.5910198e-05
7.5329188e-05
9.5419588e-05
0.00012386171
0.00015786615
0.00019483868
0.00023285479
0.00027068134
0.00030765976
0.00034360613
0.00037879329
0.0004140921
0.00045147673
0.00049528894
0.0005098072
6.9833685e-05
7.9469699e-05
9.9845304e-05
0.00012838913
0.00016222725
0.0001988162
0.00023632244
0.00027359233
0.00031002263
0.0003454633
0.00038020554
0.00041512844
0.00045220822
0.00049578466
0.00051016425
7.393617e-05
8.3742437e-05
0.00010432174
0.00013289126
0.00016651492
0.00020269973
0.00023969443
0.00027641653
0.0003123124
0.00034726243
0.00038157432
0.00041613446
0.0004529209
0.00049627168
0.00051052093
7.8197594e-05
8.8127408e-05
0.000108832
0.00013735687
0.00017072317
0.00020648684
0.00024297025
0.0002791543
0.00031452969
0.00034900408
0.00038289996
0.00041711029
0.00045361472
0.00049674979
0.00051087705
8.2595732e-05
9.2603756e-05
0.0001133596
0.00014177543
0.00017484651
0.00021017526
0.00024614939
0.00028180591
0.00031667497
0.00035068866
0.00038418273
0.00041805598
0.00045428955
0.00049721878
0.0005112324
8.7106846e-05
9.7150185e-05
0.00011788867
0.00014613719
0.00017887989
0.00021376289
0.00024923133
0.00028437153
0.00031874864
0.00035231651
0.00038542279
0.00041897154
0.00045494527
0.00049767841
0.00051158677
9.170636e-05
0.00010174537
0.00012240397
0.00015043308
0.0001828187
0.00021724778
0.00025221552
0.00028685125
0.00032075094
0.00035388783
0.00038662021
0.00041985689
0.00045558167
0.00049812839
0.00051193996
9.6369481e-05
0.00010636833
0.00012689109
0.00015465477
0.00018665876
0.00022062816
0.00025510143
0.00028924506
0.00032268203
0.00035540275
0.00038777501
0.00042071191
0.00045619853
0.00049856845
0.00051229173
0.00010107177
0.00011099873
0.00013133643
0.0001587946
0.00019039628
0.00022390241
0.00025788852
0.0002915529
0.00032454197
0.00035686127
0.00038888708
0.0004215364
0.00045679556
0.00049899826
0.00051264186
0.00010578962
0.00011561722
0.00013572734
0.00016284562
0.0001940279
0.00022706909
0.00026057628
0.00029377463
0.00032633071
0.00035826333
0.00038995628
0.00042233012
0.00045737247
0.00049941749
0.00051299011
0.00011050064
0.00012020559
0.00014005212
0.00016680155
0.00019755064
0.00023012694
0.00026316423
0.00029591009
0.00032804817
0.00035960877
0.00039098238
0.00042309275
0.00045792888
0.00049982578
0.00051333621
0.00011518399
0.00012474699
0.00014430009
0.00017065677
0.00020096192
0.00023307487
0.00026565195
0.00029795907
0.00032969417
0.00036089738
0.00039196506
0.00042382393
0.00045846441
0.00050022274
0.00051367992
0.00011982053
0.00012922601
0.00014846158
0.00017440634
0.00020425957
0.00023591203
0.00026803909
0.00029992138
0.00033126849
0.00036212887
0.00039290399
0.00042452327
0.00045897864
0.00050060797
0.00051402095
0.000124393
0.00013362878
0.00015252797
0.00017804595
0.00020744179
0.00023863775
0.0002703254
0.00030179683
0.00033277092
0.00036330294
0.00039379877
0.00042519031
0.0004594711
0.00050098104
0.00051435903
0.00012888604
0.00013794298
0.00015649166
0.00018157191
0.00021050716
0.0002412516
0.00027251073
0.00030358528
0.00033420119
0.00036441922
0.00039464897
0.00042582458
0.00045994131
0.00050134151
0.00051469386
0.0001332862
0.00014215785
0.00016034606
0.00018498115
0.00021345464
0.00024375339
0.00027459507
0.00030528664
0.00033555907
0.00036547735
0.00039545411
0.00042642557
0.00046038877
0.00050168892
0.00051502513
0.0001375819
0.0001462641
0.00016408557
0.0001882712
0.00021628358
0.00024614314
0.00027657854
0.00030690089
0.00033684437
0.00036647697
0.00039621374
0.00042699277
0.00046081297
0.0005020228
0.00051535252
0.00014176333
0.00015025391
0.00016770554
0.00019144013
0.00021899364
0.00024842113
0.00027846143
0.00030842811
0.00033805693
0.00036741772
0.00039692739
0.00042752563
0.00046121336
0.00050234269
0.0005156757
0.00014582237
0.00015412082
0.00017120218
0.00019448657
0.00022158486
0.00025058785
0.00028024419
0.00030986849
0.00033919665
0.00036829931
0.0003975946
0.00042802364
0.00046158944
0.00050264811
0.00051599435
0.00014975244
0.00015785962
0.00017457258
0.00019740966
0.00022405759
0.00025264406
0.00028192744
0.00031122234
0.00034026352
0.00036912147
0.00039821494
0.00042848629
0.00046194067
0.00050293858
0.0005163081
0.00015354839
0.0001614663
0.00017781462
0.000200209
0.00022641248
0.0002545907
0.00028351197
0.00031249011
0.00034125765
0.000369884
0.00039878803
0.00042891311
0.00046226656
0.00050321364
0.00051661661
0.00015720634
0.00016493789
0.00018092687
0.00020288464
0.00022865048
0.00025642897
0.00028499877
0.00031367238
0.00034217922
0.0003705868
0.00039931355
0.00042930364
0.00046256663
0.00050347285
0.00051691953
0.0001607236
0.00016827241
0.00018390858
0.00020543706
0.00023077281
0.00025816025
0.00028638897
0.0003147699
0.00034302856
0.00037122984
0.00039979125
0.00042965751
0.00046284045
0.00050371577
0.00051721649
0.00016409847
0.00017146873
0.00018675963
0.00020786709
0.00023278092
0.00025978612
0.00028768391
0.00031578355
0.00034380611
0.0003718132
0.00040022094
0.00042997438
0.00046308761
0.00050394202
0.00051750714
0.00016733019
0.00017452649
0.00018948041
0.00021017593
0.00023467651
0.00026130834
0.00028888506
0.00031671438
0.00034451247
0.0003723371
0.00040060256
0.000430254
0.00046330778
0.00050415124
0.00051779112
0.00017041877
0.00017744602
0.00019207179
0.00021236506
0.00023646146
0.00026272883
0.00028999407
0.00031756358
0.00034514837
0.00037280187
0.00040093613
0.0004304962
0.00046350069
0.0005043431
0.00051806808
0.00017336492
0.00018022821
0.0001945351
0.00021443626
0.00023813787
0.00026404969
0.00029101274
0.00031833252
0.00034571467
0.00037320795
0.00040122179
0.00043070091
0.00046366614
0.00050451735
0.00051833769
0.00017616994
0.00018287452
0.00019687203
0.00021639154
0.00023970797
0.00026527312
0.000291943
0.00031902266
0.0003462124
0.00037355594
0.00040145981
0.00043086816
0.00046380401
0.00050467377
0.00051859963
0.00017883564
0.00018538679
0.00019908458
0.00021823314
0.00024117415
0.00026640147
0.00029278691
0.00031963566
0.00034664271
0.00037384658
0.00040165056
0.00043099808
0.00046391426
0.00050481222
0.00051885358
0.00018136427
0.00018776728
0.00020117507
0.00021996349
0.00024253893
0.00026743719
0.00029354664
0.00032017325
0.00034700691
0.00037408073
0.00040179457
0.00043109092
0.00046399696
0.00050493261
0.00051909926
0.00018375841
0.00019001855
0.00020314603
0.00022158516
0.00024380494
0.00026838281
0.00029422447
0.00032063734
0.00034730643
0.0003742594
0.00040189248
0.00043114706
0.00046405227
0.00050503492
0.0005193364
0.00018602096
0.00019214343
0.00020500021
0.00022310086
0.00024497488
0.00026924096
0.00029482277
0.00032102991
0.00034754283
0.00037438374
0.00040194507
0.00043116697
0.00046408044
0.00050511923
0.00051956476
0.00018815506
0.00019414495
0.00020674051
0.00022451344
0.00024605155
0.00027001431
0.00029534398
0.00032135305
0.00034771778
0.000374455
0.00040195324
0.00043115127
0.00046408183
0.00050518566
0.00051978412
0.00019016403
0.00019602633
0.00020836998
0.00022582581
0.00024703779
0.00027070562
0.00029579064
0.00032160894
0.00034783308
0.00037447459
0.00040191803
0.00043110066
0.00046405691
0.00050523441
0.0005199943
0.00019205135
0.00019779093
0.00020989178
0.00022704097
0.00024793651
0.00027131764
0.00029616529
0.00032179985
0.00034789061
0.00037444399
0.00040184057
0.00043101598
0.00046400621
0.00050526575
0.00052019515
0.0001938206
0.00019944219
0.00021130912
0.00022816196
0.00024875062
0.0002718532
0.00029647056
0.00032192809
0.00034789234
0.00037436482
0.00040172212
0.00043089817
0.00046393039
0.00050528004
0.00052038653
0.00019547547
0.00020098363
0.0002126253
0.00022919186
0.00024948306
0.0002723151
0.00029670907
0.00032199604
0.00034784032
0.00037423877
0.00040156403
0.00043074825
0.00046383017
0.00050527768
0.00052056837
0.00019701966
0.00020241884
0.00021384365
0.00023013377
0.0002501368
0.00027270618
0.0002968835
0.00032200612
0.00034773667
0.00037406763
0.00040136776
0.00043056736
0.00046370636
0.00050525913
0.00052074059
0.00019845692
0.00020375141
0.00021496752
0.00023099081
0.00025071477
0.00027302926
0.0002969965
0.00032196078
0.00034758356
0.00037385324
0.00040113481
0.00043035669
0.00046355985
0.00050522491
0.00052090316
0.00019979102
0.00020498494
0.00021600024
0.00023176608
0.00025121992
0.00027328714
0.00029705076
0.00032186249
0.00034738319
0.00037359752
0.00040086681
0.00043011754
0.00046339159
0.0005051756
0.0005210561
0.00020102569
0.00020612303
0.00021694517
0.00023246269
0.00025165517
0.00027348264
0.00029704893
0.00032171373
0.0003471378
0.00037330243
0.00040056539
0.00042985123
0.00046320257
0.00050511182
0.00052119942
0.00020216465
0.00020716926
0.00021780563
0.00023308369
0.00025202341
0.00027361851
0.00029699365
0.00032151697
0.00034684967