/*--------------------------------*- C++ -*----------------------------------*\
| =========                 |                                                 |
| \\      /  F ield         | OpenFOAM: The Open Source CFD Toolbox           |
|  \\    /   O peration     | Version:  2506                                  |
|   \\  /    A nd           | Website:  www.openfoam.com                      |
|    \\/     M anipulation  |                                                 |
\*---------------------------------------------------------------------------*/
FoamFile
{
    version     2.0;
    format      ascii;
    arch        "LSB;label=32;scalar=64";
    class       volScalarField;
    location    "27000/water";
    object      nut;
}
// * * * * * * * * * * * * * * * * * * * * * * * * * * * * * * * * * * * * * //

dimensions      [0 2 -1 0 0 0 0];

internalField   nonuniform List<scalar> 
6000
(
4.1367308e-05
4.1367285e-05
4.1367292e-05
4.1367317e-05
4.136735e-05
4.1367394e-05
4.1367445e-05
4.1367477e-05
4.1367269e-05
4.1365028e-05
4.1345959e-05
4.1185428e-05
3.984402e-05
3.0619188e-05
1.3489073e-05
4.0862094e-05
4.0862089e-05
4.0862128e-05
4.0862206e-05
4.086231e-05
4.0862441e-05
4.0862573e-05
4.0862525e-05
4.0861044e-05
4.0849566e-05
4.0769767e-05
4.0233638e-05
3.6930279e-05
2.3809326e-05
1.5168915e-05
4.0408426e-05
4.0408431e-05
4.0408496e-05
4.0408619e-05
4.040878e-05
4.0408965e-05
4.0409066e-05
4.0408421e-05
4.0403049e-05
4.0369314e-05
4.0169922e-05
3.9053519e-05
3.3674827e-05
1.9530254e-05
1.6389796e-05
3.9998212e-05
3.9998216e-05
3.9998298e-05
3.9998456e-05
3.9998657e-05
3.9998846e-05
3.9998699e-05
3.999645e-05
3.9982628e-05
3.9907469e-05
3.9519874e-05
3.7665236e-05
3.0439418e-05
1.6813321e-05
1.7227565e-05
3.9625122e-05
3.9625133e-05
3.9625231e-05
3.9625419e-05
3.9625638e-05
3.9625739e-05
3.9624947e-05
3.9619415e-05
3.959045e-05
3.9450123e-05
3.8807695e-05
3.6131535e-05
2.7477322e-05
1.5090355e-05
1.7763765e-05
3.9283984e-05
3.9284007e-05
3.9284119e-05
3.9284324e-05
3.9284521e-05
3.9284369e-05
3.9282279e-05
3.9270986e-05
3.9218236e-05
3.8986823e-05
3.8033859e-05
3.4524992e-05
2.4897642e-05
1.400968e-05
1.8072537e-05
3.8970512e-05
3.8970546e-05
3.8970668e-05
3.8970871e-05
3.8970973e-05
3.8970306e-05
3.8965958e-05
3.8945612e-05
3.8858945e-05
3.8510812e-05
3.7207229e-05
3.2908964e-05
2.2716803e-05
1.3360893e-05
1.8215906e-05
3.8681158e-05
3.8681199e-05
3.8681323e-05
3.8681493e-05
3.8681392e-05
3.8679823e-05
3.8671916e-05
3.8638477e-05
3.8506919e-05
3.801881e-05
3.6341286e-05
3.1331233e-05
2.0908463e-05
1.30184e-05
1.8243034e-05
3.841296e-05
3.8413006e-05
3.8413119e-05
3.8413209e-05
3.8412743e-05
3.8409742e-05
3.8396631e-05
3.8345462e-05
3.8157885e-05
3.7510375e-05
3.5450851e-05
2.9823717e-05
1.9431977e-05
1.2906145e-05
1.8191421e-05
3.816343e-05
3.8163474e-05
3.8163556e-05
3.8163497e-05
3.8162446e-05
3.8157327e-05
3.8137042e-05
3.8063106e-05
3.7808869e-05
3.6987081e-05
3.454982e-05
2.8405299e-05
1.8246291e-05
1.2977275e-05
1.8088864e-05
3.7930457e-05
3.7930491e-05
3.7930513e-05
3.793021e-05
3.7928279e-05
3.7920197e-05
3.7890497e-05
3.7788579e-05
3.7458031e-05
3.6451747e-05
3.3649968e-05
2.7085594e-05
1.7315649e-05
1.3202297e-05
1.7955551e-05
3.7712242e-05
3.7712253e-05
3.7712173e-05
3.7711499e-05
3.7708322e-05
3.7696279e-05
3.7654711e-05
3.7519641e-05
3.7104472e-05
3.5907781e-05
3.2760531e-05
2.58684e-05
1.6611172e-05
1.3561911e-05
1.7805936e-05
3.7507239e-05
3.7507212e-05
3.7506973e-05
3.7505765e-05
3.7500895e-05
3.7483757e-05
3.7427744e-05
3.725459e-05
3.6748014e-05
3.5358688e-05
3.188827e-05
2.4754408e-05
1.6110613e-05
1.4042468e-05
1.7650267e-05
3.7314115e-05
3.7314026e-05
3.7313556e-05
3.7311613e-05
3.7304527e-05
3.7281048e-05
3.7207963e-05
3.6992195e-05
3.6389e-05
3.4807726e-05
3.1037799e-05
2.3743174e-05
1.5797412e-05
1.4632945e-05
1.7495753e-05
3.7131708e-05
3.713153e-05
3.7130739e-05
3.7127817e-05
3.7117921e-05
3.7086772e-05
3.6994026e-05
3.6731629e-05
3.6028109e-05
3.4257704e-05
3.0212055e-05
2.2834479e-05
1.5659519e-05
1.5322866e-05
1.7347422e-05
3.6959006e-05
3.6958703e-05
3.6957478e-05
3.6953297e-05
3.6939934e-05
3.6899735e-05
3.6784847e-05
3.64724e-05
3.5666203e-05
3.3710866e-05
2.9412801e-05
2.2029191e-05
1.5688156e-05
1.6100896e-05
1.7208725e-05
3.6795116e-05
3.6794644e-05
3.6792855e-05
3.6787094e-05
3.6769555e-05
3.6718912e-05
3.6579574e-05
3.6214282e-05
3.5304204e-05
3.3168861e-05
2.8641157e-05
2.132974e-05
1.587657e-05
1.695401e-05
1.7081944e-05
3.6639251e-05
3.6638559e-05
3.6636051e-05
3.6628355e-05
3.6605895e-05
3.6543431e-05
3.637756e-05
3.5957252e-05
3.4942996e-05
3.2632763e-05
2.789813e-05
2.0740252e-05
1.6218811e-05
1.7867211e-05
1.6968459e-05
3.6490711e-05
3.6489738e-05
3.6486338e-05
3.6476321e-05
3.6448171e-05
3.6372563e-05
3.6178336e-05
3.5701433e-05
3.4583359e-05
3.2103134e-05
2.7185145e-05
2.0266398e-05
1.6708562e-05
1.8823778e-05
1.6868922e-05
3.6348869e-05
3.6347546e-05
3.6343063e-05
3.6330312e-05
3.62957e-05
3.6205706e-05
3.5981587e-05
3.5447046e-05
3.4225914e-05
3.1580129e-05
2.6504571e-05
1.991497e-05
1.7338099e-05
1.9805968e-05
1.6783375e-05
3.6213165e-05
3.6211415e-05
3.6205638e-05
3.6189726e-05
3.6147887e-05
3.6042373e-05
3.5787125e-05
3.5194368e-05
3.3871092e-05
3.1063631e-05
2.5860194e-05
1.9693245e-05
1.8097487e-05
2.0796033e-05
1.6711346e-05
3.6083093e-05
3.6080831e-05
3.6073537e-05
3.6054024e-05
3.6004223e-05
3.5882185e-05
3.5594869e-05
3.4943693e-05
3.3519118e-05
3.0553441e-05
2.5257605e-05
1.96082e-05
1.8974102e-05
2.1777347e-05
1.6651939e-05
3.5958194e-05
3.5955329e-05
3.5946284e-05
3.592273e-05
3.5864274e-05
3.5724854e-05
3.5404824e-05
3.4695304e-05
3.3170007e-05
3.0049498e-05
2.4704419e-05
1.9665646e-05
1.9952579e-05
2.2735414e-05
1.660395e-05
3.5838054e-05
3.5834489e-05
3.582345e-05
3.5795422e-05
3.5727676e-05
3.5570179e-05
3.521706e-05
3.444945e-05
3.2823581e-05
2.9552162e-05
2.4210265e-05
1.9869402e-05
2.1015194e-05
2.3658589e-05
1.6565971e-05
3.5722292e-05
3.5717927e-05
3.5704651e-05
3.5671733e-05
3.5594133e-05
3.5418031e-05
3.50317e-05
3.4206321e-05
3.2479493e-05
2.9062524e-05
2.3786503e-05
2.022057e-05
2.2142641e-05
2.4538397e-05
1.6536511e-05
3.5610563e-05
3.5605296e-05
3.558954e-05
3.5551342e-05
3.5463408e-05
3.5268352e-05
3.48489e-05
3.3966035e-05
3.2137286e-05
2.858275e-05
2.3445668e-05
2.0717024e-05
2.3315072e-05
2.5369467e-05
1.6514097e-05
3.5502551e-05
3.549628e-05
3.5477808e-05
3.5433974e-05
3.5335321e-05
3.5121137e-05
3.466884e-05
3.3728621e-05
3.1796463e-05
2.8116417e-05
2.3200675e-05
2.1353142e-05
2.4513224e-05
2.6149157e-05
1.6497357e-05
3.5397967e-05
3.539059e-05
3.536918e-05
3.5319398e-05
3.5209747e-05
3.4976437e-05
3.4491706e-05
3.3494016e-05
3.14566e-05
2.7668794e-05
2.3063903e-05
2.2119832e-05
2.5719465e-05
2.6877012e-05
1.6485071e-05
3.5296546e-05
3.5287966e-05
3.5263414e-05
3.5207424e-05
3.5086609e-05
3.4834344e-05
3.4317681e-05
3.3262057e-05
3.1117487e-05
2.7247026e-05
2.3046253e-05
2.3004861e-05
2.6918581e-05
2.7554165e-05
1.6476201e-05
3.5198047e-05
3.5188175e-05
3.5160297e-05
3.5097901e-05
3.4965875e-05
3.4694991e-05
3.4146934e-05
3.3032492e-05
3.0779305e-05
2.6860148e-05
2.3156315e-05
2.3993438e-05
2.8098247e-05
2.8182809e-05
1.6469894e-05
3.5102251e-05
3.5091004e-05
3.5059649e-05
3.4990715e-05
3.4847558e-05
3.4558539e-05
3.3979609e-05
3.2804987e-05
3.0442843e-05
2.6518901e-05
2.3399716e-05
2.5069008e-05
2.9249139e-05
2.8765761e-05
1.6465472e-05
3.5008959e-05
3.4996268e-05
3.4961317e-05
3.488579e-05
3.4731711e-05
3.4425177e-05
3.3815813e-05
3.2579164e-05
3.0109732e-05
2.6235323e-05
2.3778716e-05
2.6214168e-05
3.0364756e-05
2.9306158e-05
1.646241e-05
3.4917993e-05
3.4903801e-05
3.4865175e-05
3.4783085e-05
3.4618425e-05
3.4295113e-05
3.3655609e-05
3.235464e-05
2.9782687e-05
2.6022142e-05
2.4292059e-05
2.7411591e-05
3.1441033e-05
2.9807247e-05
1.6460314e-05
3.4829195e-05
3.4813462e-05
3.4771128e-05
3.4682592e-05
3.4507829e-05
3.416857e-05
3.3499011e-05
3.2131095e-05
2.9465731e-05
2.589204e-05
2.4935072e-05
2.8644859e-05
3.2475855e-05
3.0272255e-05
1.6458891e-05
3.4742423e-05
3.4725129e-05
3.4679107e-05
3.4584339e-05
3.4400083e-05
3.4045774e-05
3.3345975e-05
3.1908364e-05
2.9164362e-05
2.5856856e-05
2.5699991e-05
2.9899124e-05
3.3468558e-05
3.0704314e-05
1.6457936e-05
3.465756e-05
3.4638706e-05
3.4589068e-05
3.4488387e-05
3.4295378e-05
3.3926957e-05
3.3196403e-05
3.1686556e-05
2.8885627e-05
2.5926837e-05
2.6576456e-05
3.1161549e-05
3.4419485e-05
3.1106401e-05
1.6457305e-05
3.4574503e-05
3.4554114e-05
3.4500999e-05
3.4394828e-05
3.4193938e-05
3.381234e-05
3.3050148e-05
3.1466194e-05
2.8638063e-05
2.6110007e-05
2.7552147e-05
3.2421503e-05
3.5329635e-05
3.1481314e-05
1.6456902e-05
3.4493171e-05
3.4471301e-05
3.4414911e-05
3.4303789e-05
3.409601e-05
3.3702133e-05
3.2907027e-05
3.1248389e-05
2.8431491e-05
2.6411716e-05
2.8613482e-05
3.3670555e-05
3.6200409e-05
3.1831643e-05
1.6456669e-05
3.4413502e-05
3.4390234e-05
3.4330848e-05
3.4215429e-05
3.4001867e-05
3.3596524e-05
3.2766849e-05
3.1035013e-05
2.8276656e-05
2.6834391e-05
2.9746331e-05
3.4902297e-05
3.703343e-05
3.2159762e-05
1.6456572e-05
3.4335456e-05
3.4310905e-05
3.4248878e-05
3.4129939e-05
3.3911801e-05
3.3495676e-05
3.2629453e-05
3.0828884e-05
2.8184729e-05
2.7377499e-05
3.0936678e-05
3.6112069e-05
3.7830438e-05
3.2467823e-05
1.6456596e-05
3.4259011e-05
3.423333e-05
3.4169102e-05
3.4047543e-05
3.3826124e-05
3.3399718e-05
3.2494766e-05
3.0633922e-05
2.8166731e-05
2.8037691e-05
3.2171191e-05
3.7296636e-05
3.8593223e-05
3.2757763e-05
1.6456739e-05
3.4184168e-05
3.4157548e-05
3.409165e-05
3.3968498e-05
3.3745158e-05
3.3308744e-05
3.236288e-05
3.0455254e-05
2.8232925e-05
2.8809105e-05
3.3437647e-05
3.8453879e-05
3.9323576e-05
3.3031311e-05
1.6457005e-05
3.4110952e-05
3.4083626e-05
3.4016682e-05
3.3893092e-05
3.3669236e-05
3.3222813e-05
3.2234152e-05
3.0299252e-05
2.8392245e-05
2.9683788e-05
3.4725211e-05
3.9582513e-05
4.002327e-05
3.3290008e-05
1.6457402e-05
3.4039411e-05
3.4011658e-05
3.3944392e-05
3.3821645e-05
3.3598692e-05
3.3141955e-05
3.210932e-05
3.0173465e-05
2.8651819e-05
3.0652194e-05
3.6024571e-05
4.0681867e-05
4.0694026e-05
3.353522e-05
1.6457942e-05
3.3969616e-05
3.3941763e-05
3.3875008e-05
3.3754507e-05
3.3533859e-05
3.306618e-05
3.1989642e-05
3.0086445e-05
2.9016625e-05
3.1703717e-05
3.7327933e-05
4.1751711e-05
4.1337507e-05
3.3768156e-05
1.6458635e-05
3.3901667e-05
3.3874095e-05
3.3808792e-05
3.369206e-05
3.3475059e-05
3.2995506e-05
3.1877039e-05
3.0047453e-05
2.948929e-05
3.2827217e-05
3.8628936e-05
4.2792133e-05
4.1955299e-05
3.3989887e-05
1.6459492e-05
3.3835691e-05
3.3808835e-05
3.3746042e-05
3.3634709e-05
3.3422602e-05
3.2929991e-05
3.1774237e-05
3.0066079e-05
3.0070058e-05
3.4011503e-05
3.9922488e-05
4.3803458e-05
4.2548902e-05
3.4201364e-05
1.646052e-05
3.3771846e-05
3.3746203e-05
3.3687095e-05
3.358289e-05
3.3376778e-05
3.286978e-05
3.1684885e-05
3.0151792e-05
3.0756884e-05
3.5245742e-05
4.1204583e-05
4.4786179e-05
4.3119729e-05
3.4403428e-05
1.6461728e-05
3.3710322e-05
3.3686449e-05
3.3632325e-05
3.3537056e-05
3.3337852e-05
3.281518e-05
3.1613638e-05
3.0313467e-05
3.1545658e-05
3.6519778e-05
4.2472112e-05
4.574092e-05
4.3669103e-05
3.4596827e-05
1.6463121e-05
3.3651343e-05
3.3629867e-05
3.3582146e-05
3.3497683e-05
3.3306071e-05
3.2766736e-05
3.1566176e-05
3.0558943e-05
3.2430517e-05
3.7824348e-05
4.3722695e-05
4.6668398e-05
4.4198256e-05
3.4782226e-05
1.6464701e-05
3.359517e-05
3.3576787e-05
3.3537014e-05
3.3465257e-05
3.328166e-05
3.2725339e-05
3.1549147e-05
3.0894636e-05
3.3404213e-05
3.9151205e-05
4.4954529e-05
4.7569394e-05
4.4708339e-05
3.4960218e-05
1.6466471e-05
3.3542106e-05
3.3527584e-05
3.3497423e-05
3.3440275e-05
3.3264838e-05
3.2692337e-05
3.1570023e-05
3.132525e-05
3.4458515e-05
4.049315e-05
4.6166274e-05
4.8444733e-05
4.520042e-05
3.5131333e-05
1.6468431e-05
3.3492497e-05
3.3482682e-05
3.346391e-05
3.3423238e-05
3.3255838e-05
3.2669661e-05
3.1636869e-05
3.18536e-05
3.5584605e-05
4.1844007e-05
4.7356958e-05
4.9295262e-05
4.5675493e-05
3.5296047e-05
1.647058e-05
3.3446735e-05
3.3442549e-05
3.3437051e-05
3.3414644e-05
3.3254937e-05
3.2659938e-05
3.1758036e-05
3.2480555e-05
3.6773446e-05
4.3198544e-05
4.8525909e-05
5.0121833e-05
4.613448e-05
3.5454787e-05
1.6472917e-05
3.3405264e-05
3.3407707e-05
3.3417461e-05
3.3414983e-05
3.3262501e-05
3.2666593e-05
3.1941802e-05
3.3205086e-05
3.8016103e-05
4.4552374e-05
4.9672692e-05
5.0925298e-05
4.6578239e-05
3.5607939e-05
1.6475438e-05
3.3368581e-05
3.3378733e-05
3.3405791e-05
3.3424736e-05
3.3279045e-05
3.2693911e-05
3.2195994e-05
3.4024421e-05
3.9303997e-05
4.5901844e-05
5.0797073e-05
5.1706493e-05
4.7007566e-05
3.575585e-05
1.6478139e-05
3.3337244e-05
3.3356261e-05
3.3402726e-05
3.3444374e-05
3.3305313e-05
3.2747055e-05
3.252762e-05
3.4934263e-05
4.0629098e-05
4.724393e-05
5.1898978e-05
5.2466235e-05
4.7423202e-05
3.5898837e-05
1.6481016e-05
3.3311875e-05
3.3340983e-05
3.3408981e-05
3.347436e-05
3.3342362e-05
3.2832015e-05
3.2942543e-05
3.592907e-05
4.1984042e-05
4.8576137e-05
5.2978461e-05
5.3205317e-05
4.7825836e-05
3.6037187e-05
1.6484065e-05
3.3293163e-05
3.3333652e-05
3.3425294e-05
3.3515163e-05
3.3391668e-05
3.2955486e-05
3.3445235e-05
3.7002362e-05
4.3362191e-05
4.9896417e-05
5.4035683e-05
5.3924507e-05
4.8216108e-05
3.6171162e-05
1.6487281e-05
3.3281869e-05
3.3335086e-05
3.3452425e-05
3.3567273e-05
3.3455236e-05
3.3124675e-05
3.4038604e-05
3.8147027e-05
4.4757648e-05
5.1203099e-05
5.5070884e-05
5.4624544e-05
4.8594615e-05
3.6301001e-05
1.6490657e-05
3.3278836e-05
3.3346162e-05
3.3491148e-05
3.3631233e-05
3.3535696e-05
3.3347046e-05
3.4723924e-05
3.9355617e-05
4.6165227e-05
5.2494831e-05
5.6084369e-05
5.5306138e-05
4.8961915e-05
3.6426925e-05
1.6494188e-05
3.3284986e-05
3.3367825e-05
3.3542247e-05
3.3707683e-05
3.3636391e-05
3.3630018e-05
3.5500852e-05
4.0620607e-05
4.7580405e-05
5.3770531e-05
5.7076491e-05
5.5969972e-05
4.931853e-05
3.6549143e-05
1.649787e-05
3.3301328e-05
3.3401078e-05
3.3606513e-05
3.3797414e-05
3.3761431e-05
3.3980643e-05
3.6367527e-05
4.1934618e-05
4.8999265e-05
5.5029343e-05
5.8047635e-05
5.6616678e-05
4.966484e-05
3.6667084e-05
1.6501693e-05
3.3328964e-05
3.3446985e-05
3.3684745e-05
3.3901443e-05
3.39157e-05
3.4405292e-05
3.7320734e-05
4.3290578e-05
5.0418423e-05
5.6270609e-05
5.8998204e-05
5.7246851e-05
5.0001244e-05
3.6781085e-05
1.6505652e-05
3.3369088e-05
3.3506668e-05
3.3777753e-05
3.4021099e-05
3.410481e-05
3.4909375e-05
3.8356116e-05
4.468185e-05
5.1834968e-05
5.7493827e-05
5.9928616e-05
5.7861062e-05
5.0328147e-05
3.689145e-05
1.6509737e-05
3.3422991e-05
3.3581299e-05
3.3886372e-05
3.4158113e-05
3.4334985e-05
3.5497113e-05
3.9468417e-05
4.6102296e-05
5.32464e-05
5.8698635e-05
6.0839301e-05
5.8459863e-05
5.064596e-05
3.6998448e-05
1.6513939e-05
3.3492061e-05
3.3672101e-05
3.4011478e-05
3.4314721e-05
3.4612895e-05
3.6171382e-05
4.065173e-05
4.754632e-05
5.4650581e-05
5.9884784e-05
6.1730689e-05
5.9043732e-05
5.0954642e-05
3.7102366e-05
1.6518251e-05
3.3577784e-05
3.3780338e-05
3.4154026e-05
3.4493754e-05
3.4945418e-05
3.6933633e-05
4.1899741e-05
4.9008864e-05
5.6045687e-05
6.105212e-05
6.2603201e-05
5.9613114e-05
5.1254409e-05
3.7203363e-05
1.6522664e-05
3.3681742e-05
3.3907315e-05
3.4315091e-05
3.4698708e-05
3.5339377e-05
3.7783895e-05
4.3205949e-05
5.0485398e-05
5.7430165e-05
6.2200566e-05
6.3457258e-05
6.0168466e-05
5.1545764e-05
3.7301527e-05
1.6527174e-05
3.3805608e-05
3.4054378e-05
3.4495928e-05
3.4933788e-05
3.5801255e-05
3.8720835e-05
4.4563853e-05
5.1971885e-05
5.8802702e-05
6.3330107e-05
6.4293279e-05
6.0710252e-05
5.1829143e-05
3.7396968e-05
1.6531776e-05
3.3951147e-05
3.4222911e-05
3.4698048e-05
3.5203901e-05
3.6336911e-05
3.9741895e-05
4.5967109e-05
5.3464741e-05
6.0162189e-05
6.4440786e-05
6.5111672e-05
6.1238802e-05
5.2104952e-05
3.7489813e-05
1.6536466e-05
3.4120204e-05
3.4414352e-05
3.4923303e-05
3.5514599e-05
3.6951329e-05
4.0843458e-05
4.7409643e-05
5.4960797e-05
6.1507701e-05
6.5532683e-05
6.5912785e-05
6.1754104e-05
5.2373577e-05
3.7580207e-05
1.6541241e-05
3.4314704e-05
3.4630207e-05
3.5173978e-05
3.5871962e-05
3.7648414e-05
4.2021047e-05
4.888573e-05
5.645726e-05
6.2838463e-05
6.6605907e-05
6.6696983e-05
6.2256729e-05
5.2635226e-05
3.7668256e-05
1.65461e-05
3.4536648e-05
3.4872085e-05
3.5452882e-05
3.6282423e-05
3.8430848e-05
4.3269539e-05
5.0390038e-05
5.7951666e-05
6.4153831e-05
6.7660592e-05
6.7464649e-05
6.2747189e-05
5.2890119e-05
3.7754045e-05
1.6551039e-05
3.4788109e-05
3.5141731e-05
3.5763426e-05
3.6752546e-05
3.9300015e-05
4.4583366e-05
5.1917654e-05
5.9441852e-05
6.5453276e-05
6.8696904e-05
6.8216183e-05
6.3225943e-05
5.3138485e-05
3.7837654e-05
1.6556054e-05
3.507124e-05
3.5441096e-05
3.6109682e-05
3.7288767e-05
4.0255996e-05
4.5956714e-05
5.3464085e-05
6.0925922e-05
6.6736369e-05
6.9714988e-05
6.8951482e-05
6.3693456e-05
5.3380575e-05
3.7919178e-05
1.6561141e-05
3.538829e-05
3.5772401e-05
3.6496392e-05
3.7897128e-05
4.1297624e-05
4.7383684e-05
5.5025242e-05
6.2402214e-05
6.8002755e-05
7.0714995e-05
6.9671027e-05
6.4150035e-05
5.3616598e-05
3.7998704e-05
1.6566298e-05
3.5741623e-05
3.6138226e-05
3.6928937e-05
3.8583015e-05
4.2422596e-05
4.8858434e-05
5.6597425e-05
6.3869269e-05
6.9252142e-05
7.1697116e-05
7.0375289e-05
6.4595982e-05
5.3846739e-05
3.8076308e-05
1.6571522e-05
3.6133765e-05
3.6541599e-05
3.7413251e-05
3.9350934e-05
4.3627621e-05
5.0375287e-05
5.817729e-05
6.5325812e-05
7.0484305e-05
7.2661576e-05
7.1064704e-05
6.5031592e-05
5.4071179e-05
3.8152054e-05
1.6576808e-05
3.6567453e-05
3.6986083e-05
3.7955663e-05
4.0204322e-05
4.4908596e-05
5.1928813e-05
5.9761832e-05
6.6770735e-05
7.1699058e-05
7.3608223e-05
7.1739656e-05
6.5457164e-05
5.4290106e-05
3.8226004e-05
1.6582153e-05
3.7045709e-05
3.7475845e-05
3.8562703e-05
4.1145429e-05
4.6260789e-05
5.3513873e-05
6.1348346e-05
6.8203059e-05
7.2896228e-05
7.4537356e-05
7.2400493e-05
6.5872962e-05
5.4503698e-05
3.8298218e-05
1.6587554e-05
3.7571919e-05
3.8015702e-05
3.9240856e-05
4.217526e-05
4.7679025e-05
5.5125657e-05
6.2934401e-05
6.9621917e-05
7.4075702e-05
7.5449303e-05
7.3047534e-05
6.6279232e-05
5.4712114e-05
3.8368752e-05
1.6593007e-05
3.8149915e-05
3.8611113e-05
3.9996299e-05
4.329358e-05
4.9157855e-05
5.675969e-05
6.4517814e-05
7.1026552e-05
7.5237338e-05
7.6344345e-05
7.3681076e-05
6.6676218e-05
5.4915501e-05
3.8437654e-05
1.659851e-05
3.8784053e-05
3.9268119e-05
4.0834633e-05
4.4498977e-05
5.0691708e-05
5.841184e-05
6.6096632e-05
7.2416296e-05
7.6380926e-05
7.7222728e-05
7.4301397e-05
6.7064162e-05
5.5114e-05
3.8504972e-05
1.6604058e-05
3.947926e-05
3.9993221e-05
4.1760644e-05
4.5788975e-05
5.2275015e-05
6.0078296e-05
6.7669086e-05
7.3790527e-05
7.7506488e-05
7.8084759e-05
7.4908759e-05
6.7443288e-05
5.5307744e-05
3.8570746e-05
1.6609648e-05
4.0241042e-05
4.0793189e-05
4.2778096e-05
4.7160176e-05
5.3902305e-05
6.1755555e-05
6.9233571e-05
7.5148711e-05
7.8614112e-05
7.8930693e-05
7.5503415e-05
6.7813802e-05
5.5496858e-05
3.8635016e-05
1.6615277e-05
4.1075428e-05
4.167482e-05
4.3889583e-05
4.8608425e-05
5.556829e-05
6.3440423e-05
7.0788683e-05
7.6490246e-05
7.9703729e-05
7.9760733e-05
7.6085617e-05
6.8175901e-05
5.5681456e-05
3.8697817e-05
1.6620943e-05
4.1988847e-05
4.2644647e-05
4.5096444e-05
5.0128987e-05
5.7267907e-05
6.5129958e-05
7.2333075e-05
7.7814667e-05
8.0775529e-05
8.0575083e-05
7.6655601e-05
6.8529773e-05
5.5861646e-05
3.8759181e-05
1.662664e-05
4.2987921e-05
4.3708636e-05
4.6398736e-05
5.1716704e-05
5.8996343e-05
6.6821446e-05
7.3865526e-05
7.9121664e-05
8.1829647e-05
8.1373944e-05
7.7213584e-05
6.8875591e-05
5.6037527e-05
3.8819138e-05
1.6632367e-05
4.4079189e-05
4.4871886e-05
4.7795277e-05
5.3366156e-05
6.0749081e-05
6.851245e-05
7.5384895e-05
8.0410763e-05
8.286613e-05
8.2157514e-05
7.7759773e-05
6.9213517e-05
5.6209192e-05
3.8877715e-05
1.663812e-05
4.5268768e-05
4.6138354e-05
4.9283725e-05
5.5071792e-05
6.2521865e-05
7.0200649e-05
7.6890082e-05
8.1681871e-05
8.3885041e-05
8.2925975e-05
7.829436e-05
6.9543703e-05
5.6376725e-05
3.8934934e-05
1.6643896e-05
4.6561984e-05
4.7510632e-05
5.0860703e-05
5.682803e-05
6.4310697e-05
7.1883893e-05
7.8380143e-05
8.2934861e-05
8.4886446e-05
8.3679494e-05
7.8817526e-05
6.9866286e-05
5.6540205e-05
3.8990819e-05
1.6649692e-05
4.7963003e-05
4.8989786e-05
5.2521946e-05
5.8629365e-05
6.611189e-05
7.356021e-05
7.9854055e-05
8.416951e-05
8.5870408e-05
8.4418228e-05
7.9329436e-05
7.0181395e-05
5.6699702e-05
3.9045386e-05
1.6655505e-05
4.9474492e-05
5.0575268e-05
5.4262446e-05
6.0470389e-05
6.7921892e-05
7.5227642e-05
8.1311328e-05
8.5385634e-05
8.6836978e-05
8.5142316e-05
7.983024e-05
7.0489147e-05
5.6855279e-05
3.9098653e-05
1.6661331e-05
5.109735e-05
5.2264904e-05
5.6076619e-05
6.2345892e-05
6.9737438e-05
7.6884232e-05
8.275134e-05
8.658306e-05
8.7786198e-05
8.5851886e-05
8.0320076e-05
7.0789649e-05
5.7006996e-05
3.9150633e-05
1.6667168e-05
5.2830528e-05
5.4054939e-05
5.7958413e-05
6.4250772e-05
7.1555296e-05
7.8528588e-05
8.4173478e-05
8.7761612e-05
8.8718094e-05
8.6547048e-05
8.0799066e-05
7.1082995e-05
5.7154903e-05
3.9201338e-05
1.6673012e-05
5.4670969e-05
5.5940159e-05
5.9901472e-05
6.6180139e-05
7.3372234e-05
8.0159415e-05
8.5577168e-05
8.8921108e-05
8.963268e-05
8.7227893e-05
8.1267317e-05
7.1369269e-05
5.7299044e-05
3.9250778e-05
1.6678861e-05
5.6613644e-05
5.791403e-05
6.1899132e-05
6.8129064e-05
7.5185673e-05
8.1775453e-05
8.6961851e-05
9.0061361e-05
9.0529951e-05
8.7894498e-05
8.1724922e-05
7.1648544e-05
5.7439459e-05
3.9298959e-05
1.6684711e-05
5.8651708e-05
5.9968884e-05
6.3944514e-05
7.0092748e-05
7.6993241e-05
8.3375503e-05
8.8326981e-05
9.1182172e-05
9.1409887e-05
8.854692e-05
8.2171958e-05
7.1920884e-05
5.7576179e-05
3.9345886e-05
1.669056e-05
6.0776684e-05
6.2095995e-05
6.6030465e-05
7.2067021e-05
7.8792678e-05
8.4958416e-05
8.9672018e-05
9.2283329e-05
9.2272444e-05
8.9185196e-05
8.2608485e-05
7.2186339e-05
5.7709231e-05
3.9391561e-05
1.6696403e-05
6.2978665e-05
6.4285952e-05
6.8150145e-05
7.4047867e-05
8.0581833e-05
8.6523084e-05
9.0996423e-05
9.3364604e-05
9.3117562e-05
8.9809344e-05
8.3034548e-05
7.2444948e-05
5.7838634e-05
3.9435985e-05
1.6702239e-05
6.5246778e-05
6.6528944e-05
7.0296761e-05
7.6031412e-05
8.2358643e-05
8.8068432e-05
9.2299658e-05
9.4425751e-05
9.3945156e-05
9.0419361e-05
8.3450177e-05
7.269674e-05
5.79644e-05
3.9479155e-05
1.6708063e-05
6.7569568e-05
6.8814947e-05
7.2463607e-05
7.8013905e-05
8.4121123e-05
8.9593415e-05
9.3581177e-05
9.5466505e-05
9.4755119e-05
9.1015226e-05
8.3855383e-05
7.2941732e-05
5.8086537e-05
3.9521066e-05
1.6713873e-05
6.9935353e-05
7.113392e-05
7.46441e-05
7.9991716e-05
8.5867355e-05
9.1097008e-05
9.4840431e-05
9.6486584e-05
9.5547321e-05
9.1596891e-05
8.425016e-05
7.3179929e-05
5.8205043e-05
3.9561712e-05
1.6719665e-05
7.2332531e-05
7.347599e-05
7.6831818e-05
8.1961319e-05
8.7595481e-05
9.2578204e-05
9.6076862e-05
9.7485685e-05
9.632161e-05
9.2164293e-05
8.4634487e-05
7.3411323e-05
5.8319912e-05
3.9601082e-05
1.6725435e-05
7.4749851e-05
7.5831606e-05
7.902054e-05
8.3919297e-05
8.9303694e-05
9.4036016e-05
9.728991e-05
9.8463487e-05
9.7077813e-05
9.2717345e-05
8.5008326e-05
7.3635897e-05
5.8431131e-05
3.9639164e-05
1.6731181e-05
7.717661e-05
7.8191669e-05
8.1204281e-05
8.5862337e-05
9.0990235e-05
9.546947e-05
9.8479005e-05
9.9419655e-05
9.7815735e-05
9.325594e-05
8.5371621e-05
7.385362e-05
5.8538678e-05
3.9675944e-05
1.6736897e-05
7.9602814e-05
8.0547631e-05
8.337733e-05
8.7787239e-05
9.2653393e-05
9.6877612e-05
9.9643581e-05
0.00010035384
9.8535163e-05
9.3779955e-05
8.5724302e-05
7.4064451e-05
5.8642528e-05
3.9711404e-05
1.6742581e-05
8.2019273e-05
8.2891571e-05
8.5534287e-05
8.9690921e-05
9.4291508e-05
9.8259506e-05
0.00010078307
0.00010126567
9.9235869e-05
9.4289248e-05
8.6066283e-05
7.4268339e-05
5.8742647e-05
3.9745524e-05
1.6748228e-05
8.4417659e-05
8.5216237e-05
8.7670091e-05
9.1570434e-05
9.5902969e-05
9.9614239e-05
0.00010189691
0.0001021548
9.991761e-05
9.4783664e-05
8.6397467e-05
7.4465221e-05
5.8838997e-05
3.9778283e-05
1.6753834e-05
8.6790527e-05
8.7515076e-05
8.9780045e-05
9.3422973e-05
9.7486227e-05
0.00010094092
0.00010298454
0.00010302085
0.00010058014
9.5263033e-05
8.6717743e-05
7.4655028e-05
5.8931533e-05
3.9809657e-05
1.6759395e-05
8.9131302e-05
8.9782231e-05
9.1859834e-05
9.524589e-05
9.9039795e-05
0.00010223871
0.00010404544
0.00010386345
0.00010122319
9.5727179e-05
8.7026991e-05
7.483768e-05
5.9020207e-05
3.983962e-05
1.6764905e-05
9.1434253e-05
9.2012533e-05
9.3905536e-05
9.7036707e-05
0.00010056226
0.00010350678
0.00010507909
0.00010468225
0.00010184652
9.6175918e-05
8.7325085e-05
7.5013092e-05
5.9104965e-05
3.9868144e-05
1.6770361e-05
9.369444e-05
9.4201476e-05
9.5913628e-05
9.8793131e-05
0.00010205229
0.00010474436
0.00010608499
0.00010547691
0.00010244987
9.6609064e-05
8.7611892e-05
7.5181175e-05
5.9185752e-05
3.9895201e-05
1.6775757e-05
9.5907667e-05
9.634518e-05
9.7880979e-05
0.00010051306
0.00010350864
0.00010595072
0.00010706269
0.00010624709
0.000103033
9.7026434e-05
8.7887276e-05
7.5341835e-05
5.9262507e-05
3.9920761e-05
1.6781088e-05
9.8070414e-05
9.844035e-05
9.9804847e-05
0.00010219458
0.00010493016
0.0001071252
0.00010801176
0.00010699251
0.00010359567
9.7427847e-05
8.8151104e-05
7.5494977e-05
5.9335171e-05
3.9944795e-05
1.6786349e-05
0.00010017978
0.00010048423
0.00010168286
0.000103836
0.00010631581
0.00010826718
0.00010893182
0.00010771289
0.00010413767
9.7813133e-05
8.8403243e-05
7.5640506e-05
5.9403683e-05
3.9967271e-05
1.6791535e-05
0.00010223342
0.00010247457
0.00010351302
0.00010543582
0.00010766465
0.00010937612
0.00010982254
0.00010840798
0.00010465882
9.8182135e-05
8.8643569e-05
7.5778329e-05
5.9467983e-05
3.998816e-05
1.6796639e-05
0.00010422947
0.00010440957
0.00010529363
0.00010699273
0.00010897584
0.00011045154
0.00011068363
0.00010907759
0.00010515893
9.853471e-05
8.8871963e-05
7.5908358e-05
5.9528013e-05
4.0007432e-05
1.6801656e-05
0.00010616654
0.00010628781
0.00010702335
0.00010850565
0.00011024868
0.00011149304
0.00011151484
0.00010972155
0.00010563789
9.8870737e-05
8.9088322e-05
7.6030511e-05
5.9583717e-05
4.0025061e-05
1.6806581e-05
0.00010804359
0.00010810826
0.00010870111
0.00010997367
0.00011148256
0.00011250026
0.000112316
0.00011033973
0.00010609557
9.9190117e-05
8.9292556e-05
7.6144714e-05
5.9635044e-05
4.0041021e-05
1.6811408e-05
0.00010985994
0.0001098702
0.0001103261
0.00011139607
0.000112677
0.00011347296
0.00011308698
0.00011093207
0.00010653192
9.9492777e-05
8.9484592e-05
7.6250905e-05
5.968195e-05
4.0055288e-05
1.6816131e-05
0.00011161522
0.00011157321
0.00011189777
0.00011277231
0.00011383164
0.00011441095
0.0001138277
0.00011149852
0.00010694691
9.9778673e-05
8.9664376e-05
7.6349032e-05
5.9724398e-05
4.0067842e-05
1.6820744e-05
0.00011330931
0.0001132171
0.0001134158
0.00011410201
0.0001149462
0.00011531413
0.00011453815
0.00011203912
0.00010734053
0.00010004779
8.983188e-05
7.6439062e-05
5.9762357e-05
4.0078669e-05
1.6825242e-05
0.00011494232
0.00011480192
0.00011488006
0.00011538497
0.00011602055
0.00011618245
0.00011521839
0.00011255392
0.00010771284
0.00010030015
8.9987098e-05
7.6520973e-05
5.9795809e-05
4.0087755e-05
1.682962e-05
0.00011651456
0.00011632791
0.00011629061
0.00011662112
0.00011705463
0.00011701597
0.00011586851
0.00011304305
0.00010806394
0.00010053581
9.0130048e-05
7.6594766e-05
5.9824744e-05
4.0095094e-05
1.6833872e-05
0.00011802651
0.00011779548
0.00011764767
0.00011781052
0.00011804851
0.00011781479
0.00011648868
0.00011350666
0.00010839396
0.00010075485
9.0260781e-05
7.6660459e-05
5.9849166e-05
4.0100685e-05
1.6837993e-05
0.0001194788
0.0001192052
0.00011895161
0.00011895337
0.00011900233
0.0001185791
0.00011707911
0.00011394498
0.00010870307
0.00010095741
9.0379371e-05
7.6718091e-05
5.9869092e-05
4.0104532e-05
1.684198e-05
0.00012087221
0.00012055776
0.00012020293
0.00012004999
0.00011991634
0.00011930916
0.00011764008
0.00011435825
0.00010899149
0.00010114364
9.0485925e-05
7.6767722e-05
5.988455e-05
4.0106646e-05
1.6845826e-05
0.00012220759
0.00012185395
0.00012140223
0.0001211008
0.00012079087
0.00012000529
0.00011817191
0.00011474679
0.00010925949
0.00010131374
9.0580577e-05
7.6809434e-05
5.9895584e-05
4.0107044e-05
1.684953e-05
0.00012348592
0.00012309469
0.00012255024
0.0001221063
0.00012162631
0.00012066786
0.00011867497
0.00011511095
0.00010950735
0.00010146794
9.0663492e-05
7.6843332e-05
5.9902251e-05
4.010575e-05
1.6853086e-05
0.00012470824
0.00012428094
0.00012364775
0.00012306709
0.00012242316
0.00012129731
0.00011914968
0.00011545112
0.00010973542
0.00010160651
9.0734859e-05
7.686954e-05
5.9904624e-05
4.0102795e-05
1.6856493e-05
0.00012587566
0.00012541376
0.00012469564
0.00012398385
0.00012318194
0.00012189412
0.00011959651
0.00011576771
0.00010994407
0.00010172975
9.0794899e-05
7.6888205e-05
5.9902788e-05
4.0098213e-05
1.6859748e-05
0.00012698935
0.00012649426
0.00012569484
0.00012485732
0.00012390326
0.00012245883
0.00012001595
0.0001160612
0.00011013369
0.00010183797
9.0843853e-05
7.6899492e-05
5.989684e-05
4.0092049e-05
1.6862849e-05
0.00012805051
0.00012752357
0.00012664636
0.00012568829
0.00012458777
0.00012299202
0.00012040854
0.00011633207
0.00011030472
0.00010193154
9.088199e-05
7.6903586e-05
5.9886891e-05
4.008435e-05
1.6865795e-05
0.00012906038
0.0001285029
0.00012755123
0.0001264776
0.00012523617
0.0001234943
0.00012077484
0.00011658084
0.0001104576
0.00010201082
9.0909596e-05
7.6900688e-05
5.9873063e-05
4.0075169e-05
1.6868584e-05
0.00013002023
0.00012943345
0.00012841051
0.00012722614
0.00012584919
0.00012396631
0.00012111546
0.00011680805
0.00011059283
0.00010207621
9.0926978e-05
7.6891013e-05
5.9855487e-05
4.0064565e-05
1.6871216e-05
0.00013093134
0.00013031646
0.00012922532
0.00012793484
0.0001264276
0.00012440875
0.000121431
0.00011701427
0.00011071089
0.00010212813
9.0934462e-05
7.6874794e-05
5.9834306e-05
4.0052599e-05
1.6873692e-05
0.000131795
0.00013115319
0.00012999677
0.00012860464
0.0001269722
0.00012482229
0.0001217221
0.00011720008
0.0001108123
0.00010216701
9.0932384e-05
7.6852272e-05
5.9809668e-05
4.0039338e-05
1.6876012e-05
0.00013261253
0.00013194489
0.000130726
0.0001292365
0.00012748381
0.00012520767
0.00012198942
0.00011736608