/*--------------------------------*- C++ -*----------------------------------*\
| =========                 |                                                 |
| \\      /  F ield         | OpenFOAM: The Open Source CFD Toolbox           |
|  \\    /   O peration     | Version:  2506                                  |
|   \\  /    A nd           | Website:  www.openfoam.com                      |
|    \\/     M anipulation  |                                                 |
\*---------------------------------------------------------------------------*/
FoamFile
{
    version     2.0;
    format      ascii;
    arch        "LSB;label=32;scalar=64";
    class       volVectorField;
    location    "27000/water";
    object      U;
}
// * * * * * * * * * * * * * * * * * * * * * * * * * * * * * * * * * * * * * //

dimensions      [0 1 -1 0 0 0 0];

internalField   nonuniform List<vector> 
6000
(
(0.25028648 -3.4193492e-05 2.01562e-19)
(0.25028875 -7.4648811e-05 -4.3814284e-18)
(0.25029344 -0.00011804414 -6.2011311e-19)
(0.25030059 -0.00016540046 -3.3472803e-19)
(0.25031046 -0.00021487335 2.6640623e-19)
(0.25032332 -0.00026685039 4.3168431e-20)
(0.25033948 -0.00032192175 -1.7559261e-19)
(0.25035939 -0.00038078672 4.6730796e-20)
(0.25038356 -0.00044434477 -1.5820543e-19)
(0.25041254 -0.00051362452 -1.3645809e-19)
(0.25044587 -0.00058677559 -9.4861175e-20)
(0.25047643 -0.00065822056 -1.9711943e-19)
(0.25046276 -0.00078466513 -3.318875e-20)
(0.25013031 -0.0015987837 -8.3824892e-20)
(0.24584996 0.0019968142 9.5394854e-20)
(0.25104035 -3.7261303e-05 7.6096421e-19)
(0.25104514 -8.9895979e-05 -3.1135831e-18)
(0.2510558 -0.00014352114 -1.2974434e-18)
(0.25107219 -0.00020025424 -9.4148294e-19)
(0.2510947 -0.0002571822 9.7491824e-19)
(0.25112368 -0.00031440571 3.4766464e-19)
(0.25115965 -0.00037188242 -3.0169847e-19)
(0.25120324 -0.00042947839 -2.7968524e-19)
(0.2512551 -0.00048709454 -2.9314043e-19)
(0.25131538 -0.00054561245 -2.2925334e-19)
(0.25138039 -0.00060405492 6.8780563e-20)
(0.25142587 -0.00063755821 -1.2206288e-19)
(0.25133175 -0.00059164843 -2.9472202e-20)
(0.25037931 -0.0014370973 -8.5607135e-20)
(0.24194277 0.00099520264 1.0823453e-19)
(0.25195051 -3.6589028e-05 -3.873105e-18)
(0.25195563 -9.0250612e-05 2.0730812e-18)
(0.25196731 -0.00014313025 7.8250752e-19)
(0.25198528 -0.00019912655 -1.3766522e-18)
(0.25200977 -0.00025508716 5.1341047e-20)
(0.25204101 -0.0003112558 -4.7566959e-19)
(0.25207932 -0.00036762123 -7.6855144e-19)
(0.25212505 -0.00042413945 -1.2177125e-18)
(0.25217823 -0.00048056787 -8.3281647e-19)
(0.25223708 -0.0005377572 -1.9938563e-19)
(0.25229114 -0.00060007155 -4.0665249e-19)
(0.25229033 -0.00065419843 -3.9026737e-19)
(0.25200573 -0.00054460881 -3.363477e-19)
(0.25014357 -0.0012195308 -2.5628412e-19)
(0.23758495 0.00043820543 -4.9246527e-20)
(0.25283353 -3.7446604e-05 -3.2658271e-18)
(0.25283867 -9.3611088e-05 -1.2134727e-18)
(0.25285018 -0.00014906892 7.3492131e-19)
(0.25286783 -0.00020791578 -1.2752478e-19)
(0.25289182 -0.00026672308 4.047892e-19)
(0.25292238 -0.00032582165 -6.5645414e-19)
(0.25295982 -0.00038519269 -5.073758e-19)
(0.25300432 -0.00044485276 -6.8504953e-19)
(0.25305525 -0.00050441426 -4.6645737e-19)
(0.25310809 -0.00056332944 3.1257747e-19)
(0.25314261 -0.00062607506 -3.9063866e-19)
(0.25307635 -0.00069910336 -4.3474686e-19)
(0.25255493 -0.0005845712 -3.4655161e-19)
(0.24963188 -0.001063787 -2.4932602e-19)
(0.23320285 0.0001058672 -2.0789756e-19)
(0.25372643 -3.8342944e-05 7.6317983e-18)
(0.2537317 -9.6368691e-05 6.4467005e-19)
(0.25374347 -0.00015372841 9.7993323e-19)
(0.25376156 -0.00021453144 1.1507158e-18)
(0.25378616 -0.00027516439 9.3618527e-19)
(0.25381749 -0.00033599427 3.5644491e-19)
(0.25385581 -0.00039694563 3.9635879e-19)
(0.25390101 -0.00045805575 1.9447251e-19)
(0.25395133 -0.00051907431 2.7724705e-19)
(0.25399821 -0.00057855465 1.9795316e-19)
(0.25400834 -0.00063773998 1.9861586e-19)
(0.25386022 -0.0007177221 -2.9288856e-21)
(0.25305737 -0.00062191547 -1.6454125e-19)
(0.24895451 -0.00093835859 -5.0337617e-20)
(0.22897365 -8.3792337e-05 -9.4128888e-20)
(0.25464474 -3.8661619e-05 2.4284351e-18)
(0.25465014 -9.7320119e-05 -7.623764e-19)
(0.2546622 -0.00015516462 1.2779867e-18)
(0.25468073 -0.00021648308 9.6121289e-19)
(0.2547059 -0.00027758564 -2.6265535e-19)
(0.25473792 -0.000338881 5.5926264e-19)
(0.25477689 -0.00040025681 2.4530971e-19)
(0.25482222 -0.00046172799 3.7784597e-19)
(0.25487049 -0.00052322807 2.4196207e-19)
(0.2549078 -0.000583188 1.3348063e-19)
(0.25488519 -0.00063896641 2.7139698e-19)
(0.25463685 -0.00071821651 4.5680309e-20)
(0.25350729 -0.0006469875 -1.8903149e-19)
(0.248129 -0.00083894719 -1.8489261e-20)
(0.2249409 -0.00018589273 9.795944e-21)
(0.25557031 -3.8595293e-05 -3.0113911e-19)
(0.25557581 -9.7309347e-05 -3.1167137e-18)
(0.25558805 -0.00015511983 -8.0368145e-19)
(0.25560682 -0.00021642526 2.8933868e-19)
(0.2556323 -0.0002774936 -1.0832754e-18)
(0.25566463 -0.00033876346 2.7943092e-19)
(0.25570371 -0.00040009735 9.8570484e-20)
(0.25574825 -0.00046144626 4.8115733e-19)
(0.25579256 -0.00052279714 4.4221668e-19)
(0.25581623 -0.0005828814 2.5579459e-19)
(0.25575267 -0.00063600478 4.8294955e-19)
(0.25538743 -0.00071016268 1.1946759e-19)
(0.25388915 -0.00066107344 6.5360764e-20)
(0.24716598 -0.00076077854 -3.5046305e-20)
(0.22112141 -0.00023459296 -2.1874764e-20)
(0.25649134 -3.8297106e-05 4.9839789e-18)
(0.25649692 -9.6712128e-05 2.3121767e-18)
(0.25650928 -0.00015419069 1.4579171e-18)
(0.25652824 -0.00021515485 4.395868e-19)
(0.25655393 -0.00027585718 -6.9058627e-19)
(0.25658641 -0.0003367553 -5.0586344e-21)
(0.25662528 -0.00039769653 5.2553994e-19)
(0.2566683 -0.00045856441 7.4498767e-20)
(0.25670691 -0.00051927104 4.2618075e-19)
(0.25671305 -0.00057893859 -7.6346475e-20)
(0.25660095 -0.00063003278 1.9495509e-19)
(0.25610359 -0.00069722485 1.7936558e-19)
(0.25419746 -0.0006651972 9.9292195e-20)
(0.24608527 -0.00069788903 -6.5088214e-20)
(0.21752738 -0.00025081848 -4.2430085e-20)
(0.25740382 -3.7852859e-05 -2.7821499e-18)
(0.25740947 -9.5689494e-05 5.8625029e-19)
(0.25742193 -0.00015257331 1.6990357e-18)
(0.25744104 -0.00021291358 3.9496595e-19)
(0.25746687 -0.00027297291 6.8707036e-19)
(0.25749936 -0.0003332193 3.0774428e-20)
(0.2575377 -0.00039348924 2.7939275e-19)
(0.2575784 -0.00045361302 2.1864322e-19)
(0.25760945 -0.00051335259 3.7653079e-19)
(0.25759421 -0.00057212214 6.3908802e-19)
(0.25742635 -0.00062159363 1.619495e-19)
(0.25678237 -0.00068144217 2.0032577e-19)
(0.25443121 -0.00066103685 8.3011718e-20)
(0.24490935 -0.00064561644 -3.999077e-20)
(0.21416513 -0.00024776584 -3.3317312e-20)
(0.25830515 -3.7308638e-05 -9.5234364e-20)
(0.25831084 -9.4372768e-05 -8.6262028e-19)
(0.25832339 -0.00015047649 -4.7741978e-20)
(0.2583426 -0.00020999612 -3.6017182e-19)
(0.25836849 -0.00026922145 -2.9660013e-19)
(0.25840083 -0.00032862339 3.3222107e-20)
(0.25843826 -0.00038802594 -8.5589977e-20)
(0.25847573 -0.00044722018 3.2640809e-19)
(0.25849727 -0.00050579279 1.5864863e-19)
(0.25845683 -0.00056328987 5.6285918e-19)
(0.25822634 -0.00061131675 1.9928855e-19)
(0.25742154 -0.00066417743 1.0058116e-19)
(0.2545896 -0.00065044234 1.0080705e-19)
(0.24365871 -0.00060064453 -7.0023664e-21)
(0.21103455 -0.00023378679 -8.2643741e-20)
(0.259193 -3.6693881e-05 6.189814e-18)
(0.25919873 -9.285746e-05 4.6582603e-18)
(0.25921134 -0.00014806165 -1.3354099e-18)
(0.25923061 -0.00020663289 -7.7731782e-21)
(0.25925648 -0.0002648995 4.1066784e-19)
(0.25928848 -0.00032332972 3.3536192e-19)
(0.25932457 -0.00038173097 5.8617977e-20)
(0.25935785 -0.00043986308 3.3531212e-19)
(0.25936788 -0.00049714489 -4.4870215e-20)
(0.25929853 -0.00055310432 -1.07784e-19)
(0.2589988 -0.00059970361 1.9744302e-19)
(0.25801896 -0.00064623362 8.5233273e-20)
(0.25467145 -0.00063499349 1.7326444e-20)
(0.24235144 -0.00056062195 2.3888396e-20)
(0.20813123 -0.0002141088 -4.4302126e-20)
(0.26006576 -3.6034055e-05 5.0265582e-18)
(0.26007152 -9.1214285e-05 5.2250666e-18)
(0.26008417 -0.00014544281 -1.0133446e-18)
(0.26010346 -0.00020298347 3.4210526e-19)
(0.26012923 -0.00026021093 5.410174e-20)
(0.2601607 -0.0003175869 2.7100193e-19)
(0.26019497 -0.00037489796 1.9322739e-19)
(0.26022303 -0.0004318747 2.7358022e-19)
(0.26021952 -0.00048779067 1.3468144e-19)
(0.26011767 -0.00054204301 -2.2240065e-19)
(0.25974224 -0.00058714002 3.7491191e-19)
(0.25857279 -0.00062806077 1.5658993e-19)
(0.25467557 -0.00061594005 -4.2070681e-20)
(0.24100379 -0.00052390611 1.1613836e-20)
(0.20544863 -0.00019196316 -5.0415182e-20)
(0.2609225 -3.5349633e-05 3.8594241e-18)
(0.26092828 -8.9497286e-05 4.5658609e-18)
(0.26094096 -0.00014270541 2.9696125e-19)
(0.26096023 -0.00019916671 6.0107958e-19)
(0.2609858 -0.00025530722 3.3034782e-19)
(0.2610165 -0.00031157922 1.9073883e-19)
(0.26104844 -0.00036774517 5.1327797e-19)
(0.2610702 -0.00042350433 2.1736084e-19)
(0.26105114 -0.00047801113 2.2615279e-19)
(0.26091327 -0.00053046086 -1.4445309e-19)
(0.2604557 -0.00057393662 1.0666685e-19)
(0.2590814 -0.00060990566 1.6907567e-19)
(0.2546009 -0.00059424331 -2.4766073e-20)
(0.23963056 -0.00048937354 -3.500389e-20)
(0.20297926 -0.00016931833 2.8543788e-20)
(0.26176274 -3.4655539e-05 3.4373837e-18)
(0.26176854 -8.7746856e-05 3.3304572e-18)
(0.26178122 -0.00013991377 -6.1434852e-19)
(0.26180042 -0.00019527247 5.4487122e-19)
(0.26182568 -0.00025030306 7.951228e-19)
(0.26185536 -0.00030544608 2.9514133e-19)
(0.26188442 -0.00036043768 2.7632955e-19)
(0.26189878 -0.00041494196 1.6388252e-19)
(0.26186213 -0.00046801762 4.3331194e-20)
(0.2616848 -0.00051862213 1.3223752e-19)
(0.26113855 -0.00056034346 9.8943066e-20)
(0.25954316 -0.00059189152 3.714814e-20)
(0.25444651 -0.0005706321 -1.2416864e-20)
(0.23824529 -0.00045627776 -6.4337838e-20)
(0.20071509 -0.00014735259 3.7512624e-20)
(0.26258633 -3.3963061e-05 1.8815841e-18)
(0.26259213 -8.5993782e-05 5.8377583e-20)
(0.26260479 -0.00013711719 2.0665972e-18)
(0.26262388 -0.00019136968 7.9930697e-19)
(0.2626487 -0.00024528656 -1.0162151e-18)
(0.26267708 -0.00029929459 2.985813e-19)
(0.26270267 -0.00035310243 3.3237909e-19)
(0.26270848 -0.00040633486 1.864612e-19)
(0.26265224 -0.00045797299 1.5653473e-19)
(0.26243199 -0.00050672606 1.594451e-19)
(0.26179026 -0.00054656345 2.6719591e-19)
(0.25995633 -0.0005740675 2.717528e-20)
(0.25421177 -0.00054566294 6.3235281e-20)
(0.23686046 -0.00042415214 -5.073465e-20)
(0.19864765 -0.0001267576 -8.2137395e-20)
(0.26339335 -3.3281401e-05 1.9530576e-18)
(0.26339915 -8.4262742e-05 3.3929734e-18)
(0.26341177 -0.0001343551 2.1149151e-18)
(0.26343068 -0.0001875135 9.325902e-19)
(0.26345493 -0.00024032822 1.3596224e-18)
(0.26348171 -0.00029321054 5.3409051e-19)
(0.2635032 -0.00034584107 6.6208812e-19)
(0.2634993 -0.00039780175 2.5786397e-19)
(0.26342146 -0.0004480083 2.6906563e-19)
(0.26315482 -0.00049492779 -2.5606891e-20)
(0.26241041 -0.00053276478 7.3763836e-20)
(0.26031893 -0.00055643964 1.8727509e-19)
(0.2538966 -0.000519773 1.4648679e-19)
(0.23548766 -0.00039274464 7.3091771e-21)
(0.19676807 -0.00010792878 -5.2355339e-20)
(0.26418413 -3.2618313e-05 4.7907064e-18)
(0.26418991 -8.2574227e-05 3.720122e-18)
(0.26420246 -0.00013166021 1.4103932e-18)
(0.26422112 -0.0001837496 8.0347921e-19)
(0.26424465 -0.00023548649 7.898545e-19)
(0.2642695 -0.00028726512 6.9928079e-19)
(0.26428624 -0.00033873796 5.4308626e-19)
(0.26427145 -0.00038944152 4.800837e-20)
(0.26416998 -0.0004382328 1.6475546e-19)
(0.26385341 -0.00048335173 -1.5215829e-19)
(0.26299854 -0.00051908846 9.1108454e-20)
(0.26062878 -0.00053898816 1.7270522e-19)
(0.25350187 -0.00049331965 8.9707371e-21)
(0.2341376 -0.00036197184 9.2132644e-20)
(0.19506692 -9.1079357e-05 4.1784652e-20)
(0.26495914 -3.1980325e-05 2.2180993e-18)
(0.2649649 -8.0945389e-05 2.5797006e-18)
(0.26497734 -0.00012905989 1.971045e-18)
(0.26499568 -0.00018011622 1.3206441e-18)
(0.26501831 -0.00023081031 7.3976835e-19)
(0.26504088 -0.00028151807 9.2180193e-19)
(0.2650522 -0.00033186392 5.0323156e-19)
(0.2650253 -0.00038133727 2.7584186e-19)
(0.26489816 -0.00042873842 4.8257234e-20)
(0.26452796 -0.00047209828 -7.3890012e-21)
(0.26355413 -0.00050565096 8.6606392e-20)
(0.2608835 -0.00052167636 8.8740074e-20)
(0.25302971 -0.00046660631 7.0513129e-21)
(0.23282016 -0.00033188327 1.1541293e-19)
(0.19353413 -7.6303787e-05 1.5340074e-19)
(0.26571903 -3.1372765e-05 6.9907127e-19)
(0.26572475 -7.9390279e-05 2.4487082e-18)
(0.26573705 -0.00012657658 -7.9006466e-20)
(0.26575498 -0.00017664472 8.4579402e-19)
(0.26577653 -0.00022633987 8.4357827e-19)
(0.26579644 -0.0002760185 6.8461807e-19)
(0.26580163 -0.0003252772 2.1516556e-19)
(0.26576141 -0.00037355728 2.3511165e-19)
(0.26560652 -0.00041960061 -2.4074532e-21)
(0.26517878 -0.00046124612 1.3354427e-19)
(0.26407657 -0.00049254343 1.7299145e-20)
(0.26108058 -0.00050445572 7.1403828e-20)
(0.25248384 -0.00043989699 1.5073037e-19)
(0.23154421 -0.00030262987 1.1214688e-19)
(0.19215888 -6.3609732e-05 7.195997e-20)
(0.26646455 -3.0799673e-05 7.1612007e-18)
(0.26647021 -7.7919711e-05 1.1859413e-18)
(0.26648233 -0.00012422759 2.8098962e-18)
(0.26649975 -0.0001733593 1.8730761e-18)
(0.26652002 -0.00022210618 -9.710675e-19)
(0.26653688 -0.0002708044 1.2029741e-18)
(0.26653522 -0.00031902283 9.7089291e-19)
(0.26648042 -0.00036615421 8.9400686e-19)
(0.26629564 -0.00041087723 5.5565669e-19)
(0.26580617 -0.00045085191 -3.1687885e-20)
(0.26456508 -0.00047982866 4.634276e-19)
(0.26121753 -0.00048726982 3.8736107e-19)
(0.25186982 -0.00041342264 4.1109758e-19)
(0.23031742 -0.00027443217 2.582109e-19)
(0.1909297 -5.2932834e-05 1.645976e-19)
(0.26719653 -3.0263687e-05 4.2692983e-18)
(0.26720212 -7.6541023e-05 -4.1175276e-19)
(0.26721401 -0.00012202465 2.6834974e-18)
(0.26723083 -0.00017027641 2.450489e-18)
(0.2672496 -0.00021813033 8.9710239e-19)
(0.26726299 -0.00026590165 1.1726203e-18)
(0.26725373 -0.0003131315 1.305501e-18)
(0.26718309 -0.00035916374 9.9424116e-19)
(0.26696618 -0.00040260692 4.4323851e-19)
(0.26641044 -0.00044094906 1.8363366e-20)
(0.26501868 -0.00046753759 3.8358437e-19)
(0.26129202 -0.00047005901 4.3631883e-19)
(0.25119506 -0.00038738325 2.7463025e-19)
(0.2291461 -0.00024754677 1.6504164e-19)
(0.18983455 -4.4145099e-05 2.491758e-19)
(0.26791589 -2.9765991e-05 -2.0394362e-18)
(0.26792138 -7.5257932e-05 4.2373634e-19)
(0.26793299 -0.00011997376 1.4823779e-18)
(0.26794908 -0.00016740448 5.5580417e-19)
(0.26796613 -0.00021442312 1.9279857e-18)
(0.26797562 -0.00026132351 4.7521247e-19)
(0.267958 -0.00030761887 4.076939e-19)
(0.26787018 -0.00035260382 1.8805807e-19)
(0.2676188 -0.00039480805 -8.7093198e-20)
(0.2669918 -0.00043154706 -9.3085248e-20)
(0.26543617 -0.00045566687 -4.1184091e-20)
(0.2613021 -0.00045276643 6.4290373e-20)
(0.2504687 -0.00036194908 -4.0595062e-20)
(0.22803501 -0.00022223217 8.3914245e-20)
(0.18886112 -3.7064086e-05 4.9589536e-20)
(0.26862352 -2.9306383e-05 3.9667689e-18)
(0.2686289 -7.4070661e-05 1.2828206e-18)
(0.26864017 -0.00011807532 3.0457808e-18)
(0.26865542 -0.00016474412 1.9701295e-18)
(0.26867049 -0.00021098533 1.8413817e-18)
(0.26867563 -0.000257071 1.7152453e-18)
(0.26864885 -0.00030248606 9.5269061e-19)
(0.26854251 -0.00034647515 8.1066687e-19)
(0.26825414 -0.00038747924 6.4568079e-19)
(0.26755035 -0.00042263245 -3.4695359e-19)
(0.2658161 -0.00044417905 2.7531851e-19)
(0.26124652 -0.00043534493 2.3796802e-19)
(0.24970133 -0.00033726333 2.8950349e-19)
(0.22698727 -0.00019871676 3.5538338e-19)
(0.18799711 -3.1466397e-05 2.32037e-19)
(0.26932033 -2.888346e-05 2.2863748e-18)
(0.26932558 -7.2976354e-05 -8.2146978e-19)
(0.26933645 -0.00011632481 4.6696175e-19)
(0.26935072 -0.00016228909 1.9776541e-18)
(0.26936357 -0.0002078089 1.8976032e-18)
(0.26936389 -0.00025313432 1.663861e-18)
(0.26932713 -0.0002977213 1.0661505e-18)
(0.26920083 -0.00034076321 1.0193678e-18)
(0.2688728 -0.00038060158 7.9803417e-19)
(0.26808605 -0.00041417146 1.6591441e-19)
(0.26615679 -0.00043300583 2.6876606e-19)
(0.26112496 -0.00041776402 3.7325366e-19)
(0.24890441 -0.00031344658 4.1477768e-19)
(0.22600436 -0.0001771726 3.4290636e-19)
(0.18723056 -2.7105585e-05 2.5054661e-19)
(0.27000719 -2.8494909e-05 4.1362072e-18)
(0.27001228 -7.1969741e-05 2.9263495e-18)
(0.27002267 -0.00011471384 2.5549461e-18)
(0.27003583 -0.0001600277 1.7763893e-18)
(0.27004618 -0.00020487885 8.0910093e-19)
(0.27004119 -0.00024949515 1.4029215e-18)
(0.2699936 -0.00029330262 1.2799492e-18)
(0.26984584 -0.00033544136 1.0148186e-18)
(0.26947524 -0.00037414208 6.5073537e-19)
(0.2685986 -0.00040611399 3.0646376e-19)
(0.26645635 -0.00042205446 2.6348102e-19)
(0.2609383 -0.00040001523 4.7494255e-19)
(0.24808975 -0.00029060213 4.339948e-19)
(0.22508629 -0.00015769827 4.3265165e-19)
(0.18655015 -2.3732127e-05 2.8623561e-19)
(0.27068489 -2.8137824e-05 7.8805252e-18)
(0.2706898 -7.1043904e-05 3.5907609e-18)
(0.27069965 -0.00011323138 5.1544727e-18)
(0.27071153 -0.00015794462 3.7692143e-18)
(0.2707191 -0.00020217544 1.3704857e-18)
(0.27070829 -0.00024612932 1.971845e-18)
(0.27064898 -0.00028920108 2.2179903e-18)
(0.27047818 -0.00033047455 1.4991171e-18)
(0.27006181 -0.00036805783 1.1536505e-18)
(0.26908753 -0.00039839812 2.7497663e-19)
(0.26671278 -0.00041121648 6.2063755e-19)
(0.26068881 -0.00038211515 6.2865136e-19)
(0.24726882 -0.00026882041 7.3296633e-19)
(0.22423175 -0.00014031231 5.5762253e-19)
(0.18594537 -2.1112145e-05 4.5703622e-19)
(0.27135418 -2.780901e-05 1.902702e-18)
(0.27135887 -7.0191038e-05 3.6829681e-18)
(0.2713681 -0.00011186497 2.5158499e-18)
(0.27137855 -0.00015602246 2.2501512e-18)
(0.27138303 -0.00019967637 2.4213199e-18)
(0.27136587 -0.00024300948 1.1670624e-18)
(0.27129391 -0.00028538386 1.312788e-18)
(0.27109836 -0.00032582299 9.8858894e-19)
(0.27063272 -0.00036230005 6.6635768e-19)
(0.26955206 -0.00039095432 4.1754029e-19)
(0.26692403 -0.00040037783 3.7456779e-19)
(0.26038022 -0.00036410564 3.1497152e-19)
(0.24645221 -0.00024818088 4.0270071e-19)
(0.22343841 -0.00012495718 2.8088037e-19)
(0.18540672 -1.9041828e-05 2.9118285e-19)
(0.27201571 -2.7505234e-05 3.4993746e-18)
(0.27202015 -6.9403097e-05 3.9403859e-18)
(0.27202866 -0.00011060176 2.1658654e-18)
(0.27203751 -0.00015424331 1.5875152e-18)
(0.2720386 -0.00019735858 1.9408897e-18)
(0.27201452 -0.00024010732 1.1904889e-18)
(0.27192892 -0.00028181693 9.5646877e-19)
(0.2717068 -0.00032144524 8.0697496e-19)
(0.27118802 -0.00035681746 5.5831476e-19)
(0.2699912 -0.00038370883 3.0737711e-19)
(0.26708822 -0.000389429 2.7509688e-19)
(0.26001771 -0.00034605163 4.1833111e-19)
(0.24564917 -0.00022875086 3.9129801e-19)
(0.22270325 -0.00011151161 4.6238857e-19)
(0.18492573 -1.7355841e-05 2.5882577e-19)
(0.27267005 -2.7223402e-05 1.394768e-18)
(0.27267421 -6.8672266e-05 9.0881587e-19)
(0.27268192 -0.00010942927 1.5947288e-18)
(0.27268898 -0.00015258973 1.6691088e-18)
(0.27268634 -0.00019519966 1.947975e-18)
(0.27265476 -0.00023739527 1.4629849e-18)
(0.27255447 -0.00027846698 1.0055999e-18)
(0.2723038 -0.00031730047 1.0057797e-18)
(0.27172757 -0.00035155883 7.8907667e-19)
(0.27040369 -0.00037658611 6.8369247e-19)
(0.26720375 -0.00037827411 2.4908251e-19)
(0.25960771 -0.00032803713 3.8352447e-19)
(0.24486735 -0.00021058183 4.8882627e-19)
(0.22202277 -9.9808135e-05 4.2943648e-19)
(0.18449494 -1.5929482e-05 2.6281356e-19)
(0.27331772 -2.6960665e-05 2.1758937e-18)
(0.27332155 -6.7991271e-05 4.4332013e-18)
(0.27332837 -0.00010833586 3.5538253e-18)
(0.27333345 -0.00015104547 2.1206743e-18)
(0.27332673 -0.00019317868 1.3373526e-18)
(0.27328702 -0.0002348475 1.5784324e-18)
(0.27317093 -0.00027530269 1.4182693e-18)
(0.27288957 -0.00031334989 1.120571e-18)
(0.27225107 -0.00034647442 6.7119808e-19)
(0.27078808 -0.00036951039 6.4911314e-19)
(0.26726952 -0.00036683813 3.0088755e-19)
(0.25915765 -0.0003101602 3.5529808e-19)
(0.24411266 -0.00019370463 3.6057301e-19)
(0.22139331 -8.9652399e-05 3.0788634e-19)
(0.1841079 -1.4675688e-05 3.6998424e-19)
(0.27395916 -2.6714474e-05 6.432196e-18)
(0.27396262 -6.7353539e-05 5.8275618e-18)
(0.27396843 -0.00010731104 5.3943899e-18)
(0.27397134 -0.00014959583 3.3731339e-18)
(0.27396016 -0.00019127671 1.72146e-18)
(0.27391168 -0.00023244055 2.1947915e-18)
(0.2737786 -0.00027229532 2.2620716e-18)
(0.27346419 -0.00030955757 1.4902189e-18)
(0.27275806 -0.00034151676 1.0274372e-18)
(0.27114274 -0.00036240703 2.4867313e-19)
(0.26728512 -0.00035507155 6.9454912e-19)
(0.25867552 -0.00029252748 6.4845924e-19)
(0.24338933 -0.00017812521 5.5931414e-19)
(0.22081116 -8.0841188e-05 7.0809904e-19)
(0.18375901 -1.3538664e-05 4.8795013e-19)
(0.27459475 -2.6482588e-05 1.4917996e-19)
(0.2745978 -6.6753257e-05 5.253906e-18)
(0.27460249 -0.0001063455 3.4452204e-18)
(0.274603 -0.00014822779 2.4783189e-18)
(0.27458699 -0.00018947691 2.669796e-18)
(0.27452902 -0.00023015345 1.7627084e-18)
(0.27437767 -0.00026941895 1.1754209e-18)
(0.27402763 -0.00030589063 9.9597215e-19)
(0.27324789 -0.00033664078 5.5430014e-19)
(0.27146593 -0.0003552038 3.2937358e-19)
(0.26725094 -0.00034295249 3.891918e-19)
(0.25816956 -0.00027524859 3.6674429e-19)
(0.24270004 -0.00016382254 2.9601929e-19)
(0.22027275 -7.3177107e-05 4.4992551e-19)
(0.18344349 -1.2486087e-05 2.8212986e-19)
(0.27522481 -2.626307e-05 2.8262738e-18)
(0.27522741 -6.6185365e-05 4.5041704e-18)
(0.27523087 -0.00010543113 2.4435679e-18)
(0.27522875 -0.00014692999 2.8994886e-18)
(0.27520748 -0.00018776455 2.6688132e-18)
(0.2751393 -0.00022796773 1.7322748e-18)
(0.27496829 -0.0002666504 1.1614443e-18)
(0.27457978 -0.00030231921 1.0457469e-18)
(0.27371976 -0.0003318036 4.3182842e-19)
(0.27175586 -0.00034783257 3.6363019e-19)
(0.26716832 -0.00033048644 3.1172837e-19)
(0.25764777 -0.0002584306 5.2929101e-19)
(0.24204621 -0.0001507494 5.7008226e-19)
(0.21977469 -6.6478882e-05 4.3784611e-19)
(0.18315725 -1.1501419e-05 3.1047554e-19)
(0.27584964 -2.605426e-05 1.8609339e-18)
(0.27585173 -6.5645509e-05 1.4808494e-18)
(0.27585383 -0.00010456098 8.7780133e-19)
(0.27584885 -0.00014569263 2.4019179e-18)
(0.27582189 -0.00018612688 2.4705341e-18)
(0.2757427 -0.00022586725 1.2830428e-18)
(0.27555053 -0.00026396905 1.1351136e-18)
(0.27512041 -0.00029881615 7.6111302e-19)
(0.27417268 -0.00032696405 5.3657775e-19)
(0.27201082 -0.00034023144 7.0366106e-19)
(0.26703956 -0.00031770398 3.5085005e-19)
(0.25711762 -0.00024217267 5.9201176e-19)
(0.24142819 -0.00013883591 6.7929687e-19)
(0.21931381 -6.0587304e-05 3.271023e-19)
(0.18289682 -1.057747e-05 2.554801e-19)
(0.27646948 -2.5854749e-05 1.7118278e-18)
(0.27647102 -6.512998e-05 2.9920844e-18)
(0.27647162 -0.00010372909 3.3207098e-18)
(0.27646352 -0.0001445073 2.4201976e-18)
(0.2764304 -0.00018455289 1.5297815e-18)
(0.27633935 -0.00022383791 1.4417034e-18)
(0.27612438 -0.00026135648 1.1788822e-18)
(0.27564919 -0.00029535665 7.7834201e-19)
(0.27460555 -0.00032208226 6.905631e-19)
(0.27222923 -0.0003323472 7.3489031e-19)
(0.26686787 -0.00030465719 4.8985183e-19)
(0.25658579 -0.00022656126 4.4914104e-19)
(0.2408456 -0.00012799526 4.0780603e-19)
(0.21888719 -5.5367365e-05 2.99355e-19)
(0.18265925 -9.7115777e-06 2.3054428e-19)
(0.27708455 -2.5663344e-05 9.358543e-18)
(0.27708548 -6.463563e-05 3.7902574e-18)
(0.27708444 -0.0001029304 5.3492341e-18)
(0.27707295 -0.00014336686 3.7581087e-18)
(0.27703318 -0.00018303314 1.8002296e-18)
(0.27692935 -0.00022186743 2.5633533e-18)
(0.2766898 -0.00025879623 2.1165788e-18)
(0.27616569 -0.00029191777 1.5295827e-18)
(0.27501711 -0.00031711915 1.2184917e-18)
(0.27240981 -0.00032413774 4.4941489e-19)
(0.26665729 -0.00029141517 8.5144896e-19)
(0.256058 -0.00021166603 7.1009652e-19)
(0.24029748 -0.00011813047 6.4839973e-19)
(0.21849214 -5.0707644e-05 7.1951494e-19)
(0.18244204 -8.9025334e-06 5.0433261e-19)
(0.27769504 -2.5479044e-05 3.6961289e-18)
(0.27769529 -6.4159806e-05 4.8578232e-18)
(0.27769247 -0.00010216064 3.6816864e-18)
(0.27767729 -0.00014226521 2.4041159e-18)
(0.27763035 -0.0001815595 2.601649e-18)
(0.27751275 -0.00021994503 1.6821574e-18)
(0.27724666 -0.00025627339 1.2621815e-18)
(0.27666938 -0.00028847796 1.0469034e-18)
(0.275406 -0.00031203634 8.0124893e-19)
(0.27255164 -0.00031557421 4.8855216e-19)
(0.26641246 -0.00027805926 5.1341786e-19)
(0.25553894 -0.00019753711 3.8187919e-19)
(0.23978254 -0.00010914113 4.3023226e-19)
(0.21812621 -4.6517864e-05 3.7024861e-19)
(0.18224308 -8.1488552e-06 3.263974e-19)
(0.27830111 -2.5301006e-05 1.3520451e-18)
(0.27830062 -6.3700269e-05 4.8043834e-18)
(0.27829586 -0.0001014162 3.0365438e-18)
(0.2782767 -0.00014119716 2.7370485e-18)
(0.278222 -0.00018012493 2.3454315e-18)
(0.27808956 -0.00021806116 1.5697983e-18)
(0.2777948 -0.00025377436 1.0208163e-18)
(0.27715962 -0.0002850166 9.1129744e-19)
(0.27577079 -0.00030679609 8.3998863e-19)
(0.27265429 -0.00030664249 4.7652484e-19)
(0.26613848 -0.00026467813 5.5998869e-19)
(0.2550323 -0.00018420368 6.3680794e-19)
(0.23929925 -0.00010092916 6.4669538e-19)
(0.21778713 -4.2725652e-05 5.0924221e-19)
(0.18206056 -7.4481477e-06 2.9466474e-19)
(0.27890291 -2.5128517e-05 2.7480115e-18)
(0.27890162 -6.3255129e-05 1.7856851e-18)
(0.27889474 -0.00010069401 1.7803199e-18)
(0.27887126 -0.00014015827 2.2083818e-18)
(0.27880821 -0.00017872332 2.3065578e-18)
(0.27865976 -0.00021620724 1.5998747e-18)
(0.27833397 -0.00025128651 1.1951819e-18)
(0.27763569 -0.00028151345 8.0999268e-19)
(0.27611001 -0.00030136189 7.2761819e-19)
(0.2727179 -0.00029734387 7.7366492e-19)
(0.26584062 -0.00025136318 5.2732789e-19)
(0.25454084 -0.0001716744 5.724939e-19)
(0.23884602 -9.3403166e-05 5.4674378e-19)
(0.21747286 -3.9273092e-05 3.4066815e-19)
(0.18189296 -6.7970355e-06 3.3469877e-19)
(0.27950056 -2.4960973e-05 -1.194033e-18)
(0.2794984 -6.2822776e-05 3.7360738e-18)
(0.27948922 -9.9991434e-05 2.3825221e-18)
(0.27946108 -0.00013914467 1.0899555e-18)
(0.279389 -0.00017734922 1.8138915e-18)
(0.27922329 -0.00021437542 6.7576291e-19)
(0.27886389 -0.00024879793 4.9969887e-19)
(0.27809674 -0.00027794828 4.3750496e-19)
(0.27642222 -0.00029569921 2.3227341e-19)
(0.27274323 -0.00028769474 6.579473e-19)
(0.2655241 -0.00023820407 1.0884745e-19)
(0.25406651 -0.00015993913 5.1090915e-20)
(0.23842119 -8.6481058e-05 -3.9132474e-20)
(0.21718151 -3.611362e-05 -5.9724834e-20)
(0.18173897 -6.1914784e-06 1.4888584e-19)
(0.28009418 -2.4797857e-05 -1.6682189e-19)
(0.28009107 -6.2401836e-05 3.0581623e-18)
(0.28007941 -9.9306215e-05 3.1536833e-18)
(0.28004623 -0.00013815299 2.0488575e-18)
(0.27996442 -0.00017599777 1.6790245e-18)
(0.27978006 -0.00021255838 6.2826069e-19)
(0.2793842 -0.00024629715 3.802681e-19)
(0.27854186 -0.00027430051 3.4793361e-19)
(0.27670605 -0.00028977676 4.6833946e-19)
(0.27273166 -0.0002777256 7.7503442e-19)
(0.26519392 -0.00022528492 2.7499064e-19)
(0.25361059 -0.00014897207 2.8055549e-19)
(0.23802316 -8.0091237e-05 -2.588663e-20)
(0.21691137 -3.3209347e-05 9.7762273e-21)
(0.18159747 -5.6271028e-06 1.0377629e-19)
(0.28068388 -2.4638723e-05 3.0287207e-18)
(0.28067974 -6.1991116e-05 3.8397493e-18)
(0.28066539 -9.8636371e-05 3.1375821e-18)
(0.28062676 -0.00013718023 2.5505077e-18)
(0.28053445 -0.00017466448 2.1010843e-18)
(0.28032993 -0.00021074911 8.9353621e-19)
(0.27989449 -0.00024377295 5.4953729e-19)
(0.27897002 -0.0002705489 3.3604388e-19)
(0.27696025 -0.00028356786 5.5935725e-19)
(0.27268518 -0.00026747915 6.5592844e-19)
(0.26485469 -0.00021268092 2.7788258e-19)
(0.25317379 -0.00013873548 1.543556e-19)
(0.23765034 -7.4172521e-05 -6.7192476e-20)
(0.2166609 -3.052904e-05 -4.0657751e-20)
(0.18146749 -5.0995728e-06 1.1010725e-19)
(0.28126974 -2.4483174e-05 4.5911075e-18)
(0.28126449 -6.158957e-05 5.9749022e-18)
(0.28124722 -9.798014e-05 3.2218522e-18)
(0.28120271 -0.00013622364 1.1946806e-18)
(0.28109907 -0.00017334515 1.3560082e-18)
(0.28087275 -0.00020894083 2.7390915e-19)
(0.28039427 -0.00024121406 2.1645217e-20)
(0.27938014 -0.00026667151 -1.7051575e-19)
(0.27718382 -0.00027705192 -7.2279193e-20)
(0.27260633 -0.00025700812 1.2730305e-19)
(0.26451052 -0.00020045587 -2.9461723e-19)
(0.25275643 -0.00012918378 -5.2316671e-19)
(0.23730122 -6.867328e-05 -4.6493728e-19)
(0.21642866 -2.8046565e-05 -1.669505e-19)
(0.18134818 -4.6048156e-06 -5.9031189e-20)
(0.28185185 -2.4330858e-05 3.9850984e-18)
(0.28184539 -6.1196255e-05 5.1621659e-18)
(0.28182498 -9.7335912e-05 3.3753241e-18)
(0.28177412 -0.00013528068 1.1431436e-18)
(0.28165823 -0.00017203574 1.4712726e-18)
(0.2814083 -0.00020712677 5.7504401e-19)
(0.28088299 -0.00023860899 1.324293e-19)
(0.27977106 -0.0002626457 9.3866125e-20)
(0.27737601 -0.00027021574 -6.4431725e-20)
(0.27249806 -0.00024637257 5.5167153e-20)
(0.26416497 -0.00018866041 -2.5949978e-20)
(0.2523585 -0.00012026722 -2.1506438e-19)
(0.23697438 -6.3550131e-05 -1.5474058e-19)
(0.21621337 -2.5739823e-05 -2.0205577e-19)
(0.18123881 -4.1392088e-06 -9.1613456e-20)
(0.28243029 -2.418145e-05 4.1953769e-18)
(0.28242252 -6.0810312e-05 5.9885615e-18)
(0.28239871 -9.6702202e-05 3.6029138e-18)
(0.28234099 -0.00013434892 2.4568555e-18)
(0.28221186 -0.00017073228 2.1135729e-18)
(0.28193636 -0.00020530013 1.4670721e-18)
(0.28136003 -0.00023594579 6.2858832e-19)
(0.2801416 -0.00025844846 6.7753243e-19)
(0.27753642 -0.00026305462 5.2953266e-19)
(0.27236366 -0.00023563726 6.7054516e-20)
(0.26382105 -0.00017733136 3.7948136e-19)
(0.25197976 -0.0001119352 3.7736924e-19)
(0.23666845 -5.8766496e-05 3.5795383e-19)
(0.21601387 -2.3589927e-05 1.4848597e-19)
(0.1811387 -3.6996027e-06 9.6517516e-20)
(0.28300512 -2.403465e-05 2.702989e-18)
(0.28299594 -6.0430942e-05 3.3252609e-18)
(0.28296845 -9.60776e-05 3.4349293e-18)
(0.28290332 -0.00013342602 2.548922e-18)
(0.28275987 -0.00016943078 1.9920133e-18)
(0.28245663 -0.00020345398 1.2943841e-18)
(0.28182471 -0.00023321187 7.5469613e-19)
(0.28049056 -0.00025405691 4.449495e-19)
(0.27766504 -0.00025557285 4.5681935e-19)
(0.27220658 -0.0002248688 5.9634294e-19)
(0.26348123 -0.00016649191 1.1597046e-19)
(0.25161982 -0.00010413863 9.9142631e-20)
(0.23638216 -5.4291237e-05 1.6440036e-19)
(0.21582908 -2.1580669e-05 2.7295424e-19)
(0.18104728 -3.2833488e-06 8.9942946e-20)
(0.2835764 -2.3890169e-05 2.0532917e-18)
(0.28356569 -6.0057383e-05 2.4397738e-18)
(0.28353424 -9.5460743e-05 3.3287497e-18)
(0.2834611 -0.00013250962 2.4254589e-18)
(0.28330215 -0.00016812719 1.8517749e-18)