/*--------------------------------*- C++ -*----------------------------------*\
| =========                 |                                                 |
| \\      /  F ield         | OpenFOAM: The Open Source CFD Toolbox           |
|  \\    /   O peration     | Version:  2506                                  |
|   \\  /    A nd           | Website:  www.openfoam.com                      |
|    \\/     M anipulation  |                                                 |
\*---------------------------------------------------------------------------*/
FoamFile
{
    version     2.0;
    format      ascii;
    arch        "LSB;label=32;scalar=64";
    class       volScalarField;
    location    "19000/water";
    object      alphat;
}
// * * * * * * * * * * * * * * * * * * * * * * * * * * * * * * * * * * * * * //

dimensions      [1 -1 -1 0 0 0 0];

internalField   nonuniform List<scalar> 
1000
(
0.038690245
0.038689577
0.038688046
0.038679676
0.038634252
0.038395956
0.037190881
0.031863289
0.019099264
0.016301307
0.036437656
0.036436968
0.036430539
0.036397696
0.036243742
0.035561449
0.032798675
0.024476364
0.01464426
0.017654592
0.034756095
0.034752687
0.034735392
0.034658264
0.034338316
0.033096045
0.028914333
0.020078543
0.014287407
0.017671293
0.033455039
0.033447371
0.03341324
0.03327659
0.032760731
0.030940104
0.025769898
0.018271992
0.015951985
0.017301529
0.032418332
0.032405139
0.032350677
0.032150525
0.031437428
0.029070357
0.023556056
0.018635729
0.018861459
0.016925711
0.031571667
0.031552637
0.031479596
0.031226162
0.030328114
0.027485246
0.022555054
0.020803645
0.022278861
0.016666254
0.030866455
0.030843488
0.030761495
0.030477943
0.029402092
0.02629227
0.023061984
0.024244004
0.025541425
0.016525216
0.030270851
0.030249446
0.030178153
0.029894484
0.028644336
0.025787537
0.025138599
0.028280561
0.028304991
0.016463215
0.029764733
0.029755538
0.029725667
0.029468643
0.028107151
0.026357248
0.028508395
0.03233445
0.03051915
0.01644269
0.029337063
0.02935753
0.029409775
0.029196768
0.027981122
0.028237435
0.032681244
0.036080593
0.032267538
0.016440707
0.028984752
0.029060641
0.029241361
0.029099672
0.028583666
0.031375204
0.037164787
0.039413669
0.033659202
0.016446404
0.028712545
0.028878706
0.029233191
0.029270521
0.030215537
0.035478799
0.041608857
0.042341665
0.034787804
0.016455612
0.028533637
0.028833088
0.029403436
0.029913124
0.033002998
0.040161622
0.045828177
0.044910571
0.035723389
0.016467073
0.028470726
0.028950957
0.029795674
0.031303898
0.036852307
0.045075564
0.049751542
0.047172231
0.036515323
0.016480524
0.028557113
0.029264029
0.030516035
0.033675843
0.04151207
0.049977094
0.053365676
0.049173918
0.037197732
0.016495908
0.028837263
0.029812298
0.031757388
0.037114002
0.046676335
0.054726057
0.056681725
0.050955441
0.037793685
0.016513131
0.029366617
0.030660523
0.033764361
0.04153104
0.052071059
0.059252899
0.059719587
0.052547804
0.038312933
0.016531934
0.030212278
0.031928023
0.03674159
0.04671447
0.057495274
0.063527277
0.062500721
0.053971547
0.038771748
0.016552023
0.031460394
0.033807949
0.040768897
0.052403107
0.062820398
0.067538786
0.06504383
0.055249936
0.039180785
0.016573203
0.033237205
0.036537468
0.045775176
0.058353538
0.067969776
0.071286933
0.067367493
0.056402411
0.039547833
0.016595307
0.035735147
0.040316416
0.051570811
0.064374649
0.072897435
0.074772547
0.069492172
0.057443769
0.039878859
0.016618161
0.039206188
0.045224969
0.057909273
0.070330247
0.077571333
0.078005559
0.071434737
0.058385896
0.040178188
0.016641572
0.043888483
0.051190221
0.064545255
0.076123384
0.081973285
0.080996879
0.073208785
0.05923807
0.040448922
0.016665344
0.049892635
0.058009436
0.071267556
0.081682607
0.086094357
0.083754898
0.074824851
0.060007198
0.040693173
0.016689273
0.057120713
0.065404481
0.077905707
0.086957412
0.089927731
0.086285035
0.076290276
0.060698
0.040912201
0.016713149
0.06526855
0.073076989
0.084332897
0.091910133
0.093464978
0.088589306
0.077609286
0.06131321
0.041106528
0.016736752
0.073907242
0.080754694
0.090454437
0.096507567
0.096695839
0.090666519
0.078783315
0.061853855
0.041276061
0.016759841
0.082593386
0.088207866
0.096194047
0.10072086
0.099609202
0.09251317
0.079811656
0.062319641
0.041420253
0.016782157
0.090954501
0.095254782
0.10149082
0.1045267
0.10219501
0.094124963
0.080692466
0.062709511
0.04153831
0.01680342
0.098726853
0.10176243
0.10629921
0.10790906
0.10444654
0.095498737
0.081424073
0.063022372
0.041629469
0.016823346
0.10575415
0.10764443
0.11059003
0.11086087
0.10636253
0.096634389
0.082006392
0.063257926
0.041693333
0.01684166
0.11196648
0.11285628
0.11435085
0.11338486
0.10794853
0.097536367
0.08244213
0.063417429
0.041730192
0.016858122
0.11735492
0.1173884
0.11758533
0.11549351
0.10921737
0.098214395
0.082737516
0.063504196
0.041741239
0.016872555
0.12194976
0.12125807
0.12031113
0.11720802
0.11018848
0.09868332
0.082902375
0.063523704
0.041728617
0.016884857
0.1258043
0.12450154
0.12255716
0.11855647
0.11088665
0.098962243
0.082949627
0.063483311
0.041695266
0.016895007
0.12898376
0.1271671
0.12436028
0.11957183
0.11134031
0.099073235
0.082894407
0.063391721
0.041644675
0.016903063
0.13155811
0.12930959
0.1257623
0.1202899
0.11157985
0.099039975
0.082753075
0.063258355
0.041580579
0.016909144
0.13359752
0.13098635
0.12680738
0.12074756
0.11163616
0.098886548
0.082542303
0.063092782
0.04150671
0.016913417
0.1351697
0.13225439
0.12754001
0.1209814
0.11153957
0.098636489
0.08227835
0.062904253
0.041426606
0.016916081
0.13633845
0.13316863
0.1280036
0.12102678
0.11131898
0.09831208
0.081976497
0.06270136
0.041343486
0.016917355
0.1371628
0.13378074
0.12823945
0.12091703
0.1110013
0.097933825
0.081650636
0.062491786
0.041260155
0.016917463
0.13769672
0.13413853
0.12828609
0.12068298
0.11061102
0.097520082
0.08131298
0.062282123
0.041178953
0.016916623
0.13798894
0.13428552
0.12817875
0.12035256
0.11016993
0.097086815
0.080973874
0.062077776
0.04110171
0.016915044
0.13808295
0.13426078
0.12794915
0.1199506
0.10969693
0.096647496
0.080641744
0.061882937
0.041029751
0.016912912
0.13801717
0.13409895
0.12762533
0.11949873
0.10920806
0.096213106
0.080323059
0.061700387
0.04096286
0.016910377
0.13782513
0.1338303
0.12723179
0.11901548
0.10871658
0.095792233
0.080022349
0.061531136
0.040902129
0.016907565
0.13753583
0.13348108
0.12678957
0.11851644
0.10823314
0.095391197
0.079742046
0.061377181
0.040847979
0.016904598
0.13717418
0.13307377
0.1263166
0.11801448
0.10776598
0.095014024
0.079485175
0.061239244
0.040800535
0.016901578
0.13676137
0.1326275
0.12582786
0.11751992
0.10732092
0.094664942
0.079253138
0.061117521
0.0407597
0.016898587
0.13631532
0.13215827
0.12533556
0.11704065
0.10690366
0.094346366
0.079046496
0.061011794
0.040725216
0.01689569
0.13585084
0.1316792
0.12484977
0.11658406
0.10651796
0.094059582
0.078865144
0.06092151
0.040696709
0.016892934
0.13538027
0.1312015
0.12437932
0.11615551
0.10616622
0.093804948
0.078708421
0.060845846
0.040673725
0.016890356
0.13491408
0.13073456
0.12393105
0.11575881
0.10584966
0.093582044
0.07857522
0.060783778
0.040655751
0.01688798
0.13446083
0.13028589
0.1235101
0.11539639
0.10556854
0.093389813
0.078464088
0.060734143
0.040642248
0.01688582
0.13402728
0.12986121
0.1231201
0.11506949
0.10532226
0.093226703
0.078373329
0.060695699
0.040632667
0.016883881
0.13361856
0.12946475
0.12276338
0.11477841
0.10510961
0.0930908
0.0783011
0.060667177
0.040626469
0.016882164
0.13323837
0.12909937
0.12244114
0.1145226
0.10492885
0.09297995
0.078245494
0.060647325
0.040623142
0.016880662
0.13288916
0.1287668
0.12215369
0.11430092
0.10477792
0.092891871
0.078204604
0.060634942
0.040622212
0.016879366
0.13257233
0.12846781
0.12190057
0.11411174
0.10465452
0.092824236
0.078176579
0.060628903
0.040623247
0.016878264
0.13228843
0.12820239
0.12168078
0.11395308
0.10455622
0.09277474
0.078159659
0.060628173
0.040625862
0.016877343
0.13203727
0.12796991
0.12149282
0.11382274
0.10448055
0.092741148
0.078152196
0.060631811
0.040629722
0.01687659
0.13181812
0.12776923
0.12133488
0.11371837
0.10442505
0.092721323
0.07815266
0.060638969
0.040634529
0.016875989
0.13162977
0.12759882
0.12120491
0.11363752
0.10438728
0.092713233
0.078159643
0.060648884
0.040640027
0.016875526
0.13147064
0.12745684
0.12110062
0.1135777
0.10436489
0.092714969
0.078171848
0.06066087
0.040645986
0.016875186
0.13133885
0.1273412
0.12101963
0.11353641
0.10435561
0.092724743
0.078188093
0.060674312
0.040652204
0.016874954
0.13123229
0.12724961
0.12095947
0.1135112
0.10435727
0.092740903
0.078207309
0.060688666
0.040658503
0.016874817
0.13114868
0.12717968
0.12091766
0.11349969
0.10436786
0.09276195
0.078228549
0.060703459
0.040664733
0.016874758
0.13108565
0.12712899
0.12089176
0.11349966
0.10438554
0.092786551
0.078250995
0.060718296
0.040670769
0.016874766
0.13104081
0.12709514
0.12087945
0.11350902
0.10440865
0.092813551
0.078273961
0.060732859
0.040676519
0.016874827
0.13101184
0.12707582
0.12087856
0.1135259
0.10443575
0.09284197
0.078296889
0.060746903
0.040681918
0.01687493
0.13099652
0.12706883
0.12088706
0.11354863
0.10446559
0.092870994
0.078319334
0.060760246
0.040686927
0.016875067
0.13099276
0.12707217
0.12090316
0.11357573
0.1044971
0.092899949
0.078340946
0.06077275
0.040691478
0.016875228
0.13099863
0.12708396
0.1209252
0.11360591
0.10452937
0.092928272
0.078361433
0.060784273
0.040695555
0.016875405
0.13101235
0.12710251
0.12095171
0.11363801
0.10456161
0.092955494
0.078380543
0.060794749
0.040699179
0.016875592
0.13103227
0.12712625
0.12098136
0.11367104
0.10459315
0.09298121
0.078398106
0.060804166
0.040702365
0.016875784
0.1310569
0.12715379
0.12101298
0.11370412
0.10462342
0.09300512
0.07841405
0.060812518
0.040705128
0.016875976
0.13108488
0.12718387
0.12104553
0.11373651
0.10465197
0.093027063
0.078428326
0.060819817
0.040707487
0.016876164
0.13111502
0.12721537
0.12107811
0.11376763
0.10467852
0.093046928
0.078440932
0.0608261
0.040709463
0.016876345
0.13114628
0.12724735
0.12111002
0.11379706
0.10470289
0.093064677
0.078451907
0.060831421
0.040711086
0.016876516
0.13117777
0.12727905
0.12114074
0.11382451
0.10472497
0.093080332
0.078461328
0.06083585
0.040712387
0.016876675
0.13120883
0.12730989
0.12116987
0.11384979
0.10474474
0.093093966
0.078469293
0.060839465
0.040713404
0.016876823
0.13123893
0.12733942
0.12119713
0.1138728
0.10476223
0.093105681
0.078475918
0.060842351
0.040714172
0.016876957
0.13126765
0.1273673
0.12122232
0.1138935
0.10477751
0.093115597
0.078481318
0.060844586
0.040714724
0.016877078
0.13129469
0.12739329
0.12124532
0.1139119
0.10479068
0.093123842
0.078485609
0.060846247
0.040715091
0.016877187
0.13131983
0.12741722
0.12126606
0.11392803
0.10480184
0.093130547
0.0784889
0.0608474
0.040715297
0.016877282
0.13134289
0.12743897
0.12128452
0.11394197
0.10481113
0.093135844
0.078491298
0.060848108
0.040715365
0.016877365
0.13136378
0.12745848
0.12130073
0.11395381
0.10481867
0.093139871
0.078492908
0.060848432
0.040715313
0.016877436
0.13138245
0.12747575
0.12131475
0.11396369
0.10482463
0.093142768
0.078493836
0.060848433
0.040715165
0.016877495
0.1313989
0.12749081
0.12132667
0.11397175
0.10482917
0.093144682
0.078494186
0.060848168
0.040714939
0.016877544
0.13141318
0.12750374
0.12133663
0.11397815
0.10483244
0.093145754
0.07849406
0.060847695
0.040714656
0.016877583
0.13142538
0.12751466
0.12134478
0.11398308
0.10483463
0.093146121
0.078493552
0.060847065
0.040714335
0.016877612
0.13143563
0.1275237
0.12135129
0.11398669
0.10483588
0.09314591
0.078492746
0.060846322
0.04071399
0.016877635
0.13144406
0.12753103
0.12135631
0.11398916
0.10483635
0.093145232
0.078491716
0.060845504
0.040713634
0.01687765
0.13145082
0.1275368
0.12136002
0.11399064
0.10483617
0.093144187
0.078490523
0.060844641
0.040713277
0.01687766
0.13145608
0.12754116
0.12136257
0.11399128
0.10483546
0.093142859
0.078489219
0.060843757
0.040712924
0.016877665
0.13145998
0.12754428
0.12136412
0.11399121
0.10483431
0.093141325
0.07848785
0.060842875
0.040712583
0.016877665
0.13146266
0.12754629
0.12136479
0.11399056
0.10483284
0.09313965
0.078486453
0.060842009
0.040712257
0.016877662
0.13146428
0.12754734
0.12136472
0.11398942
0.10483112
0.093137888
0.078485059
0.060841174
0.04071195
0.016877656
0.13146497
0.12754756
0.12136403
0.11398791
0.10482922
0.093136087
0.078483692
0.060840379
0.040711663
0.016877649
0.13146485
0.12754707
0.12136283
0.11398611
0.10482721
0.093134281
0.078482369
0.060839628
0.040711395
0.016877639
)
;

boundaryField
{
    water_inlet
    {
        type            calculated;
        value           uniform 0.041850807;
    }
    water_outlet
    {
        type            calculated;
        value           nonuniform List<scalar> 10(0.13146485 0.12754707 0.12136283 0.11398611 0.10482721 0.093134281 0.078482369 0.060839628 0.040711395 0.016877639);
    }
    water_wedge1
    {
        type            wedge;
    }
    water_wedge2
    {
        type            wedge;
    }
    water_to_rock
    {
        type            compressible::alphatWallFunction;
        value           nonuniform List<scalar> 
100
(
0.0020384971
0.0022594581
0.0022621707
0.0022020356
0.0021407408
0.0020983182
0.0020752205
0.0020650583
0.0020616932
0.0020613682
0.0020623023
0.0020638119
0.0020656909
0.0020678959
0.0020704176
0.0020732402
0.0020763211
0.0020796124
0.0020830818
0.0020867022
0.0020904447
0.0020942777
0.0020981689
0.002102085
0.0021059918
0.0021098531
0.0021136299
0.0021172796
0.0021207564
0.0021240135
0.0021270063
0.0021296965
0.0021320552
0.0021340661
0.0021357255
0.0021370423
0.0021380355
0.0021387328
0.0021391669
0.0021393742
0.0021393916
0.002139255
0.0021389979
0.0021386504
0.0021382366
0.0021377772
0.002137292
0.0021367981
0.0021363091
0.0021358355
0.0021353855
0.0021349646
0.0021345767
0.002134224
0.0021339073
0.0021336266
0.0021333809
0.0021331689
0.0021329886
0.0021328381
0.002132715
0.002132617
0.0021325415
0.0021324861
0.0021324483
0.0021324258
0.0021324161
0.0021324171
0.0021324269
0.0021324438
0.0021324662
0.0021324927
0.0021325218
0.0021325524
0.0021325838
0.0021326151
0.0021326458
0.0021326753
0.0021327032
0.0021327294
0.0021327536
0.0021327757
0.0021327956
0.0021328134
0.002132829
0.0021328426
0.0021328541
0.0021328637
0.0021328716
0.0021328778
0.0021328827
0.0021328863
0.0021328888
0.0021328903
0.002132891
0.002132891
0.0021328904
0.0021328894
0.002132888
0.0021328863
)
;
    }
}


// ************************************************************************* //
