/*--------------------------------*- C++ -*----------------------------------*\
| =========                 |                                                 |
| \\      /  F ield         | OpenFOAM: The Open Source CFD Toolbox           |
|  \\    /   O peration     | Version:  2506                                  |
|   \\  /    A nd           | Website:  www.openfoam.com                      |
|    \\/     M anipulation  |                                                 |
\*---------------------------------------------------------------------------*/
FoamFile
{
    version     2.0;
    format      ascii;
    arch        "LSB;label=32;scalar=64";
    class       volScalarField;
    location    "19000/water";
    object      epsilon;
}
// * * * * * * * * * * * * * * * * * * * * * * * * * * * * * * * * * * * * * //

dimensions      [0 2 -3 0 0 0 0];

internalField   nonuniform List<scalar> 
1000
(
7.2399316e-05
7.2397808e-05
7.2397502e-05
7.2398682e-05
7.2424146e-05
7.2686938e-05
7.4736184e-05
8.8973295e-05
0.00019794853
0.0013048048
4.7739543e-05
4.7745807e-05
4.7746167e-05
4.7748745e-05
4.7810065e-05
4.8371228e-05
5.2145895e-05
7.5319314e-05
0.00023607336
0.0016574915
3.3261229e-05
3.326441e-05
3.3263962e-05
3.3272039e-05
3.3396639e-05
3.4348943e-05
3.9973155e-05
7.1502154e-05
0.00026550001
0.0016622
2.4212884e-05
2.4213778e-05
2.421353e-05
2.4236018e-05
2.4468828e-05
2.5979968e-05
3.4086724e-05
7.6375425e-05
0.00030233655
0.0015600258
1.8263229e-05
1.8263302e-05
1.8265922e-05
1.8318446e-05
1.8730723e-05
2.109073e-05
3.2935665e-05
9.0423557e-05
0.0003505366
0.0014605598
1.4183053e-05
1.4183388e-05
1.4193787e-05
1.4301413e-05
1.5003318e-05
1.8678163e-05
3.616803e-05
0.00011337729
0.00040230487
0.0013944166
1.1285033e-05
1.1287109e-05
1.1313191e-05
1.1514087e-05
1.2672049e-05
1.836063e-05
4.3854087e-05
0.00014255053
0.00044702277
0.001359314
9.1651308e-06
9.1712237e-06
9.2251469e-06
9.5765161e-06
1.1437663e-05
2.0107175e-05
5.5828151e-05
0.00017322859
0.00047957522
0.0013440711
7.5754962e-06
7.5890767e-06
7.689245e-06
8.2761024e-06
1.1198208e-05
2.4041206e-05
7.1187004e-05
0.0002009905
0.00050080737
0.0013390506
6.3585386e-06
6.3848726e-06
6.5589455e-06
7.5064215e-06
1.1984521e-05
3.0236107e-05
8.8277439e-05
0.00022355926
0.0005139304
0.0013385664
5.4111025e-06
5.4581715e-06
5.7474937e-06
7.2369281e-06
1.3906665e-05
3.8515422e-05
0.00010524315
0.00024078301
0.00052197887
0.0013399584
4.6642398e-06
4.7441301e-06
5.2100522e-06
7.4969403e-06
1.7086977e-05
4.8355515e-05
0.00012068235
0.00025359532
0.00052708035
0.0013422099
4.0714679e-06
4.2024402e-06
4.9349801e-06
8.3622544e-06
2.1575422e-05
5.897546e-05
0.00013393059
0.0002631341
0.00053055264
0.0013450164
3.6019037e-06
3.8114134e-06
4.9402441e-06
9.9351062e-06
2.7272191e-05
6.9567086e-05
0.00014492635
0.00027035444
0.00053316294
0.0013483151
3.2363934e-06
3.5653614e-06
5.2715545e-06
1.2311451e-05
3.3901692e-05
7.9510747e-05
0.00015392457
0.00027595645
0.00053534106
0.0013520946
2.9656646e-06
3.4742258e-06
5.9984154e-06
1.5537505e-05
4.1062742e-05
8.8461031e-05
0.00016127366
0.00028042546
0.00053731676
0.001356334
2.7900137e-06
3.5645564e-06
7.204076e-06
1.956997e-05
4.8330055e-05
9.6307027e-05
0.00016730377
0.00028408911
0.00053917755
0.0013609722
2.720266e-06
3.8804191e-06
8.9663931e-06
2.4261417e-05
5.5349988e-05
0.00010308377
0.00017229227
0.0002871578
0.00054093679
0.0013659396
2.7797389e-06
4.4819645e-06
1.1330797e-05
2.9383028e-05
6.1887449e-05
0.00010889371
0.00017645195
0.00028975381
0.00054267245
0.0013711897
3.006567e-06
5.4386968e-06
1.4283601e-05
3.4675028e-05
6.7820839e-05
0.0001138566
0.00017993853
0.00029198036
0.00054443442
0.0013766836
3.4547925e-06
6.8148589e-06
1.7738628e-05
3.9899733e-05
7.3111862e-05
0.00011808673
0.00018285393
0.00029394161
0.00054623665
0.0013823792
4.191157e-06
8.6476147e-06
2.1546253e-05
4.4874741e-05
7.7769191e-05
0.00012165883
0.00018531794
0.00029569754
0.00054807406
0.0013882301
5.2835999e-06
1.0924879e-05
2.5521757e-05
4.9478057e-05
8.1803691e-05
0.00012466943
0.00018741285
0.00029728405
0.00054993278
0.0013941876
6.7799331e-06
1.3574431e-05
2.9480268e-05
5.3622566e-05
8.5253122e-05
0.0001271993
0.00018919518
0.00029872101
0.00055179396
0.0014002016
8.6832395e-06
1.6474063e-05
3.3249994e-05
5.725952e-05
8.8167037e-05
0.00012930769
0.00019070225
0.00030001673
0.00055363511
0.0014062195
1.0937815e-05
1.9464217e-05
3.6694114e-05
6.0377168e-05
9.0586597e-05
0.00013103651
0.00019195673
0.00030117062
0.00055543041
0.0014121856
1.3423258e-05
2.2384317e-05
3.9726963e-05
6.2977864e-05
9.2544773e-05
0.00013241422
0.00019297024
0.00030217529
0.00055715089
0.0014180386
1.5988103e-05
2.51035e-05
4.230316e-05
6.5074417e-05
9.4068688e-05
0.00013345989
0.00019374686
0.00030301873
0.0005587652
0.0014237109
1.8484526e-05
2.7531391e-05
4.441071e-05
6.6689266e-05
9.5183184e-05
0.00013418765
0.00019428681
0.00030368705
0.00056024151
0.0014291294
2.0793646e-05
2.9617739e-05
4.6063544e-05
6.7854296e-05
9.5914468e-05
0.00013461095
0.00019459032
0.00030416774
0.00056155023
0.0014342186
2.2836443e-05
3.134569e-05
4.729402e-05
6.8609936e-05
9.6292801e-05
0.00013474625
0.00019466118
0.00030445288
0.00056266726
0.0014389061
2.4572704e-05
3.2723e-05
4.8145955e-05
6.9003195e-05
9.6353662e-05
0.00013461535
0.0001945093
0.00030454171
0.00056357668
0.0014431289
2.5993433e-05
3.3773698e-05
4.8668789e-05
6.9084972e-05
9.613738e-05
0.00013424618
0.00019415198
0.00030444192
0.00056427243
0.0014468391
2.7111446e-05
3.4531258e-05
4.891318e-05
6.8907229e-05
9.5687649e-05
0.00013367221
0.00019361365
0.00030416966
0.00056475865
0.0014500078
2.7952865e-05
3.5033509e-05
4.8928017e-05
6.8520523e-05
9.5049503e-05
0.00013293082
0.00019292452
0.00030374831
0.00056504886
0.0014526266
2.8550558e-05
3.5319102e-05
4.8758598e-05
6.7972151e-05
9.4267247e-05
0.0001320612
0.00019211852
0.0003032064
0.00056516407
0.0014547068
2.8939604e-05
3.5425236e-05
4.8445681e-05
6.7304938e-05
9.3382688e-05
0.0001311022
0.00019123089
0.00030257519
0.0005651305
0.0014562771
2.9154401e-05
3.5386301e-05
4.8025114e-05
6.6556602e-05
9.2433813e-05
0.00013009044
0.00019029598
0.00030188618
0.00056497694
0.0014573797
2.9227005e-05
3.5233189e-05
4.7527839e-05
6.5759538e-05
9.1453949e-05
0.00012905892
0.00018934542
0.00030116901
0.00056473231
0.0014580664
2.9186281e-05
3.4993029e-05
4.6980109e-05
6.4940922e-05
9.0471363e-05
0.00012803607
0.00018840672
0.00030044987
0.00056442366
0.0014583941
2.9057581e-05
3.4689206e-05
4.6403838e-05
6.4123015e-05
8.9509217e-05
0.00012704529
0.00018750261
0.00029975047
0.00056407479
0.0014584215
2.8862752e-05
3.4341549e-05
4.5817008e-05
6.3323582e-05
8.8585788e-05
0.00012610496
0.00018665076
0.00029908775
0.00056370553
0.0014582054
2.862032e-05
3.3966617e-05
4.5234102e-05
6.2556387e-05
8.7714874e-05
0.00012522864
0.00018586393
0.00029847393
0.00056333169
0.0014577989
2.8345774e-05
3.3578025e-05
4.4666538e-05
6.1831701e-05
8.6906295e-05
0.00012442558
0.00018515043
0.0002979169
0.00056296509
0.0014572494
2.8051889e-05
3.3186792e-05
4.4123079e-05
6.1156794e-05
8.6166426e-05
0.00012370125
0.00018451466
0.00029742067
0.00056260983
0.001456595
2.7749057e-05
3.2801669e-05
4.3610221e-05
6.0536416e-05
8.5498779e-05
0.00012305805
0.00018395799
0.0002969853
0.000562264
0.0014558683
2.7445603e-05
3.2429459e-05
4.3132547e-05
5.9973241e-05
8.4904557e-05
0.00012249588
0.00018347868
0.00029660468
0.00056194048
0.001455101
2.7148083e-05
3.2075308e-05
4.2693048e-05
5.9468259e-05
8.4383084e-05
0.00012201233
0.00018307004
0.00029628024
0.00056164617
0.0014543201
2.6861549e-05
3.1742966e-05
4.2293412e-05
5.9021123e-05
8.3932061e-05
0.00012160119
0.0001827293
0.00029601081
0.00056138411
0.0014535473
2.6589795e-05
3.1435042e-05
4.1934329e-05
5.8630249e-05
8.3546387e-05
0.00012125844
0.00018245244
0.0002957932
0.00056115495
0.0014527994
2.633559e-05
3.1153221e-05
4.1615283e-05
5.8292247e-05
8.322219e-05
0.00012097926
0.00018223425
0.0002956231
0.00056095787
0.001452089
2.6100737e-05
3.0898063e-05
4.1334774e-05
5.8004136e-05
8.2955032e-05
0.00012075817
0.00018206894
0.00029549555
0.00056079109
0.001451425
2.588613e-05
3.0669456e-05
4.1091118e-05
5.776257e-05
8.2740104e-05
0.00012058938
0.00018195044
0.00029540539
0.00056065232
0.0014508133
2.5692122e-05
3.0466876e-05
4.0882319e-05
5.7563937e-05
8.2572391e-05
0.00012046695
0.0001818727
0.00029534753
0.00056053902
0.0014502571
2.5518638e-05
3.0289455e-05
4.0706129e-05
5.7404466e-05
8.2446819e-05
0.00012038504
0.00018182986
0.00029531708
0.00056044861
0.0014497578
2.5365259e-05
3.0136048e-05
4.0560119e-05
5.7280315e-05
8.2358373e-05
0.000120338
0.00018181639
0.00029530951
0.00056037855
0.0014493152
2.5231288e-05
3.0005291e-05
4.0441746e-05
5.7187647e-05
8.2302188e-05
0.00012032048
0.00018182714
0.00029532066
0.00056032642
0.0014489278
2.5115815e-05
2.9895662e-05
4.0348406e-05
5.7122701e-05
8.2273622e-05
0.00012032749
0.00018185745
0.0002953468
0.00056028993
0.0014485936
2.501776e-05
2.9805526e-05
4.0277492e-05
5.7081846e-05
8.226831e-05
0.00012035444
0.00018190309
0.0002953846
0.00056026696
0.0014483094
2.4935921e-05
2.9733181e-05
4.0226428e-05
5.7061621e-05
8.22822e-05
0.00012039717
0.0001819603
0.00029543113
0.00056025553
0.0014480722
2.4869015e-05
2.9676893e-05
4.0192717e-05
5.705877e-05
8.2311573e-05
0.00012045196
0.0001820258
0.00029548382
0.00056025378
0.0014478784
2.4815706e-05
2.9634932e-05
4.017396e-05
5.7070267e-05
8.2353063e-05
0.00012051549
0.00018209672
0.00029554045
0.00056025998
0.001447724
2.477464e-05
2.9605598e-05
4.0167889e-05
5.7093332e-05
8.2403654e-05
0.00012058489
0.0001821706
0.00029559912
0.00056027254
0.0014476053
2.4744468e-05
2.9587245e-05
4.0172384e-05
5.7125444e-05
8.2460686e-05
0.00012065767
0.00018224537
0.00029565823
0.00056029002
0.0014475182
2.4723866e-05
2.9578302e-05
4.0185485e-05
5.7164344e-05
8.2521841e-05
0.00012073172
0.00018231934
0.0002957165
0.00056031115
0.0014474587
2.4711561e-05
2.9577287e-05
4.0205407e-05
5.7208036e-05
8.2585134e-05
0.0001208053
0.00018239113
0.00029577287
0.00056033485
0.0014474231
2.4706337e-05
2.9582825e-05
4.023054e-05
5.7254782e-05
8.2648895e-05
0.00012087699
0.00018245968
0.00029582656
0.0005603602
0.0014474077
2.4707053e-05
2.9593649e-05
4.0259457e-05
5.7303091e-05
8.2711742e-05
0.00012094568
0.00018252419
0.000295877
0.00056038646
0.0014474092
2.4712653e-05
2.9608609e-05
4.0290902e-05
5.7351703e-05
8.2772562e-05
0.00012101052
0.00018258409
0.00029592377
0.00056041299
0.0014474247
2.4722164e-05
2.9626676e-05
4.0323789e-05
5.7399575e-05
8.2830479e-05
0.00012107087
0.00018263899
0.0002959666
0.00056043925
0.0014474513
2.4734709e-05
2.9646936e-05
4.0357196e-05
5.7445863e-05
8.2884827e-05
0.00012112631
0.00018268868
0.00029600535
0.00056046478
0.0014474866
2.47495e-05
2.9668591e-05
4.0390347e-05
5.74899e-05
8.2935132e-05
0.00012117658
0.00018273308
0.00029603992
0.00056048898
0.0014475283
2.4765841e-05
2.9690954e-05
4.0422611e-05
5.7531184e-05
8.2981079e-05
0.00012122157
0.0001827722
0.00029607028
0.00056051108
0.0014475742
2.4783127e-05
2.9713442e-05
4.0453481e-05
5.7569355e-05
8.3022503e-05
0.0001212613
0.00018280616
0.00029609631
0.00056053098
0.0014476225
2.4800839e-05
2.9735574e-05
4.0482573e-05
5.7604185e-05
8.3059363e-05
0.0001212959
0.00018283507
0.00029611815
0.00056054898
0.0014476719
2.4818538e-05
2.9756959e-05
4.0509605e-05
5.7635557e-05
8.3091722e-05
0.00012132549
0.00018285911
0.00029613625
0.00056056521
0.0014477213
2.4835867e-05
2.9777294e-05
4.0534396e-05
5.7663453e-05
8.3119676e-05
0.00012135027
0.00018287874
0.00029615102
0.00056057974
0.0014477695
2.4852539e-05
2.9796353e-05
4.0556846e-05
5.7687891e-05
8.3143368e-05
0.00012137062
0.00018289441
0.00029616281
0.00056059265
0.0014478159
2.4868336e-05
2.9813982e-05
4.0576887e-05
5.7708944e-05
8.3163083e-05
0.00012138695
0.00018290653
0.00029617196
0.000560604
0.00144786
2.4883086e-05
2.9830057e-05
4.0594517e-05
5.772678e-05
8.3179136e-05
0.00012139965
0.00018291553
0.00029617877
0.00056061389
0.0014479012
2.4896663e-05
2.9844511e-05
4.0609795e-05
5.7741606e-05
8.3191859e-05
0.00012140914
0.0001829218
0.00029618355
0.00056062236
0.0014479394
2.4908988e-05
2.985733e-05
4.0622822e-05
5.7753657e-05
8.3201594e-05
0.0001214158
0.00018292569
0.00029618654
0.00056062948
0.0014479743
2.4920025e-05
2.9868535e-05
4.063373e-05
5.7763182e-05
8.3208679e-05
0.00012142
0.00018292755
0.00029618801
0.00056063534
0.0014480058
2.4929772e-05
2.987818e-05
4.0642671e-05
5.7770439e-05
8.3213447e-05
0.00012142211
0.00018292772
0.0002961882
0.00056064002
0.0014480338
2.4938256e-05
2.9886345e-05
4.0649814e-05
5.7775688e-05
8.3216219e-05
0.00012142245
0.0001829265
0.00029618732
0.00056064363
0.0014480585
2.4945525e-05
2.9893124e-05
4.0655335e-05
5.7779184e-05
8.32173e-05
0.00012142135
0.00018292416
0.00029618559
0.00056064629
0.0014480798
2.4951647e-05
2.9898626e-05
4.0659412e-05
5.7781171e-05
8.3216976e-05
0.00012141909
0.00018292095
0.00029618321
0.00056064812
0.0014480979
2.4956701e-05
2.9902968e-05
4.0662223e-05
5.7781884e-05
8.3215509e-05
0.00012141592
0.00018291711
0.00029618034
0.00056064924
0.001448113
2.4960774e-05
2.9906268e-05
4.0663938e-05
5.7781538e-05
8.3213138e-05
0.00012141209
0.00018291283
0.00029617715
0.00056064978
0.0014481253
2.4963959e-05
2.9908647e-05
4.066472e-05
5.7780334e-05
8.3210077e-05
0.00012140778
0.00018290828
0.00029617375
0.00056064982
0.0014481352
2.4966351e-05
2.9910222e-05
4.0664723e-05
5.7778451e-05
8.3206514e-05
0.00012140318
0.0001829036
0.00029617025
0.00056064945
0.0014481428
2.4968043e-05
2.9911106e-05
4.0664086e-05
5.7776052e-05
8.3202612e-05
0.00012139843
0.00018289891
0.00029616673
0.00056064875
0.0014481485
2.4969127e-05
2.9911405e-05
4.066294e-05
5.7773278e-05
8.3198513e-05
0.00012139366
0.0001828943
0.00029616328
0.00056064778
0.0014481524
2.496969e-05
2.9911219e-05
4.0661398e-05
5.7770255e-05
8.3194337e-05
0.00012138896
0.00018288986
0.00029615994
0.00056064661
0.0014481547
2.4969815e-05
2.9910638e-05
4.0659564e-05
5.7767089e-05
8.3190183e-05
0.00012138442
0.00018288565
0.00029615676
0.00056064529
0.0014481558
2.4969578e-05
2.9909747e-05
4.0657529e-05
5.7763871e-05
8.3186132e-05
0.00012138011
0.0001828817
0.00029615378
0.00056064388
0.0014481558
2.4969049e-05
2.9908619e-05
4.0655371e-05
5.7760678e-05
8.318225e-05
0.00012137607
0.00018287805
0.00029615103
0.00056064242
0.0014481548
2.4968292e-05
2.9907321e-05
4.0653157e-05
5.775757e-05
8.3178584e-05
0.00012137233
0.00018287473
0.00029614851
0.00056064094
0.0014481531
2.4967365e-05
2.9905911e-05
4.0650944e-05
5.7754597e-05
8.3175174e-05
0.00012136892
0.00018287174
0.00029614623
0.00056063947
0.0014481508
2.4966322e-05
2.9904443e-05
4.0648785e-05
5.7751809e-05
8.3172053e-05
0.00012136586
0.00018286907
0.00029614416
0.00056063799
0.0014481481
)
;

boundaryField
{
    water_inlet
    {
        type            turbulentMixingLengthDissipationRateInlet;
        mixingLength    0.005;
        phi             phi;
        k               k;
        value           uniform 0.00011791765;
    }
    water_outlet
    {
        type            inletOutlet;
        inletValue      uniform 0.0001;
        value           nonuniform List<scalar> 10(2.4966322e-05 2.9904443e-05 4.0648785e-05 5.7751809e-05 8.3172053e-05 0.00012136586 0.00018286907 0.00029614416 0.00056063799 0.0014481481);
    }
    water_wedge1
    {
        type            wedge;
    }
    water_wedge2
    {
        type            wedge;
    }
    water_to_rock
    {
        type            epsilonWallFunction;
        blending        stepwise;
        value           nonuniform List<scalar> 
100
(
0.0013048048
0.0016574915
0.0016622
0.0015600258
0.0014605598
0.0013944166
0.001359314
0.0013440711
0.0013390506
0.0013385664
0.0013399584
0.0013422099
0.0013450164
0.0013483151
0.0013520946
0.001356334
0.0013609722
0.0013659396
0.0013711897
0.0013766836
0.0013823792
0.0013882301
0.0013941876
0.0014002016
0.0014062195
0.0014121856
0.0014180386
0.0014237109
0.0014291294
0.0014342186
0.0014389061
0.0014431289
0.0014468391
0.0014500078
0.0014526266
0.0014547068
0.0014562771
0.0014573797
0.0014580664
0.0014583941
0.0014584215
0.0014582054
0.0014577989
0.0014572494
0.001456595
0.0014558683
0.001455101
0.0014543201
0.0014535473
0.0014527994
0.001452089
0.001451425
0.0014508133
0.0014502571
0.0014497578
0.0014493152
0.0014489278
0.0014485936
0.0014483094
0.0014480722
0.0014478784
0.001447724
0.0014476053
0.0014475182
0.0014474587
0.0014474231
0.0014474077
0.0014474092
0.0014474247
0.0014474513
0.0014474866
0.0014475283
0.0014475742
0.0014476225
0.0014476719
0.0014477213
0.0014477695
0.0014478159
0.00144786
0.0014479012
0.0014479394
0.0014479743
0.0014480058
0.0014480338
0.0014480585
0.0014480798
0.0014480979
0.001448113
0.0014481253
0.0014481352
0.0014481428
0.0014481485
0.0014481524
0.0014481547
0.0014481558
0.0014481558
0.0014481548
0.0014481531
0.0014481508
0.0014481481
)
;
    }
}


// ************************************************************************* //
