/*--------------------------------*- C++ -*----------------------------------*\
| =========                 |                                                 |
| \\      /  F ield         | OpenFOAM: The Open Source CFD Toolbox           |
|  \\    /   O peration     | Version:  2506                                  |
|   \\  /    A nd           | Website:  www.openfoam.com                      |
|    \\/     M anipulation  |                                                 |
\*---------------------------------------------------------------------------*/
FoamFile
{
    version     2.0;
    format      ascii;
    arch        "LSB;label=32;scalar=64";
    class       volScalarField;
    location    "19000/water";
    object      k;
}
// * * * * * * * * * * * * * * * * * * * * * * * * * * * * * * * * * * * * * //

dimensions      [0 2 -2 0 0 0 0];

internalField   nonuniform List<scalar> 
1000
(
0.00017657855
0.00017657518
0.00017657131
0.00017655365
0.00017648098
0.00017625478
0.00017589507
0.00017764177
0.00020514192
0.00048657967
0.00013915035
0.00013915817
0.00013914641
0.00013908743
0.00013888206
0.0001383736
0.00013797747
0.00014325065
0.00019616755
0.00057072179
0.00011343696
0.00011343683
0.00011340783
0.00011329561
0.00011298241
0.0001124902
0.00011342552
0.00012641413
0.00020548444
0.00057180213
9.4956345e-05
9.4947216e-05
9.4898274e-05
9.474799e-05
9.4461175e-05
9.4591072e-05
9.8882387e-05
0.00012463492
0.0002316982
0.0005481231
8.1180941e-05
8.1164581e-05
8.1102165e-05
8.0967049e-05
8.0960046e-05
8.2611585e-05
9.2929687e-05
0.00013695691
0.00027128407
0.00052456958
7.0599818e-05
7.0579371e-05
7.0523472e-05
7.0504809e-05
7.1168257e-05
7.5593917e-05
9.5291536e-05
0.00016203271
0.00031585961
0.00050861039
6.2267978e-05
6.2250533e-05
6.2239522e-05
6.2499643e-05
6.43995e-05
7.3304021e-05
0.00010610194
0.00019613566
0.0003564982
0.00050003848
5.5571435e-05
5.5570246e-05
5.5667656e-05
5.6450691e-05
6.0389022e-05
7.5971451e-05
0.00012498765
0.00023351983
0.0003887137
0.0004962933
5.0098705e-05
5.0135845e-05
5.0440295e-05
5.2103028e-05
5.9190586e-05
8.3984302e-05
0.00015029921
0.00026896172
0.00041246921
0.00049505664
4.5567682e-05
4.5677869e-05
4.6337524e-05
4.9391683e-05
6.1096013e-05
9.7486733e-05
0.00017920252
0.00029964231
0.00042964032
0.00049493728
4.1782809e-05
4.2019042e-05
4.325218e-05
4.8416249e-05
6.651819e-05
0.00011597932
0.00020865688
0.00032501717
0.00044223013
0.00049528035
3.8609683e-05
3.9051446e-05
4.1174574e-05
4.9422785e-05
7.5808471e-05
0.00013819026
0.00023642028
0.00034572003
0.00045177467
0.00049583503
3.596036e-05
3.6725381e-05
4.0189417e-05
5.2767016e-05
8.9027937e-05
0.00016237204
0.00026138228
0.0003626877
0.0004593149
0.00049652596
3.3785884e-05
3.5046484e-05
4.0478161e-05
5.8837665e-05
0.00010576995
0.00018682821
0.00028330023
0.00037677313
0.00046551911
0.00049733745
3.2074343e-05
3.4079154e-05
4.2315879e-05
6.7933474e-05
0.00012516066
0.00021031409
0.00030238131
0.00038864908
0.00047080761
0.00049826642
3.0853753e-05
3.3954451e-05
4.6047984e-05
8.0117888e-05
0.0001460637
0.00023213629
0.00031898717
0.00039881728
0.00047543897
0.00049930741
3.0199523e-05
3.4878876e-05
5.2034139e-05
9.5115533e-05
0.00016736969
0.00025203088
0.00033348878
0.00040763789
0.00047952203
0.00050044507
3.024596e-05
3.7136015e-05
6.055609e-05
0.00011231914
0.00018821091
0.00026998847
0.0003462146
0.00041534855
0.00048317106
0.00050166204
3.119996e-05
4.1068948e-05
7.1707515e-05
0.00013091721
0.00020802791
0.00028611985
0.00035742609
0.00042213409
0.00048649168
0.00050294669
3.3351675e-05
4.7031259e-05
8.5310764e-05
0.00015007625
0.00022652152
0.00030057582
0.00036733071
0.00042814967
0.00048955794
0.00050428922
3.7070525e-05
5.5301811e-05
0.00010090948
0.00016908785
0.00024356788
0.00031350293
0.0003760885
0.0004335328
0.00049241553
0.00050567914
4.2767537e-05
6.5979234e-05
0.00011785009
0.00018743125
0.00025913399
0.00032501587
0.00038386934
0.00043837703
0.00049509069
0.00050710497
5.0805439e-05
7.8899051e-05
0.00013541208
0.00020475538
0.00027320748
0.00033526182
0.00039079702
0.0004427476
0.00049759756
0.00050855475
6.1362195e-05
9.3622472e-05
0.0001529261
0.00022080482
0.00028583306
0.00034436375
0.00039696108
0.00044668825
0.00049994152
0.00051001617
7.4303225e-05
0.00010951512
0.00016980497
0.00023542204
0.0002970776
0.00035241135
0.0004024227
0.00045022529
0.00050212078
0.00051147649
8.9142997e-05
0.00012582842
0.00018559517
0.00024853527
0.00030699153
0.00035946513
0.00040721941
0.00045337053
0.00050412727
0.00051292214
0.00010508541
0.00014184883
0.00019999889
0.00026010255
0.00031560931
0.00036556174
0.00041136966
0.00045612389
0.00050594755
0.00051433838
0.00012123864
0.00015699678
0.00021282883
0.00027010637
0.00032295517
0.00037072095
0.00041487806
0.00045847659
0.00050756424
0.00051570904
0.00013680004
0.0001708549
0.00022398926
0.00027855538
0.00032905229
0.00037495457
0.00041774198
0.00046041536
0.00050895808
0.00051701671
0.00015116558
0.0001831638
0.00023346063
0.00028548783
0.00033393278
0.00037827617
0.00041995909
0.0004619276
0.00051011102
0.00051824346
0.00016395811
0.00019380039
0.00024128541
0.00029097294
0.00033764568
0.00038070989
0.00042153485
0.00046300692
0.00051100964
0.00051937213
0.00017500097
0.00020274931
0.00024755378
0.00029510875
0.00034026121
0.00038229669
0.00042248837
0.00046365791
0.00051164845
0.00052038783
0.00018426907
0.00021007379
0.0002523898
0.00029801667
0.00034187076
0.00038309677
0.00042285563
0.00046389896
0.00051203193
0.00052127934
0.00019183895
0.00021588949
0.00025593862
0.00029983409
0.00034258315
0.00038318844
0.00042268948
0.0004637627
0.00051217503
0.00052204005
0.00019784763
0.00022034294
0.00025835574
0.00030070657
0.00034251888
0.00038266397
0.0004220568
0.00046329401
0.00051210184
0.00052266828
0.00020246259
0.00022359504
0.00025979836
0.00030078066
0.00034180357
0.00038162407
0.00042103402
0.00046254652
0.00051184324
0.00052316707
0.00020586147
0.00022580924
0.00026041904
0.00030019815
0.00034056188
0.00038017207
0.00041970201
0.0004615785
0.00051143401
0.00052354351
0.00020821941
0.00022714363
0.0002603613
0.00029909194
0.0003389127
0.00037840883
0.0004181413
0.00046044887
0.00051091009
0.00052380784
0.00020970163
0.00022774612
0.00025975697
0.00029758336
0.00033696568
0.00037642875
0.00041642821
0.00045921399
0.00051030634
0.00052397249
0.00021045949
0.00022775174
0.0002587248
0.00029578076
0.00033481903
0.00037431702
0.00041463202
0.0004579251
0.0005096548
0.00052405111
0.00021062885
0.00022728143
0.00025736989
0.00029377894
0.00033255836
0.00037214793
0.00041281304
0.00045662677
0.00050898354
0.0005240577
0.00021032971
0.00022644184
0.00025578384
0.00029165922
0.00033025636
0.00036998411
0.00041102173
0.00045535592
0.00050831598
0.00052400588
0.00020966664
0.00022532568
0.00025404519
0.00028948993
0.00032797302
0.00036787639
0.00040929833
0.00045414155
0.00050767058
0.00052390837
0.00020872966
0.00022401244
0.00025222017
0.00028732722
0.00032575629
0.00036586436
0.00040767331
0.000453005
0.00050706091
0.00052377661
0.00020759533
0.00022256931
0.00025036367
0.00028521605
0.0003236431
0.00036397716
0.00040616783
0.00045195946
0.00050648753
0.00052361974
0.00020632805
0.00022105236
0.00024852033
0.00028319138
0.00032166056
0.00036223476
0.00040479482
0.00045100869
0.00050595636
0.00052344558
0.00020498132
0.00021950766
0.00024672564
0.00028127946
0.00031982735
0.0003606491
0.00040355846
0.00045015536
0.00050547585
0.00052326171
0.00020359904
0.00021797245
0.00024500715
0.00027949898
0.00031815481
0.00035922427
0.00040245902
0.00044940326
0.0005050499
0.00052307456
0.00020221679
0.00021647637
0.00024338552
0.00027786218
0.00031664752
0.00035795914
0.00040149699
0.00044875222
0.00050467932
0.00052288929
0.00020086293
0.00021504243
0.00024187554
0.00027637528
0.00031530443
0.00035685233
0.00040066934
0.00044819908
0.00050436281
0.00052270993
0.00019955961
0.00021368795
0.00024048625
0.00027503942
0.00031412388
0.00035589915
0.00039997009
0.00044773854
0.00050409772
0.0005225395
0.00019832343
0.00021242469
0.00023922239
0.00027385417
0.00031310103
0.00035509218
0.00039939121
0.00044736386
0.00050388042
0.00052238015
0.00019716606
0.00021126046
0.00023808608
0.00027281626
0.00031222863
0.00035442207
0.00039892323
0.00044706741
0.00050370675
0.00052223332
0.0001960956
0.00021019995
0.00023707675
0.0002719201
0.00031149755
0.00035387809
0.00039855585
0.00044684107
0.00050357221
0.00052209981
0.00019511709
0.00020924516
0.00023619155
0.0002711583
0.00031089734
0.0003534487
0.00039827836
0.0004466766
0.00050347224
0.00052197996
0.00019423299
0.00020839576
0.00023542576
0.0002705221
0.00031041668
0.00035312197
0.00039808004
0.00044656592
0.00050340237
0.00052187373
0.00019344358
0.00020764953
0.00023477324
0.00027000181
0.00031004384
0.00035288597
0.00039795044
0.00044650127
0.00050335834
0.00052178078
0.00019274733
0.0002070027
0.00023422673
0.00026958715
0.00030976701
0.00035272906
0.0003978796
0.00044647545
0.00050333619
0.00052170055
0.00019214126
0.0002064503
0.00023377822
0.00026926761
0.00030957454
0.00035264011
0.00039785821
0.00044648178
0.00050333228
0.00052163237
0.00019162122
0.00020598648
0.00023341926
0.00026903268
0.00030945524
0.00035260866
0.00039787772
0.00044651426
0.00050334335
0.00052157542
0.00019118223
0.00020560474
0.00023314116
0.00026887207
0.00030939845
0.00035262503
0.00039793032
0.00044656747
0.00050336647
0.00052152886
0.00019081866
0.00020529817
0.0002329352
0.00026877584
0.00030939421
0.00035268031
0.00039800901
0.00044663662
0.00050339904
0.00052149178
0.00019052444
0.00020505965
0.00023279281
0.00026873457
0.00030943326
0.00035276645
0.00039810752
0.00044671747
0.00050343873
0.00052146324
0.00019029326
0.000204882
0.00023270566
0.00026873937
0.00030950713
0.00035287619
0.00039822031
0.00044680628
0.00050348349
0.00052144229
0.00019011867
0.00020475808
0.00023266576
0.00026878198
0.0003096081
0.00035300306
0.0003983425
0.00044689981
0.0005035315
0.00052142801
0.00018999423
0.00020468092
0.00023266557
0.00026885483
0.00030972928
0.00035314138
0.00039846987
0.00044699527
0.00050358116
0.00052141946
0.00018991362
0.00020464383
0.00023269806
0.00026895102
0.00030986454
0.00035328623
0.00039859886
0.00044709032
0.00050363113
0.00052141579
0.00018987073
0.00020464047
0.00023275674
0.00026906441
0.00031000858
0.00035343346
0.00039872651
0.00044718307
0.00050368031
0.00052141619
0.00018985976
0.00020466494
0.00023283577
0.00026918961
0.00031015687
0.00035357961
0.00039885045
0.00044727204
0.00050372783
0.00052141991
0.0001898753
0.0002047118
0.00023292991
0.00026932196
0.00031030562
0.00035372191
0.00039896883
0.00044735612
0.00050377307
0.00052142629
0.00018991237
0.00020477616
0.00023303458
0.00026945751
0.00031045175
0.00035385819
0.00039908029
0.00044743454
0.00050381556
0.00052143477
0.00018996642
0.00020485362
0.00023314579
0.00026959294
0.00031059278
0.00035398678
0.00039918384
0.0004475067
0.00050385461
0.00052144477
0.00019003338
0.00020494032
0.00023326015
0.00026972554
0.00031072677
0.00035410646
0.00039927877
0.00044757208
0.00050388978
0.00052145577
0.00019010964
0.00020503288
0.00023337478
0.00026985312
0.00031085225
0.00035421635
0.00039936455
0.00044763032
0.00050392116
0.00052146737
0.00019019201
0.00020512838
0.00023348729
0.00026997397
0.00031096814
0.00035431588
0.00039944087
0.0004476815
0.00050394898
0.00052147923
0.00019027775
0.00020522435
0.00023359575
0.00027008677
0.0003110737
0.00035440465
0.00039950774
0.00044772593
0.00050397338
0.00052149108
0.00019036449
0.00020531874
0.00023369864
0.0002701906
0.00031116847
0.00035448265
0.00039956556
0.00044776396
0.00050399451
0.00052150267
0.00019045026
0.00020540987
0.00023379481
0.00027028481
0.00031125229
0.00035455022
0.00039961478
0.000447796
0.00050401255
0.00052151383
0.00019053348
0.00020549645
0.00023388338
0.00027036909
0.00031132542
0.00035460789
0.00039965599
0.0004478225
0.0005040277
0.0005215244
0.00019061287
0.00020557744
0.00023396386
0.00027044348
0.0003113883
0.00035465628
0.00039968982
0.00044784396
0.0005040402
0.0005215343
0.00019068743
0.00020565215
0.00023403601
0.00027050825
0.00031144151
0.00035469611
0.00039971695
0.00044786087
0.0005040503
0.00052154345
0.0001907565
0.00020572017
0.00023409987
0.00027056381
0.00031148573
0.00035472815
0.00039973807
0.00044787376
0.00050405825
0.00052155181
0.00019081963
0.00020578129
0.00023415563
0.00027061071
0.00031152171
0.00035475318
0.00039975386
0.0004478831
0.00050406431
0.00052155936
0.0001908766
0.00020583552
0.0002342036
0.00027064957
0.00031155021
0.00035477196
0.00039976498
0.00044788935
0.00050406868
0.00052156608
0.00019092735
0.00020588297
0.00023424421
0.00027068103
0.00031157199
0.00035478524
0.00039977202
0.00044789293
0.00050407158
0.000521572
0.00019097195
0.00020592389
0.00023427795
0.00027070577
0.00031158782
0.00035479372
0.00039977557
0.00044789423
0.00050407319
0.00052157712
0.00019101057
0.00020595861
0.00023430536
0.0002707245
0.00031159843
0.00035479808
0.00039977616
0.00044789362
0.0005040737
0.00052158147
0.00019104348
0.00020598751
0.00023432699
0.00027073791
0.00031160454
0.00035479897
0.00039977433
0.00044789146
0.00050407328
0.00052158511
0.00019107103
0.00020601105
0.00023434345
0.00027074667
0.00031160684
0.00035479701
0.00039977054
0.00044788807
0.00050407213
0.00052158809
0.0001910936
0.00020602969
0.00023435532
0.00027075145
0.00031160597
0.00035479276
0.00039976525
0.00044788375
0.0005040704
0.00052159046
0.00019111163
0.00020604393
0.0002343632
0.00027075289
0.00031160255
0.00035478674
0.00039975884
0.00044787879
0.00050406824
0.00052159229
0.00019112556
0.00020605429
0.00023436765
0.00027075156
0.00031159711
0.0003547794
0.00039975167
0.0004478734
0.00050406579
0.00052159365
0.00019113584
0.00020606124
0.0002343692
0.00027074799
0.00031159013
0.00035477113
0.00039974401
0.00044786777
0.00050406315
0.00052159459
0.00019114291
0.00020606526
0.00023436834
0.00027074267
0.00031158204
0.00035476228
0.00039973612
0.00044786207
0.00050406041
0.00052159517
0.00019114721
0.00020606678
0.00023436552
0.00027073601
0.0003115732
0.00035475312
0.00039972819
0.00044785642
0.00050405764
0.00052159544
0.00019114913
0.00020606623
0.00023436114
0.00027072839
0.00031156392
0.0003547439
0.00039972039
0.00044785092
0.00050405489
0.00052159544
0.00019114906
0.00020606397
0.00023435557
0.00027072012
0.00031155446
0.0003547348
0.00039971285
0.00044784565
0.00050405222
0.00052159522
0.00019114734
0.00020606034
0.00023434912
0.00027071149
0.00031154504
0.00035472599
0.00039970567
0.00044784067
0.00050404965
0.00052159483
0.00019114429
0.00020605566
0.00023434207
0.00027070273
0.00031153583
0.00035471758
0.00039969892
0.00044783602
0.00050404722
0.00052159429
0.00019114021
0.00020605021
0.00023433469
0.00027069405
0.000311527
0.00035470965
0.00039969263
0.00044783169
0.00050404489
0.00052159365
)
;

boundaryField
{
    water_inlet
    {
        type            turbulentIntensityKineticEnergyInlet;
        intensity       0.05;
        value           uniform 0.000234375;
    }
    water_outlet
    {
        type            inletOutlet;
        inletValue      uniform 0.0001;
        value           nonuniform List<scalar> 10(0.00019114021 0.00020605021 0.00023433469 0.00027069405 0.000311527 0.00035470965 0.00039969263 0.00044783169 0.00050404489 0.00052159365);
    }
    water_wedge1
    {
        type            wedge;
    }
    water_wedge2
    {
        type            wedge;
    }
    water_to_rock
    {
        type            kqRWallFunction;
        value           nonuniform List<scalar> 
100
(
0.00048657967
0.00057072179
0.00057180213
0.0005481231
0.00052456958
0.00050861039
0.00050003848
0.0004962933
0.00049505664
0.00049493728
0.00049528035
0.00049583503
0.00049652596
0.00049733745
0.00049826642
0.00049930741
0.00050044507
0.00050166204
0.00050294669
0.00050428922
0.00050567914
0.00050710497
0.00050855475
0.00051001617
0.00051147649
0.00051292214
0.00051433838
0.00051570904
0.00051701671
0.00051824346
0.00051937213
0.00052038783
0.00052127934
0.00052204005
0.00052266828
0.00052316707
0.00052354351
0.00052380784
0.00052397249
0.00052405111
0.0005240577
0.00052400588
0.00052390837
0.00052377661
0.00052361974
0.00052344558
0.00052326171
0.00052307456
0.00052288929
0.00052270993
0.0005225395
0.00052238015
0.00052223332
0.00052209981
0.00052197996
0.00052187373
0.00052178078
0.00052170055
0.00052163237
0.00052157542
0.00052152886
0.00052149178
0.00052146324
0.00052144229
0.00052142801
0.00052141946
0.00052141579
0.00052141619
0.00052141991
0.00052142629
0.00052143477
0.00052144477
0.00052145577
0.00052146737
0.00052147923
0.00052149108
0.00052150267
0.00052151383
0.0005215244
0.0005215343
0.00052154345
0.00052155181
0.00052155936
0.00052156608
0.000521572
0.00052157712
0.00052158147
0.00052158511
0.00052158809
0.00052159046
0.00052159229
0.00052159365
0.00052159459
0.00052159517
0.00052159544
0.00052159544
0.00052159522
0.00052159483
0.00052159429
0.00052159365
)
;
    }
}


// ************************************************************************* //
