/*--------------------------------*- C++ -*----------------------------------*\
| =========                 |                                                 |
| \\      /  F ield         | OpenFOAM: The Open Source CFD Toolbox           |
|  \\    /   O peration     | Version:  2506                                  |
|   \\  /    A nd           | Website:  www.openfoam.com                      |
|    \\/     M anipulation  |                                                 |
\*---------------------------------------------------------------------------*/
FoamFile
{
    version     2.0;
    format      ascii;
    arch        "LSB;label=32;scalar=64";
    class       volScalarField;
    location    "19000/water";
    object      nut;
}
// * * * * * * * * * * * * * * * * * * * * * * * * * * * * * * * * * * * * * //

dimensions      [0 2 -1 0 0 0 0];

internalField   nonuniform List<scalar> 
1000
(
3.8760013e-05
3.8759344e-05
3.875781e-05
3.8749425e-05
3.8703919e-05
3.8465194e-05
3.7257946e-05
3.1920746e-05
1.9133704e-05
1.6330702e-05
3.6503362e-05
3.6502673e-05
3.6496233e-05
3.646333e-05
3.6309099e-05
3.5625575e-05
3.2857819e-05
2.4520501e-05
1.4670667e-05
1.7686427e-05
3.4818769e-05
3.4815355e-05
3.4798028e-05
3.4720761e-05
3.4400236e-05
3.3155725e-05
2.8966473e-05
2.0114749e-05
1.431317e-05
1.7703159e-05
3.3515366e-05
3.3507685e-05
3.3473492e-05
3.3336596e-05
3.2819807e-05
3.0995897e-05
2.5816367e-05
1.8304941e-05
1.5980751e-05
1.7332728e-05
3.247679e-05
3.2463573e-05
3.2409014e-05
3.2208501e-05
3.1494118e-05
2.9122778e-05
2.3598533e-05
1.8669334e-05
1.8895471e-05
1.6956233e-05
3.1628598e-05
3.1609534e-05
3.1536361e-05
3.128247e-05
3.0382803e-05
2.7534808e-05
2.2595726e-05
2.0841159e-05
2.2319035e-05
1.6696307e-05
3.0922115e-05
3.0899107e-05
3.0816965e-05
3.0532902e-05
2.9455111e-05
2.6339681e-05
2.310357e-05
2.4287722e-05
2.5587482e-05
1.6555015e-05
3.0325437e-05
3.0303993e-05
3.0232572e-05
2.9948391e-05
2.8695989e-05
2.5834039e-05
2.518393e-05
2.8331558e-05
2.8356032e-05
1.6492902e-05
2.9818406e-05
2.9809195e-05
2.9779269e-05
2.9521782e-05
2.8157835e-05
2.6404776e-05
2.8559803e-05
3.2392757e-05
3.0574184e-05
1.647234e-05
2.9389965e-05
2.9410469e-05
2.9462808e-05
2.9249417e-05
2.8031579e-05
2.8288354e-05
3.2740176e-05
3.6145655e-05
3.2325724e-05
1.6470354e-05
2.9037018e-05
2.9113044e-05
2.929409e-05
2.9152146e-05
2.863521e-05
3.1431781e-05
3.7231805e-05
3.9484741e-05
3.3719898e-05
1.6476061e-05
2.8764321e-05
2.8930781e-05
2.9285906e-05
2.9323303e-05
3.0270023e-05
3.5542776e-05
4.1683888e-05
4.2418018e-05
3.4850535e-05
1.6485285e-05
2.858509e-05
2.8885081e-05
2.9456457e-05
2.9967064e-05
3.306251e-05
4.0234044e-05
4.5910817e-05
4.4991556e-05
3.5787808e-05
1.6496767e-05
2.8522066e-05
2.9003163e-05
2.9849403e-05
3.1360346e-05
3.691876e-05
4.5156846e-05
4.9841257e-05
4.7257294e-05
3.6581169e-05
1.6510242e-05
2.8608609e-05
2.9316799e-05
3.0571063e-05
3.3736569e-05
4.1586926e-05
5.0067215e-05
5.3461907e-05
4.926259e-05
3.7264809e-05
1.6525654e-05
2.8889264e-05
2.9866057e-05
3.1814654e-05
3.7180928e-05
4.6760504e-05
5.4824742e-05
5.6783936e-05
5.1047326e-05
3.7861836e-05
1.6542908e-05
2.9419572e-05
3.0715811e-05
3.3825246e-05
4.1605931e-05
5.2164956e-05
5.9359747e-05
5.9827276e-05
5.264256e-05
3.8382021e-05
1.6561745e-05
3.0266758e-05
3.1985597e-05
3.6807844e-05
4.6798708e-05
5.7598953e-05
6.3641832e-05
6.2613425e-05
5.4068871e-05
3.8841663e-05
1.658187e-05
3.1517125e-05
3.3868913e-05
4.0842413e-05
5.2497602e-05
6.2933679e-05
6.7660575e-05
6.516112e-05
5.5349565e-05
3.9251438e-05
1.6603088e-05
3.329714e-05
3.6603354e-05
4.5857719e-05
5.8458764e-05
6.8092342e-05
7.1415481e-05
6.7488973e-05
5.6504118e-05
3.9619148e-05
1.6625232e-05
3.5799587e-05
4.0389116e-05
5.1663806e-05
6.4490732e-05
7.3028887e-05
7.490738e-05
6.9617484e-05
5.7547354e-05
3.995077e-05
1.6648127e-05
3.9276887e-05
4.530652e-05
5.8013698e-05
7.0457069e-05
7.7711213e-05
7.8146222e-05
7.1563551e-05
5.849118e-05
4.0250639e-05
1.6671581e-05
4.3967625e-05
5.128253e-05
6.4661646e-05
7.6260653e-05
8.2121103e-05
8.1142936e-05
7.3340798e-05
5.9344891e-05
4.0521861e-05
1.6695396e-05
4.9982604e-05
5.8114041e-05
7.1396069e-05
8.1829901e-05
8.6249606e-05
8.3905929e-05
7.4959779e-05
6.0115406e-05
4.0766553e-05
1.6719368e-05
5.7223716e-05
6.5522422e-05
7.804619e-05
8.7114218e-05
9.0089892e-05
8.6440628e-05
7.6427846e-05
6.0807453e-05
4.0985976e-05
1.6743287e-05
6.5386246e-05
7.3208765e-05
8.448497e-05
9.207587e-05
9.3633519e-05
8.8749054e-05
7.7749235e-05
6.1423773e-05
4.1180653e-05
1.6766932e-05
7.4040515e-05
8.0900315e-05
9.0617548e-05
9.6681594e-05
9.6870205e-05
9.0830013e-05
7.8925381e-05
6.1965393e-05
4.1350492e-05
1.6790063e-05
8.2742323e-05
8.8366926e-05
9.6367509e-05
0.00010090249
9.9788822e-05
9.2679994e-05
7.9955576e-05
6.2432018e-05
4.1494944e-05
1.6812419e-05
9.1118515e-05
9.5426549e-05
0.00010167383
0.00010471519
0.00010237929
9.4294694e-05
8.0837974e-05
6.2822591e-05
4.1613214e-05
1.6833721e-05
9.8904882e-05
0.00010194593
0.00010649089
0.00010810365
0.00010463488
9.5670945e-05
8.1570901e-05
6.3136017e-05
4.1704538e-05
1.6853683e-05
0.00010594486
0.00010783854
0.00011078945
0.00011106078
0.00010655432
9.6808644e-05
8.2154269e-05
6.3371995e-05
4.1768517e-05
1.687203e-05
0.00011216838
0.00011305978
0.00011455706
0.00011358932
0.00010814319
9.7712249e-05
8.2590794e-05
6.3531787e-05
4.1805442e-05
1.6888522e-05
0.00011756654
0.00011760008
0.00011779736
0.00011570178
0.00010941431
9.8391499e-05
8.2886712e-05
6.361871e-05
4.1816509e-05
1.690298e-05
0.00012216967
0.00012147673
0.00012052808
0.00011741937
0.00011038717
9.886127e-05
8.3051869e-05
6.3638253e-05
4.1803864e-05
1.6915304e-05
0.00012603115
0.00012472605
0.00012277816
0.00011877025
0.00011108661
9.9140696e-05
8.3099206e-05
6.3597787e-05
4.1770453e-05
1.6925473e-05
0.00012921635
0.00012739641
0.00012458453
0.00011978745
0.00011154109
9.9251888e-05
8.3043886e-05
6.3506031e-05
4.171977e-05
1.6933543e-05
0.00013179534
0.00012954277
0.00012598908
0.00012050681
0.00011178105
9.9218569e-05
8.2902299e-05
6.3372426e-05
4.1655559e-05
1.6939635e-05
0.00013383842
0.00013122255
0.00012703604
0.00012096529
0.00011183747
9.9064864e-05
8.2691147e-05
6.3206554e-05
4.1581556e-05
1.6943916e-05
0.00013541345
0.00013249288
0.00012776999
0.00012119956
0.0001117407
9.8814355e-05
8.2426718e-05
6.3017685e-05
4.1501309e-05
1.6946585e-05
0.0001365843
0.00013340877
0.00012823442
0.00012124502
0.00011151971
9.848936e-05
8.2124321e-05
6.2814426e-05
4.1418038e-05
1.6947861e-05
0.00013741014
0.00013402198
0.0001284707
0.00012113507
0.00011120146
9.8110424e-05
8.1797872e-05
6.2604474e-05
4.1334558e-05
1.6947969e-05
0.00013794502
0.00013438042
0.00012851742
0.0001209006
0.00011081048
9.7695935e-05
8.1459607e-05
6.2394433e-05
4.1253208e-05
1.6947128e-05
0.00013823776
0.00013452767
0.00012840989
0.00012056959
0.00011036859
9.7261886e-05
8.111989e-05
6.2189718e-05
4.1175827e-05
1.6945546e-05
0.00013833195
0.00013450289
0.00012817987
0.0001201669
0.00010989474
9.6821775e-05
8.0787161e-05
6.1994527e-05
4.1103738e-05
1.6943411e-05
0.00013826605
0.00013434076
0.00012785547
0.00011971421
0.00010940499
9.6386602e-05
8.0467901e-05
6.1811648e-05
4.1036726e-05
1.6940871e-05
0.00013807366
0.00013407163
0.00012746122
0.00011923009
0.00010891262
9.596497e-05
8.0166649e-05
6.1642092e-05
4.0975885e-05
1.6938054e-05
0.00013778384
0.00013372178
0.00012701821
0.00011873015
0.00010842832
9.556321e-05
7.9885841e-05
6.1487859e-05
4.0921638e-05
1.6935081e-05
0.00013742153
0.00013331374
0.00012654438
0.00011822729
0.00010796031
9.5185358e-05
7.9628506e-05
6.1349673e-05
4.0874108e-05
1.6932056e-05
0.00013700799
0.00013286666
0.00012605476
0.00011773184
0.00010751444
9.4835646e-05
7.939605e-05
6.1227731e-05
4.0833199e-05
1.692906e-05
0.00013656113
0.00013239659
0.00012556157
0.0001172517
0.00010709643
9.4516496e-05
7.9189036e-05
6.1121813e-05
4.0798653e-05
1.6926157e-05
0.00013609581
0.00013191665
0.0001250749
0.00011679429
0.00010671004
9.4229195e-05
7.9007357e-05
6.1031366e-05
4.0770095e-05
1.6923396e-05
0.00013562439
0.00013143808
0.0001246036
0.00011636497
0.00010635766
9.3974101e-05
7.8850352e-05
6.0955566e-05
4.0747069e-05
1.6920814e-05
0.00013515737
0.00013097031
0.00012415453
0.00011596755
0.00010604053
9.3750795e-05
7.871691e-05
6.0893386e-05
4.0729064e-05
1.6918433e-05
0.0001347033
0.00013052082
0.00012373282
0.00011560447
0.0001057589
9.3558218e-05
7.8605578e-05
6.0843662e-05
4.0715536e-05
1.6916269e-05
0.00013426896
0.00013009538
0.00012334212
0.00011527699
0.00010551218
9.3394814e-05
7.8514655e-05
6.0805149e-05
4.0705938e-05
1.6914327e-05
0.0001338595
0.0001296982
0.00012298475
0.00011498538
0.00010529915
9.3258665e-05
7.8442296e-05
6.0776575e-05
4.0699728e-05
1.6912606e-05
0.00013347863
0.00012933217
0.00012266193
0.00011472911
0.00010511806
9.3147616e-05
7.838659e-05
6.0756687e-05
4.0696396e-05
1.6911102e-05
0.00013312879
0.000128999
0.00012237396
0.00011450703
0.00010496686
9.3059378e-05
7.8345626e-05
6.0744281e-05
4.0695464e-05
1.6909803e-05
0.0001328114
0.00012869947
0.00012212039
0.00011431751
0.00010484324
9.2991621e-05
7.8317551e-05
6.0738232e-05
4.06965e-05
1.69087e-05
0.00013252698
0.00012843357
0.0001219002
0.00011415856
0.00010474476
9.2942036e-05
7.83006e-05
6.0737501e-05
4.0699121e-05
1.6907777e-05
0.00013227537
0.00012820067
0.0001217119
0.00011402799
0.00010466895
9.2908384e-05
7.8293123e-05
6.0741145e-05
4.0702987e-05
1.6907022e-05
0.00013205582
0.00012799963
0.00012155368
0.00011392343
0.00010461335
9.2888522e-05
7.8293589e-05
6.0748316e-05
4.0707804e-05
1.690642e-05
0.00013186713
0.00012782892
0.00012142347
0.00011384244
0.00010457552
9.2880418e-05
7.8300584e-05
6.0758249e-05
4.0713311e-05
1.6905956e-05
0.00013170771
0.00012768668
0.00012131899
0.00011378251
0.00010455309
9.2882157e-05
7.8312811e-05
6.0770256e-05
4.0719281e-05
1.6905616e-05
0.00013157569
0.00012757082
0.00012123786
0.00011374114
0.00010454379
9.2891949e-05
7.8329085e-05
6.0783723e-05
4.072551e-05
1.6905384e-05
0.00013146894
0.00012747907
0.00012117759
0.00011371589
0.00010454545
9.2908138e-05
7.8348336e-05
6.0798102e-05
4.0731821e-05
1.6905246e-05
0.00013138518
0.00012740902
0.0001211357
0.00011370436
0.00010455606
9.2929223e-05
7.8369614e-05
6.0812923e-05
4.0738061e-05
1.6905188e-05
0.00013132203
0.00012735824
0.00012110976
0.00011370432
0.00010457377
9.2953868e-05
7.8392101e-05
6.0827787e-05
4.0744109e-05
1.6905195e-05
0.00013127711
0.00012732433
0.00012109743
0.0001137137
0.00010459692
9.2980917e-05
7.8415108e-05
6.0842375e-05
4.0749869e-05
1.6905256e-05
0.00013124809
0.00012730496
0.00012109653
0.00011373061
0.00010462407
9.3009387e-05
7.8438077e-05
6.0856444e-05
4.0755278e-05
1.690536e-05
0.00013123274
0.00012729797
0.00012110505
0.00011375338
0.00010465397
9.3038463e-05
7.8460563e-05
6.0869812e-05
4.0760296e-05
1.6905497e-05
0.00013122897
0.00012730131
0.00012112118
0.00011378054
0.00010468554
9.306747e-05
7.8482214e-05
6.0882338e-05
4.0764855e-05
1.6905658e-05
0.00013123486
0.00012731312
0.00012114326
0.00011381077
0.00010471786
9.3095845e-05
7.8502738e-05
6.0893882e-05
4.0768939e-05
1.6905835e-05
0.0001312486
0.00012733171
0.00012116982
0.00011384293
0.00010475016
9.3123116e-05
7.8521882e-05
6.0904376e-05
4.077257e-05
1.6906023e-05
0.00013126855
0.00012735549
0.00012119952
0.00011387601
0.00010478176
9.3148878e-05
7.8539477e-05
6.0913811e-05
4.0775761e-05
1.6906215e-05
0.00013129322
0.00012738308
0.00012123119
0.00011390916
0.00010481208
9.3172831e-05
7.855545e-05
6.0922177e-05
4.0778529e-05
1.6906407e-05
0.00013132126
0.00012741321
0.0001212638
0.00011394161
0.00010484068
9.3194813e-05
7.8569752e-05
6.092949e-05
4.0780892e-05
1.6906596e-05
0.00013135146
0.00012744477
0.00012129644
0.00011397278
0.00010486728
9.3214714e-05
7.858238e-05
6.0935785e-05
4.0782872e-05
1.6906777e-05
0.00013138277
0.0001274768
0.00012132841
0.00011400226
0.0001048917
9.3232495e-05
7.8593375e-05
6.0941115e-05
4.0784498e-05
1.6906948e-05
0.00013141432
0.00012750856
0.00012135919
0.00011402976
0.00010491382
9.3248179e-05
7.8602813e-05
6.0945552e-05
4.0785802e-05
1.6907108e-05
0.00013144544
0.00012753946
0.00012138837
0.00011405509
0.00010493362
9.3261838e-05
7.8610793e-05
6.0949174e-05
4.078682e-05
1.6907256e-05
0.00013147558
0.00012756904
0.00012141568
0.00011407814
0.00010495114
9.3273574e-05
7.8617429e-05
6.0952064e-05
4.0787589e-05
1.690739e-05
0.00013150436
0.00012759697
0.00012144091
0.00011409888
0.00010496645
9.3283508e-05
7.8622839e-05
6.0954304e-05
4.0788143e-05
1.6907512e-05
0.00013153145
0.00012762301
0.00012146395
0.00011411731
0.00010497964
9.3291767e-05
7.8627138e-05
6.0955968e-05
4.0788511e-05
1.690762e-05
0.00013155663
0.00012764699
0.00012148473
0.00011413347
0.00010499083
9.3298484e-05
7.8630435e-05
6.0957122e-05
4.0788717e-05
1.6907716e-05
0.00013157973
0.00012766878
0.00012150323
0.00011414743
0.00010500013
9.3303791e-05
7.8632837e-05
6.0957832e-05
4.0788784e-05
1.6907799e-05
0.00013160066
0.00012768832
0.00012151946
0.0001141593
0.00010500769
9.3307825e-05
7.863445e-05
6.0958157e-05
4.0788733e-05
1.690787e-05
0.00013161937
0.00012770562
0.00012153351
0.0001141692
0.00010501366
9.3310728e-05
7.863538e-05
6.0958158e-05
4.0788584e-05
1.690793e-05
0.00013163584
0.0001277207
0.00012154545
0.00011417727
0.0001050182
9.3312644e-05
7.863573e-05
6.0957893e-05
4.0788358e-05
1.6907978e-05
0.00013165015
0.00012773366
0.00012155543
0.00011418368
0.00010502148
9.3313718e-05
7.8635604e-05
6.0957419e-05
4.0788075e-05
1.6908017e-05
0.00013166237
0.0001277446
0.0001215636
0.00011418862
0.00010502367
9.3314086e-05
7.8635095e-05
6.0956787e-05
4.0787753e-05
1.6908047e-05
0.00013167264
0.00012775366
0.00012157012
0.00011419223
0.00010502493
9.3313875e-05
7.8634288e-05
6.0956043e-05
4.0787408e-05
1.6908069e-05
0.00013168108
0.000127761
0.00012157515
0.00011419471
0.0001050254
9.3313196e-05
7.8633256e-05
6.0955223e-05
4.0787051e-05
1.6908085e-05
0.00013168786
0.00012776678
0.00012157887
0.00011419619
0.00010502522
9.3312148e-05
7.8632061e-05
6.0954358e-05
4.0786693e-05
1.6908094e-05
0.00013169313
0.00012777115
0.00012158142
0.00011419684
0.0001050245
9.3310819e-05
7.8630755e-05
6.0953474e-05
4.078634e-05
1.6908099e-05
0.00013169703
0.00012777427
0.00012158296
0.00011419677
0.00010502336
9.3309282e-05
7.8629383e-05
6.0952589e-05
4.0785998e-05
1.69081e-05
0.00013169972
0.00012777629
0.00012158364
0.00011419611
0.00010502188
9.3307603e-05
7.8627983e-05
6.0951722e-05
4.0785671e-05
1.6908097e-05
0.00013170134
0.00012777734
0.00012158357
0.00011419497
0.00010502016
9.3305838e-05
7.8626586e-05
6.0950886e-05
4.0785364e-05
1.6908091e-05
0.00013170203
0.00012777756
0.00012158288
0.00011419346
0.00010501826
9.3304034e-05
7.8625217e-05
6.0950089e-05
4.0785077e-05
1.6908083e-05
0.00013170191
0.00012777707
0.00012158167
0.00011419165
0.00010501624
9.3302225e-05
7.8623892e-05
6.0949337e-05
4.0784808e-05
1.6908073e-05
)
;

boundaryField
{
    water_inlet
    {
        type            calculated;
        value           uniform 4.1926275e-05;
    }
    water_outlet
    {
        type            calculated;
        value           nonuniform List<scalar> 10(0.00013170191 0.00012777707 0.00012158167 0.00011419165 0.00010501624 9.3302225e-05 7.8623892e-05 6.0949337e-05 4.0784808e-05 1.6908073e-05);
    }
    water_wedge1
    {
        type            wedge;
    }
    water_wedge2
    {
        type            wedge;
    }
    water_to_rock
    {
        type            nutkWallFunction;
        blending        stepwise;
        value           nonuniform List<scalar> 
100
(
1.7358471e-06
1.9240026e-06
1.9263124e-06
1.8751054e-06
1.822911e-06
1.7867867e-06
1.7671182e-06
1.7584648e-06
1.7555993e-06
1.7553226e-06
1.756118e-06
1.7574034e-06
1.7590035e-06
1.7608811e-06
1.7630284e-06
1.7654319e-06
1.7680554e-06
1.7708581e-06
1.7738124e-06
1.7768953e-06
1.7800821e-06
1.7833461e-06
1.7866596e-06
1.7899943e-06
1.793321e-06
1.7966091e-06
1.7998251e-06
1.8029329e-06
1.8058935e-06
1.808667e-06
1.8112155e-06
1.8135063e-06
1.8155149e-06
1.8172272e-06
1.8186403e-06
1.8197615e-06
1.8206073e-06
1.821201e-06
1.8215707e-06
1.8217472e-06
1.821762e-06
1.8216457e-06
1.8214268e-06
1.8211309e-06
1.8207785e-06
1.8203873e-06
1.8199742e-06
1.8195536e-06
1.8191372e-06
1.8187339e-06
1.8183507e-06
1.8179923e-06
1.817662e-06
1.8173617e-06
1.817092e-06
1.8168529e-06
1.8166437e-06
1.8164632e-06
1.8163097e-06
1.8161815e-06
1.8160767e-06
1.8159932e-06
1.8159289e-06
1.8158818e-06
1.8158496e-06
1.8158304e-06
1.8158221e-06
1.815823e-06
1.8158314e-06
1.8158458e-06
1.8158648e-06
1.8158874e-06
1.8159121e-06
1.8159383e-06
1.815965e-06
1.8159916e-06
1.8160177e-06
1.8160428e-06
1.8160667e-06
1.8160889e-06
1.8161095e-06
1.8161283e-06
1.8161453e-06
1.8161605e-06
1.8161738e-06
1.8161853e-06
1.8161951e-06
1.8162033e-06
1.81621e-06
1.8162154e-06
1.8162195e-06
1.8162225e-06
1.8162247e-06
1.816226e-06
1.8162266e-06
1.8162266e-06
1.8162261e-06
1.8162252e-06
1.816224e-06
1.8162225e-06
)
;
    }
}


// ************************************************************************* //
