/*--------------------------------*- C++ -*----------------------------------*\
| =========                 |                                                 |
| \\      /  F ield         | OpenFOAM: The Open Source CFD Toolbox           |
|  \\    /   O peration     | Version:  2506                                  |
|   \\  /    A nd           | Website:  www.openfoam.com                      |
|    \\/     M anipulation  |                                                 |
\*---------------------------------------------------------------------------*/
FoamFile
{
    version     2.0;
    format      ascii;
    arch        "LSB;label=32;scalar=64";
    class       surfaceScalarField;
    location    "19000/water";
    object      phi;
}
// * * * * * * * * * * * * * * * * * * * * * * * * * * * * * * * * * * * * * //

dimensions      [1 0 -1 0 0 0 0];

oriented        oriented;

internalField   nonuniform List<scalar> 
1890
(
-4.1736246e-05
0.0022168351
-0.00015753622
0.0059586937
-0.00032930669
0.0087985477
-0.00054203243
0.010900937
-0.00078239503
0.012402155
-0.0010351826
0.013412336
-0.0012746193
0.014013996
-0.0014359745
0.014245356
-0.001284859
0.0140006
0.012745539
-3.1455822e-05
0.0022482909
-0.00011269722
0.0060399351
-0.00023219387
0.0089180443
-0.00037999424
0.011048737
-0.00054594259
0.012568103
-0.00071649908
0.013582893
-0.00086674521
0.014164242
-0.00093361965
0.01431223
-0.00073394519
0.013800926
0.012011594
-2.9138824e-05
0.0022774298
-0.00010672995
0.0061175262
-0.00022105541
0.0090323698
-0.00036160329
0.011189285
-0.00051700146
0.012723501
-0.00067116241
0.013737054
-0.00079396201
0.014287042
-0.00081139824
0.014329667
-0.0005672998
0.013556827
0.011444294
-2.7339931e-05
0.0023047697
-0.00010102595
0.0061912122
-0.00020924233
0.0091405861
-0.0003409789
0.011321022
-0.00048374656
0.012866269
-0.0006191147
0.013872422
-0.00071088166
0.014378809
-0.00067659943
0.014295384
-0.00042026165
0.01330049
0.011024032
-2.5625223e-05
0.0023303949
-9.4386108e-05
0.0062599731
-0.00019506682
0.0092412668
-0.00031669845
0.011442653
-0.00044589466
0.012995465
-0.00056132329
0.013987851
-0.00061882657
0.014436312
-0.00053651196
0.01421307
-0.00029565478
0.013059632
0.010728378
-2.4159485e-05
0.0023545544
-8.8799467e-05
0.0063246131
-0.00018306041
0.0093355278
-0.00029574158
0.011555334
-0.00041210864
0.013111832
-0.00050662277
0.014082365
-0.00052703603
0.014456725
-0.00040878417
0.014094818
-0.00020043264
0.012851281
0.010527945
-2.2965483e-05
0.0023775199
-8.4333475e-05
0.0063859811
-0.00017335344
0.0094245477
-0.00027826869
0.01166025
-0.00038232707
0.013215891
-0.00045437902
0.014154417
-0.00043820568
0.014440552
-0.0003032168
0.013959829
-0.00013378865
0.012681853
0.010394156
-2.2023848e-05
0.0023995437
-8.0769811e-05
0.006444727
-0.00016540583
0.0095091837
-0.00026327217
0.011758116
-0.00035472723
0.013307346
-0.0004024442
0.014202134
-0.00035545975
0.014393568
-0.00022237018
0.013826739
-8.9856039e-05
0.012549339
0.0103043
-2.126057e-05
0.0024208043
-7.7812619e-05
0.0065012791
-0.00015855239
0.0095899235
-0.00024948548
0.011849049
-0.00032712273
0.013384983
-0.0003495465
0.014224557
-0.00028212976
0.014326151
-0.0001630028
0.013707612
-6.1426386e-05
0.012447762
0.010242874
-2.0607156e-05
0.0024414115
-7.5216677e-05
0.0065558886
-0.00015223242
0.0096669392
-0.00023577783
0.011932595
-0.00029784649
0.013447051
-0.00029644797
0.014223159
-0.00022023896
0.014249942
-0.00011980493
0.013607178
-4.2689108e-05
0.012370646
0.010200185
-2.0018287e-05
0.0024614297
-7.2804711e-05
0.006608675
-0.00014600136
0.0097401359
-0.00022120579
0.012007799
-0.00026613519
0.013491981
-0.00024531963
0.014202343
-0.00016974797
0.01417437
-8.7951294e-05
0.013525382
-2.9805758e-05
0.012312501
0.010170379
-1.9463542e-05
0.0024808933
-7.0441421e-05
0.0066596529
-0.00013947752
0.0098091719
-0.00020502199
0.012073343
-0.00023228111
0.01351924
-0.00019838523
0.014168447
-0.00012919785
0.014105183
-6.3918898e-05
0.013460103
-2.0486154e-05
0.012269068
0.010149893
-1.8918751e-05
0.002499812
-6.8008126e-05
0.0067087422
-0.00013229876
0.0098734625
-0.00018675583
0.012127801
-0.00019748204
0.013529966
-0.00015698076
0.014127946
-9.6701113e-05
0.014044903
-4.5355606e-05
0.013408757
-1.3427097e-05
0.012237139
0.010136466
-1.8360394e-05
0.0025181724
-6.5381821e-05
0.0067557636
-0.00012410699
0.0099321877
-0.00016633469
0.012170028
-0.00016333327
0.013526965
-0.00012140726
0.01408602
-7.0530795e-05
0.013994027
-3.0720234e-05
0.013368947
-7.8897432e-06
0.012214309
0.010128576
-1.7761432e-05
0.0025359338
-6.2419673e-05
0.0068004219
-0.00011457698
0.009984345
-0.00014416268
0.012199614
-0.00013124015
0.013514042
-9.127337e-05
0.014046053
-4.9296175e-05
0.013952049
-1.8986131e-05
0.013338636
-3.4324521e-06
0.012198755
0.010125144
-1.708792e-05
0.0025530218
-5.895252e-05
0.0068422865
-0.00010349036
0.010028883
-0.00012105264
0.012217176
-0.00010208321
0.013495073
-6.589908e-05
0.014009869
-3.1931927e-05
0.013918082
-9.4506244e-06
0.013316155
2.8706927e-07
0.012189018
0.010125431
-1.6296465e-05
0.0025693182
-5.479323e-05
0.0068807833
-9.0832185e-05
0.010064922
-9.7998606e-05
0.012224343
-7.6209734e-05
0.013473284
-4.4571778e-05
0.013978231
-1.7626927e-05
0.013891137
-1.5570192e-06
0.013300085
3.3719102e-06
0.012184089
0.010128803
-1.5331758e-05
0.00258465
-4.9761936e-05
0.0069152134
-7.6852535e-05
0.010092012
-7.5898426e-05
0.012223389
-5.3588867e-05
0.013450974
-2.6634634e-05
0.013951277
-5.7256193e-06
0.013870228
4.9977159e-06
0.013289362
5.8493952e-06
0.012183237
0.010134652
-1.4126739e-05
0.0025987767
-4.3732713e-05
0.0069448194
-6.2044264e-05
0.010110324
-5.5379688e-05
0.012216724
-3.3986237e-05
0.013429581
-1.1512321e-05
0.013928803
4.2371096e-06
0.013854479
1.0367826e-05
0.013283231
7.8668176e-06
0.012185738
0.010142519
-1.2609153e-05
0.0026113859
-3.6694798e-05
0.0069689051
-4.7031543e-05
0.010120661
-3.6775661e-05
0.012206468
-1.708107e-05
0.013409886
1.327693e-06
0.013910394
1.2526452e-05
0.01384328
1.4773488e-05
0.013280984
9.515503e-06
0.012190996
0.010152034
-1.0718633e-05
0.0026221045
-2.8800937e-05
0.0069869874
-3.2420438e-05
0.01012428
-2.0181851e-05
0.01219423
-2.4817082e-06
0.013392186
1.2170914e-05
0.013895742
1.93757e-05
0.013836075
1.838877e-05
0.013281971
1.0860991e-05
0.012198524
0.010162895
-8.4362682e-06
0.0026305408
-2.0369309e-05
0.0069989204
-1.8684709e-05
0.010122596
-5.5179627e-06
0.012181063
1.003085e-05
0.013376637
2.1196612e-05
0.013884576
2.5023086e-05
0.013832249
2.134434e-05
0.01328565
1.1950786e-05
0.012207917
0.010174846
-5.8188961e-06
0.0026363597
-1.1825273e-05
0.0070049268
-6.1103266e-06
0.010116881
7.2771283e-06
0.012167675
2.0570953e-05
0.013363344
2.8684677e-05
0.013876462
2.9654236e-05
0.01383128
2.3737884e-05
0.013291566
1.2819017e-05
0.012218836
0.010187665
-3.0141891e-06
0.0026393739
-3.5959086e-06
0.0070055086
5.10287e-06
0.010108182
1.8191032e-05
0.012154587
2.9354522e-05
0.01335218
3.4839897e-05
0.013870977
3.3406669e-05
0.013832713
2.5640613e-05
0.013299332
1.3489925e-05
0.012230987
0.010201155
-2.3413906e-07
0.002639608
3.9069395e-06
0.0070013675
1.4740014e-05
0.010097349
2.7284784e-05
0.012142042
3.6559209e-05
0.013342906
3.9811551e-05
0.013867725
3.6376645e-05
0.013836148
2.7100251e-05
0.013308609
1.3978651e-05
0.012244109
0.010215134
2.2769813e-06
0.0026373311
1.0308559e-05
0.0069933359
2.2681393e-05
0.010084976
3.4655403e-05
0.012130068
4.2308152e-05
0.013335253
4.3696388e-05
0.013866336
3.8621352e-05
0.013841223
2.8141176e-05
0.013319089
1.4290496e-05
0.012257959
0.010229424
4.3217518e-06
0.0026330093
1.5395141e-05
0.0069822625
2.8920611e-05
0.010071451
4.0373469e-05
0.012118616
4.6677746e-05
0.013328949
4.6546221e-05
0.013866468
4.0163997e-05
0.013847605
2.8766899e-05
0.013330486
1.4421818e-05
0.012272304
0.010243846
5.8172817e-06
0.002627192
1.9123877e-05
0.0069689559
3.3493475e-05
0.010057081
4.4500124e-05
0.012107609
4.9716332e-05
0.013323733
4.8383749e-05
0.0138678
4.100522e-05
0.013854983
2.8967048e-05
0.013342524
1.436307e-05
0.012286908
0.010258209
6.7756526e-06
0.0026204164
2.1562385e-05
0.0069541692
3.6487097e-05
0.010042156
4.7108575e-05
0.012096987
5.146749e-05
0.013319374
4.9222887e-05
0.013870045
4.1138588e-05
0.013863068
2.872756e-05
0.013354935
1.4103783e-05
0.012301532
0.010272313
7.2691153e-06
0.0026131473
2.2857136e-05
0.0069385812
3.8041384e-05
0.010026972
4.8301269e-05
0.012086728
5.199146e-05
0.013315683
4.9088901e-05
0.013872948
4.0566923e-05
0.01387159
2.8041968e-05
0.01336746
1.3638191e-05
0.012315936
0.010285951
7.3943452e-06
0.0026057529
2.3198296e-05
0.0069227773
3.8340326e-05
0.01001183
4.8217699e-05
0.01207685
5.1379608e-05
0.013312522
4.803397e-05
0.013876293
3.9315869e-05
0.013880308
2.6921189e-05
0.013379855
1.2970214e-05
0.012329887
0.010298921
7.2474261e-06
0.0025985055
2.2788312e-05
0.0069072364
3.7595408e-05
0.0099970229
4.7031317e-05
0.012067414
4.975871e-05
0.013309794
4.6144291e-05
0.013879908
3.7440988e-05
0.013889011
2.539886e-05
0.013391897
1.2116109e-05
0.01234317
0.010311037
6.9113458e-06
0.0025915942
2.1819147e-05
0.0068923286
3.6026505e-05
0.0099828156
4.4938339e-05
0.012058502
4.7285788e-05
0.013307447
4.353831e-05
0.013883655
3.502745e-05
0.013897522
2.3531354e-05
0.013403393
1.1104514e-05
0.012355597
0.010322142
6.4522586e-06
0.0025851419
2.0459123e-05
0.0068783217
3.3844914e-05
0.0099694298
4.2142895e-05
0.012050204
4.4136514e-05
0.013305453
4.0357832e-05
0.013887434
3.2183155e-05
0.013905697
2.1392578e-05
0.013414184
9.9731719e-06
0.012367016
0.010332115
5.9204349e-06
0.0025792214
1.8847842e-05
0.0068653943
3.124158e-05
0.009957036
3.884319e-05
0.012042603
4.0492013e-05
0.013303804
3.6756368e-05
0.013891169
2.9029017e-05
0.013913424
1.9066763e-05
0.013424146
8.7651486e-06
0.012377318
0.01034088
5.3528744e-06
0.0025738686
1.7096281e-05
0.0068536508
2.8380567e-05
0.0099457517
3.5220778e-05
0.012035763
3.6526695e-05
0.013302498
3.2887232e-05
0.013894809
2.5688497e-05
0.013920623
1.664041e-05
0.013433194
7.5242089e-06
0.012386434
0.010348404
4.776205e-06
0.0025690924
1.5289806e-05
0.0068431372
2.5397193e-05
0.0099356443
3.1434179e-05
0.012029726
3.2399437e-05
0.013301533
2.8894133e-05
0.013898314
2.2279e-05
0.013927238
1.4195771e-05
0.013441277
6.291391e-06
0.012394338
0.010354696
4.2092088e-06
0.0025648832
1.349222e-05
0.0068338542
2.2399151e-05
0.0099267374
2.76161e-05
0.012024509
2.8248144e-05
0.013300901
2.4904584e-05
0.013901658
1.8905575e-05
0.013933237
1.1806068e-05
0.013448377
5.102663e-06
0.012401042
0.010359798
3.6647934e-06
0.0025612184
1.1749802e-05
0.0068257692
1.9469177e-05
0.009919018
2.3873208e-05
0.012020105
2.4187039e-05
0.013300587
2.1025856e-05
0.013904819
1.5656743e-05
0.013938606
9.5322579e-06
0.013454501
3.987187e-06
0.012406587
0.010363786
3.1515156e-06
0.0025580669
1.009494e-05
0.0068188258
1.6668445e-05
0.0099124445
2.0287622e-05
0.012016485
2.0306204e-05
0.013300569
1.7343266e-05
0.013907782
1.2602433e-05
0.013943347
7.4214656e-06
0.013459682
2.9667458e-06
0.012411041
0.010366752
2.6746924e-06
0.0025553922
8.549102e-06
0.0068129514
1.4039915e-05
0.0099069537
1.6919214e-05
0.012013606
1.6672478e-05
0.013300815
1.3920019e-05
0.013910534
9.7933992e-06
0.013947473
5.5065106e-06
0.013463969
2.0555686e-06
0.012414492
0.010368808
2.2372321e-06
0.0025531549
7.1252815e-06
0.0068080633
1.1611531e-05
0.0099024675
1.3808446e-05
0.012011409
1.3331459e-05
0.013301292
1.0798496e-05
0.013913067
7.2620851e-06
0.01395101
3.8065519e-06
0.013467425
1.2607075e-06
0.012417038
0.010370069
1.8402987e-06
0.0025513146
5.8300576e-06
0.0068040736
9.3993026e-06
0.0098988982
1.0979663e-05
0.012009829
1.0310582e-05
0.013301961
8.0030385e-06
0.013915375
5.0251627e-06
0.013953988
2.3293095e-06
0.013470121
5.835961e-07
0.012418784
0.010370652
1.4837823e-06
0.0025498308
4.6651797e-06
0.0068008922
7.4098687e-06
0.0098961535
8.4440917e-06
0.012008795
7.6221321e-06
0.013302783
5.5427656e-06
0.013917454
3.0861013e-06
0.013956444
1.0740411e-06
0.013472133
3.1603288e-08
0.012419826
0.010370684
1.1666335e-06
0.0025486642
3.6286878e-06
0.0067984301
5.6423698e-06
0.0098941398
6.202095e-06
0.012008235
5.2655763e-06
0.01330372
3.4140916e-06
0.013919306
1.438921e-06
0.01395842
4.119357e-08
0.01347353
-4.106655e-07
0.012420278
0.010370273
8.8717947e-07
0.002547777
2.7160797e-06
0.0067966012
4.0906731e-06
0.0098927652
4.246371e-06
0.012008079
3.2317936e-06
0.013304734
1.6065099e-06
0.013920931
7.7456681e-08
0.013959949
-7.9338716e-07
0.013474401
-7.6870542e-07
0.012420253
0.010369504
6.4338283e-07
0.0025471336
1.9213359e-06
0.0067953233
2.7454525e-06
0.0098919411
2.5652204e-06
0.012008259
1.5077286e-06
0.013305792
1.0946742e-07
0.013922329
-1.0268108e-06
0.013961085
-1.4627886e-06
0.013474837
-1.0473562e-06
0.012419838
0.010368457
4.3300314e-07
0.0025467006
1.2375273e-06
0.0067945188
1.5955042e-06
0.0098915832
1.1448603e-06
0.01200871
8.0065904e-08
0.013306857
-1.1070775e-06
0.013923516
-1.9106555e-06
0.013961888
-1.9802609e-06
0.013474907
-1.2527873e-06
0.01241911
0.010367204
2.5372735e-07
0.0025464469
6.574427e-07
0.006794115
6.2955539e-07
0.009891611
-2.8691482e-08
0.012009368
-1.0804983e-06
0.013307909
-2.0804026e-06
0.013924516
-2.5938669e-06
0.013962402
-2.3604847e-06
0.013474673
-1.3928531e-06
0.012418143
0.010365811
1.0332316e-07
0.0025463436
1.741455e-07
0.0067940442
-1.6569627e-07
0.0098919509
-9.8174177e-07
0.012010184
-2.0087802e-06
0.013308936
-2.8337646e-06
0.013925341
-3.0970177e-06
0.013962665
-2.6193995e-06
0.013474196
-1.4761014e-06
0.012417
0.010364335
-2.0669369e-08
0.0025463643
-2.215291e-07
0.0067942451
-8.1003002e-07
0.0098925394
-1.7430369e-06
0.012011117
-2.7277162e-06
0.01330992
-3.3904683e-06
0.013926004
-3.4416148e-06
0.013962716
-2.7733845e-06
0.013473527
-1.511155e-06
0.012415737
0.010362824
-1.2126394e-07
0.0025464855
-5.403697e-07
0.0067946642
-1.3221148e-06
0.0098933211
-2.3315751e-06
0.012012127
-3.2600771e-06
0.013310849
-3.7744442e-06
0.013926518
-3.6493958e-06
0.013962591
-2.8387136e-06
0.013472717
-1.5064514e-06
0.012414405
0.010361318
-2.0125348e-07
0.0025466868
-7.9112211e-07
0.006795254
-1.7156503e-06
0.0098942456
-2.7666751e-06
0.012013178
-3.6287827e-06
0.013311711
-4.0093741e-06
0.013926899
-3.7414883e-06
0.013962323
-2.8308949e-06
0.013471806
-1.4698759e-06
0.012413044
0.010359848
-2.6290834e-07
0.0025469497
-9.8125397e-07
0.0067959724
-2.0042544e-06
0.0098952686
-3.0673617e-06
0.012014241
-3.856157e-06
0.0133125
-4.1179617e-06
0.013927161
-3.7377856e-06
0.013961943
-2.7642303e-06
0.013470833
-1.408524e-06
0.012411688
0.010358439
-3.0838443e-07
0.0025472581
-1.1180198e-06
0.006796782
-2.2011683e-06
0.0098963518
-3.2519854e-06
0.012015292
-3.9634864e-06
0.013313211
-4.121518e-06
0.013927319
-3.6566122e-06
0.013961478
-2.6516455e-06
0.013469828
-1.3287471e-06
0.012410365
0.010357111
-3.3971076e-07
0.0025475978
-1.2083286e-06
0.0067976506
-2.3189806e-06
0.0098974624
-3.3378476e-06
0.012016311
-3.970566e-06
0.013313844
-4.0395081e-06
0.013927388
-3.514363e-06
0.013960953
-2.5044229e-06
0.013468818
-1.2358683e-06
0.012409097
0.010355875
-3.5880433e-07
0.0025479566
-1.2587013e-06
0.0067985505
-2.3695197e-06
0.0098985732
-3.3410454e-06
0.012017282
-3.8955642e-06
0.013314398
-3.889504e-06
0.013927382
-3.3255475e-06
0.013960389
-2.3323484e-06
0.013467824
-1.1344995e-06
0.012407899
0.01035474
-3.6744559e-07
0.002548324
-1.2751989e-06
0.0067994583
-2.3637137e-06
0.0098996617
-3.2762934e-06
0.012018195
-3.7548333e-06
0.013314877
-3.6870122e-06
0.013927314
-3.1026886e-06
0.013959805
-2.1436507e-06
0.013466865
-1.0283291e-06
0.012406784
0.010353712
-3.6729091e-07
0.0025486913
-1.2634243e-06
0.0068003544
-2.3115863e-06
0.0099007099
-3.1569267e-06
0.01201904
-3.562973e-06
0.013315283
-3.4456287e-06
0.013927196
-2.8565301e-06
0.013959216
-1.9452299e-06
0.013465954
-9.2043651e-07
0.012405759
0.010352791
-3.5985953e-07
0.0025490512
-1.2285008e-06
0.006801223
-2.2222264e-06
0.0099017036
-2.9948949e-06
0.012019813
-3.3328522e-06
0.013315621
-3.1771129e-06
0.013927041
-2.5961627e-06
0.013958635
-1.7427504e-06
0.013465101
-8.1319528e-07
0.012404829
0.010351978
-3.465499e-07
0.0025493977
-1.175106e-06
0.0068020516
-2.103856e-06
0.0099026324
-2.8008737e-06
0.01202051
-3.0758083e-06
0.013315896
-2.8916438e-06
0.013926856
-2.329305e-06
0.013958072
-1.5409457e-06
0.013464312
-7.0861239e-07
0.012403997
0.01035127
-3.2862872e-07
0.0025497263
-1.1074639e-06
0.0068028304
-1.9638363e-06
0.0099034887
-2.5843068e-06
0.01202113
-2.8017113e-06
0.013316113
-2.5979307e-06
0.013926653
-2.0624249e-06
0.013957537
-1.3436638e-06
0.013463594
-6.0820012e-07
0.012403261
0.010350661
-3.0725021e-07
0.0025500336
-1.0293864e-06
0.0068035525
-1.8087449e-06
0.0099042681
-2.3535287e-06
0.012021675
-2.5191598e-06
0.013316279
-2.3034472e-06
0.013926437
-1.8009897e-06
0.013957034
-1.1541382e-06
0.013462947
-5.1330799e-07
0.01240262
0.010350148
-2.8343347e-07
0.002550317
-9.4424274e-07
0.0068042134
-1.644341e-06
0.0099049682
-2.1157411e-06
0.012022146
-2.2354419e-06
0.013316398
-2.0143958e-06
0.013926216
-1.5494254e-06
0.013956569
-9.7488096e-07
0.013462372
-4.248333e-07
0.01240207
0.010349723
-2.5808897e-07
0.0025505751
-8.5500265e-07
0.0068048103
-1.4756437e-06
0.0099055888
-1.8771188e-06
0.012022548
-1.9567142e-06
0.013316478
-1.7359106e-06
0.013925995
-1.3113113e-06
0.013956145
-8.0790354e-07
0.013461869
-3.4360459e-07
0.012401606
0.01034938
-2.3198984e-07
0.0025508071
-7.6419519e-07
0.0068053425
-1.3068662e-06
0.0099061315
-1.6427446e-06
0.012022884
-1.6878787e-06
0.013316523
-1.4719177e-06
0.013925779
-1.0892303e-06
0.013955762
-6.5451207e-07
0.013461434
-2.6999598e-07
0.012401222
0.01034911
-2.0580013e-07
0.0025510129
-6.7395057e-07
0.0068058106
-1.1414935e-06
0.009906599
-1.4167069e-06
0.012023159
-1.4327553e-06
0.013316539
-1.2253191e-06
0.013925572
-8.8494805e-07
0.013955422
-5.1549792e-07
0.013461065
-2.0425659e-07
0.01240091
0.010348905
-1.8005553e-07
0.002551193
-5.8598399e-07
0.0068062166
-9.8226473e-07
0.0099069953
-1.2020996e-06
0.012023379
-1.1940512e-06
0.013316531
-9.9796671e-07
0.013925376
-6.993563e-07
0.013955123
-3.9103707e-07
0.013460756
-1.4621967e-07
0.012400666
0.010348759
-1.5519448e-07
0.0025513482
-5.016581e-07
0.006806563
-8.3128794e-07
0.009907325
-1.0011912e-06
0.012023549
-9.7359891e-07
0.013316504
-7.9092102e-07
0.013925193
-5.3274796e-07
0.013954865
-2.8093194e-07
0.013460504
-9.5653062e-08
0.01240048
0.010348664
-1.3155255e-07
0.0025514797
-4.2200289e-07
0.0068068535
-6.9008992e-07
0.0099075931
-8.1550228e-07
0.012023674
-7.7244737e-07
0.013316461
-6.0454117e-07
0.013925025
-3.8487858e-07
0.013954645
-1.8464013e-07
0.013460304
-5.2096457e-08
0.012400348
0.010348611
-1.0938837e-07
0.0025515891
-3.4777793e-07
0.0068070919
-5.5973552e-07
0.009907805
-6.4598302e-07
0.01202376
-5.9108514e-07
0.013316406
-4.3874009e-07
0.013924873
-2.5520267e-07
0.013954462
-1.014315e-07
0.01346015
-1.4629507e-08
0.012400261
0.010348597
-8.8886706e-08
0.002551678
-2.7951378e-07
0.0068072825
-4.4091499e-07
0.0099079664
-4.9315383e-07
0.012023813
-4.2960805e-07
0.013316342
-2.9312893e-07
0.013924736
-1.4295843e-07
0.013954312
-3.0149559e-08
0.013460038
1.7205551e-08
0.012400214
0.010348614
-7.0178846e-08
0.0025517482
-2.1756304e-07
0.0068074299
-3.34034e-07
0.0099080829
-3.5720562e-07
0.012023836
-2.8781485e-07
0.013316273
-1.670764e-07
0.013924616
-4.704153e-08
0.013954192
2.9835973e-08
0.013459961
4.2893312e-08
0.012400201
0.010348657
-5.3335159e-08
0.0025518015
-1.6209513e-07
0.0068075387
-2.3919886e-07
0.00990816
-2.3796868e-07
0.012023835
-1.6511033e-07
0.0133162
-5.9470784e-08
0.01392451
3.3496355e-08
0.013954099
7.8450679e-08
0.013459916
6.2729623e-08
0.012400216
0.01034872
-3.8381455e-08
0.0025518399
-1.1312644e-07
0.0068076134
-1.5625817e-07
0.0099082031
-1.3493014e-07
0.012023813
-6.0465873e-08
0.013316125
3.0798871e-08
0.013924419
9.8913027e-08
0.013954031
1.1627655e-07
0.013459898
7.7460094e-08
0.012400255
0.010348797
-2.5289416e-08
0.0025518652
-7.0513225e-08
0.0068076586
-8.4776505e-08
0.0099082174
-4.7154205e-08
0.012023776
2.7288234e-08
0.013316051
1.0430375e-07
0.013924342
1.5007309e-07
0.013953985
1.445742e-07
0.013459904
8.7808338e-08
0.012400312
0.010348885
-1.3995443e-08
0.0025518792
-3.3972736e-08
0.0068076786
-2.4035299e-08
0.0099082075
2.6333879e-08
0.012023725
9.8815838e-08
0.013315979
1.6201705e-07
0.013924278
1.8856663e-07
0.013953958
1.6454028e-07
0.013459928
9.4352675e-08
0.012400382
0.010348979
-4.3861358e-09
0.0025518836
-3.0755031e-09
0.0068076773
2.6626359e-08
0.0099081778
8.618341e-08
0.012023666
1.5515993e-07
0.01331591
2.0574173e-07
0.013924228
2.1603229e-07
0.013953948
1.7738553e-07
0.013459967
9.7722526e-08
0.012400462
0.010349077
3.6386183e-09
0.0025518799
2.2475455e-08
0.0068076585
6.7687273e-08
0.0099081326
1.3334286e-07
0.0120236
1.980252e-07
0.013315845
2.3724399e-07
0.013924189
2.3403627e-07
0.013953951
1.842494e-07
0.013460016
9.8473659e-08
0.012400548
0.010349175
1.0164392e-08
0.0025518698
4.2968459e-08
0.0068076257
9.9919418e-08
0.0099080756
1.6922713e-07
0.012023531
2.2908271e-07
0.013315785
2.5821784e-07
0.01392416
2.4405409e-07
0.013953965
1.8617064e-07
0.013460074
9.7127883e-08
0.012400637
0.010349273
1.5310103e-08
0.0025518545
5.8890107e-08
0.0068075821
1.2429304e-07
0.0099080102
1.9519084e-07
0.01202346
2.4989513e-07
0.01331573
2.7021388e-07
0.013924139
2.4739613e-07
0.013953988
1.8406972e-07
0.013460138
9.4129363e-08
0.012400727
0.010349367
1.921557e-08
0.0025518352
7.0738173e-08
0.0068075306
1.4173748e-07
0.0099079392
2.1250621e-07
0.012023389
2.6190315e-07
0.013315681
2.746169e-07
0.013924127
2.4520087e-07
0.013954018
1.787156e-07
0.013460204
8.9833053e-08
0.012400816
0.010349457
2.2019808e-08
0.0025518132
7.8995453e-08
0.0068074736
1.5312833e-07
0.0099078651
2.2235224e-07
0.01202332
2.6640752e-07
0.013315637
2.7265339e-07
0.01392412
2.3845392e-07
0.013954052
1.7074505e-07
0.013460272
8.4536149e-08
0.012400902
0.010349541
2.3858065e-08
0.0025517894
8.4122381e-08
0.0068074133
1.5929311e-07
0.0099077899
2.2582633e-07
0.012023253
2.6460321e-07
0.013315598
2.6543192e-07
0.013924119
2.280298e-07
0.013954089
1.6071899e-07
0.013460339
7.8467865e-08
0.012400984
0.01034962
2.4862516e-08
0.0025517645
8.6560729e-08
0.0068073516
1.6101157e-07
0.0099077155
2.2395071e-07
0.01202319
2.5759492e-07
0.013315564
2.5396666e-07
0.013924123
2.1471947e-07
0.013954129
1.4914053e-07
0.013460405
7.1855809e-08
0.012401061
0.010349691
2.51599e-08
0.0025517393
8.6733231e-08
0.0068072901
1.5902723e-07
0.0099076432
2.1769614e-07
0.012023132
2.4642214e-07
0.013315536
2.3921183e-07
0.01392413
1.9926838e-07
0.013954168
1.3648261e-07
0.013460468
6.4897822e-08
0.012401133
0.010349756
2.4872451e-08
0.0025517145
8.5044035e-08
0.0068072299
1.5404575e-07
0.0099075742
2.0797841e-07
0.012023078
2.3206621e-07
0.013315512
2.220678e-07
0.01392414
1.8238864e-07
0.013954208
1.2320751e-07
0.013460527
5.7808618e-08
0.012401198
0.010349814
2.4113008e-08
0.0025516904
8.1868276e-08
0.0068071721
1.4672053e-07
0.0099075093
1.9564021e-07
0.012023029
2.1542466e-07
0.013315492
2.0335195e-07
0.013924152
1.6472013e-07
0.013954247
1.0973403e-07
0.013460582
5.077341e-08
0.012401257
0.010349865
2.2985918e-08
0.0025516674
7.7551473e-08
0.0068071176
1.3764883e-07
0.0099074492
1.814448e-07
0.012022985
1.9729839e-07
0.013315476
1.8378699e-07
0.013924166
1.4682516e-07
0.013954284
9.641645e-08
0.013460632
4.3956658e-08
0.01240131
0.010349909
2.1583575e-08
0.0025516458
7.239871e-08
0.0068070668
1.2735451e-07
0.0099073943
1.6605281e-07
0.012022946
1.7837108e-07
0.013315464
1.6397361e-07
0.01392418
1.2915292e-07
0.013954319
8.3541831e-08
0.013460678
3.7483761e-08
0.012401356
0.010349946
1.998665e-08
0.0025516258
6.6675534e-08
0.0068070201
1.1628382e-07
0.0099073447
1.500158e-07
0.012022913
1.5919762e-07
0.013315455
1.4438675e-07
0.013924195
1.1204844e-07
0.013954351
7.1309242e-08
0.013460719
3.1431937e-08
0.012401396
0.010349978
1.8263511e-08
0.0025516075
6.0604407e-08
0.0068069777
1.0480965e-07
0.0099073005
1.3378243e-07
0.012022884
1.4021649e-07
0.013315448
1.2538387e-07
0.01392421
9.5754513e-08
0.013954381
5.9848094e-08
0.013460754
2.5847953e-08
0.01240143
0.010350004
1.6471442e-08
0.0025515911
5.4371065e-08
0.0068069398
9.3234546e-08
0.0099072616
1.1771279e-07
0.012022859
1.2176637e-07
0.013315444
1.072264e-07
0.013924224
8.0433337e-08
0.013954407
4.9230686e-08
0.013460786
2.0742608e-08
0.012401458
0.010350024
1.465905e-08
0.0025515764
4.8129549e-08
0.0068069064
8.1805806e-08
0.0099072279
1.0209076e-07
0.012022839
1.0410862e-07
0.013315442
9.0110639e-08
0.013924238
6.6197877e-08
0.013954431
3.9497834e-08
0.013460812
1.6130319e-08
0.012401482
0.010350041
1.2865443e-08
0.0025515635
4.2002365e-08
0.0068068772
7.071904e-08
0.0099071992
8.7137388e-08
0.012022823
8.7436946e-08
0.013315442
7.4170173e-08
0.013924252
5.3117392e-08
0.013954452
3.0668817e-08
0.013460835
1.198772e-08
0.0124015
0.010350053
1.1125189e-08
0.0025515524
3.6094425e-08
0.0068068523
6.013675e-08
0.0099071752
7.3031639e-08
0.01202281
7.1909841e-08
0.013315443
5.9515753e-08
0.013924264
4.1248852e-08
0.013954471
2.2767729e-08
0.013460853
8.3439644e-09
0.012401515
0.010350061
9.4615879e-09
0.002551543
3.0481831e-08
0.0068068312
5.0173789e-08
0.0099071555
5.9896062e-08
0.0120228
5.7617869e-08
0.013315445
4.6190057e-08
0.013924276
3.0588684e-08
0.013954486
1.5756145e-08
0.013460868
5.1356706e-09
0.012401525
0.010350066
7.8954578e-09
0.0025515351
2.5224039e-08
0.0068068139
4.0921885e-08
0.0099071398
4.7824022e-08
0.012022793
4.4639337e-08
0.013315448
3.4237321e-08
0.013924286
2.1149117e-08
0.013954499
9.6271966e-09
0.01346088
2.3846521e-09
0.012401532
0.010350068
6.4470822e-09
0.0025515286
2.0375138e-08
0.0068068
3.2483581e-08
0.0099071277
3.6989077e-08
0.012022789
3.3209477e-08
0.013315452
2.3946589e-08
0.013924295
1.3228559e-08
0.01395451
4.6307327e-09
0.013460888
2.103807e-10
0.012401537
0.010350069
2.9034345e-09
9.1576557e-09
1.4471637e-08
1.6258334e-08
1.4279919e-08
9.9514876e-09
5.1017789e-09
1.4102875e-09
-2.9106427e-10
)
;

boundaryField
{
    water_inlet
    {
        type            calculated;
        value           nonuniform List<scalar> 10(-0.0021750989 -0.0058428937 -0.0086267772 -0.010688211 -0.012161792 -0.013159549 -0.01377456 -0.014084001 -0.014151716 -0.014030398);
    }
    water_outlet
    {
        type            calculated;
        value           nonuniform List<scalar> 10(0.0025515257 0.0068067937 0.0099071223 0.012022787 0.013315454 0.0139243 0.013954515 0.013460892 0.012401539 0.010350068);
    }
    water_wedge1
    {
        type            wedge;
        value           nonuniform List<scalar> 
1000
(
-1.1296389e-13
-1.4268062e-13
-1.1216186e-13
-1.0631464e-13
-9.9356199e-14
-9.3388329e-14
-8.8691403e-14
-8.4954928e-14
-8.197527e-14
-7.9487327e-14
-7.7282244e-14
-7.5239564e-14
-7.3263513e-14
-7.1276559e-14
-6.9184108e-14
-6.6857306e-14
-6.4134918e-14
-6.0815313e-14
-5.6668519e-14
-5.1409606e-14
-4.4793587e-14
-3.6660424e-14
-2.7079014e-14
-1.655688e-14
-5.8616581e-15
4.0652486e-15
1.2371707e-14
1.8667782e-14
2.2899454e-14
2.529788e-14
2.6218399e-14
2.6005063e-14
2.5023668e-14
2.3517848e-14
2.1694448e-14
1.9701022e-14
1.7623963e-14
1.5591647e-14
1.3613553e-14
1.1730821e-14
9.9925404e-15
8.391955e-15
6.9315732e-15
5.6128651e-15
4.4426184e-15
3.4022555e-15
2.4959546e-15
1.7152131e-15
1.0443786e-15
4.8157801e-16
1.5020979e-17
-3.7320694e-16
-6.7530242e-16
-9.1014534e-16
-1.0870792e-15
-1.209406e-15
-1.2841375e-15
-1.3204386e-15
-1.3329697e-15
-1.3139e-15
-1.2707355e-15
-1.2041418e-15
-1.1280132e-15
-1.0506333e-15
-9.5952838e-16
-8.6181917e-16
-7.6563446e-16
-6.709391e-16
-5.820709e-16
-5.0040396e-16
-4.1529999e-16
-3.3892882e-16
-2.7223447e-16
-2.1067895e-16
-1.5200233e-16
-1.0250027e-16
-6.7019902e-17
-2.8905694e-17
5.1857013e-18
2.6789157e-17
4.7972991e-17
6.2204624e-17
6.8691507e-17
8.1363916e-17
8.5237469e-17
8.5529267e-17
8.4890047e-17
8.5523651e-17
8.5555981e-17
7.8282533e-17
6.7063961e-17
6.0029873e-17
5.9490193e-17
4.8509015e-17
4.0775902e-17
3.9531418e-17
3.4492876e-17
2.5039966e-17
1.5058594e-17
5.6312721e-18
-6.8081307e-13
-1.0335451e-12
-8.3928919e-13
-7.9752764e-13
-7.4939969e-13
-7.0313917e-13
-6.6536415e-13
-6.3522696e-13
-6.109356e-13
-5.905282e-13
-5.7244932e-13
-5.5560648e-13
-5.3912492e-13
-5.2219908e-13
-5.0397477e-13
-4.8343175e-13
-4.5934418e-13
-4.3018799e-13
-3.9436713e-13
-3.5055487e-13
-2.9813814e-13
-2.3765217e-13
-1.7103047e-13
-1.0155298e-13
-3.3369356e-14
2.8949022e-14
8.1486981e-14
1.2214574e-13
1.5063464e-13
1.6797135e-13
1.7588995e-13
1.7634973e-13
1.7126362e-13
1.6227546e-13
1.5073922e-13
1.3770074e-13
1.2393338e-13
1.1004152e-13
9.6440307e-14
8.3436408e-14
7.1217462e-14
5.9901278e-14
4.9555752e-14
4.0193704e-14
3.1828775e-14
2.4426584e-14
1.7937783e-14
1.2316346e-14
7.5089981e-15
3.4628539e-15
1.1396461e-16
-2.6184147e-15
-4.8052792e-15
-6.5029974e-15
-7.7691025e-15
-8.6567495e-15
-9.2140467e-15
-9.4925832e-15
-9.535191e-15
-9.3810979e-15
-9.0711913e-15
-8.6247425e-15
-8.0820038e-15
-7.4816597e-15
-6.8314569e-15
-6.1565337e-15
-5.4773199e-15
-4.8107102e-15
-4.1612859e-15
-3.5404603e-15
-2.9594975e-15
-2.4189491e-15
-1.9251458e-15
-1.4767337e-15
-1.0788649e-15
-7.3178788e-16
-4.2722245e-16
-1.6762626e-16
4.8289287e-17
2.1931223e-16
3.5766929e-16
4.7159776e-16
5.4971132e-16
5.9851787e-16
6.3057444e-16
6.4287201e-16
6.3699824e-16
6.2203423e-16
5.9738926e-16
5.6271255e-16
5.1932252e-16
4.7371551e-16
4.2874387e-16
3.8375689e-16
3.3442469e-16
2.908702e-16
2.5307767e-16
2.1016046e-16
1.6678709e-16
9.2021302e-17
3.1339124e-12
4.8023023e-12
3.9072344e-12
3.7113875e-12
3.4900558e-12
3.2689353e-12
3.0860203e-12
2.9387818e-12
2.8176161e-12
2.7124761e-12
2.6152694e-12
2.519718e-12
2.4205087e-12
2.3123562e-12
2.189493e-12
2.0461136e-12
1.8774941e-12
1.6811008e-12
1.4574251e-12
1.2105495e-12
9.4809106e-13
6.8016704e-13
4.1759792e-13
1.701974e-13
-5.3298495e-14
-2.4553598e-13
-4.02164e-13
-5.2204262e-13
-6.063672e-13
-6.5806408e-13
-6.8128572e-13
-6.8086081e-13
-6.6175684e-13
-6.2867481e-13
-5.8579325e-13
-5.366495e-13
-4.8413063e-13
-4.3050143e-13
-3.7748927e-13
-3.2635799e-13