/*--------------------------------*- C++ -*----------------------------------*\
| =========                 |                                                 |
| \\      /  F ield         | OpenFOAM: The Open Source CFD Toolbox           |
|  \\    /   O peration     | Version:  2506                                  |
|   \\  /    A nd           | Website:  www.openfoam.com                      |
|    \\/     M anipulation  |                                                 |
\*---------------------------------------------------------------------------*/
FoamFile
{
    version     2.0;
    format      ascii;
    arch        "LSB;label=32;scalar=64";
    class       volVectorField;
    location    "19000/water";
    object      U;
}
// * * * * * * * * * * * * * * * * * * * * * * * * * * * * * * * * * * * * * //

dimensions      [0 1 -1 0 0 0 0];

internalField   nonuniform List<vector> 
1000
(
(0.25225587 -0.00012859767 3.4057846e-18)
(0.25226258 -0.00027067836 9.7156966e-19)
(0.25227485 -0.0004145054 1.5634469e-18)
(0.25228819 -0.00055572716 9.4123429e-21)
(0.25229018 -0.00068575789 2.7132919e-19)
(0.25223998 -0.00079863172 6.1887888e-20)
(0.25200713 -0.00089615194 -1.8264582e-19)
(0.25115686 -0.0010460356 -3.0747337e-19)
(0.24780473 -0.0012820719 -1.1805378e-19)
(0.23308261 0.0010121611 -5.7893977e-19)
(0.25653043 -7.7330448e-05 3.1531608e-18)
(0.25653977 -0.0001890383 1.3075378e-18)
(0.25655871 -0.00029096536 1.9921554e-18)
(0.25657276 -0.00039024486 4.5223496e-19)
(0.25654377 -0.00048175038 3.2555504e-19)
(0.25636039 -0.00055898442 1.5091082e-19)
(0.25570613 -0.00060536497 -1.9500851e-19)
(0.25355952 -0.00065441364 -4.6655135e-19)
(0.24574266 -0.00084724774 -2.8112025e-19)
(0.21968686 0.00025718804 -5.9836118e-19)
(0.26021787 -7.3909978e-05 -9.4433315e-19)
(0.26022468 -0.00018059832 -1.5080126e-19)
(0.26023383 -0.00027741908 8.6540874e-19)
(0.26021807 -0.00037159738 8.3167607e-19)
(0.26010153 -0.00045735767 7.410025e-21)
(0.25968006 -0.00053044589 9.8706689e-20)
(0.25840621 -0.00057093082 -7.9905062e-20)
(0.25452353 -0.00056554728 -3.3986988e-19)
(0.24186464 -0.00061987656 -4.2704929e-19)
(0.20839343 1.1252636e-05 -4.6552425e-19)
(0.26340526 -6.8945973e-05 -6.8284269e-20)
(0.26340956 -0.00017058506 1.848525e-19)
(0.26340597 -0.00026279224 7.1401715e-19)
(0.2633478 -0.0003513836 6.1394487e-19)
(0.26310913 -0.00042951128 -2.6222721e-20)
(0.26237282 -0.00049394974 -2.8403455e-19)
(0.26030372 -0.00052750944 -2.5896773e-19)
(0.25430846 -0.00049289834 -3.7341338e-19)
(0.23723183 -0.00045934149 -4.7961562e-19)
(0.19958844 -4.8875742e-05 -4.8825956e-19)
(0.26641628 -6.4388932e-05 -1.0662568e-18)
(0.26641555 -0.00015946868 1.3378025e-18)
(0.266392 -0.00024539851 6.3519294e-19)
(0.26627267 -0.00032748758 4.377982e-19)
(0.26586989 -0.00039791741 1.6064205e-19)
(0.26472852 -0.00045250617 4.2745322e-20)
(0.26164541 -0.0004736084 -2.1275221e-19)
(0.25321247 -0.00041483743 -4.3602294e-19)
(0.23271016 -0.00033459205 -4.4964517e-19)
(0.19329516 -5.0632557e-05 -4.3626721e-19)
(0.26927574 -6.0867491e-05 -1.9037385e-19)
(0.26926716 -0.00015024321 1.4979251e-18)
(0.2692148 -0.00023070433 9.3325081e-19)
(0.26901237 -0.00030702726 4.16575e-19)
(0.26839647 -0.00037049996 1.3893262e-19)
(0.26673518 -0.00041493255 2.6320894e-19)
(0.26236788 -0.00041871888 -1.6576553e-19)
(0.25136278 -0.00033835089 -2.9887515e-19)
(0.22869803 -0.0002366296 -2.2602419e-19)
(0.18902131 -3.9494848e-05 -2.8936174e-19)
(0.27197991 -5.8057516e-05 2.3806816e-18)
(0.27196007 -0.0001428713 2.2452445e-18)
(0.27186829 -0.00021894828 4.463982e-19)
(0.2715565 -0.00029030347 9.2014513e-20)
(0.27066608 -0.0003472899 -2.1054134e-20)
(0.26833152 -0.00038068302 -1.0106123e-19)
(0.26239849 -0.00036437321 -1.6817658e-19)
(0.2490264 -0.00026852578 -1.6635146e-19)
(0.225361 -0.00016272814 -7.125627e-20)
(0.18616826 -2.8774637e-05 -2.3786202e-19)
(0.27455816 -5.5861827e-05 -5.2351478e-20)
(0.27452281 -0.00013703208 1.0579741e-18)
(0.27437848 -0.00020952014 1.6575997e-19)
(0.27392442 -0.00027640502 -8.9671628e-20)
(0.27267857 -0.00032682092 2.8783495e-20)
(0.26947686 -0.00034738434 2.4137067e-19)
(0.26178466 -0.00031092691 1.1706558e-19)
(0.2465738 -0.00020816885 -9.1495995e-20)
(0.2227152 -0.00011050103 -1.5945326e-19)
(0.18425838 -2.0836512e-05 -1.9923317e-19)
(0.27704027 -5.4085728e-05 5.2396153e-19)
(0.27698407 -0.00013225437 6.7015788e-20)
(0.27677058 -0.00020162576 7.6413959e-19)
(0.2761317 -0.00026417293 1.9729046e-19)
(0.27442312 -0.00030720585 9.1981538e-20)
(0.27014171 -0.00031294767 1.7830845e-19)
(0.26068998 -0.00025925779 7.6062113e-20)
(0.24429832 -0.00015836433 -8.2710604e-20)
(0.22067583 -7.540832e-05 -7.2944249e-20)
(0.18296198 -1.5153174e-05 -6.3027592e-20)
(0.27944341 -5.2555761e-05 2.273085e-18)
(0.27935955 -0.00012814137 1.5456528e-18)
(0.27905543 -0.00019460757 2.7005763e-19)
(0.27817575 -0.00025259243 2.9292913e-19)
(0.27586796 -0.00028673457 1.4661049e-19)
(0.27032642 -0.0002765921 -9.8147737e-20)
(0.259335 -0.0002109404 -2.1170108e-19)
(0.24234215 -0.00011891234 -1.1265854e-19)
(0.21912383 -5.2172097e-05 -1.5657856e-19)
(0.18206599 -1.094576e-05 -1.6401638e-19)
(0.28177654 -5.1166672e-05 1.7574224e-18)
(0.28165619 -0.00012441975 4.3707184e-19)
(0.2812333 -0.00018797305 6.7968728e-20)
(0.28003901 -0.00024077465 9.6777314e-19)
(0.27697397 -0.00026417654 2.0292575e-19)
(0.27008761 -0.00023880421 6.906534e-20)
(0.25792267 -0.00016762353 -1.8462779e-19)
(0.24073179 -8.8481814e-05 -1.916407e-19)
(0.21795022 -3.6446225e-05 -3.0558168e-19)
(0.18143936 -7.6996335e-06 -1.9366186e-19)
(0.28404476 -4.9854766e-05 1.6421744e-18)
(0.28387626 -0.00012089424 9.5325309e-19)
(0.2832974 -0.00018132915 -4.7871641e-20)
(0.28169344 -0.00022787719 6.8613966e-19)
(0.27771472 -0.00023897394 1.3437853e-19)
(0.26953508 -0.0002008757 -1.5233764e-21)
(0.25659137 -0.00013036544 -1.4550049e-19)
(0.23943781 -6.5171729e-05 -1.5958074e-19)
(0.21706902 -2.5325804e-05 -2.5161644e-19)
(0.18100324 -5.1223213e-06 -2.1063616e-19)
(0.28625049 -4.8572082e-05 3.921643e-19)
(0.28601827 -0.00011740092 6.7612201e-19)
(0.28523427 -0.00017430194 -2.517568e-19)
(0.28310493 -0.00021314199 3.5064406e-19)
(0.27809437 -0.00021129072 2.6866651e-20)
(0.2687994 -0.00016439833 -7.3163016e-20)
(0.25541092 -9.9329574e-05 -9.9719182e-20)
(0.238414 -4.7155864e-05 -3.8575195e-20)
(0.21641538 -1.7078954e-05 -9.4743001e-20)
(0.18070892 -3.0435822e-06 -1.5554354e-19)
(0.28839355 -4.7270952e-05 1.475602e-19)
(0.28807682 -0.00011377574 7.4140349e-19)
(0.28702342 -0.00016645983 1.330568e-19)
(0.28424078 -0.00019602602 6.5212849e-19)
(0.27815548 -0.00018188537 1.5771903e-19)
(0.26799599 -0.00013078979 -7.0849375e-20)
(0.25440306 -7.3937143e-05 -3.300087e-19)
(0.23761476 -3.3003745e-05 -1.298456e-19)
(0.21594074 -1.0715808e-05 -5.1762096e-20)
(0.18052448 -1.3525854e-06 -2.2322194e-19)
(0.29047097 -4.589144e-05 1.1653962e-18)
(0.29004195 -0.00010982907 2.8079975e-18)
(0.28863779 -0.00015729301 6.5423774e-19)
(0.28508024 -0.00017633847 1.3779e-19)
(0.27797082 -0.00015188711 3.6086926e-19)
(0.26720625 -0.00010094667 -4.1713118e-20)
(0.25356401 -5.3258715e-05 -2.6449904e-19)
(0.23700053 -2.1698517e-05 -2.0395002e-19)
(0.21560861 -5.6594534e-06 -1.7180289e-19)
(0.18042758 3.4120622e-08 -7.7443373e-20)
(0.29247637 -4.4351528e-05 1.5666796e-18)
(0.29189831 -0.00010531335 -2.0126497e-20)
(0.29004631 -0.00014628199 6.4881384e-19)
(0.2856247 -0.00015430645 9.2628648e-19)
(0.27762408 -0.00012253939 2.5706092e-19)
(0.26647732 -7.5147948e-05 1.8597005e-19)
(0.25287922 -3.6357994e-05 2.6106747e-19)
(0.23653862 -1.2544645e-05 -1.4844138e-19)
(0.21539111 -1.5278395e-06 -1.2742128e-19)
(0.18040204 1.2056218e-06 1.2829217e-19)
(0.294399 -4.2542642e-05 1.4471353e-18)
(0.2936244 -9.9894559e-05 6.5528855e-19)
(0.29121909 -0.00013303036 5.2175357e-19)
(0.28590172 -0.00013054545 6.6634833e-19)
(0.27719084 -9.4944202e-05 1.5057091e-19)
(0.26583133 -5.3198504e-05 1.0976038e-19)
(0.25233096 -2.2453097e-05 2.2895225e-19)
(0.23620235 -5.020783e-06 -9.5304227e-20)
(0.2152645 1.8971059e-06 -8.4869454e-20)
(0.18043773 2.1933145e-06 -1.7102453e-19)
(0.29622248 -4.0322258e-05 3.7489168e-19)
(0.29519258 -9.315539e-05 4.2186916e-19)
(0.29213504 -0.0001173932 6.3135661e-19)
(0.28595988 -0.00010594378 4.9306983e-19)
(0.27672821 -6.9857565e-05 5.7187026e-20)
(0.26527515 -3.4649716e-05 -1.6828387e-19)
(0.2519011 -1.0911214e-05 1.9621963e-20)
(0.23596806 1.2314257e-06 9.3064508e-20)
(0.21521691 4.7055851e-06 -3.080313e-20)
(0.18052214 2.9883092e-06 -1.0161079e-19)
(0.29792334 -3.7501304e-05 1.1751181e-18)
(0.29657068 -8.4660495e-05 1.0249842e-18)
(0.29278918 -9.955243e-05 6.5930595e-19)
(0.28585701 -8.149655e-05 6.8724199e-19)
(0.27627357 -4.761975e-05 2.2357211e-19)
(0.26480713 -1.8984268e-05 2.2916262e-19)
(0.25157193 -1.2542041e-06 -2.8290148e-19)
(0.23582161 6.4203477e-06 -9.5411368e-20)
(0.21523436 6.9889063e-06 -7.924233e-20)
(0.18064612 3.6201718e-06 -1.9510719e-19)
(0.29946982 -3.3841634e-05 -1.4373745e-18)
(0.29772604 -7.4080324e-05 1.8997165e-18)
(0.2931963 -8.0019965e-05 1.1295576e-19)
(0.28564804 -5.8126161e-05 -1.5634098e-18)
(0.27584861 -2.8225441e-05 2.5246908e-20)
(0.2644212 -5.6904546e-06 -6.1064618e-20)
(0.25132937 6.8561082e-06 -3.1418722e-19)
(0.23575038 1.0704772e-05 -3.6185812e-19)
(0.21530524 8.8449968e-06 -2.8535414e-19)
(0.18080243 4.1234861e-06 -1.4337929e-19)
(0.30082184 -2.9094877e-05 -3.2955965e-19)
(0.29863175 -6.1332271e-05 1.2230046e-18)
(0.29338824 -5.9567253e-05 -5.4377584e-19)
(0.28537719 -3.6522645e-05 -1.2729231e-18)
(0.27546384 -1.1417208e-05 -3.1699684e-19)
(0.26410765 5.6163836e-06 -6.5000951e-19)
(0.2511654 1.3623237e-05 -4.3057304e-19)
(0.23574181 1.4219611e-05 -1.8056922e-19)
(0.21542011 1.0354898e-05 -2.1986308e-19)
(0.18098519 4.5263922e-06 5.095339e-20)
(0.30193375 -2.3108732e-05 3.667894e-18)
(0.29927339 -4.6684736e-05 6.2568901e-19)
(0.29340604 -3.9091702e-05 -4.8400739e-19)
(0.28507548 -1.7047696e-05 7.5731024e-19)
(0.27512089 3.0836917e-06 8.8764795e-19)
(0.26386445 1.5140095e-05 2.0291784e-19)
(0.25106782 1.9209661e-05 -5.2819012e-20)
(0.2357854 1.7094614e-05 -2.621727e-20)
(0.21557119 1.1580838e-05 -4.8787747e-21)
(0.18118947 4.8478411e-06 -5.4738776e-20)
(0.30276111 -1.5976896e-05 -1.3286177e-18)
(0.29965288 -3.0773154e-05 -1.704239e-18)
(0.29329057 -1.9436314e-05 -7.6489205e-19)
(0.28476122 1.6768882e-07 -6.0761409e-19)
(0.27482457 1.544063e-05 5.93612e-19)
(0.26368339 2.3071411e-05 1.055322e-19)
(0.25102649 2.3802275e-05 3.082033e-19)
(0.2358724 1.9434259e-05 9.0590933e-20)
(0.21575199 1.256495e-05 1.0554119e-19)
(0.18141107 5.0990615e-06 1.0700149e-19)
(0.30327134 -8.1278365e-06 -2.4944158e-19)
(0.29978735 -1.4486122e-05 1.2421706e-18)
(0.29307478 -1.3055185e-06 -3.2839185e-19)
(0.28444918 1.5039418e-05 -3.1241427e-19)
(0.27457433 2.5803958e-05 -8.6411157e-19)
(0.26355615 2.9613613e-05 1.1265652e-20)
(0.25103262 2.7544625e-05 -3.8413207e-20)
(0.23599543 2.1311261e-05 7.4046483e-20)
(0.21595697 1.3335944e-05 1.3037274e-19)
(0.1816463 5.2873458e-06 9.0851853e-20)
(0.30345396 -2.423052e-07 -8.0090285e-19)
(0.29970264 1.1329109e-06 1.1672243e-18)
(0.29278637 1.4662259e-05 -5.1136847e-19)
(0.28414893 2.7525713e-05 -5.4118062e-19)
(0.2743656 3.4336697e-05 -1.1911136e-18)
(0.26347496 3.4929861e-05 -4.8021494e-19)
(0.25107851 3.0536013e-05 -1.5872739e-19)
(0.23614811 2.2774054e-05 -8.7628674e-20)
(0.2161813 1.3912481e-05 3.4165349e-20)
(0.18189181 5.4170403e-06 5.8564803e-20)
(0.30332512 6.8809944e-06 -3.6615095e-18)
(0.29943295 1.4984887e-05 -2.0522183e-18)
(0.29244689 2.7993987e-05 -1.4481498e-18)
(0.28386232 3.7676698e-05 -2.1707809e-18)
(0.27419303 4.1187181e-05 -9.1377674e-19)
(0.26343257 3.9127958e-05 -1.1174931e-18)
(0.2511573 3.2836097e-05 -1.6277923e-19)
(0.23632475 2.3849151e-05 -8.9027721e-20)
(0.21642058 1.4302781e-05 -1.2355837e-19)
(0.18214445 5.4889989e-06 8.5368196e-20)
(0.3029305 1.2606937e-05 2.5464025e-18)
(0.29901531 2.6252901e-05 -8.545696e-19)
(0.29206923 3.8508044e-05 -8.2761238e-19)
(0.28358876 4.5589984e-05 1.1693021e-19)
(0.27405096 4.6452275e-05 8.2544647e-19)
(0.26342221 4.2267281e-05 2.6430697e-19)
(0.25126272 3.4472676e-05 7.7045487e-20)
(0.23652016 2.4544139e-05 3.8412672e-20)
(0.21667065 1.4505319e-05 -4.0316442e-20)
(0.18240107 5.5006358e-06 -4.8553553e-20)
(0.30233163 1.668612e-05 1.7579458e-18)
(0.29848532 3.4600888e-05 8.2399935e-19)
(0.29166293 4.623164e-05 -1.2574854e-20)
(0.28332652 5.1360631e-05 1.9996009e-19)
(0.27393382 5.0195623e-05 6.0825616e-19)
(0.26343755 4.437906e-05 1.8398987e-19)
(0.25138895 3.5453381e-05 4.7834872e-20)
(0.23672935 2.4854022e-05 8.3615192e-20)
(0.21692739 1.4512069e-05 1.9172792e-19)
(0.18265837 5.4471362e-06 7.1644007e-20)
(0.30159322 1.9181869e-05 1.0783894e-18)
(0.29787657 4.0084143e-05 3.1100428e-18)
(0.29123635 5.1327172e-05 5.2574038e-21)
(0.28307383 5.5103176e-05 2.0261259e-19)
(0.27383648 5.2478347e-05 -3.0702975e-19)
(0.26347281 4.5487302e-05 -2.1119518e-19)
(0.25153053 3.5779496e-05 -3.3436624e-19)
(0.2369475 2.4770209e-05 -1.361768e-19)
(0.2171866 1.4313669e-05 -2.9703027e-20)
(0.18291288 5.3235431e-06 -1.1260757e-20)
(0.30077404 2.0343562e-05 1.8195473e-19)
(0.29721991 4.3029204e-05 1.5603843e-18)
(0.29079787 5.4062784e-05 -1.7269047e-19)
(0.28282961 5.6974539e-05 -3.5482028e-19)
(0.27375458 5.3382208e-05 -7.7813773e-19)
(0.2635228 4.5627262e-05 -3.3138063e-20)
(0.25168237 3.5459955e-05 -1.3088564e-19)
(0.23716992 2.4290099e-05 -1.7870669e-19)
(0.21744403 1.3904996e-05 -2.004997e-19)
(0.18316092 5.1269664e-06 -3.617283e-20)
(0.29992221 2.0483292e-05 -2.0283614e-18)
(0.2965426 4.3898023e-05 -2.4256784e-18)
(0.29035624 5.4779507e-05 -1.1008484e-18)
(0.28259383 5.718055e-05 -2.1087959e-18)
(0.27368473 5.3022934e-05 -1.3642093e-18)
(0.26358306 4.4858964e-05 -7.2254697e-19)
(0.25183983 3.452256e-05 -1.1849755e-19)
(0.23739212 2.3424964e-05 -4.845605e-20)
(0.21769546 1.3289738e-05 4.0889759e-22)
(0.18339883 4.8582481e-06 1.3021625e-19)
(0.29907425 1.9896247e-05 3.0108631e-18)
(0.29586747 4.317822e-05 -6.7209612e-19)
(0.28992021 5.3853515e-05 -1.152805e-18)
(0.2823675 5.5967546e-05 5.3492577e-19)
(0.27362455 5.1552492e-05 9.3944614e-19)
(0.26364988 4.3272967e-05 -1.814953e-19)
(0.25199879 3.3019784e-05 -2.1798666e-19)
(0.23760991 2.2204316e-05 -1.2136115e-19)
(0.21793689 1.2483018e-05 -1.3947304e-20)
(0.18362306 4.5228536e-06 -6.7711045e-20)
(0.29825619 1.8825852e-05 1.3959605e-18)
(0.29521266 4.1315441e-05 6.4480019e-19)
(0.28949799 5.1660192e-05 -3.2787844e-19)
(0.28215237 5.3604436e-05 3.0756042e-19)
(0.27357256 4.915158e-05 3.0878294e-19)
(0.26372035 4.0987834e-05 2.3431485e-19)
(0.25215571 3.1028171e-05 -1.1035637e-19)
(0.23781958 2.067575e-05 -1.427033e-19)
(0.21816471 1.1511234e-05 -1.1114713e-19)
(0.18383052 4.1305801e-06 -1.6362851e-19)
(0.29748548 1.7457885e-05 4.8811563e-19)
(0.29459171 3.8683249e-05 2.5966202e-18)
(0.28909673 4.8546827e-05 7.843478e-19)
(0.28195056 5.036252e-05 -2.9962709e-20)
(0.27352801 4.601675e-05 -1.1716806e-18)
(0.26379223 3.8142001e-05 1.5538265e-19)
(0.25230769 2.8643017e-05 -2.7606483e-19)
(0.23801799 1.8901457e-05 -2.4127674e-19)
(0.21837589 1.0410009e-05 -2.0472421e-19)
(0.18401871 3.6947082e-06 -1.9044077e-19)
(0.29677296 1.5927764e-05 -1.1610791e-18)
(0.294014 3.5577527e-05 9.5215257e-19)
(0.28872213 4.4816279e-05 1.2121642e-18)
(0.28176416 4.6498074e-05 1.1676991e-19)
(0.27349057 4.2346283e-05 -1.6590087e-19)
(0.26386389 3.4882999e-05 8.8887013e-20)
(0.25245241 2.5970364e-05 7.4545902e-20)
(0.23820263 1.695262e-05 3.4119855e-20)
(0.21856812 9.220843e-06 -4.2457649e-20)
(0.18418587 3.230799e-06 -3.5224387e-20)
(0.29612451 1.4331351e-05 -2.650091e-18)
(0.29348543 3.222344e-05 -2.8974104e-18)
(0.28837837 4.0720373e-05 1.0249762e-19)
(0.28159493 4.2240184e-05 -1.4052571e-18)
(0.27346019 3.8327838e-05 -5.6812755e-19)
(0.26393414 3.1356693e-05 -4.3828255e-19)
(0.25258815 2.3118319e-05 1.5442263e-19)
(0.23837164 1.4903047e-05 2.6019394e-19)
(0.21873982 7.9871167e-06 1.4728855e-19)
(0.18433102 2.7551914e-06 1.2250289e-19)
(0.29554246 1.2735198e-05 3.8383264e-18)
(0.29300906 2.8787364e-05 -6.3150203e-19)
(0.28806809 3.6460628e-05 -9.2498042e-20)
(0.28144415 3.7784501e-05 8.8577568e-19)
(0.27343686 3.4129925e-05 1.276843e-18)
(0.26400215 2.7698834e-05 4.8414797e-19)
(0.25271369 2.0189779e-05 9.5636496e-20)
(0.23852382 1.2823698e-05 -3.8862938e-20)
(0.21889018 6.7506898e-06 7.4300768e-20)
(0.18445396 2.2837828e-06 -5.6538174e-20)
(0.29502658 1.1184554e-05 3.5023354e-21)
(0.29258573 2.5388984e-05 8.4833063e-19)
(0.28779254 3.2192817e-05 1.0774686e-19)
(0.2813125 3.3291358e-05 7.0388075e-19)
(0.27342049 2.989676e-05 9.0286636e-19)
(0.26406732 2.4028962e-05 3.434811e-19)
(0.25282826 1.7276702e-05 2.1946983e-19)
(0.23865858 1.0778112e-05 -5.7824069e-21)
(0.21901908 5.5488387e-06 -2.9569104e-20)
(0.18455519 1.8307273e-06 -3.7906936e-20)
(0.29457487 9.7093482e-06 1.2297461e-18)
(0.29221467 2.2111992e-05 3.9115708e-18)
(0.28755184 2.8033371e-05 1.6817844e-18)
(0.28120009 2.8887111e-05 5.4968743e-19)
(0.27341087 2.5746342e-05 -5.8616781e-19)
(0.26412919 2.0447049e-05 9.8328404e-20)
(0.25293144 1.4456548e-05 -4.3949213e-20)
(0.23877585 8.81945e-06 1.600927e-19)
(0.21912701 4.412251e-06 -5.6406467e-20)
(0.18463579 1.4074939e-06 -1.090283e-21)
(0.29418414 8.3285333e-06 5.4558828e-18)
(0.29189386 1.9012807e-05 3.4495201e-18)
(0.28734513 2.4066096e-05 2.6640569e-18)
(0.28110648 2.4667309e-05 2.3938511e-18)
(0.27340759 2.1770822e-05 1.8807724e-18)
(0.26418742 1.7032351e-05 1.4274548e-18)
(0.25302315 1.1790648e-05 4.6927994e-19)
(0.23887601 6.9890732e-06 2.2708423e-19)
(0.21921499 3.3641084e-06 1.3288188e-19)
(0.18469728 1.0224463e-06 4.5215419e-21)
(0.29385042 7.053058e-06 3.1784772e-18)
(0.29162049 1.6127196e-05 2.3161416e-18)
(0.28717085 2.0348208e-05 3.6894454e-18)
(0.28103078 2.0700461e-05 2.5485367e-18)
(0.27341011 1.8038098e-05 1.9471226e-18)
(0.26424177 1.3843654e-05 1.471809e-18)
(0.25310353 9.3238741e-06 1.1956629e-18)
(0.23895979 5.3161546e-06 5.5898847e-19)
(0.21928441 2.4198034e-06 4.8912756e-19)
(0.18474152 6.8064494e-07 2.1686729e-19)
(0.2935693 5.8881681e-06 1.2902028e-18)
(0.29139117 1.3475598e-05 1.6801829e-18)
(0.2870269 1.6915878e-05 2.1282483e-18)
(0.28097179 1.703235e-05 2.8846859e-18)
(0.27341774 1.4594652e-05 2.0769305e-18)
(0.26429201 1.0921051e-05 1.3787487e-18)
(0.25317294 7.0858498e-06 1.193376e-18)
(0.2390282 3.8186655e-06 8.4942216e-19)
(0.21933692 1.587762e-06 5.532957e-19)
(0.18477054 3.8432107e-07 3.1725597e-19)
(0.29333614 4.8350088e-06 9.4400357e-19)
(0.29120221 1.1067128e-05 5.9309268e-19)
(0.28691084 1.3788917e-05 2.449543e-18)
(0.28092802 1.3690222e-05 4.5798038e-18)
(0.27342972 1.146883e-05 3.6381614e-18)
(0.26433801 8.2884766e-06 2.1101551e-18)
(0.2532319 5.0930141e-06 1.4513593e-18)
(0.23908247 2.5050848e-06 9.8087358e-19)
(0.21937436 8.7075631e-07 6.3919478e-19)
(0.18478645 1.335611e-07 4.4631122e-19)
(0.29314626 3.8918333e-06 1.8944322e-18)
(0.29104976 8.9026567e-06 3.5800493e-18)
(0.28682003 1.0974642e-05 3.695391e-18)
(0.28089786 1.0686556e-05 3.1812724e-18)
(0.27344525 8.6740766e-06 3.3682955e-18)
(0.26437969 5.9563384e-06 2.0996747e-18)
(0.25328104 3.3505615e-06 1.5632377e-18)
(0.23912391 1.37559e-06 1.1020753e-18)
(0.21939861 2.7210207e-07 8.0617517e-19)
(0.18479135 -6.9152962e-08 5.3564994e-19)
(0.29299506 3.0547923e-06 7.1683742e-19)
(0.29092997 6.9768907e-06 3.0679595e-18)
(0.28675177 8.4705875e-06 1.590662e-18)
(0.28087964 8.0217692e-06 1.2327503e-18)
(0.27346352 6.211223e-06 2.6372352e-18)
(0.26441702 3.9233925e-06 1.8055477e-18)
(0.25332108 1.8548221e-06 1.4934753e-18)
(0.23915391 4.2953227e-07 1.1672837e-18)
(0.2194112 -2.1327959e-07 8.3241368e-19)
(0.1847876 -2.2792828e-07 5.093446e-19)
(0.29287809 2.3186526e-06 2.067784e-18)
(0.29083908 5.2803294e-06 1.5101707e-18)
(0.28670333 6.2673668e-06 2.9165e-18)
(0.28087169 5.6875409e-06 2.2152983e-18)
(0.27348376 4.0720498e-06 9.3549432e-19)
(0.26445004 2.1811023e-06 2.0217992e-18)
(0.25335275 6.0080272e-07 1.6796896e-18)
(0.23917355 -3.4224011e-07 1.3493187e-18)
(0.21941458 -6.036574e-07 1.1461452e-18)
(0.18477674 -3.5370202e-07 7.4184404e-19)
(0.29279112 1.6774778e-06 2.0143203e-18)
(0.29077347 3.8010639e-06 1.8030739e-18)
(0.2866721 4.3513888e-06 1.4608446e-18)
(0.28087237 3.670277e-06 1.9720429e-18)
(0.27350524 2.2438118e-06 1.2767926e-18)
(0.26447878 7.2031593e-07 2.0574687e-18)
(0.2533766 -4.2581415e-07 1.7507242e-18)
(0.23918483 -9.6261852e-07 1.501346e-18)
(0.21941034 -9.1272176e-07 1.229956e-18)
(0.18476022 -4.5106101e-07 9.238193e-19)
(0.29273019 1.1249107e-06 7.8194694e-19)
(0.29072973 2.5256555e-06 2.2420282e-18)
(0.28665557 2.706395e-06 2.3353351e-18)
(0.28088013 1.9537353e-06 3.9649495e-18)
(0.27352725 7.1342842e-07 3.4472806e-18)
(0.26450318 -4.7757713e-07 1.926366e-18)
(0.253394 -1.2527049e-06 1.7456149e-18)
(0.23918903 -1.4508641e-06 1.5954475e-18)
(0.21939992 -1.1470252e-06 1.3797801e-18)
(0.18473943 -5.2155313e-07 1.0765036e-18)
(0.29269159 6.5445126e-07 9.9536728e-19)
(0.29070463 1.4401607e-06 2.6779488e-18)
(0.28665136 1.3160869e-06 3.6460285e-18)
(0.28089346 5.223775e-07 3.7211212e-18)
(0.27354902 -5.4122973e-07 3.0847366e-18)
(0.2645239 -1.4436758e-06 1.9864179e-18)
(0.25340577 -1.9038954e-06 1.8366472e-18)
(0.23918731 -1.8197197e-06 1.5403618e-18)
(0.21938465 -1.3133513e-06 1.3488074e-18)
(0.18471559 -5.6757586e-07 1.075441e-18)
(0.29267187 2.6003445e-07 5.4254861e-19)
(0.29069519 5.3169627e-07 2.6552849e-18)
(0.2866572 1.6338027e-07 9.9102663e-19)
(0.28091093 -6.4905872e-07 1.2037734e-18)
(0.27357049 -1.5534634e-06 2.3862801e-18)
(0.26454118 -2.2053595e-06 2.2108303e-18)
(0.25341265 -2.3970062e-06 2.0215405e-18)
(0.23918076 -2.0818001e-06 1.5379258e-18)
(0.21936574 -1.419946e-06 1.155229e-18)
(0.18468981 -5.9235199e-07 9.6428892e-19)
(0.29266784 -6.4811099e-08 4.1216752e-19)
(0.29069858 -2.1550305e-07 1.7393298e-18)
(0.28667107 -7.7672463e-07 2.9870747e-18)
(0.28093164 -1.5931586e-06 1.3990675e-18)
(0.27359125 -2.351641e-06 9.7814888e-19)
(0.26455525 -2.7835819e-06 2.3676634e-18)
(0.25341533 -2.7494236e-06 2.0435194e-18)
(0.23917036 -2.2507285e-06 1.7324731e-18)
(0.21934426 -1.4755717e-06 1.5618225e-18)
(0.184663 -5.9933896e-07 1.1594606e-18)
(0.29267663 -3.2810879e-07 3.1267058e-18)
(0.29071238 -8.2064043e-07 1.6365484e-18)
(0.28669131 -1.5306322e-06 1.8252901e-18)
(0.28095458 -2.3352858e-06 1.2259882e-18)
(0.27361098 -2.9578789e-06 8.1200878e-19)
(0.26456636 -3.1990017e-06 1.621422e-18)
(0.25341451 -2.9792543e-06 1.6978468e-18)
(0.23915704 -2.3402029e-06 1.7091433e-18)
(0.21932115 -1.4887257e-06 1.4670482e-18)
(0.18463596 -5.9184954e-07 1.173215e-18)
(0.29269572 -5.3730664e-07 2.3659936e-18)
(0.29073445 -1.3002376e-06 2.4005565e-18)
(0.28671638 -2.1185638e-06 1.4918084e-18)
(0.28097886 -2.8970458e-06 1.3489662e-18)
(0.27362943 -3.3942982e-06 1.6725917e-18)
(0.2645748 -3.4726209e-06 1.3285669e-18)
(0.2534108 -3.1043395e-06 1.5172985e-18)
(0.23914159 -2.3633136e-06 1.6053846e-18)
(0.2192972 -1.4673438e-06 1.3814186e-18)
(0.18460933 -5.7293106e-07 1.1225047e-18)
(0.29272289 -6.9837663e-07 1.7980293e-18)
(0.29076286 -1.6681318e-06 2.3561368e-18)
(0.2867449 -2.5590423e-06 1.7123484e-18)
(0.28100375 -3.2997052e-06 1.1102069e-18)
(0.27364643 -3.6827964e-06 6.6626611e-19)
(0.26458083 -3.6247823e-06 1.4232659e-18)
(0.25340479 -3.1415677e-06 1.4315293e-18)
(0.23912471 -2.3321791e-06 1.4429425e-18)
(0.21927307 -1.4186085e-06 1.464346e-18)
(0.18458359 -5.4527408e-07 1.2300074e-18)
(0.29275616 -8.1699461e-07 1.9720175e-18)
(0.29079592 -1.9374779e-06 2.2228685e-18)
(0.28677567 -2.8700006e-06 3.3596137e-18)
(0.2810286 -3.5639255e-06 2.08938e-18)
(0.27366186 -3.8444004e-06 1.7681519e-18)
(0.26458475 -3.6746965e-06 9.483089e-19)
(0.253397 -3.1065947e-06 1.2970574e-18)
(0.23910703 -2.2578087e-06 1.3165598e-18)
(0.2192493 -1.3489058e-06 1.2248858e-18)
(0.18455914 -5.1121453e-07 1.1343871e-18)
(0.29279378 -8.9850683e-07 1.4394072e-18)
(0.29083215 -2.1207581e-06 2.0509738e-18)
(0.28680768 -3.0685576e-06 4.5560695e-18)
(0.28105291 -3.709346e-06 2.4547865e-18)
(0.27367568 -3.8988652e-06 1.9711126e-18)
(0.26458684 -3.6401337e-06 1.5592577e-18)
(0.25338791 -3.0136358e-06 1.4960032e-18)
(0.23908904 -2.1499844e-06 1.5832823e-18)
(0.21922633 -1.2637728e-06 1.4601849e-18)
(0.18453625 -4.7272056e-07 1.1632317e-18)
(0.29283425 -9.4793587e-07 2.1685747e-19)
(0.29087025 -2.2297325e-06 1.0556363e-18)
(0.28684005 -3.1708414e-06 -2.4144345e-19)
(0.28107627 -3.7543477e-06 1.2766676e-18)
(0.27368788 -3.8644649e-06 2.053549e-18)
(0.26458737 -3.5372802e-06 2.0048259e-18)
(0.25337794 -2.8754025e-06 1.7828459e-18)
(0.23907118 -2.0172795e-06 1.6604545e-18)
(0.21920448 -1.167968e-06 1.4744845e-18)
(0.1845151 -4.3145542e-07 1.2261043e-18)
(0.29287626 -9.6995595e-07 -7.5789893e-19)
(0.29090916 -2.275365e-06 9.9690217e-19)
(0.28687206 -3.1918485e-06 1.5487616e-18)
(0.28109836 -3.7158868e-06 2.0561497e-18)
(0.27369848 -3.7578451e-06 2.2069935e-18)
(0.26458661 -3.3806355e-06 2.1578846e-18)
(0.25336745 -2.7030612e-06 1.9009478e-18)
(0.23905378 -1.8670608e-06 1.6505999e-18)
(0.21918401 -1.0654728e-06 1.6060437e-18)
(0.18449582 -3.8876928e-07 1.2343058e-18)
(0.29291872 -9.6891586e-07 1.5570395e-18)
(0.29094794 -2.2678307e-06 1.5053998e-18)
(0.28690314 -3.1454206e-06 2.0638185e-18)
(0.28111896 -3.6094672e-06 1.8068285e-18)
(0.27370755 -3.5940263e-06 7.095851e-19)
(0.26458479 -3.1830766e-06 1.4138146e-18)
(0.25335673 -2.5063485e-06 1.6005621e-18)
(0.23903713 -1.7056305e-06 1.5781569e-18)
(0.21916508 -9.5964057e-07 1.6175575e-18)
(0.18447846 -3.4580167e-07 1.3099846e-18)
(0.29296069 -9.4880145e-07 2.4057461e-18)
(0.29098584 -2.2164626e-06 2.1300468e-18)
(0.28693282 -3.0441815e-06 3.7697397e-18)
(0.28113791 -3.4490907e-06 1.8715909e-18)
(0.27371518 -3.3863862e-06 1.8273682e-18)
(0.26458215 -2.9558719e-06 9.1379593e-19)
(0.25334606 -2.2936142e-06 1.4452478e-18)
(0.23902143 -1.5382676e-06 1.4182237e-18)
(0.2191478 -8.5319247e-07 1.1688155e-18)
(0.18446302 -3.0344583e-07 1.1488242e-18)
(0.29300144 -9.1329414e-07 2.6184836e-18)
(0.29102227 -2.1298325e-06 4.3075728e-18)
(0.28696074 -2.8996341e-06 5.3501439e-18)
(0.28115511 -3.2473784e-06 3.2723028e-18)
(0.27372145 -3.1468212e-06 2.560179e-18)
(0.26457888 -2.7088892e-06 2.2189825e-18)
(0.25333565 -2.0720509e-06 1.718154e-18)
(0.23900683 -1.3694499e-06 1.5936547e-18)
(0.21913224 -7.4841754e-07 1.485789e-18)
(0.18444948 -2.6247522e-07 1.1708928e-18)
(0.29304036 -8.6572078e-07 7.6725027e-19)
(0.29105675 -2.0156948e-06 2.4434381e-18)
(0.28698665 -2.7221152e-06 -4.8435478e-20)
(0.28117051 -3.0155481e-06 2.6511778e-18)
(0.27372648 -2.8857495e-06 2.4743508e-18)
(0.26457515 -2.4506152e-06 2.5253616e-18)
(0.25332565 -1.8477137e-06 1.9489542e-18)
(0.23899344 -1.2028531e-06 1.7507793e-18)
(0.2191184 -6.4713031e-07 1.6096098e-18)
(0.18443777 -2.2347925e-07 1.2990836e-18)
(0.29307699 -8.0911195e-07 2.6433585e-19)
(0.29108892 -1.8810717e-06 2.6439002e-19)
(0.28701037 -2.5209003e-06 1.2213079e-19)
(0.28118413 -2.7635469e-06 1.4396022e-18)
(0.27373039 -2.612278e-06 2.2954597e-18)
(0.26457113 -2.1883478e-06 2.5972632e-18)
(0.25331621 -1.6257184e-06 2.0436887e-18)
(0.23898132 -1.0415272e-06 1.8015207e-18)
(0.21910625 -5.5081988e-07 1.5537938e-18)
(0.18442781 -1.8695373e-07 1.3323298e-18)
(0.29311099 -7.4614665e-07 2.698354e-18)
(0.29111854 -1.7321866e-06 2.1666902e-18)
(0.28703182 -2.3041525e-06 5.9132106e-19)
(0.281196 -2.5000172e-06 7.4954039e-19)
(0.27373329 -2.334181e-06 8.1298128e-19)
(0.26456696 -1.9281812e-06 1.6301363e-18)
(0.25330741 -1.4102179e-06 1.8748197e-18)
(0.23897048 -8.8785184e-07 1.8999194e-18)
(0.21909576 -4.6057147e-07 1.6718082e-18)
(0.18441948 -1.5321578e-07 1.4081702e-18)
(0.29314214 -6.792006e-07 2.4679361e-18)
(0.29114547 -1.5745273e-06 1.8961273e-18)
(0.28705095 -2.0789963e-06 2.8673948e-18)
(0.28120618 -2.232394e-06 1.5803296e-18)
(0.27373531 -2.0580254e-06 2.029373e-18)
(0.26456274 -1.6751465e-06 6.49958e-19)
(0.25329933 -1.2045417e-06 1.6725269e-18)
(0.23896092 -7.4366363e-07 1.8288671e-18)
(0.21908682 -3.7718637e-07 1.5504269e-18)
(0.18441267 -1.2248099e-07 1.3786897e-18)
(0.29317032 -6.1030754e-07 1.0699831e-18)
(0.29116962 -1.4128024e-06 1.137893e-18)
(0.28706779 -1.8514841e-06 4.2776382e-18)
(0.28121478 -1.9668808e-06 2.9797383e-18)
(0.27373656 -1.7891509e-06 2.5866592e-18)
(0.26455857 -1.4331921e-06 2.1780328e-18)
(0.253292 -1.0111736e-06 1.6865764e-18)
(0.23895261 -6.1022382e-07 1.7405989e-18)
(0.21907935 -3.0113074e-07 1.8025782e-18)
(0.18440724 -9.4819472e-08 1.3760291e-18)
(0.29319547 -5.411986e-07 5.1395451e-19)
(0.29119101 -1.2509952e-06 9.7828184e-19)
(0.2870824 -1.6266606e-06 1.1373637e-19)
(0.2812219 -1.7085364e-06 2.4568971e-18)
(0.27373716 -1.531783e-06 2.3698915e-18)
(0.26455453 -1.2053115e-06 2.6956518e-18)
(0.25328544 -8.3187393e-07 1.8003351e-18)
(0.23894549 -4.8832416e-07 1.7433566e-18)
(0.21907324 -2.3262725e-07 1.6652109e-18)
(0.18440304 -7.0218834e-08 1.2872087e-18)
(0.29321762 -4.7328578e-07 6.7158865e-20)
(0.29120969 -1.0923582e-06 2.30365e-18)
(0.28709489 -1.4085802e-06 1.2520638e-18)
(0.28122765 -1.4613122e-06 1.8754814e-18)
(0.27373722 -1.2890755e-06 2.0337034e-18)
(0.26455069 -9.935805e-07 2.2636692e-18)
(0.25327965 -6.6771008e-07 2.0372089e-18)
(0.23893949 -3.7830611e-07 1.7438831e-18)
(0.21906836 -1.7164756e-07 1.5740883e-18)
(0.18439996 -4.8571291e-08 1.2578047e-18)
(0.29323686 -4.0772e-07 6.7909808e-19)
(0.29122575 -9.395136e-07 2.315142e-18)
(0.28710537 -1.2004334e-06 1.1102817e-18)
(0.28123218 -1.2282059e-06 6.1299796e-19)
(0.27373683 -1.0632894e-06 6.0211725e-19)
(0.26454708 -7.9934897e-07 1.5827517e-18)
(0.2532746 -5.192353e-07 1.7344863e-18)
(0.23893454 -2.8020837e-07 1.5859613e-18)
(0.21906459 -1.1803513e-07 1.6184799e-18)
(0.18439783 -2.9755995e-08 1.318673e-18)
(0.2932533 -3.4538928e-07 2.3738808e-18)
(0.29123933 -7.9447967e-07 1.8137504e-18)
(0.28711399 -1.0046077e-06 3.2605111e-18)
(0.2812356 -1.0113479e-06 1.6780273e-18)
(0.27373609 -8.5588453e-07 2.0055339e-18)
(0.26454375 -6.2331434e-07 1.005755e-18)
(0.25327028 -3.8654015e-07 1.3734311e-18)
(0.23893055 -1.9379115e-07 1.4279177e-18)
(0.21906181 -7.1495132e-08 1.3002643e-18)