/*--------------------------------*- C++ -*----------------------------------*\
| =========                 |                                                 |
| \\      /  F ield         | OpenFOAM: The Open Source CFD Toolbox           |
|  \\    /   O peration     | Version:  2506                                  |
|   \\  /    A nd           | Website:  www.openfoam.com                      |
|    \\/     M anipulation  |                                                 |
\*---------------------------------------------------------------------------*/
FoamFile
{
    version     2.0;
    format      ascii;
    arch        "LSB;label=32;scalar=64";
    class       volScalarField;
    location    "3000/rock";
    object      T;
}
// * * * * * * * * * * * * * * * * * * * * * * * * * * * * * * * * * * * * * //

dimensions      [0 0 0 1 0 0 0];

internalField   nonuniform List<scalar> 
16000
(
317.60915
306.70319
300.78578
297.085
294.56158
292.73825
291.36457
290.29637
289.44478
288.7521
288.17926
287.69891
287.29133
286.94201
286.64
286.37692
286.14625
285.94283
285.76256
285.60211
285.45877
285.33031
285.21488
285.11092
285.01712
284.93237
284.85573
284.78637
284.72358
284.66674
284.6153
284.56877
284.5267
284.48867
284.4543
284.42317
284.39486
284.36886
284.34449
284.32066
320.27287
309.38651
303.06147
298.98846
296.17035
294.11694
292.56164
291.34779
290.37754
289.58677
288.93182
288.38195
287.91494
287.51435
287.16779
286.86573
286.60076
286.367
286.15976
285.97526
285.81039
285.66261
285.52978
285.41014
285.30217
285.20461
285.11637
285.03651
284.96421
284.89876
284.83953
284.78595
284.73752
284.69376
284.65422
284.61844
284.58596
284.55624
284.5286
284.50213
321.78657
311.35214
304.9289
300.6476
297.62352
295.39109
293.68539
292.34595
291.2705
290.391
289.66062
289.04612
288.52332
288.07426
287.6853
287.34596
287.04804
286.78502
286.5517
286.34387
286.15808
285.99146
285.84166
285.70668
285.58485
285.47474
285.37513
285.28496
285.20332
285.12941
285.06253
285.00204
284.94738
284.898
284.85343
284.81317
284.77671
284.74351
284.71297
284.68437
322.7491
312.82038
306.4551
302.08041
298.92374
296.55869
294.73261
293.28763
292.12075
291.16226
290.3635
289.68959
289.11496
288.62043
288.19144
287.81667
287.48726
287.19618
286.93776
286.7074
286.50133
286.31644
286.15012
286.00021
285.86485
285.74247
285.63174
285.53148
285.4407
285.35851
285.28413
285.21687
285.15611
285.10126
285.0518
285.00721
284.96695
284.93052
284.89735
284.86688
323.41935
313.9491
307.70992
303.31483
300.08115
297.62254
295.70314
294.17153
292.92665
291.89889
291.03892
290.31099
289.68861
289.1518
288.68525
288.27702
287.91773
287.59986
287.31738
287.06535
286.83973
286.63716
286.45484
286.29042
286.14189
286.00757
285.88598
285.77588
285.67616
285.58587
285.50417
285.4303
285.36358
285.30341
285.24921
285.20044
285.15657
285.11709
285.08149
285.04932
323.9189
314.84262
308.75293
304.38064
301.10967
298.58866
296.59916
294.99799
293.6877
292.60003
291.6859
290.90932
290.24335
289.66751
289.16596
288.72633
288.3388
287.9955
287.69006
287.41728
287.17287
286.95326
286.75548
286.57701
286.41572
286.26978
286.13764
286.01794
285.90951
285.81133
285.72248
285.64217
285.56966
285.50431
285.44552
285.39272
285.34539
285.30303
285.26516
285.23139
324.31002
315.56885
309.63094
305.30542
302.02434
299.46482
297.42442
295.76859
294.40433
293.2655
292.30397
291.48399
290.77855
290.16691
289.63298
289.16403
288.74996
288.38262
288.05538
287.7628
287.5004
287.26443
287.05176
286.85973
286.68608
286.52889
286.38651
286.25749
286.14059
286.03473
285.93893
285.85234
285.7742
285.70383
285.6406
285.58392
285.53327
285.48816
285.44814
285.41285
324.62742
316.17256
310.37955
306.11292
302.83971
300.2595
298.18365
296.48581
295.07769
293.89572
292.89311
292.03474
291.2938
290.64959
290.08584
289.58969
289.1508
288.76083
288.41296
288.10157
287.82201
287.57038
287.34341
287.13832
286.95276
286.7847
286.6324
286.49434
286.36923
286.2559
286.15335
286.06068
285.97708
285.90184
285.83431
285.77389
285.72006
285.67231
285.63024
285.59348
324.89196
316.68397
311.02555
306.8229
303.56908
300.98114
298.88201
297.1527
295.70948
294.49154
293.45366
292.56159
291.78899
291.11528
290.52426
290.00297
289.54098
289.12981
288.76251
288.43331
288.13743
287.87085
287.63019
287.41257
287.21555
287.037
286.87512
286.72834
286.59527
286.47472
286.36562
286.26704
286.17815
286.0982
286.02651
285.96249
285.90559
285.85533
285.81128
285.77309
325.11701
317.12404
311.58914
307.45152
304.22413
301.63773
299.52474
297.77257
296.30174
295.05415
293.98626
293.06485
292.26415
291.56391
290.94806
290.40366
289.92027
289.48932
289.10376
288.75776
288.44642
288.16562
287.9119
287.68229
287.47426
287.28563
287.11453
286.95932
286.81856
286.69102
286.57559
286.47131
286.37729
286.29278
286.21709
286.14959
286.08973
286.03704
285.99108
285.95152
325.31157
317.50773
312.08565
308.01183
304.81495
302.23659
300.11692
298.34887
296.85674
295.58499
294.49179
293.545
292.71954
291.99556
291.3572
290.79167
290.28851
289.83917
289.43655
289.07474
288.74879
288.45451
288.18835
287.94729
287.72873
287.53043
287.35046
287.18713
287.03897
286.90469
286.78314
286.67334
286.57438
286.48547
286.4059
286.33504
286.27234
286.21731
286.16951
286.1286
325.48201
317.84598
312.52687
308.51443
305.35013
302.78427
300.66336
298.885
297.37681
296.08564
294.97128
294.00269
293.15552
292.4104
291.75176
291.16696
290.64563
290.17926
289.76073
289.3841
289.04439
288.73735
288.45939
288.20743
287.97881
287.77126
287.58278
287.41166
287.25637
287.11559
286.98815
286.87302
286.76929
286.67613
286.59283
286.51874
286.45329
286.39599
286.34641
286.3042
325.63292
318.14697
312.92196
308.96789
305.83695
303.28656
301.16848
299.3842
297.86431
296.55775
295.42586
294.43868
293.5726
292.80875
292.13189
291.52959
290.99163
290.50952
290.07621
289.68574
289.3331
289.01403
288.7249
288.46258
288.22438
288.00799
287.81137
287.63277
287.47064
287.32361
287.1905
287.07025
286.96191
286.86466
286.77776
286.70055
286.63245
286.57297
286.52166
286.47817
325.76779
318.41698
313.27815
309.37924
306.28158
303.74855
301.63628
299.84957
298.32153
297.00301
295.85675
294.85381
293.97134
293.19097
292.49782
291.8797
291.32655
290.82997
290.38295
289.97958
289.61484
289.28445
288.98476
288.71263
288.46533
288.24051
288.03612
287.85036
287.68167
287.52865
287.39009
287.26491
287.15214
287.05095
286.96058
286.88036
286.80971
286.74812
286.69514
286.6504
325.88927
318.6609
313.6012
309.75421
306.68922
304.17468
302.07039
300.28396
298.75067
297.42306
296.26516
295.24899
294.35238
293.5575
292.84985
292.21748
291.6505
291.14064
290.68097
290.26561
289.88955
289.54854
289.23891
288.95749
288.70156
288.46873
288.25693
288.06434
287.88937
287.73061
287.58682
287.4569
287.33988
287.2349
287.14119
287.05808
286.98497
286.92133
286.86673
286.82077
325.99943
318.88258
313.89576
310.09754
307.0643
304.56882
302.47404
300.68998
299.1538
297.81953
296.65233
295.62512
294.7164
293.90885
293.18832
292.54315
291.96362
291.44163
290.9703
290.54381
290.15722
289.80626
289.48728
289.19711
288.933
288.69257
288.47372
288.27462
288.09365
287.9294
287.7806
287.64614
287.52504
287.41642
287.3195
287.2336
287.15811
287.0925
287.03632
286.98918
326.09993
319.08515
314.16562
310.4132
307.41057
304.93434
302.85014
301.07006
299.53289
298.19396
297.01947
295.98314
295.06411
294.24553
293.51362
292.85698
292.26612
291.73305
291.251
290.81424
290.41785
290.0576
289.72984
289.43143
289.1596
288.91197
288.68643
288.48113
288.29444
288.12494
287.97135
287.83255
287.70753
287.59541
287.49541
287.40683
287.32905
287.26154
287.20383
287.15553
326.19209
319.27112
314.41391
310.70448
307.73123
305.27416
303.20124
301.42636
299.88973
298.54781
297.36774
296.32397
295.39622
294.56809
293.82616
293.1593
292.55821
292.01505
291.52318
291.07694
290.67146
290.30254
289.96658
289.66042
289.38132
289.12688
288.89499
288.6838
288.49167
288.31717
288.15901
288.01604
287.88728
287.77181
287.66885
287.57768
287.4977
287.42835
287.36917
287.31973
326.277
319.44259
314.64323
310.97419
308.02904
305.59085
303.52964
301.76087
300.22598
298.88247
297.69827
296.64851
295.71344
294.87709
294.12636
293.45041
292.84012
292.28782
291.78697
291.332
290.9181
290.54113
290.1975
289.88407
289.59812
289.33725
289.09936
288.88259
288.68529
288.50602
288.3435
288.19656
288.06421
287.94553
287.83973
287.74609
287.66399
287.59287
287.53224
287.48171
326.35556
319.60128
314.85577
311.22468
308.30637
305.88664
303.83736
302.07536
300.54319
299.19922
298.01213
296.95763
296.01647
295.17308
294.41468
293.73066
293.11212
292.55154
292.0425
291.57951
291.15784
290.77339
290.42261
290.10238
289.81
289.54308
289.29951
289.07745
288.87525
288.69145
288.52477
288.37405
288.23827
288.11652
288.008
287.91198
287.82784
287.755
287.69299
287.64138
326.4285
319.74863
315.05336
311.45798
308.56526
306.16349
304.12621
302.37146
300.84277
299.49927
298.31032
297.25216
296.306
295.45662
294.69154
294.0004
293.37449
292.80644
292.28994
291.8196
291.39076
290.99938
290.64194
290.31536
290.01695
289.74433
289.49542
289.26836
289.0615
288.87341
288.70277
288.54844
288.4094
288.28472
288.17359
288.07529
287.98918
287.9147
287.85135
287.79869
326.49645
319.88588
315.23758
311.67584
308.8075
306.42314
304.3978
302.65062
301.12598
299.78374
298.5938
297.53292
296.58269
295.72825
294.9574
294.26
293.62751
293.05272
292.52945
292.0524
291.61697
291.21918
290.85555
290.52304
290.21899
289.94102
289.68707
289.45529
289.24403
289.05186
288.87747
288.71971
288.57754
288.45006
288.33645
288.23596
288.14797
288.0719
288.00724
287.95357
326.55994
320.01406
315.40978
311.87975
309.03462
306.66709
304.65356
302.91416
301.39402
300.05365
298.86346
297.80065
296.84719
295.98852
295.2127
294.5098
293.87147
293.29064
292.76123
292.27804
291.83656
291.43285
291.06348
290.72546
290.41613
290.13315
289.87446
289.63822
289.42282
289.22678
289.04883
288.8878
288.74267
288.61252
288.49652
288.39395
288.30415
288.22655
288.16063
288.10597
326.6194
320.13407
315.57111
312.07101
309.248
306.8967
304.89477
303.16325
301.64796
300.30996
299.12013
298.05609
297.10011
296.23794
295.45787
294.75017
294.10667
293.52042
292.98546
292.49669
292.04965
291.64049
291.26581
290.92266
290.6084
290.32073
290.05759
289.81717
289.59784
289.39815
289.21682
289.0527
288.90475
288.77205
288.65378
288.5492
288.45767
288.3786
288.31147
288.25584
326.67521
320.24669
315.72259
312.25078
309.44882
307.11315
305.12259
303.39898
301.88878
300.55355
299.3646
298.2999
297.34204
296.47701
295.69333
294.98147
294.3334
293.7423
293.20234
292.70849
292.25638
291.8422
291.46261
291.11469
290.79585
290.50379
290.23648
289.99212
289.76909
289.56596
289.38144
289.21438
289.06374
288.92862
288.80818
288.70169
288.6085
288.52801
288.4597
288.40314
326.72772
320.35258
315.86508
312.42005
309.63814
307.31751
305.33804
303.62232
302.11738
300.78524
299.59759
298.53273
297.57352
296.7062
295.91949
295.20403
294.55194
293.95653
293.41207
292.91361
292.45687
292.03808
291.65396
291.30163
290.97852
290.68236
290.41115
290.16309
289.93658
289.7302
289.54266
289.37281
289.21963
289.08221
288.9597
288.85139
288.75659
288.67474
288.60531
288.54783
326.77719
320.45232
315.99937
312.5797
309.8169
307.51072
305.54204
303.83414
302.33458
301.00577
299.81978
298.75518
297.7951
296.92599
296.13676
295.4182
294.7626
294.16336
293.61485
293.11223
292.65125
292.22824
291.83995
291.48353
291.15645
290.85648
290.58162
290.33009
290.10032
289.89087
289.70047
289.52799
289.3724
289.23279
289.10831
288.99825
288.90194
288.81878
288.74825
288.68988
326.82389
320.54644
316.12613
312.73051
309.98592
307.69363
305.73544
304.03526
302.54112
301.21584
300.03179
298.96781
298.00726
297.1368
296.3455
295.62431
294.96564
294.36301
293.81089
293.3045
292.83968
292.41281
292.02068
291.66048
291.32972
291.0262
290.74793
290.49315
290.2603
290.04797
289.85489
289.67992
289.52204
289.38034
289.254
289.14227
289.0445
288.96008
288.8885
288.82928
326.86803
320.63538
316.24596
312.87317
310.14596
307.86701
305.91897
304.22638
302.7377
301.41609
300.23422
299.17116
298.21049
297.33905
296.54609
295.82268
295.16135
294.55573
294.00038
293.4906
293.0223
292.59189
292.19623
291.83255
291.49839
291.19156
290.91011
290.6523
290.41657
290.20152
290.0059
289.82858
289.66854
289.52487
289.39675
289.28344
289.18427
289.09865
289.02605
288.96599
326.90981
320.71954
316.3594
313.0083
310.29767
308.03152
306.09334
304.40818
302.92494
301.6071
300.42759
299.36571
298.40523
297.53315
296.73888
296.01362
295.34999
294.74175
294.18354
293.67071
293.19924
292.76561
292.36672
291.99983
291.66252
291.35262
291.0682
290.80756
290.56913
290.35154
290.15353
289.97399
289.81191
289.66637
289.53655
289.42173
289.32123
289.23445
289.16087
289.1
326.9494
320.79929
316.46693
313.13645
310.44166
308.1878
306.25914
304.58126
303.10343
301.78943
300.61242
299.55193
298.59189
297.71948
296.9242
296.19741
295.53184
294.92131
294.36054
293.84498
293.37066
292.9341
292.53225
292.1624
291.82218
291.50943
291.22226
290.95897
290.71802
290.49803
290.29778
290.11615
289.95214
289.80483
289.67341
289.55714
289.45537
289.36749
289.29296
289.23131
326.98696
320.87495
316.56897
313.25813
310.57846
308.33641
306.41696
304.74618
303.2737
301.96357
300.78919
299.73025
298.77088
297.89838
297.10239
296.37436
295.70713
295.09461
294.53159
294.01359
293.53669
293.09747
292.69291
292.32036
291.97745
291.66207
291.37234
291.10658
290.86326
290.64104
290.43868
290.25508
290.08924
289.94026
289.80732
289.68968
289.58669
289.49775
289.42231
289.3599
327.02263
320.94681
316.6659
313.37377
310.70856
308.47784
306.56729
304.90343
303.43622
302.12998
300.95831
299.90109
298.94257
298.0702
297.27374
296.54473
295.87611
295.26188
294.69689
294.17671
293.69749
293.25585
292.84883
292.47379
292.12841
291.81059
291.51848
291.25042
291.00491
290.78059
290.57625
290.3908
290.22323
290.07266
289.93828
289.81934
289.71519
289.62523
289.54892
289.48577
327.05654
321.01512
316.75808
313.48379
310.8324
308.61257
306.71061
305.05348
303.59147
302.28911
301.12021
300.06481
299.10731
298.23526
297.43854
296.7088
296.03903
295.42332
294.8566
294.33449
293.8532
293.40938
293.00011
292.62279
292.27513
291.95506
291.66075
291.39056
291.14299
290.91671
290.71051
290.52332
290.35413
290.20206
290.06631
289.94613
289.84088
289.74994
289.67279
289.60893
327.08881
321.08013
316.84582
313.58855
310.95039
308.74101
306.84734
305.19676
303.73984
302.44135
301.27527
300.22178
299.26543
298.39387
297.59708
296.8668
296.19611
295.57915
295.01092
294.48711
294.00395
293.55816
293.14685
292.76745
292.4177
292.09556
291.79921
291.52703
291.27754
291.04943
290.8415
290.65266
290.48195
290.32847
290.19142
290.07007
289.96376
289.87189
289.79393
289.72937
327.11954
321.14204
316.92941
313.68839
311.06289
308.86354
306.97788
305.33366
303.88173
302.58707
301.42383
300.37233
299.41723
298.5463
297.74962
297.01898
296.34756
295.72955
295.16003
294.63471
294.14989
293.70233
293.28917
292.90787
292.5562
292.23215
291.93391
291.65989
291.40862
291.1788
290.96923
290.77886
290.60671
290.4519
290.31362
290.19115
290.08384
289.99108
289.91234
289.84711
327.14882
321.20105
317.0091
313.78361
311.17023
308.98053
307.10259
305.46454
304.01749
302.72662
301.56622
300.51677
299.56303
298.69285
297.8964
297.16558
296.49359
295.87473
295.30408
294.77745
294.29116
293.84201
293.42717
293.04414
292.69072
292.3649
292.06493
291.78919
291.53627
291.30485
291.09376
290.90195
290.72845
290.57237
290.43293
290.30941
290.20114
290.10753
290.02803
289.96216
327.17676
321.25735
317.08514
313.87449
311.27272
309.09229
307.2218
305.58974
304.14745
302.86031
301.70276
300.6554
299.70308
298.83376
298.03768
297.3068
296.63442
296.01485
295.44326
294.91548
294.42789
293.97731
293.56096
293.17636
292.82133
292.4939
292.19232
291.915
291.66054
291.42763
291.21512
291.02196
290.84718
290.68992
290.54939
290.42486
290.31568
290.22125
290.14103
290.07453
327.20341
321.31108
317.15773
313.96129
311.37065
309.19912
307.33582
305.70956
304.27192
302.98845
301.83374
300.78848
299.83765
298.96928
298.17368
297.44288
296.77022
296.1501
295.57772
295.04895
294.56021
294.10836
293.69064
293.30462
292.94812
292.61921
292.31615
292.03737
291.78148
291.54719
291.33335
291.13892
290.96295
290.80457
290.663
290.53751
290.42747
290.33226
290.25135
290.18425
327.22887
321.36241
317.22709
314.04424
311.46427
309.3013
307.44493
305.82428
304.39117
303.11131
301.95941
300.91629
299.96699
299.09963
298.30461
297.57399
296.9012
296.28065
295.70761
295.178
294.68825
294.23527
293.81633
293.42902
293.07119
292.74092
292.43649
292.15636
291.89914
291.66356
291.44848
291.25287
291.07578
290.91635
290.77379
290.64741
290.53654
290.44059
290.35901
290.29132
327.2532
321.41147
317.29339
314.12355
311.55382
309.39908
307.54939
305.93419
304.50548
303.22915
302.08004
301.03905
300.09133
299.22505
298.43067
297.70034
297.02751
296.40667
295.8331
295.30276
294.81213
294.35815
293.93812
293.54964
293.1906
292.85908
292.55341
292.27204
292.01358
291.77681
291.56057
291.36385
291.18571
291.02529
290.88181
290.75457
290.64291
290.54625
290.46403
290.39577
327.27646
321.45838
317.35681
314.19944
311.63952
309.49269
307.64945
306.03951
304.6151
303.34223
302.19587
301.15701
300.21088
299.34573
298.55208
297.82211
297.14935
296.5283
295.95431
295.42337
294.93199
294.47713
294.05612
293.66659
293.30644
292.9738
292.66697
292.38445
292.12486
291.88698
291.66966
291.47191
291.29277
291.13142
290.98707
290.85902
290.74662
290.64927
290.56644
290.49764
327.29871
321.50327
317.4175
314.27207
311.72158
309.58236
307.74533
306.14048
304.72024
303.45075
302.3071
301.27037
300.32585
299.46187
298.669
297.93948
297.26686
296.64571
296.07141
295.53996
295.04793
294.5923
294.17042
293.77995
293.4188
293.08513
292.77725
292.49367
292.23303
291.99411
291.7758
291.57707
291.39702
291.23479
291.08961
290.96079
290.84768
290.74969
290.66627
290.59693
327.32
321.54623
317.4756
314.34162
311.80018
309.66828
307.83724
306.23732
304.82113
303.55495
302.41396
301.37934
300.43644
299.57367
298.78162
298.05261
297.38021
296.75904
296.18451
295.65266
295.16008
294.70377
294.28112
293.88981
293.52776
293.19315
292.88431
292.59975
292.33815
292.09827
291.87903
291.6794
291.49848
291.33542
291.18947
291.05993
290.94614
290.84753
290.76354
290.69369
327.34039
321.58738
317.53125
314.40826
311.8755
309.75064
307.92538
306.33023
304.91797
303.65501
302.51664
301.48411
300.54284
299.68129
298.89011
298.16165
297.48955
296.86844
296.29375
295.76159
295.26854
294.81166
294.38833
293.99626
293.63341
293.29794
292.98822
292.70277
292.44027
292.19951
291.9794
291.77893
291.59719
291.43337
291.28668
291.15645
291.04202
290.94282
290.85829
290.78794
327.35992
321.6268
317.58457
314.47212
311.94771
309.82961
308.00992
306.41939
305.01094
303.75113
302.61532
301.58485
300.64521
299.7849
298.99462
298.26677
297.59501
296.97402
296.39927
295.86686
295.37344
294.91606
294.49214
294.0994
293.73581
293.39957
293.08905
292.80278
292.53946
292.29788
292.07696
291.8757
291.69321
291.52866
291.38129
291.2504
291.13536
291.03559
290.95054
290.87972
327.37864
321.66458
317.63569
314.53335
312.01695
309.90537
308.09105
306.50497
305.10022
303.84347
302.71018
301.68175
300.74372
299.88466
299.09532
298.36811
297.69675
297.07594
296.50118
295.9686
295.47487
295.01707
294.59263
294.19929
293.83505
293.49811
293.18686
292.89985
292.63577
292.39343
292.17176
291.96978
291.78658
291.62134
291.47332
291.34182
291.2262
291.12589
291.04033
290.96905
327.39658
321.7008
317.6847
314.59207
312.08337
309.97806
308.16892
306.58715
305.18599
303.93222
302.80138
301.77495
300.83854
299.98073
299.19234
298.46581
297.79489
297.17431
296.59959
296.06691
295.57294
295.11478
294.6899
294.29604
293.93122
293.59365
293.28173
292.99404
292.72926
292.48622
292.26386
292.06119
291.87733
291.71145
291.56282
291.43073
291.31457
291.21374
291.12771
291.05597
327.41378
321.73554
317.73171
314.6484
312.14711
310.04783
308.24368
306.66607
305.26839
304.01751
302.88908
301.86462
300.9298
300.07325
299.28582
298.55999
297.88955
297.26925
296.69464
296.1619
295.66775
295.20931
294.78404
294.38973
294.02438
293.68625
293.37373
293.08541
292.81999
292.57631
292.3533
292.15
291.96552
291.79904
291.64983
291.51719
291.4005
291.29918
291.21269
291.14053
327.43027
321.76886
317.77681
314.70245
312.20827
310.11481
308.31547
306.74188
305.34757
304.09951
302.97343
301.9509
301.01765
300.16236
299.3759
298.6508
297.98086
297.36087
296.78641
296.25368
295.7594
295.30072
294.87513
294.48042
294.11462
293.77597
293.46291
293.17402
292.90802
292.66374
292.44014
292.23625
292.05119
291.88415
291.73439
291.60123
291.48405
291.38226
291.29532
291.22274
327.4461
321.80083
317.82009
314.75433
312.267
310.17912
308.38443
306.81472
305.42367
304.17835
303.05455
302.03392
301.10222
300.24818
299.4627
298.73835
298.06894
297.4493
296.87503
296.34234
295.84799
295.38913
294.96327
294.56821
294.202
293.8629
293.54935
293.25994
292.9934
292.74858
292.52443
292.31999
292.13438
291.96682
291.81655
291.6829
291.56524
291.463
291.37564
291.30266
327.46128
321.83152
317.86164
314.80414
312.32338
310.24089
308.45067
306.88471
305.49682
304.25416
303.13259
302.11382
301.18365
300.33084
299.54635
298.82275
298.1539
297.53464
296.96059
296.42799
295.9336
295.47461
295.04852
294.65317
294.28661
293.94711
293.63311
293.34323
293.0762
292.83087
292.60621
292.40126
292.21515
292.04709
291.89634
291.76223
291.64413
291.54146
291.45369
291.38032
327.47586
321.86098
317.90152
314.85196
312.37753
310.30022
308.51431
306.95198
305.56715
304.32707
303.20767
302.19071
301.26204
300.41046
299.62695
298.90412
298.23585
297.61699
297.04319
296.51071
296.01633
295.55724
295.13098
294.73538
294.36851
294.02865
293.71426
293.42395
293.15647
292.91068
292.68555
292.48013
292.29355
292.12502
291.97382
291.83927
291.72074
291.61766
291.5295
291.45576
327.48985
321.88927
317.93983
314.89789
312.42955
310.35723
308.57547
307.01664
305.63476
304.39719
303.2799
302.26472
301.33753
300.48716
299.70463
298.98257
298.31488
297.69645
297.12292
296.5906
296.09626
295.63712
295.21072
294.81491
294.44777
294.1076
293.79285
293.50216
293.23427
292.98806
292.76249
292.55663
292.36961
292.20065
292.04902
291.91405
291.79512
291.69165
291.60312
291.52902
327.50328
321.91643
317.97661
314.94201
312.47952
310.412
308.63425
307.0788
305.69978
304.46464
303.34941
302.33595
301.41021
300.56104
299.77948
299.05819
298.3911
297.77311
297.19989
296.66775
296.17348
295.71432
295.28782
294.89184
294.52447
294.18402
293.86896
293.57792
293.30966
293.06305
292.83708
292.63082
292.44339
292.27403
292.122
291.98663
291.86732
291.76348
291.67458
291.60014
327.51618
321.94251
318.01195
314.9844
312.52753
310.46463
308.69075
307.13856
305.76231
304.52952
303.41629
302.40452
301.48019
300.6322
299.8516
299.13109
298.46461
297.84707
297.27418
296.74224
296.24807
295.78892
295.36235
294.96624
294.59868
294.25798
293.94264
293.65128
293.38268
293.13572
292.90939
292.70274
292.51494
292.34519
292.19278
292.05705
291.93737
291.83317
291.74393
291.66915
327.52856
321.96757
318.04589
315.02512
312.57367
310.51522
308.74506
307.19602
305.82245
304.59193
303.48064
302.47052
301.54758
300.70075
299.92111
299.20137
298.5355
297.91843
297.34587
296.81415
296.32012
295.861
295.43439
295.03817
294.67045
294.32954
294.01395
293.72231
293.45341
293.20613
292.97945
292.77245
292.5843
292.41419
292.26143
292.12534
292.00532
291.90078
291.81121
291.73611
327.54046
321.99164
318.0785
315.06424
312.618
310.56384
308.79727
307.25127
305.88028
304.65198
303.54257
302.53405
301.61247
300.76677
299.98807
299.2691
298.60385
297.98725
297.41505
296.88358
296.38968
295.93063
295.50401
295.10771
294.73985
294.39877
294.08296
293.79107
293.52189
293.27431
293.04732
292.84
292.65151
292.48108
292.32798
292.19156
292.07121
291.96635
291.87646
291.80105
327.55188
322.01477
318.10984
315.10184
312.66061
310.61058
308.84747
307.30439
305.93591
304.70974
303.60217
302.59521
301.67495
300.83037
300.0526
299.33439
298.66975
298.05363
297.48179
296.95058
296.45685
295.99788
295.57127
295.17492
294.80696
294.46572
294.14972
293.85761
293.58818
293.34033
293.11305
292.90543
292.71664
292.54589
292.39248
292.25574
292.13508
292.02991
291.93972
291.864
327.56286
322.03699
318.13995
315.13797
312.70157
310.6555
308.89572
307.35548
305.98941
304.76532
303.65951
302.65407
301.7351
300.89161
300.11476
299.39731
298.73328
298.11765
297.54618
297.01524
296.5217
296.06283
295.63625
295.23987
294.87183
294.53046
294.21429
293.92198
293.65233
293.40423
293.17669
292.96879
292.77971
292.60867
292.45497
292.31794
292.19697
292.09151
292.00103
291.92503
327.5734
322.05833
318.16888
315.1727
312.74093
310.69869
308.94212
307.4046
306.04087
304.81878
303.7147
302.71073
301.79302
300.9506
300.17464
299.45794
298.79452
298.17938
297.6083
297.07764
296.58429
296.12554
295.69901
295.30262
294.93452
294.59305
294.27674
293.98425
293.71439
293.46607
293.23829
293.03014
292.84079
292.66948
292.51549
292.37818
292.25694
292.1512
292.06043
291.98415
327.58353
322.07885
318.19668
315.20607
312.77876
310.7402
308.98673
307.45185
306.09037
304.87021
303.7678
302.76527
301.84878
301.00741
300.23233
299.51637
298.85355
298.2389
297.6682
297.13783
296.64469
296.18607
295.75962
295.36324
294.99509
294.65354
294.3371
294.04446
293.77442
293.5259
293.29789
293.08951
292.89991
292.72835
292.5741
292.43652
292.31501
292.209
292.11797
292.04142
327.59325
322.09856
318.2234
315.23814
312.81513
310.78011
309.02962
307.49727
306.13797
304.91969
303.81889
302.81775
301.90247
301.06211
300.2879
299.57266
298.91044
298.29628
297.72597
297.1959
296.70297
296.2445
295.81813
295.42177
295.05361
294.71199
294.39545
294.10267
293.83247
293.58376
293.35555
293.14695
292.95713
292.78532
292.63083
292.49301
292.37124
292.26498
292.17369
292.09688
327.6026
322.1175
318.24908
315.26897
312.85008
310.81848
309.07086
307.54096
306.18375
304.96729
303.86805
302.86827
301.95414
301.11478
300.34141
299.62688
298.96527
298.35159
297.78167
297.2519
296.7592
296.30089
295.87461
295.4783
295.11012
294.76845
294.45183
294.15894
293.88859
293.63971
293.41132
293.20252
293.01248
292.84045
292.68573
292.54767
292.42566
292.31915
292.22762
292.15056
327.61157
322.13569
318.27375
315.29859
312.88368
310.85536
309.1105
307.58296
306.22779
305.01307
303.91535
302.91687
302.00388
301.16549
300.39295
299.67912
299.01809
298.4049
297.83536
297.30591
296.81344
296.35529
295.92912
295.53286
295.16469
294.82299
294.50629
294.2133
293.94283
293.6938
293.46524
293.25625
293.06602
292.89378
292.73884
292.60056
292.47832
292.37158
292.27981
292.20251
327.62019
322.15318
318.29746
315.32706
312.91597
310.89081
309.14862
307.62335
306.27013
305.05711
303.96085
302.96364
302.05175
301.2143
300.44257
299.72943
299.06898
298.45627
297.88712
297.35797
296.86574
296.40777
295.98171
295.58552
295.21737
294.87565
294.5589
294.26582
293.99523
293.74607
293.51736
293.3082
293.11778
292.94535
292.79021
292.65171
292.52926
292.42229
292.33029
292.25277
327.62847
322.16997
318.32024
315.35442
312.94701
310.92488
309.18526
307.66218
306.31085
305.09946
304.00462
303.00865
302.09781
301.26129
300.49035
299.77788
299.11799
298.50576
297.937
297.40816
296.91618
296.45838
296.03245
295.63633
295.26821
294.92648
294.60969
294.31654
294.04586
293.79657
293.56772
293.3584
293.16782
292.9952
292.83987
292.70117
292.57851
292.47134
292.37912
292.30137
327.63642
322.18611
318.34213
315.38071
312.97683
310.95763
309.22047
307.69951
306.35
305.14019
304.04673
303.05194
302.14214
301.30651
300.53634
299.82453
299.1652
298.55343
297.98506
297.45653
296.96479
296.50718
296.08138
295.68535
295.31727
294.97554
294.65872
294.36551
294.09474
293.84535
293.61637
293.40691
293.21616
293.04338
292.88787
292.74898
292.62613
292.51875
292.42632
292.34836
327.64406
322.20161
318.36316
315.40597
313.00549
310.9891
309.25433
307.73539
306.38764
305.17935
304.08721
303.09358
302.18478
301.35002
300.5806
299.86944
299.21066
298.59935
298.03136
297.50314
297.01165
296.55423
296.12857
295.73262
295.3646
295.02288
294.70604
294.41278
294.14194
293.89245
293.66335
293.45376
293.26287
293.08993
292.93424
292.79518
292.67214
292.56457
292.47194
292.39378
327.65139
322.21651
318.38337
315.43024
313.03303
311.01935
309.28686
307.76989
306.42383
305.21701
304.12615
303.13363
302.22581
301.39189
300.6232
299.91266
299.25442
298.64356
298.07595
297.54805
297.0568
296.59957
296.17405
295.77821
295.41024
295.06855
294.75169
294.4584
294.18749
293.93792
293.70871
293.499
293.30797
293.13488
292.97904
292.83981
292.71659
292.60884
292.51602
292.43766
327.65843
322.23081
318.40277
315.45356
313.05948
311.04841
309.31812
307.80304
306.45861
305.25321
304.16359
303.17215
302.26527
301.43217
300.66419
299.95427
299.29654
298.68613
298.11889
297.5913
297.1003
296.64327
296.21789
295.82215
295.45425
295.11258
294.79573
294.5024
294.23144
293.98179
293.7525
293.54268
293.35152
293.17829
293.0223
292.88291
292.75952
292.65159
292.55859
292.48004
327.66518
322.24454
318.42141
315.47595
313.0849
311.07633
309.34816
307.83489
306.49204
305.288
304.19958
303.20918
302.30321
301.47091
300.70362
299.99429
299.33709
298.72711
298.16024
297.63295
297.1422
296.68536
296.26014
295.8645
295.49667
295.15504
294.83819
294.54485
294.27384
294.02412
293.79474
293.58482
293.39355
293.22019
293.06406
292.92452
292.80097
292.69287
292.5997
292.52097
327.67167
322.25773
318.43931
315.49746
313.10931
311.10315
309.37702
307.8655
306.52416
305.32145
304.23417
303.24478
302.3397
301.50816
300.74155
300.0328
299.37609
298.76655
298.20004
297.67304
297.18254
296.7259
296.30083
295.90531
295.53755
295.19596
294.87913
294.58577
294.31473
294.06495
293.83549
293.62548
293.4341
293.26062
293.10436
292.96467
292.84098
292.73272
292.63938
292.56047
327.67789
322.27039
318.4565
315.51812
313.13275
311.12891
309.40474
307.8949
306.55502
305.35358
304.26742
303.279
302.37477
301.54399
300.77802
300.06984
299.41362
298.80449
298.23834
297.71164
297.22138
296.76494
296.34002
295.94462
295.57694
295.2354