/*--------------------------------*- C++ -*----------------------------------*\
| =========                 |                                                 |
| \\      /  F ield         | OpenFOAM: The Open Source CFD Toolbox           |
|  \\    /   O peration     | Version:  2506                                  |
|   \\  /    A nd           | Website:  www.openfoam.com                      |
|    \\/     M anipulation  |                                                 |
\*---------------------------------------------------------------------------*/
FoamFile
{
    version     2.0;
    format      ascii;
    arch        "LSB;label=32;scalar=64";
    class       volScalarField;
    location    "4000/rock";
    object      T;
}
// * * * * * * * * * * * * * * * * * * * * * * * * * * * * * * * * * * * * * //

dimensions      [0 0 0 1 0 0 0];

internalField   nonuniform List<scalar> 
2500
(
315.05089
304.03741
298.34024
294.94968
292.74376
291.21595
290.10751
289.27405
288.62942
288.11937
287.70825
287.37174
287.09279
286.85908
286.66153
286.49332
286.34921
286.22513
286.11783
286.02468
285.94348
285.8723
285.80933
285.75265
285.69993
319.2976
309.19835
303.2271
299.32626
296.61904
294.65738
293.18768
292.05646
291.16621
290.45249
289.87131
289.39178
288.99171
288.65479
288.36881
288.12448
287.9146
287.73354
287.57678
287.4407
287.32228
287.21898
287.12861
287.04921
286.97905
321.14584
312.06688
306.39302
302.47781
299.62768
297.47917
295.81712
294.5046
293.45018
292.59073
291.88143
291.28977
290.7917
290.36914
290.00828
289.69842
289.43119
289.19992
288.9993
288.82499
288.67345
288.54176
288.42749
288.32865
288.24362
322.24478
313.91951
308.59533
304.81395
301.97815
299.77974
298.0359
296.62833
295.47614
294.52188
293.7236
293.05005
292.47751
291.98777
291.56663
291.20289
290.88767
290.61382
290.37557
290.1682
289.98786
289.83139
289.69619
289.58016
289.48165
323.0146
315.25508
310.23938
306.62148
303.85897
301.67698
299.91442
298.46741
297.26452
296.25443
295.39907
294.66957
294.04365
293.50385
293.03637
292.63016
292.27629
291.96753
291.69796
291.46273
291.25785
291.08001
290.92653
290.79522
290.68433
323.60507
316.29086
311.53656
308.07683
305.40558
303.26937
301.5215
300.06827
298.84551
297.80706
296.91852
296.15355
295.49161
294.9164
294.41487
293.97646
293.59254
293.25605
292.96113
292.70296
292.47753
292.28152
292.1122
291.96732
291.84506
324.08376
317.13444
312.60277
309.28735
306.70928
304.63033
302.91383
301.47328
300.24989
299.20151
298.29678
297.51162
296.82716
296.22833
295.70296
295.24113
294.83466
294.47678
294.16185
293.88519
293.64285
293.43157
293.24861
293.09173
292.95908
324.48618
317.8451
313.50575
310.32012
307.83124
305.81264
304.13515
302.71758
301.50513
300.45874
299.54946
298.75508
298.05819
297.44486
296.90379
296.4257
296.00292
295.62904
295.2987
295.00741
294.75136
294.52737
294.33277
294.16532
294.02316
324.83307
318.45841
314.28762
311.21863
308.81305
306.85405
305.21841
303.82906
302.63425
301.59733
300.69123
299.89528
299.19329
298.57229
298.02178
297.53309
297.09903
296.71358
296.37167
296.06901
295.80199
295.56752
295.36301
295.18626
295.03543
325.13757
318.99717
314.97595
312.01219
309.68368
307.78183
306.18835
304.8295
303.656
302.63308
301.73517
300.94285
300.24092
299.61724
299.06199
298.56705
298.12566
297.73218
297.38181
297.07049
296.79477
296.55169
296.33876
296.15384
295.9951
325.40848
319.47675
315.5896
312.72126
310.46386
308.61601
307.06368
305.73593
304.58549
303.57914
302.69256
301.90729
301.20898
300.58619
300.02964
299.53171
299.08603
298.68728
298.33092
298.01311
297.73056
297.48045
297.26037
297.06824
296.90228
325.65201
319.90801
316.14201
313.3606
311.16879
309.3716
307.85873
306.56168
305.43489
304.44643
303.573
302.79697
302.10466
301.48522
300.92985
300.43133
299.98364
299.58173
299.22131
298.89874
298.61086
298.355
298.12882
297.93032
297.75777
325.87264
320.29883
316.64303
313.94116
311.8099
310.06005
308.58465
307.31735
306.21406
305.24399
304.38466
303.61916
302.93439
302.31996
301.76749
301.2701
300.82208
300.41861
300.05561
299.72961
299.43761
299.17704
298.94564
298.74149
298.56289
326.07378
320.65517
317.1001
314.47128
312.39597
310.69028
309.25025
308.01143
306.93107
305.97932
305.13447
304.38019
303.70386
303.09551
302.54711
302.05207
301.60491
301.20106
300.8366
300.50821
300.21303
299.94858
299.71269
299.5035
299.31936
326.25802
320.98161
317.51901
314.95744
312.93394
311.2694
309.86262
308.65087
307.59259
306.65877
305.82837
305.08556
304.41815
303.81653
303.27294
302.78105
302.33561
301.93222
301.56713
301.23715
300.93952
300.67185
300.43208
300.21837
300.02913
326.42741
321.28176
317.9043
315.40484
313.42934
311.80314
310.42753
309.24138
308.20418
307.28769
306.47145
305.74009
305.08177
304.48719
303.94886
303.46065
303.0175
302.61517
302.25005
301.91907
301.61956
301.34922
301.10604
300.88826
300.69433
326.58362
321.55855
318.2597
315.81767
313.88671
312.29622
310.9498
309.78776
308.77057
307.87069
307.06815
306.348
305.69874
305.11131
304.57845
304.09423
303.65374
303.25288
302.88816
302.55661
302.25566
301.98308
301.73691
301.51545
301.31718
326.728
321.81439
318.58825
316.19944
314.30984
312.75261
311.43349
310.29411
309.29583
308.41174
307.62235
306.91306
306.27266
305.69234
305.16501
304.68492
304.24731
303.84818
303.48417
303.15238
302.85032
302.57583
302.32702
302.10221
301.89993
326.86169
322.05128
318.89252
316.55307
314.70191
313.17566
311.88204
310.76392
309.78346
308.91433
308.13747
307.43861
306.80679
306.2334
305.71156
305.23564
304.801
304.40378
304.04067
303.70887
303.40596
303.12984
302.87866
302.6508
302.4448
326.98566
322.27093
319.17468
316.88108
315.06565
313.56827
312.29848
311.20026
310.23655
309.38154
308.61656
307.92764
307.30406
306.73739
306.22089
305.7491
305.31746
304.92221
304.56013
304.22849
303.92493
303.6474
303.39409
303.16343
302.954
327.10073
322.47484
319.43663
317.18563
315.40346
313.93297
312.68542
311.60583
310.65783
309.81612
309.06236
308.38287
307.76714
307.20691
306.69559
306.22781
305.79914
305.40589
305.04492
304.71355
304.40949
304.13072
303.8755
303.64226
303.42964
327.20765
322.66428
319.68001
317.46864
315.71741
314.27199
313.04519
311.98302
311.04975
310.22052
309.47733
308.80676
308.19847
307.64438
307.13802
306.67412
306.24835
305.85708
305.49724
305.16622
304.86177
304.58192
304.32495
304.08935
303.87376
327.30704
322.8404
319.9063
317.73178
316.00936
314.58731
313.37987
312.33397
311.41448
310.59696
309.86371
309.20154
308.6003
308.05203
307.55039
307.09021
306.66723
306.27789
305.9192
305.58858
305.28382
305.003
304.74444
304.50666
304.28832
327.39949
323.00421
320.11678
317.97657
316.28099
314.88069
313.69132
312.66062
311.75401
310.94746
310.22354
309.56927
308.97466
308.4319
307.93474
307.4781
307.05779
306.67033
306.31276
305.98256
305.67756
305.39588
305.13587
304.89606
304.67516
327.4855
323.15664
320.31264
318.20437
316.53377
315.15376
313.98124
312.96472
312.07016
311.27386
310.55869
309.91183
309.32346
308.78589
308.29296
307.83967
307.42191
307.03624
306.67977
306.35
306.04482
305.76236
305.50101
305.25933
305.03605
327.56555
323.29849
320.49494
318.41639
316.76908
315.40797
314.25115
313.24787
312.36456
311.57785
310.87086
310.23095
309.64844
309.11574
308.62679
308.17668
307.76134
307.37738
307.02196
306.69263
306.38729
306.10413
305.84155
305.59814
305.37264
327.64005
323.43054
320.66463
318.61377
316.98814
315.64465
314.50247
313.51154
312.63872
311.86098
311.16163
310.52823
309.9512
309.42308
308.93789
308.49076
308.07769
307.69536
307.34095
307.01205
306.70659
306.42279
306.15907
305.91405
305.68649
327.7094
323.55346
320.8226
318.79753
317.19209
315.86501
314.73648
313.75707
312.89405
312.12467
311.43247
310.80514
310.23326
309.70943
309.22775
308.78342
308.37251
307.99171
307.63825
307.30977
307.00422
306.71983
306.45506
306.20854
305.97906
327.77393
323.66787
320.96965
318.9686
317.38197
316.07018
314.95437
313.98569
313.13181
312.37024
311.68471
311.06307
310.49599
309.97617
309.49778
309.05609
308.64719
308.26784
307.9153
307.58721
307.28158
306.99666
306.73092
306.48301
306.25174
327.83398
323.77437
321.10654
319.12785
317.55874
316.2612
315.15724
314.19856
313.3532
312.59891
311.91961
311.30327
310.74068
310.22461
309.74931
309.31008
308.90308
308.52508
308.17339
307.84569
307.54
307.25458
306.98794
306.73874
306.50581
327.88985
323.87348
321.23394
319.27607
317.72327
316.439
315.34608
314.39673
313.55931
312.81181
312.13831
311.52692
310.96852
310.45596
309.98354
309.54661
309.14138
308.76467
308.41378
308.08644
307.78069
307.49482
307.22735
306.97695
306.74247
327.94182
323.96569
321.35249
319.41401
317.8764
316.60448
315.52184
314.58117
313.75115
313.00998
312.3419
311.73512
311.18063
310.67134
310.2016
309.76683
309.36326
308.98774
308.63761
308.31062
308.00482
307.71853
307.45028
307.19877
306.96285
327.99013
324.05146
321.46278
319.54234
318.01887
316.75844
315.68538
314.7528
313.92966
313.19439
312.53135
311.92888
311.37803
310.87179
310.40456
309.97181
309.56978
309.19538
308.84596
308.51929
308.21345
307.92678
307.65781
307.40526
307.168
328.03503
324.13122
321.56535
319.66169
318.15138
316.90165
315.8375
314.91244
314.09572
313.36594
312.7076
312.10913
311.56168
311.05828
310.5934
310.16252
309.76194
309.38857
309.03982
308.71346
308.40759
308.12056
307.85092
307.59741
307.3589
328.07674
324.20535
321.66069
319.77265
318.27458
317.03481
315.97895
315.06089
314.25014
313.52546
312.8715
312.27676
311.73247
311.23172
310.76902
310.33989
309.94066
309.56827
309.22013
308.89406
308.58816
308.30079
308.03054
307.77613
307.53646
328.11546
324.27421
321.74929
319.87577
318.38907
317.15856
316.11041
315.19887
314.39367
313.67374
313.02384
312.43258
311.89123
311.39295
310.93227
310.50477
310.1068
309.73532
309.38776
309.06196
308.75603
308.46836
308.19753
307.94229
307.70155
328.15138
324.33815
321.83156
319.97154
318.49542
317.27352
316.23253
315.32704
314.527
313.81149
313.16538
312.57735
312.03873
311.54274
311.08396
310.65797
310.26117
309.89053
309.54351
309.21796
308.91201
308.62406
308.35269
308.09668
307.85494
328.18468
324.39748
321.90792
320.06043
318.59414
317.38023
316.3459
315.44604
314.65079
313.93939
313.29679
312.71176
312.17569
311.68183
311.2248
310.80022
310.4045
310.03465
309.68814
309.36282
309.05685
308.76864
308.49678
308.24005
307.99738
328.21553
324.45248
321.97873
320.14288
318.68571
317.47922
316.45107
315.55643
314.76564
314.05804
313.41871
312.83646
312.30276
311.81088
311.35548
310.93221
310.5375
310.16838
309.82234
309.49724
309.19125
308.90279
308.63048
308.37309
308.12955
328.24407
324.50344
322.04435
320.21929
318.77058
317.57097
316.54855
315.65876
314.8721
314.16804
313.53173
312.95207
312.42055
311.93051
311.47663
311.05458
310.66081
310.29237
309.94676
309.62186
309.31586
309.02718
308.75444
308.49643
308.2521
328.27046
324.55059
322.10509
320.29004
318.84916
317.65594
316.63883
315.75352
314.97069
314.26991
313.6364
313.05914
312.52966
312.04132
311.58884
311.16791
310.77502
310.4072
310.062
309.73729
309.43128
309.14239
308.86925
308.61068
308.3656
328.29482
324.59417
322.16125
320.35546
318.92184
317.73452
316.72233
315.84118
315.06189
314.36414
313.73324
313.15819
312.63059
312.14383
311.69265
311.27277
310.88068
310.51345
310.16862
309.84409
309.53806
309.24898
308.97548
308.71638
308.47062
328.31728
324.6344
322.21311
320.41588
318.98897
317.8071
316.79946
315.92215
315.14614
314.4512
313.8227
313.2497
312.72384
312.23854
311.78856
311.36964
310.9783
310.61161
310.26713
309.94277
309.63673
309.34747
309.07364
308.81405
308.56766
328.33795
324.67147
322.26092
320.47159
319.05087
317.87405
316.8706
315.99684
315.22385
314.5315
313.90522
313.33412
312.80987
312.32591
311.87704
311.45902
311.06836
310.70218
310.35801
310.0338
309.72775
309.43833
309.16419
308.90415
308.65718
328.35693
324.70557
322.30491
320.52286
319.10786
317.93568
316.9361
316.06561
315.29541
314.60544
313.98121
313.41186
312.88908
312.40637
311.95852
311.54132
311.1513
310.78558
310.44171
310.11764
309.81158
309.52201
309.24759
308.98714
308.73962
328.37432
324.73687
322.34531
320.56996
319.1602
317.99229
316.99627
316.12879
315.36115
314.67338
314.05103
313.48328
312.96187
312.4803
312.03339
311.61695
311.22752
310.86222
310.51862
310.19468
309.88862
309.59891
309.32422
309.06339
308.81539
328.39022
324.76551
322.38231
320.6131
319.20816
318.04417
317.05142
316.18669
315.42141
314.73565
314.11502
313.54875
313.02859
312.54807
312.10203
311.68628
311.29738
310.93247
310.58913
310.2653
309.95923
309.6694
309.39448
309.1333
308.88484
328.40469
324.79165
322.41608
320.6525
319.25197
318.09157
317.1018
316.2396
315.47647
314.79255
314.1735
313.60858
313.08956
312.61
312.16475
311.74964
311.36123
310.99668
310.65356
310.32985
310.02378
309.73383
309.45869
309.19719
308.94832
328.41781
324.81542
322.44681
320.68835
319.29184
318.13471
317.14766
316.28777
315.52659
314.84436
314.22675
313.66306
313.14509
312.6664
312.22187
311.80734
311.41938
311.05515
310.71225
310.38863
310.08256
309.79251
309.51717
309.25538
309.00614
328.42966
324.83693
322.47464
320.72084
319.32797
318.17381
317.18924
316.33143
315.57204
314.89134
314.27503
313.71246
313.19543
312.71754
312.27367
311.85966
311.47212
311.10818
310.76547
310.44194
310.13586
309.84572
309.5702
309.30815
309.05857
328.44029
324.85629
322.49971
320.75011
319.36055
318.20906
317.22672
316.37081
315.61303
314.9337
314.31858
313.75702
313.24085
312.76367
312.32039
311.90687
311.51969
311.15602
310.81348
310.49004
310.18395
309.89373
309.61805
309.35576
309.10587
328.44975
324.87359
322.52215
320.77633
319.38972
318.24064
317.26031
316.40609
315.64976
314.97167
314.35761
313.79695
313.28155
312.80502
312.36228
311.94918
311.56233
311.1989
310.85652
310.53315
310.22707
309.93676
309.66094
309.39845
309.14828
328.45811
324.88893
322.54206
320.7996
319.41563
318.26871
317.29016
316.43745
315.68241
315.00543
314.39231
313.83246
313.31774
312.84179
312.39952
311.9868
311.60025
311.23704
310.8948
310.5715
310.26541
309.97504
309.69909
309.43641
309.18599
328.4654
324.90239
322.55955
320.82006
319.43842
318.29339
317.31642
316.46505
315.71114
315.03513
314.42285
313.86372
313.34961
312.87416
312.43231
312.01993
311.63364
311.27062
310.9285
310.60526
310.29917
310.00875
309.73268
309.46983
309.2192
328.47166
324.91402
322.5747
320.83781
319.45819
318.31481
317.33922
316.48901
315.7361
315.06094
314.44939
313.89088
313.37729
312.90229
312.46081
312.04872
311.66266
311.29981
310.9578
310.63461
310.32852
310.03805
309.76188
309.49889
309.24807
328.47693
324.9239
322.5876
320.85292
319.47505
318.33309
317.35868
316.50947
315.75741
315.08298
314.47205
313.91407
313.40094
312.92633
312.48515
312.07332
311.68746
311.32475
310.98283
310.65969
310.3536
310.06308
309.78683
309.52372
309.27274
328.48123
324.93207
322.5983
320.86549
319.48908
318.34831
317.37489
316.52651
315.77517
315.10135
314.49095
313.93342
313.42067
312.94637
312.50547
312.09385
311.70815
311.34556
311.00372
310.68062
310.37453
310.08398
309.80766
309.54445
309.29334
328.48459
324.93857
322.60687
320.87557
319.50035
318.36054
317.38793
316.54024
315.78947
315.11616
314.50618
313.94902
313.43658
312.96254
312.52185
312.11041
311.72484
311.36235
311.02058
310.69751
310.39142
310.10084
309.82447
309.56118
309.30996
328.48702
324.94345
322.61334
320.88322
319.50892
318.36986
317.39787
316.55071
315.8004
315.12747
314.51782
313.96094
313.44875
312.97491
312.53439
312.12308
311.73762
311.37521
311.03348
310.71044
310.40436
310.11376
309.83734
309.57399
309.32268
328.48856
324.94672
322.61775
320.88847
319.51483
318.37631
317.40477
316.55798
315.80799
315.13534
314.52593
313.96925
313.45723
312.98354
312.54314
312.13193
311.74655
311.38419
311.0425
310.71948
310.4134
310.12279
309.84635
309.58295
309.33159
328.48919
324.94842
322.62013
320.89136
319.51812
318.37992
317.40865
316.56209
315.8123
315.13981
314.53055
313.974
313.46208
312.98848
312.54815
312.137
311.75167
311.38935
311.04768
310.72467
310.4186
310.12798
309.85152
309.5881
309.33671
328.48894
324.94854
322.6205
320.8919
319.5188
318.38072
317.40955
316.56307
315.81334
315.14092
314.53171
313.9752
313.46332
312.98976
312.54946
312.13833
311.75301
311.39071
311.04906
310.72605
310.41998
310.12937
309.85291
309.58948
309.33808
328.48781
324.94709
322.61885
320.8901
319.51689
318.37871
317.40746
316.56092
315.81113
315.13866
314.52942
313.97287
313.46097
312.98738
312.54706
312.13592
311.75059
311.38828
311.04663
310.72363
310.41756
310.12695
309.8505
309.58709
309.3357
328.48578
324.94407
322.61518
320.88596
319.51237
318.37389
317.40238
316.55562
315.80566
315.13304
314.52366
313.967
313.455
312.98133
312.54095
312.12976
311.7444
311.38206
311.04039
310.71738
310.41132
310.12073
309.8443
309.58092
309.32958
328.48286
324.93947
322.60948
320.87945
319.50522
318.36623
317.39429
316.54718
315.79691
315.12402
314.51441
313.95757
313.4454
312.9716
312.53111
312.11983
311.7344
311.37202
311.03032
310.7073
310.40125
310.11067
309.83429
309.57095
309.31968
328.47904
324.93327
322.60173
320.87055
319.49543
318.3557
317.38316
316.53553
315.78483
315.11156
314.50164
313.94452
313.43213
312.95813
312.51748
312.10608
311.72056
311.3581
311.01636
310.69333
310.38728
310.09674
309.8204
309.55714
309.30595
328.47429
324.92544
322.59188
320.85922
319.48293
318.34226
317.36893
316.52064
315.76937
315.09562
314.48528
313.92781
313.41512
312.94087
312.50002
312.08845
311.7028
311.34026
310.99847
310.67541
310.36937
310.07886
309.80259
309.53942
309.28835
328.46861
324.91595
322.5799
320.84541
319.46768
318.32584
317.35154
316.50243
315.75046
315.07611
314.46526
313.90735
313.39429
312.91974
312.47863
312.06686
311.68106
311.31841
310.97654
310.65346
310.34742
310.05696
309.78076
309.5177
309.26677
328.46196
324.90476
322.56573
320.82905
319.44961
318.30637
317.33091
316.48081
315.72801
315.05294
314.44148
313.88306
313.36955
312.89463
312.45322
312.04121
311.65522
311.29244
310.95049
310.62737
310.32134
310.03093
309.75483
309.4919
309.24114
328.45432
324.89181
322.5493
320.81006
319.42862
318.28376
317.30694
316.45569
315.70191
315.02601
314.41384
313.8548
313.34079
312.86543
312.42367
312.01138
311.62517
311.26223
310.92018
310.59702
310.29101
310.00065
309.72465
309.46188
309.21131
328.44565
324.87704
322.53054
320.78837
319.40462
318.25789
317.27951
316.42695
315.67205
314.99519
314.3822
313.82246
313.30785
312.83201
312.38984
311.97722
311.59076
311.22764
310.88548
310.56227
310.25627
309.96598
309.69011
309.4275
309.17716
328.43592
324.86039
322.50936
320.76386
319.3775
318.22864
317.2485
316.39445
315.63827
314.96033
314.34641
313.78588
313.2706
312.79419
312.35156
311.93857
311.55183
311.18851
310.84623
310.52296
310.21697
309.92676
309.65102
309.38861
309.13852
328.42507
324.84177
322.48566
320.73641
319.34713
318.19589
317.21376
316.35803
315.60043
314.92127
314.3063
313.74488
313.22885
312.75181
312.30866
311.89526
311.5082
311.14465
310.80223
310.47889
310.17292
309.88279
309.60721
309.34502
309.09522
328.41307
324.8211
322.45933
320.70591
319.31336
318.15946
317.17512
316.31752
315.55833
314.87781
314.26168
313.69927
313.1824
312.70466
312.26094
311.84707
311.45966
311.09586
310.75328
310.42987
310.12391
309.83388
309.55847
309.29653
309.04704
328.39984
324.79829
322.43023
320.67219
319.27602
318.11918
317.13239
316.27273
315.51177
314.82975
314.21233
313.64882
313.13103
312.65252
312.20815
311.79378
311.40598
311.0419
310.69914
310.37566
310.06972
309.77979
309.50457
309.24291
308.99377
328.38535
324.77321
322.39824
320.6351
319.23494
318.07485
317.08537
316.22343
315.46054
314.77685
314.15802
313.59331
313.07449
312.59513
312.15007
311.73514
311.34691
310.98252
310.63957
310.31601
310.01008
309.72028
309.44527
309.1839
308.93514
328.3695
324.74575
322.36318
320.59446
319.18991
318.02627
317.03382
316.16939
315.40437
314.71887
314.09848
313.53245
313.01251
312.53222
312.08639
311.67085
311.28216
310.91744
310.57428
310.25063
309.94472
309.65504
309.38027
309.11922
308.87089
328.35223
324.71578
322.32489
320.55005
319.14072
317.97318
316.9775
316.11033
315.34299
314.65551
314.03343
313.46595
312.9448
312.46348
312.01683
311.60062
311.21142
310.84634
310.50295
310.17921
309.87333
309.5838
309.30927
309.04859
308.80072
328.33345
324.68313
322.28317
320.50166
319.08711
317.91533
316.91612
316.04597
315.2761
314.58646
313.96253
313.39349
312.87102
312.3886
311.94104
311.52411
311.13436
310.76889
310.42526
310.10142
309.79557
309.50619
309.23195
308.97166
308.72429
328.31307
324.64766
322.23782
320.44905
319.02881
317.85241
316.84936
315.97599
315.20336
314.51138
313.88545
313.31471
312.7908
312.30719
311.85866
311.44096
311.05061
310.68472
310.34084
310.01689
309.71108
309.42188
309.14793
308.88807
308.64125
328.29098
324.60916
322.1886
320.39194
318.96553
317.78411
316.7769
315.90002
315.12442
314.42989
313.8018
313.22922
312.70377
312.21887
311.76928
311.35075
310.95978
310.59344
310.24928
309.92522
309.61946
309.33045
309.05684
308.79745
308.55122
328.26707
324.56745
322.13525
320.33003
318.89692
317.71008
316.69835
315.81767
315.03885
314.34158
313.71116
313.1366
312.60948
312.1232
311.67249
311.25307
310.86142
310.49461
310.15017
309.82599
309.52029
309.2315
308.95825
308.69937
308.45378
328.24122
324.5223
322.07748
320.26298
318.82263
317.6299
316.6133
315.72852
314.94622
314.24599
313.61306
313.03637
312.50747
312.01971
311.5678
311.14743
310.75507
310.38776
310.04302
309.71874
309.41311
309.12456
308.85172
308.59338
308.3485
328.21327
324.47345
322.01496
320.19043
318.74223
317.54315
316.52128
315.63207
314.84603
314.14263
313.507
312.92804
312.39723
311.90789
311.45471
311.03333
310.64022
310.27239
309.92735
309.60297
309.29743
309.00915
308.73674
308.47901
308.23488
328.18307
324.42062
321.94735
320.11196
318.65527
317.44933
316.42178
315.52781
314.73775
314.03093
313.39242
312.81102
312.27819
311.78718
311.33265
310.91022
310.51632
310.14796
309.80262
309.47815
309.17273
308.88475
308.61283
308.35575
308.11244
328.15043
324.36349
321.87421
320.02708
318.56124
317.34789
316.31422
315.41513
314.62075
313.91029
313.2687
312.68472
312.14973
311.65697
311.20102
310.7775
310.3828
310.01389
309.66825
309.34372
309.03844
308.75081
308.47942
308.22306
307.98063
328.11516
324.30169
321.7951
319.93527
318.45953
317.2382
316.19795
315.29337
314.49437
313.78002
313.13515
312.54845
312.0112
311.51659
311.05918
310.63453
310.239
309.86956
309.52364
309.19907
308.89398
308.60674
308.33595
308.08036
307.8389
328.077
324.2348
321.70945
319.83589
318.34948
317.11955
316.07223
315.16176
314.35783
313.63935
312.99103
312.40145
311.86184
311.36533
310.9064
310.48061
310.08426
309.7143
309.36814
309.04357
308.73872
308.45193
308.1818
307.92707
307.68664
328.03566
324.16231
321.61665
319.72823
318.23029
316.9911
315.93619
315.01944
314.21028
313.48743
312.83548
312.24291
311.70085
311.20238
310.74193
310.31499
309.91785
309.54741
309.20105
308.87655
308.572
308.28575
308.01636
307.76257
307.52326
327.99082
324.08363
321.51592
319.61142
318.10103
316.85188
315.78885
314.86541
314.05071
313.32327
312.66755
312.07188
311.52733
311.02688
310.56492
310.13688
309.739
309.36814
309.02167
308.69732
308.39316
308.10753
307.83897
307.5862
307.34811
327.94204
323.99801
321.40634
319.48441
317.96057
316.70072
315.62903
314.69849
313.87797
313.14577
312.48614
311.88733
311.34029
310.8379
310.37448
309.94542
309.54689
309.17572
308.82923
308.50514
308.20149
307.91659
307.64897
307.39733
307.16056
327.88881
323.90453
321.28676
319.34589
317.80754
316.53621
315.45531
314.51731
313.69073
312.95362
312.29006
311.68812
311.13863
310.6344
310.16965
309.73969
309.34065
308.96932
308.62297
308.29928
307.99627
307.71224
307.44568
307.19531
306.95996
327.83042
323.802
321.15567
319.1942
317.64018
316.3566
315.26596
314.32018
313.48739
312.74534
312.07788
311.47293
310.92116
310.41526
309.94937
309.51873
309.1194
308.74811
308.40209
308.07899
307.77681
307.4938
307.22846
306.97947
306.74568
327.76594
323.6888
321.01108
319.02717
317.45626
316.15965
315.05884
314.10509
313.26607
312.51919
311.84804
311.24031
310.68655
310.17929
309.71257
309.28155
308.88221
308.51124
308.16581
307.84354
307.5424
307.26061
306.99666
306.74922
306.5171
327.69404
323.56263
320.85022
318.84181
317.25279
315.94249
314.83126
313.86957
313.02453
312.27315
311.59871
310.98868
310.43337
309.92521
309.45811
309.02712
308.62817
308.25787
307.91336
307.59221
307.29237
307.01204
306.74968
306.50395
306.27367
327.61268
323.42005
320.66903
318.6339
317.02566
315.70131
314.57976
313.61054
312.76009
312.0049
311.3279
310.71627
310.16013
309.65172
309.18483
308.75444
308.35638
307.9872
307.64401
307.32435
307.02612
306.74751
306.48698
306.24315
306.01485
327.51841
323.25545
320.46114
318.39717
316.7691
315.43101
314.29997
313.32432
312.46963
311.71184
311.03342
310.42126
309.86526
309.3575
308.89163
308.46254
308.066
307.69851
307.35713
307.03937
306.74311
306.46654
306.20808
305.96637
305.74023
327.40458
323.05864
320.21594
318.12193
316.47486
315.1248
313.98642
313.0065
312.14966
311.39115
310.71303
310.10185
309.54731
309.04134
308.5775
308.15059
307.75633
307.39118
307.05217
306.7368
306.44293
306.16873
305.91264
305.67327
305.44946
327.25482
322.80848
319.91443
317.79299
316.13138
314.77406
313.63268
312.65232
311.79658
311.04012
310.36462
309.75639
309.20499
308.70223
308.24163
307.81792
307.42682
307.06475
306.72875
306.4163
306.12527
305.85383
305.6004
305.36363
305.14233
327.0121
322.4549
319.52205
317.38778
315.72397
314.36912
313.23227
312.25732
311.40729
310.65654
309.98659
309.38371
308.83741
308.3395
307.88349
307.46414
307.07715
306.71899
306.38668
306.07773
305.79002
305.52173
305.27129
305.03736
304.81876
)
;

boundaryField
{
    rock_inlet
    {
        type            externalWallHeatFluxTemperature;
        mode            coefficient;
        kappaMethod     solidThermo;
        h               constant 10;
        Ta              uniform 283.15;
        qr              none;
        refValue        uniform 283.15;
        refGradient     uniform 0;
        valueFraction   nonuniform List<scalar> 
25
(
0.25
0.25
0.25
0.25
0.25
0.25
0.25
0.25
0.25
0.25
0.25
0.25
0.25
0.25
0.25
0.25
0.25
0.25
0.25
0.25
0.25
0.25
0.25
0.25
0.25
)
;
        value           nonuniform List<scalar> 
25
(
307.07566
298.81556
294.54268
291.99976
290.34532
289.19946
288.36813
287.74304
287.25956
286.87703
286.56868
286.31631
286.10709
285.93181
285.78365
285.65749
285.54941
285.45634
285.37587
285.30601
285.24511
285.19172
285.14449
285.10199
285.06245
)
;
    }
    rock_outlet
    {
        type            externalWallHeatFluxTemperature;
        mode            coefficient;
        kappaMethod     solidThermo;
        h               constant 0.2;
        Ta              uniform 279.15;
        qr              none;
        refValue        uniform 279.15;
        refGradient     uniform 0;
        valueFraction   nonuniform List<scalar> 
25
(
0.0066225166
0.0066225166
0.0066225166
0.0066225166
0.0066225166
0.0066225166
0.0066225166
0.0066225166
0.0066225166
0.0066225166
0.0066225166
0.0066225166
0.0066225166
0.0066225166
0.0066225166
0.0066225166
0.0066225166
0.0066225166
0.0066225166
0.0066225166
0.0066225166
0.0066225166
0.0066225166
0.0066225166
0.0066225166
)
;
        value           nonuniform List<scalar> 
25
(
326.69513
322.16812
319.25469
317.13455
315.48176
314.13588
313.00656
312.03807
311.19367
310.44788
309.78238
309.18349
308.6408
308.14619
307.69321
307.27663
306.8922
306.53641
306.20631
305.8994
305.6136
305.34708
305.0983
304.86592
304.64877
)
;
    }
    rock_outer
    {
        type            externalWallHeatFluxTemperature;
        mode            coefficient;
        kappaMethod     solidThermo;
        h               constant 0.2;
        Ta              uniform 279.15;
        qr              none;
        refValue        uniform 279.15;
        refGradient     uniform 0;
        valueFraction   nonuniform List<scalar> 
100
(
0.003954211
0.003954211
0.003954211
0.003954211
0.003954211
0.003954211
0.003954211
0.003954211
0.003954211
0.003954211
0.003954211
0.003954211
0.003954211
0.003954211
0.003954211
0.003954211
0.003954211
0.003954211
0.003954211
0.003954211
0.003954211
0.003954211
0.003954211
0.003954211
0.003954211
0.003954211
0.003954211
0.003954211
0.003954211
0.003954211
0.003954211
0.003954211
0.003954211
0.003954211
0.003954211
0.003954211
0.003954211
0.003954211
0.003954211
0.003954211
0.003954211
0.003954211
0.003954211
0.003954211
0.003954211
0.003954211
0.003954211
0.003954211
0.003954211
0.003954211
0.003954211
0.003954211
0.003954211
0.003954211
0.003954211
0.003954211
0.003954211
0.003954211
0.003954211
0.003954211
0.003954211
0.003954211
0.003954211
0.003954211
0.003954211
0.003954211
0.003954211
0.003954211
0.003954211
0.003954211
0.003954211
0.003954211
0.003954211
0.003954211
0.003954211
0.003954211
0.003954211
0.003954211
0.003954211
0.003954211
0.003954211
0.003954211
0.003954211
0.003954211
0.003954211
0.003954211
0.003954211
0.003954211
0.003954211
0.003954211
0.003954211
0.003954211
0.003954211
0.003954211
0.003954211
0.003954211
0.003954211
0.003954211
0.003954211
0.003954211
)
;
        value           nonuniform List<scalar> 
100
(
285.67403
286.94809
288.20766
289.4408
290.63872
291.79487
292.90448
293.96435
294.97262
295.92849
296.83208
297.68419
298.48613
299.2396
299.94656
300.60914
301.22953
301.80997
302.35269
302.85987
303.33363
303.776
304.18891
304.57423
304.93369
305.26895
305.58155
305.87297
306.14457
306.39764
306.63336
306.85287
307.05721
307.24735
307.42422
307.58865
307.74143
307.88331
308.01496
308.13702
308.25008
308.35468
308.45133
308.5405
308.62262
308.69809
308.76726
308.83049
308.88808
308.9403
308.98742
309.02966
309.06722
309.1003
309.12906
309.15363
309.17414
309.1907
309.20338
309.21224
309.21734
309.21871
309.21634
309.21024
309.20038
309.18671
309.16917
309.14769
309.12215
309.09244
309.05843
309.01994
308.97681
308.92882
308.87576
308.81737
308.75337
308.68347
308.60735
308.52464
308.43496
308.33791
308.23304