/*--------------------------------*- C++ -*----------------------------------*\
| =========                 |                                                 |
| \\      /  F ield         | OpenFOAM: The Open Source CFD Toolbox           |
|  \\    /   O peration     | Version:  2506                                  |
|   \\  /    A nd           | Website:  www.openfoam.com                      |
|    \\/     M anipulation  |                                                 |
\*---------------------------------------------------------------------------*/
FoamFile
{
    version     2.0;
    format      ascii;
    arch        "LSB;label=32;scalar=64";
    class       volScalarField;
    location    "14000/water";
    object      epsilon;
}
// * * * * * * * * * * * * * * * * * * * * * * * * * * * * * * * * * * * * * //

dimensions      [0 2 -3 0 0 0 0];

internalField   nonuniform List<scalar> 
1000
(
7.2399316e-05
7.2397808e-05
7.2397502e-05
7.2398682e-05
7.2424146e-05
7.2686938e-05
7.4736184e-05
8.8973294e-05
0.00019794853
0.0013048048
4.7739543e-05
4.7745807e-05
4.7746167e-05
4.7748745e-05
4.7810065e-05
4.8371229e-05
5.2145897e-05
7.5319321e-05
0.00023607339
0.0016574915
3.3261229e-05
3.326441e-05
3.3263962e-05
3.3272039e-05
3.3396639e-05
3.4348942e-05
3.9973145e-05
7.1502094e-05
0.00026549976
0.0016622
2.4212884e-05
2.4213778e-05
2.421353e-05
2.4236018e-05
2.4468828e-05
2.5979961e-05
3.4086678e-05
7.6375176e-05
0.00030233572
0.0015600258
1.8263229e-05
1.8263302e-05
1.8265922e-05
1.8318446e-05
1.8730724e-05
2.1090736e-05
3.29357e-05
9.0423728e-05
0.00035053713
0.0014605598
1.4183053e-05
1.4183388e-05
1.4193788e-05
1.4301413e-05
1.5003322e-05
1.8678191e-05
3.6168201e-05
0.00011337793
0.00040230602
0.001394417
1.1285033e-05
1.1287109e-05
1.1313191e-05
1.1514087e-05
1.267205e-05
1.8360647e-05
4.3854182e-05
0.00014255074
0.00044702276
0.0013593147
9.1651308e-06
9.1712237e-06
9.2251467e-06
9.5765145e-06
1.1437655e-05
2.0107136e-05
5.5828036e-05
0.00017322831
0.0004795745
0.0013440715
7.5754963e-06
7.5890767e-06
7.6892446e-06
8.2760996e-06
1.119819e-05
2.4041139e-05
7.1186887e-05
0.00020099039
0.0005008071
0.0013390505
6.3585386e-06
6.3848727e-06
6.5589454e-06
7.5064197e-06
1.1984509e-05
3.0236087e-05
8.827752e-05
0.00022355954
0.00051393078
0.0013385662
5.4111025e-06
5.4581718e-06
5.7474947e-06
7.236931e-06
1.3906672e-05
3.8515474e-05
0.00010524336
0.00024078337
0.00052197936
0.0013399585
4.66424e-06
4.7441308e-06
5.2100555e-06
7.4969509e-06
1.7087003e-05
4.8355589e-05
0.00012068251
0.00025359553
0.0005270806
0.0013422103
4.0714683e-06
4.2024418e-06
4.9349872e-06
8.3622752e-06
2.1575458e-05
5.8975514e-05
0.00013393068
0.00026313419
0.00053055273
0.0013450168
3.6019045e-06
3.8114166e-06
4.9402578e-06
9.9351414e-06
2.7272235e-05
6.9567129e-05
0.00014492642
0.00027035453
0.00053316309
0.0013483154
3.2363949e-06
3.5653675e-06
5.2715794e-06
1.2311507e-05
3.3901749e-05
7.9510801e-05
0.00015392467
0.00027595662
0.00053534137
0.0013520949
2.9656672e-06
3.474237e-06
5.9984577e-06
1.5537585e-05
4.106281e-05
8.8461102e-05
0.00016127379
0.00028042567
0.00053731713
0.0013563344
2.7900183e-06
3.564576e-06
7.2041407e-06
1.9570068e-05
4.8330125e-05
9.6307102e-05
0.00016730389
0.0002840893
0.00053917786
0.0013609727
2.7202741e-06
3.8804511e-06
8.9664815e-06
2.4261521e-05
5.5350052e-05
0.00010308384
0.00017229238
0.00028715795
0.00054093704
0.0013659401
2.7797528e-06
4.4820128e-06
1.1330905e-05
2.9383129e-05
6.188751e-05
0.00010889378
0.00017645206
0.00028975396
0.0005426727
0.0013711904
3.0065894e-06
5.4387629e-06
1.4283719e-05
3.4675117e-05
6.7820897e-05
0.00011385668
0.00017993864
0.00029198051
0.00054443469
0.0013766844
3.4548255e-06
6.8149398e-06
1.7738741e-05
3.9899803e-05
7.3111911e-05
0.00011808679
0.00018285401
0.00029394172
0.00054623685
0.0013823801
4.1912008e-06
8.6477018e-06
2.1546348e-05
4.487479e-05
7.7769223e-05
0.00012165887
0.00018531797
0.00029569756
0.0005480741
0.0013882309
5.2836509e-06
1.0924962e-05
2.5521828e-05
4.9478089e-05
8.180371e-05
0.00012466944
0.00018741285
0.00029728401
0.00054993269
0.0013941883
6.7799859e-06
1.3574504e-05
2.9480321e-05
5.3622593e-05
8.5253143e-05
0.00012719932
0.00018919518
0.00029872099
0.00055179392
0.0014002021
8.6832889e-06
1.6474124e-05
3.3250039e-05
5.7259552e-05
8.8167071e-05
0.00012930773
0.00019070229
0.00030001679
0.00055363524
0.00140622
1.0937856e-05
1.9464267e-05
3.6694154e-05
6.0377204e-05
9.0586638e-05
0.00013103656
0.00019195679
0.00030117073
0.00055543064
0.0014121862
1.3423287e-05
2.2384355e-05
3.9726994e-05
6.2977893e-05
9.2544801e-05
0.00013241424
0.00019297027
0.00030217533
0.00055715098
0.0014180393
1.5988114e-05
2.5103522e-05
4.2303177e-05
6.5074426e-05
9.4068685e-05
0.00013345987
0.00019374681
0.00030301862
0.00055876498
0.0014237115
1.8484517e-05
2.7531396e-05
4.4410712e-05
6.6689256e-05
9.5183155e-05
0.00013418759
0.0001942867
0.00030368682
0.00056024105
0.0014291296
2.0793621e-05
2.9617731e-05
4.6063538e-05
6.785428e-05
9.5914434e-05
0.00013461089
0.00019459021
0.00030416754
0.00056154982
0.0014342183
2.283641e-05
3.1345676e-05
4.7294015e-05
6.8609929e-05
9.6292789e-05
0.00013474624
0.00019466116
0.00030445286
0.00056266719
0.0014389056
2.4572668e-05
3.2722985e-05
4.8145955e-05
6.9003202e-05
9.6353677e-05
0.00013461538
0.00019450938
0.00030454188
0.00056357699
0.0014431287
2.5993394e-05
3.377368e-05
4.8668788e-05
6.9084981e-05
9.6137403e-05
0.00013424623
0.00019415209
0.00030444214
0.00056427286
0.0014468394
2.7111401e-05
3.4531231e-05
4.8913167e-05
6.8907222e-05
9.5687648e-05
0.00013367222
0.00019361369
0.00030416974
0.00056475881
0.0014500085
2.7952808e-05
3.5033466e-05
4.8927982e-05
6.8520486e-05
9.5049454e-05
0.00013293075
0.00019292442
0.00030374812
0.00056504848
0.0014526271
2.8550491e-05
3.5319044e-05
4.8758543e-05
6.7972085e-05
9.4267155e-05
0.00013206106
0.00019211829
0.00030320598
0.00056516322
0.0014547066
2.8939532e-05
3.542517e-05
4.8445618e-05
6.7304863e-05
9.3382583e-05
0.00013110204
0.00019123063
0.00030257472
0.00056512953
0.001456276
2.9154336e-05
3.5386241e-05
4.802506e-05
6.6556542e-05
9.2433735e-05
0.00013009033
0.00019029581
0.00030188588
0.00056497632
0.0014573779
2.922696e-05
3.5233148e-05
4.7527809e-05
6.5759515e-05
9.1453929e-05
0.00012905891
0.00018934541
0.00030116903
0.00056473234
0.0014580645
2.9186261e-05
3.4993014e-05
4.698011e-05
6.4940942e-05
9.0471405e-05
0.00012803615
0.00018840688
0.0003004502
0.00056442433
0.0014583929
2.9057584e-05
3.4689215e-05
4.6403864e-05
6.4123063e-05
8.9509298e-05
0.00012704543
0.00018750287
0.00029975097
0.0005640758
0.0014584215
2.886277e-05
3.4341571e-05
4.5817042e-05
6.3323634e-05
8.8585869e-05
0.00012610509
0.00018665099
0.00029908819
0.00056370646
0.0014582066
2.8620338e-05
3.3966637e-05
4.5234125e-05
6.2556417e-05
8.7714917e-05
0.0001252287
0.00018586404
0.00029847413
0.00056333215
0.0014578007
2.8345778e-05
3.357803e-05
4.4666536e-05
6.1831691e-05
8.6906277e-05
0.00012442555
0.00018515037
0.00029791679
0.00056296492
0.0014572511
2.8051871e-05
3.3186771e-05
4.4123046e-05
6.1156742e-05
8.6166347e-05
0.00012370113
0.00018451446
0.00029742031
0.00056260913
0.001456596
2.7749015e-05
3.2801622e-05
4.361016e-05
6.0536332e-05
8.5498662e-05
0.00012305788
0.00018395772
0.00029698483
0.00056226301
0.0014558682
2.7445543e-05
3.2429394e-05
4.313247e-05
5.9973145e-05
8.4904433e-05
0.00012249571
0.00018347844
0.00029660428
0.00056193963
0.0014550999
2.7148014e-05
3.2075234e-05
4.2692969e-05
5.946817e-05
8.438298e-05
0.0001220122
0.00018306989
0.00029628004
0.00056164573
0.0014543185
2.6861481e-05
3.1742893e-05
4.229334e-05
5.902105e-05
8.3931988e-05
0.00012160112
0.00018272926
0.00029601081
0.0005613841
0.0014535458
2.6589735e-05
3.1434977e-05
4.1934267e-05
5.8630193e-05
8.3546339e-05
0.00012125841
0.00018245246
0.00029579333
0.00056115521
0.0014527983
2.6335542e-05
3.1153165e-05
4.1615229e-05
5.8292197e-05
8.3222146e-05
0.00012097923
0.00018223427
0.0002956232
0.00056095812
0.0014520885
2.6100699e-05
3.0898015e-05
4.1334721e-05
5.8004079e-05
8.295497e-05
0.00012075811
0.00018206889
0.00029549552
0.00056079111
0.0014514249
2.58861e-05
3.0669412e-05
4.1091061e-05
5.7762496e-05
8.2740011e-05
0.00012058926
0.0001819503
0.0002954052
0.00056065202
0.0014508131
2.5692098e-05
3.0466833e-05
4.0882255e-05
5.7563847e-05
8.2572269e-05
0.00012046679
0.00018187248
0.00029534719
0.00056053846
0.0014502566
2.5518619e-05
3.0289414e-05
4.0706061e-05
5.7404367e-05
8.2446682e-05
0.00012038486
0.0001818296
0.0002953167
0.00056044795
0.0014497568
2.5365246e-05
3.0136011e-05
4.0560055e-05
5.7280219e-05
8.2358243e-05
0.00012033783
0.00018181615
0.00029530917
0.00056037798
0.0014493137
2.5231286e-05
3.0005264e-05
4.0441694e-05
5.7187568e-05
8.2302084e-05
0.00012032035
0.00018182698
0.00029532045
0.00056032609
0.0014489262
2.5115828e-05
2.9895651e-05
4.0348373e-05
5.7122648e-05
8.2273554e-05
0.00012032741
0.00018185737
0.00029534675
0.00056028991
0.001448592
2.501779e-05
2.9805535e-05
4.027748e-05
5.708182e-05
8.2268278e-05
0.00012035441
0.00018190308
0.00029538467
0.00056026719
0.0014483083
2.4935969e-05
2.9733208e-05
4.0226437e-05
5.7061617e-05
8.2282192e-05
0.00012039717
0.00018196034
0.00029543125
0.00056025588
0.0014480716
2.4869078e-05
2.9676937e-05
4.019274e-05
5.7058778e-05
8.2311574e-05
0.00012045196
0.00018202583
0.00029548392
0.00056025409
0.0014478783
2.4815781e-05
2.9634988e-05
4.017399e-05
5.7070277e-05
8.2353059e-05
0.00012051548
0.00018209671
0.00029554047
0.00056026014
0.0014477242
2.4774722e-05
2.960566e-05
4.0167922e-05
5.7093339e-05
8.2403639e-05
0.00012058486
0.00018217054
0.00029559905
0.00056027251
0.0014476055
2.4744553e-05
2.958731e-05
4.0172417e-05
5.7125448e-05
8.2460663e-05
0.00012065762
0.00018224528
0.0002956581
0.00056028985
0.0014475182
2.4723954e-05
2.9578369e-05
4.0185521e-05
5.7164351e-05
8.2521822e-05
0.00012073167
0.00018231926
0.00029571636
0.00056031097
0.0014474585
2.471165e-05
2.9577359e-05
4.0205449e-05
5.7208055e-05
8.2585134e-05
0.00012080528
0.00018239109
0.0002957728
0.00056033478
0.0014474228
2.470643e-05
2.9582903e-05
4.0230595e-05
5.725482e-05
8.2648923e-05
0.00012087701
0.00018245971
0.00029582661
0.00056036034
0.0014474074
2.4707152e-05
2.9593736e-05
4.0259527e-05
5.7303151e-05
8.2711803e-05
0.00012094575
0.00018252428
0.00029587715
0.0005603868
0.0014474092
2.4712756e-05
2.9608706e-05
4.0290985e-05
5.7351782e-05
8.2772649e-05
0.00012101062
0.00018258423
0.000295924
0.00056041347
0.001447425
2.4722272e-05
2.9626779e-05
4.0323883e-05
5.7399667e-05
8.2830579e-05
0.00012107099
0.00018263915
0.00029596685
0.00056043975
0.001447452
2.4734816e-05
2.9647042e-05
4.0357292e-05
5.7445957e-05
8.2884929e-05
0.00012112642
0.00018268883
0.00029600555
0.00056046519
0.0014474876
2.4749603e-05
2.9668694e-05
4.0390441e-05
5.748999e-05
8.2935224e-05
0.00012117668
0.00018273318
0.00029604006
0.00056048925
0.0014475295
2.4765936e-05
2.969105e-05
4.0422698e-05
5.7531266e-05
8.298116e-05
0.00012122165
0.00018277227
0.00029607036
0.00056051123
0.0014475753
2.4783211e-05
2.9713529e-05
4.0453561e-05
5.756943e-05
8.3022576e-05
0.00012126137
0.00018280622
0.00029609636
0.00056053106
0.0014476235
2.4800911e-05
2.9735651e-05
4.0482646e-05
5.7604256e-05
8.3059436e-05
0.00012129597
0.00018283514
0.00029611821
0.00056054905
0.0014476728
2.4818599e-05
2.9757028e-05
4.0509675e-05
5.763563e-05
8.3091802e-05
0.00012132558
0.0001828592
0.00029613635
0.00056056534
0.0014477219
2.4835918e-05
2.9777356e-05
4.0534464e-05
5.766353e-05
8.3119766e-05
0.00012135037
0.00018287886
0.00029615118
0.00056057997
0.0014477702
2.485258e-05
2.9796409e-05
4.0556913e-05
5.7687972e-05
8.3143467e-05
0.00012137074
0.00018289456
0.00029616302
0.00056059297
0.0014478167
2.4868368e-05
2.981403e-05
4.057695e-05
5.7709024e-05
8.3163185e-05
0.00012138708
0.0001829067
0.00029617218
0.00056060436
0.001447861
2.4883107e-05
2.9830095e-05
4.0594573e-05
5.7726853e-05
8.317923e-05
0.00012139977
0.00018291569
0.00029617898
0.0005606142
0.0014479024
2.4896671e-05
2.9844537e-05
4.0609838e-05
5.7741666e-05
8.3191936e-05
0.00012140924
0.00018292191
0.00029618369
0.00056062256
0.0014479406
2.4908982e-05
2.985734e-05
4.0622849e-05
5.7753697e-05
8.3201647e-05
0.00012141586
0.00018292576
0.0002961866
0.00056062953
0.0014479754
2.4920003e-05
2.9868528e-05
4.0633738e-05
5.7763201e-05
8.3208706e-05
0.00012142003
0.00018292758
0.000296188
0.00056063524
0.0014480067
2.4929734e-05
2.9878157e-05
4.0642662e-05
5.7770439e-05
8.321345e-05
0.00012142211
0.00018292771
0.00029618812
0.00056063981
0.0014480344
2.4938204e-05
2.9886306e-05
4.064979e-05
5.7775672e-05
8.3216204e-05
0.00012142243
0.00018292646
0.00029618722
0.00056064337
0.0014480587
2.4945463e-05
2.9893073e-05
4.0655299e-05
5.7779155e-05
8.3217273e-05
0.00012142132
0.00018292411
0.00029618549
0.00056064604
0.0014480797
2.4951579e-05
2.9898567e-05
4.0659367e-05
5.7781134e-05
8.321694e-05
0.00012141905
0.0001829209
0.00029618312
0.00056064791
0.0014480976
2.495663e-05
2.9902903e-05
4.0662171e-05
5.7781838e-05
8.3215464e-05
0.00012141587
0.00018291705
0.00029618026
0.00056064907
0.0014481126
2.4960703e-05
2.99062e-05
4.0663879e-05
5.7781483e-05
8.321308e-05
0.00012141202
0.00018291275
0.00029617705
0.00056064959
0.0014481249
2.4963891e-05
2.9908578e-05
4.0664655e-05
5.7780267e-05
8.3210001e-05
0.00012140769
0.00018290817
0.0002961736
0.00056064958
0.0014481347
2.4966287e-05
2.9910151e-05
4.066465e-05
5.777837e-05
8.3206416e-05
0.00012140306
0.00018290345
0.00029617004
0.00056064911
0.0014481422
2.4967985e-05
2.9911035e-05
4.0664007e-05
5.7775957e-05
8.3202493e-05
0.00012139828
0.00018289871
0.00029616646
0.0005606483
0.0014481476
2.4969077e-05
2.9911337e-05
4.0662856e-05
5.7773173e-05
8.3198377e-05
0.00012139348
0.00018289407
0.00029616295
0.00056064724
0.0014481512
2.4969652e-05
2.9911158e-05
4.0661316e-05
5.7770146e-05
8.3194193e-05
0.00012138877
0.00018288961
0.00029615959
0.00056064604
0.0014481532
2.4969793e-05
2.991059e-05
4.0659491e-05
5.7766986e-05
8.3190043e-05
0.00012138424
0.0001828854
0.00029615643
0.00056064476
0.001448154
2.4969579e-05
2.9909718e-05
4.0657472e-05
5.7763784e-05
8.3186009e-05
0.00012137994
0.00018288148
0.0002961535
0.00056064345
0.0014481538
2.4969079e-05
2.9908616e-05
4.0655338e-05
5.7760614e-05
8.3182154e-05
0.00012137594
0.00018287788
0.00029615081
0.00056064213
0.0014481528
2.4968356e-05
2.990735e-05
4.0653155e-05
5.7757538e-05
8.3178526e-05
0.00012137224
0.00018287461
0.00029614838
0.00056064082
0.0014481512
2.4967466e-05
2.9905978e-05
4.0650977e-05
5.7754604e-05
8.3175159e-05
0.00012136889
0.00018287168
0.00029614619
0.00056063953
0.0014481492
2.4966461e-05
2.9904551e-05
4.064886e-05
5.775186e-05
8.317209e-05
0.00012136588
0.00018286909
0.00029614423
0.00056063825
0.0014481468
)
;

boundaryField
{
    water_inlet
    {
        type            turbulentMixingLengthDissipationRateInlet;
        mixingLength    0.005;
        phi             phi;
        k               k;
        value           uniform 0.00011791765;
    }
    water_outlet
    {
        type            inletOutlet;
        inletValue      uniform 0.0001;
        value           nonuniform List<scalar> 10(2.4966461e-05 2.9904551e-05 4.064886e-05 5.775186e-05 8.317209e-05 0.00012136588 0.00018286909 0.00029614423 0.00056063825 0.0014481468);
    }
    water_wedge1
    {
        type            wedge;
    }
    water_wedge2
    {
        type            wedge;
    }
    water_to_rock
    {
        type            epsilonWallFunction;
        blending        stepwise;
        value           nonuniform List<scalar> 
100
(
0.0013048048
0.0016574915
0.0016622
0.0015600258
0.0014605598
0.001394417
0.0013593147
0.0013440715
0.0013390505
0.0013385662
0.0013399585
0.0013422103
0.0013450168
0.0013483154
0.0013520949
0.0013563344
0.0013609727
0.0013659401
0.0013711904
0.0013766844
0.0013823801
0.0013882309
0.0013941883
0.0014002021
0.00140622
0.0014121862
0.0014180393
0.0014237115
0.0014291296
0.0014342183
0.0014389056
0.0014431287
0.0014468394
0.0014500085
0.0014526271
0.0014547066
0.001456276
0.0014573779
0.0014580645
0.0014583929
0.0014584215
0.0014582066
0.0014578007
0.0014572511
0.001456596
0.0014558682
0.0014550999
0.0014543185
0.0014535458
0.0014527983
0.0014520885
0.0014514249
0.0014508131
0.0014502566
0.0014497568
0.0014493137
0.0014489262
0.001448592
0.0014483083
0.0014480716
0.0014478783
0.0014477242
0.0014476055
0.0014475182
0.0014474585
0.0014474228
0.0014474074
0.0014474092
0.001447425
0.001447452
0.0014474876
0.0014475295
0.0014475753
0.0014476235
0.0014476728
0.0014477219
0.0014477702
0.0014478167
0.001447861
0.0014479024
0.0014479406
0.0014479754
0.0014480067
0.0014480344
0.0014480587
0.0014480797
0.0014480976
0.0014481126
0.0014481249
0.0014481347
0.0014481422
0.0014481476
0.0014481512
0.0014481532
0.001448154
0.0014481538
0.0014481528
0.0014481512
0.0014481492
0.0014481468
)
;
    }
}


// ************************************************************************* //
