/*--------------------------------*- C++ -*----------------------------------*\
| =========                 |                                                 |
| \\      /  F ield         | OpenFOAM: The Open Source CFD Toolbox           |
|  \\    /   O peration     | Version:  2506                                  |
|   \\  /    A nd           | Website:  www.openfoam.com                      |
|    \\/     M anipulation  |                                                 |
\*---------------------------------------------------------------------------*/
FoamFile
{
    version     2.0;
    format      ascii;
    arch        "LSB;label=32;scalar=64";
    class       volScalarField;
    location    "14000/water";
    object      k;
}
// * * * * * * * * * * * * * * * * * * * * * * * * * * * * * * * * * * * * * //

dimensions      [0 2 -2 0 0 0 0];

internalField   nonuniform List<scalar> 
1000
(
0.00017657855
0.00017657518
0.00017657131
0.00017655365
0.00017648098
0.00017625478
0.00017589507
0.00017764177
0.00020514192
0.00048657967
0.00013915035
0.00013915817
0.00013914641
0.00013908743
0.00013888206
0.0001383736
0.00013797747
0.00014325064
0.00019616753
0.00057072179
0.00011343696
0.00011343683
0.00011340783
0.00011329561
0.00011298241
0.00011249021
0.00011342553
0.0001264142
0.0002054846
0.00057180213
9.4956345e-05
9.4947216e-05
9.4898274e-05
9.474799e-05
9.4461176e-05
9.4591088e-05
9.888247e-05
0.00012463524
0.00023169884
0.00054812311
8.1180941e-05
8.1164581e-05
8.1102164e-05
8.0967048e-05
8.096004e-05
8.2611567e-05
9.2929635e-05
0.00013695679
0.00027128393
0.00052456958
7.0599818e-05
7.0579371e-05
7.0523471e-05
7.0504806e-05
7.1168244e-05
7.5593858e-05
9.5291319e-05
0.00016203222
0.00031585911
0.0005086104
6.2267978e-05
6.2250533e-05
6.2239523e-05
6.2499649e-05
6.4399524e-05
7.330409e-05
0.00010610208
0.00019613583
0.00035649843
0.00050003858
5.5571435e-05
5.5570247e-05
5.5667662e-05
5.6450718e-05
6.0389128e-05
7.5971767e-05
0.00012498825
0.00023352043
0.00038871416
0.00049629343
5.0098706e-05
5.0135846e-05
5.0440302e-05
5.2103064e-05
5.9190725e-05
8.3984645e-05
0.00015029962
0.00026896182
0.00041246912
0.00049505666
4.5567682e-05
4.5677869e-05
4.6337524e-05
4.9391692e-05
6.1096059e-05
9.7486811e-05
0.00017920241
0.00029964182
0.00042963972
0.00049493721
4.1782807e-05
4.2019036e-05
4.3252161e-05
4.8416196e-05
6.6518095e-05
0.0001159792
0.00020865661
0.00032501666
0.00044222959
0.00049528029
3.8609679e-05
3.9051433e-05
4.1174528e-05
4.9422668e-05
7.5808324e-05
0.00013819021
0.00023642022
0.00034571983
0.00045177443
0.00049583503
3.5960353e-05
3.6725359e-05
4.0189344e-05
5.2766862e-05
8.902784e-05
0.00016237217
0.00026138241
0.00036268766
0.0004593148
0.000496526
3.3785876e-05
3.5046456e-05
4.0478063e-05
5.8837487e-05
0.00010576991
0.00018682838
0.00028330031
0.00037677302
0.00046551891
0.00049733747
3.2074338e-05
3.4079122e-05
4.2315756e-05
6.7933269e-05
0.0001251606
0.00021031417
0.00030238125
0.00038864883
0.00047080728
0.00049826642
3.0853758e-05
3.3954424e-05
4.604785e-05
8.0117677e-05
0.00014606364
0.00023213629
0.00031898704
0.00039881699
0.00047543863
0.00049930741
3.0199555e-05
3.4878882e-05
5.2034038e-05
9.5115373e-05
0.00016736966
0.00025203088
0.00033348868
0.00040763769
0.00047952181
0.00050044511
3.0246053e-05
3.7136103e-05
6.0556093e-05
0.00011231909
0.00018821095
0.00026998852
0.00034621457
0.00041534846
0.00048317096
0.00050166212
3.1200174e-05
4.1069197e-05
7.1707696e-05
0.00013091731
0.00020802802
0.00028611994
0.00035742612
0.00042213407
0.00048649167
0.0005029468
3.3352102e-05
4.7031764e-05
8.5311175e-05
0.00015007649
0.00022652171
0.00030057598
0.00036733081
0.00042814973
0.000489558
0.00050428936
3.7071289e-05
5.5302657e-05
0.00010091013
0.00016908824
0.00024356817
0.00031350318
0.00037608869
0.00043353297
0.00049241571
0.00050567931
4.2768764e-05
6.5980458e-05
0.00011785095
0.00018743177
0.00025913438
0.00032501619
0.00038386962
0.00043837731
0.00049509099
0.00050710517
5.0807195e-05
7.8900601e-05
0.00013541306
0.00020475595
0.00027320788
0.00033526214
0.00039079731
0.00044274788
0.00049759787
0.00050855494
6.1364429e-05
9.3624216e-05
0.00015292709
0.00022080537
0.0002858334
0.000344364
0.00039696126
0.00044668842
0.00049994172
0.00051001633
7.4305768e-05
0.00010951691
0.0001698059
0.00023542253
0.00029707788
0.0003524115
0.00040242278
0.00045022535
0.00050212085
0.00051147661
8.9145638e-05
0.00012583018
0.00018559607
0.00024853576
0.00030699182
0.00035946532
0.00040721953
0.00045337061
0.00050412734
0.00051292227
0.00010508798
0.00014185052
0.00019999979
0.00026010311
0.00031560972
0.00036556207
0.00041136994
0.00045612414
0.00050594778
0.00051433856
0.000121241
0.00015699837
0.00021282975
0.000270107
0.00032295568
0.00037072141
0.00041487847
0.00045847698
0.00050756461
0.00051570924
0.00013680207
0.00017085631
0.00022399011
0.00027855599
0.00032905278
0.00037495499
0.00041774235
0.0004604157
0.00050895841
0.00051701685
0.0001511672
0.00018316495
0.00023346132
0.00028548828
0.00033393309
0.00037827639
0.00041995924
0.00046192768
0.00051011109
0.00051824348
0.00016395926
0.00019380122
0.00024128587
0.00029097319
0.00033764578
0.00038070989
0.00042153476
0.00046300675
0.00051100943
0.00051937205
0.00017500171
0.00020274987
0.0002475541
0.0002951089
0.00034026126
0.00038229665
0.00042248824
0.0004636577
0.00051164817
0.00052038774
0.00018426955
0.0002100742
0.00025239009
0.0002980169
0.00034187095
0.00038309694
0.00042285575
0.00046389902
0.0005120319
0.00052127935
0.00019183932
0.00021588987
0.000255939
0.0002998345
0.0003425836
0.00038318892
0.00042268996
0.00046376315
0.00051217539
0.00052204018
0.00019784795
0.00022034332
0.00025835619
0.0003007071
0.00034251949
0.00038266463
0.00042205748
0.00046329468
0.00051210245
0.00052266846
0.00020246278
0.00022359531
0.00025979871
0.00030078108
0.00034180404
0.00038162457
0.00042103455
0.00046254705
0.00051184375
0.00052316717
0.00020586136
0.00022580921
0.00026041906
0.00030019819
0.00034056192
0.0003801721
0.00041970202
0.00046157851
0.00051143405
0.00052354341
0.00020821888
0.00022714316
0.00026036085
0.00029909146
0.00033891217
0.00037840825
0.00041814068
0.00046044826
0.00051090954
0.00052380753
0.00020970067
0.00022774522
0.00025975608
0.00029758244
0.0003369647
0.00037642772
0.00041642716
0.00045921295
0.00051030538
0.00052397205
0.00021045826
0.00022775058
0.0002587237
0.00029577969
0.00033481794
0.00037431593
0.00041463095
0.00045792408
0.00050965383
0.00052405071
0.00021062765
0.00022728031
0.00025736892
0.00029377808
0.00033255757
0.00037214722
0.00041281241
0.00045662619
0.00050898298
0.0005240575
0.00021032883
0.00022644107
0.00025578329
0.00029165886
0.00033025616
0.00036998405
0.00041102177
0.00045535602
0.00050831605
0.00052400596
0.00020966629
0.00022532545
0.00025404519
0.00028949017
0.00032797345
0.00036787698
0.00040929903
0.00045414227
0.00050767124
0.00052390869
0.00020872984
0.00022401273
0.00025222066
0.00028732792
0.00032575717
0.00036586536
0.00040767436
0.00045300603
0.00050706186
0.00052377704
0.00020759589
0.00022256994
0.00025036443
0.00028521693
0.00032364407
0.00036397817
0.00040616881
0.00045196038
0.00050648832
0.0005236201
0.00020632868
0.00022105303
0.00024852102
0.00028319209
0.00032166126
0.00036223542
0.00040479538
0.00045100912
0.00050595666
0.00052344573
0.00020498172
0.00021950806
0.000246726
0.00028127975
0.00031982756
0.00036064921
0.00040355843
0.00045015517
0.00050547556
0.00052326161
0.00020359898
0.0002179724
0.00024500702
0.00027949877
0.00031815451
0.00035922386
0.00040245848
0.0004494026
0.0005050492
0.00052307426
0.00020221619
0.0002164758
0.00024338493
0.00027786155
0.00031664685
0.00035795843
0.00040149624
0.00044875142
0.00050467852
0.00052288892
0.00020086184
0.00021504142
0.00024187462
0.00027637443
0.00031530366
0.00035685163
0.00040066869
0.00044819847
0.00050436224
0.00052270962
0.00019955819
0.00021368666
0.00024048517
0.00027503855
0.0003141232
0.00035589866
0.00039996975
0.00044773829
0.00050409751
0.0005225393
0.00019832184
0.00021242328
0.0002392213
0.00027385339
0.00031310055
0.00035509195
0.00039939118
0.00044736396
0.00050388055
0.00052238008
0.00019716442
0.00021125903
0.00023808502
0.00027281556
0.00031222827
0.00035442198
0.00039892335
0.00044706766
0.00050370701
0.00052223329
0.00019609396
0.00021019852
0.00023707568
0.00027191939
0.00031149715
0.00035387794
0.00039855588
0.00044684121
0.00050357236
0.00052209975
0.00019511542
0.00020924367
0.00023619037
0.00027115743
0.00031089672
0.00035344828
0.00039827809
0.00044667643
0.00050347211
0.00052197981
0.00019423125
0.00020839415
0.00023542439
0.00027052096
0.00031041573
0.00035312118
0.00039807938
0.00044656536
0.00050340191
0.00052187345
0.00019344172
0.00020764775
0.00023477164
0.00027000038
0.00031004257
0.00035288484
0.00039794944
0.00044650041
0.00050335762
0.0005217804
0.00019274536
0.00020700078
0.00023422495
0.00026958552
0.00030976553
0.00035272773
0.00039787844
0.00044647446
0.00050333538
0.00052170015
0.00019213925
0.00020644834
0.00023377638
0.00026926593
0.00030957304
0.00035263879
0.0003978571
0.00044648088
0.00050333158
0.00052163202
0.0001916193
0.00020598459
0.00023341751
0.00026903112
0.00030945389
0.00035260754
0.00039787683
0.0004465136
0.00050334288
0.00052157518
0.00019118053
0.00020560306
0.00023313963
0.00026887075
0.00030939737
0.00035262419
0.00039792973
0.00044656711
0.00050336628
0.00052152874
0.00019081727
0.0002052968
0.00023293397
0.00026877481
0.00030939341
0.00035267974
0.00039800868
0.0004466365
0.00050339906
0.00052149176
0.00019052342
0.00020505862
0.00023279188
0.00026873379
0.00030943267
0.00035276605
0.00039810732
0.00044671744
0.00050343883
0.00052146327
0.00019029259
0.00020488127
0.00023270496
0.00026873875
0.00030950662
0.00035287581
0.00039822007
0.00044680619
0.00050348352
0.00052144231
0.00019011828
0.00020475758
0.00023266521
0.00026878142
0.00030960757
0.00035300258
0.00039834211
0.00044689954
0.00050353135
0.00052142798
0.00018999405
0.00020468058
0.00023266509
0.00026885425
0.00030972865
0.00035314076
0.0003984693
0.0004469948
0.00050358083
0.00052141939
0.00018991359
0.00020464361
0.00023269763
0.00026895042
0.00030986385
0.00035328551
0.00039859818
0.00044708974
0.0005036307
0.00052141569
0.00018987084
0.00020464037
0.00023275639
0.00026906387
0.00031000792
0.00035343276
0.00039872585
0.00044718251
0.0005036799
0.0005214161
0.00018986006
0.00020466501
0.00023283558
0.00026918922
0.00031015636
0.00035357907
0.00039884995
0.00044727165
0.00050372758
0.00052141989
0.00018987584
0.00020471212
0.00023292997
0.00026932182
0.00031030538
0.00035372164
0.0003989686
0.00044735598
0.00050377304
0.00052142638
0.0001899132
0.00020477677
0.00023303494
0.00026945767
0.00031045182
0.00035385822
0.00039908035
0.00044743465
0.00050381574
0.00052143495
0.00018996757
0.00020485455
0.00023314646
0.0002695934
0.00031059312
0.00035398706
0.0003991841
0.00044750699
0.00050385492
0.00052144501
0.00019003483
0.00020494154
0.00023326108
0.00026972623
0.0003107273
0.00035410688
0.00039927913
0.00044757242
0.00050389012
0.00052145604
0.00019011132
0.00020503432
0.00023337589
0.00026985395
0.00031085286
0.00035421681
0.00039936491
0.00044763062
0.00050392146
0.00052146762
0.00019019384
0.00020512996
0.0002334885
0.00026997484
0.00031096875
0.0003543163
0.00039944115
0.00044768171
0.00050394918
0.00052147944
0.00019027964
0.00020522599
0.00023359699
0.00027008765
0.00031107429
0.00035440502
0.00039950796
0.00044772605
0.00050397349
0.00052149125
0.00019036638
0.00020532038
0.00023369989
0.00027019148
0.00031116905
0.00035448301
0.00039956575
0.00044776405
0.00050399458
0.00052150283
0.00019045214
0.00020541152
0.00023379608
0.00027028573
0.00031125293
0.00035455064
0.00039961503
0.00044779614
0.00050401264
0.000521514
0.00019053535
0.00020549811
0.00023388471
0.00027037009
0.00031132617
0.00035460843
0.00039965636
0.00044782276
0.00050402788
0.00052152461
0.00019061473
0.00020557914
0.00023396526
0.00027044461
0.0003113892
0.00035465698
0.00039969036
0.00044784436
0.00050404051
0.00052153455
0.0001906893
0.00020565388
0.0002340375
0.00027050949
0.00031144255
0.00035469697
0.00039971764
0.00044786142
0.00050405073
0.00052154373
0.00019075834
0.0002057219
0.0002341014
0.00027056513
0.00031148687
0.00035472911
0.00039973886
0.00044787439
0.00050405876
0.0005215521
0.00019082138
0.00020578297
0.00023415713
0.00027061203
0.00031152285
0.00035475415
0.00039975466
0.00044788372
0.00050406481
0.00052155962
0.00019087818
0.00020583704
0.00023420498
0.00027065078
0.00031155125
0.00035477284
0.00039976568
0.00044788989
0.0005040691
0.00052156629
0.00019092865
0.00020588426
0.00023424538
0.00027068205
0.00031157286
0.00035478595
0.00039977257
0.00044789333
0.00050407187
0.00052157213
0.0001909729
0.00020592486
0.00023427885
0.00027070655
0.00031158847
0.00035479424
0.00039977595
0.00044789448
0.00050407335
0.00052157717
0.00019101113
0.00020595922
0.00023430594
0.00027072502
0.00031159887
0.00035479842
0.0003997764
0.00044789375
0.00050407375
0.00052158146
0.00019104363
0.00020598775
0.00023432727
0.00027073818
0.00031160479
0.00035479917
0.00039977447
0.00044789152
0.00050407328
0.00052158506
0.00019107078
0.00020601093
0.00023434344
0.00027074673
0.00031160693
0.00035479711
0.00039977063
0.00044788811
0.00050407211
0.00052158801
0.00019109299
0.00020602923
0.00023435504
0.00027075131
0.00031160593
0.00035479279
0.0003997653
0.00044788379
0.00050407039
0.00052159036
0.00019111067
0.00020604316
0.00023436266
0.00027075254
0.00031160236
0.00035478667
0.00039975884
0.0004478788
0.00050406823
0.00052159217
0.00019112426
0.0002060532
0.00023436683
0.00027075098
0.00031159673
0.00035477918
0.00039975155
0.00044787334
0.00050406573
0.00052159349
0.0001911342
0.00020605982
0.00023436807
0.00027074714
0.00031158951
0.0003547707
0.00039974372
0.00044786757
0.00050406299
0.00052159436
0.00019114093
0.00020606349
0.00023436687
0.00027074149
0.00031158111
0.00035476156
0.00039973559
0.00044786168
0.0005040601
0.00052159486
0.0001911449
0.00020606466
0.0002343637
0.00027073448
0.00031157194
0.0003547521
0.00039972738
0.0004478558
0.00050405715
0.00052159505
0.00019114653
0.00020606379
0.00023435899
0.00027072653
0.00031156233
0.00035474257
0.00039971932
0.00044785008
0.00050405423
0.00052159499
0.00019114623
0.00020606127
0.00023435314
0.00027071798
0.00031155259
0.00035473322
0.00039971156
0.00044784463
0.00050405143
0.00052159473
0.00019114441
0.00020605751
0.00023434652
0.00027070916
0.00031154298
0.00035472422
0.00039970422
0.00044783954
0.00050404879
0.00052159432
0.00019114142
0.00020605283
0.00023433944
0.00027070033
0.00031153369
0.00035471572
0.0003996974
0.00044783485
0.00050404635
0.00052159382
0.00019113757
0.00020604755
0.00023433217
0.00027069171
0.00031152488
0.00035470781
0.00039969111
0.00044783053
0.00050404405
0.00052159323
)
;

boundaryField
{
    water_inlet
    {
        type            turbulentIntensityKineticEnergyInlet;
        intensity       0.05;
        value           uniform 0.000234375;
    }
    water_outlet
    {
        type            inletOutlet;
        inletValue      uniform 0.0001;
        value           nonuniform List<scalar> 10(0.00019113757 0.00020604755 0.00023433217 0.00027069171 0.00031152488 0.00035470781 0.00039969111 0.00044783053 0.00050404405 0.00052159323);
    }
    water_wedge1
    {
        type            wedge;
    }
    water_wedge2
    {
        type            wedge;
    }
    water_to_rock
    {
        type            kqRWallFunction;
        value           nonuniform List<scalar> 
100
(
0.00048657967
0.00057072179
0.00057180213
0.00054812311
0.00052456958
0.0005086104
0.00050003858
0.00049629343
0.00049505666
0.00049493721
0.00049528029
0.00049583503
0.000496526
0.00049733747
0.00049826642
0.00049930741
0.00050044511
0.00050166212
0.0005029468
0.00050428936
0.00050567931
0.00050710517
0.00050855494
0.00051001633
0.00051147661
0.00051292227
0.00051433856
0.00051570924
0.00051701685
0.00051824348
0.00051937205
0.00052038774
0.00052127935
0.00052204018
0.00052266846
0.00052316717
0.00052354341
0.00052380753
0.00052397205
0.00052405071
0.0005240575
0.00052400596
0.00052390869
0.00052377704
0.0005236201
0.00052344573
0.00052326161
0.00052307426
0.00052288892
0.00052270962
0.0005225393
0.00052238008
0.00052223329
0.00052209975
0.00052197981
0.00052187345
0.0005217804
0.00052170015
0.00052163202
0.00052157518
0.00052152874
0.00052149176
0.00052146327
0.00052144231
0.00052142798
0.00052141939
0.00052141569
0.0005214161
0.00052141989
0.00052142638
0.00052143495
0.00052144501
0.00052145604
0.00052146762
0.00052147944
0.00052149125
0.00052150283
0.000521514
0.00052152461
0.00052153455
0.00052154373
0.0005215521
0.00052155962
0.00052156629
0.00052157213
0.00052157717
0.00052158146
0.00052158506
0.00052158801
0.00052159036
0.00052159217
0.00052159349
0.00052159436
0.00052159486
0.00052159505
0.00052159499
0.00052159473
0.00052159432
0.00052159382
0.00052159323
)
;
    }
}


// ************************************************************************* //
