/*--------------------------------*- C++ -*----------------------------------*\
| =========                 |                                                 |
| \\      /  F ield         | OpenFOAM: The Open Source CFD Toolbox           |
|  \\    /   O peration     | Version:  2506                                  |
|   \\  /    A nd           | Website:  www.openfoam.com                      |
|    \\/     M anipulation  |                                                 |
\*---------------------------------------------------------------------------*/
FoamFile
{
    version     2.0;
    format      ascii;
    arch        "LSB;label=32;scalar=64";
    class       volScalarField;
    location    "14000/water";
    object      nut;
}
// * * * * * * * * * * * * * * * * * * * * * * * * * * * * * * * * * * * * * //

dimensions      [0 2 -1 0 0 0 0];

internalField   nonuniform List<scalar> 
1000
(
3.8760013e-05
3.8759344e-05
3.875781e-05
3.8749425e-05
3.8703919e-05
3.8465194e-05
3.7257946e-05
3.1920747e-05
1.9133705e-05
1.6330702e-05
3.6503362e-05
3.6502673e-05
3.6496233e-05
3.646333e-05
3.6309099e-05
3.5625574e-05
3.2857817e-05
2.4520495e-05
1.4670662e-05
1.7686427e-05
3.4818769e-05
3.4815355e-05
3.4798028e-05
3.4720761e-05
3.4400237e-05
3.3155729e-05
2.8966489e-05
2.0114788e-05
1.4313207e-05
1.7703159e-05
3.3515366e-05
3.3507685e-05
3.3473492e-05
3.3336596e-05
3.2819809e-05
3.0995914e-05
2.5816445e-05
1.8305094e-05
1.5980884e-05
1.733273e-05
3.247679e-05
3.2463573e-05
3.2409013e-05
3.2208499e-05
3.1494112e-05
2.9122758e-05
2.3598483e-05
1.8669267e-05
1.8895423e-05
1.6956233e-05
3.1628598e-05
3.1609534e-05
3.153636e-05
3.1282467e-05
3.0382785e-05
2.7534723e-05
2.2595516e-05
2.0840915e-05
2.23189e-05
1.6696303e-05
3.0922115e-05
3.0899107e-05
3.0816967e-05
3.0532908e-05
2.945513e-05
2.6339707e-05
2.3103579e-05
2.4287729e-05
2.5587515e-05
1.6555014e-05
3.0325437e-05
3.0303994e-05
3.0232579e-05
2.9948424e-05
2.8696112e-05
2.5834303e-05
2.5184221e-05
2.833175e-05
2.8356142e-05
1.6492906e-05
2.9818407e-05
2.9809196e-05
2.977928e-05
2.9521834e-05
2.8158011e-05
2.6405065e-05
2.8560005e-05
3.23928e-05
3.0574186e-05
1.6472343e-05
2.9389965e-05
2.9410468e-05
2.9462808e-05
2.9249434e-05
2.8031651e-05
2.8288417e-05
3.2740106e-05
3.6145495e-05
3.2325611e-05
1.6470351e-05
2.9037015e-05
2.9113035e-05
2.9294058e-05
2.915207e-05
2.8635114e-05
3.1431672e-05
3.7231637e-05
3.9484558e-05
3.3719783e-05
1.6476056e-05
2.8764313e-05
2.8930757e-05
2.9285821e-05
2.9323123e-05
3.026986e-05
3.5542697e-05
4.1683811e-05
4.2417931e-05
3.4850481e-05
1.6485281e-05
2.8585076e-05
2.8885036e-05
2.9456308e-05
2.9966816e-05
3.3062383e-05
4.0234069e-05
4.5910832e-05
4.4991534e-05
3.5787786e-05
1.6496765e-05
2.8522047e-05
2.9003092e-05
2.9849175e-05
3.1360045e-05
3.6918666e-05
4.5156898e-05
4.9841263e-05
4.725725e-05
3.6581127e-05
1.651024e-05
2.8608586e-05
2.9316694e-05
3.0570741e-05
3.3736211e-05
4.158682e-05
5.0067219e-05
5.3461851e-05
4.9262496e-05
3.7264735e-05
1.6525651e-05
2.8889247e-05
2.9865915e-05
3.1814245e-05
3.718054e-05
4.6760385e-05
5.48247e-05
5.6783844e-05
5.1047214e-05
3.7861756e-05
1.6542904e-05
2.9419585e-05
3.0715653e-05
3.3824811e-05
4.1605583e-05
5.2164862e-05
5.9359703e-05
5.9827196e-05
5.2642473e-05
3.8381963e-05
1.6561741e-05
3.0266853e-05
3.1985486e-05
3.6807485e-05
4.6798465e-05
5.759891e-05
6.3641811e-05
6.2613377e-05
5.4068817e-05
3.884163e-05
1.6581868e-05
3.1517399e-05
3.3868959e-05
4.084223e-05
5.2497496e-05
6.2933686e-05
6.7660576e-05
6.5161093e-05
5.5349531e-05
3.9251417e-05
1.6603087e-05
3.3297745e-05
3.6603694e-05
4.5857783e-05
5.8458801e-05
6.8092402e-05
7.1415509e-05
6.7488968e-05
5.6504102e-05
3.9619138e-05
1.6625232e-05
3.580072e-05
4.0389873e-05
5.1664148e-05
6.4490915e-05
7.3029015e-05
7.490746e-05
6.9617524e-05
5.7547377e-05
3.9950784e-05
1.6648129e-05
3.927873e-05
4.5307745e-05
5.8014294e-05
7.045738e-05
7.7711414e-05
7.8146357e-05
7.1563646e-05
5.849125e-05
4.0250685e-05
1.6671585e-05
4.397024e-05
5.1284154e-05
6.4662404e-05
7.6261031e-05
8.2121328e-05
8.1143088e-05
7.3340908e-05
5.9344976e-05
4.0521919e-05
1.66954e-05
4.9985854e-05
5.8115894e-05
7.1396867e-05
8.1830264e-05
8.6249795e-05
8.3906037e-05
7.4959848e-05
6.0115457e-05
4.0766588e-05
1.6719372e-05
5.7227307e-05
6.5524324e-05
7.8046947e-05
8.7114531e-05
9.0090027e-05
8.6440681e-05
7.6427862e-05
6.0807456e-05
4.0985978e-05
1.674329e-05
6.5389873e-05
7.3210614e-05
8.4485691e-05
9.2076174e-05
9.3633656e-05
8.8749113e-05
7.7749253e-05
6.1423772e-05
4.1180649e-05
1.6766934e-05
7.404397e-05
8.0902096e-05
9.0618293e-05
9.6681966e-05
9.6870426e-05
9.0830157e-05
7.8925475e-05
6.196545e-05
4.1350523e-05
1.6790066e-05
8.274548e-05
8.8368631e-05
9.6368299e-05
0.00010090295
9.9789143e-05
9.2680235e-05
7.9955758e-05
6.2432147e-05
4.1495021e-05
1.6812424e-05
9.1121265e-05
9.5428111e-05
0.0001016746
0.00010471566
0.00010237963
9.4294949e-05
8.0838167e-05
6.282273e-05
4.1613301e-05
1.6833728e-05
9.8907108e-05
0.00010194724
0.00010649153
0.00010810402
0.00010463512
9.5671099e-05
8.1571001e-05
6.3136081e-05
4.170458e-05
1.6853688e-05
0.0001059465
0.00010783951
0.00011078989
0.00011106098
0.00010655441
9.6808657e-05
8.2154241e-05
6.3371953e-05
4.1768487e-05
1.6872031e-05
0.00011216951
0.00011306046
0.00011455734
0.00011358942
0.0001081432
9.7712203e-05
8.2590712e-05
6.3531695e-05
4.1805374e-05
1.6888519e-05
0.00011756734
0.0001176006
0.00011779764
0.00011570194
0.00010941441
9.8391546e-05
8.2886713e-05
6.3618679e-05
4.1816472e-05
1.6902978e-05
0.00012217035
0.00012147726
0.00012052848
0.00011741971
0.00011038747
9.8861509e-05
8.3052043e-05
6.3638359e-05
4.180391e-05
1.6915305e-05
0.00012603181
0.00012472663
0.00012277868
0.00011877074
0.00011108706
9.9141088e-05
8.3099521e-05
6.3598012e-05
4.1770581e-05
1.6925479e-05
0.0001292169
0.00012739693
0.00012458501
0.0001197879
0.0001115415
9.9252257e-05
8.3044192e-05
6.3506265e-05
4.1719916e-05
1.6933552e-05
0.00013179554
0.00012954298
0.00012598927
0.00012050698
0.00011178121
9.9218702e-05
8.2902417e-05
6.3372529e-05
4.1655637e-05
1.6939642e-05
0.00013383804
0.00013122223
0.00012703574
0.00012096501
0.00011183721
9.9064643e-05
8.2690979e-05
6.3206449e-05
4.1581513e-05
1.6943917e-05
0.00013541242
0.00013249198
0.0001277692
0.00012119885
0.00011174008
9.8813826e-05
8.2426305e-05
6.3017396e-05
4.1501151e-05
1.6946578e-05
0.0001365828
0.00013340746
0.00012823333
0.0001212441
0.00011151894
9.8488726e-05
8.2123828e-05
6.2814075e-05
4.1417833e-05
1.6947849e-05
0.00013740855
0.00013402063
0.00012846966
0.00012113427
0.00011120083
9.8109941e-05
8.179751e-05
6.2604212e-05
4.1334393e-05
1.6947956e-05
0.00013794378
0.00013437942
0.00012851677
0.0001209002
0.00011081024
9.76958e-05
8.1459525e-05
6.239437e-05
4.1253153e-05
1.694712e-05
0.00013823721
0.00013452731
0.00012840983
0.00012056973
0.00011036883
9.7262149e-05
8.1120117e-05
6.2189874e-05
4.11759e-05
1.6945546e-05
0.00013833218
0.00013450322
0.00012818038
0.00012016751
0.00010989535
9.6822327e-05
8.0787601e-05
6.1994833e-05
4.1103904e-05
1.6943418e-05
0.00013826688
0.0001343416
0.00012785634
0.00011971505
0.00010940575
9.6387231e-05
8.046838e-05
6.1811976e-05
4.1036906e-05
1.6940882e-05
0.00013807472
0.00013407263
0.00012746211
0.00011923085
0.00010891325
9.5965452e-05
8.016699e-05
6.1642309e-05
4.0976006e-05
1.6938064e-05
0.00013778468
0.00013372254
0.0001270188
0.00011873059
0.00010842862
9.5563397e-05
7.9885933e-05
6.1487889e-05
4.0921654e-05
1.6935087e-05
0.00013742181
0.00013331398
0.00012654448
0.00011822729
0.00010796023
9.5185235e-05
7.9628356e-05
6.1349534e-05
4.0874027e-05
1.6932055e-05
0.00013700752
0.00013286626
0.00012605436
0.00011773145
0.00010751408
9.4835321e-05
7.9395769e-05
6.1227511e-05
4.0833071e-05
1.6929054e-05
0.00013655996
0.00013239562
0.00012556079
0.00011725109
0.00010709596
9.4516143e-05
7.918877e-05
6.1121622e-05
4.0798541e-05
1.6926149e-05
0.00013609412
0.0001319153
0.00012507394
0.00011679365
0.00010670964
9.4228956e-05
7.9007216e-05
6.1031279e-05
4.0770044e-05
1.692339e-05
0.00013562241
0.00013143655
0.00012460262
0.00011636442
0.00010635741
9.397403e-05
7.8850364e-05
6.0955597e-05
4.0747087e-05
1.692081e-05
0.00013515527
0.00013096874
0.00012415359
0.00011596711
0.00010604041
9.3750841e-05
7.8717022e-05
6.0893493e-05
4.0729127e-05
1.6918433e-05
0.00013470117
0.00013051923
0.0001237319
0.00011560405
0.00010575879
9.3558264e-05
7.8605686e-05
6.0843767e-05
4.0715603e-05
1.6916271e-05
0.00013426677
0.00013009371
0.0001233411
0.00011527645
0.00010551194
9.3394734e-05
7.8514658e-05
6.080518e-05
4.0705966e-05
1.6914328e-05
0.00013385716
0.00012969636
0.00012298351
0.0001149846
0.00010529867
9.325838e-05
7.8442135e-05
6.0776493e-05
4.0699696e-05
1.6912605e-05
0.00013347606
0.00012933007
0.00012266042
0.00011472806
0.00010511733
9.3147119e-05
7.8386268e-05
6.0756496e-05
4.0696304e-05
1.6911097e-05
0.000133126
0.00012899666
0.0001223722
0.00011450575
0.00010496594
9.3058738e-05
7.8345203e-05
6.0744025e-05
4.0695335e-05
1.6909795e-05
0.00013280846
0.00012869698
0.0001221185
0.00011431613
0.00010484226
9.2990948e-05
7.8317116e-05
6.0737973e-05
4.069637e-05
1.690869e-05
0.00013252407
0.0001284311
0.00012189834
0.00011415724
0.00010474385
9.2941441e-05
7.8300237e-05
6.0737296e-05
4.069902e-05
1.6907768e-05
0.00013227267
0.00012819839
0.00012171024
0.00011402686
0.00010466822
9.2907938e-05
7.829288e-05
6.0741026e-05
4.0702933e-05
1.6907016e-05
0.0001320535
0.00012799768
0.00012155231
0.00011392254
0.00010461281
9.2888234e-05
7.8293463e-05
6.0748278e-05
4.0707795e-05
1.6906417e-05
0.00013186528
0.00012782736
0.0001214224
0.00011384177
0.00010457514
9.2880237e-05
7.8300528e-05
6.0758256e-05
4.0713329e-05
1.6905955e-05
0.00013170632
0.0001276855
0.00012131817
0.00011378198
0.00010455278
9.2881999e-05
7.8312756e-05
6.0770259e-05
4.0719297e-05
1.6905616e-05
0.00013157468
0.00012756992
0.00012123717
0.00011374065
0.00010454345
9.2891733e-05
7.8328969e-05
6.0783677e-05
4.07255e-05
1.6905384e-05
0.00013146821
0.00012747834
0.00012117696
0.00011371536
0.00010454503
9.2907825e-05
7.834813e-05
6.0797989e-05
4.0731773e-05
1.6905245e-05
0.00013138464
0.00012740841
0.00012113509
0.00011370378
0.00010455556
9.2928825e-05
7.8369335e-05
6.0812755e-05
4.0737982e-05
1.6905184e-05
0.00013132166
0.00012735774
0.00012110919
0.00011370374
0.00010457325
9.2953446e-05
7.8391801e-05
6.0827602e-05
4.0744017e-05
1.690519e-05
0.00013127697
0.000127324
0.00012109698
0.00011371321
0.00010459647
9.2980554e-05
7.8414853e-05
6.0842221e-05
4.0749792e-05
1.6905252e-05
0.00013124826
0.00012730491
0.0001210963
0.00011373031
0.00010462378
9.3009155e-05
7.8437921e-05
6.0856356e-05
4.0755236e-05
1.6905357e-05
0.00013123333
0.00012729828
0.00012110513
0.00011375334
0.00010465388
9.3038393e-05
7.8460525e-05
6.0869802e-05
4.0760296e-05
1.6905496e-05
0.00013123003
0.00012730203
0.00012112159
0.00011378075
0.00010468565
9.3067543e-05
7.8482272e-05
6.0882388e-05
4.0764886e-05
1.690566e-05
0.00013123636
0.00012731423
0.00012114397
0.00011381119
0.00010471812
9.3096006e-05
7.8502848e-05
6.089396e-05
4.0768983e-05
1.6905839e-05
0.00013125048
0.00012733313
0.00012117073
0.00011384347
0.00010475048
9.3123303e-05
7.8521996e-05
6.0904449e-05
4.0772612e-05
1.6906027e-05
0.0001312707
0.00012735712
0.00012120056
0.00011387661
0.00010478208
9.3149044e-05
7.853956e-05
6.0913857e-05
4.0775789e-05
1.6906219e-05
0.00013129551
0.00012738481
0.00012123227
0.00011390975
0.00010481238
9.3172959e-05
7.8555494e-05
6.0922191e-05
4.0778537e-05
1.6906411e-05
0.00013132361
0.00012741499
0.00012126489
0.0001139422
0.00010484096
9.3194919e-05
7.8569773e-05
6.0929483e-05
4.0780886e-05
1.6906598e-05
0.00013135383
0.00012744658
0.00012129756
0.00011397339
0.00010486758
9.3214837e-05
7.8582411e-05
6.093578e-05
4.0782864e-05
1.6906778e-05
0.00013138517
0.00012747866
0.0001213296
0.00011400295
0.00010489207
9.323268e-05
7.8593452e-05
6.0941138e-05
4.0784502e-05
1.690695e-05
0.00013141678
0.0001275105
0.00012136048
0.00011403057
0.0001049143
9.3248459e-05
7.8602961e-05
6.0945621e-05
4.078583e-05
1.6907111e-05
0.00013144796
0.00012754149
0.00012138978
0.00011405602
0.00010493423
9.3262218e-05
7.8611017e-05
6.0949294e-05
4.0786876e-05
1.690726e-05
0.00013147815
0.00012757115
0.00012141718
0.00011407918
0.00010495184
9.327403e-05
7.861771e-05
6.0952223e-05
4.0787667e-05
1.6907396e-05
0.00013150689
0.00012759908
0.00012144244
0.00011409995
0.00010496719
9.3283993e-05
7.8623141e-05
6.0954478e-05
4.0788231e-05
1.6907519e-05
0.00013153381
0.00012762501
0.00012146541
0.00011411833
0.00010498034
9.3292228e-05
7.8627421e-05
6.0956129e-05
4.0788594e-05
1.6907627e-05
0.0001315587
0.00012764875
0.00012148602
0.00011413436
0.00010499143
9.3298874e-05
7.8630669e-05
6.0957252e-05
4.0788783e-05
1.6907722e-05
0.00013158138
0.00012767019
0.00012150426
0.00011414814
0.0001050006
9.3304089e-05
7.8633008e-05
6.095792e-05
4.0788827e-05
1.6907804e-05
0.00013160179
0.00012768933
0.00012152021
0.00011415981
0.00010500803
9.3308035e-05
7.8634565e-05
6.0958211e-05
4.0788756e-05
1.6907873e-05
0.00013161994
0.00012770619
0.00012153395
0.00011416952
0.00010501388
9.3310872e-05
7.8635459e-05
6.0958191e-05
4.0788596e-05
1.6907931e-05
0.00013163587
0.00012772084
0.00012154561
0.00011417743
0.00010501833
9.3312749e-05
7.8635797e-05
6.0957924e-05
4.0788368e-05
1.6907978e-05
0.00013164966
0.00012773339
0.00012155534
0.0001141837
0.00010502155
9.33138e-05
7.8635671e-05
6.0957458e-05
4.0788091e-05
1.6908017e-05
0.00013166138
0.00012774394
0.00012156325
0.00011418849
0.00010502367
9.331414e-05
7.8635159e-05
6.0956833e-05
4.0787775e-05
1.6908047e-05
0.00013167115
0.00012775261
0.0001215695
0.00011419194
0.00010502482
9.3313875e-05
7.8634329e-05
6.0956083e-05
4.0787431e-05
1.6908069e-05
0.00013167909
0.00012775953
0.00012157423
0.0001141942
0.00010502515
9.3313102e-05
7.8633242e-05
6.0955236e-05
4.0787064e-05
1.6908084e-05
0.00013168534
0.00012776485
0.00012157759
0.00011419542
0.00010502477
9.3311918e-05
7.8631959e-05
6.0954323e-05
4.0786683e-05
1.6908092e-05
0.00013169005
0.00012776873
0.00012157976
0.00011419575
0.00010502382
9.3310422e-05
7.8630544e-05
6.0953374e-05
4.0786299e-05
1.6908095e-05
0.00013169343
0.00012777137
0.00012158091
0.00011419537
0.00010502244
9.3308711e-05
7.8629056e-05
6.0952421e-05
4.0785923e-05
1.6908094e-05
0.00013169567
0.00012777296
0.00012158122
0.00011419443
0.00010502074
9.3306871e-05
7.8627549e-05
6.0951491e-05
4.0785565e-05
1.6908088e-05
0.00013169697
0.00012777369
0.00012158088
0.00011419307
0.00010501884
9.3304978e-05
7.8626068e-05
6.0950606e-05
4.0785233e-05
1.6908081e-05
0.00013169753
0.00012777376
0.00012158004
0.00011419142
0.00010501683
9.3303087e-05
7.8624643e-05
6.0949779e-05
4.0784931e-05
1.6908071e-05
0.00013169754
0.00012777331
0.00012157883
0.00011418958
0.00010501477
9.3301233e-05
7.8623284e-05
6.0949007e-05
4.0784653e-05
1.6908061e-05
)
;

boundaryField
{
    water_inlet
    {
        type            calculated;
        value           uniform 4.1926275e-05;
    }
    water_outlet
    {
        type            calculated;
        value           nonuniform List<scalar> 10(0.00013169754 0.00012777331 0.00012157883 0.00011418958 0.00010501477 9.3301233e-05 7.8623284e-05 6.0949007e-05 4.0784653e-05 1.6908061e-05);
    }
    water_wedge1
    {
        type            wedge;
    }
    water_wedge2
    {
        type            wedge;
    }
    water_to_rock
    {
        type            nutkWallFunction;
        blending        stepwise;
        value           nonuniform List<scalar> 
100
(
1.7358471e-06
1.9240026e-06
1.9263124e-06
1.8751054e-06
1.822911e-06
1.7867867e-06
1.7671184e-06
1.7584651e-06
1.7555994e-06
1.7553224e-06
1.7561178e-06
1.7574034e-06
1.7590035e-06
1.7608811e-06
1.7630284e-06
1.7654319e-06
1.7680555e-06
1.7708583e-06
1.7738127e-06
1.7768956e-06
1.7800825e-06
1.7833466e-06
1.78666e-06
1.7899946e-06
1.7933213e-06
1.7966094e-06
1.7998255e-06
1.8029334e-06
1.8058938e-06
1.8086671e-06
1.8112154e-06
1.8135061e-06
1.8155149e-06
1.8172275e-06
1.8186407e-06
1.8197617e-06
1.8206071e-06
1.8212003e-06
1.8215697e-06
1.8217463e-06
1.8217616e-06
1.8216459e-06
1.8214275e-06
1.8211318e-06
1.8207793e-06
1.8203876e-06
1.8199739e-06
1.8195529e-06
1.8191363e-06
1.8187332e-06
1.8183502e-06
1.8179921e-06
1.817662e-06
1.8173615e-06
1.8170917e-06
1.8168523e-06
1.8166429e-06
1.8164623e-06
1.8163089e-06
1.816181e-06
1.8160764e-06
1.8159932e-06
1.815929e-06
1.8158818e-06
1.8158496e-06
1.8158302e-06
1.8158219e-06
1.8158228e-06
1.8158314e-06
1.815846e-06
1.8158652e-06
1.8158879e-06
1.8159127e-06
1.8159388e-06
1.8159654e-06
1.815992e-06
1.8160181e-06
1.8160432e-06
1.8160671e-06
1.8160895e-06
1.8161102e-06
1.816129e-06
1.8161459e-06
1.816161e-06
1.8161741e-06
1.8161854e-06
1.8161951e-06
1.8162032e-06
1.8162098e-06
1.8162151e-06
1.8162192e-06
1.8162222e-06
1.8162241e-06
1.8162253e-06
1.8162257e-06
1.8162255e-06
1.816225e-06
1.8162241e-06
1.8162229e-06
1.8162216e-06
)
;
    }
}


// ************************************************************************* //
