/*--------------------------------*- C++ -*----------------------------------*\
| =========                 |                                                 |
| \\      /  F ield         | OpenFOAM: The Open Source CFD Toolbox           |
|  \\    /   O peration     | Version:  2506                                  |
|   \\  /    A nd           | Website:  www.openfoam.com                      |
|    \\/     M anipulation  |                                                 |
\*---------------------------------------------------------------------------*/
FoamFile
{
    version     2.0;
    format      ascii;
    arch        "LSB;label=32;scalar=64";
    class       volVectorField;
    location    "14000/water";
    object      U;
}
// * * * * * * * * * * * * * * * * * * * * * * * * * * * * * * * * * * * * * //

dimensions      [0 1 -1 0 0 0 0];

internalField   nonuniform List<vector> 
1000
(
(0.25225587 -0.00012859767 2.7894922e-18)
(0.25226258 -0.00027067836 1.2020395e-18)
(0.25227485 -0.00041450539 1.6416188e-18)
(0.25228819 -0.00055572716 4.3173149e-19)
(0.25229018 -0.0006857579 5.2123873e-19)
(0.25223998 -0.00079863172 -4.3335094e-20)
(0.25200713 -0.00089615194 -1.1800693e-19)
(0.25115686 -0.0010460356 -4.3766755e-19)
(0.24780473 -0.0012820719 -2.789397e-19)
(0.23308261 0.0010121611 -3.8718667e-19)
(0.25653043 -7.7330451e-05 1.2280692e-18)
(0.25653977 -0.00018903831 1.7239254e-18)
(0.25655871 -0.00029096536 1.9808355e-18)
(0.25657276 -0.00039024487 7.2424754e-19)
(0.25654377 -0.00048175039 4.1334577e-19)
(0.25636039 -0.00055898443 6.4208386e-20)
(0.25570613 -0.000605365 -1.7550178e-19)
(0.25355952 -0.00065441371 -5.8281014e-19)
(0.24574266 -0.00084724786 -3.9214892e-19)
(0.21968686 0.00025718803 -4.6111209e-19)
(0.26021787 -7.3909974e-05 -1.8211461e-18)
(0.26022468 -0.00018059831 2.8479475e-19)
(0.26023383 -0.00027741908 8.369419e-19)
(0.26021807 -0.00037159737 2.4779979e-19)
(0.26010153 -0.00045735765 -3.3354257e-19)
(0.25968006 -0.00053044588 -2.6984964e-19)
(0.25840621 -0.00057093086 -2.1159966e-19)
(0.25452353 -0.00056554751 -3.6322655e-19)
(0.24186464 -0.00061987697 -4.6664206e-19)
(0.20839344 1.1252347e-05 -4.9174463e-19)
(0.26340526 -6.8945959e-05 -4.7760162e-19)
(0.26340956 -0.00017058503 4.3692718e-19)
(0.26340597 -0.00026279219 6.2833685e-19)
(0.2633478 -0.00035138353 1.1573861e-19)
(0.26310913 -0.00042951118 -9.3648034e-20)
(0.26237282 -0.0004939496 -2.9579872e-19)
(0.26030372 -0.0005275092 -2.2659497e-19)
(0.25430845 -0.00049289803 -3.4619999e-19)
(0.23723183 -0.00045934127 -4.1656927e-19)
(0.19958846 -4.8876055e-05 -4.2210853e-19)
(0.26641628 -6.4388918e-05 -9.8027342e-19)
(0.26641555 -0.00015946864 1.421942e-18)
(0.266392 -0.00024539843 8.2974397e-19)
(0.26627267 -0.00032748749 6.2092511e-19)
(0.26586988 -0.00039791728 3.742038e-19)
(0.26472852 -0.00045250593 3.9335579e-19)
(0.26164541 -0.00047360777 -2.795277e-20)
(0.25321247 -0.00041483608 -3.9151332e-19)
(0.23271016 -0.00033459052 -4.3448028e-19)
(0.19329516 -5.063179e-05 -4.1464174e-19)
(0.26927573 -6.086751e-05 3.6326546e-19)
(0.26926715 -0.00015024322 9.5092463e-19)
(0.2692148 -0.00023070436 9.7905275e-19)
(0.26901237 -0.0003070273 7.0767555e-19)
(0.26839647 -0.00037050001 4.1496982e-19)
(0.26673518 -0.00041493253 2.9957517e-19)
(0.26236789 -0.00041871855 3.3610539e-21)
(0.25136278 -0.00033834986 -2.7383395e-19)
(0.22869803 -0.00023662837 -2.8633537e-19)
(0.18902129 -3.9493846e-05 -3.5373877e-19)
(0.27197991 -5.8057571e-05 3.1974316e-18)
(0.27196006 -0.00014287141 2.1947893e-18)
(0.27186829 -0.00021894844 3.3194513e-19)
(0.2715565 -0.00029030369 6.6608148e-19)
(0.27066607 -0.0003472902 2.5645661e-19)
(0.26833151 -0.00038068343 5.7431705e-20)
(0.26239848 -0.00036437377 -1.3944598e-19)
(0.24902639 -0.00026852638 -1.4292024e-19)
(0.22536101 -0.00016272861 -1.5939824e-19)
(0.18616827 -2.8774858e-05 -3.3676221e-19)
(0.27455816 -5.5861862e-05 1.3939828e-19)
(0.27452281 -0.00013703218 2.1159615e-18)
(0.27437848 -0.00020952029 8.0868948e-19)
(0.27392442 -0.00027640523 6.5729107e-19)
(0.27267856 -0.00032682125 3.0703836e-19)
(0.26947684 -0.00034738491 4.5672843e-19)
(0.26178464 -0.00031092789 9.300497e-20)
(0.2465738 -0.00020817012 -1.4062299e-19)
(0.22271522 -0.00011050212 -2.2497709e-19)
(0.18425841 -2.0837367e-05 -2.8036559e-19)
(0.27704027 -5.4085719e-05 -1.7521946e-20)
(0.27698407 -0.00013225439 6.8703247e-19)
(0.27677058 -0.00020162579 1.2317326e-18)
(0.2761317 -0.000264173 6.186258e-19)
(0.27442311 -0.00030720604 5.5581353e-19)
(0.27014169 -0.00031294803 2.9149165e-19)
(0.26068996 -0.00025925832 8.4595351e-20)
(0.24429833 -0.00015836481 -9.4938506e-20)
(0.22067584 -7.5408575e-05 -4.5508258e-20)
(0.182962 -1.515339e-05 -8.5048302e-20)
(0.27944341 -5.2555713e-05 2.3954848e-18)
(0.27935955 -0.0001281413 1.5999601e-18)
(0.27905543 -0.00019460749 9.3823724e-20)
(0.27817575 -0.0002525924 5.2542969e-19)
(0.27586796 -0.00028673461 5.8644644e-19)
(0.27032642 -0.00027659213 1.2320581e-19)
(0.259335 -0.00021094027 -7.6702507e-20)
(0.24234215 -0.00011891194 -8.9849012e-20)
(0.21912383 -5.2171567e-05 -1.8971469e-19)
(0.18206598 -1.0945245e-05 -1.7839122e-19)
(0.28177654 -5.1166638e-05 1.0491862e-18)
(0.2816562 -0.00012441968 6.659085e-20)
(0.2812333 -0.00018797298 -4.3598291e-19)
(0.28003902 -0.00024077464 1.0278393e-18)
(0.27697398 -0.00026417656 5.2046987e-19)
(0.27008761 -0.00023880411 3.3823177e-19)
(0.25792267 -0.00016762323 -8.2324778e-20)
(0.24073179 -8.8481398e-05 -1.3397991e-19)
(0.21795021 -3.6445808e-05 -2.1099226e-19)
(0.18143935 -7.6991636e-06 -1.6204957e-19)
(0.28404476 -4.9854733e-05 1.9653788e-18)
(0.28387626 -0.00012089417 3.1083247e-19)
(0.2832974 -0.0001813291 9.8593904e-20)
(0.28169345 -0.0002278772 9.133619e-19)
(0.27771472 -0.00023897394 3.3871007e-19)
(0.26953508 -0.00020087559 2.6820419e-19)
(0.25659136 -0.00013036531 -1.4384229e-20)
(0.2394378 -6.5171708e-05 -1.370917e-20)
(0.21706902 -2.5325833e-05 -1.4208575e-19)
(0.18100323 -5.1222866e-06 -1.7890132e-19)
(0.28625049 -4.8572046e-05 1.2986182e-18)
(0.28601827 -0.00011740084 6.3489462e-19)
(0.28523427 -0.00017430185 5.5392387e-19)
(0.28310495 -0.00021314191 7.1430228e-19)
(0.27809438 -0.0002112906 3.1704091e-19)
(0.26879939 -0.00016439817 3.1582177e-20)
(0.25541091 -9.9329536e-05 1.2404511e-19)
(0.238414 -4.7156013e-05 -2.6498846e-20)
(0.21641538 -1.7079142e-05 -1.7769419e-19)
(0.18070892 -3.043767e-06 -1.3737621e-19)
(0.28839355 -4.7270885e-05 4.1673266e-19)
(0.28807682 -0.00011377559 7.8646257e-19)
(0.28702342 -0.0001664596 3.5202875e-19)
(0.28424079 -0.00019602572 3.2502662e-19)
(0.27815548 -0.00018188499 3.5356979e-19)
(0.26799598 -0.00013078942 -1.7286146e-19)
(0.25440306 -7.3936945e-05 -2.3771274e-19)
(0.23761477 -3.3003709e-05 -1.5615244e-19)
(0.21594075 -1.071581e-05 -1.5548911e-19)
(0.18052448 -1.3526447e-06 -2.3003289e-19)
(0.29047097 -4.589135e-05 1.58841e-18)
(0.29004195 -0.00010982883 2.5194777e-18)
(0.2886378 -0.00015729259 1.1772311e-19)
(0.28508025 -0.00017633789 -4.7999168e-19)
(0.27797082 -0.00015188643 -2.0209178e-19)
(0.26720624 -0.00010094603 -1.4041583e-19)
(0.25356401 -5.3258292e-05 -2.9282344e-19)
(0.23700054 -2.1698262e-05 -1.3746059e-19)
(0.21560862 -5.6592723e-06 -9.3552427e-20)
(0.18042758 3.423157e-08 -6.2207304e-20)
(0.29247637 -4.4351409e-05 1.4896269e-18)
(0.29189831 -0.00010531299 -1.5288618e-19)
(0.29004631 -0.00014628134 1.4538566e-19)
(0.28562471 -0.00015430559 4.1757056e-19)
(0.27762407 -0.00012253844 1.9278534e-20)
(0.26647731 -7.5147121e-05 -4.750526e-20)
(0.25287923 -3.6357446e-05 -5.1082067e-21)
(0.23653863 -1.2544335e-05 -2.9434361e-20)
(0.21539112 -1.52767e-06 -5.1067577e-20)
(0.18040203 1.2057273e-06 1.2101362e-19)
(0.29439899 -4.2542472e-05 5.669764e-19)
(0.2936244 -9.9894047e-05 1.350175e-19)
(0.2912191 -0.00013302945 2.0291056e-19)
(0.28590173 -0.00013054431 4.1354932e-19)
(0.27719084 -9.4943047e-05 4.0229662e-19)
(0.26583133 -5.3197567e-05 1.5212541e-20)
(0.25233097 -2.245251e-05 1.0584058e-19)
(0.23620236 -5.0205066e-06 2.4229335e-20)
(0.21526451 1.8971787e-06 -8.5442014e-20)
(0.18043773 2.1933064e-06 -1.6355382e-19)
(0.29622246 -4.0322013e-05 6.7484056e-19)
(0.29519257 -9.315467e-05 3.0858627e-19)
(0.29213503 -0.00011739201 2.925934e-19)
(0.28595987 -0.00010594242 6.2152751e-19)
(0.2767282 -6.9856285e-05 5.0577912e-19)
(0.26527516 -3.4648714e-05 4.1380487e-19)
(0.25190111 -1.0910585e-05 2.9806161e-19)
(0.23596808 1.2317233e-06 4.4069065e-20)
(0.21521693 4.7056453e-06 4.3587434e-20)
(0.18052215 2.9882412e-06 -5.0526631e-20)
(0.29792331 -3.7500914e-05 1.6402772e-18)
(0.29657065 -8.4659497e-05 1.0249815e-18)
(0.29278916 -9.9550977e-05 5.4734925e-19)
(0.285857 -8.1495045e-05 9.1994125e-19)
(0.27627357 -4.7618395e-05 4.5966509e-19)
(0.26480714 -1.898319e-05 6.5835578e-19)
(0.25157195 -1.2534678e-06 8.0437771e-20)
(0.23582163 6.4207791e-06 -5.7345975e-20)
(0.21523439 6.9891036e-06 -9.3330805e-21)
(0.18064614 3.6201898e-06 -1.1815511e-19)
(0.29946977 -3.3841112e-05 -9.4501926e-19)
(0.29772599 -7.4079114e-05 1.6240629e-18)
(0.29319626 -8.0018429e-05 3.8685274e-19)
(0.28564802 -5.812472e-05 -7.7382888e-19)
(0.27584861 -2.8224184e-05 1.2917504e-19)
(0.26442121 -5.6894499e-06 -1.1848137e-19)
(0.25132939 6.8568123e-06 -2.0997713e-20)
(0.2357504 1.0705206e-05 -7.8780564e-20)
(0.21530527 8.8452138e-06 1.6149757e-20)
(0.18080246 4.1235303e-06 5.4336816e-20)
(0.30082177 -2.9094216e-05 -1.0268914e-18)
(0.29863168 -6.1330953e-05 1.8471245e-18)
(0.29338819 -5.9565834e-05 1.3074776e-19)
(0.28537717 -3.6521461e-05 -3.7868753e-19)
(0.27546384 -1.1416209e-05 1.8187898e-19)
(0.26410766 5.6171594e-06 -3.1818102e-19)
(0.25116542 1.3623748e-05 -2.8959596e-19)
(0.23574184 1.4219882e-05 -9.6687228e-20)
(0.21542014 1.0354986e-05 7.6490958e-20)
(0.18098522 4.5263528e-06 2.5007938e-19)
(0.30193364 -2.3108068e-05 2.8624929e-18)
(0.29927329 -4.668357e-05 1.5259627e-18)
(0.29340598 -3.9090689e-05 2.1149094e-20)
(0.28507546 -1.7046999e-05 6.709142e-19)
(0.27512089 3.0842354e-06 1.2423424e-18)
(0.26386446 1.5140461e-05 6.7852406e-19)
(0.25106785 1.9209818e-05 -4.1023631e-20)
(0.23578543 1.7094587e-05 8.0829457e-20)
(0.21557123 1.158069e-05 6.3893977e-20)
(0.18118951 4.8476338e-06 4.5334688e-20)
(0.30276096 -1.5976365e-05 -5.0516091e-19)
(0.29965276 -3.0772349e-05 -8.6712173e-19)
(0.29329051 -1.9435859e-05 -4.706969e-19)
(0.2847612 1.6785288e-07 -7.2550467e-19)
(0.27482457 1.5440731e-05 3.7214686e-19)
(0.26368341 2.3071435e-05 4.4755367e-20)
(0.25102652 2.3802203e-05 2.8832871e-19)
(0.23587244 1.9434119e-05 1.9152359e-19)
(0.21575203 1.2564786e-05 1.4661604e-19)
(0.18141111 5.0988762e-06 1.3374055e-19)
(0.30327117 -8.1276377e-06 4.5294292e-20)
(0.29978722 -1.4485898e-05 1.5828133e-18)
(0.29307473 -1.3057088e-06 -1.4685798e-19)
(0.28444917 1.5039071e-05 -2.3022834e-19)
(0.27457434 2.5803683e-05 -8.8585857e-19)
(0.26355617 2.9613404e-05 -6.1027014e-19)
(0.25103265 2.7544481e-05 -1.0930146e-19)
(0.23599547 2.1311203e-05 7.3053944e-20)
(0.21595701 1.3335958e-05 1.3344715e-19)
(0.18164633 5.2873637e-06 1.1374777e-19)
(0.30345379 -2.4249121e-07 -4.7958053e-19)
(0.29970251 1.1325243e-06 1.1329993e-18)
(0.29278632 1.4661525e-05 1.6996956e-19)
(0.28414892 2.7525003e-05 -3.6456705e-19)
(0.27436561 3.4336203e-05 -7.0317611e-19)
(0.26347499 3.4929582e-05 -4.8311399e-19)
(0.25107854 3.0535944e-05 -1.2693027e-19)
(0.23614814 2.2774187e-05 -2.2268803e-21)
(0.21618133 1.3912734e-05 -3.8430345e-20)
(0.18189184 5.4173079e-06 5.3996315e-20)
(0.30332496 6.8804732e-06 -3.9269307e-18)
(0.29943283 1.4983971e-05 -2.2402171e-18)
(0.29244684 2.7992829e-05 -1.3926656e-18)
(0.28386231 3.7675704e-05 -2.0315753e-18)
(0.27419303 4.1186501e-05 -1.0740665e-18)
(0.26343259 3.9127582e-05 -8.0654625e-19)
(0.25115733 3.2835996e-05 -2.9674771e-19)
(0.23632478 2.3849274e-05 -1.4670991e-19)
(0.21642061 1.4303028e-05 -1.038994e-19)
(0.18214448 5.4892841e-06 1.3322412e-19)
(0.30293036 1.2606187e-05 3.0140495e-18)
(0.29901521 2.6251577e-05 -1.0277066e-18)
(0.29206919 3.8506535e-05 -1.423788e-18)
(0.28358875 4.5588684e-05 -1.6138435e-19)
(0.27405096 4.6451302e-05 2.6673468e-19)
(0.26342222 4.2266617e-05 1.8455289e-19)
(0.25126274 3.4472267e-05 3.8656254e-20)
(0.23652018 2.454392e-05 3.0187044e-20)
(0.21667068 1.4505226e-05 1.0932993e-20)
(0.18240111 5.5006327e-06 1.1219577e-20)
(0.30233152 1.6685245e-05 4.5645472e-19)
(0.29848524 3.4599276e-05 -9.260008e-19)
(0.29166289 4.6229818e-05 -5.8413336e-19)
(0.28332651 5.1358967e-05 -3.5492725e-19)
(0.27393382 5.0194225e-05 -3.4499848e-19)
(0.26343756 4.4377918e-05 -4.2960855e-21)
(0.25138897 3.5452454e-05 1.6907733e-19)
(0.23672937 2.4853272e-05 2.0661708e-21)
(0.21692742 1.4511501e-05 -6.2044456e-20)
(0.18265842 5.4467466e-06 -3.5407713e-20)
(0.30159315 1.9180983e-05 -8.0429025e-19)
(0.29787651 4.0082413e-05 1.618451e-18)
(0.29123632 5.1325157e-05 -7.9812569e-19)
(0.28307382 5.5101224e-05 -1.0235039e-18)
(0.27383648 5.2476577e-05 -1.1187393e-18)
(0.26347282 4.548574e-05 -6.874948e-19)
(0.25153054 3.577815e-05 -6.3243249e-19)
(0.23694752 2.4769101e-05 -2.9133649e-19)
(0.21718663 1.4312846e-05 -1.4225202e-19)
(0.18291292 5.3229898e-06 -8.8143412e-20)
(0.30077401 2.0342793e-05 1.0571745e-18)
(0.29721988 4.3027604e-05 1.991861e-18)
(0.29079786 5.4060849e-05 -7.8311202e-19)
(0.2828296 5.6972599e-05 -1.0095351e-18)
(0.27375458 5.3380402e-05 -4.5756182e-19)
(0.26352281 4.562566e-05 -3.6405034e-19)
(0.25168238 3.5458618e-05 -3.4215958e-19)
(0.23716993 2.428909e-05 -2.3682944e-19)
(0.21744404 1.390434e-05 -1.0129605e-19)
(0.18316095 5.126622e-06 -4.5810276e-20)
(0.29992221 2.0482774e-05 -3.2122175e-18)
(0.29654259 4.3896849e-05 -2.7477912e-18)
(0.29035624 5.4778036e-05 -6.8530411e-19)
(0.28259383 5.7179085e-05 -1.2394666e-18)
(0.27368474 5.3021616e-05 -3.0460351e-19)
(0.26358307 4.4857876e-05 -2.7684877e-19)
(0.25183984 3.4521775e-05 1.1063764e-19)
(0.23739212 2.3424531e-05 -1.1812269e-19)
(0.21769546 1.3289611e-05 3.3397289e-21)
(0.18339883 4.858364e-06 1.5043547e-19)
(0.29907426 1.9896001e-05 3.7994166e-18)
(0.29586747 4.3177591e-05 5.1955097e-19)
(0.28992022 5.385272e-05 7.2957034e-19)
(0.28236751 5.5966828e-05 1.6276304e-18)
(0.27362456 5.1551962e-05 1.3696902e-18)
(0.26364989 4.3272678e-05 8.0303953e-19)
(0.25199879 3.3019763e-05 2.3925627e-19)
(0.23760991 2.2204544e-05 1.6775699e-19)
(0.21793688 1.2483383e-05 6.4815832e-20)
(0.18362305 4.5233115e-06 -7.4619496e-21)
(0.29825621 1.8825795e-05 2.1517902e-18)
(0.29521267 4.131525e-05 8.8309694e-19)
(0.289498 5.1659984e-05 1.0551341e-19)
(0.28215238 5.3604373e-05 3.2772575e-19)
(0.27357257 4.9151719e-05 2.0692151e-19)
(0.26372035 4.0988169e-05 1.8405125e-19)
(0.25215571 3.1028655e-05 1.4941013e-19)
(0.23781958 2.0676297e-05 1.4537813e-19)
(0.2181647 1.151172e-05 2.2275888e-21)
(0.18383052 4.1309985e-06 -8.9239188e-20)
(0.29748551 1.745787e-05 7.5096206e-19)
(0.29459172 3.8683203e-05 2.5552536e-18)
(0.28909673 4.8546828e-05 5.3091958e-19)
(0.28195056 5.0362653e-05 -2.9368967e-19)
(0.273528 4.601703e-05 -7.9296521e-19)
(0.26379223 3.8142379e-05 -5.6104669e-19)
(0.25230768 2.8643403e-05 -5.0845087e-19)
(0.23801799 1.8901747e-05 -1.7348938e-19)
(0.2183759 1.041015e-05 -7.632942e-20)
(0.18401872 3.6947158e-06 -1.1314192e-19)
(0.29677299 1.5927643e-05 7.0543089e-19)
(0.29401402 3.5577291e-05 2.8428509e-18)
(0.28872213 4.4816007e-05 1.1756227e-18)
(0.28176415 4.6497812e-05 2.4343966e-19)
(0.27349056 4.2346038e-05 2.2192022e-20)
(0.26386388 3.4882736e-05 -2.2731144e-19)
(0.2524524 2.5970023e-05 -1.5032229e-19)
(0.23820262 1.6952161e-05 -1.6854026e-19)
(0.21856813 9.2203245e-06 -3.9456828e-20)
(0.1841859 3.230248e-06 -8.7003598e-20)
(0.29612455 1.4331123e-05 -2.3468112e-18)
(0.29348545 3.2222923e-05 -1.4173109e-18)
(0.28837838 4.0719631e-05 -5.5181731e-20)
(0.28159493 4.223927e-05 -9.2570179e-19)
(0.27346018 3.8326798e-05 -5.2860046e-19)
(0.26393413 3.1355555e-05 -2.4158843e-19)
(0.25258814 2.3117118e-05 2.3180128e-19)
(0.23837163 1.4901856e-05 -1.0385481e-19)
(0.21873983 7.9860892e-06 1.5494799e-20)
(0.18433105 2.754337e-06 7.3085978e-20)
(0.29554251 1.273495e-05 3.1190841e-18)
(0.29300909 2.8786713e-05 -1.3564454e-19)
(0.28806811 3.6459581e-05 6.3342382e-19)
(0.28144416 3.7783137e-05 1.7179298e-18)
(0.27343686 3.4128341e-05 1.5421073e-18)
(0.26400215 2.7697139e-05 1.1780373e-18)
(0.25271368 2.018811e-05 3.2440143e-19)
(0.23852381 1.2822226e-05 1.7040142e-19)
(0.21889017 6.7495907e-06 -3.9786572e-20)
(0.18445397 2.283057e-06 -3.7375634e-20)
(0.29502665 1.1184441e-05 5.4594841e-19)
(0.29258579 2.5388549e-05 2.6509983e-19)
(0.28779259 3.2191966e-05 3.6538907e-19)
(0.28131253 3.3290178e-05 1.0124692e-18)
(0.27342051 2.9895369e-05 1.1527888e-18)
(0.26406732 2.4027508e-05 5.2537079e-19)
(0.25282825 1.7275361e-05 3.0986681e-19)
(0.23865857 1.0777075e-05 2.1887726e-19)
(0.21901905 5.5482161e-06 7.1454787e-20)
(0.18455516 1.8305243e-06 -3.8110112e-20)
(0.29457495 9.7095074e-06 2.4350778e-18)
(0.29221474 2.2112133e-05 4.5118521e-18)
(0.2875519 2.8033291e-05 1.2924895e-18)
(0.28120013 2.8886859e-05 -1.5932965e-20)
(0.2734109 2.5745995e-05 -9.0597062e-19)
(0.2641292 2.044671e-05 -2.4723158e-19)
(0.25293144 1.4456339e-05 -1.5226677e-19)
(0.23877583 8.8194761e-06 1.0119881e-19)
(0.21912697 4.4125035e-06 1.39204e-19)
(0.18463572 1.4079832e-06 -1.2020868e-20)
(0.2941842 8.3289596e-06 6.5603157e-18)
(0.29189393 1.9013625e-05 4.8674913e-18)
(0.2873452 2.4067046e-05 2.0530529e-18)
(0.28110652 2.4668354e-05 2.6683712e-18)
(0.27340762 2.1771935e-05 1.7611389e-18)
(0.26418744 1.7033522e-05 1.2821557e-18)
(0.25302315 1.1791863e-05 4.6366871e-19)
(0.23887599 6.9902857e-06 2.5178405e-19)
(0.21921494 3.3651886e-06 4.8113256e-20)
(0.1846972 1.0234227e-06 -6.3747186e-20)
(0.29385046 7.0536505e-06 1.2070572e-18)
(0.29162054 1.6128532e-05 -1.4216897e-19)
(0.2871709 2.0350044e-05 2.9855962e-18)
(0.28103082 2.0702654e-05 2.6862016e-18)
(0.27341013 1.8040501e-05 2.5888661e-18)
(0.26424178 1.3846115e-05 1.8308685e-18)
(0.25310353 9.3262272e-06 1.2743089e-18)
(0.23895977 5.3182057e-06 6.2937976e-19)
(0.21928437 2.4213578e-06 4.0372098e-19)
(0.18474146 6.8172754e-07 1.9309895e-19)
(0.2935693 5.8887189e-06 3.5186071e-19)
(0.29139119 1.3477009e-05 6.8168522e-19)
(0.28702691 1.6918005e-05 2.7918226e-18)
(0.28097179 1.7034974e-05 2.4293456e-18)
(0.27341774 1.4597536e-05 2.2211065e-18)
(0.26429201 1.0923948e-05 1.5852815e-18)
(0.25317294 7.0884986e-06 1.3228561e-18)
(0.2390282 3.8207992e-06 8.2318242e-19)
(0.21933692 1.5892024e-06 5.5343103e-19)
(0.18477052 3.85078e-07 3.7633991e-19)
(0.29333612 4.8353151e-06 1.0680364e-18)
(0.2912022 1.1068105e-05 2.0316029e-18)
(0.28691082 1.3790569e-05 4.1401079e-18)
(0.280928 1.369232e-05 4.9043234e-18)
(0.2734297 1.147113e-05 3.5967845e-18)
(0.264338 8.290731e-06 1.8692978e-18)
(0.2532319 5.0949686e-06 1.4177302e-18)
(0.23908248 2.5065077e-06 9.8622445e-19)
(0.21937438 8.715535e-07 7.907258e-19)
(0.18478648 1.3372019e-07 5.5222478e-19)
(0.29314623 3.8917858e-06 1.2036841e-20)
(0.29104972 8.9028441e-06 1.7845527e-18)
(0.28682 1.0975209e-05 3.6101199e-18)
(0.28089783 1.0687349e-05 3.6194869e-18)
(0.27344522 8.6749368e-06 3.4807454e-18)
(0.26437967 5.9571122e-06 2.5172516e-18)
(0.25328104 3.3511036e-06 1.6213503e-18)
(0.23912393 1.3757972e-06 1.2971381e-18)
(0.21939865 2.720375e-07 9.7117095e-19)
(0.18479141 -6.9571056e-08 5.9697123e-19)
(0.29299503 3.0543826e-06 1.5026157e-18)
(0.29092993 6.9761749e-06 1.6436382e-18)
(0.28675172 8.4698102e-06 2.9364653e-19)
(0.2808796 8.020913e-06 1.393238e-18)
(0.27346349 6.2102804e-06 2.284005e-18)
(0.264417 3.9223707e-06 2.655276e-18)
(0.25332108 1.8537475e-06 1.9506897e-18)
(0.23915392 4.2848723e-07 1.4204751e-18)
(0.21941124 -2.1414293e-07 7.860336e-19)
(0.18478767 -2.2872884e-07 5.9898445e-19)
(0.29287808 2.3180178e-06 1.2974196e-18)
(0.29083906 5.2789375e-06 2.4331396e-18)
(0.2867033 6.2654885e-06 2.8129522e-18)
(0.28087166 5.6853168e-06 2.3660896e-18)
(0.27348374 4.0696427e-06 1.1010864e-18)
(0.26445003 2.1786902e-06 2.1734137e-18)
(0.25335274 5.9858527e-07 1.9838654e-18)
(0.23917356 -3.4405685e-07 1.5961863e-18)
(0.21941461 -6.0494446e-07 1.319629e-18)
(0.18477679 -3.5453556e-07 8.6490087e-19)
(0.29279115 1.6767949e-06 1.3947195e-18)
(0.29077348 3.7993988e-06 3.1468743e-18)
(0.2866721 4.3489735e-06 2.7691751e-18)
(0.28087236 3.6673805e-06 1.946302e-18)
(0.27350524 2.2407287e-06 1.9238157e-18)
(0.26447878 7.1734221e-07 1.815112e-18)
(0.25337659 -4.2839313e-07 1.6339974e-18)
(0.23918483 -9.6457775e-07 1.4832997e-18)
(0.21941035 -9.1397508e-07 1.378979e-18)
(0.18476024 -4.5162258e-07 9.3227773e-19)
(0.29273025 1.1243697e-06 2.0778673e-18)
(0.29072977 2.5241879e-06 3.5161652e-18)
(0.2866556 2.7041451e-06 3.2756513e-18)
(0.28088014 1.9510323e-06 3.2492275e-18)
(0.27352726 7.1061675e-07 3.0355085e-18)
(0.26450318 -4.8018377e-07 1.5290037e-18)
(0.253394 -1.2548455e-06 1.4221064e-18)
(0.23918902 -1.4523502e-06 1.3763407e-18)
(0.2193999 -1.1478472e-06 1.328731e-18)
(0.18473941 -5.216875e-07 1.167547e-18)
(0.29269168 6.5416532e-07 2.4510288e-18)
(0.2907047 1.4392281e-06 2.6312669e-18)
(0.28665142 1.3145426e-06 2.8418412e-18)
(0.28089349 5.2052986e-07 3.1406947e-18)
(0.27354905 -5.430764e-07 2.304533e-18)
(0.26452391 -1.4452794e-06 1.7658685e-18)
(0.25340576 -1.905084e-06 1.6987233e-18)
(0.23918729 -1.8204032e-06 1.6125751e-18)
(0.21938461 -1.3136027e-06 1.376773e-18)
(0.18471554 -5.6735231e-07 1.2169288e-18)
(0.29267197 2.6001733e-07 2.2113905e-18)
(0.29069527 5.3140972e-07 2.0476297e-19)
(0.28665726 1.6276422e-07 1.4695688e-20)
(0.28091097 -6.4978426e-07 1.0682271e-18)
(0.27357052 -1.5541016e-06 2.1613189e-18)
(0.26454118 -2.2057867e-06 2.073649e-18)
(0.25341263 -2.3971753e-06 2.026474e-18)
(0.23918073 -2.0817364e-06 1.5907569e-18)
(0.21936569 -1.4197553e-06 1.2579787e-18)
(0.18468975 -5.9199233e-07 1.0315203e-18)
(0.29266794 -6.4625711e-08 5.9580154e-19)
(0.29069867 -2.1524538e-07 6.9660084e-19)
(0.28667113 -7.7652109e-07 1.6900194e-18)
(0.28093168 -1.5929143e-06 8.3196868e-19)
(0.27359127 -2.3512884e-06 1.0647224e-18)
(0.26455525 -2.7831191e-06 2.1605311e-18)
(0.25341532 -2.7489085e-06 2.0240347e-18)
(0.23917033 -2.2502567e-06 1.6568571e-18)
(0.21934422 -1.4752197e-06 1.6497711e-18)
(0.18466295 -5.9908004e-07 1.1360793e-18)
(0.29267671 -3.2783587e-07 3.3272107e-19)
(0.29071246 -8.2008917e-07 2.9369002e-18)
(0.28669137 -1.5299637e-06 2.4907016e-18)
(0.28095461 -2.3345276e-06 1.2771242e-18)
(0.27361099 -2.9570696e-06 1.177493e-18)
(0.26456636 -3.1982158e-06 1.9220851e-18)
(0.25341449 -2.9785937e-06 1.6900578e-18)
(0.23915701 -2.3397626e-06 1.8275878e-18)
(0.21932112 -1.4885085e-06 1.5043816e-18)
(0.18463593 -5.9184581e-07 1.1814904e-18)
(0.29269579 -5.3705528e-07 1.2394599e-18)
(0.29073452 -1.2996695e-06 3.4255633e-18)
(0.28671643 -2.1178474e-06 2.938406e-18)
(0.28097889 -2.8962907e-06 2.2056985e-18)
(0.27362944 -3.3935975e-06 1.6704216e-18)
(0.26457479 -3.4720637e-06 1.3496973e-18)
(0.25341078 -3.1040021e-06 1.5703637e-18)
(0.23914156 -2.3632291e-06 1.6956173e-18)
(0.21929717 -1.4674354e-06 1.4898052e-18)
(0.18460931 -5.7319843e-07 1.2669262e-18)
(0.29272296 -6.9821063e-07 2.85557e-18)
(0.29076293 -1.6677369e-06 2.2306139e-18)
(0.28674495 -2.558578e-06 2.0782524e-18)
(0.28100377 -3.2993112e-06 1.9185424e-18)
(0.27364643 -3.6825653e-06 4.3705054e-19)
(0.26458082 -3.6247622e-06 9.1572703e-19)
(0.25340477 -3.1417644e-06 1.4550504e-18)
(0.23912469 -2.332542e-06 1.3828058e-18)
(0.21927305 -1.419006e-06 1.3781993e-18)
(0.18458358 -5.457027e-07 1.1686057e-18)
(0.29275622 -8.1691148e-07 1.9191584e-18)
(0.29079599 -1.9372944e-06 2.2669467e-18)
(0.28677573 -2.8698669e-06 4.2003583e-18)
(0.28102863 -3.5639655e-06 2.3639505e-18)
(0.27366187 -3.8446681e-06 1.8864099e-18)
(0.26458474 -3.6751778e-06 9.6201278e-19)
(0.25339699 -3.1072203e-06 1.1278973e-18)
(0.23910701 -2.2584615e-06 1.2602796e-18)
(0.21924928 -1.3494479e-06 1.1047907e-18)
(0.18455912 -5.1163028e-07 1.0286948e-18)
(0.29279385 -8.9845513e-07 9.0966387e-20)
(0.29083222 -2.1206881e-06 2.1339577e-18)
(0.28680774 -3.068618e-06 3.8219995e-18)
(0.28105295 -3.7096248e-06 2.28232e-18)
(0.2736757 -3.899373e-06 1.9637584e-18)
(0.26458684 -3.6408088e-06 2.0130737e-18)
(0.2533879 -3.0143657e-06 1.4142292e-18)
(0.23908902 -2.1506316e-06 1.3406993e-18)
(0.2192263 -1.2642373e-06 1.4451533e-18)
(0.18453621 -4.7296812e-07 1.1747247e-18)
(0.29283431 -9.47837e-07 1.0266602e-19)
(0.29087033 -2.2295945e-06 8.6203025e-19)
(0.28684012 -3.1708251e-06 -1.237195e-18)
(0.28107631 -3.7545126e-06 9.278016e-19)
(0.27368791 -3.8648013e-06 1.6736591e-18)
(0.26458738 -3.5377165e-06 2.2561475e-18)
(0.25337793 -2.8758348e-06 1.8177686e-18)
(0.23907115 -2.0176036e-06 1.4908805e-18)
(0.21920444 -1.1681459e-06 1.3314513e-18)
(0.18451505 -4.3143954e-07 1.129165e-18)
(0.29287632 -9.6975385e-07 1.279389e-18)
(0.29090923 -2.2750003e-06 1.8119864e-18)
(0.28687214 -3.1915004e-06 6.5071444e-19)
(0.28109841 -3.7156126e-06 1.5230813e-18)
(0.27369852 -3.7576537e-06 1.6002058e-18)
(0.26458662 -3.380494e-06 1.9014745e-18)
(0.25336744 -2.7029183e-06 1.779935e-18)
(0.23905375 -1.8668814e-06 1.5588158e-18)
(0.21918396 -1.0652836e-06 1.3540438e-18)
(0.18449575 -3.8851228e-07 1.0969843e-18)
(0.29291877 -9.6858122e-07 1.5073063e-18)
(0.29094801 -2.2671465e-06 1.9380199e-18)
(0.28690321 -3.1445854e-06 1.173391e-18)
(0.28111901 -3.6085693e-06 1.5233701e-18)
(0.27370759 -3.5931273e-06 8.5845642e-19)
(0.26458481 -3.182212e-06 1.4489544e-18)
(0.25335673 -2.5055466e-06 1.6317716e-18)
(0.2390371 -1.7049339e-06 1.6098198e-18)
(0.21916503 -9.5911332e-07 1.3952973e-18)
(0.18447839 -3.453891e-07 1.1876235e-18)
(0.29296073 -9.4837049e-07 2.9477175e-18)
(0.2909859 -2.2155057e-06 2.6148377e-18)
(0.28693288 -3.0429051e-06 3.4739386e-18)
(0.28113795 -3.447635e-06 1.8055297e-18)
(0.27371521 -3.3848822e-06 2.3487566e-18)
(0.26458216 -2.9544299e-06 7.1406118e-19)
(0.25334606 -2.292335e-06 1.2985175e-18)
(0.23902141 -1.5372502e-06 1.4330177e-18)
(0.21914776 -8.5250354e-07 1.194727e-18)
(0.18446296 -3.030358e-07 1.1110467e-18)
(0.29300145 -9.1282371e-07 1.5977446e-18)
(0.29102231 -2.1287284e-06 2.6505731e-18)
(0.28696078 -2.8980954e-06 5.0432842e-18)
(0.28115514 -3.2456002e-06 2.5713194e-18)
(0.27372147 -3.1449955e-06 1.9257496e-18)
(0.26457889 -2.7071806e-06 1.4967858e-18)
(0.25333564 -2.0706015e-06 1.428718e-18)
(0.23900682 -1.3683778e-06 1.5218648e-18)
(0.21913221 -7.4775955e-07 1.5193849e-18)
(0.18444944 -2.6219139e-07 1.1338549e-18)
(0.29304035 -8.6529196e-07 -4.9429023e-19)
(0.29105677 -2.0146301e-06 -4.1087475e-20)
(0.28698667 -2.7205885e-06 -2.3698812e-19)
(0.28117054 -3.0137922e-06 2.1091123e-18)
(0.2737265 -2.8839877e-06 2.0602131e-18)
(0.26457516 -2.4490297e-06 2.5593801e-18)
(0.25332565 -1.8464472e-06 2.0128225e-18)
(0.23899344 -1.2020009e-06 1.8701465e-18)
(0.21911839 -6.4668078e-07 1.5662127e-18)
(0.18443775 -2.2339995e-07 1.2659522e-18)
(0.29307696 -8.087742e-07 2.2756029e-18)
(0.29108892 -1.880191e-06 1.1157291e-18)
(0.28701038 -2.5196149e-06 -1.8192688e-19)
(0.28118414 -2.7620962e-06 1.2642582e-18)
(0.2737304 -2.61088e-06 2.2129582e-18)
(0.26457114 -2.1871639e-06 2.7460673e-18)
(0.25331621 -1.6248541e-06 2.3181656e-18)
(0.23898132 -1.0410273e-06 1.9569158e-18)
(0.21910625 -5.5062931e-07 1.7937809e-18)
(0.1844278 -1.8705017e-07 1.413471e-18)
(0.29311094 -7.4592522e-07 2.8369163e-18)
(0.29111853 -1.7315707e-06 2.4605492e-18)
(0.28703182 -2.3032411e-06 1.5787905e-18)
(0.281196 -2.4990255e-06 7.4093914e-19)
(0.2737333 -2.3332907e-06 8.973815e-19)
(0.26456697 -1.9275064e-06 1.7467605e-18)
(0.25330742 -1.4098087e-06 2.0291441e-18)
(0.23897049 -8.8769875e-07 1.8050478e-18)
(0.21909576 -4.605983e-07 1.7439283e-18)
(0.18441948 -1.534023e-07 1.3943482e-18)
(0.29314209 -6.7907119e-07 1.0747373e-18)
(0.29114544 -1.5741466e-06 2.4516965e-18)
(0.28705094 -2.0784307e-06 3.7222356e-18)
(0.28120619 -2.2318121e-06 2.6140518e-18)
(0.27373532 -2.0575577e-06 2.3526882e-18)
(0.26456275 -1.6748559e-06 5.8164234e-19)
(0.25329934 -1.2044302e-06 1.3193724e-18)
(0.23896093 -7.4368782e-07 1.4676706e-18)
(0.21908683 -3.7728064e-07 1.3299648e-18)
(0.18441267 -1.2262538e-07 1.2471503e-18)
(0.29317026 -6.1022452e-07 1.3628822e-18)
(0.29116959 -1.4125572e-06 2.0497945e-18)
(0.28706778 -1.8511198e-06 4.6137573e-18)
(0.28121478 -1.9665163e-06 3.4036806e-18)
(0.27373658 -1.7888728e-06 2.3087019e-18)
(0.26455858 -1.4330279e-06 1.9013393e-18)
(0.25329202 -1.0111032e-06 1.5414622e-18)
(0.23895262 -6.1020235e-07 1.5501902e-18)
(0.21907936 -3.011311e-07 1.6167305e-18)
(0.18440723 -9.4819601e-08 1.338154e-18)
(0.29319541 -5.4110327e-07 2.1794496e-18)
(0.29119098 -1.2507471e-06 1.7747912e-18)
(0.28708239 -1.6262924e-06 7.9125159e-20)
(0.2812219 -1.7081297e-06 1.9983588e-18)
(0.27373718 -1.5314004e-06 2.1310502e-18)
(0.26455455 -1.2049755e-06 2.640632e-18)
(0.25328546 -8.3157697e-07 2.2053174e-18)
(0.2389455 -4.8805385e-07 1.8431811e-18)
(0.21907324 -2.3240635e-07 1.5940916e-18)
(0.18440303 -7.0025861e-08 1.3375483e-18)
(0.29321756 -4.7314807e-07 5.5197022e-19)
(0.29120965 -1.0920147e-06 2.1239511e-18)
(0.28709487 -1.4080561e-06 1.0589462e-18)
(0.28122766 -1.460674e-06 2.2021902e-18)
(0.27373724 -1.2883907e-06 2.4483547e-18)
(0.26455071 -9.9289558e-07 2.4722424e-18)
(0.25327967 -6.6705653e-07 2.2162523e-18)
(0.23893951 -3.7772125e-07 1.967561e-18)
(0.21906836 -1.7119525e-07 1.7457071e-18)
(0.18439994 -4.823055e-08 1.3769583e-18)
(0.29323678 -4.0753542e-07 -9.3739068e-19)
(0.2912257 -9.3904484e-07 1.300646e-18)
(0.28710535 -1.1996988e-06 1.1641405e-18)
(0.28123218 -1.2272776e-06 1.8225291e-18)
(0.27373685 -1.0622586e-06 1.0434244e-18)
(0.2645471 -7.9830096e-07 1.872752e-18)
(0.25327462 -5.1825046e-07 1.9807175e-18)
(0.23893456 -2.7937223e-07 1.9737573e-18)
(0.21906459 -1.1742964e-07 1.7874015e-18)
(0.18439783 -2.9365548e-08 1.4661922e-18)
(0.29325321 -3.451909e-07 3.6669271e-19)
(0.29123927 -7.9394544e-07 2.0100555e-18)
(0.28711396 -1.0037394e-06 3.1010959e-18)
(0.28123559 -1.010235e-06 2.1180859e-18)
(0.27373609 -8.5464611e-07 2.4271308e-18)
(0.26454376 -6.2207166e-07 1.0993773e-18)
(0.25327029 -3.8541059e-07 1.7399526e-18)
(0.23893057 -1.9288569e-07 1.7908264e-18)
(0.21906183 -7.0886709e-08 1.4565893e-18)
(0.18439655 -1.3299074e-08 1.3319552e-18)