/*--------------------------------*- C++ -*----------------------------------*\
| =========                 |                                                 |
| \\      /  F ield         | OpenFOAM: The Open Source CFD Toolbox           |
|  \\    /   O peration     | Version:  2506                                  |
|   \\  /    A nd           | Website:  www.openfoam.com                      |
|    \\/     M anipulation  |                                                 |
\*---------------------------------------------------------------------------*/
FoamFile
{
    version     2.0;
    format      ascii;
    arch        "LSB;label=32;scalar=64";
    class       volScalarField;
    location    "1000/water";
    object      alphat;
}
// * * * * * * * * * * * * * * * * * * * * * * * * * * * * * * * * * * * * * //

dimensions      [1 -1 -1 0 0 0 0];

internalField   nonuniform List<scalar> 
6000
(
0.041292847
0.041292824
0.041292831
0.041292856
0.041292889
0.041292932
0.041292983
0.041293016
0.041292808
0.041290571
0.041271537
0.041111294
0.0397723
0.030564074
0.013464793
0.040788543
0.040788537
0.040788576
0.040788654
0.040788758
0.040788888
0.04078902
0.040788972
0.040787494
0.040776037
0.040696382
0.040161217
0.036863805
0.023766469
0.015141611
0.04033569
0.040335696
0.040335761
0.040335884
0.040336044
0.040336229
0.04033633
0.040335685
0.040330323
0.040296649
0.040097616
0.038983223
0.033614213
0.0194951
0.016360294
0.039926215
0.039926219
0.039926301
0.039926459
0.03992666
0.039926848
0.039926701
0.039924457
0.039910659
0.039835636
0.039448738
0.037597438
0.030384627
0.016783057
0.017196555
0.039553796
0.039553808
0.039553906
0.039554093
0.039554312
0.039554413
0.039553622
0.0395481
0.039519187
0.039379112
0.038737841
0.036066498
0.027427863
0.015063192
0.01773179
0.039213273
0.039213296
0.039213408
0.039213613
0.039213809
0.039213657
0.039211571
0.039200298
0.039147643
0.038916647
0.037965398
0.034462847
0.024852826
0.013984463
0.018040007
0.038900366
0.038900399
0.038900521
0.038900723
0.038900826
0.038900159
0.038895819
0.03887551
0.038788999
0.038441492
0.037140256
0.032849727
0.022675913
0.013336844
0.018183117
0.038611532
0.038611573
0.038611697
0.038611866
0.038611765
0.038610199
0.038602307
0.038568928
0.038437606
0.037950377
0.036275872
0.031274836
0.020870828
0.012994967
0.018210197
0.038343817
0.038343862
0.038343975
0.038344065
0.038343601
0.038340605
0.038327517
0.03827644
0.038089201
0.037442856
0.03538704
0.029770034
0.019396999
0.012882914
0.018158676
0.038094736
0.03809478
0.038094862
0.038094803
0.038093753
0.038088644
0.038068396
0.037994592
0.037740813
0.036920504
0.03448763
0.028354169
0.018213448
0.012953916
0.018056304
0.037862183
0.037862216
0.037862238
0.037861935
0.037860009
0.037851941
0.037822294
0.037720559
0.037390607
0.036386134
0.033589398
0.02703684
0.017284481
0.013178532
0.017923231
0.03764436
0.037644371
0.037644291
0.037643618
0.037640447
0.037628426
0.037586933
0.037452106
0.037037684
0.035843147
0.032701562
0.025821837
0.016581272
0.013537499
0.017773886
0.037439726
0.037439699
0.03743946
0.037438254
0.037433393
0.037416287
0.037360374
0.037187532
0.036681868
0.035295042
0.031830871
0.02470985
0.016081614
0.014017191
0.017618497
0.037246949
0.037246861
0.037246392
0.037244452
0.037237378
0.037213943
0.037140989
0.036925609
0.0363235
0.034745073
0.030981931
0.023700436
0.015768976
0.014606606
0.017464261
0.037064871
0.037064693
0.037063903
0.037060987
0.037051109
0.037020016
0.036927437
0.036665512
0.035963258
0.03419604
0.030157673
0.022793377
0.015631332
0.015295285
0.017316197
0.03689248
0.036892177
0.036890955
0.036886782
0.036873442
0.036833316
0.036718634
0.03640675
0.035602004
0.033650187
0.029359858
0.021989538
0.015659917
0.016071914
0.01717775
0.036728885
0.036728414
0.036726628
0.036720878
0.03670337
0.036652818
0.036513731
0.036149096
0.035240656
0.033109157
0.028589603
0.021291346
0.015847992
0.016923492
0.017051196
0.036573301
0.03657261
0.036570106
0.036562424
0.036540005
0.036477653
0.03631208
0.035892529
0.034880099
0.032574024
0.027847913
0.02070292
0.016189617
0.01783505
0.016937916
0.036425028
0.036424056
0.036420663
0.036410663
0.036382564
0.036307092
0.036113215
0.03563717
0.034521109
0.032045349
0.027136212
0.020229918
0.016678486
0.018789895
0.016838558
0.036283441
0.03628212
0.036277645
0.036264917
0.036230367
0.036140535
0.03591682
0.035383242
0.034164308
0.031523285
0.026456862
0.019879123
0.017306891
0.019770317
0.016753165
0.036147982
0.036146234
0.036140468
0.036124584
0.036082821
0.035977497
0.035722708
0.035131018
0.033810124
0.031007717
0.025813646
0.019657797
0.018064912
0.0207586
0.016681265
0.036018143
0.036015885
0.036008605
0.035989127
0.035939416
0.035817597
0.035530799
0.034880794
0.033458783
0.030498445
0.025212142
0.019572905
0.018939949
0.021738147
0.016621966
0.03589347
0.03589061
0.035881581
0.035858069
0.035799718
0.035660549
0.035341095
0.034632853
0.033110301
0.029995409
0.024659951
0.019630248
0.019916664
0.02269449
0.016574063
0.035773545
0.035769987
0.035758968
0.035730991
0.035663366
0.035506152
0.035153669
0.034387441
0.032764498
0.029498968
0.024166686
0.019833637
0.020977366
0.023616003
0.016536152
0.035657992
0.035653635
0.035640383
0.035607524
0.035530063
0.035354279
0.034968643
0.03414475
0.03242103
0.029010211
0.023743688
0.020184173
0.022102784
0.024494228
0.016506745
0.035546464
0.035541207
0.035525479
0.03548735
0.035399574
0.035204869
0.034786172
0.033904896
0.032079439
0.028531301
0.023403466
0.020679733
0.023273104
0.025323802
0.016484372
0.035438647
0.035432386
0.035413948
0.035370193
0.035271718
0.035057919
0.034606436
0.03366791
0.03173923
0.028065807
0.023158914
0.021314706
0.0244691
0.026102089
0.016467662
0.035334251
0.035326887
0.035305516
0.035255823
0.03514637
0.034913479
0.03442962
0.033433727
0.031399978
0.02761899
0.023022388
0.022080016
0.025673169
0.026828633
0.016455398
0.035233012
0.035224448
0.035199939
0.035144051
0.035023453
0.034771643
0.034255909
0.033202186
0.031061475
0.027197981
0.023004769
0.022963452
0.026870127
0.027504567
0.016446544
0.035134691
0.035124836
0.035097009
0.035034724
0.034902936
0.03463254
0.03408547
0.032973033
0.030723902
0.0268118
0.023114633
0.023950249
0.02804767
0.028132079
0.016440248
0.035039067
0.035027841
0.034996542
0.034927732
0.034784832
0.034496333
0.033918446
0.032745938
0.030388046
0.026471167
0.023357596
0.025023883
0.02919649
0.028713983
0.016435834
0.034945943
0.034933275
0.034898386
0.034822996
0.034669194
0.034363212
0.033754944
0.032520522
0.030055535
0.026188099
0.023735915
0.026166982
0.030310099
0.029253407
0.016432778
0.034855141
0.034840974
0.034802418
0.034720475
0.034556112
0.034233382
0.033595029
0.032296402
0.029729078
0.025975302
0.024248334
0.02736225
0.031384439
0.029753594
0.016430685
0.034766502
0.034750797
0.03470854
0.034620164
0.034445715
0.034107066
0.033438713
0.032073259
0.029412693
0.025845434
0.024890189
0.028593298
0.032417398
0.030217765
0.016429265
0.034679887
0.034662624
0.034616684
0.034522088
0.034338162
0.033984492
0.033285952
0.031850929
0.029111866
0.025810314
0.025653731
0.029845305
0.033408314
0.030649046
0.016428312
0.034595176
0.034576356
0.034526808
0.034426308
0.034233647
0.033865888
0.033136649
0.03162952
0.028833633
0.025880169
0.026528618
0.031105457
0.034357529
0.031050409
0.016427682
0.034512269
0.034491917
0.034438897
0.034332917
0.034132389
0.033751478
0.032990657
0.031409556
0.028586515
0.02606301
0.027502553
0.032363144
0.035266042
0.031424647
0.01642728
0.034431083
0.034409252
0.034352965
0.034242042
0.034034637
0.033641469
0.032847794
0.031192142
0.028380315
0.026364175
0.028561978
0.033609947
0.036135248
0.031774346
0.016427047
0.034351558
0.034328331
0.034269052
0.034153841
0.033940664
0.03353605
0.032707869
0.03097915
0.028225759
0.026786089
0.029692787
0.034839473
0.036966769
0.032101874
0.01642695
0.034273652
0.034249145
0.03418723
0.034068505
0.03385076
0.033435384
0.03257072
0.030773393
0.028133997
0.02732822
0.030880993
0.036047067
0.037762343
0.032409381
0.016426974
0.034197344
0.03417171
0.034107598
0.033986257
0.033765237
0.033339598
0.032436275
0.030578781
0.028116032
0.027987224
0.032113284
0.037229502
0.038523754
0.032698798
0.016427117
0.034122637
0.034096064
0.034030285
0.033907355
0.033684417
0.033248788
0.032304627
0.030400435
0.028182107
0.028757249
0.03337746
0.038384662
0.039252793
0.032971855
0.016427382
0.034049553
0.034022276
0.033955452
0.033832084
0.033608631
0.033163012
0.032176131
0.030244714
0.02834114
0.029630358
0.034662706
0.039511265
0.039951227
0.033230086
0.016427779
0.03397814
0.033950436
0.033883292
0.033760766
0.033538214
0.0330823
0.032051523
0.030119154
0.028600247
0.030597021
0.035959727
0.04060864
0.040620776
0.033474856
0.016428318
0.033908471
0.033880668
0.033814033
0.033693749
0.033473498
0.033006661
0.031932061
0.030032291
0.028964396
0.031646651
0.037260743
0.041676558
0.041263099
0.033707373
0.01642901
0.033840644
0.033813121
0.033747936
0.033631414
0.033414804
0.032936115
0.031819661
0.029993369
0.029436211
0.032768129
0.038559405
0.042715107
0.041879779
0.033928705
0.016429865
0.033774787
0.03374798
0.033685299
0.033574167
0.033362441
0.032870717
0.031717044
0.030011962
0.030015934
0.033950283
0.039850628
0.043724611
0.042472313
0.034139801
0.016430892
0.033711057
0.03368546
0.033626458
0.03352244
0.033316699
0.032810615
0.031627853
0.03009752
0.030701523
0.035182301
0.041130415
0.044705563
0.043042113
0.034341502
0.016432097
0.033649643
0.033625814
0.033571787
0.033476689
0.033277844
0.032756113
0.031556734
0.030258904
0.031488878
0.036454044
0.042395662
0.045658586
0.043590497
0.034534552
0.016433487
0.03359077
0.033569333
0.033521698
0.033437387
0.03324612
0.032707756
0.031509358
0.030503939
0.032372144
0.037756266
0.043643994
0.046584394
0.044118698
0.034719617
0.016435064
0.033534699
0.033516348
0.033476647
0.033405019
0.033221753
0.032666433
0.031492359
0.030839028
0.033344087
0.039080734
0.04487361
0.047483769
0.044627863
0.034897289
0.016436831
0.033481731
0.033467235
0.033437127
0.033380083
0.033204962
0.032633491
0.031513198
0.031268866
0.034396492
0.040420264
0.046083174
0.048357532
0.045119059
0.035068096
0.016438788
0.033432211
0.033422413
0.033403675
0.033363077
0.033195978
0.032610856
0.031579924
0.031796266
0.035520554
0.041768689
0.047271716
0.049206529
0.045593276
0.035232514
0.016440933
0.033386531
0.033382352
0.033376864
0.033354498
0.033195078
0.032601151
0.031700873
0.032422091
0.036707256
0.043120787
0.048438562
0.050031613
0.046051437
0.035390968
0.016443266
0.033345134
0.033347573
0.033357309
0.033354836
0.033202628
0.032607793
0.031884308
0.033145319
0.037947675
0.04447218
0.049583281
0.050833632
0.046494397
0.035543844
0.016445782
0.033308518
0.033318652
0.033345661
0.033364571
0.033219143
0.032635062
0.032138043
0.033963179
0.039233251
0.045819221
0.050705638
0.05161342
0.046922951
0.035691489
0.016448478
0.033277237
0.03329622
0.033342601
0.033384174
0.033245363
0.032688111
0.032469071
0.034871383
0.040555967
0.047158891
0.051805559
0.052371794
0.047337839
0.035834219
0.016451351
0.033251914
0.033280969
0.033348845
0.033414106
0.033282345
0.032772918
0.032883248
0.0358644
0.041908472
0.0484887
0.0528831
0.053109546
0.047739748
0.03597232
0.016454394
0.033233235
0.033273652
0.033365129
0.033454836
0.033331563
0.032896166
0.033385035
0.03693576
0.043284141
0.049806604
0.053938418
0.053827442
0.048129318
0.036106053
0.016457603
0.033221962
0.033275082
0.033392211
0.033506852
0.033395017
0.033065051
0.033977336
0.038078365
0.044677086
0.051110934
0.054971756
0.054526218
0.048507144
0.036235658
0.016460974
0.033218934
0.033286139
0.033430864
0.033570697
0.033475332
0.033287022
0.034661422
0.039284779
0.046082131
0.052400341
0.055983417
0.055206586
0.048873782
0.036361356
0.016464499
0.033225073
0.033307763
0.033481871
0.033647009
0.033575846
0.033569485
0.035436952
0.040547492
0.047494762
0.053673744
0.056973753
0.055869225
0.049229755
0.036483354
0.016468174
0.033241386
0.033340956
0.033546021
0.033736578
0.033700661
0.033919479
0.036302068
0.041859138
0.048911068
0.054930291
0.057943149
0.056514768
0.049575443
0.036601083
0.01647199
0.033268972
0.03338678
0.033624112
0.033840421
0.033854652
0.034343364
0.037253559
0.043212658
0.050327672
0.056169323
0.058892007
0.057143806
0.049911241
0.036714879
0.016475942
0.033309024
0.033446356
0.033716953
0.033959861
0.034043422
0.03484654
0.038287077
0.044601425
0.051741667
0.057390339
0.059820745
0.057756911
0.050237556
0.036825045
0.016480019
0.03336283
0.033520853
0.033825376
0.034096628
0.034273183
0.03543322
0.039397377
0.046019315
0.053150559
0.058592978
0.060729791
0.058354635
0.050554796
0.036931851
0.016484214
0.033431775
0.033611491
0.033950258
0.034252955
0.034550593
0.036106276
0.04057856
0.04746074
0.054552213
0.059776993
0.061619574
0.058937453
0.050862923
0.037035581
0.016488518
0.033517344
0.033719533
0.034092549
0.034431666
0.034882518
0.036867156
0.041824325
0.048920652
0.055944807
0.060942228
0.062490516
0.059505811
0.051162151
0.037136396
0.016492923
0.033621115
0.033846282
0.034253324
0.034636252
0.035275769
0.037715887
0.043128182
0.050394529
0.057326794
0.062088606
0.063343036
0.060060163
0.051452981
0.037234384
0.016497425
0.033744758
0.03399308
0.034433836
0.034870909
0.035736816
0.038651142
0.044483642
0.05187834
0.05869686
0.063216115
0.064177552
0.060600973
0.05173585
0.037329653
0.016502019
0.033890035
0.03416131
0.034635593
0.035140536
0.036271508
0.039670364
0.045884373
0.053368509
0.060053901
0.064324795
0.064994472
0.061128572
0.052011162
0.037422331
0.0165067
0.034058788
0.034352406
0.034860443
0.035450675
0.036884821
0.040769945
0.047324311
0.054861873
0.061396991
0.065414727
0.065794143
0.061642947
0.052279305
0.037512562
0.016511467
0.034252938
0.034567874
0.035110666
0.035807395
0.037580652
0.041945415
0.048797741
0.056355641
0.062725358
0.066486018
0.066576929
0.062144667
0.052540483
0.037600453
0.016516317
0.034474482
0.034809315
0.035389068
0.036217119
0.038361678
0.04319166
0.050299342
0.057847358
0.064038358
0.067538805
0.067343214
0.062634244
0.052794917
0.037686088
0.016521247
0.03472549
0.035078477
0.035699054
0.036686396
0.039229281
0.044503123
0.051824208
0.059334861
0.065335463
0.068573252
0.068093395
0.063112137
0.053042836
0.037769546
0.016526253
0.035008112
0.035377303
0.036044687
0.037221652
0.040183541
0.045873998
0.053367855
0.06081626
0.066616247
0.069589503
0.068827371
0.063578808
0.05328449
0.037850923
0.016531331
0.035324591
0.035708011
0.036430701
0.037828917
0.041223294
0.047298399
0.054926202
0.062289894
0.067880353
0.07058771
0.06954562
0.064034565
0.053520088
0.037930307
0.016536479
0.035677288
0.036073178
0.036862468
0.03851357
0.042346241
0.048770494
0.056495555
0.063754309
0.069127491
0.071568063
0.070248614
0.064479709
0.053749815
0.038007771
0.016541693
0.036068724
0.036475825
0.037345909
0.039280106
0.043549097
0.050284617
0.058072575
0.065208228
0.070357436
0.072530786
0.070936788
0.064914535
0.05397385
0.03808338
0.016546969
0.036501631
0.036919508
0.037887344
0.040131958
0.044827765
0.051835345
0.059654264
0.066650551
0.071570002
0.073475729
0.071610524
0.065339341
0.054192383
0.038157197
0.016552305
0.036979026
0.037408388
0.038493291
0.04107137
0.046177522
0.053417551
0.061237922
0.068080296
0.072765016
0.074403189
0.072270171
0.06575439
0.054405591
0.038229281
0.016557696
0.037504287
0.037947273
0.039170223
0.042099346
0.047593204
0.055026432
0.06282112
0.069496598
0.073942366
0.075313493
0.072916047
0.066159928
0.054613631
0.038299688
0.01656314
0.038081241
0.03854161
0.039924304
0.043215651
0.049069371
0.056657523
0.064401681
0.070898704
0.07510191
0.076206923
0.073548448
0.066556199
0.054816652
0.038368466
0.016568632
0.038714236
0.039197432
0.040761127
0.044418877
0.050600461
0.058306697
0.065977657
0.072285945
0.076243438
0.077083725
0.074167652
0.066943444
0.055014793
0.038435662
0.01657417
0.03940819
0.039921226
0.041685469
0.04570655
0.052180916
0.059970152
0.067547279
0.073657701
0.077366973
0.077944203
0.07477392
0.067321887
0.055208188
0.038501318
0.016579751
0.040168599
0.040719753
0.042701087
0.04707528
0.053805276
0.06164439
0.069108947
0.075013439
0.078472603
0.078788613
0.075367505
0.067691733
0.055396961
0.038565472
0.01658537
0.04100148
0.041599794
0.043810572
0.048520921
0.05546826
0.063326224
0.070661259
0.076352558
0.079560257
0.079617158
0.075948659
0.06805318
0.055581227
0.03862816
0.016591025
0.041913252
0.042567872
0.045015258
0.050038745
0.057164816
0.065012718
0.07220287
0.077674595
0.080630128
0.080430042
0.076517616
0.068406415
0.055761092
0.038689413
0.016596712
0.042910526
0.043629944
0.046315204
0.051623602
0.058890141
0.066701161
0.073732563
0.07897924
0.081682348
0.081227466
0.077074594
0.068751611
0.055936657
0.038749262
0.016602429
0.043999827
0.044791099
0.04770923
0.053270086
0.060639725
0.068389122
0.075249198
0.08026602
0.082716967
0.082009626
0.0776198
0.069088929
0.056108013
0.038807733
0.016608172
0.045187263
0.046055286
0.049194999
0.054972652
0.062409319
0.070074283
0.076751677
0.081534841
0.083734045
0.082776705
0.078153427
0.06941852
0.056275245
0.03886485
0.016613937
0.046478151
0.047425094
0.05076914
0.056725731
0.064194933
0.0717545
0.078239058
0.082785577
0.084733649
0.083528869
0.078675652
0.069740524
0.056438431
0.038920634
0.016619723
0.04787665
0.048901588
0.052427395
0.058523827
0.065992887
0.073427803
0.079710319
0.084018006
0.085715842
0.084266275
0.079186642
0.070055068
0.056597641
0.038975104
0.016625525
0.049385421
0.050484219
0.054164766
0.060361539
0.067799634
0.075092236
0.081164972
0.085231945
0.086680675
0.084989063
0.079686548
0.070362268
0.05675294
0.039028275
0.016631341
0.051005361
0.052170817
0.055975677
0.062233671
0.069611915
0.076745847
0.082602395
0.086427218
0.087628189
0.085697358
0.080175504
0.07066223
0.056904385
0.039080163
0.016637167
0.052735424
0.053957634
0.057854089
0.064135126
0.071426505
0.078387246
0.084021976
0.087603651
0.08855841
0.08639127
0.080653634
0.07095505
0.057052027
0.039130777
0.016643001
0.054572557
0.055839466
0.059793654
0.066061023
0.073240174
0.08001514
0.085423141
0.088761061
0.089471351
0.087070892
0.081121044
0.07124081
0.05719591
0.039180129
0.016648839
0.056511739
0.057809788
0.061787721
0.068006442
0.075050351
0.08162827
0.086805333
0.089899263
0.090367008
0.087736297
0.081577826
0.071519584
0.057336073
0.039228223
0.016654679
0.058546138
0.059860945
0.063829422
0.069966591
0.076854665
0.08322544
0.088168005
0.091018056
0.091245359
0.088387544
0.082024056
0.071791433
0.057472547
0.039275066
0.016660517
0.06066729
0.061984228
0.065911618
0.071937309
0.078650862
0.084805501
0.089510618
0.092117228
0.092106362
0.089024669
0.082459796
0.072056409
0.057605359
0.039320659
0.01666635
0.062865305
0.064170241
0.06802748
0.073914587
0.080436793
0.086367349
0.090832636
0.093196553
0.092949955
0.089647691
0.08288509
0.072314551
0.057734527
0.039365002
0.016672175
0.065129331
0.066409191
0.070170228
0.075894557
0.082210399
0.087909911
0.092133519
0.094255785
0.093776055
0.090256606
0.083299967
0.072565887
0.057860065
0.039408093
0.016677989
0.067447934
0.068691073
0.072333167
0.077873476
0.083969701
0.089432143
0.093412726
0.09529466
0.094584554
0.090851393
0.083704438
0.072810434
0.057981979
0.039449928
0.016683788
0.069809452
0.071005865
0.074509729
0.07984772
0.085712784
0.090933023
0.094669707
0.096312898
0.095375325
0.091432006
0.0840985
0.073048198
0.058100269
0.039490499
0.016689569
0.072202308
0.073343713
0.076693504
0.081813773
0.087437794
0.092411549
0.095903909
0.097310195
0.096148216
0.091998382
0.084482132
0.073279172
0.058214929
0.039529796
0.016695329
0.074615271
0.075695084
0.078878282
0.083768223
0.089142929
0.093866733
0.097114769
0.098286234
0.096903054
0.092550435
0.084855294
0.073503338
0.058325945
0.039567809
0.016701064
0.07703766
0.078050896
0.08105809
0.085707765
0.090826434
0.095297607
0.098301724
0.09924068
0.097639647
0.09308806
0.085217934
0.073720668
0.058433297
0.039604521
0.01670677
0.079459499
0.08040262
0.08322723
0.087629204
0.092486601
0.096703217
0.099464206
0.10017318
0.098357782
0.093611133
0.085569981
0.07393112
0.05853696
0.039639917
0.016712444
0.081871616
0.082742347
0.08538031
0.089529466
0.094121773
0.098082629
0.10060165
0.10108339
0.099057232
0.094119514
0.08591135
0.074134643
0.0586369
0.039673976
0.016718081
0.084265698
0.08506284
0.08751228
0.091405606
0.095730344
0.099434933
0.10171349
0.10197092
0.099737755
0.094613047
0.086241944
0.074331176
0.058733079
0.039706678
0.016723677
0.086634311
0.087357555
0.089618449
0.093254822
0.097310763
0.10075924
0.10279918
0.10283542
0.1003991
0.095091563
0.086561652
0.074520647
0.058825454
0.039737997
0.016729228
0.088970891
0.089620645
0.091694509
0.09507447
0.098861547
0.1020547
0.10385818
0.10367652
0.10104101
0.095554884
0.086870354
0.074702979
0.058913974
0.039767909
0.016734728
0.091269713
0.091846949
0.093736543
0.096862077
0.10038128
0.1033205
0.10488998
0.10449385
0.10166323
0.096002827
0.087167921
0.074878084
0.058998586
0.039796385
0.016740175
0.093525844
0.094031964
0.09574103
0.098615349
0.10186864
0.10455586
0.10589408
0.10528709
0.1022655
0.096435204
0.087454221
0.075045873
0.059079234
0.039823397
0.016745561
0.095735092
0.096171814
0.097704844
0.10033218
0.10332237
0.10576006
0.10687002
0.1060559
0.10284759
0.096851829
0.087729117
0.075206251
0.059155856
0.039848915
0.016750883
0.09789394
0.098263208
0.099625246
0.10201068
0.10474133
0.10693242
0.10781738
0.10679997
0.10340925
0.097252521
0.087992473
0.075359121
0.059228394
0.039872907
0.016756135
0.099999491
0.1003034
0.10149987
0.10364913
0.10612448
0.10807234
0.10873578
0.10751905
0.10395027
0.09763711
0.088244156
0.075504388
0.059296783
0.039895344
0.016761311
0.1020494
0.10229013
0.10332671
0.10524605
0.10747087
0.10917927
0.10962488
0.10821287
0.10447046
0.098005437
0.088484041
0.075641957
0.059360965
0.039916195
0.016766406
0.10404182
0.1042216
0.10510409
0.10680013
0.10877967
0.11025272
0.11048439
0.10888125
0.10496966
0.09835736
0.08871201
0.075771742
0.05942088
0.03993543
0.016771414
0.10597535
0.10609642
0.10683065
0.10831029
0.11005019
0.11129231
0.11131408
0.10952402
0.10544772
0.09869276
0.08892796
0.07589366
0.059476474
0.039953023
0.01677633
0.10784898
0.10791355
0.10850535
0.10977563
0.11128181
0.11229769
0.11211377
0.11014106
0.10590455
0.099011538
0.089131803
0.076007639
0.059527696
0.039968948
0.016781148
0.10966203
0.10967228
0.11012737
0.11119543
0.11247407
0.11326861
0.11288332
0.1107323
0.10634009
0.099313624
0.089323468
0.076113617
0.059574503
0.039983181
0.016785862
0.11141412
0.11137219
0.11169619
0.11256917
0.1136266
0.11420488
0.11362268
0.11129771
0.1067543
0.099598979
0.089502904
0.076211547
0.059616858
0.039995705
0.016790466
0.11310516
0.11301312
0.11321148
0.11389647
0.11473914
0.11510642
0.11433184
0.11183732
0.10714719
0.099867592
0.089670086
0.076301395
0.059654734
0.040006504
0.016794956
0.11473525
0.1145951
0.11467311
0.11517712
0.11581156
0.11597318
0.11501085
0.11235118
0.10751882
0.10011949
0.08982501
0.076383145
0.059688113
0.040015566
0.016799325
0.11630471
0.11611839
0.11608116
0.11641107
0.1168438
0.11680521
0.11565982
0.11283944
0.10786929
0.10035472
0.0899677
0.076456799
0.059716989
0.040022887
0.016803569
0.11781402
0.1175834
0.11743584
0.11759838
0.11783593
0.11760263
0.1162789
0.11330224
0.10819874
0.10057338
0.090098206
0.076522377
0.059741367
0.040028466
0.016807683
0.11926382
0.11899068
0.11873752
0.11873926
0.11878811
0.11836563
0.11686832
0.11373981
0.10850733
0.10077561
0.090216606
0.07657992
0.059761263
0.040032308
0.016811661
0.12065485
0.12034092
0.11998669
0.119834
0.11970056
0.11909445
0.11742835
0.11415241
0.10879529
0.10096155
0.090323004
0.076629487
0.059776708
0.040034424
0.016815501
0.12198797
0.12163492
0.12118396
0.12088302
0.12057361
0.11978942
0.11795931
0.11454033
0.10906287
0.1011314
0.090417535
0.076671161
0.059787746
0.040034832
0.016819198
0.12326413
0.12287355
0.12233002
0.12188683
0.12140766
0.12045089
0.11846156
0.11490392
0.10931037
0.1012854
0.090500359
0.076705044
0.059794432
0.040033554
0.016822749
0.12448437
0.12405779
0.12342567
0.122846
0.12220317
0.1210793
0.11893551
0.11524356
0.10953811
0.10142379
0.090571663
0.076731257
0.059796837
0.040030621
0.016826151
0.12564977
0.12518865
0.12447176
0.12376119
0.12296068
0.12167513
0.11938161
0.11555967
0.10974646
0.10154688
0.090631658
0.076749941
0.059795042
0.040026067
0.016829401
0.12676147
0.12626723
0.12546921
0.12463314
0.12368076
0.12223888
0.11980036
0.11585269
0.10993581
0.10165497
0.090680583
0.076761258
0.059789142
0.040019933
0.016832498
0.12782067
0.12729467
0.126419
0.12546262
0.12436405
0.12277114
0.12019228
0.11612311
0.11010657
0.10174841
0.090718696
0.076765386
0.059779244
0.040012266
0.016835439
0.12882859
0.12827213
0.12732217
0.12625046
0.12501125
0.1232725
0.12055792
0.11637144
0.1102592
0.10182757
0.090746279
0.076762521
0.059765465
0.040003117
0.016838224
0.12978651
0.12920083
0.12817976
0.12699755
0.12562308
0.1237436
0.12089787
0.11659821
0.11039416
0.10189284
0.090763632
0.076752874
0.059747935
0.039992541
0.016840853
0.1306957
0.130082
0.12899289
0.12770479
0.12620031
0.12418512
0.12121275
0.11680399
0.11051195
0.10194463
0.090771076
0.076736671
0.05972679
0.0399806
0.016843325
0.13155747
0.13091691
0.12976268
0.12837315
0.12674373
0.12459775
0.12150319
0.11698934
0.11061307
0.10198336
0.090768945
0.076714153
0.059702178
0.039967357
0.016845642
0.13237315
0.13170683
0.13049029
0.1290036
0.12725418
0.12498223
0.12176984
0.11715488
0.11069807
0.10200949
0.090757592
0.07668557
0.059674254
0.039952881
0.016847803
0.13314407
0.13245306
0.13117688
0.12959716
0.12773251
0.1253393
0.12201339
0.1173012
0.11076747
0.10202347
0.090737379
0.076651187
0.059643181
0.039937243
0.01684981
0.13387157
0.13315689
0.13182365
0.13015484
0.12817961
0.12566973
0.12223453
0.11742895
0.11082184
0.10202577
0.090708684
0.076611275
0.059609127
0.039920516
0.016851666
0.13455701
0.13381962
0.13243178
0.13067768
0.12859635
0.1259743
0.12243396
0.11753876
0.11086174
0.10201688
0.09067189
0.076566116
0.059572266
0.039902775
0.016853372
0.13520171
0.13444257
0.13300248
0.13116675
0.12898366
0.12625382
0.12261241
0.11763127
0.11088775
0.10199729
0.090627393
0.076515995
0.059532777
0.039884098
0.016854932
0.13580702
0.13502703
0.13353695
0.1316231
0.12934246
0.1265091
0.12277059
0.11770715
0.11090045
0.10196749
0.09057559
0.076461206
0.059490841
0.039864565
0.016856348
0.13637427
0.13557429
0.13403639
0.13204779
0.12967366
0.12674094
0.12290925
0.11776705
0.11090043
0.10192799
0.090516886
0.076402044
0.059446643
0.039844253
0.016857623
0.13690475
0.13608562
0.13450198
0.13244188
0.12997819
0.12695016
0.1230291
0.11781163
0.11088827
0.10187928
0.090451685
0.076338807
0.059400366
0.039823243
0.016858762
0.13739977
0.1365623
0.13493492
0.13280643
0.13025698
0.12713758
0.12313088
0.11784155
0.11086455
0.10182187
0.090380391
0.076271791
0.059352196
0.039801613
0.016859769
0.13786058
0.13700555
0.13533635
0.13314248
0.13051095
0.12730401
0.12321532
0.11785747
0.11082986
0.10175625
0.090303409
0.076201294
0.059302316
0.039779442
0.016860648
0.13828844
0.13741659
0.13570741
0.13345106
0.130741
0.12745026
0.12328314
0.11786002
0.11078477
0.10168292
0.090221135
0.076127607
0.059250908
0.039756807
0.016861403
0.13868454
0.13779662
0.13604924
0.13373318
0.13094803
0.12757712
0.12333505
0.11784985
0.11072984
0.10160237
0.090133962
0.076051017
0.059198148
0.039733781
0.016862039
0.13905009
0.13814678
0.13636291
0.13398984
0.13113293
0.12768537
0.12337175
0.11782759
0.11066563
0.10151506
0.090042274
0.075971808
0.059144209
0.039710438
0.01686256
0.13938622
0.13846821
0.13664951
0.13422201
0.13129656
0.12777577
0.12339391
0.11779385
0.11059269
0.10142146
0.089946445
0.075890251
0.059089259
0.039686845
0.016862972
0.13969407
0.13876202
0.13691007
0.13443063
0.13143976
0.12784909
0.12340222
0.11774923
0.11051154
0.10132203
0.089846841
0.075806613
0.059033458
0.03966307
0.016863279
0.13997472
0.13902928
0.13714562
0.13461665
0.13156338
0.12790605
0.12339733
0.11769431
0.1104227
0.1012172
0.089743813
0.075721149
0.058976961
0.039639174
0.016863487
0.14022926
0.13927104
0.13735714
0.13478097
0.1316682
0.12794737
0.12337988
0.11762966
0.11032666
0.1011074
0.089637703
0.075634104
0.058919915
0.039615217
0.016863599
0.14045873
0.13948832
0.13754561
0.13492448
0.13175504
0.12797376
0.12335049
0.11755585
0.11022392
0.10099305
0.089528838
0.075545714
0.058862459
0.039591253
0.016863621
0.14066414
0.13968212
0.13771199
0.13504804
0.13182467
0.12798591
0.12330977
0.1174734
0.11011495
0.10087453
0.089417535
0.075456204
0.058804725
0.039567334
0.016863557
0.14084652
0.13985344
0.1378572
0.13515252
0.13187785
0.12798449
0.12325833
0.11738284
0.1100002
0.10075224
0.089304099
0.075365791
0.05874684
0.039543507
0.016863412
0.14100685
0.14000325
0.13798216
0.13523875
0.13191533
0.12797016
0.12319673
0.11728469
0.10988012
0.10062655
0.089188823
0.07527468
0.058688922
0.039519818
0.01686319
0.14114611
0.14013249
0.13808778
0.13530757
0.13193785
0.12794357
0.12312556
0.11717946
0.10975515
0.10049782
0.089071989
0.075183068
0.058631082
0.039496307
0.016862896
0.14126527
0.14024211
0.13817494
0.13535977
0.13194613
0.12790537
0.12304539
0.11706762
0.1096257
0.1003664
0.088953871
0.075091144
0.058573427
0.039473013
0.016862534
0.14136528
0.14033305
0.13824453
0.13539619
0.1319409
0.12785619
0.12295676
0.11694968
0.1094922
0.10023264
0.088834734
0.074999092
0.058516059
0.039449972
0.016862107
0.14144708
0.14040622
0.13829742
0.13541759
0.13192287
0.12779665
0.12286022
0.11682609
0.10935505
0.10009686
0.088714832
0.074907083
0.058459074
0.039427218
0.016861621
0.14151161
0.14046252
0.13833446
0.13542479
0.13189274
0.12772738
0.12275631
0.11669734
0.10921463
0.099959403
0.088594415
0.074815289
0.058402563
0.039404782
0.016861079
0.14155977
0.14050286
0.1383565
0.13541854
0.1318512
0.12764898
0.12264556
0.11656387
0.10907136
0.099820572
0.088473721
0.074723868
0.058346614
0.039382696