/*--------------------------------*- C++ -*----------------------------------*\
| =========                 |                                                 |
| \\      /  F ield         | OpenFOAM: The Open Source CFD Toolbox           |
|  \\    /   O peration     | Version:  2506                                  |
|   \\  /    A nd           | Website:  www.openfoam.com                      |
|    \\/     M anipulation  |                                                 |
\*---------------------------------------------------------------------------*/
FoamFile
{
    version     2.0;
    format      ascii;
    arch        "LSB;label=32;scalar=64";
    class       volScalarField;
    location    "1000/water";
    object      k;
}
// * * * * * * * * * * * * * * * * * * * * * * * * * * * * * * * * * * * * * //

dimensions      [0 2 -2 0 0 0 0];

internalField   nonuniform List<scalar> 
6000
(
0.0002144485
0.00021444827
0.00021444833
0.00021444852
0.00021444878
0.00021444911
0.00021444953
0.00021445001
0.00021445038
0.00021444961
0.00021444477
0.00021444847
0.00021482328
0.00022098609
0.00033298785
0.00019735372
0.00019735408
0.00019735481
0.00019735601
0.00019735759
0.00019735962
0.00019736212
0.0001973649
0.00019736678
0.00019736231
0.00019733424
0.0001972933
0.00019808165
0.00021190706
0.00042108833
0.00018260526
0.00018260625
0.00018260756
0.00018260957
0.0001826122
0.00018261554
0.00018261945
0.00018262311
0.00018262253
0.00018260174
0.00018251429
0.00018235696
0.00018354965
0.00020571076
0.0004915993
0.00016977104
0.00016977195
0.00016977358
0.00016977617
0.00016977959
0.00016978384
0.00016978847
0.00016979119
0.00016978242
0.00016972799
0.0001695392
0.00016920344
0.00017083025
0.00020141509
0.00054314021
0.00015851703
0.00015851791
0.00015851979
0.00015852287
0.0001585269
0.00015853173
0.00015853623
0.00015853548
0.0001585108
0.00015840225
0.00015807228
0.00015752308
0.00015966967
0.00019844232
0.00057747636
0.00014858047
0.00014858142
0.00014858351
0.00014858695
0.00014859139
0.00014859636
0.00014859955
0.0001485919
0.00014854197
0.00014835849
0.00014785779
0.00014709963
0.00014993181
0.00019659445
0.00059772639
0.00013975169
0.00013975271
0.00013975496
0.00013975864
0.00013976325
0.00013976781
0.00013976817
0.00013974945
0.00013966425
0.0001393877
0.00013870223
0.00013778194
0.00014154644
0.00019585229
0.00060724748
0.00013186192
0.00013186298
0.00013186534
0.00013186914
0.00013187366
0.00013187713
0.00013187282
0.00013183836
0.00013170812
0.00013132527
0.00013045854
0.00012946164
0.00013447268
0.00019626303
0.00060905754
0.00012477404
0.00012477514
0.00012477755
0.00012478136
0.00012478548
0.00012478703
0.00012477592
0.00012472085
0.00012453699
0.00012404097
0.00012301362
0.00012205827
0.00012868159
0.00019789321
0.0006056161
0.00011837572
0.00011837682
0.00011837924
0.0001183829
0.00011838626
0.00011838492
0.00011836468
0.00011828424
0.00011804014
0.00011743108
0.00011627928
0.00011550993
0.00012414935
0.00020080676
0.00059880682
0.0001125741
0.0001125752
0.00011257756
0.00011258091
0.00011258305
0.00011257774
0.00011254594
0.00011243584
0.00011212738
0.0001114124
0.00011018555
0.00010976786
0.00012085593
0.00020505367
0.00059001308
0.00010729189
0.00010729297
0.0001072952
0.00010729803
0.00010729845
0.00010728799
0.00010724223
0.00010709893
0.00010672477
0.00010591759
0.00010467621
0.00010479348
0.00011878602
0.00021066301
0.00058022149
0.0001024643
0.00010246533
0.00010246733
0.00010246942
0.00010246756
0.00010245071
0.00010238875
0.00010220964
0.0001017714
0.00010089174
9.9705638e-05
0.000100557
0.00011793046
0.00021763683
0.00057012062
9.8036637e-05
9.8037572e-05
9.8039255e-05
9.8040328e-05
9.8035582e-05
9.8011091e-05
9.7930966e-05
9.7714594e-05
9.7216801e-05
9.6289669e-05
9.5236719e-05
9.703687e-05
0.00011828673
0.00022594366
0.0005601824
9.3962451e-05
9.3963259e-05
9.3964497e-05
9.3964262e-05
9.3955981e-05
9.3922652e-05
9.3822751e-05
9.3568903e-05
9.3018884e-05
9.2074025e-05
9.1239503e-05
9.4219615e-05
0.00011985802
0.00023551194
0.0005507241
9.0202076e-05
9.020271e-05
9.0203366e-05
9.0201504e-05
9.0189027e-05
9.0145749e-05
9.0024925e-05
8.9734681e-05
8.9142411e-05
8.8213812e-05
8.7690325e-05
9.20998e-05
0.00012265037
0.00024622465
0.00054195294
8.6721448e-05
8.6721856e-05
8.6721776e-05
8.6717945e-05
8.6700619e-05
8.664642e-05
8.6504047e-05
8.61798e-05
8.5557736e-05
8.4683334e-05
8.4571272e-05
9.0679902e-05
0.00012666793
0.00025791693
0.00053399692
8.3491166e-05
8.3491287e-05
8.3490304e-05
8.3484151e-05
8.3461349e-05
8.3395437e-05
8.3231463e-05
8.2876915e-05
8.2239851e-05
8.1461425e-05
8.1869885e-05
8.9969913e-05
0.00013190642
0.00027037857
0.00052692519
8.0485733e-05
8.0485502e-05
8.0483437e-05
8.0474603e-05
8.0445747e-05
8.0367548e-05
8.018253e-05
7.9802669e-05
7.9167636e-05
7.8530889e-05
7.9578988e-05
8.9986537e-05
0.00013834557
0.00028336255
0.00052076146
7.7682937e-05
7.7682283e-05
7.767895e-05
7.7667083e-05
7.7631664e-05
7.7540855e-05
7.7335982e-05
7.6937064e-05
7.6323276e-05
7.5878109e-05
7.7696612e-05
9.0751816e-05
0.00014594134
0.00029659939
0.00051549302
7.5063349e-05
7.5062196e-05
7.5057404e-05
7.5042167e-05
7.4999765e-05
7.4896302e-05
7.4673418e-05
7.4262946e-05
7.369182e-05
7.3492783e-05
7.6225917e-05
9.2291049e-05
0.00015461944
0.000309816
0.00051107779
7.2609902e-05
7.2608172e-05
7.260173e-05
7.2582813e-05
7.2533118e-05
7.2417256e-05
7.2178869e-05
7.1765596e-05
7.1260831e-05
7.1367745e-05
7.5175079e-05
9.4629939e-05
0.00016427135
0.00032275576
0.00050745065
7.0307551e-05
7.0305165e-05
7.0296888e-05
7.0274015e-05
7.0216842e-05
7.0089161e-05
6.9838457e-05
6.94324e-05
6.9020131e-05
6.949887e-05
7.4557053e-05
9.7790946e-05
0.00017475428
0.00033519669
0.00050453001
6.8142984e-05
6.8139863e-05
6.8129575e-05
6.8102519e-05
6.8037823e-05
6.7899244e-05
6.7640104e-05
6.7252585e-05
6.6961603e-05
6.7885016e-05
7.4389159e-05
0.00010178904
0.0001858954
0.00034696444
0.00050222457
6.6104382e-05
6.6100451e-05
6.608799e-05
6.6056581e-05
6.5984475e-05
6.5836276e-05
6.5573296e-05
6.5217006e-05
6.5079053e-05
6.6528011e-05
7.4692423e-05
0.00010662718
0.00019750037
0.00035793856
0.00050043991
6.418122e-05
6.4176406e-05
6.4161633e-05
6.4125766e-05
6.4046535e-05
6.3890369e-05
6.3628889e-05
6.3317981e-05
6.3368113e-05
6.5432644e-05
7.5490605e-05
0.00011229203
0.00020936498
0.00036805173
0.00049908424
6.2364094e-05
6.2358333e-05
6.2341135e-05
6.230078e-05
6.2214894e-05
6.2052808e-05
6.1798947e-05
6.1549161e-05
6.182618e-05
6.4606648e-05
7.680889e-05
0.00011875054
0.00022128816
0.00037728353
0.00049807291
6.064458e-05
6.0637817e-05
6.0618111e-05
6.0573325e-05
6.0481451e-05
6.031591e-05
6.0076617e-05
5.9905429e-05
6.045239e-05
6.4060643e-05
7.8672185e-05
0.00012594803
0.00023308444
0.00038565069
0.00049733132
5.9015114e-05
5.9007302e-05
5.8985044e-05
5.8935977e-05
5.8838997e-05
5.8672904e-05
5.8456016e-05
5.8382826e-05
5.9247607e-05
6.380802e-05
8.1103078e-05
0.00013380821
0.00024459408
0.00039319634
0.00049679626
5.746888e-05
5.745999e-05
5.7435175e-05
5.7382083e-05
5.7281105e-05
5.7117831e-05
5.6932149e-05
5.6978499e-05
5.8214438e-05
6.3864707e-05
8.411951e-05
0.00014223536
0.00025568959
0.00039997992
0.00049641599
5.599973e-05
5.5989745e-05
5.596242e-05
5.590567e-05
5.5802046e-05
5.5645466e-05
5.5500841e-05
5.5690668e-05
5.7357258e-05
6.424881e-05
8.7732329e-05
0.0001511185
0.00026627829
0.00040606902
0.00049614946
5.4602101e-05
5.4591025e-05
5.4561286e-05
5.4501369e-05
5.4396714e-05
5.4251246e-05
5.4158685e-05
5.4518612e-05
5.6682234e-05
6.4980079e-05
9.1942941e-05
0.00016033717
0.00027630116
0.00041153335
0.00049596497
5.3270953e-05
5.3258808e-05
5.3226813e-05
5.3164353e-05
5.3060564e-05
5.2931212e-05
5.2903001e-05
5.3462663e-05
5.6197343e-05
6.6079181e-05
9.6741326e-05
0.00016976802
0.000285729
0.00041644085
0.00049583865
5.2001708e-05
5.198854e-05
5.1954511e-05
5.1890276e-05
5.1789556e-05
5.1681971e-05
5.1731808e-05
5.2524225e-05
5.5912363e-05
6.7566765e-05
0.00010210471
0.00017929137
0.00029455685
0.00042085544
0.00049575298
5.0790203e-05
5.0776083e-05
5.0740313e-05
5.067523e-05
5.0580113e-05
5.050065e-05
5.0643813e-05
5.1705789e-05
5.5838828e-05
6.946233e-05
0.00010799714
0.00018879709
0.00030279789
0.00042483586
0.00049569544
4.9632648e-05
4.9617675e-05
4.9580534e-05
4.9515698e-05
4.942908e-05
4.9384875e-05
4.9638394e-05
5.1010966e-05
5.5989918e-05
7.178292e-05
0.00011437
0.00019818901
0.00031047772
0.00042843533
0.0004956574
4.8525586e-05
4.8509888e-05
4.8471831e-05
4.8408525e-05
4.8333699e-05
4.8332748e-05
4.8715611e-05
5.0444524e-05
5.6380276e-05
7.4541726e-05
0.00012116371
0.00020738765
0.00031762942
0.00043170149
0.00049563313
4.7465859e-05
4.74496e-05
4.7411173e-05
4.7350883e-05
4.7291577e-05
4.7342831e-05
4.7876207e-05
5.0012417e-05
5.702572e-05
7.7746678e-05
0.00012831013
0.00021633122
0.00032428982
0.00043467667
0.00049561908
4.6450583e-05
4.6433963e-05
4.6395814e-05
4.6340247e-05
4.6300671e-05
4.641414e-05
4.7121628e-05
4.9721817e-05
5.7942848e-05
8.1399166e-05
0.00013573578
0.00022497509
0.00033049682
0.00043739817
0.00049561324
4.5477121e-05
4.5460379e-05
4.5423267e-05
4.5374375e-05
4.5359268e-05
4.5546142e-05
4.6454049e-05
4.9581125e-05
5.9148508e-05
8.5493018e-05
0.00014336522
0.00023329015
0.00033628764
0.00043989867
0.00049561471
4.4543061e-05
4.4526479e-05
4.4491284e-05
4.4451289e-05
4.446598e-05
4.4738756e-05
4.5876394e-05
4.9599966e-05
6.0659159e-05
9.0013881e-05
0.00015112441
0.00024126036
0.00034169779
0.00044220662
0.00049562332
4.3646195e-05
4.3630105e-05
4.359784e-05
4.3569259e-05
4.3619731e-05
4.3992365e-05
4.5392377e-05
4.9789137e-05
6.24901e-05
9.4939089e-05
0.0001589437
0.0002488802
0.00034676053
0.00044434668
0.00049563933
4.2784505e-05
4.2769292e-05
4.2741115e-05
4.2726796e-05
4.2819756e-05
4.3307822e-05
4.500653e-05
5.0160522e-05
6.4654626e-05
0.00010023808
0.00016676014
0.00025615208
0.00035150661
0.00044634014
0.00049566327
4.1956147e-05
4.1942252e-05
4.1919486e-05
4.1922641e-05
4.2065604e-05
4.2686474e-05
4.4724243e-05
5.0726936e-05
6.7163135e-05
0.00010587333
0.00017451901
0.00026308403
0.00035596427
0.0004482053
0.00049569579
4.1159436e-05
4.1147367e-05
4.1131511e-05
4.1155759e-05
4.1357137e-05
4.2130176e-05
4.4551789e-05
5.1501907e-05
7.0022255e-05
0.0001118018
0.0001821746
0.00026968789
0.00036015924
0.00044995791
0.00049573755
4.039284e-05
4.0383173e-05
4.0375928e-05
4.0425336e-05
4.0694537e-05
4.1641323e-05
4.4496352e-05
5.2499369e-05
7.3234062e-05
0.00011797661
0.00018969026
0.00027597786
0.0003641149
0.00045161146
0.00049578915
3.9654963e-05
3.9648355e-05
3.9651641e-05
3.9730781e-05
4.0078323e-05
4.1222873e-05
4.4566031e-05
5.3733284e-05
7.6795467e-05
0.00012434896
0.00019703788
0.00028196938
0.00036785235
0.00045317754
0.00049585112
3.8944544e-05
3.8941738e-05
3.8957721e-05
3.9071722e-05
3.9509355e-05
4.0878379e-05
4.476983e-05
5.5217171e-05
8.0697839e-05
0.00013087001
0.00020419698
0.00028767848
0.00037139066
0.00045466608
0.00049592389
3.8260447e-05
3.8262283e-05
3.8293404e-05
3.8448018e-05
3.8988856e-05
4.0612024e-05
4.5117613e-05
5.6963568e-05
8.4926928e-05
0.00013749256
0.00021115368
0.00029312117
0.00037474694
0.00045608564
0.00049600778
3.7601653e-05
3.7609081e-05
3.7658086e-05
3.7859757e-05
3.851843e-05
4.0428652e-05
4.5620029e-05
5.8983444e-05
8.9463092e-05
0.00014417246
0.0002178995
0.00029831319
0.0003779366
0.00045744356
0.00049610301
3.6967262e-05
3.6981351e-05
3.7051327e-05
3.7307273e-05
3.8100084e-05
4.03338e-05
4.628838e-05
6.1285582e-05
9.4281844e-05
0.00015086965
0.00022443029
0.0003032697
0.00038097345
0.00045874619
0.00049620968
3.6356483e-05
3.6378439e-05
3.6472854e-05
3.6791149e-05
3.7736253e-05
4.0333719e-05
4.713445e-05
6.3875988e-05
9.9354667e-05
0.00015754881
0.00023074527
0.00030800524
0.0003838699
0.00045999903
0.00049632782
3.5768637e-05
3.5799814e-05
3.5922562e-05
3.6312237e-05
3.7429828e-05
4.0435398e-05
4.817026e-05
6.6757355e-05
0.00010465002
0.00016417961
0.00023684619
0.00031253355
0.00038663709
0.00046120682
0.00049645738
3.5203153e-05
3.5245078e-05
3.5400526e-05
3.587167e-05
3.7184185e-05
4.064656e-05
4.9407777e-05
6.9928647e-05
0.00011013448
0.00017073673
0.00024273671
0.00031686759
0.00038928503
0.00046237371
0.00049659825
3.4659571e-05
3.4713957e-05
3.4907005e-05
3.5470884e-05
3.7003216e-05
4.0975654e-05
5.0858553e-05
7.3384823e-05
0.00011577386
0.00017719949
0.00024842185
0.0003210195
0.00039182273
0.0004635033
0.00049675024
3.4137541e-05
3.4206315e-05
3.4442453e-05
3.5111633e-05
3.689136e-05
4.1431808e-05
5.2533325e-05
7.7116764e-05
0.00012153432
0.00018355155
0.00025390756
0.00032500061
0.0003942583
0.00046459877
0.00049691315
3.3636827e-05
3.3722154e-05
3.4007531e-05
3.4796016e-05
3.6853631e-05
4.2024758e-05
5.4441566e-05
8.1111387e-05
0.00012738327
0.0001897803
0.00025920044
0.00032882147
0.00039659907
0.00046566288
0.00049708671
3.3157312e-05
3.3261621e-05
3.3603121e-05
3.4526502e-05
3.6895651e-05
4.2764745e-05
5.6591037e-05
8.5351969e-05
0.00013329012
0.00019587637
0.0002643075
0.00033249188
0.00039885165
0.00046669809
0.00049727064
3.2699001e-05
3.2825019e-05
3.3230344e-05
3.4305957e-05
3.7023661e-05
4.3662353e-05
5.8987344e-05
8.9818642e-05
0.00013922683
0.00020183314
0.00026923591
0.00033602091
0.00040102205
0.00046770656
0.00049746465
3.2262029e-05
3.2412818e-05
3.2890574e-05
3.4137671e-05
3.7244543e-05
4.4728317e-05
6.1633541e-05
9.4489032e-05
0.00014516825
0.00020764625
0.00027399294
0.00033941699
0.00040311568
0.00046869022
0.00049766841
3.1846672e-05
3.2025663e-05
3.2585463e-05
3.402539e-05
3.7565811e-05
4.5973274e-05
6.4529814e-05
9.9338983e-05
0.0001510922
0.00021331317
0.00027858579
0.00034268791
0.00040513748
0.00046965077
0.00049788159
3.1453353e-05
3.1664392e-05
3.2316961e-05
3.3973346e-05
3.7995596e-05
4.7407475e-05
6.7673269e-05
0.00010434331
0.00015697949
0.0002188329
0.00028302153
0.00034584087
0.00040709192
0.00047058968
0.00049810386
3.1082657e-05
3.1330051e-05
3.2087341e-05
3.3986286e-05
3.8542603e-05
4.9040452e-05
7.1057853e-05
0.00010947653
0.00016281382
0.00022420566
0.00028730705
0.00034888261
0.00040898324
0.00047150443
0.00049833478
3.0735342e-05
3.1023913e-05
3.1899228e-05
3.4069503e-05
3.9216041e-05
5.0880671e-05
7.4674416e-05
0.00011471355
0.00016858151
0.00022943259
0.00029144902
0.00035181926
0.00041081467
0.00047239507
0.00049857391
3.0412362e-05
3.0747498e-05
3.1755625e-05
3.4228857e-05
4.0025519e-05
5.2935164e-05
7.8510907e-05
0.00012003019
0.00017427129
0.0002345156
0.00029545378
0.00035465641
0.00041258911
0.00047326295
0.00049882071
3.0114877e-05
3.0502598e-05
3.1659947e-05
3.4470788e-05
4.0980902e-05
5.520918e-05
8.2552698e-05
0.00012540363
0.00017987402
0.00023945715
0.0002993274
0.00035739919
0.00041430938
0.00047410989
0.00049907467
2.9844281e-05
3.0291301e-05
3.1616048e-05
3.4802329e-05
4.2092137e-05
5.7705866e-05
8.6783023e-05
0.00013081272
0.0001853824
0.00024426016
0.00030307572
0.00036005265
0.00041597751
0.00047493648
0.00049933531
2.9602222e-05
3.0116018e-05
3.1628257e-05
3.5231094e-05
4.3369028e-05
6.0426018e-05
9.1183471e-05
0.00013623819
0.00019079079
0.00024892784
0.00030670433
0.00036262128
0.00041759499
0.00047574363
0.00049960217
2.9390632e-05
2.9979518e-05
3.170141e-05
3.5765253e-05
4.4820978e-05
6.3367906e-05
9.5734527e-05
0.00014166271
0.00019609491
0.00025346365
0.00031021841
0.0003651089
0.00041916378
0.00047653274
0.00049987495
2.9211752e-05
2.9884957e-05
3.1840876e-05
3.6413481e-05
4.6456707e-05
6.6527195e-05
0.0001004161
0.0001470709
0.00020129166
0.00025787114
0.00031362281
0.00036751903
0.00042068624
0.00047730511
0.00050015336
2.9068173e-05
2.9835914e-05
3.2052586e-05
3.718488e-05
4.828394e-05
6.9896981e-05
0.000105208
0.00015244924
0.00020637894
0.00026215394
0.00031692219
0.00036985503
0.00042216442
0.00047806213
0.00050043718
2.8962865e-05
2.9836432e-05
3.2343051e-05
3.8088872e-05
5.0309098e-05
7.3467928e-05
0.00011009041
0.00015778601
0.00021135554
0.00026631585
0.00032012127
0.00037211983
0.00042359913
0.00047880561
0.00050072627
2.8899218e-05
2.9891048e-05
3.2719372e-05
3.9135048e-05
5.2536999e-05
7.7228507e-05
0.00011504422
0.00016307115
0.00021622092
0.00027036053
0.00032322392
0.00037431561
0.00042499296
0.00047953646
0.00050102047
2.8881089e-05
3.0004839e-05
3.3189236e-05
4.033299e-05
5.4970597e-05
8.1165309e-05
0.00012005129
0.00016829608
0.0002209751
0.00027429152
0.00032623367
0.00037644512
0.00042634818
0.00048025523
0.0005013196
2.8912838e-05
3.0183454e-05
3.3760896e-05
4.1692052e-05
5.7610762e-05
8.5263424e-05
0.00012509468
0.00017345355
0.00022561855
0.0002781122
0.00032915392
0.00037851123
0.00042766686
0.00048096234
0.00050162344
2.8999385e-05
3.043315e-05
3.4443128e-05
4.3221107e-05
6.0456144e-05
8.9506843e-05
0.00013015875
0.00017853755
0.00023015227
0.00028182647
0.00033198843
0.00038051456
0.00042895138
0.00048165851
0.00050193179
2.9146247e-05
3.076082e-05
3.5245157e-05
4.4928272e-05
6.3503106e-05
9.3878865e-05
0.00013522921
0.00018354314
0.00023457747
0.00028543745
0.00033473928
0.00038245835
0.00043020341
0.00048234437
0.00050224443
2.9359593e-05
3.1174013e-05
3.6176558e-05
4.6820625e-05
6.6745757e-05
9.8362485e-05
0.00014029315
0.0001884663
0.0002388955
0.00028894796
0.00033740912
0.00038434552
0.00043142431
0.00048302039
0.00050256119
2.9646283e-05
3.1680941e-05
3.7247116e-05
4.8903913e-05
7.0176063e-05
0.00010294075
0.00014533895
0.00019330377
0.0002431078
0.00029236074
0.00034000084
0.00038617868
0.00043261526
0.0004836869
0.00050288185
3.0013912e-05
3.2290469e-05
3.8466651e-05
5.1182288e-05
7.3784043e-05
0.00010759703
0.00015035633
0.00019805314
0.00024721656
0.00029567951
0.00034251496
0.00038796053
0.0004337776
0.00048434422
0.00050320621
3.0470833e-05
3.3012082e-05
3.9844803e-05
5.3658071e-05
7.7558028e-05
0.00011231533
0.00015533616
0.00020271255
0.00025122334
0.00029890572
0.00034495507
0.00038969319
0.00043491256
0.00048499265
0.00050353407
3.1026183e-05
3.3855826e-05
4.1390787e-05
5.6331579e-05
8.1484963e-05
0.00011708035
0.00016027041
0.00020728048
0.00025512959
0.00030204157
0.00034732434
0.0003913785
0.00043602116
0.00048563247
0.00050386521
3.1689876e-05
3.4832208e-05
4.3113117e-05
5.9201012e-05
8.5550741e-05
0.00012187774
0.00016515207
0.00021175603
0.00025893728
0.00030508874
0.00034962561
0.00039301821
0.00043710433
0.00048626388
0.00050419944
3.2472574e-05
3.5952063e-05
4.5019313e-05
6.2262418e-05
8.9740535e-05
0.00012669409
0.00016997511
0.00021613883
0.00026264851
0.00030804843
0.00035186155
0.00039461407
0.00043816291
0.00048688705
0.00050453655
3.3385631e-05
3.722637e-05
4.7115606e-05
6.5509737e-05
9.4039113e-05
0.00013151701
0.00017473424
0.00022042826
0.0002662639
0.00031092397
0.00035403444
0.00039616765
0.00043919769
0.00048750212
0.00050487635
3.4440982e-05
3.8666029e-05
4.9406661e-05
6.8934921e-05
9.8431118e-05
0.00013633506
0.00017942476
0.00022462381
0.00026978479
0.00031371828
0.00035614636
0.00039768035
0.00044020938
0.00048810923
0.00050521864
3.565099e-05
4.0281581e-05
5.1895327e-05
7.2528127e-05
0.00010290135
0.00014113792
0.00018404318
0.00022872687
0.00027321047
0.00031643402
0.00035819936
0.00039915347
0.00044119863
0.00048870845
0.00050556322
3.7028229e-05
4.2082899e-05
5.4582437e-05
7.627795e-05
0.00010743496
0.00014591612
0.00018858596
0.00023273618
0.00027654355
0.00031907354
0.00036019535
0.00040058824
0.00044216601
0.00048929986
0.00050590989
3.8585199e-05
4.4078843e-05
5.7466674e-05
8.0171694e-05
0.00011201754
0.00015066094
0.00019304976
0.00023665127
0.00027978651
0.00032163898
0.00036213602
0.00040198575
0.00044311204
0.00048988351
0.00050625846
4.0333974e-05
4.6276899e-05
6.0544513e-05
8.4195683e-05
0.00011663544
0.00015536501
0.00019743343
0.00024047004
0.00028294149
0.00032413242
0.00036402298
0.000403347
0.00044403719
0.00049045942
0.00050660875
4.228579e-05
4.8682823e-05
6.3810236e-05
8.8335532e-05
0.0001212756
0.00016002114
0.00020173345
0.00024419357
0.00028601044
0.00032655581
0.00036585769
0.00040467292
0.00044494188
0.00049102759
0.00050696055
4.4450574e-05
5.1300312e-05
6.7256024e-05
9.2576411e-05
0.0001259257
0.0001646228
0.00020594657
0.00024782319
0.00028899516
0.0003289109
0.00036764151
0.00040596434
0.00044582647
0.00049158801
0.00050731369
4.6836451e-05
5.4130715e-05
7.0872129e-05
9.6903395e-05
0.00013057454
0.00016916548
0.00021006867
0.00025135992
0.00029189738
0.00033119935
0.00036937566
0.00040722202
0.00044669128
0.00049214066
0.00050766797
4.944925e-05
5.7172815e-05
7.4647068e-05
0.00010130149
0.00013521102
0.00017364211
0.00021409923
0.00025480475
0.00029471872
0.00033342266
0.00037106127
0.00040844663
0.00044753657
0.00049268547
0.00050802321
5.2292039e-05
6.042271e-05
7.8567951e-05
0.00010575626
0.00013982632
0.00017804511
0.00021803751
0.00025815862
0.00029746066
0.00033558222
0.00037269935
0.00040963876
0.00044836257
0.00049322237
0.00050837922
5.5364745e-05
6.3873753e-05
8.2620648e-05
0.00011025323
0.00014440994
0.00018236978
0.00022188279
0.00026142244
0.00030012456
0.00033767927
0.00037429083
0.00041079895
0.00044916947
0.00049375129
0.00050873581
5.8663901e-05
6.7516683e-05
8.67904e-05
0.00011477971
0.00014895017
0.00018661249
0.00022563446
0.00026459701
0.00030271166
0.00033971496
0.00037583652
0.00041192766
0.00044995741
0.00049427211
0.0005090928
6.2182518e-05
7.1339754e-05
9.1061796e-05
0.000119321
0.00015343812
0.00019076983
0.00022929197
0.0002676831
0.00030522307
0.00034169029
0.00037733714
0.00041302527
0.00045072648
0.00049478471
0.00050944999
6.5910199e-05
7.532919e-05
9.5419592e-05
0.00012386172
0.00015786616
0.00019483869
0.0002328548
0.00027068136
0.00030765978
0.00034360614
0.00037879331
0.00041409212
0.00045147675
0.00049528895
0.00050980721
6.9833686e-05
7.9469701e-05
9.9845308e-05
0.00012838914
0.00016222726
0.00019881621
0.00023632245
0.00027359234
0.00031002264
0.00034546331
0.00038020556
0.00041512845
0.00045220823
0.00049578467
0.00051016425
7.3936169e-05
8.3742437e-05
0.00010432175
0.00013289127
0.00016651492
0.00020269974
0.00023969444
0.00027641653
0.00031231241
0.00034726244
0.00038157432
0.00041613446
0.00045292091
0.00049627168
0.00051052093
7.8197591e-05
8.8127405e-05
0.000108832
0.00013735687
0.00017072317
0.00020648684
0.00024297025
0.0002791543
0.00031452968
0.00034900407
0.00038289996
0.00041711028
0.00045361471
0.00049674979
0.00051087705
8.2595724e-05
9.2603749e-05
0.0001133596
0.00014177543
0.0001748465
0.00021017526
0.00024614938
0.0002818059
0.00031667496
0.00035068865
0.00038418272
0.00041805597
0.00045428954
0.00049721877
0.00051123239
8.7106835e-05
9.7150175e-05
0.00011788866
0.00014613718
0.00017887988
0.00021376287
0.00024923131
0.00028437151
0.00031874862
0.00035231649
0.00038542276
0.00041897151
0.00045494525
0.00049767838
0.00051158677
9.1706344e-05
0.00010174536
0.00012240396
0.00015043307
0.00018281869
0.00021724776
0.0002522155
0.00028685122
0.00032075091
0.0003538878
0.00038662018
0.00041985686
0.00045558164
0.00049812836
0.00051193995
9.6369463e-05
0.00010636831
0.00012689107
0.00015465475
0.00018665874
0.00022062814
0.00025510141
0.00028924504
0.000322682
0.00035540271
0.00038777497
0.00042071187
0.00045619849
0.00049856841
0.00051229172
0.00010107175
0.00011099871
0.00013133641
0.00015879458
0.00019039626
0.0002239024
0.0002578885
0.00029155287
0.00032454194
0.00035686123
0.00038888705
0.00042153636
0.00045679552
0.00049899822
0.00051264185
0.0001057896
0.0001156172
0.00013572732
0.0001628456
0.00019402788
0.00022706908
0.00026057626
0.00029377461
0.00032633069
0.0003582633
0.00038995625
0.00042233008
0.00045737243
0.00049941745
0.00051299009
0.00011050063
0.00012020558
0.00014005211
0.00016680154
0.00019755063
0.00023012693
0.00026316422
0.00029591008
0.00032804816
0.00035960875
0.00039098235
0.00042309272
0.00045792885
0.00049982575
0.0005133362
0.00011518399
0.00012474698
0.00014430009
0.00017065677
0.00020096192
0.00023307488
0.00026565196
0.00029795907
0.00032969417
0.00036089737
0.00039196506
0.00042382392
0.0004584644
0.00050022272
0.00051367991
0.00011982054
0.00012922601
0.00014846159
0.00017440635
0.00020425958
0.00023591204
0.00026803911
0.0002999214
0.00033126851
0.00036212889
0.00039290401
0.00042452328
0.00045897864
0.00050060797
0.00051402096
0.00012439302
0.0001336288
0.00015252799
0.00017804597
0.00020744181
0.00023863778
0.00027032544
0.00030179687
0.00033277095
0.00036330297
0.00039379881
0.00042519035
0.00045947112
0.00050098106
0.00051435904
0.00012888607
0.00013794301
0.00015649169
0.00018157194
0.00021050719
0.00024125165
0.00027251078
0.00030358534
0.00033420124
0.00036441927
0.00039464902
0.00042582464
0.00045994136
0.00050134155
0.00051469388
0.00013328624
0.00014215788
0.0001603461
0.00018498119
0.00021345469
0.00024375344
0.00027459513
0.0003052867
0.00033555914
0.00036547742
0.00039545418
0.00042642565
0.00046038884
0.00050168898
0.00051502515
0.00013758194
0.00014626414
0.00016408562
0.00018827124
0.00021628363
0.00024614319
0.0002765786
0.00030690096
0.00033684444
0.00036647704
0.00039621383
0.00042699285
0.00046081305
0.00050202288
0.00051535255
0.00014176336
0.00015025394
0.00016770557
0.00019144017
0.00021899369
0.00024842117
0.00027846149
0.00030842817
0.000338057
0.0003674178
0.00039692747
0.00042752572
0.00046121345
0.00050234277
0.00051567574
0.00014582239
0.00015412084
0.0001712022
0.0001944866
0.00022158489
0.00025058789
0.00028024423
0.00030986854
0.0003391967
0.00036829938
0.00039759467
0.00042802372
0.00046158952
0.00050264819
0.00051599438
0.00014975244
0.00015785962
0.00017457259
0.00019740967
0.0002240576
0.00025264407
0.00028192746
0.00031122237
0.00034026356
0.00036912151
0.00039821499
0.00042848635
0.00046194074
0.00050293864
0.00051630812
0.00015354835
0.00016146627
0.00017781459
0.00020020898
0.00022641246
0.00025459069
0.00028351196
0.0003124901
0.00034125765
0.00036988401
0.00039878805
0.00042891313
0.0004622666
0.00050321367
0.00051661663
0.00015720628
0.00016493784
0.00018092681
0.00020288459
0.00022865043
0.00025642892
0.00028499872
0.00031367233
0.00034217918
0.00037058676
0.00039931352
0.00042930362
0.00046256662
0.00050347284
0.00051691953
0.0001607235
0.00016827232
0.0001839085
0.00020543698
0.00023077272
0.00025816016
0.00028638888
0.00031476981
0.00034302847
0.00037122975
0.00039979117
0.00042965744
0.00046284039
0.00050371572
0.00051721647
0.00016409835
0.00017146862
0.00018675952
0.00020786698
0.0002327808
0.000259786
0.00028768378
0.00031578342
0.00034380598
0.00037181307
0.00040022081
0.00042997425
0.00046308749
0.00050394192
0.0005175071
0.00016733005
0.00017452636
0.00018948027
0.0002101758
0.00023467637
0.00026130819
0.0002888849
0.00031671421
0.0003445123
0.00037233693
0.00040060238
0.00043025382
0.00046330761
0.00050415109
0.00051779106
0.00017041863
0.00017744588
0.00019207166
0.00021236492
0.00023646132
0.00026272867
0.0002899939
0.0003175634
0.00034514817
0.00037280166
0.00040093592
0.00043049598
0.00046350048
0.00050434291
0.00051806801
0.00017336481
0.0001802281
0.00019453498
0.00021443613
0.00023813773
0.00026404953
0.00029101257
0.00031833233
0.00034571446
0.00037320773
0.00040122156
0.00043070067
0.0004636659
0.00050451714
0.00051833761
0.00017616987
0.00018287444
0.00019687194
0.00021639144
0.00023970786
0.00026527299
0.00029194286
0.0003190225
0.00034621221
0.00037355573
0.00040145958
0.00043086792
0.00046380376
0.00050467355
0.00051859954
0.00017883564
0.00018538677
0.00019908455
0.0002182331
0.00024117409
0.00026640139
0.00029278681
0.00031963553
0.00034664257
0.00037384641
0.00040165036
0.00043099787
0.00046391404
0.00050481201
0.0005188535
0.00018136435
0.00018776734
0.00020117511
0.00021996351
0.00024253894
0.00026743718
0.00029354661
0.0003201732
0.00034700683
0.00037408062
0.00040179443
0.00043109077
0.00046399679
0.00050493245
0.0005190992
0.00018375858
0.0001900187
0.00020314616
0.00022158527
0.00024380503
0.00026838289
0.00029422452
0.00032063738
0.00034730645
0.00037425939
0.00040189244
0.00043114699
0.00046405218
0.00050503483
0.00051933636
0.00018602123
0.00019214368
0.00020500044
0.00022310107
0.00024497507
0.00026924113
0.00029482293
0.00032103005
0.00034754295
0.00037438384
0.00040194514
0.00043116701
0.00046408045
0.00050511923
0.00051956476
0.00018815542
0.00019414529
0.00020674083
0.00022451374
0.00024605184
0.0002700146
0.00029534426
0.00032135331
0.00034771803
0.00037445523
0.00040195344
0.00043115144
0.00046408197
0.00050518577
0.00051978417
0.00019016445
0.00019602675
0.00020837038
0.0002258262
0.00024703818
0.000270706
0.00029579102
0.00032160932
0.00034783345
0.00037447494
0.00040191836
0.00043110097
0.00046405718
0.00050523463
0.0005199944
0.00019205181
0.00019779139
0.00020989223
0.00022704142
0.00024793696
0.00027131811
0.00029616576
0.00032180033
0.00034789109
0.00037444447
0.00040184103
0.00043101642
0.00046400661
0.0005052661
0.0005201953
0.00019382106
0.00019944266
0.00021130959
0.00022816244
0.00024875111
0.00027185371
0.00029647109
0.00032192864
0.00034789291
0.00037436539
0.00040172269
0.00043089872
0.00046393091
0.00050528049
0.00052038673
0.00019547587
0.00020098406
0.00021262575
0.00022919233
0.00024948356
0.00027231563
0.00029670963
0.00032199663
0.00034784094
0.00037423941
0.00040156468
0.00043074889
0.00046383077
0.0005052782
0.0005205686
0.00019701996
0.00020241917
0.00021384402
0.00023013418
0.00025013724
0.00027270667
0.00029688404
0.0003220067
0.00034773729
0.00037406828
0.00040136843
0.00043056803
0.00046370701
0.00050525969
0.00052074083
0.00019845706
0.00020375159
0.00021496775
0.0002309911
0.00025071512
0.00027302966
0.00029699696
0.0003219613
0.00034758413
0.00037385385
0.00040113546
0.00043035735
0.0004635605
0.00050522548
0.00052090341
0.00019979094
0.00020498492
0.0002160003
0.00023176621
0.00025122011
0.0002732874
0.00029705109
0.00032186289
0.00034738364
0.00037359803
0.00040086736
0.00043011811
0.00046339217
0.00050517611
0.00052105632
0.00020102536
0.00020612278
0.000216945
0.0002324626
0.00025165516
0.00027348271
0.00029704907
0.00032171394
0.00034713808
0.00037330278
0.00040056579
0.00042985167
0.00046320302
0.00050511222
0.00052119959
0.00020216406
0.00020716875
0.00021780521
0.00023308336
0.00025202316
0.00027361834
0.00029699356
0.00032151696
0.00034684972