/*--------------------------------*- C++ -*----------------------------------*\
| =========                 |                                                 |
| \\      /  F ield         | OpenFOAM: The Open Source CFD Toolbox           |
|  \\    /   O peration     | Version:  2506                                  |
|   \\  /    A nd           | Website:  www.openfoam.com                      |
|    \\/     M anipulation  |                                                 |
\*---------------------------------------------------------------------------*/
FoamFile
{
    version     2.0;
    format      ascii;
    arch        "LSB;label=32;scalar=64";
    class       volScalarField;
    location    "1000/water";
    object      nut;
}
// * * * * * * * * * * * * * * * * * * * * * * * * * * * * * * * * * * * * * //

dimensions      [0 2 -1 0 0 0 0];

internalField   nonuniform List<scalar> 
6000
(
4.1367308e-05
4.1367285e-05
4.1367292e-05
4.1367317e-05
4.136735e-05
4.1367394e-05
4.1367445e-05
4.1367477e-05
4.1367269e-05
4.1365028e-05
4.1345959e-05
4.1185428e-05
3.984402e-05
3.0619188e-05
1.3489073e-05
4.0862094e-05
4.0862089e-05
4.0862128e-05
4.0862206e-05
4.086231e-05
4.0862441e-05
4.0862573e-05
4.0862525e-05
4.0861044e-05
4.0849566e-05
4.0769767e-05
4.0233638e-05
3.6930279e-05
2.3809326e-05
1.5168915e-05
4.0408426e-05
4.0408431e-05
4.0408496e-05
4.0408619e-05
4.040878e-05
4.0408965e-05
4.0409066e-05
4.0408421e-05
4.0403049e-05
4.0369314e-05
4.0169922e-05
3.9053519e-05
3.3674827e-05
1.9530254e-05
1.6389796e-05
3.9998212e-05
3.9998216e-05
3.9998298e-05
3.9998456e-05
3.9998657e-05
3.9998846e-05
3.9998699e-05
3.999645e-05
3.9982628e-05
3.9907469e-05
3.9519874e-05
3.7665236e-05
3.0439418e-05
1.6813321e-05
1.7227565e-05
3.9625122e-05
3.9625133e-05
3.9625231e-05
3.9625419e-05
3.9625638e-05
3.9625739e-05
3.9624947e-05
3.9619415e-05
3.959045e-05
3.9450123e-05
3.8807695e-05
3.6131535e-05
2.7477322e-05
1.5090355e-05
1.7763765e-05
3.9283984e-05
3.9284007e-05
3.9284119e-05
3.9284324e-05
3.9284521e-05
3.9284369e-05
3.9282279e-05
3.9270986e-05
3.9218236e-05
3.8986823e-05
3.8033859e-05
3.4524992e-05
2.4897642e-05
1.400968e-05
1.8072537e-05
3.8970512e-05
3.8970546e-05
3.8970668e-05
3.8970871e-05
3.8970973e-05
3.8970306e-05
3.8965958e-05
3.8945612e-05
3.8858945e-05
3.8510812e-05
3.7207229e-05
3.2908964e-05
2.2716803e-05
1.3360893e-05
1.8215906e-05
3.8681158e-05
3.8681199e-05
3.8681323e-05
3.8681493e-05
3.8681392e-05
3.8679823e-05
3.8671916e-05
3.8638477e-05
3.8506919e-05
3.801881e-05
3.6341286e-05
3.1331232e-05
2.0908463e-05
1.30184e-05
1.8243034e-05
3.841296e-05
3.8413006e-05
3.8413119e-05
3.8413209e-05
3.8412743e-05
3.8409742e-05
3.8396631e-05
3.8345462e-05
3.8157885e-05
3.7510375e-05
3.5450851e-05
2.9823717e-05
1.9431977e-05
1.2906145e-05
1.8191421e-05
3.816343e-05
3.8163474e-05
3.8163556e-05
3.8163497e-05
3.8162446e-05
3.8157327e-05
3.8137042e-05
3.8063106e-05
3.7808869e-05
3.6987081e-05
3.454982e-05
2.8405299e-05
1.8246291e-05
1.2977275e-05
1.8088864e-05
3.7930457e-05
3.7930491e-05
3.7930513e-05
3.793021e-05
3.7928279e-05
3.7920197e-05
3.7890497e-05
3.7788579e-05
3.7458031e-05
3.6451747e-05
3.3649968e-05
2.7085594e-05
1.7315649e-05
1.3202296e-05
1.7955551e-05
3.7712242e-05
3.7712253e-05
3.7712173e-05
3.7711499e-05
3.7708322e-05
3.7696279e-05
3.7654711e-05
3.7519641e-05
3.7104472e-05
3.5907781e-05
3.2760531e-05
2.58684e-05
1.6611172e-05
1.3561911e-05
1.7805936e-05
3.7507239e-05
3.7507212e-05
3.7506973e-05
3.7505765e-05
3.7500895e-05
3.7483757e-05
3.7427744e-05
3.725459e-05
3.6748014e-05
3.5358688e-05
3.188827e-05
2.4754408e-05
1.6110613e-05
1.4042468e-05
1.7650267e-05
3.7314115e-05
3.7314026e-05
3.7313557e-05
3.7311613e-05
3.7304527e-05
3.7281048e-05
3.7207963e-05
3.6992195e-05
3.6389e-05
3.4807726e-05
3.1037799e-05
2.3743174e-05
1.5797412e-05
1.4632945e-05
1.7495753e-05
3.7131708e-05
3.713153e-05
3.7130739e-05
3.7127817e-05
3.7117921e-05
3.7086772e-05
3.6994026e-05
3.6731629e-05
3.6028109e-05
3.4257704e-05
3.0212055e-05
2.2834479e-05
1.5659519e-05
1.5322866e-05
1.7347423e-05
3.6959006e-05
3.6958703e-05
3.6957478e-05
3.6953298e-05
3.6939934e-05
3.6899735e-05
3.6784847e-05
3.64724e-05
3.5666203e-05
3.3710866e-05
2.9412801e-05
2.2029191e-05
1.5688155e-05
1.6100896e-05
1.7208725e-05
3.6795116e-05
3.6794645e-05
3.6792855e-05
3.6787094e-05
3.6769555e-05
3.6718912e-05
3.6579574e-05
3.6214282e-05
3.5304204e-05
3.3168861e-05
2.8641157e-05
2.1329739e-05
1.5876569e-05
1.6954009e-05
1.7081944e-05
3.6639251e-05
3.6638559e-05
3.6636051e-05
3.6628355e-05
3.6605895e-05
3.6543431e-05
3.637756e-05
3.5957252e-05
3.4942996e-05
3.2632763e-05
2.789813e-05
2.0740252e-05
1.6218811e-05
1.786721e-05
1.6968459e-05
3.6490711e-05
3.6489738e-05
3.6486338e-05
3.6476321e-05
3.6448171e-05
3.6372563e-05
3.6178336e-05
3.5701433e-05
3.458336e-05
3.2103134e-05
2.7185145e-05
2.0266398e-05
1.6708561e-05
1.8823777e-05
1.6868922e-05
3.6348869e-05
3.6347546e-05
3.6343063e-05
3.6330312e-05
3.62957e-05
3.6205706e-05
3.5981587e-05
3.5447046e-05
3.4225914e-05
3.1580129e-05
2.6504571e-05
1.9914969e-05
1.7338099e-05
1.9805967e-05
1.6783376e-05
3.6213165e-05
3.6211415e-05
3.6205638e-05
3.6189726e-05
3.6147887e-05
3.6042373e-05
3.5787125e-05
3.5194368e-05
3.3871092e-05
3.1063631e-05
2.5860194e-05
1.9693245e-05
1.8097487e-05
2.0796033e-05
1.6711346e-05
3.6083093e-05
3.6080831e-05
3.6073537e-05
3.6054024e-05
3.6004223e-05
3.5882185e-05
3.5594869e-05
3.4943693e-05
3.3519118e-05
3.0553441e-05
2.5257605e-05
1.96082e-05
1.8974102e-05
2.1777346e-05
1.6651939e-05
3.5958194e-05
3.5955329e-05
3.5946284e-05
3.592273e-05
3.5864274e-05
3.5724854e-05
3.5404824e-05
3.4695304e-05
3.3170007e-05
3.0049498e-05
2.4704419e-05
1.9665646e-05
1.9952579e-05
2.2735414e-05
1.660395e-05
3.5838054e-05
3.5834489e-05
3.582345e-05
3.5795422e-05
3.5727676e-05
3.5570179e-05
3.521706e-05
3.444945e-05
3.2823581e-05
2.9552162e-05
2.4210265e-05
1.9869402e-05
2.1015193e-05
2.3658589e-05
1.6565971e-05
3.5722292e-05
3.5717927e-05
3.5704651e-05
3.5671733e-05
3.5594133e-05
3.5418031e-05
3.50317e-05
3.4206321e-05
3.2479493e-05
2.9062524e-05
2.3786503e-05
2.022057e-05
2.2142641e-05
2.4538397e-05
1.6536511e-05
3.5610563e-05
3.5605296e-05
3.558954e-05
3.5551342e-05
3.5463408e-05
3.5268352e-05
3.48489e-05
3.3966035e-05
3.2137286e-05
2.858275e-05
2.3445668e-05
2.0717024e-05
2.3315071e-05
2.5369467e-05
1.6514097e-05
3.5502551e-05
3.549628e-05
3.5477808e-05
3.5433974e-05
3.5335321e-05
3.5121137e-05
3.466884e-05
3.3728621e-05
3.1796463e-05
2.8116417e-05
2.3200675e-05
2.1353141e-05
2.4513224e-05
2.6149157e-05
1.6497357e-05
3.5397967e-05
3.539059e-05
3.536918e-05
3.5319398e-05
3.5209747e-05
3.4976437e-05
3.4491706e-05
3.3494016e-05
3.14566e-05
2.7668794e-05
2.3063903e-05
2.2119832e-05
2.5719464e-05
2.6877011e-05
1.6485071e-05
3.5296546e-05
3.5287966e-05
3.5263414e-05
3.5207424e-05
3.5086609e-05
3.4834344e-05
3.4317681e-05
3.3262058e-05
3.1117487e-05
2.7247026e-05
2.3046253e-05
2.3004861e-05
2.6918581e-05
2.7554165e-05
1.6476201e-05
3.5198047e-05
3.5188175e-05
3.5160297e-05
3.5097901e-05
3.4965875e-05
3.4694991e-05
3.4146934e-05
3.3032492e-05
3.0779305e-05
2.6860148e-05
2.3156314e-05
2.3993437e-05
2.8098247e-05
2.8182808e-05
1.6469894e-05
3.5102251e-05
3.5091004e-05
3.5059649e-05
3.4990715e-05
3.4847558e-05
3.4558539e-05
3.3979609e-05
3.2804987e-05
3.0442844e-05
2.6518901e-05
2.3399716e-05
2.5069007e-05
2.9249138e-05
2.8765761e-05
1.6465472e-05
3.5008959e-05
3.4996268e-05
3.4961317e-05
3.488579e-05
3.4731711e-05
3.4425177e-05
3.3815813e-05
3.2579164e-05
3.0109732e-05
2.6235323e-05
2.3778716e-05
2.6214168e-05
3.0364755e-05
2.9306158e-05
1.646241e-05
3.4917993e-05
3.4903801e-05
3.4865175e-05
3.4783085e-05
3.4618425e-05
3.4295113e-05
3.3655609e-05
3.235464e-05
2.9782687e-05
2.6022142e-05
2.4292059e-05
2.7411591e-05
3.1441033e-05
2.9807247e-05
1.6460314e-05
3.4829195e-05
3.4813462e-05
3.4771128e-05
3.4682592e-05
3.4507829e-05
3.416857e-05
3.3499011e-05
3.2131095e-05
2.9465731e-05
2.589204e-05
2.4935073e-05
2.8644858e-05
3.2475855e-05
3.0272255e-05
1.6458891e-05
3.4742423e-05
3.4725129e-05
3.4679107e-05
3.4584339e-05
3.4400083e-05
3.4045774e-05
3.3345975e-05
3.1908364e-05
2.9164362e-05
2.5856856e-05
2.5699991e-05
2.9899124e-05
3.3468557e-05
3.0704313e-05
1.6457936e-05
3.465756e-05
3.4638706e-05
3.4589068e-05
3.4488387e-05
3.4295378e-05
3.3926957e-05
3.3196403e-05
3.1686556e-05
2.8885627e-05
2.5926837e-05
2.6576456e-05
3.1161548e-05
3.4419484e-05
3.1106401e-05
1.6457305e-05
3.4574503e-05
3.4554114e-05
3.4500999e-05
3.4394828e-05
3.4193938e-05
3.381234e-05
3.3050148e-05
3.1466195e-05
2.8638063e-05
2.6110008e-05
2.7552147e-05
3.2421502e-05
3.5329635e-05
3.1481314e-05
1.6456902e-05
3.4493171e-05
3.4471301e-05
3.4414911e-05
3.4303789e-05
3.409601e-05
3.3702133e-05
3.2907027e-05
3.1248389e-05
2.8431492e-05
2.6411716e-05
2.8613482e-05
3.3670554e-05
3.6200409e-05
3.1831643e-05
1.6456669e-05
3.4413502e-05
3.4390234e-05
3.4330848e-05
3.4215429e-05
3.4001867e-05
3.3596524e-05
3.2766849e-05
3.1035013e-05
2.8276656e-05
2.6834391e-05
2.9746331e-05
3.4902297e-05
3.703343e-05
3.2159762e-05
1.6456572e-05
3.4335456e-05
3.4310905e-05
3.4248878e-05
3.4129939e-05
3.3911801e-05
3.3495676e-05
3.2629453e-05
3.0828885e-05
2.818473e-05
2.73775e-05
3.0936679e-05
3.6112068e-05
3.7830438e-05
3.2467823e-05
1.6456596e-05
3.4259011e-05
3.423333e-05
3.4169102e-05
3.4047543e-05
3.3826124e-05
3.3399718e-05
3.2494766e-05
3.0633922e-05
2.8166732e-05
2.8037692e-05
3.2171192e-05
3.7296636e-05
3.8593222e-05
3.2757762e-05
1.6456739e-05
3.4184168e-05
3.4157548e-05
3.409165e-05
3.3968498e-05
3.3745158e-05
3.3308744e-05
3.236288e-05
3.0455255e-05
2.8232926e-05
2.8809106e-05
3.3437648e-05
3.8453879e-05
3.9323576e-05
3.3031311e-05
1.6457005e-05
3.4110952e-05
3.4083626e-05
3.4016682e-05
3.3893092e-05
3.3669236e-05
3.3222814e-05
3.2234152e-05
3.0299253e-05
2.8392246e-05
2.9683789e-05
3.4725212e-05
3.9582513e-05
4.0023269e-05
3.3290008e-05
1.6457402e-05
3.4039411e-05
3.4011657e-05
3.3944392e-05
3.3821645e-05
3.3598692e-05
3.3141955e-05
3.210932e-05
3.0173466e-05
2.8651821e-05
3.0652195e-05
3.6024571e-05
4.0681867e-05
4.0694026e-05
3.3535219e-05
1.6457942e-05
3.3969616e-05
3.3941763e-05
3.3875008e-05
3.3754507e-05
3.3533859e-05
3.306618e-05
3.1989642e-05
3.0086446e-05
2.9016626e-05
3.1703718e-05
3.7327934e-05
4.1751711e-05
4.1337507e-05
3.3768155e-05
1.6458635e-05
3.3901667e-05
3.3874095e-05
3.3808792e-05
3.369206e-05
3.3475059e-05
3.2995507e-05
3.187704e-05
3.0047454e-05
2.9489292e-05
3.2827218e-05
3.8628937e-05
4.2792133e-05
4.1955298e-05
3.3989887e-05
1.6459492e-05
3.3835691e-05
3.3808835e-05
3.3746042e-05
3.3634709e-05
3.3422602e-05
3.2929991e-05
3.1774238e-05
3.0066081e-05
3.007006e-05
3.4011504e-05
3.9922488e-05
4.3803457e-05
4.2548901e-05
3.4201364e-05
1.6460521e-05
3.3771846e-05
3.3746203e-05
3.3687095e-05
3.358289e-05
3.3376778e-05
3.2869781e-05
3.1684886e-05
3.0151793e-05
3.0756886e-05
3.5245743e-05
4.1204583e-05
4.4786178e-05
4.3119728e-05
3.4403428e-05
1.6461728e-05
3.3710322e-05
3.3686449e-05
3.3632325e-05
3.3537056e-05
3.3337853e-05
3.281518e-05
3.1613639e-05
3.0313468e-05
3.154566e-05
3.6519779e-05
4.2472112e-05
4.5740919e-05
4.3669102e-05
3.4596827e-05
1.6463121e-05
3.3651343e-05
3.3629867e-05
3.3582146e-05
3.3497683e-05
3.3306071e-05
3.2766736e-05
3.1566177e-05
3.0558945e-05
3.2430519e-05
3.782435e-05
4.3722695e-05
4.6668397e-05
4.4198255e-05
3.4782225e-05
1.6464701e-05
3.359517e-05
3.3576787e-05
3.3537014e-05
3.3465257e-05
3.328166e-05
3.2725339e-05
3.1549148e-05
3.0894638e-05
3.3404215e-05
3.9151206e-05
4.4954529e-05
4.7569394e-05
4.4708338e-05
3.4960217e-05
1.6466471e-05
3.3542106e-05
3.3527584e-05
3.3497423e-05
3.3440275e-05
3.3264838e-05
3.2692337e-05
3.1570024e-05
3.1325252e-05
3.4458517e-05
4.0493151e-05
4.6166274e-05
4.8444732e-05
4.5200419e-05
3.5131333e-05
1.6468431e-05
3.3492497e-05
3.3482682e-05
3.346391e-05
3.3423238e-05
3.3255838e-05
3.2669662e-05
3.163687e-05
3.1853602e-05
3.5584607e-05
4.1844008e-05
4.7356958e-05
4.9295261e-05
4.5675492e-05
3.5296047e-05
1.647058e-05
3.3446735e-05
3.3442548e-05
3.3437051e-05
3.3414644e-05
3.3254937e-05
3.2659939e-05
3.1758037e-05
3.2480556e-05
3.6773448e-05
4.3198545e-05
4.8525908e-05
5.0121832e-05
4.6134479e-05
3.5454787e-05
1.6472917e-05
3.3405264e-05
3.3407707e-05
3.3417461e-05
3.3414983e-05
3.3262501e-05
3.2666593e-05
3.1941803e-05
3.3205088e-05
3.8016104e-05
4.4552374e-05
4.9672691e-05
5.0925297e-05
4.6578238e-05
3.5607938e-05
1.6475438e-05
3.3368581e-05
3.3378733e-05
3.3405791e-05
3.3424736e-05
3.3279045e-05
3.2693911e-05
3.2195996e-05
3.4024423e-05
3.9303999e-05
4.5901845e-05
5.0797073e-05
5.1706492e-05
4.7007565e-05
3.575585e-05
1.6478139e-05
3.3337244e-05
3.3356261e-05
3.3402726e-05
3.3444374e-05
3.3305313e-05
3.2747055e-05
3.2527621e-05
3.4934264e-05
4.06291e-05
4.724393e-05
5.1898977e-05
5.2466234e-05
4.7423201e-05
3.5898837e-05
1.6481016e-05
3.3311875e-05
3.3340983e-05
3.3408981e-05
3.347436e-05
3.3342362e-05
3.2832015e-05
3.2942544e-05
3.5929072e-05
4.1984043e-05
4.8576137e-05
5.2978461e-05
5.3205316e-05
4.7825835e-05
3.6037186e-05
1.6484065e-05
3.3293163e-05
3.3333652e-05
3.3425294e-05
3.3515163e-05
3.3391668e-05
3.2955486e-05
3.3445236e-05
3.7002364e-05
4.3362193e-05
4.9896417e-05
5.4035683e-05
5.3924506e-05
4.8216107e-05
3.6171161e-05
1.6487281e-05
3.3281869e-05
3.3335085e-05
3.3452425e-05
3.3567273e-05
3.3455237e-05
3.3124676e-05
3.4038605e-05
3.8147029e-05
4.475765e-05
5.12031e-05
5.5070884e-05
5.4624542e-05
4.8594614e-05
3.6301e-05
1.6490657e-05
3.3278836e-05
3.3346162e-05
3.3491148e-05
3.3631233e-05
3.3535696e-05
3.3347047e-05
3.4723925e-05
3.9355619e-05
4.6165228e-05
5.2494832e-05
5.6084369e-05
5.5306137e-05
4.8961914e-05
3.6426925e-05
1.6494188e-05
3.3284986e-05
3.3367825e-05
3.3542247e-05
3.3707683e-05
3.3636391e-05
3.3630019e-05
3.5500854e-05
4.0620609e-05
4.7580407e-05
5.3770531e-05
5.7076491e-05
5.5969971e-05
4.9318529e-05
3.6549143e-05
1.649787e-05
3.3301328e-05
3.3401078e-05
3.3606513e-05
3.3797414e-05
3.3761431e-05
3.3980644e-05
3.6367529e-05
4.193462e-05
4.8999267e-05
5.5029344e-05
5.8047635e-05
5.6616678e-05
4.9664839e-05
3.6667084e-05
1.6501693e-05
3.3328964e-05
3.3446985e-05
3.3684745e-05
3.3901443e-05
3.3915701e-05
3.4405293e-05
3.7320736e-05
4.3290581e-05
5.0418425e-05
5.627061e-05
5.8998204e-05
5.7246851e-05
5.0001244e-05
3.6781085e-05
1.6505652e-05
3.3369088e-05
3.3506668e-05
3.3777753e-05
3.4021099e-05
3.410481e-05
3.4909377e-05
3.8356118e-05
4.4681853e-05
5.183497e-05
5.7493828e-05
5.9928616e-05
5.7861061e-05
5.0328147e-05
3.689145e-05
1.6509737e-05
3.3422991e-05
3.3581299e-05
3.3886372e-05
3.4158113e-05
3.4334986e-05
3.5497115e-05
3.946842e-05
4.6102299e-05
5.3246402e-05
5.8698636e-05
6.0839302e-05
5.8459862e-05
5.0645959e-05
3.6998448e-05
1.6513939e-05
3.3492061e-05
3.3672101e-05
3.4011478e-05
3.4314722e-05
3.4612896e-05
3.6171384e-05
4.0651733e-05
4.7546323e-05
5.4650584e-05
5.9884785e-05
6.1730689e-05
5.9043732e-05
5.0954641e-05
3.7102365e-05
1.6518251e-05
3.3577784e-05
3.3780338e-05
3.4154027e-05
3.4493755e-05
3.494542e-05
3.6933637e-05
4.1899745e-05
4.9008868e-05
5.6045689e-05
6.1052122e-05
6.2603202e-05
5.9613114e-05
5.1254409e-05
3.7203362e-05
1.6522664e-05
3.3681742e-05
3.3907316e-05
3.4315092e-05
3.4698709e-05
3.533938e-05
3.7783898e-05
4.3205953e-05
5.0485402e-05
5.7430168e-05
6.2200567e-05
6.3457259e-05
6.0168466e-05
5.1545763e-05
3.7301527e-05
1.6527174e-05
3.3805608e-05
3.4054378e-05
3.4495929e-05
3.493379e-05
3.5801258e-05
3.8720839e-05
4.4563857e-05
5.1971889e-05
5.8802705e-05
6.3330109e-05
6.429328e-05
6.0710252e-05
5.1829143e-05
3.7396968e-05
1.6531776e-05
3.3951147e-05
3.4222911e-05
3.4698049e-05
3.5203903e-05
3.6336915e-05
3.97419e-05
4.5967114e-05
5.3464745e-05
6.0162193e-05
6.4440788e-05
6.5111673e-05
6.1238802e-05
5.2104951e-05
3.7489812e-05
1.6536466e-05
3.4120204e-05
3.4414352e-05
3.4923305e-05
3.5514601e-05
3.6951333e-05
4.0843463e-05
4.7409649e-05
5.4960802e-05
6.1507705e-05
6.5532686e-05
6.5912786e-05
6.1754105e-05
5.2373577e-05
3.7580207e-05
1.6541242e-05
3.4314705e-05
3.4630208e-05
3.5173979e-05
3.5871965e-05
3.7648419e-05
4.2021053e-05
4.8885735e-05
5.6457264e-05
6.2838467e-05
6.6605909e-05
6.6696984e-05
6.2256729e-05
5.2635226e-05
3.7668256e-05
1.65461e-05
3.4536648e-05
3.4872085e-05
3.5452883e-05
3.6282427e-05
3.8430853e-05
4.3269545e-05
5.0390044e-05
5.7951671e-05
6.4153835e-05
6.7660594e-05
6.746465e-05
6.2747189e-05
5.2890119e-05
3.7754045e-05
1.6551039e-05
3.4788109e-05
3.5141732e-05
3.5763428e-05
3.675255e-05
3.9300021e-05
4.4583373e-05
5.191766e-05
5.9441857e-05
6.5453279e-05
6.8696906e-05
6.8216184e-05
6.3225944e-05
5.3138485e-05
3.7837654e-05
1.6556054e-05
3.5071241e-05
3.5441097e-05
3.6109684e-05
3.7288771e-05
4.0256002e-05
4.595672e-05
5.3464091e-05
6.0925926e-05
6.6736372e-05
6.971499e-05
6.8951483e-05
6.3693456e-05
5.3380575e-05
3.7919178e-05
1.6561141e-05
3.538829e-05
3.5772402e-05
3.6496394e-05
3.7897132e-05
4.129763e-05
4.738369e-05
5.5025248e-05
6.2402218e-05
6.8002758e-05
7.0714997e-05
6.9671027e-05
6.4150036e-05
5.3616598e-05
3.7998704e-05
1.6566298e-05
3.5741623e-05
3.6138227e-05
3.692894e-05
3.858302e-05
4.2422602e-05
4.8858439e-05
5.659743e-05
6.3869273e-05
6.9252145e-05
7.1697118e-05
7.0375289e-05
6.4595982e-05
5.3846739e-05
3.8076308e-05
1.6571522e-05
3.6133765e-05
3.65416e-05
3.7413253e-05
3.9350938e-05
4.3627627e-05
5.0375293e-05
5.8177294e-05
6.5325815e-05
7.0484308e-05
7.2661577e-05
7.1064705e-05
6.5031592e-05
5.4071179e-05
3.8152054e-05
1.6576808e-05
3.6567453e-05
3.6986083e-05
3.7955665e-05
4.0204325e-05
4.49086e-05
5.1928817e-05
5.9761835e-05
6.6770738e-05
7.169906e-05
7.3608223e-05
7.1739656e-05
6.5457164e-05
5.4290106e-05
3.8226004e-05
1.6582153e-05
3.7045708e-05
3.7475845e-05
3.8562704e-05
4.1145432e-05
4.6260792e-05
5.3513876e-05
6.1348349e-05
6.8203061e-05
7.2896229e-05
7.4537356e-05
7.2400492e-05
6.5872961e-05
5.4503697e-05
3.8298218e-05
1.6587554e-05
3.7571917e-05
3.8015701e-05
3.9240856e-05
4.2175261e-05
4.7679026e-05
5.5125659e-05
6.2934402e-05
6.9621917e-05
7.4075702e-05
7.5449302e-05
7.3047533e-05
6.6279231e-05
5.4712113e-05
3.8368751e-05
1.6593007e-05
3.8149911e-05
3.861111e-05
3.9996297e-05
4.329358e-05
4.9157855e-05
5.6759691e-05
6.4517814e-05
7.1026551e-05
7.5237337e-05
7.6344343e-05
7.3681074e-05
6.6676217e-05
5.4915499e-05
3.8437654e-05
1.659851e-05
3.8784048e-05
3.9268114e-05
4.0834629e-05
4.4498975e-05
5.0691707e-05
5.8411839e-05
6.6096631e-05
7.2416295e-05
7.6380924e-05
7.7222726e-05
7.4301394e-05
6.706416e-05
5.5113998e-05
3.8504971e-05
1.6604058e-05
3.9479253e-05
3.9993214e-05
4.1760638e-05
4.578897e-05
5.2275011e-05
6.0078293e-05
6.7669083e-05
7.3790524e-05
7.7506485e-05
7.8084755e-05
7.4908756e-05
6.7443285e-05
5.5307742e-05
3.8570745e-05
1.6609648e-05
4.0241032e-05
4.079318e-05
4.2778088e-05
4.7160169e-05
5.39023e-05
6.175555e-05
6.9233567e-05
7.5148707e-05
7.8614108e-05
7.8930688e-05
7.5503411e-05
6.7813798e-05
5.5496856e-05
3.8635015e-05
1.6615277e-05
4.1075416e-05
4.1674808e-05
4.3889573e-05
4.8608417e-05
5.5568283e-05
6.3440417e-05
7.0788678e-05
7.6490241e-05
7.9703724e-05
7.9760728e-05
7.6085613e-05
6.8175897e-05
5.5681453e-05
3.8697816e-05
1.6620943e-05
4.1988832e-05
4.2644633e-05
4.5096431e-05
5.0128977e-05
5.7267899e-05
6.5129951e-05
7.233307e-05
7.7814662e-05
8.0775524e-05
8.0575077e-05
7.6655596e-05
6.8529769e-05
5.5861643e-05
3.875918e-05
1.662664e-05
4.2987904e-05
4.370862e-05
4.6398722e-05
5.1716692e-05
5.8996334e-05
6.682144e-05
7.3865521e-05
7.9121659e-05
8.1829642e-05
8.1373939e-05
7.7213579e-05
6.8875587e-05
5.6037524e-05
3.8819137e-05
1.6632367e-05
4.4079169e-05
4.4871868e-05
4.7795262e-05
5.3366145e-05
6.0749073e-05
6.8512444e-05
7.5384891e-05
8.0410759e-05
8.2866126e-05
8.2157509e-05
7.7759768e-05
6.9213513e-05
5.6209189e-05
3.8877713e-05
1.663812e-05
4.5268747e-05
4.6138335e-05
4.928371e-05
5.5071782e-05
6.2521858e-05
7.0200644e-05
7.6890079e-05
8.1681869e-05
8.3885038e-05
8.2925971e-05
7.8294356e-05
6.9543699e-05
5.6376723e-05
3.8934933e-05
1.6643896e-05
4.6561963e-05
4.7510614e-05
5.086069e-05
5.6828021e-05
6.4310693e-05
7.1883891e-05
7.8380142e-05
8.293486e-05
8.4886444e-05
8.3679492e-05
7.8817524e-05
6.9866283e-05
5.6540203e-05
3.8990817e-05
1.6649692e-05
4.7962983e-05
4.8989769e-05
5.2521935e-05
5.8629359e-05
6.6111889e-05
7.3560211e-05
7.9854056e-05
8.4169511e-05
8.5870409e-05
8.4418228e-05
7.9329435e-05
7.0181394e-05
5.6699701e-05
3.9045385e-05
1.6655505e-05
4.9474475e-05
5.0575254e-05
5.4262438e-05
6.0470386e-05
6.7921894e-05
7.5227645e-05
8.1311333e-05
8.5385639e-05
8.6836982e-05
8.5142319e-05
7.9830242e-05
7.0489148e-05
5.685528e-05
3.9098653e-05
1.6661331e-05
5.1097336e-05
5.2264894e-05
5.6076615e-05
6.2345893e-05
6.9737443e-05
7.6884239e-05
8.2751347e-05
8.6583068e-05
8.7786204e-05
8.5851891e-05
8.032008e-05
7.0789652e-05
5.7006998e-05
3.9150634e-05
1.6667168e-05
5.2830519e-05
5.4054933e-05
5.7958414e-05
6.4250777e-05
7.1555305e-05
7.8528597e-05
8.4173488e-05
8.7761621e-05
8.8718103e-05
8.6547055e-05
8.0799072e-05
7.1082999e-05
5.7154906e-05
3.920134e-05
1.6673012e-05
5.4670965e-05
5.5940158e-05
5.9901476e-05
6.6180148e-05
7.3372244e-05
8.0159427e-05
8.557718e-05
8.8921119e-05
8.963269e-05
8.7227902e-05
8.1267325e-05
7.1369275e-05
5.7299048e-05
3.925078e-05
1.6678861e-05
5.6613644e-05
5.7914033e-05
6.1899139e-05
6.8129074e-05
7.5185685e-05
8.1775466e-05
8.6961864e-05
9.0061373e-05
9.0529962e-05
8.7894508e-05
8.172493e-05
7.1648551e-05
5.7439464e-05
3.9298961e-05
1.6684711e-05
5.8651711e-05
5.9968889e-05
6.3944522e-05
7.0092758e-05
7.6993252e-05
8.3375516e-05
8.8326993e-05
9.1182184e-05
9.1409897e-05
8.8546929e-05
8.2171966e-05
7.1920891e-05
5.7576184e-05
3.9345889e-05
1.669056e-05
6.0776688e-05
6.2096001e-05
6.6030473e-05
7.206703e-05
7.8792688e-05
8.4958426e-05
8.9672028e-05
9.2283338e-05
9.2272453e-05
8.9185203e-05
8.2608491e-05
7.2186344e-05
5.7709236e-05
3.9391564e-05
1.6696403e-05
6.2978667e-05
6.4285955e-05
6.815015e-05
7.4047874e-05
8.058184e-05
8.652309e-05
9.0996429e-05
9.3364609e-05
9.3117567e-05
8.9809348e-05
8.3034552e-05
7.2444952e-05
5.7838637e-05
3.9435987e-05
1.6702239e-05
6.5246775e-05
6.6528943e-05
7.0296762e-05
7.6031413e-05
8.2358645e-05
8.8068434e-05
9.2299659e-05
9.4425751e-05
9.3945156e-05
9.0419361e-05
8.3450177e-05
7.2696741e-05
5.7964401e-05
3.9479156e-05
1.6708063e-05
6.7569559e-05
6.881494e-05
7.2463602e-05
7.8013901e-05
8.4121119e-05
8.9593411e-05
9.3581172e-05
9.54665e-05
9.4755113e-05
9.101522e-05
8.3855378e-05
7.2941729e-05
5.8086535e-05
3.9521066e-05
1.6713873e-05
6.9935336e-05
7.1133906e-05
7.4644088e-05
7.9991705e-05
8.5867345e-05
9.1096998e-05
9.484042e-05
9.6486573e-05
9.554731e-05
9.1596881e-05
8.4250151e-05
7.3179922e-05
5.8205038e-05
3.956171e-05
1.6719665e-05
7.2332507e-05
7.3475969e-05
7.6831801e-05
8.1961303e-05
8.7595466e-05
9.2578189e-05
9.6076847e-05
9.7485669e-05
9.6321595e-05
9.2164278e-05
8.4634474e-05
7.3411312e-05
5.8319905e-05
3.9601078e-05
1.6725435e-05
7.474982e-05
7.583158e-05
7.9020519e-05
8.3919278e-05
8.9303676e-05
9.4035998e-05
9.7289891e-05
9.8463469e-05
9.7077794e-05
9.2717326e-05
8.5008309e-05
7.3635883e-05
5.8431121e-05
3.9639159e-05
1.673118e-05
7.7176578e-05
7.8191641e-05
8.1204258e-05
8.5862317e-05
9.0990216e-05
9.5469452e-05
9.8478987e-05
9.9419635e-05
9.7815715e-05
9.3255921e-05
8.5371603e-05
7.3853604e-05
5.8538667e-05
3.9675938e-05
1.6736897e-05
7.9602784e-05
8.0547605e-05
8.3377309e-05
8.7787221e-05
9.2653377e-05
9.6877596e-05
9.9643565e-05
0.00010035382
9.8535146e-05
9.3779937e-05
8.5724284e-05
7.4064436e-05
5.8642516e-05
3.9711397e-05
1.6742581e-05
8.2019251e-05
8.2891551e-05
8.5534272e-05
8.969091e-05
9.4291498e-05
9.8259496e-05
0.00010078306
0.00010126566
9.9235856e-05
9.4289235e-05
8.6066269e-05
7.4268326e-05
5.8742637e-05
3.9745518e-05
1.6748228e-05
8.441765e-05
8.5216229e-05
8.7670086e-05
9.1570432e-05
9.5902969e-05
9.9614238e-05
0.00010189691
0.0001021548
9.9917606e-05
9.4783658e-05
8.6397459e-05
7.4465213e-05
5.883899e-05
3.9778278e-05
1.6753834e-05
8.6790534e-05
8.7515082e-05
8.9780053e-05
9.3422983e-05
9.7486238e-05
0.00010094094
0.00010298455
0.00010302086
0.00010058014
9.5263036e-05
8.6717744e-05
7.4655026e-05
5.893153e-05
3.9809654e-05
1.6759395e-05
8.9131328e-05
8.9782253e-05
9.1859857e-05
9.5245913e-05
9.9039819e-05
0.00010223873
0.00010404547
0.00010386347
0.00010122321
9.5727193e-05
8.7027002e-05
7.4837687e-05
5.902021e-05
3.983962e-05
1.6764905e-05
9.1434295e-05
9.2012572e-05
9.3905573e-05
9.7036743e-05
0.0001005623
0.00010350681
0.00010507912
0.00010468228
0.00010184655
9.6175944e-05
8.7325106e-05
7.5013108e-05
5.9104975e-05
3.9868148e-05
1.6770361e-05
9.3694494e-05
9.4201527e-05
9.5913675e-05
9.8793176e-05
0.00010205233
0.0001047444
0.00010608503
0.00010547695
0.00010244991
9.66091e-05
8.7611923e-05
7.51812e-05
5.9185768e-05
3.9895209e-05
1.6775757e-05
9.5907726e-05
9.6345235e-05
9.788103e-05
0.00010051311
0.00010350869
0.00010595077
0.00010706273
0.00010624714
0.00010303305
9.7026476e-05
8.7887314e-05
7.5341866e-05
5.9262529e-05
3.9920772e-05
1.6781089e-05
9.8070467e-05
9.8440401e-05
9.9804895e-05
0.00010219463
0.00010493021
0.00010712524
0.00010801181
0.00010699256
0.00010359572
9.7427892e-05
8.8151145e-05
7.5495012e-05
5.9335197e-05
3.9944808e-05
1.678635e-05
0.00010017981
0.00010048427
0.0001016829
0.00010383604
0.00010631585
0.00010826722
0.00010893186
0.00010771293
0.00010413772
9.7813174e-05
8.8403282e-05
7.564054e-05
5.940371e-05
3.9967285e-05
1.6791535e-05
0.00010223342
0.00010247458
0.00010351303
0.00010543583
0.00010766466
0.00010937614
0.00010982256
0.00010840801
0.00010465885
9.8182165e-05
8.8643599e-05
7.5778358e-05
5.9468007e-05
3.9988173e-05
1.679664e-05
0.00010422944
0.00010440954
0.00010529361
0.00010699272
0.00010897583
0.00011045154
0.00011068363
0.00010907759
0.00010515894
9.8534723e-05
8.887198e-05
7.5908377e-05
5.9528031e-05
4.0007444e-05
1.6801657e-05
0.00010616645
0.00010628774
0.00010702329
0.0001085056
0.00011024863
0.000111493
0.00011151481
0.00010972152
0.00010563787
9.8870727e-05
8.9088319e-05
7.6030515e-05
5.9583725e-05
4.0025068e-05
1.6806582e-05
0.00010804346
0.00010810814
0.00010870101
0.00010997358
0.00011148248
0.00011250019
0.00011231593
0.00011033967
0.00010609553
9.919008e-05
8.929253e-05
7.6144699e-05
5.9635039e-05
4.0041021e-05
1.6811408e-05
0.00010985977
0.00010987005
0.00011032596
0.00011139595
0.00011267689
0.00011347286
0.00011308688
0.00011093198
0.00010653184
9.9492711e-05
8.948454e-05
7.6250868e-05
5.968193e-05
4.0055281e-05
1.6816131e-05
0.00011161503
0.00011157303
0.00011189761
0.00011277216
0.0001138315
0.00011441082
0.00011382757
0.00011149841
0.0001069468
9.977858e-05
8.96643e-05
7.6348975e-05
5.9724362e-05
4.0067827e-05
1.6820744e-05
0.00011330911
0.00011321691
0.00011341563
0.00011410185
0.00011494605
0.00011531398
0.00011453801
0.00011203899
0.0001073404
0.00010004768
8.9831783e-05
7.6438985e-05
5.9762306e-05
4.0078645e-05
1.6825241e-05
0.00011494214
0.00011480174
0.0001148799
0.00011538481
0.0001160204
0.0001161823
0.00011521825
0.00011255378
0.00010771271
0.00010030003
8.9986987e-05
7.6520883e-05
5.9795746e-05
4.0087724e-05
1.6829618e-05
0.00011651444
0.00011632778
0.00011629048
0.00011662099
0.0001170545
0.00011701584
0.00011586838
0.00011304291
0.00010806381
0.00010053568
9.0129934e-05
7.6594669e-05
5.9824673e-05
4.0095058e-05
1.683387e-05
0.00011802647
0.00011779543
0.0001176476
0.00011781044
0.00011804842
0.0001178147
0.00011648858
0.00011350655
0.00010839385
0.00010075474
9.0260675e-05
7.6660366e-05
5.9849095e-05
4.0100647e-05
1.6837991e-05
0.00011947888
0.00011920525
0.00011895163
0.00011895337
0.00011900231
0.00011857907
0.00011707907
0.00011394491
0.00010870299
0.00010095733
9.0379288e-05
7.6718012e-05
5.9869027e-05
4.0104496e-05
1.6841977e-05
0.00012087242
0.00012055793
0.00012020306
0.00012005009
0.00011991641
0.00011930921
0.00011764011
0.00011435825
0.00010899147
0.0001011436
9.0485879e-05
7.6767669e-05
5.98845e-05
4.0106616e-05
1.6845824e-05
0.00012220794
0.00012185426
0.00012140248
0.000121101
0.00012079104
0.00012000543
0.00011817202
0.00011474687
0.00010925954
0.00010131376
9.058058e-05
7.6809418e-05
5.9895558e-05
4.0107024e-05
1.6849527e-05
0.00012348641
0.00012309513
0.00012255061
0.00012210662
0.00012162659
0.0001206681
0.00011867517
0.00011511112
0.00010950748
0.00010146804
9.0663553e-05
7.6843362e-05
5.9902256e-05
4.0105745e-05
1.6853085e-05
0.00012470885
0.00012428149
0.00012364824
0.00012306752
0.00012242354
0.00012129764
0.00011914998
0.00011545137
0.00010973564
0.00010160668
9.0734986e-05
7.6869622e-05
5.9904665e-05
4.0102806e-05
1.6856493e-05
0.00012587634
0.0001254144
0.00012469621
0.00012398437
0.00012318241
0.00012189454
0.00011959689
0.00011576805
0.00010994436
0.00010172999
9.0795089e-05
7.688834e-05
5.9902867e-05
4.0098244e-05
1.6859749e-05
0.00012699005
0.00012649492
0.00012569546
0.00012485788
0.00012390378
0.00012245931
0.00012001639
0.0001160616
0.00011013405
0.00010183828
9.0844102e-05
7.6899678e-05
5.9896957e-05
4.0092099e-05
1.6862851e-05
0.00012805116
0.00012752421
0.00012664697
0.00012568886
0.00012458831
0.00012299253
0.00012040902
0.00011633251
0.00011030512
0.00010193189
9.0882284e-05
7.6903813e-05
5.9887041e-05
4.0084418e-05
1.6865797e-05
0.0001290609
0.00012850344
0.00012755176
0.00012647812
0.00012523668
0.00012349479
0.00012077532
0.00011658129
0.00011045802
0.00010201119
9.0909917e-05
7.6900943e-05
5.9873237e-05
4.0075252e-05
1.6868588e-05
0.00013002055
0.00012943381
0.0001284109
0.00012722655
0.00012584961
0.00012396674
0.00012111588
0.00011680847
0.00011059323
0.00010207658
9.0927301e-05
7.6891278e-05
5.9855675e-05
4.0064657e-05
1.6871221e-05
0.00013093137
0.00013031657
0.0001292255
0.00012793508
0.00012642788
0.00012440905
0.00012143133
0.00011701462
0.00011071123
0.00010212846
9.0934758e-05
7.6875046e-05
5.9834492e-05
4.0052695e-05
1.6873698e-05
0.0001317947
0.00013115299
0.00012999668
0.00012860464
0.00012697228
0.00012482243
0.00012172229
0.0001172003
0.00011081254
0.00010216726
9.0932624e-05
7.6852487e-05
5.9809836e-05
4.0039428e-05
1.6876018e-05
0.00013261185
0.00013194433
0.0001307256
0.00012923623
0.00012748365
0.0001252076
0.00012198942
0.00011736614