/*--------------------------------*- C++ -*----------------------------------*\
| =========                 |                                                 |
| \\      /  F ield         | OpenFOAM: The Open Source CFD Toolbox           |
|  \\    /   O peration     | Version:  2506                                  |
|   \\  /    A nd           | Website:  www.openfoam.com                      |
|    \\/     M anipulation  |                                                 |
\*---------------------------------------------------------------------------*/
FoamFile
{
    version     2.0;
    format      ascii;
    arch        "LSB;label=32;scalar=64";
    class       surfaceScalarField;
    location    "1000/water";
    object      phi;
}
// * * * * * * * * * * * * * * * * * * * * * * * * * * * * * * * * * * * * * //

dimensions      [1 0 -1 0 0 0 0];

oriented        oriented;

internalField   nonuniform List<scalar> 
11585
(
-1.3137919e-06
0.00048440267
-5.3280546e-06
0.0014532809
-1.2127226e-05
0.0024222435
-2.1852678e-05
0.0033913476
-3.4715325e-05
0.0043606625
-5.1001498e-05
0.0053302637
-7.1083763e-05
0.0063002377
-9.5435194e-05
0.0072706845
-0.00012464613
0.0082417217
-0.00015943259
0.0092134751
-0.00020054802
0.010185982
-0.00024815003
0.011158646
-0.00029864418
0.012127716
-0.00032291745
0.013067673
0.01368666
-1.6346617e-06
0.00048603733
-6.5771597e-06
0.0014582234
-1.4836024e-05
0.0024305024
-2.6425786e-05
0.0034029374
-4.1365734e-05
0.0043756024
-5.9674432e-05
0.0053485724
-8.1362962e-05
0.0063219262
-0.00010642483
0.0072957464
-0.00013481672
0.0082701136
-0.00016640745
0.0092450658
-0.00020079565
0.01022037
-0.00023647938
0.01119433
-0.0002666563
0.012157893
-0.00025457078
0.013055587
0.013432089
-1.6701015e-06
0.00048770743
-6.5929277e-06
0.0014631462
-1.4773491e-05
0.002438683
-2.6221894e-05
0.0034143858
-4.0945963e-05
0.0043903265
-5.8955404e-05
0.0053665818
-8.0263838e-05
0.0063432346
-0.00010488901
0.0073203716
-0.00013284178
0.0082980664
-0.00016406132
0.0092762853
-0.00019814562
0.010254454
-0.00023332868
0.011229513
-0.00026190878
0.012186473
-0.00024272199
0.013036401
0.013189367
-1.7119635e-06
0.0004894194
-6.843534e-06
0.0014682778
-1.5399876e-05
0.0024472393
-2.7391209e-05
0.0034263771
-4.283175e-05
0.0044057671
-6.1739569e-05
0.0053854897
-8.4135091e-05
0.0063656301
-0.0001100348
0.0073462713
-0.00013942463
0.0083274562
-0.00017215217
0.0093090129
-0.00020754176
0.010289844
-0.00024312988
0.011265101
-0.00026941013
0.012212753
-0.00023956968
0.01300656
0.012949797
-1.7602319e-06
0.00049117963
-7.0561519e-06
0.0014735737
-1.5889756e-05
0.0024560729
-2.826388e-05
0.0034387512
-4.4183018e-05
0.0044216862
-6.3652338e-05
0.005404959
-8.6675e-05
0.0063886528
-0.00011324192
0.0073728382
-0.00014329248
0.0083575067
-0.0001765727
0.0093422931
-0.0002121716
0.010325443
-0.00024708112
0.01130001
-0.00027028843
0.012235961
-0.00023126234
0.012967534
0.012718535
-1.7816102e-06
0.00049296124
-7.1271331e-06
0.0014789192
-1.6038029e-05
0.0024649838
-2.8516641e-05
0.0034512298
-4.4565925e-05
0.0044377355
-6.4188778e-05
0.0054245818
-8.7384364e-05
0.0064118484
-0.00011413321
0.007399587
-0.00014434328
0.0083877168
-0.00017767412
0.009375624
-0.00021301243
0.010360781
-0.00024688606
0.011333884
-0.00026689385
0.012255968
-0.00022012995
0.01292077
0.012498405
-1.7821797e-06
0.00049474342
-7.1264933e-06
0.0014842635
-1.6034353e-05
0.0024738917
-2.8508174e-05
0.0034637037
-4.4550708e-05
0.004453778
-6.4163838e-05
0.005444195
-8.7342958e-05
0.0064350275
-0.00011405608
0.0074263002
-0.00014417436
0.0084178351
-0.00017726592
0.0094087155
-0.00021202742
0.010395543
-0.00024456854
0.011366425
-0.0002611798
0.01227258
-0.00020779615
0.012867386
0.012290609
-1.7710725e-06
0.00049651449
-7.0840964e-06
0.0014895766
-1.5940126e-05
0.0024827477
-2.8340819e-05
0.0034761044
-4.4287781e-05
0.004469725
-6.3780555e-05
0.0054636877
-8.6808665e-05
0.0064580556
-0.0001133243
0.0074528158
-0.00014315809
0.0084476689
-0.0001757879
0.0094413453
-0.00020973665
0.010429491
-0.00024072505
0.011397414
-0.00025380649
0.012285661
-0.00019492304
0.012808503
0.012095686
-1.7524833e-06
0.00049826697
-7.0102662e-06
0.0014948343
-1.5774139e-05
0.0024915116
-2.8045194e-05
0.0034883754
-4.3823991e-05
0.0044855038
-6.3107629e-05
0.0054829714
-8.5879133e-05
0.0064808271
-0.00011207347
0.0074790101
-0.00014147991
0.0084770753
-0.00017349067
0.0094733561
-0.00020646882
0.010462469
-0.00023575587
0.011426701
-0.00024522711
0.012295132
-0.0001819236
0.012745199
0.011913762
-1.7285695e-06
0.00049999554
-6.9144e-06
0.0015000202
-1.5558104e-05
0.0025001553
-2.7660371e-05
0.0035004777
-4.3220797e-05
0.0045010642
-6.2233882e-05
0.0055019845
-8.4675494e-05
0.0065032687
-0.00011046221
0.0075047969
-0.00013934183
0.0085059549
-0.00017062598
0.0095046402
-0.00020252743
0.010494371
-0.00023000373
0.011454177
-0.00023580268
0.012300931
-0.00016906992
0.012678467
0.011744692
-1.7009399e-06
0.00050169648
-6.80379e-06
0.001505123
-1.5308997e-05
0.0025086605
-2.7216838e-05
0.0035123855
-4.2525844e-05
0.0045163732
-6.1227561e-05
0.0055206862
-8.3289916e-05
0.0065253311
-0.00010861012
0.0075301171
-0.000136895
0.0085342398
-0.00016738031
0.0095351255
-0.00019813362
0.010525124
-0.00022371244
0.011479756
-0.00022578413
0.012303003
-0.00015651972
0.012609202
0.011588173
-1.6709201e-06
0.0005033674
-6.6837123e-06
0.0015101358
-1.5038658e-05
0.0025170154
-2.6735589e-05
0.0035240824
-4.177183e-05
0.0045314095
-6.0135596e-05
0.0055390499
-8.1786179e-05
0.0065469817
-0.00010660079
0.0075549317
-0.00013424617
0.0085618852
-0.00016388613
0.0095647655
-0.00019344352
0.010554682
-0.00021704984
0.011503362
-0.00021534229
0.012301295
-0.00014435878
0.012538219
0.011443814
-1.6395266e-06
0.00050500693
-6.5581294e-06
0.0015150544
-1.4755919e-05
0.0025252132
-2.6232239e-05
0.0035355588
-4.0983052e-05
0.0045461603
-5.8992869e-05
0.0055570598
-8.0211743e-05
0.0065682005
-0.00010449653
0.0075792165
-0.00013147499
0.0085888636
-0.0001602416
0.0095935321
-0.0001885704
0.01058301
-0.00021013199
0.011524924
-0.0002045968
0.01229576
-0.00013263332
0.012466255
0.011311181
-1.6075052e-06
0.00050661444
-6.4300132e-06
0.0015198769
-1.4467448e-05
0.0025332506
-2.5718604e-05
0.0035468099
-4.0177906e-05
0.0045606196
-5.7825789e-05
0.0055747076
-7.8602559e-05
0.0065889773
-0.00010234457
0.0076029585
-0.0001286416
0.0086151607
-0.00015652001
0.0096214105
-0.0001835964
0.010610087
-0.00020303754
0.011544365
-0.00019363624
0.012286359
-0.00012137095
0.01239399
0.01118981
-1.5754214e-06
0.00050818986
-6.3016362e-06
0.0015246031
-1.4178357e-05
0.0025411274
-2.5203755e-05
0.0035578353
-3.9370524e-05
0.0045747863
-5.665467e-05
0.0055919918
-7.6986334e-05
0.006609309
-0.00010018133
0.0076261535
-0.00012579228
0.0086407716
-0.00015277703
0.0096483953
-0.00017858159
0.010635891
-0.00019581922
0.011561602
-0.00018253465
0.012273074
-0.00011059474
0.01232205
0.011079215
-1.543729e-06
0.00050973359
-6.1748174e-06
0.0015292342
-1.3892736e-05
0.0025488453
-2.4694946e-05
0.0035686375
-3.8572215e-05
0.0045886636
-5.5495794e-05
0.0056089154
-7.5385318e-05
0.0066291985
-9.8036086e-05
0.0076488043
-0.00012296402
0.0086656996
-0.00014905646
0.0096744877
-0.00017357093
0.010660406
-0.00018851281
0.011576544
-0.00017136408
0.012255926
-0.00010033148
0.012251018
0.010978883
-1.5128053e-06
0.00051124639
-6.0510646e-06
0.0015337725
-1.3613972e-05
0.0025564082
-2.4198186e-05
0.0035792217
-3.7792358e-05
0.0046022578
-5.436268e-05
0.0056254857
-7.381801e-05
0.0066486538
-9.5933158e-05
0.0076709194
-0.00012018734
0.0086899537
-0.00014539366
0.009699694
-0.00016859847
0.010683611
-0.00018114318
0.011589089
-0.00016020252
0.012234985
-9.0614595e-05
0.01218143
0.010888269
-1.4829658e-06
0.00051272936
-5.9316399e-06
0.0015382212
-1.3344902e-05
0.0025638215
-2.3718509e-05
0.0035895953
-3.7038813e-05
0.0046155781
-5.3266678e-05
0.0056417136
-7.2299954e-05
0.0066676871
-9.3892921e-05
0.0076925124
-0.00011748756
0.0087135484
-0.00014181717
0.0097240236
-0.00016368932
0.010705483
-0.0001737284
0.011599128
-0.00014913745
0.012210394
-8.1482762e-05
0.012113775
0.010806786
-1.4544692e-06
0.00051418383
-5.817578e-06
0.0015425843
-1.308785e-05
0.0025710917
-2.3260046e-05
0.0035997675
-3.6318039e-05
0.0046286361
-5.2217121e-05
0.0056576126
-7.0843932e-05
0.0066863139
-9.1932065e-05
0.0077136005
-0.00011488513
0.0087365014
-0.00013834916
0.0097474877
-0.00015886025
0.010725994
-0.00016628243
0.01160655
-0.00013826517
0.012182377
-7.2975467e-05
0.012048485
0.010733811
-1.4275154e-06
0.00051561134
-5.7096776e-06
0.0015468664
-1.2844611e-05
0.0025782267
-2.2825986e-05
0.0036097489
-3.5635023e-05
0.0046414451
-5.1221226e-05
0.0056731988
-6.9459815e-05
0.0067045525
-9.0063387e-05
0.0077342041
-0.00011239538
0.0087588334
-0.00013500501
0.0097700973
-0.00015411953
0.010745108
-0.00015881735
0.011611248
-0.00012768679
0.012151246
-6.5127027e-05
0.011985926
0.010668683
-1.4022406e-06
0.00051701358
-5.6084829e-06
0.0015510727
-1.2616408e-05
0.0025852346
-2.2418499e-05
0.003619551
-3.4993165e-05
0.0046540198
-5.0283911e-05
0.0056884896
-6.8154315e-05
0.0067224229
-8.8295464e-05
0.0077543452
-0.00011002811
0.0087805661
-0.00013179283
0.009791862
-0.00014946665
0.010762782
-0.00015134545
0.011613127
-0.00011750185
0.012117403
-5.7960621e-05
0.011926384
0.010610723
-1.378715e-06
0.0005183923
-5.5142732e-06
0.0015552082
-1.2403867e-05
0.0025921242
-2.2038696e-05
0.0036291858
-3.4394204e-05
0.0046663753
-4.9407695e-05
0.0057035031
-6.6930832e-05
0.006739946
-8.6632445e-05
0.0077740469
-0.0001077873
0.0088017209
-0.0001287131
0.0098127878
-0.00014489246
0.010778962
-0.00014388131
0.011612116
-0.00010780106
0.012081322
-5.1483859e-05
0.011870067
0.010559239
-1.3569446e-06
0.00051974924
-5.4270711e-06
0.0015592784
-1.2207035e-05
0.0025989041
-2.1686661e-05
0.0036386655
-3.3838271e-05
0.0046785269
-4.8592764e-05
0.0057182576
-6.5789554e-05
0.0067571428
-8.5074193e-05
0.0077933315
-0.0001056713
0.008822318
-0.00012575891
0.0098328754
-0.00014038024
0.010793583
-0.00013644398
0.011608179
-9.8659613e-05
0.012043538
-4.568674e-05
0.011817094
0.010513552
-1.3368788e-06
0.00052108612
-5.346673e-06
0.0015632882
-1.2025453e-05
0.0026055829
-2.136157e-05
0.0036480016
-3.3324078e-05
0.0046904894
-4.7837246e-05
0.0057327707
-6.4727822e-05
0.0067740334
-8.3616759e-05
0.0078122204
-0.00010367344
0.0088423747
-0.00012291674
0.0098521187
-0.00013590757
0.010806574
-0.0001290586
0.01160133
-9.0132231e-05
0.012004612
-4.0542298e-05
0.011767504
0.01047301
-1.3184222e-06
0.00052240454
-5.2726966e-06
0.0015672424
-1.1858259e-05
0.0026121685
-2.1061889e-05
0.0036572052
-3.2849217e-05
0.0047022768
-4.7137644e-05
0.0057470592
-6.3740728e-05
0.0067906365
-8.225317e-05
0.0078307329
-0.000101783
0.0088619045
-0.00012016782
0.0098705035
-0.00013144897
0.010817855
-0.00012175714
0.011591639
-8.2250756e-05
0.011965105
-3.6009416e-05
0.011721263
0.010437001
-1.3014489e-06
0.00052370599
-5.2046376e-06
0.0015711456
-1.1704314e-05
0.0026186682
-2.0785591e-05
0.0036662865
-3.2410515e-05
0.0047139017
-4.6489343e-05
0.005761138
-6.2821804e-05
0.0068069689
-8.0974334e-05
0.0078488854
-9.9986372e-05
0.0088809166
-0.00011748963
0.0098880068
-0.00012697904
0.010827344
-0.00011457774
0.011579237
-7.5024307e-05
0.011925552
-3.2037022e-05
0.011678276
0.010404964
-1.2858163e-06
0.00052499181
-5.1419252e-06
0.0015750017
-1.1562335e-05
0.0026250886
-2.0530388e-05
0.0036752545
-3.2004381e-05
0.0047253757
-4.5887114e-05
0.0057750207
-6.1963719e-05
0.0068230455
-7.9769943e-05
0.0078666916
-9.8268198e-05
0.0088994148
-0.00011485756
0.0099045962
-0.00012247554
0.010834962
-0.00010756279
0.011564325
-6.8441675e-05
0.011886431
-2.8568607e-05
0.011638403
0.010376395
-1.2713771e-06
0.00052626319
-5.0839699e-06
0.0015788143
-1.1430992e-05
0.0026314356
-2.0293915e-05
0.0036841175
-3.1627102e-05
0.0047367089
-4.5325543e-05
0.0057887192
-6.1158845e-05
0.0068388788
-7.8629222e-05
0.007884162
-9.6612304e-05
0.0089173979
-0.00011224639
0.0099202302
-0.00011792214
0.010840638
-0.00010075595
0.011547158
-6.2475241e-05
0.01184815
-2.5546307e-05
0.011601474
0.010350849
-1.2579877e-06
0.00052752117
-5.0301983e-06
0.0015825865
-1.1308995e-05
0.0026377144
-2.0073872e-05
0.0036928823
-3.1275064e-05
0.0047479101
-4.4799338e-05
0.0058022434
-6.0399694e-05
0.0068544792
-7.7541482e-05
0.0079013038
-9.5002416e-05
0.0089348588
-0.00010963152
0.0099348593
-0.00011331048
0.010844317
-9.4198576e-05
0.011528046
-5.7085585e-05
0.011811037
-2.2914044e-05
0.011567302
0.010327935
-1.2455148e-06
0.00052876669
-4.9800762e-06
0.0015863211
-1.1195141e-05
0.0026439295
-1.9868113e-05
0.0037015553
-3.0944888e-05
0.0047589868
-4.4303536e-05
0.0058156021
-5.9679183e-05
0.0068698548
-7.6496467e-05
0.0079181211
-9.3422611e-05
0.008951785
-0.00010698998
0.0099484267
-0.00010864131
0.010845968
-8.7926538e-05
0.011507332
-5.2226067e-05
0.011775337
-2.0619584e-05
0.011535696
0.010307315
-1.2338376e-06
0.00053000053
-4.9331203e-06
0.0015900204
-1.1088341e-05
0.0026500847
-1.9674695e-05
0.0037101417
-3.0633506e-05
0.0047699457
-4.3833602e-05
0.0058288022
-5.8990775e-05
0.006885012
-7.5484521e-05
0.0079346148
-9.1857576e-05
0.008968158
-0.0001043013
0.0099608704
-0.00010392462
0.010845592
-8.1967616e-05
0.011485375
-4.7846852e-05
0.011741216
-1.8615643e-05
0.011506464
0.010288699
-1.2228492e-06
0.00053122337
-4.8889033e-06
0.0015936864
-1.098763e-05
0.0026561834
-1.9491894e-05
0.0037186459
-3.0338186e-05
0.0047807919
-4.338547e-05
0.0058418495
-5.8328522e-05
0.0068999551
-7.449665e-05
0.007950783
-9.0292742e-05
0.0089839541
-0.0001015482
0.0099721259
-9.9178737e-05
0.010843222
-7.6340101e-05
0.011462536
-4.3898075e-05
0.011708774
-1.6860248e-05
0.011479427
0.010271839
-1.2124566e-06
0.00053243583
-4.8470526e-06
0.001597321
-1.0892169e-05
0.0026622285
-1.9318205e-05
0.003727072
-3.0056528e-05
0.0047915303
-4.2955529e-05
0.0058547485
-5.7687053e-05
0.0069146866
-7.3524483e-05
0.0079666204
-8.8714352e-05
0.008999144
-9.8717259e-05
0.0099821288
-9.4428636e-05
0.010838934
-7.1052539e-05
0.01143916
-4.0332086e-05
0.011678053
-1.5316663e-05
0.011454411
0.010256522
-1.2025799e-06
0.00053363841
-4.8072477e-06
0.0016009257
-1.0801233e-05
0.0026682225
-1.9152324e-05
0.0037354231
-2.9786441e-05
0.0048021644
-4.2540597e-05
0.0058675026
-5.7061525e-05
0.0069292075
-7.2560217e-05
0.0079821191
-8.7109527e-05
0.0090136933
-9.5799518e-05
0.0099908188
-8.970362e-05
0.010832838
-6.6104493e-05
0.011415561
-3.710483e-05
0.011649054
-1.3953063e-05
0.011431259
0.010242569
-1.1931507e-06
0.00053483156
-4.7692151e-06
0.0016045018
-1.0714201e-05
0.0026741675
-1.8993131e-05
0.003743702
-2.9526111e-05
0.0048126974
-4.2137867e-05
0.0058801144
-5.6447552e-05
0.0069435172
-7.1596521e-05
0.0079972681
-8.5466336e-05
0.0090275631
-9.2790916e-05
0.0099981434
-8.5034773e-05
0.010825082
-6.148802e-05
0.011392014
-3.4176537e-05
0.011621742
-1.2742111e-05
0.011409825
0.010229827
-1.1841114e-06
0.00053601567
-4.7327228e-06
0.0016080504
-1.0630547e-05
0.0026800653
-1.8839668e-05
0.0037519111
-2.9273968e-05
0.0048231317
-4.1744857e-05
0.0058925853
-5.5841133e-05
0.0069576135
-7.0626452e-05
0.0080120534
-8.3773923e-05
0.0090407106
-8.9692569e-05
0.010004062
-8.0452514e-05
0.010815842
-5.7189499e-05
0.011368751
-3.1511896e-05
0.011596065
-1.1660517e-05
0.011389974
0.010218167
-1.1754132e-06
0.00053719109
-4.6975746e-06
0.0016115725
-1.0549823e-05
0.0026859176
-1.8691112e-05
0.0037600524
-2.9028646e-05
0.0048334692
-4.1359357e-05
0.005904916
-5.523857e-05
0.0069714927
-6.9643368e-05
0.0080264582
-8.2022666e-05
0.0090530899
-8.6510762e-05
0.01000855
-7.5984508e-05
0.010805315
-5.3191501e-05
0.011345958
-2.9079895e-05
0.011571953
-1.0688595e-05
0.011371582
0.010207478
-1.167015e-06
0.0005383581
-4.6636049e-06
0.0016150691
-1.0471648e-05
0.0026917256
-1.8546759e-05
0.0037681275
-2.8788947e-05
0.0048437114
-4.0979374e-05
0.0059171064
-5.4636395e-05
0.0069851497
-6.8640864e-05
0.0080404627
-8.0204388e-05
0.0090646534
-8.3256605e-05
0.010011602
-7.1654162e-05
0.010793713
-4.947446e-05
0.011323778
-2.685348e-05
0.011549332
-9.8098376e-06
0.011354539
0.010197668
-1.1588821e-06
0.00053951698
-4.6306732e-06
0.0016185409
-1.0395699e-05
0.0026974906
-1.8405998e-05
0.0037761378
-2.8553814e-05
0.0048538592
-4.0603084e-05
0.0059291557
-5.4031298e-05
0.0069985779
-6.761273e-05
0.0080540441
-7.8312618e-05
0.0090753533
-7.9945363e-05
0.010013235
-6.7479754e-05
0.010781247
-4.6018014e-05
0.011302317
-2.4809124e-05
0.011528123
-9.0104945e-06
0.01133874
0.010188658
-1.1509851e-06
0.00054066797
-4.5986597e-06
0.0016219886
-1.0321694e-05
0.0027032137
-1.8268292e-05
0.0037840844
-2.832229e-05
0.0048639132
-4.0228782e-05
0.0059410622
-5.342006e-05
0.0070117692
-6.6552937e-05
0.008067177
-7.6342857e-05
0.0090851432
-7.6595468e-05
0.010013488
-6.3474182e-05
0.010768126
-4.280199e-05
0.011281644
-2.2926397e-05
0.011508247
-8.2791881e-06
0.011324093
0.010180379
-1.1432988e-06
0.00054181127
-4.5674617e-06
0.0016254127
-1.024939e-05
0.0027088956
-1.8133167e-05
0.0037919682
-2.8093501e-05
0.0048738736
-3.9854848e-05
0.0059528235
-5.2799503e-05
0.0070247139
-6.5455669e-05
0.0080798332
-7.4292868e-05
0.0090939804
-7.3227358e-05
0.010012422
-5.9645235e-05
0.010754544
-3.9807052e-05
0.011261806
-2.1187554e-05
0.011489628
-7.6065198e-06
0.011310512
0.010172772
-1.1358015e-06
0.00054294707
-4.5369894e-06
0.0016288139
-1.0178572e-05
0.0027145372
-1.8000189e-05
0.0037997898
-2.7866629e-05
0.00488374
-3.9479707e-05
0.0059644366
-5.216644e-05
0.0070374006
-6.4315375e-05
0.0080919821
-7.2162882e-05
0.0091018279
-6.9862207e-05
0.010010121
-5.5996183e-05
0.010740678
-3.7015055e-05
0.011242825
-1.9577177e-05
0.01147219
-6.9847574e-06
0.011297919
0.010165787
-1.128474e-06
0.00054407554
-4.5071634e-06
0.0016321926
-1.0109046e-05
0.0027201391
-1.7868961e-05
0.0038075497
-2.7640891e-05
0.0048935119
-3.9101797e-05
0.0059758975
-5.1517647e-05
0.0070498164
-6.3126874e-05
0.0081035913
-6.9955762e-05
0.0091086568
-6.652075e-05
0.010006686
-5.2526615e-05
0.010726684
-3.4409225e-05
0.011224708
-1.8081858e-05
0.011455863
-6.4075102e-06
0.011286245
0.01015938
-1.1212991e-06
0.00054519684
-4.4779116e-06
0.0016355492
-1.0040632e-05
0.0027257018
-1.77391e-05
0.0038152482
-2.7415518e-05
0.0049031883
-3.8719536e-05
0.0059872015
-5.0849827e-05
0.0070619467
-6.1885477e-05
0.008114627
-6.7676978e-05
0.0091144483
-6.3222235e-05
0.010002232
-4.9233248e-05
0.010712695
-3.197418e-05
0.011207449
-1.6689941e-05
0.011440578
-5.8695231e-06
0.011275425
0.01015351
-1.1142615e-06
0.00054631111
-4.4491679e-06
0.0016388841
-9.9731616e-06
0.0027312258
-1.7610243e-05
0.0038228853
-2.7189745e-05
0.0049127679
-3.8331312e-05
0.0059983431
-5.015962e-05
0.007073775
-6.0587174e-05
0.0081250545
-6.5334501e-05
0.0091191957
-5.9983696e-05
0.0099968809
-4.6110793e-05
0.010698822
-2.9695898e-05
0.011191034
-1.5391265e-05
0.011426274
-5.3664011e-06
0.0112654
0.010148144
-1.1073465e-06
0.00054741845
-4.42087e-06
0.0016421977
-9.9064721e-06
0.0027367114
-1.7482024e-05
0.0038304608
-2.6962797e-05
0.0049222486
-3.7935447e-05
0.0060093157
-4.94436e-05
0.0070852832
-5.9228794e-05
0.0081348397
-6.2938448e-05
0.0091229053
-5.6819434e-05
0.0099907619
-4.3152576e-05
0.010685155
-2.7561611e-05
0.011175443
-1.4176975e-05
0.011412889
-4.8945023e-06
0.011256117
0.010143249
-1.1005404e-06
0.00054851899
-4.3929579e-06
0.0016454901
-9.8404048e-06
0.0027421588
-1.7354082e-05
0.0038379745
-2.6733875e-05
0.0049316284
-3.7530193e-05
0.006020112
-4.8698309e-05
0.0070964513
-5.7808227e-05
0.0081439496
-6.0500661e-05
0.0091255977
-5.3740863e-05
0.0099840021
-4.0351157e-05
0.010671765
-2.5559733e-05
0.011160651
-1.3039324e-05
0.011400369
-4.4507401e-06
0.011247529
0.010138799
-1.0938298e-06
0.00054961282
-4.3653726e-06
0.0016487616
-9.7747986e-06
0.0027475682
-1.722604e-05
0.0038454257
-2.6502143e-05
0.0049409045
-3.71137e-05
0.0060307236
-4.7920289e-05
0.0071072579
-5.6324578e-05
0.0081523539
-5.8034102e-05
0.0091273073
-5.0756509e-05
0.0099767245
-3.7698664e-05
0.010658707
-2.3679733e-05
0.011146632
-1.1971532e-05
0.011388661
-4.032542e-06
0.01123959
0.010134766
-1.0872017e-06
0.00055070002
-4.3380553e-06
0.0016520125
-9.709492e-06
0.0027529397
-1.7097512e-05
0.0038528138
-2.6266727e-05
0.0049500737
-3.6684034e-05
0.0060411409
-4.7106172e-05
0.00711768
-5.4778366e-05
0.0081600261
-5.5552284e-05
0.0091280812
-4.7872288e-05
0.0099690445
-3.5187169e-05
0.010646022
-2.1912068e-05
0.011133357
-1.0967627e-05
0.011377716
-3.6376743e-06
0.01123226
0.010131128
-1.0806428e-06
0.00055178067
-4.3109466e-06
0.0016552428
-9.6443174e-06
0.0027582731
-1.6968094e-05
0.0038601375
-2.60267e-05
0.0049591323
-3.6239148e-05
0.0060513533
-4.6252745e-05
0.0071276936
-5.3171588e-05
0.008166945
-5.3068624e-05
0.0091279782
-4.5091784e-05
0.0099610677
-3.2808794e-05
0.010633739
-2.0248067e-05
0.011120797
-1.0022339e-05
0.01136749
-3.2642479e-06
0.011225502
0.010127864
-1.0741398e-06
0.00055285481
-4.2839854e-06
0.0016584526
-9.5791014e-06
0.0027635682
-1.6837361e-05
0.0038673958
-2.5781077e-05
0.0049680761
-3.5776901e-05
0.0060613492
-4.5357069e-05
0.0071372738
-5.1507783e-05
0.0081730957
-5.059594e-05
0.0091270664
-4.2416685e-05
0.0099528884
-3.0555918e-05
0.010621879
-1.8679876e-05
0.011108921
-9.1309907e-06
0.011357942
-2.9105953e-06
0.011219281
0.010124954
-1.0676788e-06
0.00055392248
-4.2571076e-06
0.0016616421
-9.5136588e-06
0.0027688247
-1.6704855e-05
0.003874587
-2.5528803e-05
0.0049769
-3.529505e-05
0.0060711154
-4.4416581e-05
0.0071463953
-4.9791939e-05
0.008178471
-4.8145981e-05
0.0091254204
-3.9847114e-05
0.0099445896
-2.8421176e-05
0.010610453
-1.720036e-05
0.0110977
-8.2894281e-06
0.011349031
-2.5752946e-06
0.011213567
0.010122378
-1.0612455e-06
0.00055498373
-4.2302464e-06
0.0016648111
-9.4477957e-06
0.0027740423
-1.6570095e-05
0.0038817093
-2.5268753e-05
0.0049855987
-3.4791285e-05
0.006080638
-4.3429246e-05
0.0071550333
-4.8030385e-05
0.0081830722
-4.5729171e-05
0.0091231192
-3.7382033e-05
0.0099362424
-2.639758e-05
0.010599468
-1.580305e-05
0.011087105
-7.4939268e-06
0.011340721
-2.2570544e-06
0.01120833
0.010120121
-1.0548248e-06
0.00055603855
-4.2033312e-06
0.0016679596
-9.3813045e-06
0.0027792202
-1.6432561e-05
0.0038887605
-2.4999723e-05
0.0049941658
-3.4263244e-05
0.0060899015
-4.239367e-05
0.0071631637
-4.6230528e-05
0.008186909
-4.3354396e-05
0.0091202431
-3.5019499e-05
0.0099279075
-2.447847e-05
0.010588927
-1.4482064e-05
0.011077109
-6.7411526e-06
0.011332981
-1.9547488e-06
0.011203544
0.010118167
-1.0484006e-06
0.00055708696
-4.1762865e-06
0.0016710875
-9.3139631e-06
0.0027843579
-1.6291695e-05
0.0038957383
-2.4720427e-05
0.0050025946
-3.3708557e-05
0.0060988896
-4.1309235e-05
0.0071707644
-4.4400583e-05
0.0081900004
-4.1028991e-05
0.0091168715
-3.2756945e-05
0.0099196355
-2.2657584e-05
0.010578828
-1.3232056e-05
0.011067683
-6.0280982e-06
0.011325777
-1.667352e-06
0.011199183
0.010116499
-1.0419558e-06
0.00055812891
-4.1490312e-06
0.0016741945
-9.2455315e-06
0.0027894544
-1.6146897e-05
0.0039026396
-2.4429493e-05
0.0050108772
-3.3124894e-05
0.006107585
-4.0176196e-05
0.0071778157
-4.2549225e-05
0.0081923734
-3.8758763e-05
0.009113081
-3.0591354e-05
0.0099114681
-2.0929015e-05
0.010569165
-1.2048153e-05
0.011058802
-5.3520517e-06
0.011319081
-1.3939518e-06
0.011195225
0.010115105
-1.035472e-06
0.00055916438
-4.121478e-06
0.0016772805
-9.1757511e-06
0.0027945087
-1.5997517e-05
0.0039094614
-2.4125466e-05
0.0050190051
-3.2510028e-05
0.0061159696
-3.8995757e-05
0.0071843014
-4.0685262e-05
0.0081940629
-3.6548127e-05
0.0091089439
-2.8519416e-05
0.0099034394
-1.9287229e-05
0.010559933
-1.0925908e-05
0.011050441
-4.7105498e-06
0.011312865
-1.1337088e-06
0.011191648
0.010113972
-1.0289292e-06
0.00056019331
-4.0935322e-06
0.0016803451
-9.1043415e-06
0.0027995195
-1.5842857e-05
0.0039161999
-2.3806808e-05
0.0050269691
-3.1861908e-05
0.0061240247
-3.7770097e-05
0.0071902096
-3.8817321e-05
0.0081951102
-3.4400253e-05
0.0091045268
-2.6537644e-05
0.0098955768
-1.7727046e-05
0.010551123
-9.8612598e-06
0.011042575
-4.1013532e-06
0.011307105
-8.858578e-07
0.011188433
0.010113086
-1.0223055e-06
0.00056121562
-4.0650899e-06
0.0016833879
-9.0309962e-06
0.0028044854
-1.5682157e-05
0.0039228511
-2.3471907e-05
0.0050347588
-3.117873e-05
0.0061317315
-3.6502335e-05
0.0071955332
-3.6953565e-05
0.0081955614
-3.231723e-05
0.0090998905
-2.4642437e-05
0.009887902
-1.6243608e-05
0.010542724
-8.850471e-06
0.011035182
-3.5224096e-06
0.011301777
-6.496967e-07
0.01118556
0.010112436
-1.0155762e-06
0.00056223119
-4.0360349e-06
0.0016864084
-8.9553757e-06
0.0028094047
-1.5514585e-05
0.0039294103
-2.3119072e-05
0.0050423633
-3.0459014e-05
0.0061390714
-3.5196437e-05
0.0072002706
-3.5101461e-05
0.0081954664
-3.0300205e-05
0.0090950892
-2.283011e-05
0.0098804319
-1.483232e-05
0.010534726
-7.8900485e-06
0.01102824
-2.9717787e-06
0.011296859
-4.2453752e-07
0.011183013
0.010112011
-1.0087125e-06
0.00056323991
-4.0062327e-06
0.0016894059
-8.8770934e-06
0.0028142756
-1.5339216e-05
0.0039358724
-2.2746524e-05
0.0050497706
-2.9701626e-05
0.0061460265
-3.3856998e-05
0.007204426
-3.3267521e-05
0.0081948769
-2.8349366e-05
0.009090171
-2.10967e-05
0.0098731792
-1.3488502e-05
0.010527118
-6.9762943e-06
0.011021728
-2.4471111e-06
0.01129233
-2.0916809e-07
0.011180775
0.010111802
-1.0016842e-06
0.00056424159
-3.9755406e-06
0.0016923798
-8.7957366e-06
0.0028190958
-1.5155069e-05
0.0039422317
-2.2352488e-05
0.005056968
-2.8905966e-05
0.00615258
-3.2489214e-05
0.0072080093
-3.1457395e-05
0.0081938451
-2.6464298e-05
0.009085178
-1.9438258e-05
0.0098661532
-1.220767e-05
0.010519887
-6.1055118e-06
0.011015626
-1.9450549e-06
0.011288169
8.7552025e-09
0.011178821
0.010111811
-9.944656e-07
0.00056523606
-3.9438358e-06
0.0016953291
-8.7109359e-06
0.0028238629
-1.4961239e-05
0.003948482
-2.1935451e-05
0.0050639422
-2.8072362e-05
0.0061587169
-3.1099161e-05
0.0072110361
-2.967652e-05
0.0081924225
-2.4644997e-05
0.0090801464
-1.7852073e-05
0.0098593602
-1.0987081e-05
0.010513022
-5.2761398e-06
0.011009915
-1.4653757e-06
0.011284358
2.2411098e-07
0.011177131
0.010112035
-9.8703053e-07
0.00056622309
-3.9109914e-06
0.0016982531
-8.6223067e-06
0.0028285742
-1.4756799e-05
0.0039546165
-2.1494033e-05
0.0050706795
-2.7201864e-05
0.0061644247
-2.9693232e-05
0.0072135274
-2.7929636e-05
0.0081906589
-2.2891299e-05
0.0090751081
-1.6335812e-05
0.0098528047
-9.8246039e-06
0.010506511
-4.4873689e-06
0.011004577
-1.0096074e-06
0.011280881
4.2186264e-07
0.0111757
0.010112457
-9.793411e-07
0.00056720243
-3.8768288e-06
0.0017011506
-8.5293398e-06
0.0028332267
-1.4540605e-05
0.0039606278
-2.102673e-05
0.0050771656
-2.6295809e-05
0.0061696938
-2.8277294e-05
0.0072155089
-2.6219972e-05
0.0081886016
-2.1201804e-05
0.0090700899
-1.4886033e-05
0.009846489
-8.716777e-06
0.010500342
-3.7366461e-06
0.010999597
-5.7656375e-07
0.011277721
6.051983e-07
0.011174518
0.010113062
-9.7135121e-07
0.00056817378
-3.8411367e-06
0.0017040204
-8.4314492e-06
0.002837817
-1.4311405e-05
0.0039665077
-2.053213e-05
0.0050833863
-2.5356052e-05
0.0061745177
-2.6856871e-05
0.0072170097
-2.4549817e-05
0.0081862945
-1.9574619e-05
0.0090651147
-1.3499071e-05
0.0098404134
-7.6598348e-06
0.010494503
-3.0202335e-06
0.010994958
-1.5742294e-07
0.011274858
7.7754685e-07
0.011173583
0.01011384
-9.6301333e-07
0.00056913679
-3.8036982e-06
0.001706861
-8.3280363e-06
0.0028423414
-1.4067965e-05
0.0039722477
-2.0009164e-05
0.0050893275
-2.4385194e-05
0.0061788938
-2.5437373e-05
0.0072180619
-2.2921077e-05
0.0081837782
-1.8008014e-05
0.0090602017
-1.2171784e-05
0.0098345772
-6.650634e-06
0.010488981
-2.3351345e-06
0.010990642
2.5115725e-07
0.011272272
9.4174747e-07
0.011172893
0.010114781
-9.5427891e-07
0.00057009107
-3.7642917e-06
0.0017096711
-8.2184907e-06
0.0028467956
-1.3809089e-05
0.0039778383
-1.9457164e-05
0.0050949756
-2.338651e-05
0.0061828231
-2.4023984e-05
0.0072186994
-2.133536e-05
0.0081810896
-1.6500468e-05
0.0090553668
-1.0901588e-05
0.0098289783
-5.6868919e-06
0.010483767
-1.6806147e-06
0.010986636
6.4000928e-07
0.011269951
1.0986171e-06
0.011172434
0.01011588
-9.4509438e-07
0.00057103617
-3.7226734e-06
0.0017124486
-8.1021553e-06
0.0028511751
-1.3533584e-05
0.0039832697
-1.8875825e-05
0.0051003178
-2.2363709e-05
0.006186311
-2.2621404e-05
0.0072189571
-1.9793788e-05
0.008178262
-1.5050376e-05
0.0090506234
-9.6860368e-06
0.009823614
-4.7666153e-06
0.010478847
-1.0563175e-06
0.010982926
1.0058975e-06
0.011267889
1.2477394e-06
0.011172192
0.010117128
-9.3539791e-07
0.00057197156
-3.6785662e-06
0.0017151918
-7.978303e-06
0.0028554748
-1.3240239e-05
0.0039885316
-1.8265183e-05
0.0051053428
-2.1320708e-05
0.0061893665
-2.1233655e-05
0.00721887
-1.8296864e-05
0.0081753252
-1.3655791e-05
0.0090459823
-8.522411e-06
0.0098184806
-3.8871954e-06
0.010474212
-4.5878255e-07
0.010979497
1.3517829e-06
0.011266078
1.3890539e-06
0.011172155
0.010118517
-9.2512158e-07
0.00057289669
-3.6316695e-06
0.0017178984
-7.8461696e-06
0.0028596893
-1.2927919e-05
0.0039936134
-1.7625744e-05
0.0051100406
-2.0261651e-05
0.0061920024
-1.9864291e-05
0.0072184727
-1.6844825e-05
0.0081723057
-1.2314819e-05
0.0090414523
-7.4080737e-06
0.0098135739
-3.0453232e-06
0.010469849
1.2061211e-07
0.010976331
1.6809654e-06
0.011264518
1.5229314e-06
0.011172313
0.01012004
-9.1419079e-07
0.00057381088
-3.5816572e-06
0.0017205658
-7.704953e-06
0.0028638126
-1.2595593e-05
0.003998504
-1.6958478e-05
0.0051144035
-1.9190751e-05
0.0061942347
-1.8516341e-05
0.0072177982
-1.543759e-05
0.008169227
-1.1025513e-05
0.0090370402
-6.3405105e-06
0.0098088889
-2.2389046e-06
0.010465748
6.7795887e-07
0.010973414
1.995747e-06
0.0112632
1.6504153e-06
0.011172658
0.01012169
-9.0252444e-07
0.0005747134
-3.5281793e-06
0.0017231915
-7.5538293e-06
0.0028678382
-1.2242389e-05
0.0040031926
-1.6264839e-05
0.005118426
-1.811221e-05
0.0061960821
-1.7192405e-05
0.0072168784
-1.4074921e-05
0.0081661095
-9.7860693e-06
0.0090327513
-5.3177207e-06
0.0098044205
-1.467558e-06
0.010461898
1.205157e-06
0.010970742
2.2962201e-06
0.011262109
1.7722174e-06
0.011173182
0.010123462
-8.9003383e-07
0.00057560343
-3.4708588e-06