/*--------------------------------*- C++ -*----------------------------------*\
| =========                 |                                                 |
| \\      /  F ield         | OpenFOAM: The Open Source CFD Toolbox           |
|  \\    /   O peration     | Version:  2506                                  |
|   \\  /    A nd           | Website:  www.openfoam.com                      |
|    \\/     M anipulation  |                                                 |
\*---------------------------------------------------------------------------*/
FoamFile
{
    version     2.0;
    format      ascii;
    arch        "LSB;label=32;scalar=64";
    class       volScalarField;
    location    "1000/water";
    object      T;
}
// * * * * * * * * * * * * * * * * * * * * * * * * * * * * * * * * * * * * * //

dimensions      [0 0 0 1 0 0 0];

internalField   nonuniform List<scalar> 
6000
(
333.15
333.15
333.15
333.15
333.15
333.15
333.15
333.15
333.15
333.15
333.15
333.14998
333.14989
333.14922
333.1424
333.15
333.15
333.15
333.15
333.15
333.15
333.15
333.15
333.15
333.15
333.14999
333.14994
333.14968
333.14812
333.13634
333.15
333.15
333.15
333.15
333.15
333.15
333.15
333.15
333.15
333.14999
333.14997
333.14986
333.14938
333.14681
333.13119
333.15
333.15
333.15
333.15
333.15
333.15
333.15
333.15
333.15
333.14999
333.14994
333.14976
333.149
333.14534
333.12665
333.15
333.15
333.15
333.15
333.15
333.15
333.15
333.15
333.14999
333.14997
333.1499
333.14962
333.14856
333.14376
333.12254
333.15
333.15
333.15
333.15
333.15
333.15
333.15
333.15
333.14999
333.14996
333.14984
333.14946
333.14807
333.1421
333.11876
333.15
333.15
333.15
333.15
333.15
333.15
333.15
333.14999
333.14998
333.14993
333.14978
333.14927
333.14752
333.14038
333.11523
333.15
333.15
333.15
333.15
333.15
333.15
333.15
333.14999
333.14997
333.1499
333.1497
333.14906
333.14693
333.13861
333.11193
333.15
333.15
333.15
333.15
333.15
333.15
333.15
333.14999
333.14996
333.14987
333.1496
333.14882
333.14629
333.13681
333.10881
333.15
333.15
333.15
333.15
333.15
333.15
333.14999
333.14998
333.14994
333.14983
333.1495
333.14857
333.14561
333.13499
333.10587
333.15
333.15
333.15
333.15
333.15
333.15
333.14999
333.14997
333.14992
333.14978
333.14938
333.14829
333.14489
333.13316
333.10307
333.15
333.15
333.15
333.15
333.15
333.15
333.14999
333.14997
333.1499
333.14972
333.14926
333.148
333.14412
333.13132
333.10042
333.15
333.15
333.15
333.15
333.15
333.14999
333.14998
333.14995
333.14987
333.14966
333.14912
333.14768
333.1433
333.12948
333.0979
333.15
333.15
333.15
333.15
333.15
333.14999
333.14998
333.14994
333.14984
333.14959
333.14897
333.14733
333.14244
333.12765
333.09552
333.15
333.15
333.15
333.15
333.15
333.14999
333.14997
333.14993
333.14981
333.14952
333.14881
333.14697
333.14152
333.12584
333.09326
333.15
333.15
333.15
333.15
333.15
333.14999
333.14997
333.14991
333.14977
333.14944
333.14864
333.14657
333.14056
333.12405
333.09114
333.15
333.15
333.15
333.15
333.14999
333.14998
333.14996
333.14989
333.14973
333.14935
333.14846
333.14615
333.13954
333.12229
333.08913
333.15
333.15
333.15
333.15
333.14999
333.14998
333.14995
333.14987
333.14969
333.14926
333.14826
333.14569
333.13848
333.12057
333.08725
333.15
333.15
333.15
333.15
333.14999
333.14998
333.14994
333.14985
333.14964
333.14916
333.14805
333.1452
333.13736
333.11889
333.08549
333.15
333.15
333.15
333.14999
333.14999
333.14997
333.14993
333.14982
333.14959
333.14905
333.14782
333.14467
333.1362
333.11725
333.08384
333.15
333.15
333.15
333.14999
333.14999
333.14996
333.14991
333.14979
333.14953
333.14894
333.14757
333.1441
333.13499
333.11566
333.0823
333.15
333.15
333.15
333.14999
333.14998
333.14996
333.1499
333.14976
333.14947
333.14881
333.14731
333.14349
333.13375
333.11413
333.08087
333.15
333.15
333.15
333.14999
333.14998
333.14995
333.14988
333.14973
333.1494
333.14868
333.14702
333.14282
333.13249
333.11265
333.07953
333.15
333.15
333.14999
333.14999
333.14997
333.14994
333.14986
333.14969
333.14933
333.14854
333.14671
333.14211
333.1312
333.11124
333.07828
333.15
333.15
333.14999
333.14999
333.14997
333.14993
333.14984
333.14966
333.14925
333.14838
333.14637
333.14135
333.12991
333.10988
333.0771
333.15
333.15
333.14999
333.14998
333.14997
333.14992
333.14982
333.14961
333.14917
333.14822
333.146
333.14054
333.12861
333.10857
333.076
333.15
333.15
333.14999
333.14998
333.14996
333.14991
333.1498
333.14957
333.14908
333.14804
333.1456
333.13969
333.12733
333.10732
333.07497
333.15
333.14999
333.14999
333.14998
333.14995
333.1499
333.14978
333.14952
333.14899
333.14784
333.14517
333.13879
333.12606
333.10613
333.07399
333.15
333.14999
333.14999
333.14998
333.14995
333.14988
333.14975
333.14947
333.14889
333.14763
333.14469
333.13786
333.12481
333.10498
333.07306
333.14999
333.14999
333.14999
333.14997
333.14994
333.14987
333.14972
333.14941
333.14878
333.1474
333.14418
333.1369
333.12359
333.10388
333.07217
333.14999
333.14999
333.14998
333.14997
333.14993
333.14985
333.14969
333.14935
333.14866
333.14714
333.14363
333.13591
333.1224
333.10283
333.07133
333.14999
333.14999
333.14998
333.14996
333.14992
333.14983
333.14965
333.14929
333.14853
333.14687
333.14304
333.13491
333.12124
333.10182
333.07051
333.14999
333.14999
333.14998
333.14996
333.14991
333.14981
333.14962
333.14922
333.14839
333.14657
333.14241
333.13389
333.12012
333.10084
333.06973
333.14999
333.14999
333.14998
333.14995
333.1499
333.14979
333.14958
333.14914
333.14823
333.14624
333.14174
333.13287
333.11903
333.0999
333.06898
333.14999
333.14998
333.14997
333.14995
333.14989
333.14977
333.14953
333.14906
333.14807
333.14588
333.14104
333.13185
333.11798
333.09899
333.06825
333.14999
333.14998
333.14997
333.14994
333.14988
333.14975
333.14949
333.14897
333.14789
333.1455
333.14031
333.13084
333.11696
333.09811
333.06753
333.14999
333.14998
333.14996
333.14993
333.14986
333.14972
333.14944
333.14887
333.14769
333.14508
333.13954
333.12983
333.11597
333.09726
333.06684
333.14998
333.14998
333.14996
333.14992
333.14985
333.14969
333.14939
333.14877
333.14747
333.14463
333.13876
333.12885
333.11501
333.09644
333.06617
333.14998
333.14997
333.14995
333.14991
333.14983
333.14966
333.14933
333.14865
333.14724
333.14415
333.13795
333.12787
333.11408
333.09564
333.06551
333.14998
333.14997
333.14995
333.1499
333.14981
333.14963
333.14926
333.14853
333.14698
333.14364
333.13713
333.12692
333.11317
333.09486
333.06486
333.14998
333.14997
333.14994
333.14989
333.14979
333.14959
333.1492
333.1484
333.1467
333.14309
333.1363
333.12598
333.11229
333.0941
333.06423
333.14997
333.14996
333.14994
333.14988
333.14977
333.14955
333.14912
333.14825
333.1464
333.14252
333.13547
333.12506
333.11144
333.09336
333.06361
333.14997
333.14996
333.14993
333.14987
333.14975
333.14951
333.14904
333.14809
333.14608
333.14192
333.13463
333.12416
333.11061
333.09264
333.063
333.14997
333.14995
333.14992
333.14986
333.14973
333.14947
333.14896
333.14792
333.14572
333.1413
333.1338
333.12329
333.1098
333.09194
333.0624
333.14996
333.14995
333.14991
333.14984
333.1497
333.14942
333.14886
333.14773
333.14535
333.14065
333.13296
333.12243
333.10901
333.09125
333.06181
333.14996
333.14994
333.14991
333.14983
333.14967
333.14937
333.14876
333.14752
333.14494
333.13999
333.13214
333.12159
333.10824
333.09058
333.06123
333.14995
333.14994
333.1499
333.14981
333.14964
333.14931
333.14865
333.1473
333.14451
333.13931
333.13132
333.12076
333.10749
333.08992
333.06065
333.14995
333.14993
333.14988
333.14979
333.14961
333.14925
333.14853
333.14706
333.14405
333.13862
333.1305
333.11996
333.10675
333.08927
333.06009
333.14994
333.14992
333.14987
333.14977
333.14957
333.14918
333.1484
333.14679
333.14357
333.13792
333.1297
333.11917
333.10604
333.08863
333.05953
333.14994
333.14991
333.14986
333.14975
333.14953
333.14911
333.14825
333.14651
333.14306
333.13721
333.12891
333.1184
333.10533
333.08801
333.05898
333.14993
333.14991
333.14985
333.14973
333.14949
333.14903
333.1481
333.1462
333.14254
333.13649
333.12813
333.11764
333.10464
333.0874
333.05843
333.14992
333.1499
333.14983
333.1497
333.14944
333.14894
333.14793
333.14587
333.14199
333.13578
333.12736
333.1169
333.10397
333.08679
333.05789
333.14991
333.14989
333.14982
333.14967
333.14939
333.14884
333.14774
333.14552
333.14143
333.13506
333.1266
333.11617
333.1033
333.0862
333.05736
333.1499
333.14988
333.1498
333.14964
333.14934
333.14874
333.14754
333.14515
333.14085
333.13435
333.12586
333.11546
333.10265
333.08561
333.05684
333.1499
333.14986
333.14978
333.14961
333.14928
333.14863
333.14732
333.14475
333.14025
333.13364
333.12512
333.11476
333.10201
333.08504
333.05631
333.14988
333.14985
333.14976
333.14958
333.14922
333.14851
333.14709
333.14433
333.13965
333.13293
333.1244
333.11407
333.10139
333.08447
333.0558
333.14987
333.14984
333.14974
333.14954
333.14915
333.14837
333.14683
333.1439
333.13903
333.13222
333.12369
333.1134
333.10077
333.08391
333.05529
333.14986
333.14982
333.14972
333.1495
333.14907
333.14823
333.14656
333.14344
333.13841
333.13152
333.12298
333.11273
333.10016
333.08336
333.05478
333.14985
333.1498
333.14969
333.14945
333.14899
333.14807
333.14626
333.14296
333.13779
333.13083
333.12229
333.11208
333.09956
333.08281
333.05428
333.14983
333.14979
333.14966
333.1494
333.1489
333.1479
333.14595
333.14247
333.13715
333.13014
333.12161
333.11144
333.09897
333.08227
333.05379
333.14982
333.14977
333.14963
333.14935
333.1488
333.14771
333.14562
333.14196
333.13652
333.12946
333.12094
333.11081
333.09839
333.08174
333.0533
333.1498
333.14975
333.1496
333.14929
333.14869
333.14751
333.14527
333.14144
333.13589
333.12879
333.12028
333.11018
333.09781
333.08122
333.05281
333.14978
333.14972
333.14956
333.14923
333.14857
333.14729
333.14489
333.1409
333.13525
333.12812
333.11963
333.10957
333.09725
333.0807
333.05233
333.14976
333.1497
333.14952
333.14916
333.14845
333.14706
333.1445
333.14036
333.13462
333.12746
333.11898
333.10897
333.09669
333.08018
333.05186
333.14974
333.14967
333.14948
333.14908
333.14831
333.14681
333.14409
333.13981
333.13398
333.12681
333.11835
333.10837
333.09614
333.07967
333.05138
333.14972
333.14964
333.14943
333.149
333.14816
333.14654
333.14367
333.13924
333.13335
333.12616
333.11772
333.10778
333.09559
333.07917
333.05092
333.14969
333.14961
333.14938
333.14891
333.14799
333.14625
333.14322
333.13868
333.13272
333.12553
333.11711
333.1072
333.09506
333.07867
333.05045
333.14967
333.14957
333.14932
333.14881
333.14782
333.14595
333.14276
333.1381
333.13209
333.12489
333.1165
333.10663
333.09452
333.07817
333.04999
333.14964
333.14953
333.14926
333.14871
333.14762
333.14562
333.14229
333.13753
333.13147
333.12427
333.1159
333.10606
333.094
333.07769
333.04953
333.1496
333.14949
333.14919
333.14859
333.14742
333.14528
333.14181
333.13695
333.13085
333.12365
333.1153
333.10551
333.09348
333.0772
333.04908
333.14957
333.14944
333.14912
333.14846
333.14719
333.14492
333.14131
333.13637
333.13024
333.12304
333.11471
333.10495
333.09296
333.07672
333.04863
333.14953
333.14939
333.14904
333.14832
333.14695
333.14454
333.14081
333.13578
333.12963
333.12243
333.11413
333.10441
333.09245
333.07625
333.04818
333.14948
333.14934
333.14895
333.14817
333.1467
333.14415
333.1403
333.1352
333.12902
333.12183
333.11356
333.10387
333.09195
333.07578
333.04774
333.14943
333.14927
333.14885
333.14801
333.14642
333.14374
333.13977
333.13462
333.12842
333.12124
333.11299
333.10333
333.09145
333.07531
333.0473
333.14938
333.14921
333.14875
333.14783
333.14613
333.14331
333.13925
333.13403
333.12782
333.12065
333.11243
333.1028
333.09095
333.07485
333.04686
333.14932
333.14913
333.14863
333.14764
333.14582
333.14288
333.13871
333.13345
333.12722
333.12007
333.11188
333.10228
333.09046
333.07439
333.04643
333.14926
333.14905
333.14851
333.14743
333.14549
333.14243
333.13817
333.13287
333.12664
333.1195
333.11133
333.10176
333.08998
333.07393
333.046
333.14919
333.14896
333.14837
333.1472
333.14515
333.14196
333.13763
333.13229
333.12605
333.11893
333.11078
333.10125
333.0895
333.07348
333.04557
333.14911
333.14886
333.14822
333.14696
333.14479
333.14149
333.13708
333.13171
333.12547
333.11836
333.11024
333.10074
333.08902
333.07303
333.04514
333.14903
333.14876
333.14806
333.14671
333.14441
333.14101
333.13654
333.13113
333.12489
333.1178
333.10971
333.10024
333.08855
333.07258
333.04472
333.14893
333.14864
333.14788
333.14643
333.14402
333.14052
333.13598
333.13056
333.12432
333.11725
333.10918
333.09974
333.08808
333.07214
333.0443
333.14883
333.14851
333.14769
333.14614
333.14361
333.14002
333.13543
333.12999
333.12375
333.1167
333.10866
333.09924
333.08761
333.0717
333.04388
333.14872
333.14837
333.14748
333.14583
333.14319
333.13951
333.13488
333.12942
333.12319
333.11615
333.10814
333.09875
333.08715
333.07126
333.04346
333.14859
333.14821
333.14725
333.1455
333.14276
333.139
333.13432
333.12885
333.12263
333.11561
333.10762
333.09827
333.08669
333.07083
333.04305
333.14845
333.14804
333.14701
333.14516
333.14231
333.13848
333.13377
333.12829
333.12208
333.11508
333.10711
333.09779
333.08624
333.0704
333.04264
333.1483
333.14785
333.14675
333.1448
333.14186
333.13796
333.13321
333.12773
333.12152
333.11455
333.10661
333.09731
333.08578
333.06997
333.04223
333.14813
333.14765
333.14647
333.14442
333.14139
333.13743
333.13266
333.12717
333.12098
333.11402
333.10611
333.09683
333.08533
333.06954
333.04182
333.14795
333.14743
333.14617
333.14402
333.14091
333.1369
333.1321
333.12661
333.12043
333.1135
333.10561
333.09636
333.08489
333.06912
333.04142
333.14774
333.14719
333.14586
333.14361
333.14042
333.13636
333.13155
333.12606
333.11989
333.11298
333.10512
333.09589
333.08444
333.06869
333.04102
333.14752
333.14693
333.14552
333.14319
333.13993
333.13582
333.131
333.1255
333.11935
333.11246
333.10463
333.09543
333.084
333.06827
333.04061
333.14728
333.14665
333.14516
333.14275
333.13942
333.13528
333.13044
333.12496
333.11882
333.11195
333.10414
333.09497
333.08357
333.06786
333.04022
333.14702
333.14635
333.14479
333.1423
333.13891
333.13474
333.12989
333.12441
333.11829
333.11144
333.10366
333.09451
333.08313
333.06744
333.03982
333.14673
333.14602
333.14439
333.14183
333.13839
333.1342
333.12934
333.12387
333.11777
333.11094
333.10318
333.09405
333.0827
333.06703
333.03942
333.14642
333.14568
333.14398
333.14135
333.13787
333.13365
333.12879
333.12333
333.11724
333.11044
333.1027
333.0936
333.08227
333.06662
333.03903
333.14608
333.14531
333.14355
333.14086
333.13734
333.1331
333.12824
333.12279
333.11672
333.10994
333.10223
333.09315
333.08184
333.06621
333.03864
333.14572
333.14491
333.1431
333.14036
333.1368
333.13255
333.12769
333.12225
333.11621
333.10945
333.10175
333.0927
333.08141
333.0658
333.03824
333.14534
333.1445
333.14264
333.13985
333.13626
333.132
333.12714
333.12172
333.11569
333.10896
333.10129
333.09225
333.08098
333.06539
333.03785
333.14492
333.14406
333.14215
333.13933
333.13572
333.13145
333.1266
333.12119
333.11518
333.10847
333.10082
333.09181
333.08056
333.06499
333.03747
333.14448
333.1436
333.14165
333.1388
333.13517
333.1309
333.12606
333.12066
333.11467
333.10798
333.10036
333.09137
333.08014
333.06459
333.03708
333.14402
333.14311
333.14114
333.13826
333.13462
333.13035
333.12551
333.12013
333.11417
333.1075
333.0999
333.09093
333.07972
333.06418
333.03669
333.14353
333.14261
333.14061
333.13771
333.13406
333.12979
333.12497
333.11961
333.11367
333.10702
333.09944
333.09049
333.0793
333.06378
333.03631
333.14302
333.14208
333.14006
333.13715
333.1335
333.12924
333.12443
333.11909
333.11316
333.10654
333.09898
333.09006
333.07889
333.06338
333.03592
333.14248
333.14153
333.13951
333.13658
333.13294
333.12868
333.12389
333.11857
333.11267
333.10606
333.09853
333.08962
333.07847
333.06299
333.03554
333.14192
333.14097
333.13894
333.13601
333.13237
333.12813
333.12335
333.11805
333.11217
333.10559
333.09807
333.08919
333.07806
333.06259
333.03516
333.14134
333.14039
333.13835
333.13543
333.1318
333.12757
333.12281
333.11753
333.11167
333.10511
333.09762
333.08876
333.07765
333.06219
333.03478
333.14074
333.13979
333.13776
333.13485
333.13122
333.12701
333.12228
333.11702
333.11118
333.10464
333.09717
333.08833
333.07724
333.0618
333.0344
333.14013
333.13918
333.13715
333.13425
333.13065
333.12646
333.12174
333.1165
333.11069
333.10418
333.09673
333.08791
333.07683
333.06141
333.03402
333.13949
333.13855
333.13654
333.13365
333.13007
333.1259
333.1212
333.11599
333.1102
333.10371
333.09628
333.08748
333.07642
333.06101
333.03364
333.13885
333.13791
333.13591
333.13305
333.12949
333.12534
333.12067
333.11548
333.10971
333.10324
333.09584
333.08706
333.07601
333.06062
333.03326
333.13819
333.13726
333.13528
333.13244
333.1289
333.12478
333.12013
333.11497
333.10922
333.10278
333.09539
333.08663
333.07561
333.06023
333.03288
333.13752
333.1366
333.13464
333.13183
333.12831
333.12422
333.1196
333.11446
333.10874
333.10232
333.09495
333.08621
333.0752
333.05984
333.0325
333.13684
333.13593
333.134
333.13121
333.12772
333.12366
333.11906
333.11395
333.10825
333.10185
333.09451
333.08579
333.0748
333.05945
333.03213
333.13615
333.13526
333.13334
333.13059
333.12713
333.12309
333.11853
333.11344
333.10777
333.10139
333.09407
333.08537
333.07439
333.05906
333.03175
333.13546
333.13457
333.13269
333.12996
333.12654
333.12253
333.11799
333.11293
333.10729
333.10093
333.09363
333.08495
333.07399
333.05867
333.03137
333.13475
333.13388
333.13202
333.12933
333.12594
333.12197
333.11746
333.11242
333.1068
333.10047
333.09319
333.08453
333.07359
333.05828
333.03099
333.13405
333.13319
333.13136
333.1287
333.12534
333.1214
333.11692
333.11192
333.10632
333.10001
333.09276
333.08411
333.07318
333.05789
333.03062
333.13334
333.13249
333.13069
333.12806
333.12474
333.12084
333.11639
333.11141
333.10584
333.09956
333.09232
333.08369
333.07278
333.0575
333.03024
333.13262
333.13179
333.13002
333.12742
333.12414
333.12027
333.11585
333.1109
333.10536
333.0991
333.09188
333.08327
333.07238
333.05711
333.02986
333.13191
333.13109
333.12934
333.12679
333.12354
333.1197
333.11532
333.1104
333.10488
333.09864
333.09145
333.08285
333.07198
333.05672
333.02948
333.13119
333.13039
333.12867
333.12614
333.12294
333.11913
333.11478
333.10989
333.1044
333.09819
333.09101
333.08244
333.07157
333.05633
333.0291
333.13047
333.12968
333.12799
333.1255
333.12233
333.11857
333.11425
333.10939
333.10392
333.09773
333.09058
333.08202
333.07117
333.05594
333.02872
333.12975
333.12898
333.12731
333.12486
333.12173
333.118
333.11371
333.10888
333.10344
333.09727
333.09014
333.0816
333.07077
333.05555
333.02834
333.12903
333.12828
333.12663
333.12422
333.12112
333.11743
333.11318
333.10837
333.10296
333.09682
333.0897
333.08118
333.07037
333.05516
333.02796
333.12832
333.12757
333.12596
333.12358
333.12052
333.11686
333.11264
333.10787
333.10248
333.09636
333.08927
333.08076
333.06996
333.05476
333.02758
333.1276
333.12687
333.12528
333.12293
333.11991
333.11629
333.11211
333.10736
333.102
333.09591
333.08883
333.08035
333.06956
333.05437
333.02719
333.12689
333.12617
333.12461
333.12229
333.11931
333.11572
333.11157
333.10686
333.10152
333.09545
333.0884
333.07993
333.06915
333.05398
333.02681
333.12618
333.12547
333.12393
333.12165
333.1187
333.11515
333.11103
333.10635
333.10104
333.09499
333.08796
333.07951
333.06875
333.05358
333.02642
333.12547
333.12477
333.12326
333.12101
333.1181
333.11458
333.1105
333.10584
333.10056
333.09454
333.08752
333.07909
333.06834
333.05319
333.02604
333.12476
333.12408
333.12259
333.12037
333.1175
333.11401
333.10996
333.10534
333.10009
333.09408
333.08709
333.07867
333.06793
333.05279
333.02565
333.12406
333.12339
333.12192
333.11974
333.11689
333.11345
333.10943
333.10483
333.09961
333.09362
333.08665
333.07825
333.06753
333.05239
333.02526
333.12336
333.1227
333.12126
333.1191
333.11629
333.11288
333.10889
333.10433
333.09912
333.09317
333.08621
333.07782
333.06712
333.05199
333.02486
333.12267
333.12202
333.12059
333.11847
333.11569
333.11231
333.10836
333.10382
333.09864
333.09271
333.08577
333.0774
333.06671
333.05159
333.02447
333.12198
333.12134
333.11993
333.11784
333.11509
333.11174
333.10782
333.10331
333.09816
333.09225
333.08533
333.07698
333.0663
333.05119
333.02407
333.12129
333.12066
333.11928
333.11721
333.11449
333.11118
333.10729
333.10281
333.09768
333.09179
333.08489
333.07655
333.06588
333.05078
333.02368
333.12061
333.11998
333.11862
333.11658
333.1139
333.11062
333.10675
333.1023
333.0972
333.09133
333.08445
333.07613
333.06547
333.05038
333.02328
333.11993
333.11931
333.11797
333.11595
333.1133
333.11005
333.10622
333.1018
333.09672
333.09087
333.08401
333.0757
333.06505
333.04997
333.02287
333.11925
333.11865
333.11732
333.11533
333.11271
333.10949
333.10569
333.10129
333.09624
333.09041
333.08357
333.07527
333.06464
333.04956
333.02247
333.11858
333.11799
333.11668
333.11471
333.11212
333.10893
333.10516
333.10079
333.09576
333.08995
333.08313
333.07485
333.06422
333.04915
333.02206
333.11792
333.11733
333.11604
333.1141
333.11153
333.10837
333.10462
333.10028
333.09528
333.08949
333.08268
333.07442
333.0638
333.04874
333.02166
333.11726
333.11668
333.1154
333.11348
333.11094
333.10781
333.10409
333.09978
333.0948
333.08903
333.08224
333.07398
333.06338
333.04832
333.02124
333.1166
333.11603
333.11477
333.11287
333.11036
333.10725
333.10356
333.09927
333.09431
333.08857
333.08179
333.07355
333.06296
333.04791
333.02083
333.11595
333.11538
333.11414
333.11226
333.10978
333.1067
333.10303
333.09877
333.09383
333.0881
333.08135
333.07312
333.06253
333.04749
333.02041
333.1153
333.11474
333.11351
333.11166
333.1092
333.10614
333.10251
333.09826
333.09335
333.08764
333.0809
333.07268
333.06211
333.04707
333.02
333.11465
333.1141
333.11289
333.11106
333.10862
333.10559
333.10198
333.09776
333.09287
333.08718
333.08045
333.07225
333.06168
333.04664
333.01958
333.11401
333.11347
333.11227
333.11046
333.10804
333.10504
333.10145
333.09726
333.09239
333.08671
333.08
333.07181
333.06125
333.04622
333.01915
333.11338
333.11284
333.11166
333.10986
333.10747
333.10449
333.10093
333.09675
333.0919
333.08625
333.07955
333.07137
333.06082
333.04579
333.01873
333.11275
333.11222
333.11105
333.10927
333.1069
333.10394
333.1004
333.09625
333.09142
333.08578
333.0791
333.07093
333.06039
333.04536
333.0183
333.11212
333.1116
333.11044
333.10868
333.10633
333.1034
333.09988
333.09575
333.09094
333.08532
333.07865
333.07049
333.05995
333.04493
333.01787
333.1115
333.11098
333.10983
333.10809
333.10576
333.10285
333.09936
333.09525
333.09046
333.08485
333.0782
333.07005
333.05952
333.0445
333.01743
333.11088
333.11037
333.10923
333.10751
333.1052
333.10231
333.09884
333.09475
333.08998
333.08439
333.07774
333.0696
333.05908
333.04406
333.017
333.11027
333.10976
333.10864
333.10693
333.10464
333.10177
333.09832
333.09425
333.08949
333.08392
333.07729
333.06916
333.05864
333.04363
333.01656
333.10966
333.10916
333.10804
333.10635
333.10408
333.10123
333.0978
333.09375
333.08901
333.08345
333.07683
333.06871
333.0582
333.04319
333.01612
333.10906
333.10856
333.10745
333.10578
333.10352
333.1007
333.09728
333.09325
333.08853
333.08298
333.07638
333.06826
333.05775
333.04275
333.01568
333.10845
333.10796
333.10687
333.1052
333.10297
333.10016
333.09677
333.09275
333.08805
333.08252
333.07592
333.06781
333.05731
333.0423
333.01523
333.10786
333.10737
333.10629
333.10463
333.10242
333.09963
333.09625
333.09225
333.08756
333.08205
333.07546
333.06736
333.05686
333.04186
333.01479
333.10727
333.10678
333.10571
333.10407
333.10187
333.09909
333.09574
333.09176
333.08708
333.08158
333.075
333.06691
333.05641
333.04141
333.01434
333.10668
333.10619
333.10513
333.10351
333.10132
333.09856
333.09522
333.09126
333.0866
333.08111
333.07454
333.06646
333.05596
333.04096
333.01388
333.10609
333.10561
333.10456
333.10295
333.10077
333.09803
333.09471
333.09076
333.08612
333.08064
333.07408
333.066
333.05551
333.04051
333.01343
333.10551
333.10504
333.10399
333.10239
333.10023
333.09751
333.0942
333.09027
333.08564
333.08017
333.07362
333.06555
333.05506
333.04005
333.01297
333.10493
333.10446
333.10342
333.10183
333.09969
333.09698
333.09369
333.08977
333.08515
333.0797
333.07316
333.06509
333.0546
333.0396
333.01251
333.10436
333.10389
333.10286
333.10128
333.09915
333.09646
333.09318
333.08928
333.08467
333.07922
333.07269
333.06463
333.05415
333.03914
333.01205
333.10379
333.10332
333.1023
333.10073
333.09862
333.09594
333.09267
333.08878
333.08419
333.07875
333.07223
333.06417
333.05369
333.03868
333.01159
333.10322
333.10276
333.10174
333.10019
333.09808
333.09542
333.09217
333.08829
333.08371
333.07828
333.07176
333.06371
333.05323
333.03822
333.01113
333.10266
333.1022
333.10119
333.09964
333.09755
333.0949
333.09166
333.0878
333.08323
333.07781
333.0713
333.06325
333.05277
333.03776
333.01066
333.10209
333.10164
333.10064
333.0991
333.09702
333.09438
333.09116
333.0873
333.08274
333.07733
333.07083
333.06278
333.05231
333.0373
333.01019
333.10154
333.10109
333.10009
333.09856
333.09649
333.09386
333.09065
333.08681
333.08226
333.07686
333.07036
333.06232
333.05184
333.03683
333.00972
333.10098
333.10054
333.09955
333.09803
333.09597
333.09335
333.09015
333.08632
333.08178
333.07638
333.06989
333.06185
333.05138
333.03636
333.00925
333.10043
333.09999
333.099
333.09749
333.09544
333.09284
333.08965
333.08583
333.0813
333.07591
333.06942
333.06139
333.05091
333.03589
333.00877
333.09988
333.09944
333.09846
333.09696
333.09492
333.09233
333.08915
333.08534
333.08082
333.07543
333.06895
333.06092
333.05044
333.03542
333.0083
333.09934
333.0989
333.09793
333.09643
333.0944
333.09182
333.08865
333.08485
333.08033
333.07496
333.06848
333.06045
333.04997
333.03495
333.00782
333.0988
333.09836
333.09739
333.0959
333.09388
333.09131
333.08815
333.08436
333.07985
333.07448
333.06801
333.05998
333.0495
333.03448
333.00734
333.09826
333.09782
333.09686
333.09538
333.09336
333.0908
333.08765
333.08387
333.07937
333.07401
333.06754
333.05951
333.04903
333.034
333.00686
333.09772
333.09729
333.09633
333.09485
333.09285
333.09029
333.08715
333.08338
333.07889
333.07353
333.06706
333.05903
333.04856
333.03353
333.00638
333.09719
333.09676
333.0958
333.09433
333.09234
333.08979
333.08666
333.08289
333.0784
333.07305
333.06659
333.05856
333.04808
333.03305
333.0059
333.09665
333.09623
333.09528
333.09381
333.09182
333.08929
333.08616
333.0824
333.07792
333.07257
333.06611
333.05809
333.04761
333.03257
333.00542
333.09612
333.0957
333.09475
333.0933
333.09131
333.08878
333.08567
333.08192
333.07744
333.0721
333.06564
333.05761
333.04713
333.03209
333.00493
333.0956
333.09517
333.09423
333.09278
333.09081
333.08828
333.08517
333.08143
333.07696
333.07162
333.06516
333.05713
333.04665
333.03161
333.00444
333.09507
333.09465
333.09371
333.09227
333.0903
333.08778
333.08468
333.08094
333.07648
333.07114
333.06468
333.05666
333.04617
333.03113
333.00396
333.09455
333.09413
333.0932
333.09176
333.08979
333.08728
333.08419
333.08045
333.07599
333.07066
333.06421
333.05618
333.04569
333.03064
333.00347
333.09403
333.09361
333.09268
333.09124
333.08929
333.08678
333.08369
333.07997
333.07551
333.07018
333.06373
333.0557
333.04521
333.03016
333.00298
333.09351
333.0931
333.09217
333.09074
333.08878
333.08629
333.0832
333.07948
333.07503
333.0697
333.06325
333.05522
333.04473
333.02967
333.00249
333.093
333.09258
333.09166
333.09023
333.08828
333.08579
333.08271
333.07899
333.07454
333.06922
333.06277
333.05474
333.04425
333.02919
333.002
333.09248
333.09207
333.09115
333.08972
333.08778
333.08529
333.08222
333.07851
333.07406
333.06874
333.06229
333.05426
333.04376
333.0287
333.0015
333.09197
333.09156
333.09064
333.08922
333.08728
333.0848
333.08173
333.07802
333.07358
333.06826
333.06181
333.05378
333.04328
333.02821
333.00101
333.09146
333.09105
333.09013
333.08872
333.08678
333.0843
333.08124
333.07753
333.0731
333.06777
333.06132
333.05329
333.04279
333.02772
333.00051
333.09095
333.09054
333.08963
333.08821
333.08629
333.08381
333.08075
333.07705
333.07261
333.06729
333.06084
333.05281
333.0423
333.02723
333.00002
333.09044
333.09004
333.08912
333.08771
333.08579
333.08332
333.08026
333.07656
333.07213
333.06681
333.06036
333.05233
333.04182
333.02674
332.99952
333.08994
333.08953
333.08862
333.08722
333.08529
333.08283
333.07977
333.07608
333.07164
333.06633
333.05988
333.05184
333.04133
333.02625
332.99903
333.08944
333.08903
333.08812
333.08672
333.0848
333.08234
333.07929
333.07559
333.07116
333.06584
333.05939
333.05135
333.04084
333.02576
332.99853
333.08893
333.08853
333.08762
333.08622
333.08431
333.08185
333.0788
333.07511
333.07068
333.06536
333.05891
333.05087
333.04035
333.02526
332.99803
333.08843
333.08803
333.08712
333.08573
333.08381
333.08136
333.07831
333.07462
333.07019
333.06488
333.05842
333.05038
333.03986
333.02477
332.99753
333.08793
333.08753
333.08663
333.08523
333.08332
333.08087
333.07783
333.07414
333.06971
333.06439
333.05794
333.04989
333.03937
333.02428
332.99703
333.08744
333.08703
333.08613
333.08474
333.08283
333.08038
333.07734
333.07365
333.06922
333.06391
333.05745
333.04941
333.03888
333.02378
332.99653
333.08694
333.08654
333.08564
333.08425
333.08234
333.07989
333.07685
333.07317
333.06874
333.06342
333.05696
333.04892
333.03839
333.02329
332.99603
333.08644
333.08604
333.08514
333.08375
333.08185
333.0794
333.07637
333.07268
333.06825
333.06294
333.05648
333.04843
333.0379
333.02279
332.99553
333.08595
333.08555
333.08465
333.08326
333.08136
333.07892
333.07588
333.0722
333.06777
333.06245
333.05599
333.04794
333.0374
333.02229
332.99503
333.08546
333.08506
333.08416
333.08277
333.08087
333.07843
333.07539
333.07171
333.06728
333.06197
333.0555
333.04745
333.03691
333.0218
332.99453
333.08496
333.08456
333.08367
333.08228
333.08039
333.07794
333.07491
333.07123
333.0668
333.06148
333.05501
333.04696
333.03642
333.0213
332.99402
333.08447
333.08407
333.08318
333.08179
333.0799
333.07746
333.07442
333.07074
333.06631
333.06099
333.05453
333.04647
333.03592