/*--------------------------------*- C++ -*----------------------------------*\
| =========                 |                                                 |
| \\      /  F ield         | OpenFOAM: The Open Source CFD Toolbox           |
|  \\    /   O peration     | Version:  2506                                  |
|   \\  /    A nd           | Website:  www.openfoam.com                      |
|    \\/     M anipulation  |                                                 |
\*---------------------------------------------------------------------------*/
FoamFile
{
    version     2.0;
    format      ascii;
    arch        "LSB;label=32;scalar=64";
    class       volVectorField;
    location    "1000/water";
    object      U;
}
// * * * * * * * * * * * * * * * * * * * * * * * * * * * * * * * * * * * * * //

dimensions      [0 1 -1 0 0 0 0];

internalField   nonuniform List<vector> 
6000
(
(0.25028648 -3.4193492e-05 2.0156757e-18)
(0.25028875 -7.4648811e-05 -4.4895084e-18)
(0.25029344 -0.00011804414 3.1828669e-20)
(0.25030059 -0.00016540046 1.8463825e-19)
(0.25031046 -0.00021487336 2.4232411e-19)
(0.25032332 -0.00026685039 -8.8923438e-20)
(0.25033948 -0.00032192175 -5.1805456e-21)
(0.25035939 -0.00038078672 -1.5713438e-19)
(0.25038356 -0.00044434477 5.4337456e-20)
(0.25041254 -0.00051362452 -2.4316234e-20)
(0.25044587 -0.00058677559 -7.2908809e-20)
(0.25047643 -0.00065822056 -6.4898265e-20)
(0.25046276 -0.00078466513 8.7413436e-20)
(0.25013031 -0.0015987837 8.4323541e-20)
(0.24584996 0.0019968142 2.1813124e-19)
(0.25104035 -3.7261304e-05 2.5788622e-18)
(0.25104514 -8.9895979e-05 -2.8798603e-18)
(0.2510558 -0.00014352114 1.0735416e-20)
(0.25107219 -0.00020025424 -3.8200791e-19)
(0.2510947 -0.0002571822 1.2510964e-18)
(0.25112368 -0.00031440571 2.4494503e-19)
(0.25115965 -0.00037188242 -7.7435771e-20)
(0.25120324 -0.00042947839 -1.4527453e-19)
(0.2512551 -0.00048709454 1.4257631e-19)
(0.25131538 -0.00054561245 4.7202312e-20)
(0.25138039 -0.00060405492 7.6113293e-23)
(0.25142587 -0.00063755821 7.9266695e-20)
(0.25133175 -0.00059164843 9.2420465e-20)
(0.25037931 -0.0014370973 5.8806656e-20)
(0.24194277 0.00099520264 1.3302248e-19)
(0.25195051 -3.6589028e-05 -3.5843223e-18)
(0.25195563 -9.0250612e-05 2.7669267e-18)
(0.25196731 -0.00014313024 1.1444453e-18)
(0.25198528 -0.00019912655 -1.3496227e-18)
(0.25200977 -0.00025508716 5.5575685e-19)
(0.25204101 -0.00031125579 -5.0663039e-19)
(0.25207932 -0.00036762123 -7.9686567e-19)
(0.25212505 -0.00042413945 -7.13318e-19)
(0.25217823 -0.00048056786 -4.5207395e-19)
(0.25223708 -0.0005377572 1.3687121e-19)
(0.25229114 -0.00060007154 -3.4362453e-19)
(0.25229033 -0.00065419842 -4.3110747e-19)
(0.25200573 -0.00054460881 -2.8433392e-19)
(0.25014357 -0.0012195308 -1.8483808e-19)
(0.23758495 0.00043820543 -1.3185592e-19)
(0.25283353 -3.7446604e-05 -1.7309806e-18)
(0.25283867 -9.3611087e-05 3.6811046e-19)
(0.25285018 -0.00014906891 1.0544117e-18)
(0.25286783 -0.00020791578 -5.0282453e-20)
(0.25289182 -0.00026672308 -1.7819693e-19)
(0.25292238 -0.00032582165 -6.6388448e-19)
(0.25295982 -0.00038519269 -6.6885247e-19)
(0.25300432 -0.00044485276 -3.2340561e-19)
(0.25305525 -0.00050441426 -5.4179229e-19)
(0.25310809 -0.00056332944 4.8899405e-19)
(0.25314261 -0.00062607506 -2.6040323e-19)
(0.25307635 -0.00069910336 -4.5836443e-19)
(0.25255493 -0.0005845712 -2.7252809e-19)
(0.24963188 -0.001063787 -1.5037008e-19)
(0.23320285 0.0001058672 -1.4246417e-19)
(0.25372643 -3.8342943e-05 1.051512e-17)
(0.2537317 -9.636869e-05 2.4114924e-18)
(0.25374347 -0.0001537284 1.5870149e-18)
(0.25376156 -0.00021453144 1.4480661e-18)
(0.25378616 -0.00027516439 -2.3859704e-19)
(0.25381749 -0.00033599427 2.1530873e-19)
(0.25385581 -0.00039694563 3.3346674e-19)
(0.25390101 -0.00045805575 5.1057637e-19)
(0.25395133 -0.00051907431 1.9872257e-19)
(0.25399821 -0.00057855465 2.9552874e-19)
(0.25400834 -0.00063773998 2.1820697e-19)
(0.25386022 -0.0007177221 9.6656795e-20)
(0.25305737 -0.00062191547 3.1606625e-20)
(0.24895451 -0.00093835859 9.3295832e-20)
(0.22897365 -8.3792337e-05 2.6478812e-20)
(0.25464474 -3.8661619e-05 9.6106687e-19)
(0.25465014 -9.7320117e-05 -2.5139831e-19)
(0.2546622 -0.00015516461 1.2194162e-18)
(0.25468073 -0.00021648308 8.685583e-19)
(0.2547059 -0.00027758564 -4.1662176e-19)
(0.25473792 -0.000338881 2.003711e-19)
(0.25477689 -0.00040025681 1.5310493e-19)
(0.25482222 -0.00046172799 1.7808143e-19)
(0.25487049 -0.00052322807 2.5478084e-19)
(0.2549078 -0.000583188 1.3635269e-19)
(0.25488519 -0.00063896641 1.2854233e-19)
(0.25463685 -0.00071821651 1.2705032e-19)
(0.25350729 -0.0006469875 9.7850559e-20)
(0.248129 -0.00083894718 5.1469334e-20)
(0.2249409 -0.00018589273 1.1498523e-19)
(0.25557031 -3.8595292e-05 -4.060771e-18)
(0.25557581 -9.7309345e-05 -2.396206e-18)
(0.25558805 -0.00015511982 -5.2688748e-19)
(0.25560682 -0.00021642526 2.468906e-19)
(0.2556323 -0.00027749359 -1.0772404e-18)
(0.25566463 -0.00033876345 4.2538757e-19)
(0.25570371 -0.00040009734 1.2998805e-19)
(0.25574825 -0.00046144625 4.1217672e-19)
(0.25579256 -0.00052279714 1.6022844e-19)
(0.25581623 -0.0005828814 2.5579459e-19)
(0.25575267 -0.00063600477 5.1425655e-20)
(0.25538743 -0.00071016267 2.7367407e-19)
(0.25388915 -0.00066107343 1.4231724e-19)
(0.24716598 -0.00076077854 -3.1406183e-20)
(0.22112141 -0.00023459296 4.9088591e-20)
(0.25649134 -3.8297105e-05 2.5092247e-18)
(0.25649692 -9.6712127e-05 1.6251964e-18)
(0.25650928 -0.00015419069 1.5590076e-18)
(0.25652824 -0.00021515485 8.0211847e-19)
(0.25655393 -0.00027585718 -9.2882009e-19)
(0.25658641 -0.0003367553 1.0619515e-19)
(0.25662528 -0.00039769653 1.592181e-19)
(0.2566683 -0.0004585644 4.9363523e-19)
(0.25670691 -0.00051927104 3.7330967e-19)
(0.25671305 -0.00057893859 -1.1583958e-20)
(0.25660095 -0.00063003278 2.0882551e-19)
(0.25610359 -0.00069722485 3.0600431e-19)
(0.25419746 -0.00066519719 1.4770051e-19)
(0.24608527 -0.00069788903 1.1135135e-20)
(0.21752738 -0.00025081847 3.3694881e-20)
(0.25740382 -3.7852858e-05 -3.1795969e-18)
(0.25740947 -9.5689492e-05 -8.0423288e-19)
(0.25742193 -0.00015257331 8.0303195e-19)
(0.25744104 -0.00021291358 7.4183749e-19)
(0.25746687 -0.0002729729 9.1910956e-19)
(0.25749936 -0.0003332193 -6.0636903e-20)
(0.2575377 -0.00039348924 -8.3554037e-20)
(0.2575784 -0.00045361301 3.6735741e-19)
(0.25760945 -0.00051335259 4.1498421e-19)
(0.25759421 -0.00057212213 4.0850104e-19)
(0.25742635 -0.00062159363 3.8812889e-19)
(0.25678237 -0.00068144217 2.3191315e-19)
(0.25443121 -0.00066103685 1.2591205e-19)
(0.24490935 -0.00064561644 6.0310999e-20)
(0.21416513 -0.00024776584 1.5503238e-19)
(0.25830515 -3.7308637e-05 6.4048594e-19)
(0.25831084 -9.4372767e-05 -8.2075022e-19)
(0.25832339 -0.00015047648 -3.0547175e-19)
(0.2583426 -0.00020999612 3.0801567e-19)
(0.25836849 -0.00026922145 3.3273187e-19)
(0.25840083 -0.00032862339 3.5415293e-19)
(0.25843826 -0.00038802594 3.3041511e-19)
(0.25847573 -0.00044722017 4.5873844e-19)
(0.25849727 -0.00050579278 2.8443965e-19)
(0.25845683 -0.00056328987 3.535651e-19)
(0.25822634 -0.00061131675 2.4924688e-19)
(0.25742154 -0.00066417742 2.4869439e-20)
(0.2545896 -0.00065044233 2.5991013e-20)
(0.24365871 -0.00060064453 1.3227044e-19)
(0.21103455 -0.00023378679 1.1368388e-19)
(0.259193 -3.6693879e-05 7.1954453e-18)
(0.25919873 -9.2857458e-05 4.0681181e-18)
(0.25921134 -0.00014806164 -6.8757633e-19)
(0.25923061 -0.00020663289 6.6371585e-19)
(0.25925648 -0.00026489949 1.2591074e-18)
(0.25928848 -0.00032332972 5.7093281e-19)
(0.25932457 -0.00038173097 3.1974256e-19)
(0.25935785 -0.00043986308 2.3384359e-19)
(0.25936788 -0.00049714489 1.458606e-19)
(0.25929853 -0.00055310431 -3.0586389e-19)
(0.2589988 -0.0005997036 -8.5890215e-21)
(0.25801896 -0.00064623361 7.1785611e-20)
(0.25467145 -0.00063499349 1.0958217e-19)
(0.24235144 -0.00056062195 1.8205779e-19)
(0.20813123 -0.0002141088 4.371069e-20)
(0.26006576 -3.6034053e-05 4.1757734e-18)
(0.26007152 -9.1214282e-05 3.9574735e-18)
(0.26008417 -0.00014544281 -8.1437339e-19)
(0.26010346 -0.00020298347 6.2469307e-19)
(0.26012923 -0.00026021093 7.7554542e-19)
(0.2601607 -0.00031758689 5.8894131e-19)
(0.26019497 -0.00037489796 2.1618985e-19)
(0.26022303 -0.0004318747 9.9662832e-22)
(0.26021952 -0.00048779066 1.9720862e-19)
(0.26011767 -0.00054204301 -1.6880911e-19)
(0.25974224 -0.00058714002 -2.073165e-20)
(0.25857279 -0.00062806077 1.3146852e-19)
(0.25467557 -0.00061594005 1.7876714e-19)
(0.24100379 -0.00052390611 1.1545959e-19)
(0.20544863 -0.00019196316 7.0590803e-20)
(0.2609225 -3.5349632e-05 3.9202712e-18)
(0.26092828 -8.9497284e-05 3.8341375e-18)
(0.26094096 -0.0001427054 -1.1124962e-19)
(0.26096023 -0.00019916671 1.9966986e-19)
(0.2609858 -0.00025530722 9.6091598e-20)
(0.2610165 -0.00031157921 6.6847006e-19)
(0.26104844 -0.00036774516 3.9541904e-19)
(0.2610702 -0.00042350433 2.4361313e-19)
(0.26105114 -0.00047801113 2.9431718e-19)
(0.26091327 -0.00053046085 3.1857243e-20)
(0.2604557 -0.00057393661 2.8431473e-20)
(0.2590814 -0.00060990566 6.028627e-20)
(0.2546009 -0.00059424331 5.7816271e-20)
(0.23963056 -0.00048937354 7.5204558e-20)
(0.20297926 -0.00016931833 1.6411787e-19)
(0.26176274 -3.4655537e-05 4.7427258e-18)
(0.26176854 -8.7746853e-05 4.3709925e-18)
(0.26178122 -0.00013991377 -9.0037525e-19)
(0.26180042 -0.00019527246 3.5490812e-19)
(0.26182568 -0.00025030305 4.4256555e-19)
(0.26185536 -0.00030544607 3.6280208e-19)
(0.26188442 -0.00036043768 4.3371092e-19)
(0.26189878 -0.00041494196 5.2224129e-19)
(0.26186213 -0.00046801762 2.9926315e-19)
(0.2616848 -0.00051862213 8.57131e-20)
(0.26113855 -0.00056034346 1.4984749e-20)
(0.25954316 -0.00059189152 1.0155947e-19)
(0.25444651 -0.0005706321 3.0912663e-20)
(0.23824529 -0.00045627775 1.5318445e-19)
(0.20071509 -0.00014735259 1.1097548e-19)
(0.26258633 -3.3963059e-05 2.3345627e-18)
(0.26259213 -8.5993779e-05 2.3803761e-18)
(0.26260479 -0.00013711719 3.4425158e-18)
(0.26262388 -0.00019136968 6.2869609e-19)
(0.2626487 -0.00024528655 -9.0680103e-19)
(0.26267708 -0.00029929459 1.9410606e-19)
(0.26270267 -0.00035310243 3.3758678e-19)
(0.26270848 -0.00040633486 3.3211464e-19)
(0.26265224 -0.00045797299 1.1559676e-19)
(0.26243199 -0.00050672605 2.097018e-19)
(0.26179026 -0.00054656345 1.8156281e-19)
(0.25995633 -0.0005740675 1.9769479e-19)
(0.25421177 -0.00054566294 8.4310912e-20)
(0.23686047 -0.00042415213 7.4484414e-20)
(0.19864765 -0.00012675759 8.7869202e-20)
(0.26339335 -3.3281399e-05 2.2059112e-18)
(0.26339915 -8.4262739e-05 3.6099958e-18)
(0.26341177 -0.0001343551 3.0771646e-18)
(0.26343068 -0.0001875135 6.5490015e-19)
(0.26345493 -0.00024032822 1.3371616e-18)
(0.26348171 -0.00029321054 2.1111382e-19)
(0.2635032 -0.00034584106 1.9371162e-19)
(0.2634993 -0.00039780175 1.4842542e-19)
(0.26342146 -0.00044800829 -3.6135146e-20)
(0.26315483 -0.00049492778 2.6119983e-19)
(0.26241041 -0.00053276478 2.6201382e-19)
(0.26031893 -0.00055643964 1.0072384e-19)
(0.2538966 -0.000519773 8.2522364e-20)
(0.23548766 -0.00039274464 5.1873029e-20)
(0.19676807 -0.00010792878 1.5490138e-19)
(0.26418413 -3.2618312e-05 4.4329293e-18)
(0.26418991 -8.2574224e-05 2.9902604e-18)
(0.26420246 -0.00013166021 1.106673e-18)
(0.26422112 -0.0001837496 5.9685239e-19)
(0.26424465 -0.00023548648 1.0217264e-18)
(0.2642695 -0.00028726511 2.956031e-19)
(0.26428624 -0.00033873795 4.4739172e-19)
(0.26427145 -0.00038944152 4.0774309e-20)
(0.26416998 -0.0004382328 2.090187e-20)
(0.26385341 -0.00048335173 2.7487759e-19)
(0.26299854 -0.00051908846 3.511746e-19)
(0.26062878 -0.00053898815 8.358756e-20)
(0.25350187 -0.00049331964 7.939129e-20)
(0.2341376 -0.00036197183 1.340586e-19)
(0.19506692 -9.1079354e-05 6.5728137e-20)
(0.26495914 -3.1980324e-05 4.8029923e-18)
(0.2649649 -8.0945387e-05 3.8341684e-18)
(0.26497734 -0.00012905989 2.134633e-18)
(0.26499568 -0.00018011622 1.1065778e-18)
(0.26501831 -0.00023081031 6.1422977e-19)
(0.26504088 -0.00028151806 8.7889434e-19)
(0.2650522 -0.00033186392 4.3462433e-19)
(0.2650253 -0.00038133726 -1.002626e-19)
(0.26489816 -0.00042873842 1.3028294e-19)
(0.26452796 -0.00047209827 1.8163836e-19)
(0.26355413 -0.00050565096 3.6878853e-19)
(0.2608835 -0.00052167636 1.4412428e-19)
(0.25302971 -0.00046660631 7.1401731e-20)
(0.23282016 -0.00033188327 1.259863e-19)
(0.19353413 -7.6303785e-05 3.875801e-21)
(0.26571903 -3.1372764e-05 2.9885814e-18)
(0.26572475 -7.9390277e-05 3.1566923e-18)
(0.26573705 -0.00012657658 6.3335515e-20)
(0.26575498 -0.00017664472 1.7088396e-18)
(0.26577653 -0.00022633987 9.8691291e-19)
(0.26579644 -0.0002760185 1.0275878e-18)
(0.26580163 -0.0003252772 6.2344238e-19)
(0.26576141 -0.00037355728 2.0256887e-19)
(0.26560652 -0.0004196006 3.5488878e-19)
(0.26517878 -0.00046124611 2.1796545e-19)
(0.26407657 -0.00049254343 2.2388565e-19)
(0.26108059 -0.00050445572 1.3713399e-19)
(0.25248384 -0.00043989699 9.6329456e-20)
(0.23154421 -0.00030262987 5.6531986e-20)
(0.19215888 -6.360973e-05 6.0685727e-20)
(0.26646455 -3.0799672e-05 6.6278254e-18)
(0.26647021 -7.791971e-05 1.5355062e-18)
(0.26648233 -0.00012422758 3.2602062e-18)
(0.26649975 -0.0001733593 2.6723088e-18)
(0.26652002 -0.00022210618 -2.8193115e-19)
(0.26653688 -0.0002708044 1.5774776e-18)
(0.26653522 -0.00031902283 1.6447258e-18)
(0.26648042 -0.00036615421 1.1787228e-18)
(0.26629564 -0.00041087723 7.1510411e-19)
(0.26580617 -0.00045085191 -1.2289228e-19)
(0.26456508 -0.00047982866 5.1521586e-19)
(0.26121754 -0.00048726982 4.1315925e-19)
(0.25186982 -0.00041342264 2.3687987e-19)
(0.23031742 -0.00027443217 1.9235055e-19)
(0.1909297 -5.2932833e-05 1.7586789e-19)
(0.26719653 -3.0263687e-05 4.6892312e-18)
(0.26720212 -7.6541022e-05 -7.7768316e-19)
(0.26721401 -0.00012202465 2.6624509e-18)
(0.26723083 -0.00017027641 2.1875218e-18)
(0.2672496 -0.00021813033 9.8204451e-19)
(0.26726299 -0.00026590165 9.9408311e-19)
(0.26725373 -0.0003131315 1.299275e-18)
(0.26718309 -0.00035916374 1.0828112e-18)
(0.26696618 -0.00040260692 5.1012625e-19)
(0.26641044 -0.00044094905 -2.0693606e-20)
(0.26501868 -0.00046753759 4.444998e-19)
(0.26129202 -0.00047005901 2.5394107e-19)
(0.25119506 -0.00038738325 2.4223722e-19)
(0.2291461 -0.00024754677 1.4486578e-19)
(0.18983455 -4.4145098e-05 1.6758879e-19)
(0.26791589 -2.9765991e-05 -2.2232464e-18)
(0.26792138 -7.5257932e-05 -9.1491138e-20)
(0.26793299 -0.00011997376 1.1328255e-18)
(0.26794908 -0.00016740448 9.1368916e-19)
(0.26796613 -0.00021442312 1.5810962e-18)
(0.26797562 -0.00026132351 1.9174047e-19)
(0.267958 -0.00030761887 3.8695183e-19)
(0.26787018 -0.00035260381 4.754377e-19)
(0.2676188 -0.00039480804 2.2501376e-19)
(0.2669918 -0.00043154706 -3.2544338e-20)
(0.26543617 -0.00045566686 -8.0379913e-20)
(0.2613021 -0.00045276642 3.1185983e-20)
(0.2504687 -0.00036194908 2.4368963e-20)
(0.22803501 -0.00022223217 -9.9367128e-20)
(0.18886112 -3.7064086e-05 7.5604939e-21)
(0.26862352 -2.9306383e-05 2.1979151e-18)
(0.2686289 -7.4070661e-05 1.1042943e-18)
(0.26864017 -0.00011807532 3.5604007e-18)
(0.26865542 -0.00016474412 2.0404935e-18)
(0.26867049 -0.00021098533 1.2687371e-18)
(0.26867563 -0.000257071 1.3514232e-18)
(0.26864885 -0.00030248606 1.1517078e-18)
(0.26854251 -0.00034647515 9.9862782e-19)
(0.26825414 -0.00038747924 6.327673e-19)
(0.26755036 -0.00042263245 -3.1958658e-19)
(0.2658161 -0.00044417905 1.5334305e-19)
(0.26124652 -0.00043534493 3.3227283e-19)
(0.24970133 -0.00033726333 3.3079203e-19)
(0.22698727 -0.00019871676 2.9869907e-19)
(0.18799711 -3.1466398e-05 1.2552492e-19)
(0.26932033 -2.888346e-05 2.6455401e-18)
(0.26932558 -7.2976356e-05 -5.3522705e-19)
(0.26933645 -0.00011632481 1.2879621e-18)
(0.26935072 -0.00016228909 1.3089174e-18)
(0.26936357 -0.0002078089 1.2556558e-18)
(0.26936389 -0.00025313433 1.0331681e-18)
(0.26932713 -0.0002977213 1.177003e-18)
(0.26920083 -0.00034076321 8.1243876e-19)
(0.2688728 -0.00038060158 5.4279447e-19)
(0.26808605 -0.00041417146 3.9634881e-19)
(0.26615679 -0.00043300583 2.5066876e-19)
(0.26112496 -0.00041776402 3.6895657e-19)
(0.24890441 -0.00031344658 4.4517307e-19)
(0.22600436 -0.00017717261 3.7446112e-19)
(0.18723056 -2.7105586e-05 2.6117421e-19)
(0.27000719 -2.849491e-05 3.9083643e-18)
(0.27001228 -7.1969743e-05 3.3740181e-18)
(0.27002267 -0.00011471384 1.9810801e-18)
(0.27003583 -0.00016002771 1.2165047e-18)
(0.27004618 -0.00020487885 6.7994086e-19)
(0.27004119 -0.00024949516 1.0933086e-18)
(0.2699936 -0.00029330262 1.0076202e-18)
(0.26984584 -0.00033544136 7.5639091e-19)
(0.26947524 -0.00037414208 7.4935519e-19)
(0.2685986 -0.00040611399 4.5786872e-19)
(0.26645635 -0.00042205446 2.241117e-19)
(0.2609383 -0.00040001524 3.6010134e-19)
(0.24808975 -0.00029060213 2.4594924e-19)
(0.22508629 -0.00015769827 2.4627513e-19)
(0.18655015 -2.3732129e-05 3.2074333e-19)
(0.27068489 -2.8137825e-05 7.6000164e-18)
(0.2706898 -7.1043906e-05 4.1954462e-18)
(0.27069965 -0.00011323138 3.4267393e-18)
(0.27071153 -0.00015794462 2.6846954e-18)
(0.2707191 -0.00020217545 8.8102467e-19)
(0.27070829 -0.00024612933 2.1557625e-18)
(0.27064898 -0.00028920108 1.7429498e-18)
(0.27047818 -0.00033047455 1.229851e-18)
(0.27006181 -0.00036805783 1.0598057e-18)
(0.26908753 -0.00039839812 9.2860073e-20)
(0.26671278 -0.00041121648 5.8995874e-19)
(0.26068881 -0.00038211515 4.8805152e-19)
(0.24726882 -0.00026882041 4.0483188e-19)
(0.22423175 -0.00014031231 5.9268559e-19)
(0.18594537 -2.1112148e-05 3.9560226e-19)
(0.27135418 -2.7809012e-05 7.9789659e-19)
(0.27135887 -7.0191041e-05 4.638904e-18)
(0.2713681 -0.00011186497 2.290946e-18)
(0.27137855 -0.00015602247 2.000128e-18)
(0.27138304 -0.00019967637 1.9589861e-18)
(0.27136587 -0.00024300948 1.1877523e-18)
(0.27129391 -0.00028538386 1.2093452e-18)
(0.27109836 -0.000325823 9.2624249e-19)
(0.27063272 -0.00036230005 3.7730844e-19)
(0.26955206 -0.00039095432 1.6370721e-19)
(0.26692403 -0.00040037784 2.6333964e-19)
(0.26038022 -0.00036410564 3.4222589e-19)
(0.24645221 -0.00024818088 2.4791479e-19)
(0.22343841 -0.00012495718 4.4611812e-19)
(0.18540672 -1.9041831e-05 1.6531479e-19)
(0.27201571 -2.7505236e-05 2.2364366e-18)
(0.27202015 -6.94031e-05 3.4483453e-18)
(0.27202867 -0.00011060176 3.0306175e-18)
(0.27203751 -0.00015424331 2.3633263e-18)
(0.2720386 -0.00019735858 2.1022608e-18)
(0.27201452 -0.00024010733 1.4397921e-18)
(0.27192892 -0.00028181693 9.9162187e-19)
(0.2717068 -0.00032144525 1.007569e-18)
(0.27118802 -0.00035681747 5.8181397e-19)
(0.2699912 -0.00038370884 6.6647965e-20)
(0.26708822 -0.000389429 1.5519407e-19)
(0.26001771 -0.00034605163 4.1996757e-19)
(0.24564917 -0.00022875086 3.8646725e-19)
(0.22270325 -0.00011151162 3.5723723e-19)
(0.18492573 -1.7355844e-05 2.1908165e-19)
(0.27267005 -2.7223403e-05 1.614074e-18)
(0.27267421 -6.8672269e-05 9.4599771e-19)
(0.27268192 -0.00010942927 1.1379915e-18)
(0.27268898 -0.00015258973 1.975343e-18)
(0.27268634 -0.00019519966 2.0781362e-18)
(0.27265476 -0.00023739527 1.4168081e-18)
(0.27255447 -0.00027846699 1.1223747e-18)
(0.2723038 -0.00031730047 7.7084541e-19)
(0.27172757 -0.00035155884 7.6231476e-19)
(0.27040369 -0.00037658611 4.9195962e-19)
(0.26720375 -0.00037827411 3.6017306e-19)
(0.25960771 -0.00032803713 4.3960792e-19)
(0.24486735 -0.00021058184 4.3949443e-19)
(0.22202277 -9.980814e-05 2.6193876e-19)
(0.18449494 -1.5929485e-05 3.3111929e-19)
(0.27331772 -2.6960667e-05 1.2195463e-18)
(0.27332155 -6.7991274e-05 3.5746156e-18)
(0.27332837 -0.00010833587 3.1522995e-18)
(0.27333345 -0.00015104547 2.2207621e-18)
(0.27332673 -0.00019317869 1.564925e-18)
(0.27328702 -0.00023484751 1.161947e-18)
(0.27317093 -0.0002753027 1.2137554e-18)
(0.27288957 -0.0003133499 8.0701407e-19)
(0.27225107 -0.00034647442 5.0806674e-19)
(0.27078808 -0.00036951039 6.827101e-19)
(0.26726952 -0.00036683813 5.1475247e-19)
(0.25915765 -0.0003101602 4.9459647e-19)
(0.24411266 -0.00019370463 4.3917185e-19)
(0.22139331 -8.9652402e-05 2.3584946e-19)
(0.1841079 -1.4675689e-05 2.4526891e-19)
(0.27395916 -2.6714475e-05 7.9064279e-18)
(0.27396262 -6.7353542e-05 4.297447e-18)
(0.27396843 -0.00010731104 5.4126228e-18)
(0.27397134 -0.00014959583 3.6598927e-18)
(0.27396016 -0.00019127671 2.1673283e-18)
(0.27391168 -0.00023244055 2.3318955e-18)
(0.2737786 -0.00027229533 1.8005913e-18)
(0.27346419 -0.00030955757 1.5272691e-18)
(0.27275806 -0.00034151676 9.4459294e-19)
(0.27114274 -0.00036240704 4.1710578e-19)
(0.26728512 -0.00035507155 6.4422563e-19)
(0.25867552 -0.00029252748 7.1568986e-19)
(0.24338933 -0.00017812521 8.3059138e-19)
(0.22081116 -8.0841192e-05 6.0692253e-19)
(0.18375901 -1.3538667e-05 3.6814419e-19)
(0.27459475 -2.6482589e-05 1.8605663e-18)
(0.2745978 -6.675326e-05 4.5492548e-18)
(0.27460249 -0.0001063455 2.9143954e-18)
(0.274603 -0.0001482278 2.1579207e-18)
(0.27458699 -0.00018947691 2.8497495e-18)
(0.27452902 -0.00023015345 1.5372066e-18)
(0.27437767 -0.00026941895 1.1671657e-18)
(0.27402763 -0.00030589064 9.0198581e-19)
(0.27324789 -0.00033664079 5.1772647e-19)
(0.27146593 -0.00035520381 3.1704806e-19)
(0.26725094 -0.00034295249 1.6798201e-19)
(0.25816956 -0.00027524859 3.3747485e-19)
(0.24270004 -0.00016382254 3.9591405e-19)
(0.22027275 -7.3177108e-05 4.0207315e-19)
(0.18344349 -1.2486087e-05 3.358807e-19)
(0.27522481 -2.6263071e-05 1.8783258e-18)
(0.27522741 -6.6185367e-05 3.7095465e-18)
(0.27523087 -0.00010543114 3.1064335e-18)
(0.27522875 -0.00014693 2.7394487e-18)
(0.27520748 -0.00018776456 2.3858684e-18)
(0.2751393 -0.00022796774 1.5335989e-18)
(0.27496829 -0.00026665041 1.2088885e-18)
(0.27457978 -0.00030231921 1.093647e-18)
(0.27371976 -0.0003318036 6.4651988e-19)
(0.27175586 -0.00034783257 2.9455264e-19)
(0.26716832 -0.00033048644 2.4408449e-19)
(0.25764777 -0.0002584306 3.7666191e-19)
(0.24204621 -0.0001507494 2.6768627e-19)
(0.21977469 -6.6478882e-05 4.272359e-19)
(0.18315725 -1.150142e-05 3.001252e-19)
(0.27584964 -2.6054261e-05 2.8879684e-18)
(0.27585173 -6.5645511e-05 1.2422567e-18)
(0.27585383 -0.00010456098 1.978872e-18)
(0.27584885 -0.00014569263 2.3210371e-18)
(0.27582189 -0.00018612688 2.0111728e-18)
(0.2757427 -0.00022586725 1.6958224e-18)
(0.27555053 -0.00026396905 1.2619143e-18)
(0.27512041 -0.00029881615 1.1542846e-18)
(0.27417268 -0.00032696406 7.3835158e-19)
(0.27201082 -0.00034023144 6.8687042e-19)
(0.26703956 -0.00031770398 3.7285899e-19)
(0.25711762 -0.00024217267 4.0329141e-19)
(0.24142819 -0.00013883591 4.6771955e-19)
(0.21931381 -6.0587299e-05 2.2632633e-19)
(0.18289682 -1.0577467e-05 2.6174202e-19)
(0.27646948 -2.5854748e-05 4.1698591e-18)
(0.27647102 -6.5129979e-05 4.4347305e-18)
(0.27647162 -0.00010372909 3.5957012e-18)
(0.27646352 -0.0001445073 1.9447909e-18)
(0.2764304 -0.00018455289 7.6341736e-19)
(0.27633935 -0.00022383791 1.2481753e-18)
(0.27612438 -0.00026135648 9.5219241e-19)
(0.27564919 -0.00029535665 9.8443306e-19)
(0.27460555 -0.00032208225 6.4783562e-19)
(0.27222923 -0.0003323472 6.2792847e-19)
(0.26686787 -0.00030465719 3.7614299e-19)
(0.25658579 -0.00022656125 4.2319065e-19)
(0.2408456 -0.00012799525 4.8203372e-19)
(0.21888719 -5.5367362e-05 2.5472244e-19)
(0.18265925 -9.7115781e-06 2.5775416e-19)
(0.27708455 -2.5663343e-05 6.9355011e-18)
(0.27708548 -6.4635628e-05 5.0222165e-18)
(0.27708444 -0.0001029304 4.6676293e-18)
(0.27707295 -0.00014336686 3.7430911e-18)
(0.27703318 -0.00018303314 1.6547413e-18)
(0.27692935 -0.00022186743 1.8079796e-18)
(0.2766898 -0.00025879622 1.7993633e-18)
(0.27616569 -0.00029191776 1.6407702e-18)
(0.27501711 -0.00031711915 1.2327358e-18)
(0.27240981 -0.00032413773 5.294112e-19)
(0.26665729 -0.00029141517 7.3961528e-19)
(0.256058 -0.00021166603 9.1493838e-19)
(0.24029748 -0.00011813046 6.7994077e-19)
(0.21849214 -5.0707637e-05 7.244385e-19)
(0.18244204 -8.9025297e-06 4.1314614e-19)
(0.27769504 -2.5479042e-05 1.4398116e-18)
(0.27769529 -6.4159803e-05 3.7500267e-18)
(0.27769247 -0.00010216064 2.1334356e-18)
(0.27767729 -0.00014226521 2.6554098e-18)
(0.27763035 -0.00018155949 2.9628266e-18)
(0.27751275 -0.00021994503 1.1785723e-18)
(0.27724666 -0.00025627338 1.1520317e-18)
(0.27666938 -0.00028847796 1.0053196e-18)
(0.275406 -0.00031203633 7.292225e-19)
(0.27255164 -0.0003155742 7.0723608e-19)
(0.26641246 -0.00027805925 5.2189997e-19)
(0.25553894 -0.0001975371 5.2374689e-19)
(0.23978254 -0.00010914112 3.6533198e-19)
(0.21812621 -4.6517854e-05 3.4029883e-19)
(0.18224308 -8.1488502e-06 2.7519013e-19)
(0.27830111 -2.5301003e-05 2.8533588e-18)
(0.27830062 -6.3700265e-05 2.3283688e-18)
(0.27829586 -0.0001014162 2.6615097e-18)
(0.2782767 -0.00014119716 2.5965401e-18)
(0.278222 -0.00018012493 2.5053143e-18)
(0.27808956 -0.00021806116 1.2584774e-18)
(0.2777948 -0.00025377435 1.0002372e-18)
(0.27715962 -0.00028501659 6.6631627e-19)
(0.27577079 -0.00030679609 6.0894247e-19)
(0.27265429 -0.00030664248 7.0685178e-19)
(0.26613848 -0.00026467812 5.8361355e-19)
(0.2550323 -0.00018420368 4.3403937e-19)
(0.23929925 -0.00010092915 4.8051872e-19)
(0.21778713 -4.2725636e-05 3.7297483e-19)
(0.18206056 -7.448137e-06 3.1091912e-19)
(0.27890291 -2.5128513e-05 1.3169295e-18)
(0.27890162 -6.3255122e-05 -1.1884597e-19)
(0.27889474 -0.000100694 1.4108319e-18)
(0.27887126 -0.00014015826 2.2046387e-18)
(0.27880821 -0.00017872331 2.3329353e-18)
(0.27865976 -0.00021620723 1.4419288e-18)
(0.27833397 -0.0002512865 1.3083145e-18)
(0.27763569 -0.00028151344 7.9372203e-19)
(0.27611001 -0.00030136188 8.8330288e-19)
(0.2727179 -0.00029734385 1.0298478e-18)
(0.26584062 -0.00025136316 6.7902531e-19)
(0.25454084 -0.00017167439 5.1437045e-19)
(0.23884602 -9.3403153e-05 4.8134879e-19)
(0.21747286 -3.9273079e-05 4.2055855e-19)
(0.18189296 -6.7970277e-06 3.5129501e-19)
(0.27950056 -2.4960969e-05 -1.791042e-18)
(0.2794984 -6.2822768e-05 3.9856955e-18)
(0.27948922 -9.9991425e-05 1.6288063e-18)
(0.27946108 -0.00013914466 1.1385665e-18)
(0.27938901 -0.00017734921 2.3336116e-18)
(0.27922329 -0.00021437541 1.0082626e-18)
(0.27886389 -0.00024879792 5.839946e-19)
(0.27809674 -0.00027794827 5.1523006e-19)
(0.27642222 -0.0002956992 4.7347457e-19)
(0.27274323 -0.00028769473 7.5357591e-19)
(0.2655241 -0.00023820406 2.8601509e-19)
(0.25406651 -0.00015993912 -4.2345141e-20)
(0.23842119 -8.6481045e-05 1.3632614e-19)
(0.21718151 -3.6113603e-05 1.4851907e-19)
(0.18173897 -6.1914676e-06 1.3951066e-19)
(0.28009418 -2.4797853e-05 -2.7217363e-19)
(0.28009107 -6.2401827e-05 4.8775639e-18)
(0.28007941 -9.9306206e-05 3.0969542e-18)
(0.28004623 -0.00013815298 1.5240223e-18)
(0.27996442 -0.00017599776 2.4249347e-18)
(0.27978006 -0.00021255837 1.4612314e-18)
(0.2793842 -0.00024629714 4.5938624e-19)
(0.27854186 -0.0002743005 3.632936e-19)
(0.27670605 -0.00028977674 3.5439849e-19)
(0.27273166 -0.00027772559 5.8236202e-19)
(0.26519392 -0.0002252849 1.4996963e-19)
(0.25361059 -0.00014897205 -1.2065419e-19)
(0.23802316 -8.0091224e-05 1.7654645e-19)
(0.21691137 -3.3209329e-05 1.3559647e-19)
(0.18159747 -5.6270914e-06 1.0349357e-19)
(0.28068388 -2.4638718e-05 2.4229736e-18)
(0.28067974 -6.1991108e-05 4.6240524e-18)
(0.28066539 -9.8636362e-05 3.1736456e-18)
(0.28062676 -0.00013718021 2.1549559e-18)
(0.28053445 -0.00017466446 2.0572507e-18)
(0.28032993 -0.0002107491 1.2266872e-18)
(0.27989449 -0.00024377294 6.0088754e-19)
(0.27897002 -0.00027054889 2.6198615e-19)
(0.27696025 -0.00028356784 5.0471725e-19)
(0.27268518 -0.00026747914 5.3450491e-19)
(0.26485469 -0.00021268091 6.2689801e-20)
(0.25317379 -0.00013873547 1.1562e-19)
(0.23765034 -7.4172508e-05 -2.3150775e-20)
(0.2166609 -3.0529022e-05 5.250493e-20)
(0.18146749 -5.0995596e-06 1.4610637e-19)
(0.28126974 -2.4483169e-05 5.6532984e-18)
(0.28126449 -6.1589561e-05 6.0565275e-18)
(0.28124722 -9.7980129e-05 3.3479447e-18)
(0.28120271 -0.00013622363 1.2655073e-18)
(0.28109907 -0.00017334514 4.7438091e-19)
(0.28087275 -0.00020894082 1.8258019e-19)
(0.28039427 -0.00024121405 -5.4314023e-20)
(0.27938014 -0.0002666715 -3.1222284e-19)
(0.27718382 -0.0002770519 -7.0260066e-20)
(0.27260633 -0.0002570081 2.0994196e-20)
(0.26451052 -0.00020045586 -3.3914857e-19)
(0.25275643 -0.00012918377 -4.1064016e-19)
(0.23730122 -6.8673269e-05 -6.0227367e-19)
(0.21642866 -2.804655e-05 -3.4676897e-19)
(0.18134818 -4.6048047e-06 -2.2103726e-20)
(0.28185185 -2.4330853e-05 5.1262101e-18)
(0.28184539 -6.1196245e-05 4.9990622e-18)
(0.28182498 -9.7335902e-05 3.3341937e-18)
(0.28177412 -0.00013528067 6.665007e-19)
(0.28165823 -0.00017203573 3.1641477e-19)
(0.2814083 -0.00020712676 3.1569908e-19)
(0.28088299 -0.00023860898 -1.4866963e-19)
(0.27977106 -0.00026264569 -1.3700685e-19)
(0.27737601 -0.00027021573 -2.3921768e-19)
(0.27249806 -0.00024637256 -3.0003525e-20)
(0.26416497 -0.00018866039 -2.2731624e-19)
(0.2523585 -0.00012026721 -4.6199229e-19)
(0.23697438 -6.3550119e-05 -3.3720604e-19)
(0.21621337 -2.5739808e-05 -2.3769149e-19)
(0.18123881 -4.139198e-06 -6.9503777e-20)
(0.28243029 -2.4181445e-05 2.6594072e-18)
(0.28242252 -6.0810302e-05 5.5933936e-18)
(0.28239871 -9.6702192e-05 4.0754194e-18)
(0.28234099 -0.00013434891 1.8505328e-18)
(0.28221186 -0.00017073226 1.6809523e-18)
(0.28193636 -0.00020530012 1.1863584e-18)
(0.28136003 -0.00023594578 6.9420657e-19)
(0.2801416 -0.00025844845 6.6356884e-19)
(0.27753642 -0.0002630546 3.6734237e-19)
(0.27236366 -0.00023563724 -1.2994985e-19)
(0.26382105 -0.00017733135 2.2274152e-19)
(0.25197976 -0.00011193519 3.2926987e-19)
(0.23666845 -5.8766486e-05 3.2902508e-19)
(0.21601387 -2.3589914e-05 1.8176e-19)
(0.1811387 -3.6995921e-06 6.4948322e-20)
(0.28300512 -2.4034645e-05 3.7034514e-18)
(0.28299594 -6.0430932e-05 2.0838596e-18)
(0.28296846 -9.6077589e-05 3.2707532e-18)
(0.28290332 -0.000133426 2.2015034e-18)
(0.28275987 -0.00016943077 1.8363187e-18)
(0.28245663 -0.00020345397 1.421433e-18)
(0.28182471 -0.00023321185 8.638146e-19)
(0.28049057 -0.00025405689 6.6536339e-19)
(0.27766504 -0.00025557283 6.5802547e-19)
(0.27220658 -0.00022486878 4.3369072e-19)
(0.26348123 -0.0001664919 3.3107056e-19)
(0.25161982 -0.00010413862 3.5320666e-19)
(0.23638216 -5.4291229e-05 2.1751246e-19)
(0.21582908 -2.1580659e-05 1.540655e-20)
(0.18104728 -3.283341e-06 5.5053559e-20)
(0.2835764 -2.3890165e-05 3.5625596e-18)
(0.28356569 -6.0057375e-05 2.614629e-18)
(0.28353424 -9.5460735e-05 3.1314369e-18)
(0.2834611 -0.00013250961 2.7910488e-18)
(0.28330215 -0.00016812718 2.0363715e-18)
(0.28296879 -0.00020158114 1.4441044e-18)