/*--------------------------------*- C++ -*----------------------------------*\
| =========                 |                                                 |
| \\      /  F ield         | OpenFOAM: The Open Source CFD Toolbox           |
|  \\    /   O peration     | Version:  2506                                  |
|   \\  /    A nd           | Website:  www.openfoam.com                      |
|    \\/     M anipulation  |                                                 |
\*---------------------------------------------------------------------------*/
FoamFile
{
    version     2.0;
    format      ascii;
    arch        "LSB;label=32;scalar=64";
    class       volScalarField;
    location    "21000/water";
    object      alphat;
}
// * * * * * * * * * * * * * * * * * * * * * * * * * * * * * * * * * * * * * //

dimensions      [1 -1 -1 0 0 0 0];

internalField   nonuniform List<scalar> 
2600
(
0.040489031
0.04048893
0.040488932
0.040488969
0.04048893
0.040488424
0.040485257
0.04046703
0.040362559
0.039762099
0.036475623
0.024118064
0.014862723
0.039376404
0.039376463
0.039376584
0.03937667
0.03937627
0.039373342
0.039357935
0.03928206
0.038918252
0.037247647
0.030707814
0.017504579
0.016810247
0.03845331
0.038453299
0.038453385
0.038453188
0.038451259
0.038441479
0.038397507
0.038208927
0.037432867
0.034484227
0.025768479
0.01464355
0.017680736
0.037674097
0.037673994
0.037673876
0.037672833
0.03766736
0.037643826
0.037549741
0.037190974
0.035896577
0.031717985
0.022022178
0.013507107
0.017935556
0.037006829
0.037006634
0.03700605
0.037003229
0.036991211
0.03694503
0.036777672
0.036201229
0.034343725
0.029136321
0.019390213
0.01332192
0.01787019
0.036428097
0.036427705
0.036426239
0.036420305
0.036397905
0.036319194
0.03605724
0.035231095
0.03281421
0.026833154
0.017684561
0.01376901
0.017658004
0.035920433
0.035919673
0.03591673
0.035905979
0.035868817
0.035747845
0.035374204
0.034281783
0.031338745
0.024847734
0.016751764
0.014701365
0.017395975
0.035470606
0.03546924
0.035464057
0.035446499
0.035390052
0.035218253
0.034721129
0.033357857
0.029935921
0.02320089
0.016491475
0.016024754
0.017137191
0.035068412
0.03506614
0.035057811
0.035031314
0.034951338
0.034722033
0.034094772
0.032463227
0.028616047
0.021918168
0.016839593
0.01764423
0.016909598
0.034705855
0.034702323
0.034689851
0.034652315
0.034545228
0.034254009
0.03349406
0.031599319
0.027389013
0.021039007
0.017742707
0.01944683
0.016725717
0.034376582
0.0343714
0.034353768
0.03430331
0.034166516
0.033811296
0.032918608
0.030765036
0.026274288
0.020612421
0.019134169
0.021310298
0.0165878
0.034075484
0.034068256
0.034044512
0.033979658
0.033811775
0.033392551
0.032367695
0.029958513
0.025310237
0.020682514
0.02092045
0.023125093
0.01649134
0.03379842
0.033788771
0.033758129
0.033677993
0.033478994
0.032997353
0.031839672
0.029180919
0.024557973
0.021270679
0.022983308
0.024813263
0.016428198
0.033542011
0.033529635
0.033491576
0.033396025
0.033167279
0.032625685
0.031331905
0.02844226
0.024095308
0.02236241
0.02519592
0.026333969
0.016389375
0.033303501
0.033288203
0.033242589
0.033132389
0.0328766
0.032277488
0.030841496
0.027768047
0.024001078
0.023903802
0.027443847
0.027676786
0.016366908
0.033080659
0.033062404
0.03300959
0.032886524
0.032607559
0.031952311
0.030367144
0.027204004
0.02433601
0.025808536
0.029640409
0.028850257
0.01635471
0.032871707
0.032850677
0.032791627
0.032658586
0.032361164
0.031649138
0.029912405
0.026815112
0.025128026
0.027972561
0.031731261
0.029871995
0.016348606
0.032675278
0.032651931
0.032588332
0.032449362
0.032138606
0.031366538
0.029490156
0.026676983
0.02636662
0.030291378
0.033689748
0.030762439
0.016345973
0.032490392
0.032465523
0.0323999
0.032260198
0.031941021
0.031103392
0.02912715
0.026861558
0.028006318
0.032674378
0.035508202
0.031541613
0.016345289
0.03231644
0.032291251
0.032227075
0.032092906
0.0317693
0.030860474
0.028866522
0.027422392
0.02997661
0.035052625
0.037189756
0.032227633
0.016345749
0.032153193
0.032129366
0.032071151
0.03194966
0.031623986
0.030643052
0.028765901
0.028384666
0.032194873
0.037379728
0.038742713
0.032836119
0.016346971
0.032000817
0.031980587
0.031933965
0.031832869
0.031505423
0.030464306
0.028890209
0.029742268
0.034578895
0.039628039
0.040177388
0.03338011
0.016348812
0.031859898
0.031846136
0.031817892
0.031745018
0.031414332
0.030348687
0.029300795
0.031461308
0.037056243
0.04178322
0.041504536
0.033870256
0.016351246
0.031731488
0.031727775
0.031725824
0.031688525
0.031353059
0.030333689
0.030044462
0.033487923
0.03956915
0.043839374
0.042734578
0.034315152
0.016354289
0.031617156
0.031627852
0.031661123
0.031665646
0.031327616
0.03046839
0.03114581
0.03575786
0.042075206
0.045795593
0.043877212
0.034721702
0.016357969
0.031519059
0.031549348
0.031627545
0.031678558
0.031350386
0.030808115
0.032604582
0.038205561
0.044545296
0.047653851
0.044941233
0.035095453
0.016362307
0.03144002
0.031495925
0.031629136
0.031729781
0.031442847
0.031406232
0.034397781
0.040771059
0.046960463
0.049417769
0.045934484
0.035440885
0.01636731
0.031383622
0.031471952
0.031670108
0.031823119
0.031637179
0.032305487
0.036485149
0.043403915
0.049308922
0.051091863
0.046863894
0.035761637
0.016372969
0.03135431
0.031482519
0.031754745
0.031965285
0.031975484
0.033531427
0.038816231
0.046064359
0.051583767
0.052681065
0.047735561
0.036060691
0.016379266
0.031357497
0.031533412
0.031887427
0.032168112
0.032505945
0.035089408
0.041337343
0.048722488
0.053781402
0.054190402
0.048554836
0.036340516
0.016386174
0.03139966
0.031631057
0.032072922
0.032450915
0.033276474
0.03696535
0.043997166
0.051356521
0.055900492
0.055624808
0.04932644
0.036603249
0.016393659
0.031488427
0.031782429
0.032317111
0.0328421
0.034327511
0.039129414
0.04675033
0.053950899
0.057941206
0.056988871
0.050054079
0.036848496
0.016401672
0.031632621
0.031994974
0.03262831
0.033378945
0.035685989
0.0415413
0.049558965
0.056494683
0.059904718
0.058286904
0.050741227
0.037078061
0.016410157
0.031842265
0.032276621
0.033019164
0.034104841
0.03736193
0.044155836
0.052392715
0.058980326
0.061792815
0.059522757
0.051390027
0.037293993
0.01641906
0.03212853
0.032636023
0.033508774
0.035064183
0.039348113
0.046927807
0.05522786
0.061402783
0.063607642
0.060699937
0.052002677
0.037497696
0.016428334
0.032503671
0.033083206
0.0341243
0.036296104
0.041622407
0.04981536
0.058046136
0.063758861
0.065351546
0.061821638
0.05258258
0.037690193
0.016437945
0.032981003
0.033630799
0.034901063
0.037828738
0.04415182
0.052781872
0.060833587
0.06604668
0.067026701
0.0628895
0.053132468
0.03787253
0.016447871
0.033575097
0.034295809
0.035880372
0.039675456
0.04689716
0.055796508
0.063579601
0.068265332
0.068635568
0.063907354
0.053654302
0.038045473
0.016458088
0.034302372
0.035101611
0.037105077
0.041833729
0.049817352
0.058833937
0.066276155
0.070414394
0.070179108
0.064878397
0.054149994
0.038209783
0.016468569
0.035182285
0.036079363
0.038613773
0.044286514
0.052872742
0.061873601
0.068917177
0.072494026
0.071660188
0.065805209
0.054621164
0.038366085
0.016479288
0.036239052
0.037267824
0.040435169
0.047005448
0.056027184
0.06489892
0.071498029
0.074503821
0.073081482
0.066690099
0.055069326
0.038514917
0.016490218
0.037503431
0.038710806
0.042584062
0.049954877
0.059248947
0.06789647
0.074015186
0.076444644
0.074445477
0.067535119
0.055495819
0.038656742
0.016501334
0.039013518
0.040452289
0.045059738
0.053095848
0.062510858
0.070855342
0.076465329
0.078317614
0.075754306
0.068342167
0.055901827
0.038791953
0.01651261
0.040813326
0.042530184
0.047846832
0.056389316
0.065789821
0.073766515
0.078846471
0.080124255
0.077009869
0.069112939
0.056288385
0.038920881
0.016524019
0.04294834
0.044970347
0.050918076
0.059798396
0.069066333
0.076621976
0.081156922
0.081865797
0.078213927
0.069848943
0.056656395
0.039043804
0.016535536
0.045458399
0.047782314
0.054237964
0.063289402
0.0723235
0.079415213
0.083396347
0.08354333
0.07936802
0.070551491
0.057006629
0.039160949
0.016547136
0.048369512
0.050957581
0.057766475
0.06683225
0.075546563
0.082140748
0.085564136
0.08515781
0.080473486
0.071221709
0.057339735
0.039272497
0.016558794
0.051686936
0.054470426
0.061462123
0.070399931
0.078721996
0.084794915
0.087659697
0.086709992
0.081531431
0.071860534
0.057656248
0.039378584
0.016570485
0.055391499
0.05828056
0.065283684
0.073967551
0.081839614
0.08737411
0.089682327
0.088200397
0.082542729
0.072468716
0.057956587
0.039479308
0.016582185
0.059440058
0.062336518
0.069190811
0.077514013
0.084890577
0.089874882
0.091631147
0.089629282
0.083508004
0.073046821
0.058241062
0.039574724
0.016593867
0.063769494
0.06657974
0.073146309
0.081021482
0.08786674
0.092293809
0.09350505
0.090996621
0.084427625
0.073595225
0.058509872
0.039664845
0.016605507
0.068304179
0.070949146
0.077116132
0.08447372
0.090760488
0.094627435
0.095302674
0.092302092
0.085301706
0.07411412
0.058763113
0.039749649
0.016617076
0.07296397
0.07538435
0.081068536
0.087855783
0.093564625
0.096872249
0.09702241
0.093545084
0.086130109
0.074603515
0.059000772
0.039829073
0.016628545
0.077671219
0.079828362
0.084974042
0.091153823
0.096272326
0.099024706
0.09866243
0.094724726
0.086912462
0.075063249
0.05922274
0.039903017
0.016639885
0.082355845
0.084229577
0.088805532
0.094354998
0.098877155
0.10108129
0.10022076
0.095839932
0.087648189
0.075493008
0.059428816
0.039971349
0.016651062
0.086958202
0.088543077
0.092538483
0.097447493
0.10137312
0.10303863
0.10169536
0.096889471
0.088336559
0.075892349
0.059618726
0.040033908
0.016662041
0.09143008
0.092731264
0.096151243
0.10042061
0.10375478
0.10489358
0.10308425
0.097872057
0.088976741
0.076260742
0.059792137
0.040090513
0.016672786
0.095734363
0.096763934
0.09962528
0.10326492
0.10601734
0.10664339
0.10438564
0.098786453
0.089567884
0.076597617
0.059948687
0.040140974
0.016683256
0.099843908
0.10061791
0.10294534
0.10597238
0.10815677
0.1082858
0.10559802
0.099631569
0.090109194
0.076902414
0.060088014
0.040185102
0.016693412
0.10374008
0.1042764
0.10609947
0.10853648
0.11016994
0.10981913
0.1067203
0.10040657
0.090600016
0.077174642
0.060209792
0.040222727
0.016703211
0.10741124
0.10772817
0.10907891
0.11095232
0.11205463
0.1112424
0.1077519
0.10111098
0.091039917
0.077413942
0.060313763
0.040253709
0.016712613
0.11085134
0.1109667
0.11187791
0.11321662
0.11380962
0.11255536
0.10869278
0.10174473
0.091428751
0.077620133
0.060399771
0.040277955
0.016721579
0.11405871
0.11398938
0.11449341
0.11532766
0.11543469
0.1137585
0.10954354
0.10230823
0.09176671
0.077793259
0.060467794
0.040295434
0.01673007
0.11703507
0.1167967
0.11692476
0.11728525
0.11693061
0.11485305
0.11030537
0.10280237
0.092054365
0.077933626
0.060517965
0.040306182
0.016738054
0.11978467
0.11939169
0.11917333
0.11909055
0.11829904
0.11584097
0.11098007
0.10322856
0.092292676
0.078041815
0.060550589
0.040310313
0.016745503
0.1223137
0.12177926
0.12124219
0.12074595
0.11954253
0.11672486
0.11157
0.10358868
0.092482994
0.078118693
0.060566145
0.04030802
0.016752392
0.1246297
0.12396581
0.12313583
0.12225492
0.12066435
0.11750792
0.11207804
0.10388508
0.092627039
0.078165402
0.060565289
0.040299575
0.016758707
0.12674125
0.12595885
0.12485984
0.12362183
0.12166846
0.11819389
0.1125075
0.10412049
0.092726871
0.078183345
0.060548843
0.040285323
0.016764435
0.12865758
0.12776663
0.12642067
0.12485177
0.12255937
0.11878692
0.11286209
0.10429797
0.092784844
0.07817415
0.060517774
0.040265673
0.016769575
0.13038839
0.12939798
0.12782542
0.12595044
0.12334203
0.11929151
0.11314582
0.10442089
0.09280356
0.078139644
0.060473176
0.040241091
0.01677413
0.13194359
0.13086204
0.12908164
0.12692397
0.12402176
0.11971245
0.11336292
0.10449282
0.092785813
0.078081807
0.060416245
0.040212082
0.016778109
0.13333321
0.13216813
0.13019719
0.12777882
0.12460411
0.12005472
0.1135178
0.10451748
0.092734538
0.078002732
0.060348247
0.040179183
0.016781528
0.13456726
0.13332563
0.13118009
0.12852168
0.12509484
0.12032341
0.11361496
0.10449868
0.092652758
0.077904586
0.060270496
0.040142947
0.016784407
0.13565561
0.13434387
0.13203844
0.12915931
0.12549977
0.12052368
0.11365894
0.10444027
0.092543532
0.077789568
0.060184322
0.040103929
0.016786771
0.13660798
0.13523203
0.13278028
0.12969854
0.12582475
0.12066068
0.11365427
0.1043461
0.092409915
0.077659873
0.060091051
0.040062677
0.016788648
0.13743382
0.1359991
0.13341357
0.13014613
0.12607561
0.12073953
0.11360541
0.10421994
0.092254918
0.077517664
0.05999198
0.040019722
0.016790068
0.13814228
0.13665382
0.1339461
0.13050877
0.1262581
0.12076523
0.11351673
0.1040655
0.092081471
0.077365036
0.059888361
0.039975569
0.016791065
0.13874222
0.13720465
0.13438545
0.13079298
0.12637781
0.12074267
0.11339247
0.10388633
0.091892398
0.077204003
0.059781382
0.039930691
0.016791671
0.13924212
0.13765973
0.13473894
0.13100509
0.12644022
0.12067658
0.11323672
0.10368586
0.091690396
0.07703647
0.059672161
0.039885524
0.016791921
0.1396501
0.13802685
0.13501363
0.13115124
0.12645058
0.12057152
0.11305339
0.10346735
0.091478013
0.076864226
0.05956173
0.039840465
0.01679185
0.13997392
0.13831345
0.13521628
0.13123731
0.12641397
0.12043184
0.1128462
0.10323389
0.091257641
0.076688932
0.059451036
0.039795869
0.016791489
0.14022092
0.13852662
0.13535334
0.13126894
0.12633521
0.12026168
0.11261866
0.10298834
0.091031501
0.076512113
0.059340932
0.039752047
0.016790873
0.14039809
0.13867307
0.13543094
0.13125149
0.12621891
0.12006498
0.11237408
0.10273342
0.090801644
0.076335154
0.05923218
0.039709271
0.016790032
0.14051201
0.13875917
0.13545489
0.13119006
0.12606944
0.11984543
0.11211557
0.10247162
0.090569944
0.076159305
0.05912545
0.03966777
0.016788996
0.14056889
0.13879088
0.13543068
0.13108945
0.12589091
0.11960653
0.111846
0.10220523
0.090338103
0.075985676
0.05902132
0.039627735
0.016787793
0.14057455
0.13877385
0.13536348
0.1309542
0.12568721
0.11935152
0.11156804
0.10193636
0.090107647
0.075815231
0.05892024
0.039589105
0.016786449
0.14053448
0.13871336
0.13525814
0.13078858
0.12546196
0.11908342
0.11128416
0.1016669
0.089879929
0.075648792
0.058822562
0.039551833
0.016784984
0.1404538
0.13861436
0.13511921
0.13059659
0.12521856
0.11880506
0.11099661
0.10139856
0.089656119
0.075486997
0.058728312
0.039516209
0.016783417
0.14033726
0.13848145
0.13495093
0.13038195
0.12496016
0.11851901
0.11070742
0.10113288
0.089437247
0.075330428
0.058637828
0.039482359
0.016781769
0.14018934
0.13831895
0.13475728
0.13014813
0.12468969
0.11822766
0.11041846
0.10087118
0.089224103
0.075179212
0.058551547
0.039450377
0.016780059
0.14001416
0.13813084
0.13454191
0.12989836
0.12440985
0.11793318
0.11013137
0.1006146
0.089017321
0.075034045
0.058469617
0.039420313
0.016778307
0.13981555
0.13792084
0.13430825
0.12963561
0.12412311
0.11763752
0.10984762
0.10036413
0.088817445
0.07489539
0.058392165
0.039392201
0.01677653
0.13959705
0.13769237
0.13405945
0.12936262
0.12383173
0.11734246
0.10956844
0.10012042
0.088625277
0.074763493
0.058319271
0.039366051
0.016774744
0.13936194
0.13744858
0.13379839
0.12908191
0.12353777
0.11704953
0.10929486
0.099884407
0.08844128
0.074638531
0.058250971
0.039341855
0.016772961
0.13911321
0.13719238
0.13352774
0.12879576
0.12324306
0.11676008
0.10902788
0.099656884
0.088265795
0.074520615
0.058187261
0.039319584
0.016771194
0.13885363
0.13692641
0.13324991
0.12850623
0.12294921
0.11647526
0.10876858
0.099438395
0.088099074
0.074409799
0.058128101
0.039299195
0.016769452
0.13858569
0.13665311
0.1329671
0.12821514
0.1226576
0.1161964
0.10851773
0.099229373
0.08794128
0.07430608
0.058073423
0.039280635
0.016767744
0.13831169
0.13637464
0.13268122
0.12792412
0.12236977
0.11592454
0.10827601
0.09903015
0.087792508
0.074209408
0.058023132
0.039263841
0.016766078
0.13803363
0.13609293
0.13239408
0.12763484
0.122087
0.11566058
0.10804394
0.098840965
0.087652782
0.074119693
0.057977112
0.039248743
0.01676446
0.13775339
0.1358098
0.1321074
0.12734876
0.1218104
0.11540527
0.10782196
0.098661973
0.08752207
0.074036807
0.05793523
0.039235268
0.016762895
0.13747267
0.13552695
0.13182273
0.12706717
0.12154095
0.11515926
0.10761039
0.098493254
0.087400288
0.073960593
0.05789734
0.03922334
0.016761388
0.13719306
0.1352459
0.13154144
0.12679122
0.12127951
0.11492308
0.10740947
0.09833482
0.087287304
0.073890866
0.057863285
0.039212878
0.016759941
0.13691598
0.13496802
0.13126478
0.12652191
0.12102678
0.11469715
0.10721936
0.098186621
0.087182946
0.073827417
0.057832896
0.039203802
0.016758558
0.1366427
0.13469453
0.13099383
0.12626013
0.12078337
0.11448177
0.10704012
0.098048546
0.087087003
0.07377002
0.057805999
0.039196029
0.016757242
0.13637438
0.13442654
0.13072956
0.12600662
0.12054977
0.1142772
0.10687176
0.097920437
0.086999233
0.073718428
0.057782412
0.039189475
0.016755992
0.136112
0.13416498
0.13047279
0.125762
0.12032637
0.11408355
0.10671422
0.097802087
0.086919365
0.073672382
0.05776195
0.039184058
0.01675481
0.13585645
0.13391069
0.13022422
0.1255268
0.12011346
0.11390091
0.10656737
0.097693248
0.086847102
0.073631614
0.057744425
0.039179695
0.016753697
0.13560848
0.13366437
0.12998446
0.12530144
0.11991125
0.11372927
0.10643104
0.09759364
0.086782133
0.073595846
0.057729649
0.039176304
0.016752651
0.13536874
0.13342663
0.12975399
0.12508625
0.11971985
0.11356857
0.10630501
0.097502957
0.086724131
0.073564801
0.057717437
0.039173807
0.016751672
0.13513777
0.13319797
0.12953321
0.12488146
0.11953935
0.11341867
0.10618903
0.097420868
0.086672761
0.073538199
0.057707608
0.039172129
0.016750759
0.13491602
0.13297879
0.12932245
0.12468724
0.11936971
0.11327943
0.1060828
0.097347028
0.086627685
0.073515765
0.057699986
0.0391712
0.016749911
0.13470384
0.13276941
0.12912192
0.12450369
0.1192109
0.11315063
0.10598603
0.097281081
0.086588563
0.073497228
0.057694402
0.039170951
0.016749126
0.13450153
0.13257009
0.1289318
0.12433085
0.11906278
0.11303202
0.10589837
0.097222662
0.086555055
0.073482325
0.057690694
0.03917132
0.016748403
0.13430927
0.132381
0.12875217
0.12416869
0.11892521
0.11292334
0.10581947
0.097171398
0.086526824
0.073470795
0.057688703
0.039172247
0.01674774
0.13412722
0.13220223
0.12858306
0.12401713
0.11879799
0.11282427
0.10574897
0.097126912
0.086503536
0.073462388
0.057688281
0.039173674
0.016747135
0.13395543
0.13203383
0.12842446
0.12387604
0.11868088
0.1127345
0.10568649
0.097088825
0.086484859
0.073456855
0.05768928
0.039175545
0.016746586
0.13379392
0.13187579
0.12827627
0.12374525
0.1185736
0.11265365
0.10563163
0.097056753
0.086470464
0.073453957
0.05769156
0.039177809
0.016746091
0.13364263
0.13172801
0.12813836
0.12362455
0.11847585
0.11258137
0.105584
0.097030311
0.086460027
0.073453457
0.057694985
0.039180412
0.016745648
0.13350146
0.13159039
0.12801056
0.12351366
0.11838729
0.11251726
0.10554317
0.097009118
0.086453229
0.073455128
0.057699421
0.039183306
0.016745255
0.13337026
0.13146274
0.12789263
0.12341231
0.11830756
0.11246092
0.10550875
0.096992793
0.086449761
0.073458748
0.057704745
0.039186445
0.016744908
0.13324883
0.13134485
0.12778433
0.12332018
0.1182363
0.11241193
0.10548033
0.096980968
0.086449321
0.073464108
0.057710837
0.039189784
0.016744605
0.13313696
0.13123649
0.12768537
0.12323693
0.1181731
0.11236989
0.10545749
0.09697328
0.086451621
0.073471008
0.057717587
0.039193285
0.016744344
0.13303438
0.13113737
0.12759544
0.1231622
0.11811759
0.11233438
0.10543984
0.096969382
0.086456388
0.073479261
0.057724893
0.039196912
0.016744121
0.13294081
0.13104719
0.12751421
0.12309563
0.11806935
0.11230499
0.105427
0.096968941
0.086463363
0.073488693
0.057732662
0.039200634
0.016743935
0.13285595
0.13096566
0.12744135
0.12303684
0.118028
0.11228134
0.1054186
0.09697164
0.086472303
0.073499144
0.05774081
0.039204422
0.016743783
0.13277949
0.13089243
0.12737649
0.12298546
0.11799314
0.11226301
0.10541427
0.096977176
0.086482979
0.073510465
0.057749259
0.039208253
0.016743663
0.13271109
0.13082717
0.12731928
0.1229411
0.11796436
0.11224965
0.10541367
0.096985261
0.086495175
0.073522515
0.057757938
0.039212104
0.016743573
0.1326504
0.13076952
0.12726935
0.12290337
0.11794129
0.11224085
0.10541646
0.096995617
0.086508686
0.073535164
0.057766782
0.039215953
0.01674351
0.13259707
0.13071911
0.12722631
0.12287189
0.11792352
0.11223627
0.10542232
0.097007979
0.086523318
0.073548289
0.057775727
0.039219781
0.016743473
0.13255073
0.13067557
0.12718978
0.12284624
0.11791067
0.11223552
0.10543093
0.09702209
0.086538882
0.07356177
0.057784713
0.039223567
0.01674346
0.13251099
0.13063851
0.12715937
0.12282605
0.11790236
0.11223827
0.10544198
0.097037704
0.086555201
0.073575496
0.057793684
0.039227292
0.016743469
0.13247748
0.13060754
0.12713467
0.12281092
0.11789821
0.11224416
0.10545517
0.097054585
0.086572106
0.073589359
0.057802586
0.039230937
0.016743496
0.1324498
0.13058228
0.1271153
0.12280045
0.11789784
0.11225285
0.10547023
0.097072511
0.086589438
0.073603264
0.057811368
0.039234487
0.016743541
0.13242757
0.13056232
0.12710087
0.12279427
0.1179009
0.11226403
0.10548687
0.097091276
0.086607052
0.07361712
0.05781999
0.039237927
0.016743601
0.1324104
0.1305473
0.127091
0.12279202
0.11790705
0.11227741
0.10550486
0.09711069
0.086624819
0.073630851
0.057828414
0.039241248
0.016743674
0.13239793
0.13053685
0.12708532
0.12279333
0.11791597
0.11229269
0.10552397
0.097130582
0.086642624
0.073644392
0.057836613
0.039244443
0.016743758
0.13238981
0.1305306
0.12708349
0.12279788
0.11792735
0.11230962
0.10554399
0.097150801
0.086660368
0.073657688
0.057844565
0.039247509
0.016743852
0.13238568
0.13052821
0.12708516
0.12280536
0.11794091
0.11232796
0.10556474
0.09717121
0.086677964
0.073670694
0.057852251
0.039250429
0.016743954
0.13238521
0.13052935
0.12709002
0.12281545
0.11795639
0.11234749
0.10558602
0.097191687
0.086695335
0.07368337
0.057859655
0.039253189
0.016744064
0.13238808
0.13053371
0.12709776
0.12282787
0.11797352
0.11236799
0.1056077
0.097212118
0.086712411
0.073695676
0.057866746
0.039255803
0.01674418
0.13239398
0.13054097
0.12710807
0.12284235
0.11799206
0.11238927
0.10562961
0.097232397
0.086729127
0.07370758
0.057873512
0.039258274
0.0167443
0.1324026
0.13055082
0.12712067
0.12285862
0.11801179
0.11241113
0.10565161
0.097252424
0.086745415
0.073719026
0.05787996
0.039260604
0.016744425
0.13241363
0.13056298
0.12713527
0.12287641
0.11803248
0.1124334
0.10567356
0.0972721
0.086761215
0.073729996
0.057886082
0.039262793
0.016744552
0.1324268
0.13057714
0.1271516
0.12289547
0.11805391
0.11245589
0.10569533
0.097291331
0.08677645
0.07374048
0.057891869
0.039264839
0.016744682
0.1324418
0.13059305
0.12716939
0.12291558
0.11807588
0.11247846
0.10571679
0.097310025
0.086791094
0.073750454
0.057897315
0.039266743
0.016744812
0.13245839
0.13061042
0.12718838
0.12293649
0.11809819
0.11250093
0.10573784
0.097328109
0.086805116
0.073759901
0.057902415
0.039268505
0.016744942
0.13247629
0.13062902
0.12720836
0.12295801
0.11812068
0.11252318
0.10575837
0.097345542
0.086818487
0.073768813
0.057907171
0.039270128
0.016745071
0.13249528
0.13064862
0.1272291
0.12297995
0.11814319
0.11254509
0.1057783
0.097362284
0.086831188
0.073777185
0.057911586
0.039271614
0.016745198
0.13251515
0.130669
0.12725041
0.12300213
0.11816557
0.11256655
0.10579759
0.097378303
0.08684321
0.073785022
0.057915668
0.03927297
0.016745323
0.13253571
0.13068998
0.12727212
0.1230244
0.11818771
0.11258751
0.1058162
0.097393581
0.086854553
0.073792335
0.05791943
0.039274202
0.016745444
0.13255677
0.13071138
0.12729406
0.12304663
0.11820952
0.11260789
0.10583409
0.097408108
0.086865222
0.073799135
0.057922884
0.039275319
0.016745563
0.13257818
0.13073305
0.12731609
0.1230687
0.11823092
0.11262764
0.10585123
0.09742188
0.086875229
0.073805441
0.057926047
0.039276328
0.016745678
0.13259979
0.13075485
0.12733809
0.12309053
0.11825184
0.11264673
0.10586761
0.097434899
0.086884586
0.073811269
0.057928931
0.039277235
0.01674579
0.13262146
0.13077666
0.12735996
0.12311202
0.11827221
0.11266512
0.10588322
0.097447166
0.086893304
0.073816633
0.057931548
0.039278045
0.016745898
0.13264308
0.13079835
0.12738158
0.12313308
0.11829197
0.11268276
0.10589803
0.097458684
0.086901397
0.073821549
0.05793391
0.039278764
0.016746003
0.13266452
0.13081982
0.12740286
0.12315364
0.11831107
0.11269963
0.10591204
0.097469457
0.086908875
0.073826029
0.057936025
0.039279394
0.016746104
0.13268569
0.13084097
0.12742371
0.12317362
0.11832946
0.11271571
0.10592525
0.097479493
0.086915753
0.073830087
0.057937903
0.039279938
0.0167462
0.13270649
0.13086169
0.12744404
0.12319297
0.1183471
0.11273096
0.10593764
0.0974888
0.086922045
0.073833736
0.057939553
0.039280401
0.016746292
0.13272681
0.13088192
0.1274638
0.12321163
0.11836395
0.11274539
0.10594923
0.097497392
0.086927768
0.073836995
0.057940988
0.039280788
0.016746379
0.13274659
0.13090156
0.1274829
0.12322955
0.11837999
0.11275898
0.10596002
0.097505284
0.086932943
0.07383988
0.057942219
0.039281105
0.016746462
0.13276575
0.13092056
0.1275013
0.12324669
0.1183952
0.11277173
0.10597001
0.097512498
0.086937591
0.073842412
0.057943261
0.039281356
0.01674654
0.13278423
0.13093885
0.12751894
0.12326302
0.11840956
0.11278364
0.10597924
0.097519054
0.086941737
0.07384461
0.057944127
0.039281549
0.016746613
0.13280199
0.1309564
0.12753579
0.12327852
0.11842306
0.11279471
0.1059877
0.097524973
0.086945401
0.073846493
0.057944828
0.039281688
0.016746682
0.13281896
0.13097315
0.12755182
0.12329316
0.1184357
0.11280496
0.10599542
0.097530277
0.086948604
0.073848077
0.057945374
0.039281775
0.016746746
0.13283513
0.13098908
0.127567
0.12330693
0.11844748
0.11281439
0.10600242
0.097534984
0.086951365
0.073849374
0.057945772
0.039281813
0.016746806
0.13285048
0.13100417
0.12758132
0.12331983
0.1184584
0.11282302
0.10600871
0.097539115
0.086953699
0.073850398
0.057946027
0.039281802
0.016746861
0.13286498
0.13101841
0.12759477
0.12333185
0.11846848
0.11283087
0.10601431
0.097542692
0.086955626
0.073851158
0.057946145
0.039281741
0.016746911
0.13287865
0.13103181
0.12760737
0.12334303
0.11847773
0.11283795
0.10601926
0.097545741
0.086957166
0.07385167
0.057946132
0.039281632
0.016746955
0.1328915
0.13104438
0.12761913
0.12335338
0.11848619
0.11284432
0.10602359
0.097548299
0.086958349
0.073851954
0.057945998
0.039281481
0.016746995
0.13290357
0.13105616
0.12763009
0.12336294
0.11849391
0.11285002
0.10602736
0.097550409
0.08695921
0.073852034
0.057945761
0.039281294
0.016747029
0.13291488
0.13106717
0.1276403
0.12337177
0.11850094
0.11285511
0.10603061
0.097552123
0.086959794
0.073851945
0.057945442
0.039281081
0.016747059
0.13292548
0.13107747
0.12764979
0.1233799
0.11850734
0.11285964
0.10603341
0.097553495
0.086960145
0.073851722
0.057945064
0.039280856
0.016747085
0.13293539
0.13108708
0.12765861
0.1233874
0.11851315
0.11286368
0.10603581
0.097554578
0.086960311
0.073851402
0.057944652
0.039280631
0.016747109
0.13294465
0.13109604
0.12766678
0.1233943
0.11851843
0.11286727
0.10603787
0.097555417
0.08696033
0.073851015
0.057944228
0.039280417
0.016747131
0.13295324
0.13110434
0.12767433
0.12340061
0.1185232
0.11287043
0.1060396
0.097556041
0.086960228
0.073850582
0.057943806
0.039280219
0.016747152
0.13296115
0.13111197
0.12768124
0.12340633
0.11852745
0.11287319
0.10604103
0.097556461
0.086960015
0.073850111
0.057943389
0.039280037
0.016747173
0.13296836
0.13111892
0.12768749
0.12341145
0.11853119
0.11287552
0.10604215
0.097556669
0.086959684
0.073849594
0.05794297
0.039279866
0.016747194
0.13297481
0.13112512
0.12769303
0.12341594
0.11853437
0.11287739
0.10604291
0.09755664
0.086959211
0.07384901
0.057942531
0.039279692
0.016747213
0.13298046
0.13113055
0.12769784
0.12341974
0.11853696
0.11287878
0.10604331
0.097556342
0.086958564
0.07384833
0.057942047
0.0392795
0.01674723
0.1329853
0.13113518
0.12770189
0.12342285
0.11853893
0.11287966
0.10604329
0.097555743
0.086957713
0.073847525
0.057941496
0.039279276
0.016747244
0.13298933
0.131139
0.12770517
0.12342525
0.11854029
0.11288001
0.10604286
0.097554827
0.086956638
0.073846572
0.057940857
0.039279006
0.016747253
0.13299259
0.13114208
0.12770772
0.12342698
0.11854105
0.11287986
0.10604202
0.0975536
0.086955338
0.073845468
0.057940124
0.039278689
0.016747255
0.13299518
0.13114448
0.12770963
0.12342811
0.11854128
0.11287927
0.10604082
0.097552099
0.086953839
0.073844227
0.057939305
0.039278327
0.016747252
0.13299723
0.13114633
0.127711
0.12342876
0.11854109
0.11287832
0.10603935
0.09755039
0.086952192
0.073842885
0.057938424
0.039277935
0.016747242
0.13299889
0.13114779
0.12771199
0.12342905
0.1185406
0.11287715
0.1060377
0.097548566
0.086950471
0.0738415
0.057937519
0.039277533
0.016747228
0.13300034
0.13114903
0.12771276
0.12342915
0.11853997
0.11287587
0.10603601
0.097546733
0.086948764
0.073840138
0.057936637
0.039277149
0.016747211
0.13300172
0.13115019
0.12771346
0.12342921
0.11853932
0.11287463
0.10603439
0.097544996
0.086947161
0.07383887
0.057935828
0.039276809
0.016747194
0.13300315
0.13115139
0.12771421
0.12342933
0.11853879
0.11287354
0.10603295
0.097543446
0.086945737
0.073837759
0.057935136
0.039276536
0.016747179
0.13300469
0.1311527
0.12771507
0.1234296
0.11853843
0.11287266
0.10603174
0.09754214
0.086944545
0.073836845
0.057934593
0.039276347
0.016747169
0.13300632
0.13115411
0.12771606
0.12343002
0.11853826
0.11287201
0.10603079
0.097541095
0.0869436
0.073836146
0.057934208
0.039276247
0.016747165
0.13300796
0.13115555
0.1277171
0.12343053
0.11853823
0.11287154
0.10603005
0.097540278
0.086942877
0.073835641
0.05793397
0.039276226
0.016747168
0.13300945
0.13115688
0.12771807
0.12343103
0.11853824
0.11287116
0.10602944
0.097539613
0.08694231
0.073835275
0.057933835
0.039276255
0.016747176
0.13301062
0.13115792
0.12771881
0.12343135
0.11853815
0.11287074
0.10602884
0.09753899
0.086941802
0.073834971
0.057933742
0.039276295
0.016747188
0.13301127
0.13115848
0.12771914
0.12343134
0.11853779
0.11287013
0.10602811
0.097538286
0.086941246
0.073834634
0.057933619
0.039276304
0.0167472
0.13301123
0.13115841
0.1277189
0.12343084
0.11853703
0.11286919
0.10602713
0.097537388
0.086940542
0.073834181
0.057933405