/*--------------------------------*- C++ -*----------------------------------*\
| =========                 |                                                 |
| \\      /  F ield         | OpenFOAM: The Open Source CFD Toolbox           |
|  \\    /   O peration     | Version:  2506                                  |
|   \\  /    A nd           | Website:  www.openfoam.com                      |
|    \\/     M anipulation  |                                                 |
\*---------------------------------------------------------------------------*/
FoamFile
{
    version     2.0;
    format      ascii;
    arch        "LSB;label=32;scalar=64";
    class       volScalarField;
    location    "21000/water";
    object      epsilon;
}
// * * * * * * * * * * * * * * * * * * * * * * * * * * * * * * * * * * * * * //

dimensions      [0 2 -3 0 0 0 0];

internalField   nonuniform List<scalar> 
2600
(
8.8079773e-05
8.8079245e-05
8.8079271e-05
8.807949e-05
8.8079744e-05
8.8080245e-05
8.8082926e-05
8.8104349e-05
8.8272771e-05
8.9512908e-05
9.8428186e-05
0.00017145296
0.0010138716
6.7789348e-05
6.7791881e-05
6.7793339e-05
6.7794963e-05
6.7796901e-05
6.7799886e-05
6.7810178e-05
6.7875511e-05
6.8312468e-05
7.1039872e-05
8.7857083e-05
0.00021159534
0.0014669324
5.3500886e-05
5.3503148e-05
5.3504846e-05
5.3506859e-05
5.3509287e-05
5.3513643e-05
5.3532992e-05
5.3656306e-05
5.4399641e-05
5.8506995e-05
8.1500797e-05
0.00023956052
0.0017068244
4.3127504e-05
4.3128883e-05
4.3130503e-05
4.3132598e-05
4.3135149e-05
4.3140834e-05
4.3171684e-05
4.3362646e-05
4.4413342e-05
4.9710824e-05
7.7552644e-05
0.00025818579
0.0017816909
3.539909e-05
3.5400132e-05
3.5401605e-05
3.5403513e-05
3.5405834e-05
3.5412916e-05
3.5457613e-05
3.5722605e-05
3.7073304e-05
4.3450503e-05
7.5629285e-05
0.00027290618
0.0017622817
2.9510599e-05
2.9511446e-05
2.95127e-05
2.9514227e-05
2.9516143e-05
2.9525119e-05
2.9586798e-05
2.9933924e-05
3.159515e-05
3.9095388e-05
7.5939385e-05
0.00028837858
0.0017002497
2.4935213e-05
2.4935877e-05
2.4936847e-05
2.4937875e-05
2.4939416e-05
2.4951342e-05
2.503458e-05
2.5477125e-05
2.7489448e-05
3.6318413e-05
7.8818158e-05
0.0003073199
0.0016256765
2.1318423e-05
2.1318913e-05
2.1319549e-05
2.132003e-05
2.1321464e-05
2.1338095e-05
2.144948e-05
2.2008273e-05
2.4447975e-05
3.4968795e-05
8.4593389e-05
0.00033066897
0.0015541994
1.8415642e-05
1.8415958e-05
1.8416233e-05
1.8416208e-05
1.8418091e-05
1.8442025e-05
1.8590687e-05
1.9295945e-05
2.2279378e-05
3.5010665e-05
9.3512814e-05
0.00035786641
0.0014930959
1.6054297e-05
1.6054439e-05
1.6054351e-05
1.6053968e-05
1.6057197e-05
1.6092028e-05
1.6290179e-05
1.7183376e-05
2.0872546e-05
3.6486908e-05
0.00010564207
0.00038720676
0.0014449141
1.411016e-05
1.4110129e-05
1.4109712e-05
1.4109249e-05
1.4115119e-05
1.4165612e-05
1.4429188e-05
1.5565379e-05
2.0175367e-05
3.9486471e-05
0.00012074249
0.00041640751
0.0014094648
1.249217e-05
1.2491978e-05
1.249131e-05
1.24912e-05
1.2501471e-05
1.2573786e-05
1.2923263e-05
1.4374121e-05
2.0181311e-05
4.4103574e-05
0.00013819401
0.0004433175
0.0013850187
1.1132483e-05
1.1132152e-05
1.1131368e-05
1.1132227e-05
1.1149209e-05
1.1251189e-05
1.1712642e-05
1.3570321e-05
2.0918928e-05
5.0386672e-05
0.00015703479
0.00046647967
0.0013691707
9.9797899e-06
9.9793621e-06
9.9786681e-06
9.9813266e-06
1.0007987e-05
1.0149541e-05
1.0756002e-05
1.3137755e-05
2.2440689e-05
5.8285038e-05
0.00017613324
0.00048532286
0.0013594869
8.994766e-06
8.994305e-06
8.9939894e-06
8.9995396e-06
9.0396464e-06
9.2332357e-06
1.0026406e-05
1.3079617e-05
2.4808572e-05
6.7609618e-05
0.00019442665
0.00050000486
0.0013539038
8.1468971e-06
8.1464947e-06
8.1469469e-06
8.1567947e-06
8.2150975e-06
8.4763588e-06
9.5087285e-06
1.3415553e-05
2.807526e-05
7.8026841e-05
0.0002111215
0.00051110137
0.0013508788
7.4122408e-06
7.412023e-06
7.4137548e-06
7.4296903e-06
7.5121568e-06
7.8606834e-06
9.1980664e-06
1.4178291e-05
3.2262331e-05
8.9094588e-05
0.00022578146
0.00051932558
0.0013493668
6.7718206e-06
6.7719549e-06
6.7756276e-06
6.7999151e-06
6.9140283e-06
7.3743439e-06
9.0987625e-06
1.5408888e-05
3.7339829e-05
0.00010033156
0.00023829849
0.00052535583
0.0013487149
6.2104575e-06
6.2111621e-06
6.2176208e-06
6.2531142e-06
6.4082476e-06
7.0110033e-06
9.2236697e-06
1.7149875e-05
4.3213605e-05
0.00011129559
0.0002487951
0.00052976262
0.0013485457
5.7159095e-06
5.7174657e-06
5.7277834e-06
5.7780724e-06
5.9859581e-06
6.7693776e-06
9.5932706e-06
1.9436232e-05
4.9726067e-05
0.00012164394
0.00025751549
0.00053299526
0.0013486594
5.2782322e-06
5.2809984e-06
5.2965329e-06
5.3661281e-06
5.6414368e-06
6.6530083e-06
1.0234238e-05
2.228513e-05
5.6672016e-05
0.00013115952
0.00026474159
0.0005353945
0.0013489619
4.889296e-06
4.893728e-06
4.9161934e-06
5.0107595e-06
5.3718124e-06
6.6701645e-06
1.1177042e-05
2.5686553e-05
6.3825677e-05
0.00013974422
0.00027074337
0.00053721257
0.0013494179
4.5424222e-06
4.549097e-06
4.5806559e-06
4.707302e-06
5.1769356e-06
6.8337316e-06
1.2452335e-05
2.9597476e-05
7.0970789e-05
0.00014739148
0.0002757568
0.0005386328
0.0013500205
4.2321037e-06
4.2417515e-06
4.2851315e-06
4.4527719e-06
5.0593678e-06
7.1609028e-06
1.4086152e-05
3.394183e-05
7.7925112e-05
0.00015415333
0.00027997823
0.00053978641
0.0013507744
3.9537926e-06
3.9673375e-06
4.0259782e-06
4.2457763e-06
5.0244498e-06
7.6724685e-06
1.6094424e-05
3.8616918e-05
8.4553951e-05
0.00016011197
0.00028356674
0.00054076615
0.0013516866
3.7037376e-06
3.7223496e-06
3.8005873e-06
4.0864974e-06
5.0804009e-06
8.3914976e-06
1.8477844e-05
4.3504911e-05
9.077206e-05
0.00016536002
0.00028664926
0.00054163684
0.0013527623
3.4788613e-06
3.504022e-06
3.6073203e-06
3.9767408e-06
5.2383695e-06
9.3412706e-06
2.1218352e-05
4.8486363e-05
9.6537094e-05
0.00016998886
0.00028932618
0.00054244334
0.0013540034
3.2766694e-06
3.3102566e-06
3.4454921e-06
3.9200366e-06
5.5123349e-06
1.0542478e-05
2.427837e-05
5.3452375e-05
0.00010183911
0.00017408281
0.00029167656
0.00054321636
0.0013554084
3.0951868e-06
3.1395803e-06
3.315394e-06
3.9217755e-06
5.9187332e-06
1.2009945e-05
2.7603266e-05
5.8312862e-05
0.0001066899
0.00017771679
0.00029376257
0.00054397675
0.0013569728
2.9329181e-06
2.991133e-06
3.2183574e-06
3.9893517e-06
6.4756801e-06
1.3749403e-05
3.112658e-05
6.3000084e-05
0.00011111418
0.0001809559
0.00029563312
0.00054473837
0.0013586903
2.7888292e-06
2.8646819e-06
3.1568533e-06
4.132263e-06
7.2016968e-06
1.5755029e-05
3.4776808e-05
6.7468124e-05
0.00011514328
0.00018385585
0.00029732665
0.00054550992
0.0013605531
2.6623516e-06
2.7606642e-06
3.1346229e-06
4.3621021e-06
8.1139277e-06
1.8008404e-05
3.8484156e-05
7.1689805e-05
0.00011881108
0.00018646428
0.00029887505
0.00054629402
0.0013625491
2.5534088e-06
2.680258e-06
3.1568305e-06
4.6923498e-06
9.2259802e-06
2.0479255e-05
4.21859e-05
7.5652556e-05
0.00012215122
0.00018882083
0.00030030031
0.00054708344
0.001364665
2.4624667e-06
2.6254827e-06
3.2302147e-06
5.1378785e-06
1.0545685e-05
2.3127918e-05
4.5829653e-05
7.9354439e-05
0.00012519597
0.00019095973
0.00030162122
0.00054787012
0.0013668874
2.3906118e-06
2.5993266e-06
3.3632046e-06
5.7140893e-06
1.2073207e-05
2.5908985e-05
4.9374528e-05
8.2800768e-05
0.00012797522
0.0001929092
0.00030285018
0.00054865287
0.0013692048
2.3396576e-06
2.6059009e-06
3.5659451e-06
6.4356569e-06
1.3799941e-05
2.877532e-05
5.2790669e-05
8.6001444e-05
0.00013051585
0.0001946916
0.00030399376
0.00054944273
0.0013716092
2.3122834e-06
2.6506069e-06
3.8501619e-06
7.3149535e-06
1.5708514e-05
3.1681693e-05
5.6057927e-05
8.8969442e-05
0.00013284315
0.00019632773
0.00030505437
0.00055025018
0.0013740956
2.312204e-06
2.7402971e-06
4.2287858e-06
8.3603385e-06
1.7773922e-05
3.4587408e-05
5.9163895e-05
9.1718485e-05
0.000134977
0.0001978295
0.00030604752
0.00055107622
0.0013766577
2.3443665e-06
2.8833944e-06
4.7152663e-06
9.5746051e-06
1.996561e-05
3.7457896e-05
6.2102576e-05
9.4263948e-05
0.00013693775
0.00019920349
0.00030698675
0.00055192215
0.0013792894
2.4151613e-06
3.0899101e-06
5.3225447e-06
1.0953905e-05
2.2249994e-05
4.0265061e-05
6.487208e-05
9.6618925e-05
0.00013873802
0.00020046565
0.00030788006
0.00055278756
0.0013819844
2.5326206e-06
3.3712894e-06
6.0617313e-06
1.2487422e-05
2.4593019e-05
4.2987258e-05
6.7474462e-05
9.8797813e-05
0.00014038632
0.00020163083
0.00030873382
0.00055367121
0.0013847362
2.7065546e-06
3.7399973e-06
6.9406295e-06
1.4157865e-05
2.6962173e-05
4.560817e-05
6.9912766e-05
0.00010081055
0.00014189658
0.00020271014
0.00030955281
0.00055457138
0.0013875385
2.9485503e-06
4.2087765e-06
7.9623509e-06
1.5942735e-05
2.9328092e-05
4.8116705e-05
7.2192973e-05
0.00010266311
0.00014328329
0.00020371267
0.00031034058
0.00055548595
0.0013903847
3.2717208e-06
4.7895539e-06
9.1242828e-06
1.7815987e-05
3.1665001e-05
5.0504533e-05
7.4318481e-05
0.00010436656
0.00014455809
0.0002046458
0.00031109971
0.0005564126
0.0013932687
3.6900859e-06
5.4920733e-06
1.0417684e-05
1.9750013e-05
3.39517e-05
5.2768184e-05
7.6289669e-05
0.00010593299
0.00014573089
0.00020551555
0.00031183197
0.00055734877
0.0013961839
4.217485e-06
6.3224284e-06
1.1827952e-05
2.1717141e-05
3.6170246e-05
5.490116e-05
7.8113758e-05
0.00010737249
0.00014680994
0.00020632674
0.00031253851
0.00055829181
0.0013991244
4.8660263e-06
7.2817751e-06
1.3335594e-05
2.3691123e-05
3.8306688e-05
5.6898168e-05
7.9798305e-05
0.0001086939
0.00014780214
0.00020708321
0.00031321994
0.00055923891
0.0014020836
5.6442498e-06
8.3655571e-06
1.4917866e-05
2.5648781e-05
4.0344258e-05
5.8760207e-05
8.13501e-05
0.00010990478
0.00014871322
0.00020778792
0.00031387636
0.00056018713
0.0014050556
6.5553597e-06
9.5634605e-06
1.6550686e-05
2.7565321e-05
4.2272542e-05
6.0488809e-05
8.2775229e-05
0.00011101156
0.00014954783
0.00020844308
0.00031450744
0.00056113341
0.0014080338
7.5961539e-06
1.0860442e-05
1.8207369e-05
2.9419102e-05
4.408453e-05
6.2085814e-05
8.4079034e-05
0.0001120196
0.00015030969
0.00020905022
0.00031511249
0.00056207453
0.0014110119
8.7563158e-06
1.2235551e-05
1.9861232e-05
3.1193217e-05
4.5774965e-05
6.3553181e-05
8.5266112e-05
0.00011293328
0.00015100165
0.00020961023
0.00031569038
0.00056300711
0.0014139831
1.0017522e-05
1.3664335e-05
2.1488449e-05
3.2873859e-05
4.7340054e-05
6.4892868e-05
8.6340347e-05
0.00011375612
0.0001516258
0.00021012347
0.00031623966
0.00056392755
0.0014169405
1.1355901e-05
1.5121211e-05
2.3068172e-05
3.4450179e-05
4.8777289e-05
6.6106812e-05
8.7304985e-05
0.00011449085
0.00015218355
0.00021058975
0.00031675852
0.00056483203
0.0014198766
1.2744265e-05
1.6581081e-05
2.4582903e-05
3.5914124e-05
5.0085355e-05
6.7196971e-05
8.8162739e-05
0.00011513953
0.00015267569
0.00021100843
0.00031724482
0.00056571653
0.0014227834
1.4154482e-05
1.8020638e-05
2.6018604e-05
3.7260265e-05
5.1264092e-05
6.8165414e-05
8.8915933e-05
0.0001157037
0.00015310253
0.00021137849
0.00031769616
0.00056657675
0.0014256524
1.555958e-05
1.9419302e-05
2.7364607e-05
3.8485598e-05
5.231449e-05
6.901445e-05
8.9566666e-05
0.0001161845
0.00015346401
0.0002116986
0.00031810989
0.00056740823
0.0014284744
1.6935339e-05
2.0759787e-05
2.8613378e-05
3.9589304e-05
5.323867e-05
6.9746758e-05
9.0116989e-05
0.00011658289
0.00015375983
0.00021196724
0.00031848324
0.00056820634
0.0014312396
1.8261269e-05
2.2028326e-05
2.9760207e-05
4.0572479e-05
5.4039843e-05
7.0365497e-05
9.0569079e-05
0.00011689975
0.00015398961
0.00021218284
0.00031881338
0.0005689664
0.0014339377
1.9521047e-05
2.3214636e-05
3.0802835e-05
4.1437842e-05
5.4722228e-05
7.0874393e-05
9.0925393e-05
0.00011713614
0.00015415307
0.0002123439
0.0003190976
0.0005696838
0.0014365579
2.0702515e-05
2.4311688e-05
3.1741086e-05
4.2189436e-05
5.5290938e-05
7.1277774e-05
9.1188792e-05
0.00011729337
0.00015425016
0.00021244916
0.00031933341
0.00057035412
0.0014390893
2.179737e-05
2.5315353e-05
3.257649e-05
4.2832333e-05
5.5751829e-05
7.1580559e-05
9.1362627e-05
0.00011737319
0.0001542812
0.00021249774
0.00031951874
0.00057097333
0.0014415208
2.2800693e-05
2.6223984e-05
3.3311942e-05
4.3372362e-05
5.6111338e-05
7.178822e-05
9.1450779e-05
0.00011737787
0.00015424704
0.00021248927
0.00031965202
0.0005715379
0.0014438419
2.3710403e-05
2.7037977e-05
3.3951388e-05
4.3815874e-05
5.6376316e-05
7.1906692e-05
9.1457658e-05
0.00011731022
0.00015414911
0.00021242401
0.00031973234
0.000572045
0.0014460427
2.4526701e-05
2.775936e-05
3.4499555e-05
4.4169529e-05
5.655387e-05
7.1942284e-05
9.138817e-05
0.00011717368
0.00015398952
0.00021230291
0.00031975954
0.00057249257
0.001448114
2.5251561e-05
2.8391403e-05
3.4961707e-05
4.444013e-05
5.6651213e-05
7.190156e-05
9.1247656e-05
0.00011697222
0.00015377099
0.00021212769
0.00031973428
0.00057287945
0.0014500481
2.5888277e-05
2.8938286e-05
3.5343456e-05
4.4634486e-05
5.6675546e-05
7.1791235e-05
9.1041803e-05
0.00011671034
0.00015349695
0.00021190076
0.00031965799
0.00057320542
0.0014518386
2.6441082e-05
2.9404816e-05
3.5650592e-05
4.4759303e-05
5.6633949e-05
7.1618068e-05
9.0776555e-05
0.00011639299
0.00015317136
0.00021162527
0.00031953295
0.00057347115
0.0014534809
2.6914834e-05
2.9796196e-05
3.5888958e-05
4.4821107e-05
5.6533305e-05
7.1388767e-05
9.0458014e-05
0.00011602548
0.00015279874
0.00021130498
0.00031936212
0.00057367825
0.0014549719
2.731477e-05
3.0117836e-05
3.6064345e-05
4.4826184e-05
5.6380237e-05
7.1109905e-05
9.0092344e-05
0.00011561335
0.00015238399
0.0002109442
0.00031914913
0.00057382909
0.0014563107
2.7646311e-05
3.037521e-05
3.6182416e-05
4.4780537e-05
5.618106e-05
7.0787858e-05
8.968568e-05
0.00011516233
0.00015193234
0.00021054764
0.00031889813
0.00057392678
0.0014574976
2.7914911e-05
3.0573746e-05
3.6248644e-05
4.4689864e-05
5.5941755e-05
7.0428743e-05
8.9244049e-05
0.00011467816
0.0001514492
0.00021012035
0.00031861363
0.00057397499
0.0014585351
2.8125955e-05
3.071874e-05
3.6268274e-05
4.4559537e-05
5.5667948e-05
7.0038382e-05
8.8773301e-05
0.00011416657
0.00015094006
0.00020966751
0.00031830045
0.00057397784
0.0014594269
2.8284674e-05
3.0815302e-05
3.6246294e-05
4.4394595e-05
5.5364899e-05
6.9622267e-05
8.8279044e-05
0.00011363314
0.00015041038
0.00020919438
0.0003179635
0.00057393972
0.0014601782
2.8396092e-05
3.0868313e-05
3.6187414e-05
4.4199747e-05
5.5037505e-05
6.9185541e-05
8.7766604e-05
0.00011308328
0.00014986552
0.00020870617
0.00031760771
0.00057386523
0.0014607953
2.8464991e-05
3.0882399e-05
3.6096061e-05
4.3979369e-05
5.4690294e-05
6.8732987e-05
8.7240985e-05
0.0001125221
0.00014931061
0.0002082079
0.0003172379
0.00057375898
0.0014612853
2.8495888e-05
3.0861916e-05
3.5976374e-05
4.3737514e-05
5.4327439e-05
6.8269017e-05
8.6706844e-05
0.00011195443
0.00014875053
0.00020770439
0.00031685868
0.00057362553
0.0014616562
2.8493022e-05
3.0810943e-05
3.5832202e-05
4.3477923e-05
5.3952764e-05
6.7797678e-05
8.6168473e-05
0.00011138475
0.00014818983
0.00020720013
0.00031647439
0.00057346928
0.0014619165
2.8460351e-05
3.073328e-05
3.5667116e-05
4.3204031e-05
5.3569758e-05
6.7322653e-05
8.5629789e-05
0.00011081716
0.00014763269
0.00020669924
0.00031608905
0.00057329442
0.0014620748
2.8401555e-05
3.0632454e-05
3.5484411e-05
4.2918983e-05
5.3181586e-05
6.6847273e-05
8.5094337e-05
0.00011025537
0.00014708291
0.00020620548
0.00031570629
0.00057310484
0.0014621402
2.8320041e-05
3.0511724e-05
3.5287115e-05
4.2625647e-05
5.2791106e-05
6.6374523e-05
8.4565289e-05
0.00010970271
0.00014654385
0.00020572217
0.00031532933
0.00057290414
0.0014621215
2.821895e-05
3.0374092e-05
3.5078006e-05
4.2326625e-05
5.2400885e-05
6.5907063e-05
8.4045453e-05
0.00010916211
0.0001460185
0.00020525221
0.000314961
0.00057269557
0.0014620273
2.8101171e-05
3.0222309e-05
3.4859618e-05
4.2024269e-05
5.2013211e-05
6.544724e-05
8.353729e-05
0.00010863613
0.00014550942
0.00020479808
0.00031460372
0.00057248206
0.0014618664
2.796935e-05
3.0058895e-05
3.4634255e-05
4.1720694e-05
5.1630114e-05
6.4997102e-05
8.3042925e-05
0.00010812695
0.00014501877
0.00020436187
0.0003142595
0.00057226616
0.0014616467
2.7825902e-05
2.9886143e-05
3.4404002e-05
4.1417794e-05
5.1253378e-05
6.4558424e-05
8.2564168e-05
0.00010763639
0.00014454835
0.00020394523
0.00031392996
0.0005720501
0.0014613762
2.7673027e-05
2.9706136e-05
3.4170742e-05
4.1117251e-05
5.088456e-05
6.4132716e-05
8.210253e-05
0.00010716596
0.00014409957
0.00020354948
0.00031361638
0.00057183576
0.0014610621
2.7512721e-05
2.9520759e-05
3.3936163e-05
4.0820554e-05
5.0525005e-05
6.372125e-05
8.1659246e-05
0.00010671685
0.00014367354
0.00020317561
0.00031331979
0.00057162451
0.001460711
2.7346787e-05
2.9331712e-05
3.3701776e-05
4.0529011e-05
5.0175861e-05
6.3325073e-05
8.1235297e-05
0.00010628995
0.00014327104
0.00020282423
0.00031304071
0.00057141641
0.0014603285
2.7176854e-05
2.9140518e-05
3.346892e-05
4.0243758e-05
4.9838092e-05
6.2945027e-05
8.083143e-05
0.00010588593
0.00014289262
0.00020249588
0.00031277953
0.00057120927
0.0014599197
2.7004379e-05
2.8948542e-05
3.323878e-05
3.9965776e-05
4.9512497e-05
6.2581766e-05
8.0448177e-05
0.00010550517
0.00014253849
0.00020219043
0.00031253533
0.00057100466
0.0014594896
2.6830668e-05
2.8756995e-05
3.3012396e-05
3.9695901e-05
4.9199723e-05
6.2235777e-05
8.0085895e-05
0.00010514793
0.00014220886
0.000201908
0.0003123061
0.00057080567
0.0014590437
2.6656884e-05
2.8566952e-05
3.2790672e-05
3.9434838e-05
4.8900277e-05
6.1907399e-05
7.9744769e-05
0.00010481424
0.00014190343
0.00020164698
0.00031209274
0.00057061387
0.0014585868
2.6484054e-05
2.8379357e-05
3.2574392e-05
3.9183168e-05
4.8614541e-05
6.1596825e-05
7.9424817e-05
0.00010450389
0.0001416217
0.00020140638
0.00031189573
0.00057043041
0.0014581235
2.6313087e-05
2.8195036e-05
3.2364224e-05
3.8941365e-05
4.8342787e-05
6.1304148e-05
7.9125972e-05
0.00010421666
0.0001413622
0.0002011862
0.0003117152
0.00057025604
0.0014576578
2.6144778e-05
2.8014707e-05
3.2160733e-05
3.8709803e-05
4.8085188e-05
6.1029342e-05
7.8847988e-05
0.00010395153
0.00014112445
0.00020098612
0.00031155095
0.00057009126
0.001457193
2.5979817e-05
2.7838986e-05
3.1964391e-05
3.8488765e-05
4.7841825e-05
6.0772277e-05
7.8590336e-05
0.00010370764
0.00014090798
0.00020080565
0.00031140265
0.0005699363
0.0014567324
2.5818804e-05
2.7668401e-05
3.1775585e-05
3.8278457e-05
4.7612706e-05
6.0532706e-05
7.8352156e-05
0.00010348449
0.00014071216
0.00020064414
0.00031126978
0.00056979126
0.0014562785
2.5662251e-05
2.7503399e-05
3.1594632e-05
3.8079034e-05
4.7397758e-05
6.0309958e-05
7.8132962e-05
0.00010328147
0.00014053628
0.00020050085
0.00031115175
0.00056965608
0.0014558335
2.5510599e-05
2.734436e-05
3.14218e-05
3.7890534e-05
4.7196574e-05
6.0103643e-05
7.7932207e-05
0.00010309788
0.00014037956
0.00020037496
0.00031104787
0.00056953063
0.0014553996
2.5364227e-05
2.7191604e-05
3.1257213e-05
3.771281e-05
4.7008898e-05
5.9913326e-05
7.774929e-05
0.00010293298
0.00014024113
0.0002002656
0.00031095741
0.00056941469
0.0014549782
2.5223415e-05
2.7045321e-05
3.1100915e-05
3.7545749e-05
4.6834438e-05
5.9738535e-05
7.7583566e-05
0.00010278597
0.0001401201
0.00020017185
0.00031087962
0.00056930801
0.0014545708
2.5088366e-05
2.6905645e-05
3.0952916e-05
3.7389202e-05
4.6672868e-05
5.9578761e-05
7.7434353e-05
0.00010265602
0.00014001553
0.00020009278
0.00031081371
0.00056921029
0.0014541785
2.495923e-05
2.6772668e-05
3.0813189e-05
3.7242992e-05
4.6523835e-05
5.9433467e-05
7.7300938e-05
0.00010254227
0.00013992648
0.00020002742
0.00031075889
0.00056912118
0.0014538021
2.4836109e-05
2.6646437e-05
3.0681674e-05
3.7106906e-05
4.6386953e-05
5.930209e-05
7.7182587e-05
0.00010244385
0.00013985198
0.00019997485
0.00031071438
0.00056904032
0.0014534425
2.4719071e-05
2.6526966e-05
3.0558276e-05
3.6980708e-05
4.6261817e-05
5.9184044e-05
7.707855e-05
0.00010235986
0.00013979107
0.0001999341
0.00031067941
0.00056896734
0.0014531
2.4608142e-05
2.6414233e-05
3.0442875e-05
3.6864135e-05
4.6147999e-05
5.9078729e-05
7.6988065e-05
0.00010228943
0.00013974281
0.00019990427
0.0003106532
0.00056890183
0.0014527749
2.4503321e-05
2.6308191e-05
3.0335322e-05
3.6756902e-05
4.6045053e-05
5.8985534e-05
7.6910365e-05
0.00010223167
0.00013970625
0.00019988445
0.00031063503
0.00056884341
0.0014524676
2.4404575e-05
2.620876e-05
3.0235446e-05
3.6658707e-05
4.5952522e-05
5.8903837e-05
7.6844684e-05
0.00010218571
0.00013968047
0.00019987377
0.00031062417
0.00056879165
0.0014521779
2.4311849e-05
2.611584e-05
3.0143054e-05
3.6569229e-05
4.5869934e-05
5.8833015e-05
7.679026e-05
0.00010215068
0.00013966458
0.00019987138
0.00031061994
0.00056874618
0.0014519058
2.422506e-05
2.6029307e-05
3.0057935e-05
3.6488135e-05
4.5796812e-05
5.8772443e-05
7.6746341e-05
0.00010212574
0.00013965771
0.00019987647
0.0003106217
0.00056870659
0.0014516512
2.4144108e-05
2.5949021e-05
2.9979863e-05
3.641508e-05
4.5732675e-05
5.8721499e-05
7.6712183e-05
0.00010211007
0.00013965904
0.00019988827
0.00031062881
0.00056867253
0.0014514138
2.4068873e-05
2.5874821e-05
2.9908597e-05
3.6349711e-05
4.5677038e-05
5.8679568e-05
7.6687062e-05
0.00010210289
0.00013966775
0.00019990605
0.00031064071
0.00056864363
0.0014511933
2.3999218e-05
2.5806535e-05
2.9843886e-05
3.6291668e-05
4.5629415e-05
5.8646041e-05
7.6670268e-05
0.00010210342
0.00013968308
0.00019992912
0.00031065684
0.00056861956
0.0014509893
2.3934993e-05
2.5743974e-05
2.9785469e-05
3.6240586e-05
4.5589326e-05
5.8620324e-05
7.6661115e-05
0.00010211093
0.0001397043
0.00019995682
0.00031067669
0.00056859998
0.0014508014
2.3876034e-05
2.5686942e-05
2.9733075e-05
3.6196101e-05
4.5556293e-05
5.8601831e-05
7.6658936e-05
0.0001021247
0.00013973073
0.00019998854
0.00031069978
0.00056858457
0.0014506292
2.3822167e-05
2.5635231e-05
2.9686432e-05
3.6157844e-05
4.5529846e-05
5.8589993e-05
7.6663089e-05
0.00010214407
0.00013976171
0.00020002371
0.00031072566
0.00056857303
0.0014504722
2.3773208e-05
2.5588627e-05
2.964526e-05
3.612545e-05
4.550952e-05
5.8584259e-05
7.6672956e-05
0.0001021684
0.00013979662
0.00020006179
0.00031075391
0.00056856505
0.0014503297
2.3728966e-05
2.5546908e-05
2.9609278e-05
3.6098555e-05
4.5494863e-05
5.8584092e-05
7.6687945e-05
0.00010219707
0.00013983489
0.00020010227
0.00031078413
0.00056856032
0.0014502013
2.3689244e-05
2.550985e-05
2.9578204e-05
3.60768e-05
4.5485432e-05
5.8588976e-05
7.670749e-05
0.00010222951
0.00013987597
0.00020014468
0.00031081595
0.00056855855
0.0014500862
2.365384e-05
2.5477224e-05
2.9551754e-05
3.6059832e-05
4.5480796e-05
5.8598414e-05
7.6731055e-05
0.00010226518
0.00013991935
0.00020018859
0.00031084902
0.00056855946
0.0014499839
2.3622547e-05
2.5448799e-05
2.9529648e-05
3.6047302e-05
4.5480539e-05
5.861193e-05
7.6758128e-05
0.00010230357
0.00013996458
0.00020023361
0.00031088304
0.00056856278
0.0014498937
2.3595157e-05
2.5424344e-05
2.9511609e-05
3.6038873e-05
4.5484257e-05
5.8629068e-05
7.6788228e-05
0.0001023442
0.0001400112
0.00020027937
0.00031091772
0.00056856824
0.0014498148
2.3571462e-05
2.5403627e-05
2.9497361e-05
3.6034213e-05
4.5491564e-05
5.8649397e-05
7.6820901e-05
0.00010238662
0.00014005883
0.00020032553
0.0003109528
0.00056857563
0.0014497468
2.3551251e-05
2.5386421e-05
2.9486636e-05
3.6033002e-05
4.5502086e-05
5.8672507e-05
7.6855722e-05
0.00010243044
0.0001401071
0.0002003718
0.00031098804
0.00056858472
0.0014496889
2.3534317e-05
2.5372496e-05
2.9479169e-05
3.603493e-05
4.551547e-05
5.8698008e-05
7.6892294e-05
0.00010247526
0.00014015566
0.0002004179
0.00031102323
0.00056859531
0.0014496406
2.3520452e-05
2.536163e-05
2.9474703e-05
3.6039698e-05
4.5531376e-05
5.8725537e-05
7.6930247e-05
0.00010252075
0.00014020423
0.0002004636
0.0003110582
0.00056860724
0.0014496012
2.3509451e-05
2.5353602e-05
2.9472988e-05
3.6047018e-05
4.5549482e-05
5.8754751e-05
7.6969238e-05
0.00010256658
0.00014025253
0.00020050868
0.00031109278
0.00056862032
0.0014495701
2.3501114e-05
2.5348197e-05
2.9473781e-05
3.6056616e-05
4.5569485e-05
5.8785329e-05
7.7008951e-05
0.00010261246
0.00014030031
0.00020055295
0.00031112681
0.00056863439
0.0014495468
2.3495243e-05
2.5345206e-05
2.947685e-05
3.6068229e-05
4.5591098e-05
5.8816972e-05
7.7049094e-05
0.00010265814
0.00014034735
0.00020059623
0.00031116017
0.00056864929
0.0014495308
2.3491647e-05
2.5344425e-05
2.9481967e-05
3.6081606e-05
4.561405e-05
5.8849404e-05
7.7089401e-05
0.00010270336
0.00014039346
0.00020063838
0.00031119273
0.00056866487
0.0014495213
2.3490136e-05
2.5345655e-05
2.9488917e-05
3.6096511e-05
4.5638088e-05
5.8882368e-05
7.7129627e-05
0.00010274792
0.00014043846
0.00020067927
0.00031122438
0.00056868096
0.0014495179
2.3490529e-05
2.5348707e-05
2.9497493e-05
3.6112718e-05
4.5662977e-05
5.8915628e-05
7.7169553e-05
0.00010279162
0.0001404822
0.00020071877
0.00031125502
0.00056869742
0.00144952
2.349265e-05
2.5353396e-05
2.9507498e-05
3.6130018e-05
4.5688496e-05
5.8948967e-05
7.7208979e-05
0.0001028343
0.00014052455
0.00020075681
0.00031128458
0.0005687141
0.001449527
2.349633e-05
2.5359546e-05
2.9518744e-05
3.614821e-05
4.5714444e-05
5.8982189e-05
7.7247728e-05
0.00010287581
0.00014056541
0.00020079329
0.00031131297
0.00056873087
0.0014495384
2.3501404e-05
2.536699e-05
2.9531054e-05
3.6167112e-05
4.5740633e-05
5.9015117e-05
7.7285642e-05
0.00010291603
0.00014060467
0.00020082816
0.00031134016
0.00056874764
0.0014495538
2.3507719e-05
2.5375567e-05
2.9544262e-05
3.6186549e-05
4.5766892e-05
5.904759e-05
7.7322586e-05
0.00010295484
0.00014064227
0.00020086138
0.00031136611
0.0005687643
0.0014495725
2.3515124e-05
2.5385125e-05
2.955821e-05
3.6206364e-05
4.5793068e-05
5.9079468e-05
7.7358439e-05
0.00010299216
0.00014067816
0.00020089291
0.00031139078
0.0005687808
0.0014495944
2.3523479e-05
2.5395521e-05
2.9572752e-05
3.622641e-05
4.5819018e-05
5.9110624e-05
7.7393102e-05
0.00010302793
0.00014071228
0.00020092274
0.00031141418
0.00056879707
0.0014496189
2.353265e-05
2.540662e-05
2.9587751e-05
3.6246551e-05
4.5844616e-05
5.9140949e-05
7.7426488e-05
0.00010306207
0.00014074463
0.00020095086
0.0003114363
0.00056881304
0.0014496457
2.3542512e-05
2.5418295e-05
2.9603081e-05
3.6266665e-05
4.5869752e-05
5.9170349e-05
7.7458528e-05
0.00010309456
0.00014077517
0.00020097729
0.00031145714
0.00056882859
0.0014496745
2.3552944e-05
2.5430428e-05
2.9618625e-05
3.6286641e-05
4.5894323e-05
5.9198743e-05
7.7489166e-05
0.00010312536
0.00014080392
0.00020100203
0.00031147669
0.00056884344
0.0014497048
2.3563837e-05
2.5442907e-05
2.9634276e-05
3.6306377e-05
4.5918244e-05
5.9226062e-05
7.7518359e-05
0.00010315445
0.00014083087
0.0002010251
0.00031149492
0.00056885754
0.0014497363
2.3575087e-05
2.5455631e-05
2.9649933e-05
3.6325785e-05
4.5941438e-05
5.9252252e-05
7.7546075e-05
0.00010318184
0.00014085605
0.00020104653
0.00031151168
0.00056887102
0.0014497687
2.3586597e-05
2.5468505e-05
2.9665509e-05
3.6344783e-05
4.596384e-05
5.9277267e-05
7.7572295e-05
0.00010320753
0.00014087947
0.00020106629
0.00031152703
0.0005688839
0.0014498018
2.3598278e-05
2.5481443e-05
2.9680921e-05
3.6363301e-05
4.5985396e-05
5.9301075e-05
7.759701e-05
0.00010323153
0.00014090117
0.00020108433
0.00031154107
0.00056889622
0.0014498353
2.3610047e-05
2.5494364e-05
2.9696098e-05
3.6381278e-05
4.6006061e-05
5.9323653e-05
7.7620222e-05
0.00010325386
0.00014092112
0.00020110072
0.00031155386
0.00056890795
0.0014498688
2.3621831e-05
2.5507196e-05
2.9710973e-05
3.6398662e-05
4.6025801e-05
5.9344987e-05
7.7641935e-05
0.00010327454
0.00014093932
0.00020111556
0.00031156547
0.0005689191
0.0014499023
2.3633561e-05
2.5519876e-05
2.9725492e-05
3.6415408e-05
4.604459e-05
5.9365075e-05
7.7662176e-05
0.00010329355
0.00014095587
0.00020112891
0.00031157595
0.00056892966
0.0014499356
2.3645174e-05
2.5532345e-05
2.9739604e-05
3.6431482e-05
4.6062413e-05
5.9383922e-05
7.7680928e-05
0.00010331094
0.00014097082
0.00020114086
0.00031158536
0.00056893965
0.0014499684
2.3656617e-05
2.5544552e-05
2.9753267e-05
3.6446857e-05
4.607926e-05
5.9401521e-05
7.769821e-05
0.00010332676
0.00014098425
0.00020115147
0.00031159377
0.00056894908
0.0014500007
2.3667841e-05
2.5556453e-05
2.9766448e-05
3.6461514e-05
4.6095121e-05
5.9417871e-05
7.7714062e-05
0.00010334109
0.00014099624
0.00020116083
0.00031160124
0.00056895797
0.0014500324
2.3678803e-05
2.556801e-05
2.977912e-05
3.6475431e-05
4.6109984e-05
5.9432994e-05
7.772853e-05
0.00010335397
0.00014100685
0.00020116901
0.00031160783
0.00056896634
0.0014500633
2.3689468e-05
2.5579193e-05
2.9791254e-05
3.6488591e-05
4.6123854e-05
5.9446917e-05
7.7741661e-05
0.00010336549
0.00014101617
0.00020117607
0.00031161358
0.00056897422
0.0014500934
2.36998e-05
2.5589968e-05
2.9802827e-05
3.6500986e-05
4.6136742e-05
5.9459673e-05
7.7753508e-05
0.00010337569
0.00014102426
0.00020118209
0.00031161855
0.0005689816
0.0014501227
2.3709771e-05
2.560031e-05
2.9813822e-05
3.6512615e-05
4.6148666e-05
5.9471299e-05
7.7764124e-05
0.00010338465
0.00014103119
0.00020118713
0.00031162279
0.0005689885
0.0014501511
2.3719355e-05
2.5610198e-05
2.9824228e-05
3.652348e-05
4.6159647e-05
5.9481832e-05
7.7773564e-05
0.00010339244
0.00014103704
0.00020119126
0.00031162634
0.00056899491
0.0014501784
2.3728531e-05
2.5619615e-05
2.983404e-05
3.6533589e-05
4.6169708e-05
5.9491315e-05
7.7781886e-05
0.00010339912
0.00014104188
0.00020119455
0.00031162924
0.00056900083
0.0014502047
2.3737284e-05
2.5628551e-05
2.9843254e-05
3.6542954e-05
4.6178877e-05
5.9499792e-05
7.7789146e-05
0.00010340476
0.00014104577
0.00020119704
0.00031163154
0.00056900626
0.0014502297
2.3745601e-05
2.5636998e-05
2.9851872e-05
3.655159e-05
4.6187186e-05
5.9507309e-05
7.7795404e-05
0.00010340943
0.00014104878
0.0002011988
0.00031163326
0.00056901122
0.0014502536
2.3753474e-05
2.5644951e-05
2.9859901e-05
3.6559515e-05
4.6194666e-05
5.9513913e-05
7.7800718e-05
0.00010341318
0.00014105098
0.00020119988
0.00031163447
0.00056901572
0.0014502763
2.3760898e-05
2.565241e-05
2.9867347e-05
3.6566749e-05
4.6201353e-05
5.9519652e-05
7.7805147e-05
0.00010341609
0.00014105243
0.00020120036
0.00031163519
0.00056901978
0.0014502977
2.3767872e-05
2.5659378e-05
2.9874223e-05
3.6573315e-05
4.6207282e-05
5.9524574e-05
7.7808749e-05
0.00010341821
0.00014105319
0.00020120027
0.00031163548
0.00056902343
0.0014503178
2.3774397e-05
2.566586e-05
2.9880541e-05
3.6579238e-05
4.621249e-05
5.9528729e-05
7.7811581e-05
0.00010341962
0.00014105333
0.00020119968
0.00031163537