/*--------------------------------*- C++ -*----------------------------------*\
| =========                 |                                                 |
| \\      /  F ield         | OpenFOAM: The Open Source CFD Toolbox           |
|  \\    /   O peration     | Version:  2506                                  |
|   \\  /    A nd           | Website:  www.openfoam.com                      |
|    \\/     M anipulation  |                                                 |
\*---------------------------------------------------------------------------*/
FoamFile
{
    version     2.0;
    format      ascii;
    arch        "LSB;label=32;scalar=64";
    class       volScalarField;
    location    "21000/water";
    object      k;
}
// * * * * * * * * * * * * * * * * * * * * * * * * * * * * * * * * * * * * * //

dimensions      [0 2 -2 0 0 0 0];

internalField   nonuniform List<scalar> 
2600
(
0.0001992401
0.00019923925
0.00019923929
0.00019923963
0.00019923982
0.00019923914
0.00019923438
0.00019921375
0.00019914651
0.00019904325
0.00019990841
0.00021454267
0.00040955349
0.00017237279
0.00017237614
0.00017237826
0.00017238051
0.0001723821
0.00017237949
0.00017235884
0.00017227555
0.000172027
0.00017162102
0.00017329371
0.00020304806
0.00052391648
0.00015132731
0.00015133049
0.00015133306
0.00015133552
0.00015133516
0.00015132207
0.00015126283
0.00015106462
0.00015055477
0.00014985944
0.0001528957
0.00019760629
0.00057958156
0.00013448336
0.00013448533
0.00013448764
0.00013448905
0.00013448325
0.00013445009
0.00013432997
0.00013398205
0.00013321503
0.00013247936
0.00013787909
0.00019702317
0.00059640815
0.00012075551
0.00012075697
0.00012075853
0.00012075718
0.00012074152
0.0001206782
0.00012048052
0.00011997843
0.0001190486
0.00011870929
0.00012776334
0.00020116854
0.00059206885
0.0001093899
0.00010939088
0.000109391
0.00010938492
0.00010935483
0.00010925313
0.00010897207
0.00010834649
0.00010742643
0.0001080609
0.00012226457
0.00021023394
0.00057809221
9.984982e-05
9.9850093e-05
9.9847944e-05
9.9835056e-05
9.9786463e-05
9.9641865e-05
9.9284958e-05
9.859999e-05
9.7925044e-05
0.00010022517
0.00012123091
0.00022425603
0.00056106272
9.1744874e-05
9.174416e-05
9.1738826e-05
9.1717148e-05
9.1647174e-05
9.1460104e-05
9.1049018e-05
9.0398665e-05
9.0258419e-05
9.5030413e-05
0.00012461431
0.00024286356
0.00054449405
8.4785472e-05
8.4783454e-05
8.4774018e-05
8.4741918e-05
8.4649457e-05
8.4426122e-05
8.3996574e-05
8.3502376e-05
8.4241543e-05
9.2421343e-05
0.00013239492
0.00026511347
0.00053012765
7.8752977e-05
7.8749319e-05
7.8734951e-05
7.8691403e-05
7.8577619e-05
7.8330528e-05
7.7932172e-05
7.7743318e-05
7.9771153e-05
9.2438123e-05
0.00014444361
0.00028951151
0.0005186607
7.3479682e-05
7.3474066e-05
7.3454131e-05
7.3398964e-05
7.3267704e-05
7.3016085e-05
7.2712929e-05
7.3009357e-05
7.6815021e-05
9.5182833e-05
0.00016036324
0.00031428525
0.00051014247
6.8835097e-05
6.8827266e-05
6.8801436e-05
6.8735571e-05
6.8593744e-05
6.836405e-05
6.8235745e-05
6.9234209e-05
7.5403716e-05
0.00010076472
0.00017939076
0.00033780739
0.0005042266
6.4716374e-05
6.4706175e-05
6.4674551e-05
6.4600233e-05
6.4458202e-05
6.4284863e-05
6.4429045e-05
6.6391811e-05
7.5619872e-05
0.0001092241
0.00020043528
0.00035894529
0.00050037283
6.1041501e-05
6.1028932e-05
6.0992164e-05
6.091321e-05
6.0785257e-05
6.0711783e-05
6.1247563e-05
6.4493003e-05
7.7580807e-05
0.00012045028
0.00022225715
0.00037717552
0.0004980107
5.7744396e-05
5.7729653e-05
5.7689074e-05
5.7611142e-05
5.751606e-05
5.7596592e-05
5.8669223e-05
6.3582872e-05
8.1411587e-05
0.00013412437
0.00024370832
0.00039247762
0.00049664628
5.4771313e-05
5.4754847e-05
5.4712615e-05
5.4643526e-05
5.4605384e-05
5.4906753e-05
5.6693486e-05
6.3736861e-05
8.7208043e-05
0.00014971788
0.00026392364
0.00040513366
0.00049590625
5.2078186e-05
5.206076e-05
5.2020025e-05
5.1970154e-05
5.2019282e-05
5.2623661e-05
5.5340605e-05
6.5053658e-05
9.4994185e-05
0.00016655656
0.0002823955
0.00041554871
0.00049553614
4.9628636e-05
4.9611393e-05
4.9576492e-05
4.9559258e-05
4.9733503e-05
5.0741692e-05
5.4651195e-05
6.7643172e-05
0.00010468473
0.00018392817
0.00029893687
0.00042413794
0.00049537652
4.7392458e-05
4.7377004e-05
4.7353699e-05
4.7386176e-05
4.773248e-05
4.9267886e-05
5.4685329e-05
7.1608743e-05
0.00011606686
0.00020119288
0.00031358495
0.0004312733
0.0004953351
4.5344476e-05
4.5332971e-05
4.5328746e-05
4.5432431e-05
4.600877e-05
4.8222045e-05
5.5520138e-05
7.7024461e-05
0.0001288111
0.00021785898
0.00032650009
0.00043726613
0.00049536293
4.3463657e-05
4.3458933e-05
4.3483358e-05
4.3685127e-05
4.4562868e-05
4.7637065e-05
5.7244887e-05
8.3911105e-05
0.00014251076
0.00023360813
0.00033789056
0.00044236711
0.00049543702
4.1732429e-05
4.173814e-05
4.1803329e-05
4.2136614e-05
4.3403329e-05
4.7559127e-05
5.9952699e-05
9.2216772e-05
0.00015673761
0.00024827796
0.00034796834
0.00044677301
0.00049554866
4.0136167e-05
4.015697e-05
4.0278148e-05
4.0784372e-05
4.2547129e-05
4.8047288e-05
6.3728701e-05
0.00010180889
0.00017109624
0.00026182258
0.0003569282
0.0004506357
0.00049569617
3.8662802e-05
3.8704582e-05
3.8900797e-05
3.9631107e-05
4.2020194e-05
4.9171841e-05
6.863543e-05
0.00011248165
0.00018526229
0.00027427017
0.00036494028
0.00045407114
0.00049588069
3.7302531e-05
3.7372692e-05
3.7667676e-05
3.8685008e-05
4.1857944e-05
5.1010816e-05
7.4697745e-05
0.00012397797
0.00019899861
0.00028568912
0.00037214923
0.00045716736
0.00049610392
3.6047628e-05
3.6155447e-05
3.6578682e-05
3.7960181e-05
4.2105652e-05
5.3644137e-05
8.1890765e-05
0.00013601988
0.00021215193
0.00029616533
0.00037867608
0.00045999117
0.00049636709
3.4892327e-05
3.5049398e-05
3.5637398e-05
3.7477201e-05
4.2818254e-05
5.7145344e-05
9.0134488e-05
0.00014833914
0.00022463802
0.00030578893
0.00038462123
0.0004625934
0.00049667064
3.383279e-05
3.4053569e-05
3.4851411e-05
3.7263736e-05
4.4059203e-05
6.1571462e-05
9.929738e-05
0.00016070076
0.00023642316
0.00031464713
0.00039006764
0.00046501299
0.00049701416
3.2867148e-05
3.316962e-05
3.4232755e-05
3.7355161e-05
4.589791e-05
6.6952451e-05
0.00010920861
0.00017291579
0.00024750737
0.00032282077
0.00039508378
0.00046727996
0.00049739654
3.1995627e-05
3.2402111e-05
3.3798454e-05
3.7794962e-05
4.8405427e-05
7.3282436e-05
0.00011967597
0.00018484396
0.00025791153
0.00033038288
0.00039972633
0.00046941773
0.00049781615
3.1220754e-05
3.1758868e-05
3.3571166e-05
3.8634689e-05
5.16483e-05
8.0515035e-05
0.00013050501
0.00019638896
0.00026766839
0.00033739835
0.00040404224
0.00047144508
0.00049827105
3.0547674e-05
3.1251459e-05
3.3579859e-05
3.9933128e-05
5.5680956e-05
8.8564413e-05
0.00014151526
0.0002074904
0.00027681664
0.00034392426
0.00040806987
0.00047336165
0.00049875826
2.9984563e-05
3.0895779e-05
3.3860462e-05
4.1754324e-05
6.0537585e-05
9.7312152e-05
0.00015255089
0.00021811501
0.00028539698
0.00035000997
0.00041183982
0.00047517683
0.00049927448
2.9543172e-05
3.0712741e-05
3.4456304e-05
4.4164152e-05
6.6225007e-05
0.00010661843
0.0001634853
0.00022824915
0.00029345001
0.00035569878
0.00041537498
0.00047690098
0.00049981638
2.9239499e-05
3.0729041e-05
3.541815e-05
4.7225367e-05
7.2718219e-05
0.00011633497
0.00017422102
0.00023789273
0.00030101459
0.00036102772
0.000418694
0.00047854313
0.00050038114
2.9094596e-05
3.0977953e-05
3.6803504e-05
5.0991338e-05
7.9959887e-05
0.00012631696
0.00018468652
0.00024705469
0.00030812684
0.00036602759
0.00042181619
0.00048011509
0.00050096676
2.9135497e-05
3.1500048e-05
3.8674864e-05
5.5499194e-05
8.786417e-05
0.00013643209
0.00019483196
0.00025575015
0.00031482084
0.00037072328
0.00042475508
0.00048162854
0.000501572
2.9396233e-05
3.2343671e-05
4.1096636e-05
6.076351e-05
9.6324079e-05
0.00014656575
0.00020462432
0.0002639967
0.00032112526
0.00037513788
0.00042753007
0.00048308916
0.00050219529
2.9918843e-05
3.3564912e-05
4.4130591e-05
6.6771892e-05
0.00010522079
0.00015662302
0.00021404418
0.00027181505
0.00032706606
0.00037928747
0.00043015897
0.00048450265
0.00050283511
3.0754244e-05
3.5226729e-05
4.783004e-05
7.3483562e-05
0.00011443288
0.00016652784
0.00022308102
0.00027922363
0.00033266467
0.00038319522
0.0004326545
0.00048587307
0.00050348988
3.1962699e-05
3.7396847e-05
5.2233357e-05
8.0831466e-05
0.00012384409
0.00017622137
0.00023173238
0.0002862417
0.00033793723
0.00038688252
0.00043502773
0.00048720352
0.00050415803
3.361351e-05
4.0144099e-05
5.735786e-05
8.8727406e-05
0.00013334837
0.00018565852
0.00023999855
0.00029288457
0.000342906
0.00039036649
0.00043728791
0.00048849634
0.00050483797
3.5783415e-05
4.3533085e-05
6.3195325e-05
9.7069247e-05
0.00014285308
0.00019480684
0.00024788469
0.00029916231
0.0003475933
0.00039366187
0.00043944269
0.00048975325
0.00050552812
3.855308e-05
4.7617449e-05
6.9710136e-05
0.00010574828
0.00015227867
0.00020364079
0.0002553933
0.00030509328
0.00035201759
0.00039678118
0.00044149842
0.00049097545
0.00050622692
4.2001171e-05
5.2432582e-05
7.6840742e-05
0.00011465643
0.00016156003
0.00021214496
0.00026252194
0.00031069683
0.000356195
0.00039973504
0.0004434603
0.00049216367
0.00050693283
4.6195939e-05
5.7988986e-05
8.4503838e-05
0.00012369062
0.0001706418
0.00022029903
0.00026928195
0.00031598929
0.00036013925
0.00040253238
0.00044533252
0.00049331826
0.00050764432
5.118504e-05
6.4267735e-05
9.2600659e-05
0.00013275651
0.00017947941
0.0002280859
0.00027568471
0.00032098503
0.00036386202
0.00040518056
0.00044711836
0.00049443921
0.00050835989
5.6985383e-05
7.1219314e-05
0.00010102459
0.00014177167
0.00018802209
0.00023550304
0.00028174031
0.0003256963
0.00036737304
0.00040768556
0.00044882026
0.00049552615
0.000509078
6.35755e-05
7.8766102e-05
0.00010966809
0.00015065103
0.00019623702
0.00024254865
0.00028745746
0.00033013331
0.00037068023
0.00041005205
0.00045043988
0.00049657836
0.00050979712
7.0893506e-05
8.6809045e-05
0.00011841801
0.00015932164
0.00020409991
0.00024922139
0.00029284336
0.00033430427
0.00037378984
0.00041228348
0.00045197812
0.00049759483
0.00051051571
7.8838282e-05
9.5225394e-05
0.00012716549
0.0001677259
0.00021159053
0.00025552
0.00029790358
0.00033821555
0.00037670648
0.00041438213
0.00045343518
0.00049857418
0.00051123213
8.7271764e-05
0.0001038814
0.00013581418
0.00017581508
0.00021869193
0.00026144298
0.00030264214
0.00034187167
0.00037943324
0.00041634919
0.00045481054
0.00049951469
0.00051194472
9.6036206e-05
0.00011264291
0.00014427886
0.00018354852
0.00022539
0.00026698863
0.0003070616
0.00034527556
0.00038197181
0.00041818478
0.00045610303
0.00050041431
0.00051265169
0.00010496812
0.0001213822
0.0001524859
0.00019089302
0.00023167335
0.00027215517
0.00031116332
0.00034842866
0.00038432261
0.00041988808
0.00045731082
0.00050127063
0.00051335112
0.00011391061
0.00012998324
0.00016037327
0.00019782236
0.00023753334
0.00027694109
0.00031494781
0.00035133129
0.00038648498
0.00042145743
0.00045843154
0.00050208095
0.00051404099
0.0001227225
0.00013834519
0.00016789036
0.00020431696
0.00024296425
0.00028134553
0.00031841516
0.00035398296
0.00038845746
0.00042289052
0.00045946231
0.00050284226
0.00051471912
0.0001312839
0.0001463843
0.00017499756
0.00021036347
0.00024796342
0.00028536876
0.00032156551
0.00035638279
0.00039023808
0.00042418455
0.00046039997
0.0005035514
0.00051538316
0.00013949844
0.00015403431
0.00018166561
0.00021595444
0.00025253143
0.00028901263
0.00032439961
0.00035852996
0.00039182472
0.00042533657
0.00046124117
0.00050420509
0.00051603067
0.00014729307
0.00016124585
0.00018787485
0.00022108784
0.00025667213
0.00029228087
0.00032691921
0.00036042416
0.00039321548
0.0004263437
0.00046198264
0.0005048001
0.0005166591
0.00015461613
0.00016798501
0.00019361431
0.0002257666
0.00026039252
0.00029517939
0.00032912754
0.00036206602
0.00039440908
0.00042720349
0.00046262139
0.00050533341
0.00051726586
0.00016143469
0.00017423147
0.00019888063
0.00022999798
0.0002637026
0.00029771635
0.00033102951
0.00036345746
0.00039540521
0.00042791421
0.00046315498
0.00050580233
0.00051784836
0.00016773143
0.00017997643
0.00020367705
0.00023379305
0.00026661511
0.0002999022
0.000332632
0.00036460199
0.00039620484
0.00042847516
0.00046358175
0.00050620472
0.0005184041
0.00017350167
0.00018522059
0.00020801229
0.00023716601
0.00026914511
0.00030174949
0.00033394381
0.00036550488
0.00039681041
0.00042888686
0.000463901
0.0005065391
0.00051893074
0.00017875061
0.00018997217
0.00021189951
0.00024013366
0.00027130964
0.00030327272
0.00033497569
0.0003661732
0.00039722606
0.00042915125
0.00046411316
0.0005068048
0.00051942617
0.00018349098
0.00019424526
0.00021535542
0.00024271481
0.00027312735
0.00030448802
0.00033574018
0.00036661586
0.00039745759
0.00042927176
0.00046421989
0.000507002
0.00051988856
0.00018774098
0.00019805829
0.00021839936
0.00024492974
0.00027461802
0.00030541288
0.00033625141
0.00036684346
0.00039751248
0.00042925336
0.00046422413
0.0005071318
0.00052031645
0.00019152274
0.00020143279
0.00022105256
0.0002467998
0.00027580229
0.00030606582
0.0003365248
0.00036686812
0.00039739979
0.00042910246
0.00046413005
0.00050719619
0.00052070875
0.00019486095
0.00020439239
0.00022333756
0.00024834695
0.00027670128
0.00030646608
0.00033657683
0.00036670323
0.00039712996
0.00042882683
0.00046394296
0.00050719805
0.0005210648
0.00019778185
0.00020696198
0.00022527761
0.00024959346
0.00027733627
0.0003066333
0.00033642476
0.00036636324
0.00039671457
0.00042843539
0.00046366922
0.000507141
0.00052138437
0.00020031248
0.00020916709
0.00022689627
0.00025056156
0.00027772852
0.00030658727
0.00033608627
0.00036586332
0.00039616618
0.00042793802
0.00046331604
0.00050702933
0.00052166764
0.00020248005
0.00021103337
0.00022821705
0.00025127327
0.00027789898
0.00030634768
0.00033557926
0.00036521915
0.00039549796
0.00042734531
0.00046289129
0.00050686783
0.00052191517
0.00020431148
0.00021258618
0.00022926313
0.00025175015
0.00027786814
0.00030593392
0.00033492158
0.00036444659
0.00039472349
0.00042666836
0.0004624033
0.0005066617
0.00052212789
0.00020583312
0.00021385037
0.00023005715
0.00025201315
0.00027765591
0.00030536489
0.00033413082
0.00036356148
0.00039385652
0.00042591848
0.00046186067
0.00050641636
0.00052230707
0.00020707045
0.00021484999
0.00023062104
0.00025208251
0.00027728143
0.00030465887
0.00033322411
0.00036257942
0.0003929107
0.00042510703
0.00046127208
0.00050613734
0.0005224542
0.00020804799
0.00021560819
0.0002309759
0.00025197764
0.00027676306
0.00030383336
0.00033221797
0.00036151555
0.00039189939
0.00042424517
0.00046064609
0.00050583013
0.00052257103
0.00020878912
0.0002161471
0.00023114189
0.00025171706
0.00027611826
0.00030290506
0.00033112819
0.00036038444
0.00039083549
0.00042334374
0.00045999103
0.00050550008
0.00052265946
0.00020931605
0.00021648776
0.00023113822
0.00025131835
0.00027536354
0.00030188972
0.00032996972
0.0003591999
0.00038973131
0.00042241306
0.00045931482
0.00050515234
0.0005227215
0.00020964978
0.00021665007
0.00023098304
0.00025079814
0.00027451446
0.00030080217
0.00032875662
0.00035797497
0.00038859842
0.00042146286
0.00045862494
0.00050479173
0.00052275925
0.00020981007
0.0002166528
0.00023069348
0.00025017203
0.0002735856
0.00029965623
0.00032750199
0.00035672176
0.00038744761
0.00042050218
0.00045792827
0.00050442273
0.00052277483
0.00020981548
0.00021651357
0.00023028563
0.00024945468
0.00027259053
0.00029846474
0.00032621793
0.00035545146
0.00038628881
0.00041953929
0.00045723114
0.00050404945
0.00052277036
0.00020968335
0.00021624885
0.00022977454
0.00024865973
0.00027154187
0.00029723955
0.00032491558
0.00035417431
0.00038513104
0.00041858169
0.0004565392
0.00050367555
0.00052274793
0.00020942985
0.00021587403
0.00022917422
0.00024779985
0.00027045125
0.00029599151
0.00032360508
0.00035289958
0.00038398244
0.00041763607
0.00045585747
0.00050330431
0.00052270956
0.00020907002
0.00021540339
0.0002284977
0.00024688679
0.00026932937
0.00029473053
0.00032229559
0.00035163558
0.00038285024
0.00041670833
0.00045519033
0.00050293858
0.0005226572
0.00020861778
0.00021485019
0.00022775703
0.00024593136
0.00026818601
0.00029346558
0.00032099534
0.0003503897
0.0003817408
0.00041580358
0.00045454153
0.0005025808
0.0005225927
0.00020808602
0.00021422666
0.00022696333
0.00024494347
0.00026703007
0.00029220472
0.00031971165
0.00034916842
0.0003806596
0.00041492617
0.00045391422
0.000502233
0.00052251782
0.00020748662
0.00021354409
0.00022612682
0.0002439322
0.00026586961
0.00029095517
0.00031845096
0.00034797738
0.00037961135
0.00041407973
0.00045331087
0.00050189541
0.00052243411
0.0002068305
0.00021281283
0.00022525688
0.0002429058
0.00026471187
0.00028972333
0.00031721888
0.00034682138
0.00037859993
0.00041326715
0.0004527332
0.00050156778
0.00052234291
0.00020612767
0.0002120424
0.00022436203
0.00024187175
0.00026356335
0.00028851483
0.00031602027
0.00034570446
0.00037762855
0.00041249068
0.00045218159
0.00050125096
0.00052224542
0.00020538729
0.00021124143
0.00022345004
0.00024083678
0.00026242981
0.00028733457
0.00031485924
0.00034462996
0.00037669968
0.00041175177
0.0004516567
0.00050094649
0.00052214285
0.0002046177
0.00021041784
0.00022252796
0.00023980695
0.00026131634
0.00028618678
0.00031373923
0.00034360058
0.00037581523
0.00041105091
0.00045115875
0.00050065629
0.00052203648
0.00020382649
0.00020957875
0.00022160213
0.00023878763
0.00026022739
0.00028507507
0.00031266307
0.00034261834
0.00037497617
0.00041038833
0.00045068896
0.0005003814
0.0005219275
0.00020302052
0.00020873063
0.00022067822
0.0002377836
0.00025916681
0.00028400244
0.00031163297
0.00034168464
0.00037418296
0.0004097643
0.00045024818
0.00050012253
0.00052181697
0.00020220598
0.00020787929
0.00021976133
0.00023679905
0.0002581379
0.00028297136
0.00031065063
0.00034080022
0.00037343534
0.00040917949
0.00044983681
0.00049988009
0.00052170584
0.00020138844
0.00020702993
0.00021885596
0.00023583765
0.00025714347
0.00028198379
0.00030971707
0.00033996503
0.00037273365
0.00040863404
0.00044945487
0.00049965423
0.00052159494
0.00020057287
0.00020618718
0.00021796608
0.00023490255
0.00025618581
0.00028104115
0.00030883273
0.00033917903
0.00037207798
0.00040812776
0.00044910208
0.0004994449
0.00052148502
0.00019976373
0.00020535515
0.00021709519
0.00023399645
0.00025526676
0.00028014434
0.00030799748
0.00033844231
0.00037146803
0.00040766015
0.00044877795
0.00049925185
0.00052137669
0.00019896493
0.00020453748
0.00021624631
0.00023312164
0.00025438769
0.00027929349
0.00030721149
0.00033775461
0.00037090321
0.00040723045
0.00044848177
0.00049907473
0.00052127049
0.00019817996
0.00020373735
0.00021542208
0.00023227986
0.00025354922
0.000278489
0.00030647466
0.00033711537
0.00037038265
0.00040683769
0.0004482127
0.00049891308
0.00052116691
0.00019741186
0.00020295752
0.00021462454
0.0002314723
0.00025275206
0.000277731
0.00030578656
0.00033652375
0.00036990527
0.00040648072
0.00044796977
0.00049876638
0.00052106631
0.00019666318
0.0002022002
0.00021385535
0.00023070006
0.00025199667
0.00027701933
0.00030514653
0.00033597873
0.00036946982
0.00040615828
0.00044775192
0.00049863404
0.00052096903
0.00019593605
0.00020146727
0.00021311592
0.00022996394
0.00025128324
0.00027635361
0.00030455372
0.00033547906
0.00036907489
0.00040586898
0.00044755803
0.00049851544
0.00052087535
0.00019523228
0.0002007603
0.00021240737
0.00022926451
0.00025061175
0.00027573324
0.00030400704
0.00033502336
0.00036871894
0.00040561136
0.00044738692
0.00049840994
0.00052078547
0.00019455339
0.00020008059
0.00021173058
0.0002286021
0.00024998193
0.00027515744
0.00030350527
0.00033461011
0.00036840035
0.00040538389
0.0004472374
0.00049831685
0.00052069956
0.00019390065
0.00019942919
0.00021108619
0.00022797682
0.00024939336
0.00027462524
0.00030304703
0.00033423767
0.0003681174
0.00040518499
0.00044710822
0.00049823549
0.00052061775
0.00019327504
0.00019880691
0.0002104746
0.00022738859
0.00024884539
0.00027413553
0.00030263082
0.00033390431
0.00036786833
0.00040501307
0.00044699814
0.00049816516
0.00052054011
0.00019267734
0.00019821432
0.00020989604
0.00022683713
0.00024833725
0.00027368704
0.00030225504
0.00033360823
0.00036765133
0.00040486649
0.00044690591
0.00049810515
0.00052046669
0.00019210812
0.00019765182
0.00020935052
0.000226322
0.00024786801
0.00027327843
0.000301918
0.00033334759
0.00036746457
0.00040474363
0.0004468303
0.00049805476
0.00052039749
0.00019156774
0.00019711959
0.00020883789
0.00022584262
0.00024743662
0.00027290824
0.00030161795
0.00033312049
0.0003673062
0.00040464289
0.00044677009
0.0004980133
0.0005203325
0.0001910564
0.00019661766
0.00020835786
0.00022539827
0.00024704193
0.00027257493
0.00030135311
0.00033292504
0.00036717441
0.00040456269
0.00044672409
0.0004979801
0.00052027167
0.00019057412
0.00019614591
0.00020790999
0.00022498811
0.00024668271
0.00027227691
0.00030112163
0.00033275934
0.00036706739
0.00040450147
0.00044669117
0.00049795452
0.00052021495
0.00019012079
0.00019570405
0.00020749371
0.00022461122
0.00024635762
0.00027201255
0.0003009217
0.00033262151
0.00036698336
0.00040445776
0.00044667022
0.00049793596
0.00052016226
0.00018969615
0.00019529172
0.00020710836
0.00022426657
0.00024606531
0.00027178019
0.00030075147
0.00033250969
0.00036692062
0.0004044301
0.0004466602
0.00049792384
0.00052011352
0.00018929983
0.00019490839
0.00020675318
0.00022395307
0.00024580435
0.00027157814
0.00030060913
0.00033242205
0.00036687749
0.00040441711
0.00044666012
0.00049791761
0.00052006862
0.00018893136
0.00019455347
0.00020642731
0.00022366957
0.00024557329
0.00027140473
0.00030049286
0.00033235682
0.00036685235
0.00040441746
0.00044666901
0.00049791676
0.00052002745
0.00018859017
0.00019422627
0.00020612983
0.00022341486
0.00024537065
0.00027125825
0.00030040088
0.00033231224
0.00036684364
0.00040442987
0.00044668598
0.00049792077
0.00051998991
0.00018827559
0.00019392601
0.00020585976
0.0002231877
0.00024519492
0.00027113704
0.00030033144
0.00033228664
0.00036684984
0.00040445313
0.00044671015
0.00049792917
0.00051995585
0.00018798689
0.00019365186
0.00020561606
0.0002229868
0.00024504461
0.00027103942
0.00030028284
0.00033227837
0.00036686951
0.00040448607
0.0004467407
0.00049794148
0.00051992515
0.00018772325
0.0001934029
0.00020539764
0.00022281084
0.00024491819
0.00027096375
0.00030025338
0.00033228583
0.00036690125
0.00040452755
0.00044677683
0.00049795725
0.00051989765
0.00018748382
0.00019317819
0.00020520337
0.00022265852
0.00024481416
0.0002709084
0.00030024143
0.0003323075
0.00036694373
0.00040457653
0.00044681778
0.00049797604
0.0005198732
0.00018726767
0.00019297673
0.0002050321
0.00022252847
0.00024473102
0.00027087179
0.00030024542
0.00033234189
0.00036699566
0.00040463199
0.00044686284
0.00049799743
0.00051985164
0.00018707386
0.00019279749
0.00020488266
0.00022241939
0.0002446673
0.00027085238
0.00030026383
0.00033238761
0.00036705585
0.00040469298
0.00044691135
0.00049802105
0.00051983281
0.00018690139
0.0001926394
0.00020475387
0.00022232992
0.00024462155
0.00027084867
0.00030029519
0.00033244332
0.00036712316
0.00040475862
0.0004469627
0.00049804653
0.00051981656
0.00018674926
0.00019250141
0.00020464454
0.00022225877
0.00024459237
0.00027085922
0.0003003381
0.00033250776
0.00036719653
0.0004048281
0.00044701631
0.00049807355
0.00051980273
0.00018661645
0.00019238244
0.00020455348
0.00022220464
0.00024457838
0.00027088264
0.00030039126
0.00033257976
0.00036727499
0.00040490066
0.00044707169
0.00049810184
0.00051979117
0.00018650191
0.00019228139
0.00020447954
0.00022216627
0.00024457827
0.00027091762
0.00030045341
0.00033265819
0.00036735761
0.00040497561
0.00044712837
0.00049813113
0.00051978175
0.00018640463
0.0001921972
0.00020442156
0.00022214243
0.00024459077
0.00027096288
0.00030052338
0.00033274204
0.00036744356
0.00040505233
0.00044718593
0.00049816119
0.00051977431
0.00018632357
0.0001921288
0.0002043784
0.00022213194
0.00024461463
0.00027101725
0.00030060004
0.00033283033
0.00036753205
0.00040513024
0.000447244
0.00049819182
0.00051976874
0.00018625769
0.00019207513
0.00020434895
0.00022213361
0.0002446487
0.00027107956
0.00030068236
0.00033292216
0.00036762237
0.00040520881
0.00044730222
0.0004982228
0.00051976489
0.00018620599
0.00019203515
0.00020433213
0.00022214634
0.00024469185
0.00027114875
0.00030076936
0.0003330167
0.00036771384
0.00040528754
0.00044736025
0.00049825394
0.00051976263
0.00018616747
0.00019200782
0.00020432687
0.00022216903
0.00024474298
0.00027122378
0.00030086011
0.00033311316
0.00036780585
0.00040536598
0.00044741779
0.00049828504
0.00051976181
0.00018614112
0.00019199215
0.00020433214
0.00022220064
0.00024480108
0.00027130369
0.00030095373
0.0003332108
0.0003678978
0.0004054437
0.00044747455
0.00049831591
0.00051976232
0.00018612598
0.00019198715
0.00020434695
0.00022224016
0.00024486516
0.00027138756
0.00030104943
0.00033330896
0.00036798919
0.00040552032
0.00044753025
0.00049834637
0.000519764
0.00018612111
0.00019199186
0.00020437031
0.00022228663
0.0002449343
0.00027147453
0.00030114646
0.00033340701
0.00036807952
0.00040559547
0.00044758466
0.00049837627
0.00051976674
0.00018612558
0.00019200537
0.00020440132
0.00022233915
0.00024500763
0.00027156383
0.00030124412
0.0003335044
0.00036816836
0.00040566887
0.00044763758
0.00049840546
0.00051977042
0.00018613852
0.00019202678
0.00020443909
0.00022239684
0.00024508434
0.00027165471
0.00030134181
0.00033360063
0.00036825536
0.00040574025
0.00044768884
0.00049843385
0.00051977491
0.00018615907
0.00019205525
0.00020448277
0.00022245891
0.00024516369
0.00027174652
0.00030143896
0.00033369527
0.00036834018
0.0004058094
0.00044773832
0.00049846137
0.00051978013
0.00018618643
0.00019208997
0.00020453159
0.00022252461
0.00024524498
0.00027183866
0.00030153508
0.00033378793
0.00036842257
0.00040587617
0.00044778592
0.00049848798
0.00051978598
0.00018621981
0.00019213018
0.0002045848
0.00022259323
0.00024532758
0.00027193058
0.00030162975
0.0003338783
0.00036850232
0.0004059404
0.00044783157
0.00049851352
0.00051979238
0.00018625849
0.00019217517
0.00020464171
0.00022266414
0.00024541092
0.0002720218
0.00030172257
0.0003339661
0.00036857923
0.00040600202
0.00044787521
0.00049853786
0.00051979924
0.00018630178
0.00019222423
0.00020470166
0.00022273672
0.00024549447
0.00027211188
0.00030181321
0.00033405109
0.00036865316
0.00040606092
0.00044791672
0.00049856096
0.00051980647
0.00018634901
0.00019227673
0.00020476404
0.00022281041
0.00024557774
0.00027220043
0.00030190137
0.00033413306
0.00036872398
0.00040611701
0.00044795601
0.00049858283
0.000519814
0.00018639955
0.00019233207
0.00020482828
0.00022288471
0.00024566029
0.00027228709
0.00030198678
0.00033421183
0.00036879157
0.00040617019
0.00044799302
0.00049860354
0.00051982174
0.00018645282
0.00019238965
0.00020489384
0.00022295913
0.00024574171
0.00027237153
0.00030206921
0.00033428724
0.00036885581
0.00040622037
0.00044802774
0.00049862308
0.00051982965
0.00018650825
0.00019244895
0.00020496021
0.00022303322
0.00024582164
0.00027245348
0.00030214844
0.00033435915
0.00036891661
0.00040626747
0.00044806023
0.00049864147
0.00051983766
0.00018656533
0.00019250946
0.00020502694
0.00022310659
0.00024589975
0.00027253267
0.00030222431
0.00033442744
0.00036897384
0.00040631151
0.00044809051
0.0004986587
0.0005198457
0.00018662356
0.00019257072
0.00020509361
0.00022317887
0.00024597573
0.00027260891
0.00030229667
0.000334492
0.00036902749
0.00040635252
0.00044811859
0.00049867478
0.00051985373
0.00018668251
0.00019263229
0.00020515982
0.00022324975
0.00024604936
0.00027268201
0.00030236541
0.00033455274
0.00036907757
0.00040639056
0.00044814453
0.00049868971
0.00051986169
0.00018674175
0.00019269379
0.00020522525
0.00022331893
0.00024612042
0.00027275183
0.00030243041
0.00033460967
0.00036912414
0.00040642569
0.00044816838
0.00049870352
0.00051986955
0.00018680094
0.00019275488
0.00020528958
0.00022338619
0.00024618874
0.00027281826
0.00030249163
0.00033466283
0.00036916728
0.000406458
0.00044819023
0.00049871626
0.00051987727
0.00018685974
0.00019281525
0.00020535256
0.00022345133
0.00024625418
0.00027288119
0.00030254909
0.00033471228
0.00036920708
0.0004064876
0.00044821015
0.00049872799
0.00051988483
0.00018691786
0.00019287464
0.00020541396
0.00022351416
0.0002463166
0.00027294062
0.00030260282
0.00033475811
0.00036924366
0.00040651459
0.00044822826
0.00049873875
0.00051989222
0.00018697504
0.0001929328
0.00020547358
0.00022357453
0.00024637594
0.00027299653
0.0003026529
0.00033480042
0.00036927712
0.00040653909
0.00044824463
0.0004987486
0.00051989941
0.00018703105
0.00019298953
0.00020553125
0.00022363233
0.00024643216
0.00027304896
0.00030269937
0.00033483931
0.0003693076
0.00040656122
0.00044825937
0.0004987576
0.0005199064
0.00018708568
0.00019304462
0.00020558681
0.00022368747
0.00024648523
0.00027309793
0.00030274235
0.00033487491
0.00036933521
0.00040658109
0.00044827254
0.00049876577
0.00051991317
0.00018713874
0.00019309791
0.00020564013
0.00022373988
0.00024653514
0.0002731435
0.0003027819
0.00033490731
0.00036936007
0.00040659881
0.00044828423
0.00049877314
0.00051991969
0.00018719006
0.00019314926
0.00020569114
0.00022378953
0.00024658191
0.00027318572
0.00030281813
0.00033493664
0.00036938229
0.00040661446
0.0004482945
0.00049877973
0.00051992595
0.00018723952
0.00019319855
0.00020573973
0.00022383637
0.00024662556
0.00027322467
0.00030285114
0.00033496302
0.00036940201
0.00040662815
0.00044830342
0.00049878557
0.00051993195
0.00018728699
0.00019324569
0.00020578586
0.0002238804
0.00024666613
0.00027326042
0.00030288104
0.00033498656
0.00036941932
0.00040663998
0.00044831104
0.00049879069
0.00051993766
0.00018733238
0.00019329059
0.00020582948
0.00022392162
0.00024670367
0.00027329307
0.00030290795
0.0003350074
0.00036943436
0.00040665005
0.00044831746
0.00049879512
0.00051994307
0.00018737562
0.00019333321
0.00020587056
0.00022396006
0.00024673824
0.00027332272
0.00030293199
0.00033502567
0.00036944725
0.00040665847
0.00044832275
0.0004987989
0.00051994819
0.00018741664
0.0001933735
0.00020590911
0.00022399574
0.00024676992
0.00027334947
0.00030295329
0.00033504151
0.00036945813
0.00040666536
0.00044832698
0.0004988021
0.00051995302
0.00018745541