/*--------------------------------*- C++ -*----------------------------------*\
| =========                 |                                                 |
| \\      /  F ield         | OpenFOAM: The Open Source CFD Toolbox           |
|  \\    /   O peration     | Version:  2506                                  |
|   \\  /    A nd           | Website:  www.openfoam.com                      |
|    \\/     M anipulation  |                                                 |
\*---------------------------------------------------------------------------*/
FoamFile
{
    version     2.0;
    format      ascii;
    arch        "LSB;label=32;scalar=64";
    class       volScalarField;
    location    "21000/water";
    object      nut;
}
// * * * * * * * * * * * * * * * * * * * * * * * * * * * * * * * * * * * * * //

dimensions      [0 2 -1 0 0 0 0];

internalField   nonuniform List<scalar> 
2600
(
4.0562043e-05
4.0561942e-05
4.0561944e-05
4.0561981e-05
4.0561942e-05
4.0561434e-05
4.0558261e-05
4.0540002e-05
4.0435343e-05
3.98338e-05
3.6541397e-05
2.4161555e-05
1.4889524e-05
3.944741e-05
3.9447468e-05
3.944759e-05
3.9447676e-05
3.9447275e-05
3.9444342e-05
3.9428907e-05
3.9352895e-05
3.8988431e-05
3.7314814e-05
3.0763187e-05
1.7536144e-05
1.684056e-05
3.852265e-05
3.852264e-05
3.8522725e-05
3.8522528e-05
3.8520597e-05
3.8510798e-05
3.8466747e-05
3.8277827e-05
3.7500368e-05
3.454641e-05
2.5814945e-05
1.4669956e-05
1.7712619e-05
3.7742032e-05
3.774193e-05
3.7741811e-05
3.7740766e-05
3.7735283e-05
3.7711707e-05
3.7617453e-05
3.7258039e-05
3.5961308e-05
3.177518e-05
2.2061889e-05
1.3531464e-05
1.7967898e-05
3.7073562e-05
3.7073366e-05
3.7072781e-05
3.7069955e-05
3.7057916e-05
3.7011651e-05
3.6843992e-05
3.6266509e-05
3.4405655e-05
2.9188861e-05
1.9425178e-05
1.3345943e-05
1.7902414e-05
3.6493786e-05
3.6493393e-05
3.6491924e-05
3.648598e-05
3.646354e-05
3.6384687e-05
3.612226e-05
3.5294625e-05
3.2873382e-05
2.6881541e-05
1.771645e-05
1.3793839e-05
1.7689846e-05
3.5985207e-05
3.5984445e-05
3.5981496e-05
3.5970726e-05
3.5933497e-05
3.5812307e-05
3.5437992e-05
3.4343601e-05
3.1395257e-05
2.4892541e-05
1.6781972e-05
1.4727875e-05
1.7427344e-05
3.5534568e-05
3.55332e-05
3.5528007e-05
3.5510417e-05
3.5453869e-05
3.5281761e-05
3.478374e-05
3.3418009e-05
2.9989903e-05
2.3242727e-05
1.6521213e-05
1.605365e-05
1.7168093e-05
3.5131649e-05
3.5129373e-05
3.5121029e-05
3.5094485e-05
3.5014364e-05
3.4784646e-05
3.4156253e-05
3.2521766e-05
2.8667649e-05
2.1957692e-05
1.6869959e-05
1.7676047e-05
1.694009e-05
3.4768438e-05
3.47649e-05
3.4752406e-05
3.4714802e-05
3.4607522e-05
3.4315777e-05
3.3554458e-05
3.16563e-05
2.7438403e-05
2.1076946e-05
1.7774701e-05
1.9481897e-05
1.6755877e-05
3.4438571e-05
3.443338e-05
3.4415717e-05
3.4365168e-05
3.4228127e-05
3.3872266e-05
3.2977968e-05
3.0820513e-05
2.6321667e-05
2.0649591e-05
1.9168673e-05
2.1348725e-05
1.6617712e-05
3.4136931e-05
3.4129689e-05
3.4105903e-05
3.4040932e-05
3.3872746e-05
3.3452766e-05
3.2426062e-05
3.0012536e-05
2.5355877e-05
2.0719809e-05
2.0958175e-05
2.3166793e-05
1.6521078e-05
3.3859367e-05
3.3849701e-05
3.3819003e-05
3.3738723e-05
3.3539365e-05
3.3056856e-05
3.1897087e-05
2.923354e-05
2.4602257e-05
2.1309035e-05
2.3024752e-05
2.4858007e-05
1.6457822e-05
3.3602495e-05
3.3590098e-05
3.355197e-05
3.3456247e-05
3.3227088e-05
3.2684517e-05
3.1388405e-05
2.8493549e-05
2.4138757e-05
2.2402735e-05
2.5241354e-05
2.6381455e-05
1.6418929e-05
3.3363555e-05
3.334823e-05
3.3302533e-05
3.3192135e-05
3.2935885e-05
3.2335692e-05
3.0897111e-05
2.7818119e-05
2.4044358e-05
2.3946906e-05
2.7493335e-05
2.7726694e-05
1.6396422e-05
3.3140311e-05
3.3122024e-05
3.3069114e-05
3.2945826e-05
3.2666358e-05
3.2009929e-05
3.0421904e-05
2.725306e-05
2.4379894e-05
2.5855075e-05
2.9693858e-05
2.8902281e-05
1.6384202e-05
3.2930983e-05
3.2909915e-05
3.2850758e-05
3.2717477e-05
3.2419519e-05
3.1706209e-05
2.9966345e-05
2.6863467e-05
2.5173338e-05
2.8023002e-05
3.1788481e-05
2.9925862e-05
1.6378087e-05
3.27342e-05
3.2710811e-05
3.2647097e-05
3.2507877e-05
3.219656e-05
3.1423099e-05
2.9543334e-05
2.6725088e-05
2.6414165e-05
3.0346001e-05
3.3750499e-05
3.0817911e-05
1.6375449e-05
3.254898e-05
3.2524066e-05
3.2458325e-05
3.2318372e-05
3.1998619e-05
3.1159479e-05
2.9179673e-05
2.6909996e-05
2.805682e-05
3.2733298e-05
3.5572232e-05
3.159849e-05
1.6374764e-05
3.2374714e-05
3.234948e-05
3.2285189e-05
3.2150777e-05
3.1826588e-05
3.0916123e-05
2.8918575e-05
2.7471841e-05
3.0030665e-05
3.5115834e-05
3.7256818e-05
3.2285747e-05
1.6375224e-05
3.2211173e-05
3.2187303e-05
3.2128983e-05
3.2007273e-05
3.1681012e-05
3.0698308e-05
2.8817773e-05
2.843585e-05
3.2252928e-05
3.7447133e-05
3.8812576e-05
3.2895331e-05
1.6376448e-05
3.2058522e-05
3.2038256e-05
3.199155e-05
3.1890271e-05
3.1562235e-05
3.051924e-05
2.8942305e-05
2.97959e-05
3.4641249e-05
3.9699498e-05
4.0249838e-05
3.3440303e-05
1.6378293e-05
3.1917349e-05
3.1903563e-05
3.1875268e-05
3.1802262e-05
3.147098e-05
3.0403414e-05
2.9353631e-05
3.1518041e-05
3.7123064e-05
4.1858566e-05
4.1579378e-05
3.3931332e-05
1.6380731e-05
3.1788707e-05
3.1784988e-05
3.1783034e-05
3.1745667e-05
3.1409596e-05
3.0388388e-05
3.009864e-05
3.354831e-05
3.9640502e-05
4.3918427e-05
4.2811639e-05
3.4377031e-05
1.6383779e-05
3.167417e-05
3.1684884e-05
3.1718215e-05
3.1722747e-05
3.1384107e-05
3.0523332e-05
3.1201974e-05
3.5822341e-05
4.2151078e-05
4.5878174e-05
4.3956334e-05
3.4784313e-05
1.6387467e-05
3.1575896e-05
3.1606239e-05
3.1684577e-05
3.1735682e-05
3.1406918e-05
3.086367e-05
3.2663376e-05
3.8274455e-05
4.4625622e-05
4.7739783e-05
4.5022273e-05
3.5158739e-05
1.6391813e-05
3.1496714e-05
3.155272e-05
3.1686171e-05
3.1786997e-05
3.1499546e-05
3.1462865e-05
3.4459808e-05
4.084458e-05
4.7045145e-05
4.9506881e-05
4.6017315e-05
3.5504794e-05
1.6396824e-05
3.1440215e-05
3.1528703e-05
3.1727217e-05
3.1880504e-05
3.1694229e-05
3.2363741e-05
3.655094e-05
4.3482183e-05
4.9397838e-05
5.1183994e-05
4.6948401e-05
3.5826124e-05
1.6402494e-05
3.141085e-05
3.1539289e-05
3.1812006e-05
3.2022926e-05
3.2033144e-05
3.3591892e-05
3.8886227e-05
4.6147424e-05
5.1676786e-05
5.2776062e-05
4.782164e-05
3.6125718e-05
1.6408802e-05
3.1414042e-05
3.1590274e-05
3.1944928e-05
3.2226119e-05
3.2564562e-05
3.5152683e-05
4.1411885e-05
4.8810347e-05
5.3878383e-05
5.4288121e-05
4.8642392e-05
3.6406047e-05
1.6415722e-05
3.1456281e-05
3.1688095e-05
3.2130757e-05
3.2509432e-05
3.333648e-05
3.7032008e-05
4.4076504e-05
5.1449129e-05
5.6001294e-05
5.5725113e-05
4.9415387e-05
3.6669254e-05
1.642322e-05
3.1545208e-05
3.183974e-05
3.2375386e-05
3.2901323e-05
3.4389412e-05
3.9199974e-05
4.6834632e-05
5.4048186e-05
5.8045688e-05
5.7091636e-05
5.0144338e-05
3.6914943e-05
1.6431248e-05
3.1689662e-05
3.2052669e-05
3.2687146e-05
3.3439135e-05
3.5750339e-05
4.1616209e-05
4.9648332e-05
5.6596557e-05
6.0012741e-05
5.839201e-05
5.0832726e-05
3.7144922e-05
1.6439749e-05
3.1899684e-05
3.2334824e-05
3.3078705e-05
3.4166341e-05
3.7429303e-05
4.423546e-05
5.2487192e-05
5.9086682e-05
6.1904243e-05
5.9630091e-05
5.1482696e-05
3.7361243e-05
1.6448668e-05
3.2186466e-05
3.2694874e-05
3.3569198e-05
3.5127413e-05
3.9419067e-05
4.7012429e-05
5.5327449e-05
6.1513507e-05
6.3722342e-05
6.0809394e-05
5.2096451e-05
3.7565313e-05
1.6457958e-05
3.2562283e-05
3.3142864e-05
3.4185835e-05
3.6361554e-05
4.1697462e-05
4.990519e-05
5.8150807e-05
6.3873834e-05
6.5469391e-05
6.1933118e-05
5.26774e-05
3.7758158e-05
1.6467586e-05
3.3040476e-05
3.3691444e-05
3.4963998e-05
3.7896953e-05
4.4231436e-05
5.2877051e-05
6.0943285e-05
6.6165778e-05
6.7147567e-05
6.3002905e-05
5.3228279e-05
3.7940823e-05
1.6477531e-05
3.3635641e-05
3.4357653e-05
3.5945073e-05
3.9747e-05
4.6981727e-05
5.5897123e-05
6.3694251e-05
6.8388431e-05
6.8759335e-05
6.4022595e-05
5.3751053e-05
3.8114079e-05
1.6487766e-05
3.4364228e-05
3.5164908e-05
3.7171986e-05
4.1909165e-05
4.9907185e-05
5.8940029e-05
6.6395667e-05
7.0541368e-05
7.0305658e-05
6.4995389e-05
5.424764e-05
3.8278685e-05
1.6498266e-05
3.5245727e-05
3.6144423e-05
3.8683403e-05
4.4366374e-05
5.2968084e-05
6.1985174e-05
6.9041452e-05
7.262475e-05
7.1789409e-05
6.5923872e-05
5.4719659e-05
3.8435268e-05
1.6509004e-05
3.63044e-05
3.7335027e-05
4.0508084e-05
4.709021e-05
5.6128215e-05
6.5015949e-05
7.1626957e-05
7.4638169e-05
7.3213266e-05
6.6810358e-05
5.516863e-05
3.8584369e-05
1.6519954e-05
3.7571059e-05
3.8780611e-05
4.2660852e-05
5.0044958e-05
5.9355788e-05
6.8018904e-05
7.4148654e-05
7.6582492e-05
7.457972e-05
6.7656901e-05
5.5595891e-05
3.872645e-05
1.653109e-05
3.9083869e-05
4.0525234e-05
4.5140992e-05
5.3191593e-05
6.262358e-05
7.0983112e-05
7.6603215e-05
7.845884e-05
7.589091e-05
6.8465405e-05
5.6002631e-05
3.8861905e-05
1.6542386e-05
4.0886923e-05
4.2606876e-05
4.7933112e-05
5.6491e-05
6.5908456e-05
7.3899535e-05
7.898865e-05
8.0268739e-05
7.7148737e-05
6.9237567e-05
5.6389887e-05
3.8991065e-05
1.6553816e-05
4.3025787e-05
4.5051439e-05
5.1009894e-05
5.9906227e-05
6.9190877e-05
7.6760145e-05
8.1303268e-05
8.2013421e-05
7.8354965e-05
6.9974898e-05
5.675856e-05
3.911421e-05
1.6565353e-05
4.5540371e-05
4.7868477e-05
5.4335769e-05
6.3403528e-05
7.2453917e-05
7.9558418e-05
8.3546731e-05
8.3693979e-05
7.951114e-05
7.0678713e-05
5.7109426e-05
3.9231566e-05
1.6576974e-05
4.8456734e-05
5.104947e-05
5.7870642e-05
6.6952765e-05
7.5682792e-05
8.2288868e-05
8.571843e-05
8.531137e-05
8.0618599e-05
7.1350139e-05
5.7443133e-05
3.9343314e-05
1.6588653e-05
5.1780141e-05
5.456865e-05
6.1572955e-05
7.0526879e-05
7.8863951e-05
8.4947821e-05
8.7817769e-05
8.6866351e-05
8.1678452e-05
7.1990116e-05
5.7760217e-05
3.9449594e-05
1.6600366e-05
5.5491384e-05
5.8385654e-05
6.5401406e-05
7.4100933e-05
8.1987191e-05
8.7531667e-05
8.9844046e-05
8.8359444e-05
8.2691574e-05
7.2599395e-05
5.8061097e-05
3.9550499e-05
1.6612087e-05
5.9547243e-05
6.2448926e-05
6.9315579e-05
7.765379e-05
8.5043655e-05
9.0036948e-05
9.179638e-05
8.9790906e-05
8.3658589e-05
7.3178542e-05
5.8346085e-05
3.9646087e-05
1.662379e-05
6.3884486e-05
6.66998e-05
7.327821e-05
8.1167584e-05
8.8025185e-05
9.2460237e-05
9.3673662e-05
9.116071e-05
8.4579869e-05
7.3727935e-05
5.861538e-05
3.9736371e-05
1.6635451e-05
6.8427349e-05
7.1077084e-05
7.7255191e-05
8.4626047e-05
9.0924152e-05
9.4798072e-05
9.5474529e-05
9.2468535e-05
8.5455526e-05
7.4247766e-05
5.8869077e-05
3.9821328e-05
1.664704e-05
7.3095542e-05
7.5520287e-05
8.1214723e-05
8.8014209e-05
9.3733345e-05
9.7046934e-05
9.7197366e-05
9.3713769e-05
8.6285423e-05
7.4738044e-05
5.9107165e-05
3.9900895e-05
1.6658531e-05
7.781128e-05
7.9972312e-05
8.5127271e-05
9.1318196e-05
9.6445929e-05
9.9203272e-05
9.8840343e-05
9.4895538e-05
8.7069186e-05
7.5198607e-05
5.9329533e-05
3.9974972e-05
1.6669891e-05
8.2504353e-05
8.4381464e-05
8.896567e-05
9.4525144e-05
9.9055454e-05
0.00010126357
0.00010040148
9.6012755e-05
8.780624e-05
7.562914e-05
5.9535981e-05
4.0043427e-05
1.6681088e-05
8.7115009e-05
8.8702742e-05
9.2705353e-05
9.7623215e-05
0.00010155592
0.00010322443
0.00010187874
9.7064186e-05
8.8495851e-05
7.6029201e-05
5.9726233e-05
4.0106099e-05
1.6692087e-05
9.1594951e-05
9.2898481e-05
9.6324627e-05
0.0001006017
0.00010394187
0.00010508273
0.00010327014
9.8048545e-05
8.9137188e-05
7.6398259e-05
5.9899957e-05
4.0162806e-05
1.6702851e-05
9.5906996e-05
9.6938423e-05
9.9804929e-05
0.00010345113
0.00010620851
0.0001068357
0.00010457387
9.8964589e-05
8.9729397e-05
7.6735742e-05
6.0056789e-05
4.0213358e-05
1.671334e-05
0.00010002395
0.00010079935
0.00010313097
0.00010616347
0.00010835181
0.00010848106
0.00010578844
9.9811229e-05
9.0271683e-05
7.7041088e-05
6.0196368e-05
4.0257566e-05
1.6723514e-05
0.00010392715
0.00010446444
0.00010629079
0.0001087322
0.0001103686
0.00011001716
0.00010691275
0.00010058763
9.076339e-05
7.7313807e-05
6.0318366e-05
4.0295258e-05
1.6733331e-05
0.00010760493
0.00010792243
0.0001092756
0.0001111524
0.00011225669
0.000111443
0.0001079462
0.00010129331
9.1204085e-05
7.7553539e-05
6.0422523e-05
4.0326296e-05
1.674275e-05
0.00011105123
0.00011116681
0.00011207965
0.00011342078
0.00011401484
0.00011275833
0.00010888878
0.0001019282
9.159362e-05
7.7760101e-05
6.0508686e-05
4.0350586e-05
1.6751732e-05
0.00011426439
0.00011419493
0.00011469987
0.00011553563
0.00011564285
0.00011396363
0.00010974108
0.00010249271
9.1932188e-05
7.793354e-05
6.0576832e-05
4.0368097e-05
1.6760239e-05
0.00011724611
0.00011700732
0.00011713561
0.00011749674
0.00011714146
0.00011506016
0.00011050428
0.00010298774
9.2220362e-05
7.807416e-05
6.0627094e-05
4.0378864e-05
1.6768237e-05
0.00012000068
0.00011960698
0.00011938822
0.0001193053
0.00011851237
0.00011604986
0.0001111802
0.0001034147
9.2459103e-05
7.8182544e-05
6.0659776e-05
4.0383003e-05
1.6775699e-05
0.00012253426
0.00012199885
0.00012146082
0.00012096369
0.00011975809
0.00011693534
0.00011177119
0.00010377548
9.2649763e-05
7.825956e-05
6.067536e-05
4.0380706e-05
1.6782601e-05
0.00012485444
0.00012418935
0.00012335788
0.00012247538
0.00012088194
0.00011771982
0.00011228014
0.00010407241
9.2794068e-05
7.8306354e-05
6.0674504e-05
4.0372245e-05
1.6788927e-05
0.00012696979
0.00012618598
0.00012508499
0.00012384475
0.00012188786
0.00011840702
0.00011271038
0.00010430824
9.289408e-05
7.8324328e-05
6.0658027e-05
4.0357967e-05
1.6794666e-05
0.00012888959
0.00012799703
0.00012664864
0.00012507691
0.00012278037
0.00011900112
0.00011306561
0.00010448605
9.2952158e-05
7.8315117e-05
6.0626902e-05
4.0338282e-05
1.6799815e-05
0.00013062351
0.00012963132
0.00012805592
0.00012617756
0.00012356445
0.00011950662
0.00011334985
0.00010460919
9.2970907e-05
7.8280549e-05
6.0582224e-05
4.0313655e-05
1.6804378e-05
0.00013218152
0.00013109801
0.00012931441
0.00012715284
0.0001242454
0.00011992832
0.00011356734
0.00010468125
9.2953129e-05
7.8222608e-05
6.052519e-05
4.0284594e-05
1.6808364e-05
0.00013357364
0.00013240646
0.00013043197
0.00012800924
0.00012482881
0.00012027121
0.0001137225
0.00010470595
9.2901761e-05
7.814339e-05
6.045707e-05
4.0251636e-05
1.681179e-05
0.00013480991
0.00013356605
0.00013141664
0.00012875343
0.00012532042
0.00012054038
0.00011381984
0.00010468711
9.2819833e-05
7.8045067e-05
6.0379178e-05
4.0215335e-05
1.6814674e-05
0.00013590023
0.00013458612
0.00013227654
0.00012939222
0.00012572607
0.00012074101
0.0001138639
0.0001046286
9.271041e-05
7.7929841e-05
6.0292849e-05
4.0176246e-05
1.6817042e-05
0.00013685432
0.00013547588
0.00013301972
0.00012993242
0.00012605164
0.00012087827
0.00011385922
0.00010453426
9.2576553e-05
7.7799913e-05
6.019941e-05
4.013492e-05
1.6818922e-05
0.00013768165
0.00013624434
0.00013365415
0.00013038082
0.00012630296
0.00012095725
0.00011381027
0.00010440788
9.2421276e-05
7.7657447e-05
6.010016e-05
4.0091887e-05
1.6820345e-05
0.00013839139
0.00013690024
0.00013418764
0.00013074411
0.00012648577
0.000120983
0.00011372143
0.00010425315
9.2247516e-05
7.7504544e-05
5.9996354e-05
4.0047654e-05
1.6821343e-05
0.00013899241
0.00013745207
0.00013462778
0.00013102883
0.0001266057
0.0001209604
0.00011359695
0.00010407366
9.2058103e-05
7.734322e-05
5.9889183e-05
4.0002695e-05
1.6821951e-05
0.00013949321
0.00013790796
0.00013498191
0.00013124132
0.00012666822
0.00012089419
0.00011344092
0.00010387283
9.1855736e-05
7.7175385e-05
5.9779765e-05
3.9957447e-05
1.6822201e-05
0.00013990193
0.00013827574
0.00013525709
0.00013138774
0.00012667861
0.00012078894
0.00011325725
0.00010365393
9.1642971e-05
7.7002831e-05
5.9669135e-05
3.9912307e-05
1.6822129e-05
0.00014022633
0.00013856286
0.00013546011
0.00013147397
0.00012664192
0.000120649
0.00011304969
0.00010342004
9.1422201e-05
7.6827221e-05
5.9558241e-05
3.986763e-05
1.6821768e-05
0.00014047378
0.00013877642
0.00013559741
0.00013150565
0.00012656302
0.00012047854
0.00011282174
0.00010317406
9.1195654e-05
7.6650083e-05
5.9447939e-05
3.982373e-05
1.6821151e-05
0.00014065126
0.00013892314
0.00013567515
0.00013148817
0.00012644651
0.00012028148
0.00011257672
0.00010291868
9.0965382e-05
7.6472805e-05
5.9338991e-05
3.9780877e-05
1.6820309e-05
0.00014076539
0.00013900938
0.00013569915
0.00013142662
0.00012629677
0.00012006155
0.00011231774
0.0001026564
9.0733264e-05
7.6296639e-05
5.9232067e-05
3.9739301e-05
1.6819271e-05
0.00014082237
0.00013904116
0.00013567489
0.00013132583
0.00012611792
0.00011982221
0.00011204769
0.00010238953
9.0501005e-05
7.6122697e-05
5.912775e-05
3.9699193e-05
1.6818066e-05
0.00014082805
0.0001390241
0.00013560757
0.00013119034
0.00012591386
0.00011956674
0.00011176923
0.00010212017
9.0270133e-05
7.5951944e-05
5.9026487e-05
3.9660494e-05
1.6816719e-05
0.0001407879
0.0001389635
0.00013550204
0.00013102443
0.0001256882
0.00011929816
0.00011148484
0.00010185023
9.0042004e-05
7.5785205e-05
5.8928634e-05
3.9623155e-05
1.6815251e-05
0.00014070707
0.00013886431
0.00013536286
0.00013083209
0.00012544436
0.00011901929
0.00011119676
0.00010158141
8.9817791e-05
7.5623119e-05
5.8834213e-05
3.9587466e-05
1.6813682e-05
0.00014059033
0.00013873117
0.00013519428
0.00013061706
0.0001251855
0.00011873273
0.00011090706
0.00010131525
8.9598524e-05
7.5466268e-05
5.8743566e-05
3.9553556e-05
1.681203e-05
0.00014044214
0.00013856837
0.00013500028
0.00013038282
0.00012491454
0.00011844086
0.00011061757
0.00010105308
8.9384996e-05
7.5314779e-05
5.865713e-05
3.9521516e-05
1.6810318e-05
0.00014026664
0.00013837993
0.00013478453
0.0001301326
0.00012463419
0.00011814584
0.00011032997
0.00010079604
8.9177841e-05
7.516935e-05
5.8575052e-05
3.9491397e-05
1.6808563e-05
0.00014006767
0.00013816955
0.00013455045
0.00012986937
0.00012434693
0.00011784965
0.0001100457
0.00010054512
8.8977605e-05
7.5030445e-05
5.849746e-05
3.9463234e-05
1.6806783e-05
0.00013984878
0.00013794066
0.00013430119
0.00012959589
0.00012405503
0.00011755406
0.00010976602
0.00010030096
8.878509e-05
7.489831e-05
5.8424435e-05
3.9437038e-05
1.6804993e-05
0.00013961324
0.00013769643
0.00013403966
0.00012931468
0.00012376054
0.0001172606
0.00010949195
0.00010006452
8.8600761e-05
7.4773123e-05
5.8356012e-05
3.9412798e-05
1.6803207e-05
0.00013936407
0.00013743977
0.00013376852
0.00012902801
0.0001234653
0.00011697063
0.00010922449
9.983659e-05
8.842496e-05
7.4654994e-05
5.8292187e-05
3.9390487e-05
1.6801436e-05
0.00013910401
0.00013717333
0.00013349019
0.00012873796
0.00012317092
0.0001166853
0.00010896471
9.9617707e-05
8.8257938e-05
7.4543978e-05
5.8232921e-05
3.9370061e-05
1.6799691e-05
0.0001388356
0.00013689953
0.00013320687
0.00012844634
0.00012287879
0.00011640593
0.00010871342
9.9408308e-05
8.809986e-05
7.4440072e-05
5.8178144e-05
3.9351468e-05
1.6797981e-05
0.0001385611
0.00013662056
0.00013292047
0.0001281548
0.00012259044
0.00011613358
0.00010847126
9.9208726e-05
8.7950819e-05
7.4343226e-05
5.8127762e-05
3.9334643e-05
1.6796312e-05
0.00013828254
0.00013633833
0.00013263282
0.000127865
0.00012230715
0.00011586914
0.00010823877
9.90192e-05
8.7810841e-05
7.4253349e-05
5.8081659e-05
3.9319518e-05
1.6794691e-05
0.00013800179
0.0001360547
0.00013234562
0.0001275784
0.00012203005
0.00011561337
0.00010801639
9.8839885e-05
8.7679894e-05
7.4170314e-05
5.8039702e-05
3.9306019e-05
1.6793123e-05
0.00013772057
0.00013577134
0.00013206044
0.0001272963
0.00012176012
0.00011536693
0.00010780444
9.8670862e-05
8.7557892e-05
7.4093962e-05
5.8001744e-05
3.9294069e-05
1.6791613e-05
0.00013744045
0.00013548978
0.00013177864
0.00012701985
0.0001214982
0.00011513032
0.00010760316
9.8512142e-05
8.7444704e-05
7.4024109e-05
5.7967626e-05
3.9283588e-05
1.6790163e-05
0.00013716287
0.0001352114
0.00013150148
0.00012675006
0.00012124502
0.00011490397
0.0001074127
9.8363675e-05
8.7340158e-05
7.3960546e-05
5.7937183e-05
3.9274496e-05
1.6788778e-05
0.00013688911
0.00013493742
0.00013123005
0.00012648781
0.00012100117
0.00011468821
0.00010723314
9.8225352e-05
8.7244043e-05
7.3903045e-05
5.7910237e-05
3.9266709e-05
1.6787459e-05
0.00013662029
0.00013466894
0.0001309653
0.00012623384
0.00012076715
0.00011448327
0.00010706448
9.8097012e-05
8.7156114e-05
7.385136e-05
5.7886608e-05
3.9260144e-05
1.6786207e-05
0.00013635744
0.00013440691
0.00013070806
0.00012598878
0.00012054335
0.00011428927
0.00010690665
9.7978448e-05
8.7076102e-05
7.3805232e-05
5.7866109e-05
3.9254717e-05
1.6785023e-05
0.00013610143
0.00013415216
0.00013045905
0.00012575316
0.00012033005
0.00011410631
0.00010675954
9.7869413e-05
8.7003709e-05
7.376439e-05
5.7848552e-05
3.9250346e-05
1.6783908e-05
0.00013585302
0.0001339054
0.00013021885
0.00012552739
0.00012012747
0.00011393436
0.00010662296
9.7769626e-05
8.6938622e-05
7.3728558e-05
5.783375e-05
3.9246949e-05
1.678286e-05
0.00013561285
0.00013366723
0.00012998797
0.00012531181
0.00011993574
0.00011377336
0.00010649671
9.7678779e-05
8.6880516e-05
7.3697456e-05
5.7821516e-05
3.9244447e-05
1.6781879e-05
0.00013538146
0.00013343815
0.00012976679
0.00012510665
0.0001197549
0.0001136232
0.00010638051
9.7596541e-05
8.6829053e-05
7.3670806e-05
5.7811669e-05
3.9242766e-05
1.6780965e-05
0.00013515931
0.00013321858
0.00012955565
0.00012491208
0.00011958497
0.0001134837
0.0001062741
9.7522569e-05
8.6783896e-05
7.3648332e-05
5.7804034e-05
3.9241835e-05
1.6780115e-05
0.00013494675
0.00013300883
0.00012935476
0.0001247282
0.00011942586
0.00011335466
0.00010617715
9.7456503e-05
8.6744703e-05
7.3629762e-05
5.779844e-05
3.9241586e-05
1.6779329e-05
0.00013474407
0.00013280915
0.00012916429
0.00012455505
0.00011927748
0.00011323584
0.00010608933
9.7397978e-05
8.6711135e-05
7.3614831e-05
5.7794724e-05
3.9241956e-05
1.6778604e-05
0.00013455147
0.00013261971
0.00012898434
0.0001243926
0.00011913967
0.00011312697
0.00010601029
9.7346622e-05
8.6682853e-05
7.3603281e-05
5.779273e-05
3.9242884e-05
1.677794e-05
0.00013436908
0.00013244062
0.00012881493
0.00012424076
0.00011901222
0.00011302772
0.00010593966
9.7302056e-05
8.6659523e-05
7.3594858e-05
5.7792307e-05
3.9244314e-05
1.6777334e-05
0.00013419699
0.00013227192
0.00012865604
0.00012409942
0.00011889489
0.00011293778
0.00010587707
9.72639e-05
8.6640812e-05
7.3589316e-05
5.7793308e-05
3.9246189e-05
1.6776784e-05
0.00013403518
0.00013211359
0.00012850759
0.0001239684
0.00011878742
0.0001128568
0.00010582211
9.723177e-05
8.6626391e-05
7.3586413e-05
5.7795593e-05
3.9248456e-05
1.6776288e-05
0.00013388362
0.00013196555
0.00012836943
0.00012384747
0.00011868949
0.00011278438
0.00010577439
9.7205281e-05
8.6615936e-05
7.3585912e-05
5.7799023e-05
3.9251064e-05
1.6775845e-05
0.00013374219
0.00013182768
0.00012824139
0.00012373639
0.00011860077
0.00011272016
0.0001057335
9.7184049e-05
8.6609126e-05
7.3587586e-05
5.7803468e-05
3.9253963e-05
1.6775451e-05
0.00013361076
0.0001316998
0.00012812326
0.00012363486
0.0001185209
0.00011266371
0.00010569901
9.7167695e-05
8.6605651e-05
7.3591212e-05
5.7808801e-05
3.9257107e-05
1.6775103e-05
0.00013348911
0.0001315817
0.00012801476
0.00012354256
0.0001184495
0.00011261464
0.00010567053
9.7155848e-05
8.660521e-05
7.3596582e-05
5.7814904e-05
3.9260453e-05
1.67748e-05
0.00013337704
0.00013147314
0.00012791562
0.00012345915
0.0001183862
0.00011257252
0.00010564765
9.7148146e-05
8.6607515e-05
7.3603494e-05
5.7821666e-05
3.926396e-05
1.6774538e-05
0.00013327427
0.00013137384
0.00012782553
0.00012338429
0.00011833058
0.00011253694
0.00010562997
9.7144241e-05
8.661229e-05
7.3611762e-05
5.7828985e-05
3.9267594e-05
1.6774315e-05
0.00013318053
0.0001312835
0.00012774415
0.0001233176
0.00011828226
0.00011250751
0.00010561711
9.71438e-05
8.6619278e-05
7.3621211e-05
5.7836768e-05
3.9271322e-05
1.6774129e-05
0.00013309552
0.00013120182
0.00012767116
0.00012325871
0.00011824083
0.00011248381
0.00010560869
9.7146504e-05
8.6628234e-05
7.3631681e-05
5.7844931e-05
3.9275117e-05
1.6773976e-05
0.00013301892
0.00013112846
0.00012760618
0.00012320724
0.00011820591
0.00011246545
0.00010560436
9.715205e-05
8.6638929e-05
7.3643022e-05
5.7853395e-05
3.9278955e-05
1.6773856e-05
0.0001329504
0.00013106308
0.00012754887
0.0001231628
0.00011817708
0.00011245206
0.00010560376
9.7160149e-05
8.6651147e-05
7.3655094e-05
5.786209e-05
3.9282813e-05
1.6773765e-05
0.0001328896
0.00013100533
0.00012749885
0.000123125
0.00011815396
0.00011244325
0.00010560656
9.7170524e-05
8.6664683e-05
7.3667766e-05
5.7870949e-05
3.9286669e-05
1.6773703e-05
0.00013283618
0.00013095483
0.00012745573
0.00012309346
0.00011813617
0.00011243866
0.00010561243
9.7182908e-05
8.6679341e-05
7.3680914e-05
5.7879911e-05
3.9290504e-05
1.6773666e-05
0.00013278975
0.00013091121
0.00012741914
0.00012306777
0.0001181233
0.00011243791
0.00010562105
9.7197045e-05
8.6694933e-05
7.369442e-05
5.7888913e-05
3.9294297e-05
1.6773653e-05
0.00013274994
0.00013087408
0.00012738866
0.00012304754
0.00011811497
0.00011244066
0.00010563212
9.7212687e-05
8.6711282e-05
7.370817e-05
5.78979e-05
3.9298028e-05
1.6773661e-05
0.00013271637
0.00013084306
0.00012736392
0.00012303238
0.00011811081
0.00011244656
0.00010564533
9.7229598e-05
8.6728217e-05
7.3722059e-05
5.7906818e-05
3.930168e-05
1.6773689e-05
0.00013268864
0.00013081775
0.00012734452
0.00012302189
0.00011811044
0.00011245527
0.00010566041
9.7247557e-05
8.674558e-05
7.3735988e-05
5.7915616e-05
3.9305236e-05
1.6773734e-05
0.00013266637
0.00013079776
0.00012733006
0.0001230157
0.00011811351
0.00011246647
0.00010567709
9.7266355e-05
8.6763226e-05
7.374987e-05
5.7924254e-05
3.9308683e-05
1.6773794e-05
0.00013264917
0.00013078271
0.00012732017
0.00012301344
0.00011811967
0.00011247987
0.00010569511
9.7285804e-05
8.6781025e-05
7.3763625e-05
5.7932693e-05
3.931201e-05
1.6773867e-05
0.00013263668
0.00013077224
0.00012731449
0.00012301476
0.0001181286
0.00011249518
0.00010571426
9.7305732e-05
8.6798862e-05
7.3777191e-05
5.7940907e-05
3.931521e-05
1.6773951e-05
0.00013262854
0.00013076598
0.00012731265
0.00012301932
0.00011814001
0.00011251214
0.00010573432
9.7325988e-05
8.6816638e-05
7.3790511e-05
5.7948873e-05
3.9318282e-05
1.6774045e-05
0.0001326244
0.00013076358
0.00012731433
0.00012302681
0.00011815359
0.00011253052
0.00010575509
9.7346434e-05
8.6834265e-05
7.380354e-05
5.7956573e-05
3.9321208e-05
1.6774148e-05
0.00013262393
0.00013076473
0.0001273192
0.00012303692
0.00011816909
0.00011255008
0.00010577642
9.7366947e-05
8.6851668e-05
7.3816239e-05
5.796399e-05
3.9323972e-05
1.6774257e-05
0.00013262681
0.00013076909
0.00012732695
0.00012304936
0.00011818625
0.00011257062
0.00010579814
9.7387415e-05
8.6868775e-05
7.3828568e-05
5.7971094e-05
3.932659e-05
1.6774373e-05
0.00013263272
0.00013077636
0.00012733728
0.00012306387
0.00011820483
0.00011259193
0.00010582009
9.7407731e-05
8.6885521e-05
7.3840493e-05
5.7977872e-05
3.9329066e-05
1.6774494e-05
0.00013264135
0.00013078623
0.0001273499
0.00012308016
0.0001182246
0.00011261384
0.00010584213
9.7427794e-05
8.6901838e-05
7.385196e-05
5.7984332e-05
3.9331401e-05
1.6774619e-05
0.00013265241
0.00013079841
0.00012736453
0.00012309798
0.00011824532
0.00011263614
0.00010586412
9.7447506e-05
8.6917667e-05
7.386295e-05
5.7990465e-05
3.9333593e-05
1.6774747e-05
0.00013266559
0.00013081261
0.00012738088
0.00012311709
0.00011826679
0.00011265868
0.00010588593
9.7466771e-05
8.693293e-05
7.3873452e-05
5.7996263e-05
3.9335643e-05
1.6774876e-05
0.00013268063
0.00013082854
0.0001273987
0.00012313722
0.0001182888
0.00011268128
0.00010590743
9.7485499e-05
8.69476e-05
7.3883444e-05
5.8001718e-05
3.9337551e-05
1.6775007e-05
0.00013269724
0.00013084595
0.00012741774
0.00012315818
0.00011831115
0.0001127038
0.00010592851
9.7503615e-05
8.6961647e-05
7.3892908e-05
5.8006828e-05
3.9339316e-05
1.6775137e-05
0.00013271518
0.00013086458
0.00012743775
0.00012317974
0.00011833368
0.00011272609
0.00010594907
9.752108e-05
8.6975042e-05
7.3901836e-05
5.8011592e-05
3.9340941e-05
1.6775267e-05
0.00013273421
0.00013088421
0.00012745853
0.00012320171
0.00011835623
0.00011274804
0.00010596904
9.7537852e-05
8.6987766e-05
7.3910224e-05
5.8016014e-05
3.934243e-05
1.6775394e-05
0.00013275411
0.00013090462
0.00012747988
0.00012322393
0.00011837865
0.00011276954
0.00010598837
9.75539e-05
8.699981e-05
7.3918075e-05
5.8020104e-05
3.9343788e-05
1.6775519e-05
0.0001327747
0.00013092564
0.00012750162
0.00012324624
0.00011840083
0.00011279053
0.00010600701
9.7569205e-05
8.7011173e-05
7.39254e-05
5.8023873e-05
3.9345023e-05
1.6775641e-05
0.0001327958
0.00013094708
0.0001275236
0.00012326851
0.00011842268
0.00011281095
0.00010602493
9.7583759e-05
8.7021862e-05
7.3932213e-05
5.8027334e-05
3.9346142e-05
1.6775759e-05
0.00013281725
0.0001309688
0.00012754567
0.00012329063
0.00011844412
0.00011283074
0.00010604211
9.7597556e-05
8.7031887e-05
7.3938531e-05
5.8030502e-05
3.9347152e-05
1.6775875e-05
0.0001328389
0.00013099064
0.00012756771
0.00012331249
0.00011846508
0.00011284986
0.00010605852
9.7610598e-05
8.704126e-05
7.3944369e-05
5.8033391e-05
3.9348061e-05
1.6775987e-05
0.00013286061
0.00013101248
0.00012758962
0.00012333402
0.00011848548
0.00011286828
0.00010607415
9.7622887e-05
8.7049994e-05
7.3949743e-05
5.8036013e-05
3.9348873e-05
1.6776095e-05
0.00013288227
0.00013103421
0.00012761128
0.00012335512
0.00011850528
0.00011288595
0.00010608899
9.7634426e-05
8.7058101e-05
7.3954668e-05
5.8038379e-05
3.9349593e-05
1.67762e-05
0.00013290375
0.00013105572
0.00012763259
0.00012337571
0.00011852441
0.00011290286
0.00010610303
9.7645219e-05
8.7065593e-05
7.3959156e-05
5.8040498e-05
3.9350224e-05
1.6776301e-05
0.00013292496
0.00013107691
0.00012765348
0.00012339574
0.00011854284
0.00011291896
0.00010611626
9.7655272e-05
8.7072484e-05
7.3963221e-05
5.8042379e-05
3.9350769e-05
1.6776398e-05
0.00013294579
0.00013109767
0.00012767386
0.00012341512
0.00011856051
0.00011293425
0.00010612867
9.7664596e-05
8.7078787e-05
7.3966877e-05
5.8044033e-05
3.9351233e-05
1.677649e-05
0.00013296615
0.00013111793
0.00012769365
0.00012343381
0.00011857739
0.0001129487
0.00010614028
9.7673203e-05
8.708452e-05
7.3970141e-05
5.804547e-05
3.9351621e-05
1.6776577e-05
0.00013298597
0.00013113761
0.00012771278
0.00012345177
0.00011859346
0.00011296231
0.00010615109
9.768111e-05
8.7089704e-05
7.3973031e-05
5.8046703e-05
3.9351938e-05
1.677666e-05
0.00013300516
0.00013115664
0.00012773121
0.00012346894
0.00011860869
0.00011297509
0.0001061611
9.7688337e-05
8.7094361e-05
7.3975568e-05
5.8047747e-05
3.935219e-05
1.6776738e-05
0.00013302368
0.00013117497
0.00012774889
0.0001234853