/*--------------------------------*- C++ -*----------------------------------*\
| =========                 |                                                 |
| \\      /  F ield         | OpenFOAM: The Open Source CFD Toolbox           |
|  \\    /   O peration     | Version:  2506                                  |
|   \\  /    A nd           | Website:  www.openfoam.com                      |
|    \\/     M anipulation  |                                                 |
\*---------------------------------------------------------------------------*/
FoamFile
{
    version     2.0;
    format      ascii;
    arch        "LSB;label=32;scalar=64";
    class       volVectorField;
    location    "21000/water";
    object      U;
}
// * * * * * * * * * * * * * * * * * * * * * * * * * * * * * * * * * * * * * //

dimensions      [0 1 -1 0 0 0 0];

internalField   nonuniform List<vector> 
2600
(
(0.2509291 -6.6886033e-05 5.0066708e-19)
(0.25093316 -0.00014739222 -3.2800275e-18)
(0.25094167 -0.00023143146 -6.4959343e-19)
(0.2509543 -0.00031980043 -9.6633331e-19)
(0.25097092 -0.0004082391 7.1154101e-21)
(0.25099124 -0.00049673665 -9.7790906e-20)
(0.25101467 -0.0005856609 4.8526837e-20)
(0.25103908 -0.00067482201 -9.2272556e-20)
(0.25105541 -0.00075972197 -1.6773683e-19)
(0.25102652 -0.00083857781 -3.1516069e-20)
(0.25079811 -0.00098580402 6.9828408e-20)
(0.24954942 -0.001485464 -1.4271929e-19)
(0.2411817 0.0014904344 -6.4178853e-19)
(0.25290631 -5.2391824e-05 -9.6036158e-19)
(0.25291356 -0.00012867936 -3.9981052e-18)
(0.25292967 -0.00020232594 -1.1437091e-18)
(0.25295369 -0.00027812692 -7.1258672e-19)
(0.25298503 -0.00035187867 -1.7728992e-20)
(0.25302278 -0.00042368282 -1.2544197e-19)
(0.25306456 -0.0004936843 1.2921652e-20)
(0.25310219 -0.00056251339 -2.7277908e-19)
(0.25310631 -0.00062550536 -3.0370687e-19)
(0.25297401 -0.00066089399 -1.2218245e-19)
(0.25231856 -0.00068576655 1.1353779e-19)
(0.24919071 -0.0011507908 -2.7272204e-19)
(0.23317376 0.00055016191 -6.9479756e-19)
(0.25485703 -5.0201261e-05 -1.7574822e-18)
(0.25486389 -0.00012463928 -1.2667606e-18)
(0.2548791 -0.00019574884 -1.6087805e-18)
(0.2549016 -0.00026956178 -9.888266e-20)
(0.25493052 -0.00034177627 -4.0530036e-19)
(0.25496396 -0.00041257844 8.0955106e-20)
(0.25499618 -0.00048173979 2.8503045e-20)
(0.25500857 -0.00054996705 1.3274076e-19)
(0.25494172 -0.00061637669 1.6199931e-19)
(0.2546073 -0.00066024169 -8.3586188e-20)
(0.25332071 -0.00063871076 6.3371076e-20)
(0.2478214 -0.00092597142 -2.9101438e-19)
(0.22526486 0.00012340436 -5.3847257e-19)
(0.25664521 -4.9743849e-05 3.2305522e-18)
(0.25665224 -0.00012488064 1.8026342e-18)
(0.2566674 -0.00019721364 6.1225396e-21)
(0.2566896 -0.0002720698 -4.9540318e-19)
(0.25671747 -0.00034495172 -4.3121335e-19)
(0.25674738 -0.00041609227 -4.8074187e-20)
(0.25676826 -0.0004848948 -4.6689034e-20)
(0.25674667 -0.00055096518 2.5092213e-19)
(0.25658539 -0.00061444887 -2.5358992e-20)
(0.2559957 -0.0006636637 -7.0192373e-21)
(0.2539403 -0.00063277351 -4.5134403e-20)
(0.24583249 -0.00077044467 -3.1015019e-19)
(0.21800982 -5.9385922e-05 -4.6363946e-19)
(0.25841323 -4.8556775e-05 1.9700839e-18)
(0.2584204 -0.00012219546 1.478377e-18)
(0.25843571 -0.00019301892 1.1142299e-18)
(0.25845781 -0.00026625064 -5.1397913e-19)
(0.25848442 -0.00033744492 -1.1872218e-19)
(0.25850914 -0.00040689654 -1.3547258e-19)
(0.25851346 -0.00047389151 -7.7739353e-21)
(0.25844542 -0.0005370587 -8.3430041e-20)
(0.25816424 -0.00059536593 -8.6350972e-21)
(0.25726648 -0.00064373127 -1.2362441e-19)
(0.25431322 -0.0006144232 -1.0958964e-19)
(0.24352458 -0.00065114415 -2.1374379e-19)
(0.21163262 -0.00012321892 -4.4258713e-19)
(0.26015467 -4.709344e-05 1.4952035e-18)
(0.26016187 -0.0001185153 9.9295418e-19)
(0.26017704 -0.0001870764 9.4423938e-19)
(0.2601984 -0.00025799462 4.8276298e-19)
(0.26022227 -0.00032687701 -2.6290152e-19)
(0.26023853 -0.0003939878 3.0193684e-21)
(0.26021927 -0.00045855461 -1.2273938e-19)
(0.26009115 -0.00051865148 -2.2380753e-19)
(0.25966515 -0.00057157394 1.0680032e-20)
(0.2584067 -0.0006148087 -1.5644919e-19)
(0.25443266 -0.00058544056 -1.0662481e-19)
(0.24102793 -0.0005571206 7.3827327e-20)
(0.20612335 -0.00013293671 -2.4368527e-19)
(0.26183846 -4.5390268e-05 1.2956507e-18)
(0.26184561 -0.00011435405 1.1997892e-18)
(0.26186042 -0.00018050108 8.9559278e-19)
(0.26188043 -0.00024892327 9.1153357e-19)
(0.26190007 -0.00031528561 4.6879363e-20)
(0.26190445 -0.00037977026 -1.313316e-19)
(0.26185458 -0.00044151446 -3.0116746e-19)
(0.2616533 -0.00049832849 -5.1637375e-20)
(0.26105826 -0.00054618084 -2.1849933e-19)
(0.25938354 -0.00058222647 -1.3123325e-19)
(0.25426994 -0.00054801504 -5.6660814e-20)
(0.23842933 -0.00047868139 3.5020658e-20)
(0.20141646 -0.00011963306 -3.5749022e-19)
(0.26345768 -4.3664882e-05 -1.7342181e-18)
(0.26346469 -0.00011008558 -1.078155e-18)
(0.26347885 -0.00017377013 -3.1669855e-19)
(0.26349678 -0.00023963045 -1.3505177e-20)
(0.26351051 -0.00030340684 3.0647815e-19)
(0.26349932 -0.00036518044 -2.4634316e-19)
(0.26341166 -0.00042394823 -1.6543929e-19)
(0.2631242 -0.00047735794 -6.6114844e-20)
(0.26233468 -0.00052050214 -1.7771748e-20)
(0.26018092 -0.00054846095 -2.5893335e-20)
(0.25381559 -0.00050481858 -6.9927e-20)
(0.23581666 -0.00040978299 1.1719959e-19)
(0.19745226 -9.8494616e-05 -3.4610603e-19)
(0.26501552 -4.2046877e-05 2.4872414e-18)
(0.26502225 -0.00010599907 5.4378694e-19)
(0.26503542 -0.00016730209 6.4538623e-19)
(0.26505044 -0.00023067618 7.9841807e-19)
(0.26505633 -0.00029193976 8.2954221e-20)
(0.26502564 -0.00035106733 3.9338305e-20)
(0.26489279 -0.0004068816 -1.0403525e-19)
(0.26450568 -0.00045685738 -2.2320823e-19)
(0.26349313 -0.00049549056 -2.4879605e-19)
(0.26078727 -0.00051473411 -1.1413378e-20)
(0.25307513 -0.00045847926 -3.4203787e-20)
(0.23327192 -0.00034737981 1.5095338e-19)
(0.19416843 -7.6932879e-05 -2.2314095e-20)
(0.2665165 -4.057706e-05 9.5347573e-21)
(0.26652283 -0.00010224007 1.2559631e-18)
(0.26653459 -0.00016134012 7.6361752e-19)
(0.26654572 -0.0002224043 1.0527829e-18)
(0.26654166 -0.00028132047 1.8030172e-19)
(0.26648729 -0.00033795568 2.9225087e-19)
(0.26630156 -0.0003909415 5.0209018e-20)
(0.26580019 -0.00043752442 -1.0391004e-19)
(0.26453091 -0.00047164498 -1.1373244e-19)
(0.26118849 -0.00048140525 -1.4263128e-20)
(0.25206937 -0.00041120617 -1.5774972e-20)
(0.23086314 -0.00029047959 -1.4180431e-19)
(0.19149027 -5.8333256e-05 -1.6313025e-19)
(0.26796591 -3.9276698e-05 -2.6905173e-18)
(0.26797166 -9.8886216e-05 5.1552212e-20)
(0.26798155 -0.00015601486 1.0337301e-19)
(0.26798768 -0.00021499986 8.7191759e-19)
(0.26797137 -0.00027178437 4.2364018e-19)
(0.26788889 -0.00032612646 1.7882494e-19)
(0.26764202 -0.00037645613 1.2579272e-19)
(0.26700984 -0.00041972353 -1.5010588e-19)
(0.26544297 -0.00044912486 -2.1656009e-19)
(0.26137042 -0.00044842588 -5.9864113e-20)
(0.25083979 -0.00036475941 -1.5908597e-19)
(0.22864123 -0.00023936528 -4.3415788e-19)
(0.18933265 -4.3854024e-05 -2.5163594e-19)
(0.26936985 -3.8151202e-05 -4.5726296e-19)
(0.26937484 -9.5961772e-05 2.3432056e-20)
(0.26938229 -0.00015136516 7.2586087e-19)
(0.2693822 -0.00020851724 7.3171258e-19)
(0.26935114 -0.00026339986 5.6770539e-19)
(0.26923575 -0.00031565718 2.2593618e-19)
(0.26891866 -0.00036350366 1.0354059e-19)
(0.26813622 -0.00040351927 -1.0142672e-19)
(0.26622207 -0.00042777198 -1.8926066e-19)
(0.26132397 -0.00041560855 -7.3481575e-20)
(0.24944814 -0.00032041762 -1.8538858e-19)
(0.22663743 -0.00019477817 -3.9181408e-19)
(0.18760708 -3.3365973e-05 -3.0376949e-19)
(0.27073452 -3.7186892e-05 -5.2490758e-19)
(0.27073851 -9.3441594e-05 1.5439564e-19)
(0.27074291 -0.00014735094 8.3131639e-19)
(0.27073523 -0.00020290124 8.4134155e-19)
(0.27068668 -0.00025609589 4.071752e-19)
(0.27053315 -0.00030645578 1.8056562e-19)
(0.27013553 -0.00035195662 -5.4505067e-20)
(0.26917943 -0.00038871662 -8.4897495e-20)
(0.26685881 -0.00040716162 -3.1536358e-20)
(0.26105041 -0.00038281108 -2.1249753e-20)
(0.24796793 -0.00027903903 -1.2646972e-19)
(0.2248628 -0.00015723519 -4.4979525e-19)
(0.18622942 -2.6089622e-05 -2.7910747e-19)
(0.27206549 -3.6358597e-05 1.1376423e-18)
(0.27206822 -9.1270024e-05 -4.1595596e-19)
(0.27206885 -0.00014388431 4.0915201e-19)
(0.27205207 -0.00019803069 1.0338577e-18)
(0.27198302 -0.00024971698 -2.2144476e-19)
(0.27178551 -0.0002983267 -4.8588859e-20)
(0.27129541 -0.00034156266 3.4663841e-19)
(0.27013718 -0.00037494839 8.2713452e-20)
(0.26734241 -0.00038673535 -2.9269735e-20)
(0.2605654 -0.00035005845 -1.4224107e-19)
(0.24647172 -0.00024119444 -1.7908096e-19)
(0.22331131 -0.00012666963 -5.1945767e-19)
(0.18512583 -2.1076371e-05 -4.0441282e-19)
(0.27336737 -3.5638788e-05 2.2208564e-18)
(0.27336856 -8.938186e-05 -3.1283014e-19)
(0.27336463 -0.00014086217 5.388298e-19)
(0.27333706 -0.00019376295 4.525119e-21)
(0.27324415 -0.00024407934 2.7030226e-20)
(0.27299604 -0.00029103798 3.7967408e-20)
(0.27239931 -0.00033202382 3.727217e-19)
(0.27100443 -0.00036176734 5.9776229e-20)
(0.26766283 -0.00036596046 1.4376971e-19)
(0.25989992 -0.00031757793 -1.4111726e-19)
(0.24502002 -0.00020725745 -3.6879843e-19)
(0.22196569 -0.00010242448 -7.1461445e-20)
(0.18423545 -1.7507118e-05 -2.3352574e-19)
(0.27464382 -3.5002894e-05 -1.0537031e-19)
(0.27464313 -8.7716017e-05 4.8048579e-19)
(0.27463375 -0.00013818758 3.8094654e-19)
(0.2745935 -0.00018996324 3.7455898e-19)
(0.27447297 -0.00023900779 5.8991529e-19)
(0.27416661 -0.00028436529 1.5797505e-19)
(0.27344636 -0.00032304577 -2.1409735e-19)
(0.27177364 -0.00034871442 -1.0025859e-19)
(0.26781391 -0.00034445792 -1.5173943e-19)
(0.25909705 -0.00028576382 -1.9078817e-19)
(0.2436552 -0.00017740821 -2.6499182e-19)
(0.22080343 -8.347306e-05 -1.8006359e-19)
(0.18351045 -1.4804616e-05 7.035619e-20)
(0.27589768 -3.4431105e-05 -5.6593022e-19)
(0.27589473 -8.6221417e-05 7.8747904e-19)
(0.27587888 -0.00013577913 2.7197234e-20)
(0.27582384 -0.00018651757 4.2564518e-19)
(0.27567139 -0.00023435206 4.9242064e-19)
(0.27529788 -0.00027811161 2.6433512e-19)
(0.27443375 -0.00031435606 -1.9027763e-19)
(0.27243556 -0.00033536392 3.0505941e-20)
(0.26779662 -0.00032206948 -1.5333469e-19)
(0.25820551 -0.00025510598 -2.8009002e-19)
(0.24240122 -0.00015160162 -1.1712887e-19)
(0.21980119 -6.8691003e-05 -3.4353456e-19)
(0.18291435 -1.2618554e-05 -2.2978951e-19)
(0.27713109 -3.3908297e-05 -1.4396433e-19)
(0.27712546 -8.4858001e-05 3.5372595e-19)
(0.27710201 -0.00013357264 6.6353128e-20)
(0.27702977 -0.00018333502 2.4835666e-19)
(0.27684047 -0.00022998947 6.8947239e-19)
(0.2763893 -0.00027211088 2.3397187e-19)
(0.27535691 -0.00030570399 -1.3383562e-20)
(0.2729805 -0.00032135787 -5.54921e-20)
(0.26762111 -0.00029886295 -2.4084852e-19)
(0.25727242 -0.00022610441 -1.5853736e-19)
(0.24126718 -0.00012956886 -2.196964e-19)
(0.21893722 -5.7057435e-05 -3.9298588e-19)
(0.18241982 -1.0759084e-05 -2.6985441e-19)
(0.27834572 -3.3423243e-05 -9.4146491e-19)
(0.27833694 -8.3595438e-05 -5.6705212e-19)
(0.2783046 -0.00013151911 7.5286008e-20)
(0.27821241 -0.00018034488 7.1046897e-19)
(0.27798052 -0.00022582105 2.7086252e-19)
(0.27743925 -0.00026622306 1.6709603e-19)
(0.27620962 -0.00029685485 4.4930615e-19)
(0.27340008 -0.00030643644 -8.2538723e-20)
(0.26730692 -0.00027509384 -2.0301525e-19)
(0.25633756 -0.0001991843 -1.6498215e-20)
(0.24025214 -0.0001108758 -1.0289577e-19)
(0.21819234 -4.7749368e-05 -2.4507186e-19)
(0.18200662 -9.1303536e-06 -3.9846444e-19)
(0.27954284 -3.2967675e-05 -6.1515145e-19)
(0.27953036 -8.2411065e-05 -3.246989e-20)
(0.27948767 -0.00012958149 8.7468662e-19)
(0.27937237 -0.00017749197 3.7951656e-20)
(0.27909121 -0.00022176546 1.361868e-19)
(0.27844503 -0.00026032527 1.5793018e-19)
(0.27698441 -0.00028758731 2.7727506e-19)
(0.27368915 -0.00029046172 1.2583429e-19)
(0.26688073 -0.00025114512 3.400261e-19)
(0.25543062 -0.00017462896 3.1304149e-19)
(0.2393495 -9.5013857e-05 1.0322391e-19)
(0.21755 -4.015231e-05 7.7946487e-20)
(0.18165972 -7.6839586e-06 -1.9388794e-19)
(0.28072346 -3.253541e-05 2.0387104e-18)
(0.28070667 -8.1287793e-05 9.5029284e-19)
(0.28065194 -0.00012773124 6.3617057e-19)
(0.28050986 -0.0001747318 3.7416146e-19)
(0.28017156 -0.00021775303 2.8644388e-20)
(0.27940289 -0.00025430188 1.6387753e-19)
(0.27767312 -0.00027769789 2.4378581e-19)
(0.27384765 -0.00027342827 5.6776018e-19)
(0.26637281 -0.00022746054 2.8219014e-19)
(0.2545711 -0.00015254851 -2.6424512e-19)
(0.23855012 -8.1484033e-05 -4.1568457e-19)
(0.21699614 -3.3827437e-05 -1.8122979e-20)
(0.18136794 -6.3925402e-06 1.0902904e-19)
(0.28188837 -3.2121655e-05 2.5875197e-18)
(0.28186655 -8.0212343e-05 1.4765324e-18)
(0.28179785 -0.00012594549 5.9931497e-20)
(0.28162471 -0.00017202641 2.7790968e-19)
(0.28121999 -0.00021372065 -7.680568e-20)
(0.28030804 -0.00024803603 1.2577222e-19)
(0.27826773 -0.00026701328 3.1512634e-19)
(0.27388156 -0.00025545692 4.5311411e-19)
(0.26581311 -0.00020447967 8.0938275e-20)
(0.25377001 -0.00013289057 -5.5991059e-19)
(0.23784411 -6.9849925e-05 -4.1151826e-19)
(0.21651887 -2.8467157e-05 -1.3830953e-19)
(0.18112283 -5.2370942e-06 -4.0373775e-20)
(0.28303819 -3.1722486e-05 1.0774748e-18)
(0.28301052 -7.917385e-05 8.6880549e-19)
(0.28292559 -0.00012420469 4.3052687e-19)
(0.28271638 -0.00016934096 -1.952241e-19)
(0.2822343 -0.00020960734 4.6022626e-19)
(0.28115476 -0.00024140493 2.0865814e-19)
(0.27876144 -0.00025540748 -2.0446307e-20)
(0.27380291 -0.00023677356 1.9402822e-19)
(0.26522808 -0.00018258168 -5.8598896e-20)
(0.25303215 -0.00011548282 4.0151709e-20)
(0.23722187 -5.9756963e-05 8.3098776e-20)
(0.21610816 -2.3855675e-05 -1.3739375e-19)
(0.18091788 -4.2018438e-06 6.9035722e-20)
(0.28417339 -3.1334452e-05 3.0786235e-19)
(0.28413893 -7.8162818e-05 -5.3050755e-19)
(0.28403512 -0.00012249081 3.8787013e-19)
(0.28378396 -0.00016664114 6.2216243e-19)
(0.28321158 -0.0002053501 1.5845908e-19)
(0.28193659 -0.00023428041 4.2952445e-19)
(0.27914984 -0.00024281874 4.5835392e-19)
(0.27362851 -0.00021767781 4.2832641e-19)
(0.26463906 -0.00016204558 7.9014442e-20)
(0.25235823 -0.00010008753 -2.4052126e-19)
(0.23667446 -5.0928434e-05 -2.8028851e-19)
(0.21575559 -1.9839554e-05 -1.7463297e-19)
(0.18074793 -3.272637e-06 -8.8206846e-21)
(0.28529433 -3.0954305e-05 -1.4424763e-18)
(0.28525196 -7.7170336e-05 -3.0389247e-19)
(0.28512619 -0.000120786 1.3604029e-18)
(0.28482614 -0.00016389138 6.0968199e-19)
(0.28414822 -0.00020087986 1.8295115e-19)
(0.28264669 -0.00022653515 2.4003911e-19)
(0.27943202 -0.00022926076 1.9368839e-19)
(0.27337791 -0.00019850622 2.4143959e-20)
(0.26406181 -0.0001430334 9.330679e-20)
(0.25174654 -8.644968e-05 5.5450453e-20)
(0.23619383 -4.3151082e-05 -1.0901013e-19)
(0.21545404 -1.6307484e-05 -9.6571814e-20)
(0.18060883 -2.4367085e-06 -7.5365366e-20)
(0.28640123 -3.0578784e-05 -4.9017176e-19)
(0.28634965 -7.6187463e-05 1.1672793e-18)
(0.28619826 -0.00011907139 1.2234695e-18)
(0.28584114 -0.00016105348 1.2340251e-19)
(0.28503985 -0.00019611847 5.6665707e-19)
(0.2832784 -0.00021805401 1.5582083e-19)
(0.27961117 -0.00021482471 -8.9509202e-20)
(0.27307114 -0.00017959427 4.6372718e-20)
(0.26350715 -0.00012559657 1.4555647e-19)
(0.25119402 -7.4328966e-05 3.792048e-19)
(0.23577276 -3.6259372e-05 2.7826999e-19)
(0.21519748 -1.3176837e-05 1.5100326e-19)
(0.18049716 -1.6827585e-06 1.1232068e-19)
(0.28749419 -3.0204451e-05 2.3051704e-18)
(0.28743185 -7.520472e-05 2.1001124e-18)
(0.28725056 -0.00011732616 -6.8093868e-20)
(0.28682673 -0.0001580853 8.8108051e-21)
(0.28588145 -0.00019097762 6.2275379e-19)
(0.28382593 -0.00020874813 2.6112346e-19)
(0.27969464 -0.00019967158 2.3701112e-19)
(0.27272685 -0.00016124193 2.6971994e-19)
(0.26298189 -0.00010969946 1.6648251e-19)
(0.25069697 -6.3515016e-05 4.1745884e-20)
(0.23540492 -3.0122541e-05 2.3144318e-19)
(0.21498079 -1.0384802e-05 1.5710835e-19)
(0.18041 -1.0010029e-06 1.6130741e-20)
(0.28857317 -2.9827535e-05 9.1148727e-19)
(0.28849825 -7.4211613e-05 9.2857539e-19)
(0.28828196 -0.00011552671 -1.6239573e-19)
(0.28778008 -0.00015493915 -5.6918626e-20)
(0.28666738 -0.00018536089 5.9699045e-19)
(0.28428521 -0.00019856896 4.3443469e-19)
(0.27969326 -0.00018401637 2.9957433e-19)
(0.27236107 -0.00014368791 3.3042102e-19)
(0.26248991 -9.5249864e-05 7.5086898e-20)
(0.25025143 -5.3830552e-05 6.0807704e-20)
(0.23508472 -2.463527e-05 7.6440927e-20)
(0.21479959 -7.8824883e-06 8.3161442e-20)
(0.18034487 -3.830792e-07 -1.5953817e-20)
(0.28963798 -2.9443749e-05 4.9819255e-19)
(0.28954831 -7.3196105e-05 1.4599683e-19)
(0.28929102 -0.00011364593 3.0322669e-19)
(0.2886978 -0.00015155982 6.8081198e-19)
(0.28739173 -0.00017916927 -3.1401795e-20)
(0.28465455 -0.00018751865 4.0628383e-19)
(0.27962017 -0.0001681064 6.3631423e-19)
(0.2719867 -0.00012709647 5.6386047e-19)
(0.26203302 -8.2127514e-05 2.3312519e-19)
(0.24985346 -4.5128127e-05 -1.991032e-19)
(0.23480728 -1.9711263e-05 -4.9548659e-19)
(0.21465012 -5.6309914e-06 -1.6699828e-19)
(0.18029962 1.7812749e-07 -6.6087811e-20)
(0.29068824 -2.9047997e-05 2.5814858e-18)
(0.29058125 -7.2143821e-05 1.2097755e-18)
(0.29027586 -0.0001116522 1.3728597e-18)
(0.28957586 -0.00014788248 9.2124504e-19)
(0.28804865 -0.00017230925 3.0149856e-19)
(0.28493523 -0.00017565384 2.544127e-19)
(0.2794894 -0.00015219579 3.3208842e-19)
(0.2716136 -0.0001115566 2.1725297e-19)
(0.26161163 -7.0203557e-05 4.2410486e-19)
(0.24949925 -3.7283203e-05 4.3325249e-19)
(0.23456828 -1.5277058e-05 -6.4048496e-20)
(0.21452909 -3.5978742e-06 -2.4293229e-19)
(0.18027234 6.8891613e-07 -9.5638681e-20)
(0.29172336 -2.863428e-05 1.3828487e-18)
(0.291596 -7.1037634e-05 1.0515676e-18)
(0.29123415 -0.00010950892 1.4727176e-18)
(0.29040962 -0.00014383256 3.6966934e-19)
(0.28863287 -0.00016470429 8.0713683e-19)
(0.28513156 -0.00016308395 3.1751828e-19)
(0.27931466 -0.00013652205 -1.5731224e-19)
(0.27124896 -9.7093549e-05 2.408387e-19)
(0.26122524 -5.9353641e-05 4.9055673e-19)
(0.24918522 -3.019017e-05 5.3526256e-19)
(0.23436395 -1.1270296e-05 3.6278745e-19)
(0.2144337 -1.7305493e-06 -3.8422555e-20)
(0.18026136 1.1761558e-06 1.099436e-19)
(0.29274252 -2.8196035e-05 -4.3722914e-19)
(0.29259116 -6.9858459e-05 1.521671e-18)
(0.29216305 -0.00010717576 1.2221395e-19)
(0.29119393 -0.00013933085 2.0844457e-19)
(0.28914031 -0.00015631031 5.5056798e-19)
(0.28525057 -0.00014996781 2.5417558e-19)
(0.27910837 -0.00012129297 2.1901994e-20)
(0.2708978 -8.3692837e-05 1.0854214e-20)
(0.26087272 -4.9471595e-05 -3.7849711e-20)
(0.24890802 -2.3766767e-05 -9.4361955e-20)
(0.23419085 -7.6476531e-06 -6.0373562e-22)
(0.21436056 -1.6256177e-08 9.4969783e-20)
(0.18026627 1.6403972e-06 -1.3725888e-20)
(0.2937446 -2.7725099e-05 6.438485e-19)
(0.29356496 -6.8583189e-05 1.3533031e-18)
(0.29305914 -0.00010460504 -2.9526272e-19)
(0.29192334 -0.00013429445 2.5601504e-19)
(0.28956868 -0.00014712077 5.5814048e-19)
(0.2853013 -0.00013649477 1.7420434e-19)
(0.27888121 -0.00010666835 1.0052116e-19)
(0.27056351 -7.131046e-05 2.3586462e-19)
(0.26055265 -4.046288e-05 1.6941141e-20)
(0.24866458 -1.7940244e-05 -4.513208e-20)
(0.23404606 -4.3538992e-06 3.1734823e-20)
(0.21430781 1.5374093e-06 4.0148644e-20)
(0.18028522 2.0563879e-06 -3.8937952e-20)
(0.29472815 -2.7211025e-05 1.4791328e-18)
(0.29451518 -6.7183245e-05 7.2037598e-19)
(0.29391842 -0.00010173906 7.9165133e-19)
(0.29259237 -0.00012864184 9.79334e-19)
(0.28991788 -0.00013716948 -8.9383891e-20)
(0.28529395 -0.0001228645 1.8235536e-19)
(0.27864192 -9.2752909e-05 8.9144838e-19)
(0.27024822 -5.9882426e-05 9.5118694e-19)
(0.26026336 -3.2238648e-05 2.5398957e-19)
(0.24845204 -1.2642365e-05 -5.6784302e-19)
(0.23392646 -1.3358729e-06 -2.422422e-19)
(0.21427448 2.9561817e-06 -1.4900503e-19)
(0.18031663 2.4263132e-06 -4.6432741e-20)
(0.29569132 -2.6641403e-05 1.1612209e-18)
(0.2954391 -6.5625547e-05 1.3661257e-18)
(0.29473631 -9.8512682e-05 1.9876744e-18)
(0.29319592 -0.00012230569 8.3345802e-19)
(0.29019018 -0.00012653595 2.0702919e-19)
(0.2852389 -0.00010927514 2.8764554e-19)
(0.27839743 -7.9607244e-05 7.3479241e-19)
(0.26995312 -4.9342207e-05 2.4202916e-19)
(0.26000309 -2.472216e-05 2.1925641e-19)
(0.24826773 -7.8150778e-06 3.6795169e-19)
(0.23382955 1.4151592e-06 5.676383e-20)
(0.21425921 4.2390858e-06 1.9137796e-20)
(0.18035932 2.7544356e-06 -3.4545571e-20)
(0.29663173 -2.6001182e-05 -1.3940941e-19)
(0.29633339 -6.3871156e-05 4.8205114e-19)
(0.29550768 -9.4853892e-05 1.328369e-18)
(0.29372976 -0.00011524119 1.7077693e-19)
(0.29039011 -0.00011533896 6.5955266e-19)
(0.28514604 -9.5905367e-05 4.008914e-19)
(0.27815305 -6.725412e-05 -6.2860328e-20)
(0.26967872 -3.9623314e-05 3.153099e-19)
(0.25977003 -1.7841839e-05 3.4718602e-19)
(0.24810923 -3.3839529e-06 7.2949678e-19)
(0.23375398 3.9312165e-06 4.032819e-19)
(0.21425996 5.3906168e-06 2.0515479e-19)
(0.18041214 3.0443423e-06 1.654298e-19)
(0.29754645 -2.5272389e-05 1.5672457e-19)
(0.29719411 -6.187445e-05 2.0243213e-18)
(0.29622706 -9.0687757e-05 4.8674694e-19)
(0.29419101 -0.00010743478 3.9424821e-19)
(0.29052399 -0.00010372736 4.8799975e-19)
(0.28502427 -8.2903351e-05 4.723474e-19)
(0.27791277 -5.5688921e-05 1.755237e-19)
(0.26942499 -3.0662217e-05 1.4743043e-19)
(0.25956226 -1.1539667e-05 1.8327015e-19)
(0.24797362 6.75908e-07 -8.5417083e-20)
(0.23369893 6.2277282e-06 9.1758541e-20)
(0.21427538 6.4296409e-06 1.7586629e-19)
(0.18047413 3.3030883e-06 7.27112e-20)
(0.29843186 -2.4434088e-05 5.3831014e-19)
(0.29801658 -5.9582977e-05 1.1455527e-18)
(0.29688883 -8.594339e-05 6.1824856e-19)
(0.29457851 -9.8910835e-05 4.166131e-19)
(0.29059935 -9.1868418e-05 5.0357226e-19)
(0.28488126 -7.0382609e-05 5.920657e-19)
(0.27767954 -4.4890668e-05 3.8842742e-19)
(0.26919163 -2.2395831e-05 1.1531105e-19)
(0.25937815 -5.7364054e-06 3.356431e-19)
(0.24785972 4.3904929e-06 3.1230805e-19)
(0.2336621 8.3016031e-06 2.1438283e-19)
(0.21430404 7.3667021e-06 2.3449234e-19)
(0.18054443 3.5354664e-06 7.2497125e-20)
(0.29928359 -2.3462152e-05 -6.3100431e-19)
(0.29879547 -5.6937588e-05 -6.8609684e-19)
(0.29748763 -8.0561614e-05 6.2613512e-19)
(0.29489309 -8.9732416e-05 9.137308e-19)
(0.29062422 -7.9932326e-05 -8.6336274e-20)
(0.28472341 -5.8420089e-05 3.9707322e-19)
(0.27745536 -3.4827518e-05 1.1051713e-18)
(0.26897782 -1.4770395e-05 1.0019966e-18)
(0.25921519 -3.9178711e-07 2.0627075e-19)
(0.24776702 7.7920543e-06 -6.4497234e-20)
(0.23364198 1.0181108e-05 1.1195792e-20)
(0.21434474 8.2147666e-06 5.8155436e-20)
(0.18062225 3.7449991e-06 5.1200282e-20)
(0.30009637 -2.2329728e-05 -3.2890417e-19)
(0.29952479 -5.3875493e-05 7.4709764e-19)
(0.29801875 -7.4505245e-05 4.8334983e-19)
(0.29513749 -7.9999937e-05 8.8213496e-19)
(0.29060658 -6.8080566e-05 2.4346041e-19)
(0.28455591 -4.7062467e-05 4.7577782e-19)
(0.27724164 -2.5459214e-05 6.3278136e-19)
(0.2687829 -7.7156597e-06 1.6731022e-19)
(0.25907248 4.5154002e-06 -4.6538863e-20)
(0.24769347 1.088139e-05 -2.5338908e-19)
(0.23363709 1.1884868e-05 -5.6092097e-20)
(0.21439637 8.9837456e-06 -6.2359347e-20)
(0.1807069 3.9343493e-06 -6.6347433e-20)
(0.30086402 -2.1007835e-05 2.6684939e-19)
(0.30019808 -5.0335133e-05 2.6774027e-18)
(0.29847858 -6.7767489e-05 1.6127128e-18)
(0.29531607 -6.9843607e-05 -6.4416645e-19)
(0.29055391 -5.6454409e-05 4.9453613e-19)
(0.28438287 -3.6332011e-05 3.5466354e-19)
(0.27703906 -1.674825e-05 -5.3975609e-19)
(0.2686053 -1.1875147e-06 -6.263589e-19)
(0.25894976 9.0213469e-06 1.6501545e-19)
(0.24763751 1.3689804e-05 4.4621737e-19)
(0.23364609 1.3431094e-05 3.4209461e-19)
(0.21445793 9.6806844e-06 -8.2872737e-20)
(0.18079772 4.1050208e-06 -1.219152e-19)
(0.30157943 -1.9467189e-05 2.004822e-18)
(0.30080863 -4.6264333e-05 2.207176e-18)
(0.29886499 -6.0378817e-05 1.1294912e-18)
(0.29543444 -5.941394e-05 -3.8356016e-19)
(0.29047287 -4.5169355e-05 4.4605483e-19)
(0.28420752 -2.6229142e-05 1.2375329e-19)
(0.27684812 -8.6362597e-06 -2.4372667e-19)
(0.26844451 4.8386541e-06 -3.4059038e-19)
(0.25884557 1.3135775e-05 1.3107767e-19)
(0.2475977 1.6244103e-05 3.4951298e-19)
(0.23366777 1.4835361e-05 1.3218666e-19)
(0.21452852 1.0311988e-05 2.0727094e-20)
(0.18089414 4.2585321e-06 -1.2188148e-19)
(0.30223466 -1.7681567e-05 1.1679404e-18)
(0.3013499 -4.1630422e-05 8.9984552e-20)
(0.29917751 -5.2409528e-05 -7.7340156e-21)
(0.29549883 -4.8869411e-05 8.9733869e-19)
(0.29036918 -3.4313644e-05 4.3393383e-19)
(0.28403214 -1.6747506e-05 5.1627343e-19)
(0.27666826 -1.0891e-06 6.5590645e-19)
(0.26830088 1.0390985e-05 -1.8626992e-20)
(0.25875851 1.6888492e-05 -1.3367405e-19)
(0.24757272 1.8568191e-05 -5.8961578e-19)
(0.23370102 1.6110027e-05 -3.0430708e-19)
(0.21460732 1.0882766e-05 -1.5941319e-19)
(0.18099561 4.3960763e-06 -1.0767974e-19)
(0.30282117 -1.5633388e-05 2.9996567e-18)
(0.30181594 -3.643148e-05 1.4573637e-18)
(0.29941741 -4.3968548e-05 1.3161134e-18)
(0.29551566 -3.8365459e-05 9.5494702e-19)
(0.2902477 -2.3945219e-05 2.8333662e-19)
(0.28385859 -7.8477218e-06 4.1656749e-19)
(0.27649982 5.9141269e-06 3.6824487e-19)
(0.26817344 1.5479817e-05 -1.1567177e-19)
(0.25868728 2.0310845e-05 -2.9128057e-19)
(0.24756135 2.068264e-05 -4.340198e-19)
(0.23374484 1.7265707e-05 -2.4146459e-19)
(0.21469357 1.139759e-05 -1.1129442e-19)
(0.18110164 4.5187622e-06 -6.2962892e-20)
(0.30333026 -1.3320786e-05 3.4692171e-18)
(0.30220188 -3.0705582e-05 3.2388712e-18)
(0.29958744 -3.5196366e-05 4.4608155e-19)
(0.29549103 -2.8043642e-05 9.5854565e-19)
(0.29011218 -1.4099839e-05 5.0387052e-19)
(0.28368733 4.8517375e-07 -2.2013609e-19)
(0.276344 1.2388901e-05 -4.9029623e-19)
(0.26806118 2.013513e-05 -8.3813076e-20)
(0.2586307 2.3431355e-05 -1.1923644e-19)
(0.24756246 2.260457e-05 2.8566331e-19)
(0.23379832 1.8311477e-05 4.6413579e-20)
(0.21478659 1.1860469e-05 2.2472442e-19)
(0.18121176 4.6275498e-06 2.8232291e-20)
(0.30375373 -1.0764901e-05 1.2574838e-18)
(0.30250438 -2.4536349e-05 3.6722024e-18)
(0.29969147 -2.6255589e-05 1.4254445e-18)
(0.29543051 -1.8024197e-05 -1.9821563e-19)
(0.28996561 -4.785814e-06 4.2639654e-19)
(0.28352015 8.2431181e-06 -3.2644392e-19)
(0.27620025 1.8335883e-05 -1.9318131e-19)
(0.26796311 2.4389468e-05 9.6643048e-20)
(0.25858763 2.6274659e-05 1.6409313e-19)
(0.24757502 2.4348915e-05 3.3784001e-19)
(0.2338606 1.9255538e-05 1.9084289e-19)
(0.21488574 1.2275088e-05 -1.4510138e-19)
(0.18132555 4.7233439e-06 -5.7880374e-20)
(0.30408466 -8.0145721e-06 8.6730751e-19)
(0.30272185 -1.8051787e-05 1.0451122e-18)
(0.29973407 -1.7315883e-05 2.1861164e-18)
(0.29533886 -8.3895853e-06 2.8334905e-19)
(0.28980995 3.9789584e-06 3.1833697e-19)
(0.28335875 1.5424496e-05 2.0199685e-19)
(0.27606809 2.3784732e-05 -3.4695618e-20)
(0.26787825 2.8272282e-05 4.3221025e-20)
(0.25855702 2.8860167e-05 -9.2567856e-20)
(0.24759809 2.5927618e-05 1.4200547e-19)
(0.23393092 2.0104416e-05 1.9274284e-19)
(0.21499043 1.2644235e-05 -1.3465539e-19)
(0.1814426 4.8067262e-06 -4.3072987e-20)
(0.30431819 -5.1449419e-06 -4.7261571e-19)
(0.3028546 -1.1412637e-05 -2.1207417e-19)
(0.29971994 -8.5331623e-06 8.7053538e-22)
(0.29521955 7.8207893e-07 1.3947517e-18)
(0.28964857 1.2143075e-05 6.4319673e-19)
(0.28320331 2.2022612e-05 3.8564784e-19)
(0.27594691 2.8765114e-05 4.4414582e-19)
(0.26780566 3.1808689e-05 7.9480279e-20)
(0.25853789 3.1205169e-05 -1.9892815e-19)
(0.24763076 2.735171e-05 -3.6905406e-19)
(0.23400854 2.08642e-05 -1.5481273e-20)
(0.2151001 1.2970553e-05 -2.4753681e-20)
(0.18156252 4.8782881e-06 -1.4791108e-20)
(0.30445222 -2.2472319e-06 1.9335563e-18)
(0.30290466 -4.7892368e-06 1.2173117e-18)
(0.2996534 -5.7447063e-08 2.5401148e-19)
(0.29507686 9.386865e-06 9.6471529e-19)
(0.28948321 1.9670541e-05 8.8938644e-19)
(0.28305385 2.8057788e-05 5.0800807e-19)
(0.27583605 3.3302664e-05 6.7496119e-19)
(0.26774441 3.5018179e-05 3.3290867e-19)
(0.25852929 3.3323422e-05 3.243755e-19)
(0.24767222 2.86299e-05 -1.9169237e-19)
(0.23409279 2.1539484e-05 -9.4839382e-20)
(0.21521426 1.3255888e-05 2.7443741e-20)
(0.18168496 4.9383546e-06 -3.1025481e-20)
(0.30448759 5.8143007e-07 -3.4576195e-19)
(0.30287533 1.6331913e-06 2.224473e-18)
(0.29953939 7.940376e-06 1.830937e-18)
(0.29491435 1.733423e-05 8.9657671e-19)
(0.28931491 2.6550368e-05 7.4962964e-19)
(0.28291026 3.3548698e-05 6.8801688e-19)
(0.2757348 3.7416501e-05 -1.6918817e-19)
(0.26769361 3.7916251e-05 6.7547422e-20)
(0.25853035 3.5226089e-05 3.2833259e-19)
(0.24772169 2.9769056e-05 1.7719364e-19)
(0.23418305 2.2133717e-05 2.1011775e-20)
(0.2153324 1.3501517e-05 2.5262389e-19)
(0.18180955 4.9870799e-06 6.3408547e-20)
(0.30442824 3.2381378e-06 -6.9297027e-19)
(0.30277199 7.6569792e-06 2.0689397e-18)
(0.29938292 1.5303993e-05 2.6872907e-18)
(0.29473444 2.4565355e-05 -4.0361686e-19)
(0.28914434 3.2781677e-05 -3.0682712e-20)
(0.28277222 3.8508103e-05 3.6834609e-19)
(0.27564244 4.1120427e-05 -2.0841569e-19)
(0.26765239 4.0514564e-05 -5.6205474e-20)
(0.25854021 3.6921337e-05 8.5288646e-21)
(0.24777843 3.0773877e-05 7.4742657e-20)
(0.23427872 2.2648981e-05 5.8556205e-20)
(0.21545406 1.3708003e-05 -9.4666434e-20)
(0.18193595 5.0243874e-06 1.3784247e-20)
(0.30428148 5.6355889e-06 1.0221196e-18)
(0.30260141 1.3122377e-05 2.3496543e-18)
(0.29918843 2.1930412e-05 5.0110105e-19)
(0.29453912 3.1047507e-05 1.9023669e-19)
(0.28897192 3.836267e-05 1.9492397e-19)
(0.28263933 4.294353e-05 4.7898595e-20)
(0.2755582 4.4423821e-05 7.1111678e-20)
(0.26761989 4.2820966e-05 3.6415275e-19)
(0.25855808 3.8414233e-05 7.9975572e-20)
(0.24784174 3.1646831e-05 2.5429764e-19)
(0.23437921 2.3085945e-05 1.916619e-19)
(0.21557877 1.387516e-05 -4.7191825e-20)
(0.18206381 5.0499485e-06 9.5370195e-21)
(0.30405678 7.7205448e-06 5.7768723e-19)
(0.30237113 1.7926711e-05 1.2209684e-18)
(0.29896016 2.7756814e-05 6.8208616e-19)
(0.29433004 3.6759515e-05 6.1851007e-19)
(0.28879784 4.3290999e-05 2.9762424e-19)
(0.2825111 4.6859611e-05 -9.1728492e-20)
(0.2754813 4.7332604e-05 4.3510335e-22)
(0.26759529 4.4839946e-05 5.9116533e-20)
(0.25858316 3.9707099e-05 7.4301026e-20)
(0.24791094 3.2388398e-05 1.8486143e-19)
(0.23448396 2.3443997e-05 1.4477339e-20)
(0.21570609 1.4002109e-05 -5.2393283e-20)
(0.18219278 5.063208e-06 3.1455286e-20)
(0.30376497 9.467697e-06 3.0730574e-18)
(0.30208913 2.2015489e-05 1.8553015e-18)
(0.29870222 3.2751937e-05 1.5667604e-18)
(0.29410866 4.1691467e-05 2.172923e-19)
(0.2886222 4.7566335e-05 1.1448313e-19)