/*--------------------------------*- C++ -*----------------------------------*\
| =========                 |                                                 |
| \\      /  F ield         | OpenFOAM: The Open Source CFD Toolbox           |
|  \\    /   O peration     | Version:  2506                                  |
|   \\  /    A nd           | Website:  www.openfoam.com                      |
|    \\/     M anipulation  |                                                 |
\*---------------------------------------------------------------------------*/
FoamFile
{
    version     2.0;
    format      ascii;
    arch        "LSB;label=32;scalar=64";
    class       volScalarField;
    location    "3000/water";
    object      epsilon;
}
// * * * * * * * * * * * * * * * * * * * * * * * * * * * * * * * * * * * * * //

dimensions      [0 2 -3 0 0 0 0];

internalField   nonuniform List<scalar> 
1000
(
7.2399316e-05
7.2397808e-05
7.2397502e-05
7.2398682e-05
7.2424146e-05
7.2686938e-05
7.4736184e-05
8.8973294e-05
0.00019794853
0.0013048048
4.7739543e-05
4.7745807e-05
4.7746167e-05
4.7748745e-05
4.7810065e-05
4.8371229e-05
5.2145897e-05
7.5319322e-05
0.00023607339
0.0016574915
3.3261229e-05
3.326441e-05
3.3263962e-05
3.3272039e-05
3.3396639e-05
3.4348943e-05
3.9973156e-05
7.1502158e-05
0.00026550002
0.0016622
2.4212884e-05
2.4213778e-05
2.421353e-05
2.4236018e-05
2.4468828e-05
2.597996e-05
3.4086668e-05
7.6375113e-05
0.00030233547
0.0015600257
1.8263229e-05
1.8263302e-05
1.8265922e-05
1.8318446e-05
1.8730722e-05
2.1090715e-05
3.2935553e-05
9.042301e-05
0.00035053524
0.0014605594
1.4183053e-05
1.4183388e-05
1.4193788e-05
1.4301413e-05
1.5003319e-05
1.8678156e-05
3.6167964e-05
0.00011337703
0.00040230455
0.0013944161
1.1285033e-05
1.1287109e-05
1.1313191e-05
1.1514088e-05
1.2672053e-05
1.8360646e-05
4.385411e-05
0.00014255053
0.00044702294
0.0013593136
9.1651308e-06
9.1712238e-06
9.2251472e-06
9.576518e-06
1.1437673e-05
2.0107208e-05
5.582819e-05
0.00017322854
0.00047957521
0.0013440709
7.5754963e-06
7.5890768e-06
7.6892455e-06
8.2761054e-06
1.1198222e-05
2.4041241e-05
7.1186988e-05
0.00020099031
0.00050080717
0.0013390504
6.3585386e-06
6.3848727e-06
6.558946e-06
7.5064254e-06
1.1984538e-05
3.023613e-05
8.8277366e-05
0.00022355903
0.00051393018
0.0013385662
5.4111025e-06
5.4581716e-06
5.7474943e-06
7.2369331e-06
1.3906684e-05
3.8515439e-05
0.00010524308
0.00024078284
0.00052197874
0.0013399581
4.6642398e-06
4.7441301e-06
5.210053e-06
7.4969474e-06
1.7087003e-05
4.8355539e-05
0.0001206823
0.00025359524
0.00052708033
0.0013422097
4.0714678e-06
4.2024402e-06
4.9349812e-06
8.3622644e-06
2.1575456e-05
5.8975488e-05
0.00013393057
0.00026313407
0.00053055264
0.0013450164
3.6019036e-06
3.8114133e-06
4.9402451e-06
9.935117e-06
2.7272222e-05
6.9567099e-05
0.00014492632
0.00027035437
0.00053316286
0.0013483151
3.2363932e-06
3.5653609e-06
5.2715543e-06
1.2311459e-05
3.3901711e-05
7.9510738e-05
0.00015392452
0.00027595636
0.00053534092
0.0013520945
2.9656643e-06
3.4742245e-06
5.998413e-06
1.5537509e-05
4.1062753e-05
8.8461016e-05
0.00016127361
0.00028042539
0.00053731666
0.0013563338
2.7900131e-06
3.5645542e-06
7.2040719e-06
1.9569974e-05
4.8330067e-05
9.6307023e-05
0.00016730375
0.00028408909
0.00053917753
0.001360972
2.7202651e-06
3.8804162e-06
8.9663894e-06
2.4261426e-05
5.5350007e-05
0.00010308378
0.00017229228
0.00028715782
0.00054093684
0.0013659395
2.7797378e-06
4.4819616e-06
1.1330796e-05
2.9383043e-05
6.1887474e-05
0.00010889373
0.00017645198
0.00028975386
0.00054267254
0.0013711899
3.006566e-06
5.4386944e-06
1.4283603e-05
3.4675044e-05
6.7820861e-05
0.00011385663
0.00017993856
0.00029198041
0.00054443451
0.0013766839
3.4547912e-06
6.8148558e-06
1.7738628e-05
3.9899741e-05
7.311187e-05
0.00011808674
0.00018285393
0.00029394162
0.00054623667
0.0013823795
4.191154e-06
8.6476078e-06
2.1546245e-05
4.4874734e-05
7.7769176e-05
0.00012165881
0.00018531791
0.00029569748
0.00054807397
0.0013882302
5.2835928e-06
1.0924865e-05
2.5521739e-05
4.9478036e-05
8.180366e-05
0.00012466938
0.00018741279
0.00029728394
0.00054993259
0.0013941874
6.7799207e-06
1.3574413e-05
2.9480247e-05
5.3622542e-05
8.5253091e-05
0.00012719926
0.00018919513
0.00029872093
0.0005517938
0.0014002011
8.6832246e-06
1.6474046e-05
3.324998e-05
5.7259508e-05
8.8167026e-05
0.00012930768
0.00019070225
0.00030001673
0.00055363511
0.0014062193
1.0937803e-05
1.9464208e-05
3.6694112e-05
6.0377173e-05
9.058661e-05
0.00013103653
0.00019195677
0.0003011707
0.00055543055
0.0014121858
1.3423252e-05
2.2384315e-05
3.9726969e-05
6.2977877e-05
9.2544793e-05
0.00013241425
0.00019297029
0.00030217536
0.00055715101
0.0014180391
1.5988101e-05
2.51035e-05
4.2303164e-05
6.5074422e-05
9.4068692e-05
0.0001334599
0.00019374686
0.00030301871
0.00055876516
0.0014237112
1.8484523e-05
2.7531387e-05
4.4410703e-05
6.6689255e-05
9.5183164e-05
0.00013418762
0.00019428675
0.00030368694
0.00056024131
0.0014291291
2.0793639e-05
2.9617729e-05
4.606353e-05
6.7854275e-05
9.5914437e-05
0.00013461091
0.00019459025
0.00030416763
0.00056155006
0.0014342176
2.2836435e-05
3.134568e-05
4.7294007e-05
6.860992e-05
9.6292782e-05
0.00013474623
0.00019466116
0.00030445289
0.00056266731
0.0014389049
2.4572698e-05
3.2722995e-05
4.8145951e-05
6.9003196e-05
9.6353671e-05
0.00013461537
0.00019450937
0.00030454186
0.000563577
0.0014431283
2.5993431e-05
3.37737e-05
4.8668795e-05
6.9084989e-05
9.6137412e-05
0.00013424623
0.00019415209
0.00030444212
0.00056427283
0.0014468396
2.7111448e-05
3.4531263e-05
4.8913191e-05
6.8907248e-05
9.5687681e-05
0.00013367226
0.00019361373
0.00030416978
0.00056475887
0.0014500093
2.7952864e-05
3.5033511e-05
4.8928022e-05
6.8520531e-05
9.5049512e-05
0.00013293083
0.00019292451
0.00030374826
0.00056504872
0.0014526284
2.8550552e-05
3.5319097e-05
4.8758591e-05
6.7972139e-05
9.4267224e-05
0.00013206115
0.00019211842
0.00030320619
0.00056516363
0.001454708
2.8939589e-05
3.5425221e-05
4.8445662e-05
6.730491e-05
9.3382642e-05
0.00013110212
0.00019123075
0.00030257493
0.00056512999
0.0014562772
2.9154379e-05
3.5386279e-05
4.8025088e-05
6.6556567e-05
9.2433763e-05
0.00013009037
0.00019029587
0.000301886
0.00056497662
0.0014573786
2.9226981e-05
3.5233164e-05
4.7527812e-05
6.5759507e-05
9.1453911e-05
0.00012905888
0.00018934537
0.00030116899
0.0005647323
0.0014580646
2.9186257e-05
3.4993006e-05
4.6980087e-05
6.4940901e-05
9.0471345e-05
0.00012803606
0.00018840674
0.00030044997
0.00056442391
0.0014583925
2.9057561e-05
3.4689186e-05
4.6403822e-05
6.4123004e-05
8.9509214e-05
0.00012704531
0.00018750267
0.00029975063
0.00056407511
0.0014584206
2.8862737e-05
3.4341534e-05
4.5816997e-05
6.3323576e-05
8.8585791e-05
0.00012610498
0.00018665081
0.00029908786
0.00056370575
0.0014582055
2.8620309e-05
3.3966606e-05
4.5234093e-05
6.2556382e-05
8.7714873e-05
0.00012522864
0.00018586394
0.00029847394
0.00056333171
0.0014577997
2.8345767e-05
3.3578016e-05
4.4666529e-05
6.1831692e-05
8.6906284e-05
0.00012442557
0.00018515039
0.00029791682
0.00056296492
0.0014572506
2.8051884e-05
3.3186784e-05
4.4123068e-05
6.1156779e-05
8.6166403e-05
0.00012370122
0.00018451459
0.00029742054
0.00056260958
0.0014565959
2.7749052e-05
3.280166e-05
4.3610207e-05
6.0536395e-05
8.5498747e-05
0.000123058
0.00018395791
0.00029698516
0.00056226375
0.0014558686
2.7445599e-05
3.2429449e-05
4.313253e-05
5.9973215e-05
8.4904519e-05
0.00012249583
0.0001834786
0.00029660457
0.00056194029
0.0014551007
2.714808e-05
3.2075298e-05
4.269303e-05
5.9468231e-05
8.4383044e-05
0.00012201227
0.00018306997
0.00029628017
0.00056164607
0.0014543193
2.6861549e-05
3.1742958e-05
4.2293395e-05
5.9021096e-05
8.3932024e-05
0.00012160114
0.00018272926
0.00029601077
0.00056138408
0.0014535463
2.6589798e-05
3.1435037e-05
4.1934316e-05
5.8630228e-05
8.354636e-05
0.00012125841
0.00018245242
0.00029579321
0.000561155
0.0014527986
2.6335599e-05
3.1153222e-05
4.1615277e-05
5.8292235e-05
8.3222176e-05
0.00012097925
0.00018223426
0.00029562313
0.00056095797
0.0014520887
2.6100752e-05
3.0898071e-05
4.1334775e-05
5.8004134e-05
8.2955031e-05
0.00012075818
0.00018206896
0.0002954956
0.00056079121
0.0014514253
2.588615e-05
3.0669471e-05
4.1091127e-05
5.7762575e-05
8.2740109e-05
0.00012058939
0.00018195046
0.00029540543
0.00056065242
0.001450814
2.5692146e-05
3.0466895e-05
4.0882331e-05
5.7563943e-05
8.2572393e-05
0.00012046695
0.0001818727
0.00029534753
0.00056053905
0.0014502579
2.5518663e-05
3.0289474e-05
4.0706139e-05
5.7404467e-05
8.244681e-05
0.00012038502
0.00018182982
0.00029531702
0.00056044853
0.0014497583
2.5365282e-05
3.0136064e-05
4.0560124e-05
5.7280306e-05
8.235835e-05
0.00012033796
0.00018181631
0.00029530939
0.00056037837
0.0014493152
2.5231308e-05
3.0005303e-05
4.0441745e-05
5.718763e-05
8.2302154e-05
0.00012032042
0.00018182705
0.00029532052
0.00056032619
0.0014489273
2.511583e-05
2.989567e-05
4.0348402e-05
5.7122683e-05
8.2273589e-05
0.00012032744
0.00018185737
0.00029534669
0.00056028976
0.0014485927
2.5017772e-05
2.9805533e-05
4.0277489e-05
5.7081834e-05
8.2268291e-05
0.00012035441
0.00018190305
0.00029538457
0.00056026693
0.0014483086
2.4935933e-05
2.9733189e-05
4.0226432e-05
5.7061621e-05
8.2282201e-05
0.00012039718
0.00018196033
0.00029543118
0.00056025565
0.0014480717
2.4869027e-05
2.9676905e-05
4.0192727e-05
5.7058783e-05
8.2311594e-05
0.00012045199
0.00018202587
0.00029548393
0.00056025401
0.0014478783
2.4815719e-05
2.9634946e-05
4.0173975e-05
5.7070287e-05
8.2353092e-05
0.00012051554
0.00018209679
0.00029554057
0.00056026021
0.0014477244
2.4774651e-05
2.9605611e-05
4.0167904e-05
5.7093351e-05
8.2403678e-05
0.00012058492
0.00018217064
0.00029559918
0.00056027266
0.0014476058
2.4744472e-05
2.9587252e-05
4.0172391e-05
5.7125452e-05
8.2460693e-05
0.00012065767
0.00018224536
0.00029565821
0.00056028996
0.0014475185
2.4723863e-05
2.95783e-05
4.0185482e-05
5.7164338e-05
8.2521828e-05
0.00012073169
0.00018231929
0.00029571639
0.00056031093
0.0014474586
2.4711547e-05
2.9577276e-05
4.0205393e-05
5.7208019e-05
8.2585108e-05
0.00012080525
0.00018239106
0.00029577273
0.00056033457
0.0014474225
2.4706314e-05
2.9582805e-05
4.0230521e-05
5.7254761e-05
8.2648869e-05
0.00012087695
0.00018245962
0.00029582646
0.00056035998
0.0014474069
2.4707025e-05
2.9593624e-05
4.0259437e-05
5.7303074e-05
8.2711728e-05
0.00012094567
0.00018252418
0.00029587697
0.00056038638
0.0014474084
2.4712621e-05
2.9608583e-05
4.0290885e-05
5.7351695e-05
8.2772566e-05
0.00012101053
0.00018258412
0.00029592383
0.00056041308
0.0014474241
2.4722132e-05
2.9626651e-05
4.0323776e-05
5.7399576e-05
8.2830495e-05
0.0001210709
0.00018263906
0.00029596672
0.00056043944
0.001447451
2.4734676e-05
2.9646911e-05
4.0357184e-05
5.7445865e-05
8.2884845e-05
0.00012112634
0.00018268875
0.00029600545
0.00056046496
0.0014474867
2.4749464e-05
2.9668563e-05
4.0390331e-05
5.7489895e-05
8.2935137e-05
0.00012117659
0.00018273311
0.00029603997
0.00056048905
0.0014475285
2.4765801e-05
2.9690919e-05
4.0422585e-05
5.7531165e-05
8.2981063e-05
0.00012122155
0.00018277218
0.00029607025
0.00056051101
0.0014475743
2.4783081e-05
2.9713399e-05
4.0453444e-05
5.756932e-05
8.3022465e-05
0.00012126126
0.0001828061
0.00029609621
0.00056053078
0.0014476224
2.4800786e-05
2.9735523e-05
4.0482526e-05
5.7604137e-05
8.305931e-05
0.00012129583
0.00018283498
0.00029611801
0.00056054871
0.0014476715
2.4818481e-05
2.9756903e-05
4.0509553e-05
5.7635504e-05
8.3091665e-05
0.00012132542
0.00018285902
0.00029613613
0.00056056495
0.0014477206
2.4835808e-05
2.9777236e-05
4.0534343e-05
5.7663402e-05
8.3119623e-05
0.00012135021
0.00018287868
0.00029615094
0.00056057957
0.0014477688
2.4852482e-05
2.9796297e-05
4.0556796e-05
5.7687844e-05
8.3143324e-05
0.00012137058
0.00018289437
0.00029616279
0.00056059258
0.0014478155
2.4868283e-05
2.9813929e-05
4.0576839e-05
5.7708901e-05
8.3163044e-05
0.00012138692
0.00018290652
0.00029617197
0.00056060402
0.0014478598
2.4883037e-05
2.9830006e-05
4.059447e-05
5.7726736e-05
8.3179094e-05
0.00012139962
0.00018291551
0.00029617878
0.00056061391
0.0014479013
2.4896617e-05
2.9844461e-05
4.0609745e-05
5.7741554e-05
8.3191804e-05
0.00012140909
0.00018292175
0.00029618351
0.00056062231
0.0014479396
2.4908943e-05
2.9857277e-05
4.0622764e-05
5.775359e-05
8.3201516e-05
0.00012141571
0.00018292559
0.00029618642
0.00056062931
0.0014479744
2.491998e-05
2.9868477e-05
4.0633661e-05
5.7763098e-05
8.3208576e-05
0.00012141988
0.0001829274
0.00029618781
0.00056063501
0.0014480056
2.4929727e-05
2.9878119e-05
4.0642593e-05
5.777034e-05
8.3213322e-05
0.00012142195
0.00018292753
0.00029618793
0.00056063958
0.0014480334
2.4938212e-05
2.9886282e-05
4.0649731e-05
5.777558e-05
8.3216081e-05
0.00012142228
0.00018292628
0.00029618702
0.00056064313
0.0014480577
2.4945487e-05
2.9893063e-05
4.0655252e-05
5.7779073e-05
8.3217159e-05
0.00012142117
0.00018292393
0.0002961853
0.00056064581
0.0014480788
2.4951619e-05
2.9898573e-05
4.0659335e-05
5.7781066e-05
8.3216841e-05
0.00012141892
0.00018292074
0.00029618295
0.00056064772
0.0014480969
2.4956688e-05
2.9902927e-05
4.0662155e-05
5.7781788e-05
8.3215384e-05
0.00012141577
0.00018291692
0.00029618012
0.00056064894
0.0014481121
2.496078e-05
2.9906243e-05
4.0663883e-05
5.7781453e-05
8.3213023e-05
0.00012141194
0.00018291266
0.00029617696
0.00056064956
0.0014481246
2.4963986e-05
2.990864e-05
4.0664678e-05
5.7780258e-05
8.3209968e-05
0.00012140764
0.00018290811
0.00029617356
0.00056064964
0.0014481345
2.4966399e-05
2.9910233e-05
4.0664693e-05
5.7778382e-05
8.3206406e-05
0.00012140303
0.00018290342
0.00029617005
0.00056064926
0.0014481422
2.4968113e-05
2.9911135e-05
4.0664069e-05
5.7775989e-05
8.3202506e-05
0.00012139828
0.00018289871
0.00029616651
0.00056064853
0.0014481478
2.4969218e-05
2.9911452e-05
4.0662935e-05
5.7773224e-05
8.3198411e-05
0.00012139351
0.0001828941
0.00029616304
0.00056064755
0.0014481516
2.4969804e-05
2.9911286e-05
4.0661409e-05
5.7770213e-05
8.3194246e-05
0.00012138882
0.00018288967
0.00029615971
0.00056064639
0.0014481539
2.4969951e-05
2.9910728e-05
4.0659596e-05
5.7767067e-05
8.3190113e-05
0.00012138431
0.00018288548
0.00029615657
0.00056064514
0.001448155
2.4969738e-05
2.9909861e-05
4.0657585e-05
5.7763874e-05
8.3186091e-05
0.00012138003
0.00018288158
0.00029615365
0.00056064384
0.0014481551
2.4969235e-05
2.990876e-05
4.0655454e-05
5.776071e-05
8.3182243e-05
0.00012137603
0.00018287799
0.00029615097
0.00056064252
0.0014481544
2.4968503e-05
2.9907488e-05
4.0653268e-05
5.7757634e-05
8.3178614e-05
0.00012137234
0.00018287472
0.00029614853
0.00056064119
0.001448153
2.4967599e-05
2.9906104e-05
4.0651082e-05
5.7754692e-05
8.3175239e-05
0.00012136897
0.00018287178
0.00029614633
0.00056063986
0.0014481511
2.4966574e-05
2.990466e-05
4.0648949e-05
5.7751931e-05
8.3172151e-05
0.00012136594
0.00018286915
0.00029614432
0.00056063848
0.0014481487
)
;

boundaryField
{
    water_inlet
    {
        type            turbulentMixingLengthDissipationRateInlet;
        mixingLength    0.005;
        phi             phi;
        k               k;
        value           uniform 0.00011791765;
    }
    water_outlet
    {
        type            inletOutlet;
        inletValue      uniform 0.0001;
        value           nonuniform List<scalar> 10(2.4966574e-05 2.990466e-05 4.0648949e-05 5.7751931e-05 8.3172151e-05 0.00012136594 0.00018286915 0.00029614432 0.00056063848 0.0014481487);
    }
    water_wedge1
    {
        type            wedge;
    }
    water_wedge2
    {
        type            wedge;
    }
    water_to_rock
    {
        type            epsilonWallFunction;
        blending        stepwise;
        value           nonuniform List<scalar> 
100
(
0.0013048048
0.0016574915
0.0016622
0.0015600257
0.0014605594
0.0013944161
0.0013593136
0.0013440709
0.0013390504
0.0013385662
0.0013399581
0.0013422097
0.0013450164
0.0013483151
0.0013520945
0.0013563338
0.001360972
0.0013659395
0.0013711899
0.0013766839
0.0013823795
0.0013882302
0.0013941874
0.0014002011
0.0014062193
0.0014121858
0.0014180391
0.0014237112
0.0014291291
0.0014342176
0.0014389049
0.0014431283
0.0014468396
0.0014500093
0.0014526284
0.001454708
0.0014562772
0.0014573786
0.0014580646
0.0014583925
0.0014584206
0.0014582055
0.0014577997
0.0014572506
0.0014565959
0.0014558686
0.0014551007
0.0014543193
0.0014535463
0.0014527986
0.0014520887
0.0014514253
0.001450814
0.0014502579
0.0014497583
0.0014493152
0.0014489273
0.0014485927
0.0014483086
0.0014480717
0.0014478783
0.0014477244
0.0014476058
0.0014475185
0.0014474586
0.0014474225
0.0014474069
0.0014474084
0.0014474241
0.001447451
0.0014474867
0.0014475285
0.0014475743
0.0014476224
0.0014476715
0.0014477206
0.0014477688
0.0014478155
0.0014478598
0.0014479013
0.0014479396
0.0014479744
0.0014480056
0.0014480334
0.0014480577
0.0014480788
0.0014480969
0.0014481121
0.0014481246
0.0014481345
0.0014481422
0.0014481478
0.0014481516
0.0014481539
0.001448155
0.0014481551
0.0014481544
0.001448153
0.0014481511
0.0014481487
)
;
    }
}


// ************************************************************************* //
