/*--------------------------------*- C++ -*----------------------------------*\
| =========                 |                                                 |
| \\      /  F ield         | OpenFOAM: The Open Source CFD Toolbox           |
|  \\    /   O peration     | Version:  2506                                  |
|   \\  /    A nd           | Website:  www.openfoam.com                      |
|    \\/     M anipulation  |                                                 |
\*---------------------------------------------------------------------------*/
FoamFile
{
    version     2.0;
    format      ascii;
    arch        "LSB;label=32;scalar=64";
    class       volScalarField;
    location    "3000/water";
    object      k;
}
// * * * * * * * * * * * * * * * * * * * * * * * * * * * * * * * * * * * * * //

dimensions      [0 2 -2 0 0 0 0];

internalField   nonuniform List<scalar> 
1000
(
0.00017657855
0.00017657518
0.00017657131
0.00017655365
0.00017648098
0.00017625478
0.00017589507
0.00017764177
0.00020514192
0.00048657967
0.00013915035
0.00013915817
0.00013914641
0.00013908743
0.00013888206
0.0001383736
0.00013797747
0.00014325065
0.00019616754
0.00057072179
0.00011343696
0.00011343683
0.00011340783
0.00011329561
0.00011298241
0.0001124902
0.00011342551
0.0001264141
0.00020548436
0.00057180212
9.4956345e-05
9.4947216e-05
9.4898274e-05
9.474799e-05
9.4461173e-05
9.4591069e-05
9.8882385e-05
0.00012463494
0.00023169823
0.00054812307
8.1180941e-05
8.1164581e-05
8.1102165e-05
8.0967048e-05
8.096004e-05
8.2611569e-05
9.2929674e-05
0.00013695698
0.00027128426
0.00052456952
7.0599818e-05
7.0579371e-05
7.0523471e-05
7.0504805e-05
7.1168237e-05
7.5593854e-05
9.5291402e-05
0.00016203257
0.00031585957
0.0005086103
6.2267978e-05
6.2250533e-05
6.223952e-05
6.2499634e-05
6.439946e-05
7.3303888e-05
0.00010610164
0.00019613531
0.00035649802
0.00050003838
5.5571435e-05
5.5570246e-05
5.5667655e-05
5.6450681e-05
6.0388973e-05
7.5971291e-05
0.00012498737
0.00023351965
0.00038871372
0.00049629323
5.0098705e-05
5.0135846e-05
5.0440296e-05
5.2103025e-05
5.9190554e-05
8.3984197e-05
0.0001502991
0.0002689618
0.00041246945
0.00049505662
4.5567683e-05
4.5677872e-05
4.633753e-05
4.9391694e-05
6.109601e-05
9.7486677e-05
0.00017920247
0.00029964242
0.00042964051
0.00049493726
4.178281e-05
4.2019046e-05
4.3252193e-05
4.8416272e-05
6.6518187e-05
0.00011597923
0.00020865676
0.00032501716
0.00044223017
0.00049528031
3.8609686e-05
3.9051453e-05
4.1174593e-05
4.9422814e-05
7.580845e-05
0.00013819011
0.00023642011
0.00034571996
0.00045177467
0.00049583499
3.5960363e-05
3.6725391e-05
4.0189445e-05
5.2767062e-05
8.9027931e-05
0.00016237193
0.0002613822
0.00036268773
0.000459315
0.00049652596
3.3785889e-05
3.5046499e-05
4.0478208e-05
5.883775e-05
0.00010577
0.00018682819
0.00028330025
0.00037677326
0.00046551929
0.00049733747
3.2074349e-05
3.4079176e-05
4.2315949e-05
6.7933593e-05
0.00012516073
0.00021031409
0.00030238134
0.00038864917
0.00047080772
0.00049826643
3.085376e-05
3.3954477e-05
4.6048063e-05
8.0117997e-05
0.00014606372
0.00023213622
0.00031898711
0.00039881725
0.00047543895
0.00049930738
3.0199527e-05
3.4878899e-05
5.2034205e-05
9.5115591e-05
0.00016736964
0.00025203074
0.00033348864
0.00040763777
0.00047952194
0.00050044503
3.0245957e-05
3.7136026e-05
6.0556134e-05
0.00011231916
0.00018821084
0.00026998835
0.00034621448
0.00041534846
0.00048317099
0.00050166202
3.1199947e-05
4.1068953e-05
7.1707562e-05
0.00013091726
0.0002080279
0.00028611982
0.00035742608
0.00042213411
0.00048649171
0.00050294671
3.335166e-05
4.7031279e-05
8.5310861e-05
0.00015007638
0.00022652163
0.00030057593
0.00036733084
0.00042814981
0.00048955808
0.00050428928
3.7070522e-05
5.5301872e-05
0.00010090964
0.00016908805
0.00024356807
0.00031350313
0.0003760887
0.00043353301
0.00049241573
0.00050567921
4.2767555e-05
6.5979328e-05
0.00011785027
0.00018743145
0.00025913416
0.00032501603
0.0003838695
0.00043837719
0.00049509083
0.00050710502
5.0805452e-05
7.8899122e-05
0.00013541219
0.00020475546
0.00027320751
0.00033526182
0.000390797
0.00044274757
0.00049759752
0.00050855473
6.1362151e-05
9.3622452e-05
0.00015292607
0.00022080474
0.00028583291
0.00034436356
0.00039696086
0.000446688
0.00049994129
0.00051001608
7.4303096e-05
0.000109515
0.00016980484
0.00023542187
0.00029707739
0.0003524111
0.00040242243
0.00045022502
0.00050212054
0.00051147639
8.9142834e-05
0.00012582829
0.00018559507
0.00024853518
0.00030699145
0.00035946506
0.00040721936
0.0004533705
0.00050412726
0.00051292213
0.00010508531
0.00014184879
0.00019999892
0.00026010265
0.00031560946
0.00036556196
0.00041136993
0.0004561242
0.00050594788
0.00051433849
0.00012123863
0.00015699683
0.00021282897
0.00027010658
0.00032295544
0.00037072129
0.00041487846
0.00045847704
0.00050756468
0.00051570918
0.00013680001
0.00017085491
0.00022398931
0.00027855546
0.00032905239
0.00037495469
0.00041774212
0.00046041553
0.00050895823
0.00051701674
0.00015116538
0.0001831636
0.00023346041
0.00028548755
0.00033393245
0.0003782758
0.0004199587
0.00046192719
0.00051011059
0.00051824328
0.00016395764
0.00019379991
0.00024128487
0.00029097231
0.00033764495
0.0003807091
0.00042153401
0.00046300604
0.00051100876
0.0005193718
0.00017500032
0.00020274867
0.00024755313
0.00029510804
0.00034026045
0.00038229589
0.00042248754
0.00046365707
0.00051164763
0.00052038753
0.00018426851
0.00021007328
0.00025238936
0.00029801628
0.00034187042
0.00038309648
0.00042285537
0.00046389873
0.00051203174
0.00052127927
0.00019183877
0.00021588939
0.00025593868
0.00029983431
0.0003425835
0.0003831889
0.00042269003
0.00046376332
0.00051217569
0.00052204029
0.00019784797
0.00022034336
0.00025835633
0.00030070735
0.00034251982
0.00038266503
0.00042205794
0.00046329522
0.00051210307
0.00052266873
0.00020246332
0.00022359582
0.00025979925
0.00030078166
0.00034180466
0.00038162522
0.00042103521
0.00046254772
0.00051184442
0.00052316752
0.00020586227
0.00022581004
0.00026041982
0.00030019891
0.00034056261
0.00038017276
0.00041970265
0.00046157908
0.00051143454
0.00052354373
0.00020821993
0.00022714409
0.00026036162
0.00029909212
0.00033891275
0.00037840875
0.00041814111
0.00046044859
0.00051090974
0.00052380774
0.00020970163
0.00022774605
0.00025975671
0.0002975829
0.00033696504
0.00037642796
0.00041642732
0.00045921301
0.00051030531
0.00052397212
0.00021045896
0.00022775115
0.00025872407
0.00029577988
0.00033481801
0.00037431591
0.00041463086
0.00045792392
0.00050965361
0.00052405065
0.00021062799
0.00022728056
0.00025736899
0.000293778
0.0003325574
0.00037214699
0.00041281214
0.00045662591
0.00050898271
0.00052405734
0.00021032882
0.000226441
0.00025578309
0.00029165857
0.00033025581
0.00036998368
0.00041102141
0.00045535569
0.00050831581
0.00052400575
0.00020966598
0.00022532512
0.00025404481
0.00028948976
0.00032797302
0.00036787656
0.00040929863
0.00045414196
0.00050767105
0.00052390848
0.00020872938
0.00022401227
0.00025222021
0.00028732749
0.00032575675
0.00036586497
0.00040767402
0.00045300578
0.00050706173
0.00052377688
0.00020759541
0.00022256948
0.00025036402
0.00028521656
0.00032364374
0.00036397788
0.00040616858
0.00045196022
0.00050648827
0.00052362003
0.00020632834
0.0002210527
0.00024852075
0.00028319188
0.00032166109
0.00036223529
0.00040479529
0.00045100909
0.00050595669
0.00052344576
0.0002049816
0.00021950795
0.00024672592
0.00028127971
0.00031982755
0.00036064922
0.00040355848
0.00045015526
0.00050547566
0.00052326172
0.00020359916
0.00021797254
0.00024500715
0.00027949889
0.00031815462
0.00035922397
0.0004024586
0.00044940272
0.00050504931
0.0005230744
0.00020221665
0.00021647618
0.00024338523
0.00027786178
0.00031664702
0.00035795855
0.00040149633
0.00044875149
0.00050467858
0.00052288904
0.00020086255
0.00021504201
0.00024187506
0.00027637472
0.00031530383
0.0003568517
0.0004006687
0.00044819845
0.00050436222
0.00052270968
0.00019955911
0.00021368744
0.00024048574
0.00027503891
0.00031412339
0.00035589871
0.00039996971
0.00044773822
0.00050409748
0.00052253935
0.00019832296
0.00021242424
0.00023922201
0.00027385387
0.00031310083
0.00035509208
0.0003993912
0.00044736395
0.00050388058
0.00052238015
0.00019716574
0.00021126019
0.00023808593
0.00027281625
0.00031222876
0.00035442231
0.00039892357
0.00044706783
0.00050370721
0.00052223345
0.00019609549
0.00021019991
0.00023707684
0.00027192033
0.00031149792
0.00035387855
0.00039855638
0.00044684163
0.00050357276
0.00052210001
0.00019511716
0.00020924529
0.00023619178
0.00027115864
0.00031089776
0.00035344917
0.00039827885
0.00044667707
0.00050347265
0.00052198014
0.00019423314
0.00020839594
0.00023542599
0.00027052237
0.00031041696
0.00035312224
0.00039808028
0.00044656609
0.00050340248
0.00052187381
0.00019344367
0.00020764962
0.00023477332
0.00027000186
0.00031004385
0.00035288592
0.00039795032
0.00044650109
0.0005033581
0.00052178072
0.00019274725
0.0002070026
0.00023422657
0.00026958692
0.00030976671
0.00035272869
0.00039787917
0.00044647498
0.00050333569
0.00052170038
0.00019214096
0.00020644999
0.00023377784
0.00026926717
0.00030957404
0.00035263957
0.00039785765
0.00044648122
0.00050333174
0.00052163215
0.00019162075
0.000205986
0.00023341876
0.00026903216
0.00030945472
0.00035260816
0.00039787725
0.00044651384
0.00050334298
0.00052157524
0.00019118168
0.00020560421
0.00023314067
0.00026887163
0.00030939809
0.00035262475
0.00039793013
0.00044656735
0.0005033664
0.00052152879
0.00019081813
0.0002052977
0.00023293485
0.00026877561
0.00030939411
0.00035268034
0.00039800914
0.00044663683
0.00050339927
0.00052149182
0.00019052402
0.00020505931
0.00023279263
0.00026873455
0.0003094334
0.00035276672
0.00039810789
0.00044671788
0.00050343913
0.00052146336
0.00019029294
0.00020488178
0.00023270559
0.00026873946
0.00030950736
0.00035287652
0.00039822071
0.00044680669
0.00050348385
0.00052144241
0.00019011839
0.00020475788
0.0002326657
0.00026878204
0.00030960825
0.00035300326
0.00039834272
0.00044690001
0.00050353164
0.00052142805
0.00018999389
0.00020468064
0.00023266539
0.00026885471
0.0003097292
0.00035314131
0.0003984698
0.00044699517
0.00050358101
0.0005214194
0.00018991313
0.00020464339
0.00023269767
0.00026895066
0.00030986419
0.00035328589
0.00039859851
0.00044708995
0.00050363076
0.00052141563
0.00018987005
0.00020463984
0.00023275616
0.00026906386
0.00031000804
0.00035343294
0.00039872601
0.0004471826
0.00050367987
0.00052141598
0.00018985893
0.00020466416
0.00023283506
0.00026918897
0.00031015628
0.00035357908
0.00039884999
0.00044727165
0.0005037275
0.00052141973
0.0001898744
0.00020471097
0.00023292919
0.00026932136
0.00031030513
0.00035372153
0.00039896856
0.00044735594
0.00050377295
0.00052142619
0.00018991147
0.00020477536
0.00023303394
0.00026945704
0.00031045144
0.00035385802
0.00039908025
0.00044743459
0.00050381565
0.00052143475
0.0001899656
0.00020485291
0.00023314527
0.00026959261
0.00031059262
0.00035398677
0.00039918395
0.0004475069
0.00050385481
0.0005214448
0.00019003265
0.00020493969
0.00023325971
0.00026972528
0.00031072667
0.00035410648
0.00039927889
0.00044757226
0.00050388996
0.00052145581
0.00019010896
0.00020503229
0.00023337435
0.00026985284
0.00031085208
0.00035421628
0.00039936455
0.00044763037
0.00050392122
0.00052146736
0.00019019133
0.00020512776
0.00023348679
0.00026997356
0.00031096781
0.00035431562
0.00039944067
0.00044768135
0.00050394886
0.00052147916
0.00019027701
0.00020522366
0.00023359514
0.00027008622
0.00031107321
0.00035440421
0.00039950736
0.0004477256
0.00050397312
0.00052149094
0.00019036369
0.00020531797
0.00023369793
0.00027018995
0.00031116786
0.0003544821
0.00039956507
0.00044776355
0.00050399419
0.00052150251
0.00019044943
0.00020540907
0.00023379406
0.00027028413
0.00031125167
0.00035454968
0.00039961431
0.00044779562
0.00050401227
0.00052151368
0.00019053267
0.00020549567
0.00023388268
0.00027036847
0.00031132489
0.00035460745
0.00039965564
0.00044782225
0.00050402754
0.00052152432
0.00019061214
0.00020557675
0.00023396326
0.00027044299
0.00031138792
0.000354656
0.00039968964
0.00044784387
0.00050404019
0.00052153428
0.00019068682
0.00020565158
0.00023403554
0.00027050789
0.00031144126
0.00035469597
0.00039971691
0.00044786091
0.00050405041
0.00052154348
0.00019075599
0.00020571969
0.00023409948
0.00027056352
0.00031148555
0.00035472807
0.00039973807
0.00044787383
0.00050405839
0.00052155185
0.00019081916
0.00020578084
0.00023415524
0.0002706104
0.00031152148
0.00035475303
0.00039975379
0.00044788309
0.00050406437
0.00052155936
0.00019087609
0.00020583501
0.00023420312
0.00027064913
0.00031154983
0.00035477165
0.00039976473
0.00044788917
0.00050406859
0.00052156602
0.00019092671
0.00020588232
0.00023424357
0.0002706804
0.0003115714
0.0003547847
0.00039977155
0.00044789255
0.00050407133
0.00052157185
0.00019097112
0.00020592306
0.00023427711
0.00027070494
0.00031158702
0.00035479298
0.00039977492
0.00044789369
0.00050407281
0.00052157691
0.00019100956
0.00020595759
0.00023430433
0.0002707235
0.00031159747
0.0003547972
0.0003997754
0.000447893
0.00050407326
0.00052158123
0.00019104232
0.00020598634
0.00023432584
0.00027073679
0.0003116035
0.00035479804
0.00039977354
0.00044789083
0.00050407286
0.00052158487
0.00019106977
0.00020600978
0.00023434222
0.00027074551
0.00031160578
0.00035479608
0.00039976978
0.00044788749
0.00050407176
0.00052158787
0.00019109232
0.00020602839
0.00023435407
0.00027075028
0.00031160492
0.00035479186
0.00039976453
0.00044788323
0.00050407008
0.00052159027
0.00019111036
0.00020604264
0.00023436195
0.00027075171
0.00031160149
0.00035478583
0.00039975812
0.00044787827
0.00050406793
0.00052159212
0.00019112433
0.00020605302
0.0002343664
0.00027075036
0.00031159601
0.00035477844
0.00039975089
0.00044787284
0.00050406544
0.00052159347
0.00019113468
0.00020606
0.00023436793
0.00027074674
0.00031158896
0.00035477008
0.00039974314
0.00044786712
0.00050406272
0.00052159439
0.00019114183
0.00020606406
0.00023436706
0.00027074136
0.00031158078
0.00035476112
0.00039973514
0.00044786131
0.0005040599
0.00052159494
0.00019114624
0.00020606566
0.00023436426
0.00027073468
0.00031157188
0.00035475189
0.00039972713
0.00044785559
0.00050405707
0.0005215952
0.00019114833
0.00020606522
0.00023435995
0.00027072708
0.0003115626
0.00035474265
0.00039971931
0.00044785007
0.00050405432
0.00052159522
0.00019114848
0.00020606315
0.00023435452
0.00027071892
0.00031155321
0.00035473361
0.00039971182
0.00044784485
0.0005040517
0.00052159504
0.00019114707
0.00020605979
0.00023434828
0.00027071047
0.00031154394
0.00035472493
0.00039970475
0.00044783997
0.00050404921
0.00052159471
0.0001911444
0.00020605545
0.00023434153
0.00027070195
0.00031153494
0.00035471669
0.00039969815
0.00044783545
0.00050404688
0.00052159425
0.00019114076
0.0002060504
0.00023433449
0.00027069356
0.00031152635
0.00035470898
0.00039969203
0.00044783126
0.00050404466
0.00052159368
)
;

boundaryField
{
    water_inlet
    {
        type            turbulentIntensityKineticEnergyInlet;
        intensity       0.05;
        value           uniform 0.000234375;
    }
    water_outlet
    {
        type            inletOutlet;
        inletValue      uniform 0.0001;
        value           nonuniform List<scalar> 10(0.00019114076 0.0002060504 0.00023433449 0.00027069356 0.00031152635 0.00035470898 0.00039969203 0.00044783126 0.00050404466 0.00052159368);
    }
    water_wedge1
    {
        type            wedge;
    }
    water_wedge2
    {
        type            wedge;
    }
    water_to_rock
    {
        type            kqRWallFunction;
        value           nonuniform List<scalar> 
100
(
0.00048657967
0.00057072179
0.00057180212
0.00054812307
0.00052456952
0.0005086103
0.00050003838
0.00049629323
0.00049505662
0.00049493726
0.00049528031
0.00049583499
0.00049652596
0.00049733747
0.00049826643
0.00049930738
0.00050044503
0.00050166202
0.00050294671
0.00050428928
0.00050567921
0.00050710502
0.00050855473
0.00051001608
0.00051147639
0.00051292213
0.00051433849
0.00051570918
0.00051701674
0.00051824328
0.0005193718
0.00052038753
0.00052127927
0.00052204029
0.00052266873
0.00052316752
0.00052354373
0.00052380774
0.00052397212
0.00052405065
0.00052405734
0.00052400575
0.00052390848
0.00052377688
0.00052362003
0.00052344576
0.00052326172
0.0005230744
0.00052288904
0.00052270968
0.00052253935
0.00052238015
0.00052223345
0.00052210001
0.00052198014
0.00052187381
0.00052178072
0.00052170038
0.00052163215
0.00052157524
0.00052152879
0.00052149182
0.00052146336
0.00052144241
0.00052142805
0.0005214194
0.00052141563
0.00052141598
0.00052141973
0.00052142619
0.00052143475
0.0005214448
0.00052145581
0.00052146736
0.00052147916
0.00052149094
0.00052150251
0.00052151368
0.00052152432
0.00052153428
0.00052154348
0.00052155185
0.00052155936
0.00052156602
0.00052157185
0.00052157691
0.00052158123
0.00052158487
0.00052158787
0.00052159027
0.00052159212
0.00052159347
0.00052159439
0.00052159494
0.0005215952
0.00052159522
0.00052159504
0.00052159471
0.00052159425
0.00052159368
)
;
    }
}


// ************************************************************************* //
