/*--------------------------------*- C++ -*----------------------------------*\
| =========                 |                                                 |
| \\      /  F ield         | OpenFOAM: The Open Source CFD Toolbox           |
|  \\    /   O peration     | Version:  2506                                  |
|   \\  /    A nd           | Website:  www.openfoam.com                      |
|    \\/     M anipulation  |                                                 |
\*---------------------------------------------------------------------------*/
FoamFile
{
    version     2.0;
    format      ascii;
    arch        "LSB;label=32;scalar=64";
    class       volScalarField;
    location    "3000/water";
    object      nut;
}
// * * * * * * * * * * * * * * * * * * * * * * * * * * * * * * * * * * * * * //

dimensions      [0 2 -1 0 0 0 0];

internalField   nonuniform List<scalar> 
1000
(
3.8760013e-05
3.8759344e-05
3.875781e-05
3.8749425e-05
3.8703919e-05
3.8465194e-05
3.7257946e-05
3.1920746e-05
1.9133704e-05
1.6330702e-05
3.6503362e-05
3.6502673e-05
3.6496233e-05
3.646333e-05
3.6309099e-05
3.5625575e-05
3.2857818e-05
2.4520498e-05
1.4670664e-05
1.7686427e-05
3.4818769e-05
3.4815355e-05
3.4798028e-05
3.4720761e-05
3.4400236e-05
3.3155724e-05
2.8966469e-05
2.0114739e-05
1.4313159e-05
1.7703159e-05
3.3515366e-05
3.3507685e-05
3.3473492e-05
3.3336596e-05
3.2819807e-05
3.0995903e-05
2.5816408e-05
1.8305021e-05
1.5980813e-05
1.7332728e-05
3.2476791e-05
3.2463573e-05
3.2409013e-05
3.22085e-05
3.1494115e-05
2.9122788e-05
2.3598608e-05
1.8669466e-05
1.8895571e-05
1.6956233e-05
3.1628598e-05
3.1609534e-05
3.153636e-05
3.1282466e-05
3.0382786e-05
2.7534772e-05
2.2595704e-05
2.0841169e-05
2.2319047e-05
1.6696307e-05
3.0922115e-05
3.0899106e-05
3.0816964e-05
3.0532891e-05
2.9455064e-05
2.6339563e-05
2.3103429e-05
2.4287637e-05
2.5587446e-05
1.6555013e-05
3.0325437e-05
3.0303993e-05
3.0232569e-05
2.9948374e-05
2.8695917e-05
2.5833887e-05
2.5183797e-05
2.8331523e-05
2.8356036e-05
1.6492901e-05
2.9818406e-05
2.9809195e-05
2.9779269e-05
2.9521768e-05
2.8157769e-05
2.6404672e-05
2.8559765e-05
3.2392808e-05
3.0574231e-05
1.6472341e-05
2.9389966e-05
2.9410471e-05
2.9462813e-05
2.9249415e-05
2.8031537e-05
2.8288299e-05
3.2740186e-05
3.614572e-05
3.2325767e-05
1.6470355e-05
2.903702e-05
2.911305e-05
2.9294104e-05
2.9152154e-05
2.8635167e-05
3.1431715e-05
3.7231787e-05
3.9484764e-05
3.3719911e-05
1.6476062e-05
2.8764324e-05
2.8930791e-05
2.9285928e-05
2.9323309e-05
3.0269959e-05
3.5542681e-05
4.1683842e-05
4.2418014e-05
3.4850535e-05
1.6485285e-05
2.8585095e-05
2.8885096e-05
2.9456492e-05
2.9967081e-05
3.3062455e-05
4.023397e-05
4.5910795e-05
4.499157e-05
3.5787823e-05
1.6496768e-05
2.8522075e-05
2.9003189e-05
2.9849466e-05
3.1360403e-05
3.6918753e-05
4.5156827e-05
4.9841279e-05
4.7257337e-05
3.6581203e-05
1.6510243e-05
2.8608622e-05
2.9316841e-05
3.0571165e-05
3.3736665e-05
4.1586949e-05
5.0067219e-05
5.3461936e-05
4.926263e-05
3.7264837e-05
1.6525656e-05
2.888928e-05
2.9866114e-05
3.1814777e-05
3.7181019e-05
4.6760504e-05
5.4824719e-05
5.678393e-05
5.1047331e-05
3.7861841e-05
1.6542909e-05
2.9419587e-05
3.071587e-05
3.3825351e-05
4.1605974e-05
5.2164909e-05
5.9359686e-05
5.9827232e-05
5.2642535e-05
3.8382007e-05
1.6561744e-05
3.026676e-05
3.1985641e-05
3.6807913e-05
4.6798709e-05
5.7598889e-05
6.3641767e-05
6.2613379e-05
5.4068843e-05
3.8841648e-05
1.6581869e-05
3.151711e-05
3.3868942e-05
4.0842469e-05
5.2497612e-05
6.2933651e-05
6.766055e-05
6.5161107e-05
5.534956e-05
3.9251436e-05
1.6603088e-05
3.329712e-05
3.6603401e-05
4.5857817e-05
5.8458835e-05
6.8092386e-05
7.141552e-05
6.7489009e-05
5.6504146e-05
3.9619164e-05
1.6625233e-05
3.5799595e-05
4.0389223e-05
5.1663975e-05
6.4490873e-05
7.3028996e-05
7.4907472e-05
6.9617558e-05
5.7547409e-05
3.99508e-05
1.6648129e-05
3.9276947e-05
4.5306686e-05
5.8013903e-05
7.0457229e-05
7.7711333e-05
7.8146317e-05
7.1563625e-05
5.8491233e-05
4.0250668e-05
1.6671584e-05
4.3967707e-05
5.1282686e-05
6.4661799e-05
7.6260747e-05
8.2121156e-05
8.1142967e-05
7.3340817e-05
5.9344903e-05
4.0521868e-05
1.6695397e-05
4.9982623e-05
5.8114096e-05
7.1396095e-05
8.1829875e-05
8.624955e-05
8.3905862e-05
7.4959717e-05
6.0115359e-05
4.0766526e-05
1.6719367e-05
5.7223616e-05
6.552235e-05
7.8046106e-05
8.711411e-05
9.0089775e-05
8.6440515e-05
7.6427748e-05
6.080738e-05
4.0985936e-05
1.6743284e-05
6.5386078e-05
7.3208647e-05
8.448488e-05
9.2075794e-05
9.3633455e-05
8.8749004e-05
7.7749196e-05
6.1423747e-05
4.1180642e-05
1.676693e-05
7.40404e-05
8.0900267e-05
9.0617562e-05
9.6681646e-05
9.6870281e-05
9.0830099e-05
7.8925464e-05
6.1965461e-05
4.1350536e-05
1.6790064e-05
8.2742312e-05
8.8366976e-05
9.636762e-05
0.00010090263
9.9788988e-05
9.2680163e-05
7.9955733e-05
6.2432143e-05
4.149502e-05
1.6812424e-05
9.1118498e-05
9.5426577e-05
0.00010167389
0.00010471526
0.00010237937
9.4294778e-05
8.0838057e-05
6.2822659e-05
4.1613253e-05
1.6833726e-05
9.8904652e-05
0.00010194575
0.00010649072
0.00010810347
0.00010463471
9.5670791e-05
8.1570778e-05
6.3135927e-05
4.170448e-05
1.6853683e-05
0.00010594429
0.00010783804
0.00011078898
0.00011106032
0.00010655389
9.6808256e-05
8.2153948e-05
6.3371754e-05
4.1768369e-05
1.6872023e-05
0.00011216758
0.0001130591
0.00011455646
0.00011358877
0.0001081427
9.771182e-05
8.2590444e-05
6.3531526e-05
4.1805284e-05
1.688851e-05
0.00011756583
0.00011759951
0.00011779694
0.00011570145
0.00010941406
9.8391303e-05
8.2886562e-05
6.3618604e-05
4.1816448e-05
1.6902971e-05
0.00012216943
0.00012147661
0.00012052812
0.00011741951
0.00011038737
9.8861473e-05
8.3052051e-05
6.3638397e-05
4.1803955e-05
1.6915302e-05
0.00012603158
0.00012472651
0.00012277871
0.00011877085
0.00011108721
9.9141243e-05
8.3099662e-05
6.3598131e-05
4.1770664e-05
1.6925481e-05
0.00012921731
0.00012739732
0.0001245854
0.00011978826
0.00011154183
9.9252524e-05
8.3044396e-05
6.3506404e-05
4.1719995e-05
1.6933558e-05
0.00013179644
0.00012954374
0.00012598988
0.00012050748
0.00011178159
9.9218988e-05
8.2902611e-05
6.337264e-05
4.1655684e-05
1.6939649e-05
0.0001338392
0.00013122317
0.00012703643
0.0001209655
0.00011183756
9.9064877e-05
8.2691119e-05
6.3206511e-05
4.1581524e-05
1.6943922e-05
0.00013541357
0.00013249288
0.00012776981
0.00012119924
0.00011174032
9.8813976e-05
8.2426383e-05
6.3017421e-05
4.1501144e-05
1.6946582e-05
0.00013658373
0.00013340817
0.00012823375
0.00012124433
0.00011151906
9.8488785e-05
8.2123853e-05
6.2814079e-05
4.1417827e-05
1.6947851e-05
0.00013740911
0.00013402103
0.00012846984
0.00012113432
0.00011120082
9.8109915e-05
8.1797489e-05
6.2604205e-05
4.1334399e-05
1.6947956e-05
0.00013794392
0.00013437947
0.0001285167
0.00012090007
0.00011081011
9.7695693e-05
8.1459458e-05
6.2394348e-05
4.1253165e-05
1.6947119e-05
0.00013823695
0.00013452704
0.00012840954
0.00012056945
0.0001103686
9.7261974e-05
8.1120005e-05
6.2189826e-05
4.1175901e-05
1.6945543e-05
0.00013833162
0.00013450272
0.00012817994
0.00012016714
0.00010989506
9.6822109e-05
8.0787456e-05
6.1994757e-05
4.1103883e-05
1.6943414e-05
0.00013826618
0.000134341
0.00012785586
0.00011971467
0.00010940545
9.6387013e-05
8.0468229e-05
6.1811884e-05
4.1036865e-05
1.6940878e-05
0.00013807406
0.00013407208
0.00012746169
0.00011923055
0.00010891302
9.5965286e-05
8.0166873e-05
6.1642232e-05
4.0975958e-05
1.6938061e-05
0.00013778425
0.00013372217
0.00012701854
0.00011873042
0.0001084285
9.5563318e-05
7.9885882e-05
6.1487854e-05
4.0921621e-05
1.6935085e-05
0.0001374217
0.00013331388
0.00012654443
0.00011822727
0.00010796023
9.5185238e-05
7.9628368e-05
6.1349543e-05
4.0874019e-05
1.6932055e-05
0.0001370078
0.00013286646
0.00012605451
0.00011773155
0.00010751415
9.4835368e-05
7.9395807e-05
6.122754e-05
4.0833082e-05
1.6929055e-05
0.0001365606
0.00013239609
0.0001255611
0.00011725127
0.00010709605
9.4516183e-05
7.9188792e-05
6.1121641e-05
4.0798555e-05
1.692615e-05
0.00013609508
0.00013191601
0.00012507438
0.00011679388
0.00010670972
9.422897e-05
7.9007205e-05
6.1031273e-05
4.0770049e-05
1.692339e-05
0.00013562367
0.00013143749
0.0001246032
0.00011636472
0.00010635752
9.3974045e-05
7.8850342e-05
6.0955579e-05
4.0747086e-05
1.692081e-05
0.00013515682
0.00013096992
0.00012415435
0.00011596753
0.00010604061
9.3750918e-05
7.8717037e-05
6.0893492e-05
4.0729131e-05
1.6918434e-05
0.00013470302
0.00013052069
0.00012373288
0.00011560466
0.00010575915
9.3558463e-05
7.8605786e-05
6.0843815e-05
4.0715624e-05
1.6916273e-05
0.00013426893
0.00013009546
0.00012334234
0.00011527728
0.00010551248
9.3395079e-05
7.8514862e-05
6.0805288e-05
4.0706011e-05
1.6914332e-05
0.00013385959
0.00012969836
0.00012298498
0.00011498563
0.00010529937
9.3258842e-05
7.844242e-05
6.0776647e-05
4.0699759e-05
1.6912611e-05
0.00013347865
0.00012933223
0.00012266202
0.00011472919
0.00010511811
9.3147631e-05
7.8386582e-05
6.0756665e-05
4.0696373e-05
1.6911104e-05
0.0001331286
0.00012899884
0.00012237381
0.00011450688
0.0001049667
9.3059222e-05
7.8345491e-05
6.0744176e-05
4.0695397e-05
1.6909802e-05
0.00013281092
0.00012869905
0.00012212
0.00011431715
0.00010484292
9.2991355e-05
7.8317344e-05
6.0738086e-05
4.0696416e-05
1.6908696e-05
0.00013252626
0.00012843294
0.00012189966
0.00011415812
0.0001047444
9.2941764e-05
7.8300407e-05
6.0737375e-05
4.0699052e-05
1.6907772e-05
0.00013227454
0.00012819996
0.00012171136
0.0001140276
0.00010466868
9.290821e-05
7.829302e-05
6.0741089e-05
4.0702959e-05
1.6907018e-05
0.00013205502
0.00012799899
0.00012155326
0.0001139232
0.00010461325
9.2888501e-05
7.8293611e-05
6.0748348e-05
4.0707824e-05
1.6906419e-05
0.00013186648
0.00012782844
0.00012142323
0.00011384238
0.00010457558
9.2880534e-05
7.8300709e-05
6.0758349e-05
4.0713366e-05
1.6905958e-05
0.00013170724
0.00012768637
0.0001213189
0.00011378257
0.00010455324
9.2882332e-05
7.831297e-05
6.0770374e-05
4.0719342e-05
1.690562e-05
0.00013157532
0.00012757059
0.0001212378
0.00011374121
0.00010454391
9.2892076e-05
7.8329196e-05
6.0783801e-05
4.0725548e-05
1.6905388e-05
0.00013146854
0.00012747878
0.00012117743
0.00011371582
0.00010454543
9.2908136e-05
7.8348339e-05
6.0798104e-05
4.0731817e-05
1.6905248e-05
0.00013138462
0.00012740856
0.00012113536
0.0001137041
0.00010455586
9.2929068e-05
7.83695e-05
6.0812845e-05
4.0738017e-05
1.6905187e-05
0.00013132125
0.00012735756
0.00012110921
0.00011370389
0.00010457342
9.2953603e-05
7.839191e-05
6.0827663e-05
4.0744043e-05
1.6905192e-05
0.00013127613
0.00012732347
0.00012109674
0.00011371317
0.00010459652
9.2980627e-05
7.8414912e-05
6.0842256e-05
4.0749809e-05
1.6905252e-05
0.00013124701
0.00012730403
0.00012109582
0.0001137301
0.00010462372
9.3009161e-05
7.8437942e-05
6.0856372e-05
4.0755245e-05
1.6905356e-05
0.00013123168
0.00012729708
0.00012110443
0.00011375298
0.00010465374
9.3038348e-05
7.846052e-05
6.0869805e-05
4.0760299e-05
1.6905495e-05
0.00013122804
0.00012730055
0.00012112068
0.00011378027
0.00010468543
9.3067454e-05
7.8482245e-05
6.088238e-05
4.0764882e-05
1.6905658e-05
0.00013123407
0.0001273125
0.00012114288
0.00011381058
0.00010471782
9.3095872e-05
7.8502796e-05
6.0893939e-05
4.0768973e-05
1.6905837e-05
0.00013124791
0.00012733116
0.00012116948
0.00011384275
0.0001047501
9.3123113e-05
7.852191e-05
6.0904411e-05
4.0772594e-05
1.6906025e-05
0.00013126789
0.00012735495
0.00012119914
0.00011387577
0.00010478161
9.3148793e-05
7.8539436e-05
6.0913799e-05
4.0775762e-05
1.6906216e-05
0.00013129251
0.00012738246
0.00012123071
0.0001139088
0.00010481182
9.317265e-05
7.8555334e-05
6.0922114e-05
4.0778506e-05
1.6906406e-05
0.00013132047
0.0001274125
0.00012126322
0.00011394115
0.00010484034
9.3194565e-05
7.8569586e-05
6.0929394e-05
4.0780852e-05
1.6906592e-05
0.00013135061
0.00012744401
0.00012129581
0.00011397229
0.00010486692
9.3214456e-05
7.8582209e-05
6.0935686e-05
4.0782832e-05
1.6906773e-05
0.00013138193
0.00012747607
0.00012132782
0.00011400182
0.00010489139
9.3232288e-05
7.8593245e-05
6.0941044e-05
4.0784472e-05
1.6906945e-05
0.00013141358
0.00012750792
0.00012135871
0.00011402943
0.00010491361
9.3248061e-05
7.8602752e-05
6.0945527e-05
4.0785799e-05
1.6907106e-05
0.00013144483
0.00012753896
0.00012138803
0.00011405489
0.00010493353
9.3261809e-05
7.8610799e-05
6.0949193e-05
4.0786841e-05
1.6907255e-05
0.00013147511
0.00012756867
0.00012141545
0.00011407803
0.00010495112
9.3273597e-05
7.8617472e-05
6.0952109e-05
4.0787624e-05
1.6907391e-05
0.00013150394
0.00012759666
0.00012144071
0.00011409878
0.00010496643
9.3283525e-05
7.8622875e-05
6.0954343e-05
4.0788176e-05
1.6907514e-05
0.00013153097
0.00012762264
0.00012146369
0.00011411714
0.00010497954
9.329172e-05
7.8627124e-05
6.0955975e-05
4.0788528e-05
1.6907621e-05
0.00013155597
0.00012764645
0.00012148431
0.00011413315
0.0001049906
9.3298336e-05
7.8630347e-05
6.0957082e-05
4.0788712e-05
1.6907716e-05
0.0001315788
0.000127668
0.0001215026
0.00011414695
0.00010499977
9.3303539e-05
7.8632677e-05
6.0957747e-05
4.0788757e-05
1.6907797e-05
0.00013159942
0.00012768728
0.00012151863
0.00011415866
0.00010500721
9.3307494e-05
7.8634239e-05
6.0958042e-05
4.0788691e-05
1.6907866e-05
0.00013161783
0.00012770434
0.00012153251
0.00011416845
0.00010501311
9.3310357e-05
7.8635149e-05
6.0958034e-05
4.0788537e-05
1.6907925e-05
0.00013163408
0.00012771924
0.00012154434
0.00011417646
0.00010501763
9.3312268e-05
7.8635505e-05
6.0957776e-05
4.0788314e-05
1.6907973e-05
0.00013164823
0.00012773208
0.00012155426
0.00011418285
0.00010502091
9.3313352e-05
7.8635393e-05
6.0957314e-05
4.0788037e-05
1.6908012e-05
0.00013166037
0.00012774295
0.00012156239
0.00011418776
0.00010502309
9.3313721e-05
7.863489e-05
6.0956689e-05
4.0787716e-05
1.6908043e-05
0.00013167058
0.00012775197
0.00012156887
0.00011419135
0.00010502432
9.3313487e-05
7.8634068e-05
6.0955936e-05
4.0787366e-05
1.6908065e-05
0.00013167901
0.00012775927
0.00012157385
0.00011419376
0.00010502473
9.3312759e-05
7.8633e-05
6.0955094e-05
4.0786998e-05
1.690808e-05
0.00013168578
0.00012776501
0.00012157751
0.00011419518
0.00010502448
9.3311649e-05
7.8631757e-05
6.09542e-05
4.0786625e-05
1.6908089e-05
0.00013169108
0.00012776938
0.00012158002
0.00011419576
0.0001050237
9.3310261e-05
7.8630408e-05
6.0953288e-05
4.0786259e-05
1.6908093e-05
0.00013169507
0.00012777254
0.00012158156
0.00011419566
0.00010502252
9.330869e-05
7.862901e-05
6.0952387e-05
4.0785908e-05
1.6908093e-05
0.00013169794
0.00012777467
0.0001215823
0.00011419503
0.00010502105
9.3307011e-05
7.8627608e-05
6.0951517e-05
4.0785579e-05
1.690809e-05
0.00013169985
0.00012777594
0.00012158237
0.00011419398
0.00010501938
9.330528e-05
7.8626231e-05
6.0950691e-05
4.0785275e-05
1.6908084e-05
0.00013170094
0.00012777647
0.0001215819
0.00011419261
0.00010501757
9.3303536e-05
7.8624899e-05
6.0949914e-05
4.0784994e-05
1.6908077e-05
0.00013170133
0.00012777638
0.00012158097
0.00011419099
0.00010501568
9.3301807e-05
7.862362e-05
6.0949185e-05
4.0784734e-05
1.6908069e-05
)
;

boundaryField
{
    water_inlet
    {
        type            calculated;
        value           uniform 4.1926275e-05;
    }
    water_outlet
    {
        type            calculated;
        value           nonuniform List<scalar> 10(0.00013170133 0.00012777638 0.00012158097 0.00011419099 0.00010501568 9.3301807e-05 7.862362e-05 6.0949185e-05 4.0784734e-05 1.6908069e-05);
    }
    water_wedge1
    {
        type            wedge;
    }
    water_wedge2
    {
        type            wedge;
    }
    water_to_rock
    {
        type            nutkWallFunction;
        blending        stepwise;
        value           nonuniform List<scalar> 
100
(
1.7358471e-06
1.9240026e-06
1.9263124e-06
1.8751054e-06
1.8229108e-06
1.7867864e-06
1.767118e-06
1.7584646e-06
1.7555993e-06
1.7553225e-06
1.7561179e-06
1.7574033e-06
1.7590034e-06
1.7608811e-06
1.7630284e-06
1.7654319e-06
1.7680553e-06
1.770858e-06
1.7738125e-06
1.7768954e-06
1.7800823e-06
1.7833462e-06
1.7866595e-06
1.7899941e-06
1.7933208e-06
1.796609e-06
1.7998254e-06
1.8029332e-06
1.8058936e-06
1.8086666e-06
1.8112148e-06
1.8135056e-06
1.8155147e-06
1.8172277e-06
1.8186413e-06
1.8197625e-06
1.8206078e-06
1.8212008e-06
1.8215699e-06
1.8217462e-06
1.8217612e-06
1.8216454e-06
1.821427e-06
1.8211315e-06
1.8207792e-06
1.8203877e-06
1.8199742e-06
1.8195532e-06
1.8191366e-06
1.8187334e-06
1.8183503e-06
1.8179923e-06
1.8176623e-06
1.8173621e-06
1.8170924e-06
1.8168531e-06
1.8166436e-06
1.8164628e-06
1.8163092e-06
1.8161811e-06
1.8160765e-06
1.8159933e-06
1.8159292e-06
1.8158821e-06
1.8158497e-06
1.8158302e-06
1.8158218e-06
1.8158225e-06
1.815831e-06
1.8158455e-06
1.8158648e-06
1.8158874e-06
1.8159122e-06
1.8159382e-06
1.8159648e-06
1.8159913e-06
1.8160174e-06
1.8160425e-06
1.8160665e-06
1.8160889e-06
1.8161096e-06
1.8161284e-06
1.8161453e-06
1.8161603e-06
1.8161735e-06
1.8161848e-06
1.8161946e-06
1.8162028e-06
1.8162095e-06
1.8162149e-06
1.8162191e-06
1.8162221e-06
1.8162242e-06
1.8162254e-06
1.816226e-06
1.8162261e-06
1.8162257e-06
1.8162249e-06
1.8162239e-06
1.8162226e-06
)
;
    }
}


// ************************************************************************* //
