/*--------------------------------*- C++ -*----------------------------------*\
| =========                 |                                                 |
| \\      /  F ield         | OpenFOAM: The Open Source CFD Toolbox           |
|  \\    /   O peration     | Version:  2506                                  |
|   \\  /    A nd           | Website:  www.openfoam.com                      |
|    \\/     M anipulation  |                                                 |
\*---------------------------------------------------------------------------*/
FoamFile
{
    version     2.0;
    format      ascii;
    arch        "LSB;label=32;scalar=64";
    class       volScalarField;
    location    "3000/water";
    object      T;
}
// * * * * * * * * * * * * * * * * * * * * * * * * * * * * * * * * * * * * * //

dimensions      [0 0 0 1 0 0 0];

internalField   nonuniform List<scalar> 
1000
(
333.15
333.15
333.15
333.14999
333.14998
333.14991
333.14966
333.14882
333.14553
333.13086
333.15
333.15
333.14999
333.14998
333.14992
333.14971
333.14908
333.14712
333.14016
333.11775
333.15
333.15
333.14999
333.14995
333.14981
333.14941
333.14828
333.14495
333.13442
333.1079
333.15
333.14999
333.14997
333.14989
333.14966
333.149
333.14725
333.14232
333.12873
333.10031
333.14999
333.14998
333.14995
333.14982
333.14945
333.14848
333.14595
333.13923
333.12342
333.09462
333.14999
333.14997
333.14991
333.14972
333.14918
333.14781
333.14431
333.13575
333.11872
333.09049
333.14998
333.14996
333.14986
333.14958
333.14883
333.14695
333.1423
333.13211
333.11475
333.08757
333.14997
333.14993
333.1498
333.1494
333.14838
333.14585
333.13993
333.12856
333.11147
333.08552
333.14996
333.1499
333.14971
333.14918
333.14781
333.14448
333.13732
333.1253
333.10878
333.08404
333.14994
333.14986
333.1496
333.14888
333.14706
333.14282
333.13462
333.12241
333.10658
333.08296
333.14991
333.1498
333.14945
333.14849
333.14612
333.14091
333.13199
333.1199
333.10475
333.08214
333.14987
333.14973
333.14926
333.148
333.14495
333.13886
333.12953
333.11772
333.10322
333.08152
333.14982
333.14963
333.14901
333.14736
333.14357
333.13674
333.12727
333.11582
333.10193
333.08103
333.14976
333.14951
333.14868
333.14655
333.14201
333.13466
333.12522
333.11417
333.10082
333.08065
333.14968
333.14934
333.14825
333.14556
333.14032
333.13266
333.12337
333.11271
333.09986
333.08035
333.14957
333.14911
333.1477
333.14439
333.13858
333.13077
333.12169
333.11141
333.09902
333.08012
333.14942
333.14882
333.147
333.14307
333.13683
333.12901
333.12018
333.11026
333.09828
333.07993
333.14922
333.14843
333.14614
333.14164
333.13512
333.12737
333.1188
333.10921
333.09762
333.07978
333.14894
333.14793
333.14513
333.14013
333.13346
333.12585
333.11754
333.10827
333.09703
333.07966
333.14858
333.14728
333.14396
333.13859
333.13188
333.12444
333.11638
333.1074
333.09649
333.07956
333.14809
333.14647
333.14267
333.13705
333.13038
333.12311
333.11531
333.10661
333.096
333.07947
333.14744
333.14549
333.1413
333.13553
333.12895
333.12188
333.11431
333.10588
333.09555
333.07939
333.1466
333.14435
333.13986
333.13405
333.12759
333.12072
333.11338
333.10519
333.09512
333.07931
333.14556
333.14307
333.13839
333.13261
333.1263
333.11963
333.11251
333.10454
333.09472
333.07923
333.1443
333.14165
333.1369
333.13121
333.12506
333.1186
333.11169
333.10393
333.09433
333.07915
333.14284
333.14014
333.13541
333.12985
333.12388
333.11761
333.1109
333.10334
333.09396
333.07906
333.14122
333.13855
333.13393
333.12853
333.12275
333.11667
333.11015
333.10277
333.09359
333.07896
333.13949
333.13691
333.13246
333.12724
333.12165
333.11576
333.10942
333.10222
333.09322
333.07884
333.1377
333.13525
333.13099
333.12598
333.12059
333.11488
333.10871
333.10168
333.09285
333.0787
333.13588
333.13358
333.12955
333.12475
333.11955
333.11402
333.10801
333.10114
333.09248
333.07855
333.13407
333.13193
333.12812
333.12354
333.11853
333.11317
333.10732
333.1006
333.0921
333.07837
333.13229
333.13031
333.12672
333.12235
333.11753
333.11234
333.10664
333.10006
333.0917
333.07816
333.13057
333.12872
333.12535
333.12118
333.11655
333.11151
333.10595
333.09951
333.09129
333.07792
333.1289
333.12718
333.12401
333.12004
333.11558
333.11069
333.10527
333.09895
333.09086
333.07765
333.12729
333.12569
333.1227
333.11891
333.11462
333.10988
333.10458
333.09838
333.09041
333.07735
333.12575
333.12425
333.12143
333.11781
333.11367
333.10906
333.10389
333.0978
333.08993
333.07702
333.12427
333.12287
333.1202
333.11673
333.11273
333.10825
333.10319
333.0972
333.08944
333.07666
333.12285
333.12153
333.119
333.11568
333.11181
333.10745
333.10249
333.09659
333.08892
333.07626
333.1215
333.12025
333.11783
333.11464
333.11089
333.10664
333.10178
333.09597
333.08839
333.07584
333.1202
333.11901
333.1167
333.11363
333.10999
333.10583
333.10106
333.09533
333.08783
333.07538
333.11895
333.11782
333.1156
333.11263
333.1091
333.10503
333.10033
333.09468
333.08726
333.0749
333.11775
333.11666
333.11453
333.11166
333.10821
333.10423
333.0996
333.09402
333.08666
333.07439
333.11659
333.11555
333.11349
333.1107
333.10734
333.10343
333.09887
333.09335
333.08605
333.07386
333.11547
333.11447
333.11248
333.10976
333.10647
333.10262
333.09813
333.09266
333.08542
333.07331
333.11439
333.11342
333.11149
333.10884
333.10561
333.10183
333.09738
333.09197
333.08478
333.07273
333.11334
333.1124
333.11052
333.10793
333.10476
333.10103
333.09664
333.09127
333.08413
333.07214
333.11233
333.11141
333.10957
333.10703
333.10391
333.10023
333.09588
333.09056
333.08347
333.07154
333.11133
333.11044
333.10864
333.10615
333.10307
333.09943
333.09513
333.08984
333.08279
333.07091
333.11037
333.10949
333.10772
333.10527
333.10224
333.09864
333.09437
333.08912
333.08211
333.07028
333.10942
333.10856
333.10682
333.10441
333.10141
333.09785
333.09361
333.0884
333.08142
333.06963
333.10849
333.10765
333.10594
333.10355
333.10059
333.09705
333.09285
333.08766
333.08072
333.06897
333.10758
333.10675
333.10506
333.10271
333.09977
333.09626
333.09208
333.08693
333.08001
333.0683
333.10669
333.10586
333.1042
333.10187
333.09895
333.09547
333.09132
333.08619
333.0793
333.06762
333.1058
333.10499
333.10334
333.10103
333.09814
333.09469
333.09055
333.08545
333.07858
333.06693
333.10493
333.10413
333.1025
333.1002
333.09734
333.0939
333.08979
333.0847
333.07786
333.06624
333.10407
333.10328
333.10166
333.09938
333.09653
333.09311
333.08902
333.08395
333.07713
333.06554
333.10322
333.10243
333.10082
333.09856
333.09573
333.09233
333.08825
333.0832
333.0764
333.06483
333.10238
333.10159
333.1
333.09775
333.09493
333.09154
333.08748
333.08245
333.07566
333.06411
333.10155
333.10076
333.09917
333.09694
333.09413
333.09076
333.08671
333.08169
333.07492
333.06339
333.10072
333.09994
333.09836
333.09613
333.09334
333.08997
333.08594
333.08094
333.07418
333.06266
333.09989
333.09912
333.09754
333.09533
333.09254
333.08919
333.08517
333.08018
333.07343
333.06193
333.09907
333.0983
333.09673
333.09453
333.09175
333.08841
333.0844
333.07942
333.07269
333.06119
333.09826
333.09749
333.09593
333.09373
333.09096
333.08763
333.08363
333.07866
333.07193
333.06045
333.09745
333.09668
333.09512
333.09293
333.09017
333.08685
333.08286
333.0779
333.07118
333.0597
333.09664
333.09588
333.09432
333.09213
333.08938
333.08607
333.08209
333.07713
333.07042
333.05894
333.09584
333.09507
333.09352
333.09134
333.08859
333.08529
333.08131
333.07636
333.06966
333.05818
333.09503
333.09427
333.09273
333.09055
333.08781
333.08451
333.08054
333.07559
333.06889
333.05741
333.09423
333.09347
333.09193
333.08975
333.08702
333.08373
333.07976
333.07482
333.06813
333.05664
333.09343
333.09268
333.09114
333.08896
333.08623
333.08295
333.07899
333.07405
333.06735
333.05586
333.09264
333.09188
333.09034
333.08817
333.08545
333.08216
333.07821
333.07328
333.06658
333.05508
333.09184
333.09109
333.08955
333.08739
333.08466
333.08138
333.07743
333.0725
333.0658
333.05429
333.09105
333.09029
333.08876
333.0866
333.08388
333.0806
333.07665
333.07172
333.06502
333.05349
333.09025
333.0895
333.08797
333.08581
333.08309
333.07982
333.07587
333.07094
333.06423
333.05269
333.08946
333.08871
333.08718
333.08502
333.08231
333.07903
333.07508
333.07015
333.06344
333.05188
333.08867
333.08791
333.08639
333.08423
333.08152
333.07825
333.0743
333.06936
333.06264
333.05106
333.08787
333.08712
333.0856
333.08344
333.08073
333.07746
333.07351
333.06857
333.06184
333.05023
333.08708
333.08633
333.08481
333.08265
333.07994
333.07667
333.07272
333.06777
333.06103
333.0494
333.08629
333.08554
333.08402
333.08186
333.07915
333.07588
333.07192
333.06697
333.06022
333.04856
333.0855
333.08475
333.08323
333.08107
333.07836
333.07509
333.07113
333.06617
333.0594
333.0477
333.08471
333.08396
333.08243
333.08028
333.07757
333.07429
333.07033
333.06536
333.05857
333.04684
333.08392
333.08317
333.08164
333.07949
333.07678
333.0735
333.06953
333.06455
333.05774
333.04597
333.08313
333.08238
333.08085
333.0787
333.07598
333.0727
333.06872
333.06373
333.0569
333.04508
333.08233
333.08158
333.08006
333.0779
333.07518
333.07189
333.06791
333.0629
333.05605
333.04419
333.08154
333.08079
333.07926
333.07711
333.07438
333.07109
333.06709
333.06207
333.0552
333.04328
333.08075
333.08
333.07847
333.07631
333.07358
333.07028
333.06627
333.06123
333.05433
333.04236
333.07995
333.0792
333.07767
333.07551
333.07278
333.06946
333.06545
333.06039
333.05346
333.04142
333.07916
333.0784
333.07687
333.0747
333.07197
333.06864
333.06461
333.05954
333.05257
333.04047
333.07836
333.07761
333.07607
333.0739
333.07115
333.06782
333.06378
333.05868
333.05168
333.0395
333.07756
333.07681
333.07527
333.07309
333.07034
333.067
333.06293
333.05781
333.05077
333.03851
333.07676
333.076
333.07446
333.07228
333.06952
333.06616
333.06208
333.05694
333.04985
333.0375
333.07596
333.0752
333.07365
333.07146
333.06869
333.06532
333.06123
333.05605
333.04892
333.03647
333.07515
333.07439
333.07284
333.07065
333.06786
333.06448
333.06036
333.05515
333.04797
333.03542
333.07435
333.07358
333.07203
333.06982
333.06703
333.06363
333.05948
333.05424
333.047
333.03434
333.07354
333.07277
333.07121
333.06899
333.06619
333.06277
333.0586
333.05332
333.04602
333.03323
333.07272
333.07195
333.07039
333.06816
333.06534
333.0619
333.0577
333.05238
333.04502
333.03209
333.07191
333.07113
333.06956
333.06732
333.06449
333.06103
333.0568
333.05143
333.04399
333.0309
333.07108
333.07031
333.06873
333.06648
333.06362
333.06014
333.05587
333.05046
333.04293
333.02967
333.07026
333.06948
333.06789
333.06563
333.06275
333.05924
333.05494
333.04946
333.04184
333.02837
333.06943
333.06865
333.06704
333.06477
333.06187
333.05833
333.05398
333.04844
333.04071
333.02698
333.0686
333.06781
333.0662
333.0639
333.06098
333.0574
333.053
333.04738
333.0395
333.0254
)
;

boundaryField
{
    water_inlet
    {
        type            fixedValue;
        value           uniform 333.15;
    }
    water_outlet
    {
        type            zeroGradient;
    }
    water_wedge1
    {
        type            wedge;
    }
    water_wedge2
    {
        type            wedge;
    }
    water_to_rock
    {
        type            compressible::turbulentTemperatureRadCoupledMixed;
        refValue        nonuniform List<scalar> 
100
(
315.04844
319.29394
321.14095
322.23867
323.00728
323.59654
324.07401
324.47523
324.82092
325.12423
325.39396
325.63631
325.85578
326.05575
326.23885
326.4071
326.56219
326.70545
326.83804
326.96092
327.07492
327.18077
327.27911
327.37053
327.45553
327.53457
327.60809
327.67647
327.74005
327.79917
327.85413
327.90519
327.95263
327.99667
328.03754
328.07544
328.11056
328.14309
328.17318
328.20099
328.22667
328.25034
328.27212
328.29214
328.3105
328.32729
328.3426
328.35651
328.3691
328.38044
328.39058
328.39958
328.4075
328.41437
328.42024
328.42514
328.42909
328.43213
328.43427
328.43553
328.43592
328.43544
328.4341
328.4319
328.42883
328.42488
328.42003
328.41426
328.40755
328.39988
328.3912
328.38148
328.37067
328.35872
328.34559
328.33119
328.31547
328.29836
328.27975
328.25956
328.2377
328.21403
328.18844
328.16077
328.13088
328.09857
328.06365
328.02586
327.98491
327.94048
327.89214
327.83935
327.78144
327.71745
327.64607
327.56524
327.47152
327.35826
327.20909
326.96698
)
;
        refGradient     uniform 0;
        valueFraction   nonuniform List<scalar> 
100
(
0.015817679
0.014384089
0.014368103
0.014731052
0.015120369
0.015402094
0.015559943
0.01563042
0.015653898
0.015656169
0.015649643
0.015639108
0.015626013
0.015610675
0.015593172
0.015573626
0.015552347
0.015529679
0.015505855
0.015481072
0.015455538
0.015429473
0.015403103
0.015376655
0.015350359
0.015324456
0.015299204
0.015274883
0.015251789
0.015230218
0.01521045
0.015192722
0.015177207
0.015164004
0.015153127
0.015144511
0.015138023
0.015133475
0.015130645
0.015129293
0.015129177
0.015130064
0.015131737
0.015134003
0.015136706
0.015139711
0.015142887
0.01514612
0.015149322
0.015152421
0.015155366
0.01515812
0.015160659
0.01516297
0.015165048
0.015166891
0.015168506
0.015169899
0.015171083
0.01517207
0.015172876
0.015173517
0.015174011
0.015174375
0.015174625
0.015174775
0.015174841
0.015174834
0.015174769
0.015174657
0.015174508
0.015174334
0.015174143
0.015173942
0.015173738
0.015173533
0.015173332
0.015173137
0.015172953
0.01517278
0.01517262
0.015172475
0.015172345
0.015172229
0.015172128
0.01517204
0.015171965
0.015171901
0.015171849
0.015171808
0.015171776
0.015171752
0.015171737
0.015171727
0.015171722
0.015171722
0.015171725
0.015171731
0.015171739
0.015171749
)
;
        source          uniform 0;
        value           nonuniform List<scalar> 
100
(
332.84484
332.91891
332.93596
332.94031
332.94209
332.94426
332.94732
332.95093
332.95469
332.95836
332.96183
332.96508
332.96813
332.97099
332.97367
332.97619
332.97856
332.98079
332.98288
332.98483
332.98667
332.98838
332.98997
332.99145
332.99283
332.99409
332.99526
332.99632
332.99728
332.99814
332.9989
332.99957
333.00013
333.0006
333.00098
333.00127
333.00148
333.00161
333.00166
333.00163
333.00155
333.0014
333.0012
333.00095
333.00065
333.00031
332.99993
332.99951
332.99906
332.99858
332.99807
332.99753
332.99697
332.99639
332.99578
332.99515
332.99451
332.99384
332.99316
332.99246
332.99174
332.991
332.99024
332.98947
332.98868
332.98787
332.98704
332.98619
332.98533
332.98444
332.98353
332.9826
332.98164
332.98066
332.97966
332.97863
332.97757
332.97648
332.97536
332.9742
332.97301
332.97178
332.97051
332.9692
332.96784
332.96642
332.96496
332.96343
332.96183
332.96017
332.95842
332.95658
332.95464
332.95258
332.95037
332.94798
332.94534
332.94235
332.93871
332.93348
)
;
        logInterval     -1;
        writePrecision  8;
        updateHeader    1;
        writeToFile     0;
        useUserTime     1;
        kappaMethod     fluidThermo;
    }
}


// ************************************************************************* //
