/*--------------------------------*- C++ -*----------------------------------*\
| =========                 |                                                 |
| \\      /  F ield         | OpenFOAM: The Open Source CFD Toolbox           |
|  \\    /   O peration     | Version:  2506                                  |
|   \\  /    A nd           | Website:  www.openfoam.com                      |
|    \\/     M anipulation  |                                                 |
\*---------------------------------------------------------------------------*/
FoamFile
{
    version     2.0;
    format      ascii;
    arch        "LSB;label=32;scalar=64";
    class       volVectorField;
    location    "3000/water";
    object      U;
}
// * * * * * * * * * * * * * * * * * * * * * * * * * * * * * * * * * * * * * //

dimensions      [0 1 -1 0 0 0 0];

internalField   nonuniform List<vector> 
1000
(
(0.25225587 -0.00012859767 3.6004032e-18)
(0.25226258 -0.00027067836 1.2020395e-18)
(0.25227485 -0.0004145054 1.8202973e-18)
(0.25228819 -0.00055572717 6.0410666e-19)
(0.25229018 -0.0006857579 4.7125682e-19)
(0.25223998 -0.00079863173 6.1816031e-21)
(0.25200713 -0.00089615194 -1.2081731e-19)
(0.25115686 -0.0010460356 -3.5456488e-19)
(0.24780473 -0.0012820719 -2.4941935e-19)
(0.23308261 0.0010121611 -5.8824817e-19)
(0.25653043 -7.7330455e-05 2.6552923e-18)
(0.25653977 -0.00018903831 2.007069e-18)
(0.25655871 -0.00029096537 2.3770327e-18)
(0.25657276 -0.00039024488 6.6721264e-19)
(0.25654377 -0.00048175041 3.7310835e-19)
(0.25636039 -0.00055898445 9.6179609e-21)
(0.25570613 -0.00060536501 -1.6349764e-19)
(0.25355952 -0.00065441368 -4.7419996e-19)
(0.24574266 -0.00084724774 -3.921489e-19)
(0.21968686 0.00025718802 -6.2157243e-19)
(0.26021787 -7.3909995e-05 -1.5682193e-18)
(0.26022468 -0.00018059835 2.4291052e-19)
(0.26023383 -0.00027741913 1.2810247e-18)
(0.26021807 -0.00037159744 4.5569513e-19)
(0.26010153 -0.00045735776 -2.334804e-19)
(0.25968006 -0.00053044604 -1.5138512e-19)
(0.25840621 -0.00057093108 -2.5863351e-19)
(0.25452353 -0.00056554773 -4.9289731e-19)
(0.24186464 -0.00061987701 -5.685731e-19)
(0.20839343 1.1252425e-05 -4.9638641e-19)
(0.26340526 -6.8945982e-05 -7.8458963e-19)
(0.26340956 -0.00017058509 3.5290229e-19)
(0.26340597 -0.00026279228 1.3651875e-18)
(0.2633478 -0.00035138366 7.2515163e-19)
(0.26310913 -0.00042951136 -3.2589079e-19)
(0.26237282 -0.00049394992 -4.9242949e-19)
(0.26030373 -0.00052750989 -3.3180601e-19)
(0.25430846 -0.00049289929 -4.7649253e-19)
(0.23723183 -0.00045934261 -4.7109583e-19)
(0.19958843 -4.8876271e-05 -5.1717943e-19)
(0.26641628 -6.4388923e-05 -1.3929938e-18)
(0.26641555 -0.00015946867 1.8089835e-18)
(0.266392 -0.00024539849 1.4191191e-18)
(0.26627267 -0.00032748755 7.0132228e-19)
(0.26586989 -0.00039791736 9.2604701e-20)
(0.26472853 -0.00045250617 8.5502676e-20)
(0.26164541 -0.00047360859 -1.2200244e-19)
(0.25321247 -0.00041483802 -3.8574294e-19)
(0.23271016 -0.00033459293 -4.896643e-19)
(0.19329515 -5.0633025e-05 -4.7528878e-19)
(0.26927574 -6.086746e-05 2.075544e-19)
(0.26926716 -0.00015024315 7.9944759e-19)
(0.2692148 -0.00023070424 8.9317413e-19)
(0.26901237 -0.00030702713 7.0767558e-19)
(0.26839648 -0.00037049977 4.435254e-19)
(0.26673518 -0.00041493229 5.2816154e-19)
(0.26236789 -0.00041871857 -7.5398924e-20)
(0.25136279 -0.00033835059 -3.0372211e-19)
(0.22869802 -0.00023662951 -2.7279597e-19)
(0.18902129 -3.9494785e-05 -3.4550447e-19)
(0.27197991 -5.8057492e-05 3.28432e-18)
(0.27196007 -0.00014287124 1.5640987e-18)
(0.27186829 -0.00021894819 -6.8640597e-20)
(0.2715565 -0.00029030333 4.9117058e-19)
(0.27066608 -0.0003472897 2.2583494e-19)
(0.26833153 -0.0003806827 -1.0493818e-20)
(0.2623985 -0.00036437274 -2.4780125e-19)
(0.24902641 -0.00026852516 -2.1711899e-19)
(0.22536099 -0.00016272766 -1.8401477e-19)
(0.18616823 -2.8774277e-05 -3.0791231e-19)
(0.27455816 -5.5861815e-05 -1.7487886e-20)
(0.27452281 -0.00013703205 1.5281907e-18)
(0.27437848 -0.00020952008 3.0291829e-19)
(0.27392442 -0.00027640493 3.8138616e-19)
(0.27267857 -0.00032682078 2.4371182e-19)
(0.26947687 -0.00034738412 1.0242951e-19)
(0.26178468 -0.0003109266 -6.4440935e-21)
(0.24657381 -0.00020816851 -1.6687465e-19)
(0.22271519 -0.00011050079 -3.1048544e-19)
(0.18425836 -2.0836324e-05 -2.5099364e-19)
(0.27704027 -5.4085727e-05 4.5409269e-19)
(0.27698407 -0.00013225436 3.8540274e-19)
(0.27677058 -0.00020162574 1.188965e-18)
(0.2761317 -0.00026417288 6.8586047e-19)
(0.27442313 -0.00030720577 4.0823113e-19)
(0.27014172 -0.00031294756 3.0349658e-19)
(0.26068999 -0.00025925769 2.6413529e-20)
(0.24429833 -0.00015836428 -1.9743737e-19)
(0.22067582 -7.5408302e-05 -4.260935e-21)
(0.18296197 -1.5153213e-05 -9.7863339e-20)
(0.27944341 -5.255576e-05 2.4654274e-18)
(0.27935955 -0.00012814137 1.7127517e-18)
(0.27905543 -0.00019460755 7.5043712e-19)
(0.27817575 -0.00025259239 5.8131903e-19)
(0.27586796 -0.0002867345 3.0083861e-19)
(0.27032643 -0.00027659205 4.4390502e-20)
(0.25933501 -0.00021094039 -2.9971124e-19)
(0.24234215 -0.00011891231 -2.6403167e-19)
(0.21912382 -5.2172036e-05 -1.9563156e-19)
(0.18206598 -1.0945769e-05 -2.5013337e-19)
(0.28177654 -5.116667e-05 1.180341e-18)
(0.28165619 -0.00012441974 6.0358011e-19)
(0.2812333 -0.00018797303 3.5674983e-19)
(0.28003901 -0.0002407746 8.2762093e-19)
(0.27697397 -0.00026417646 1.4467814e-19)
(0.27008762 -0.00023880416 -1.8708968e-19)
(0.25792268 -0.00016762347 -1.2954155e-19)
(0.2407318 -8.8481668e-05 -6.0320413e-20)
(0.21795021 -3.6446037e-05 -3.1235723e-19)
(0.18143936 -7.6994911e-06 -2.2014968e-19)
(0.28404476 -4.9854761e-05 2.3671997e-18)
(0.28387625 -0.00012089422 8.7450465e-19)
(0.28329739 -0.00018132912 1.3239351e-19)
(0.28169344 -0.00022787712 6.8834557e-19)
(0.27771472 -0.00023897383 1.5830922e-19)
(0.26953509 -0.00020087558 -1.0031893e-19)
(0.25659138 -0.00013036527 6.8678988e-20)
(0.23943781 -6.5171466e-05 -6.712013e-20)
(0.21706902 -2.5325551e-05 -2.1548579e-19)
(0.18100323 -5.1221293e-06 -1.7674293e-19)
(0.28625049 -4.8572081e-05 1.9000149e-18)
(0.28601827 -0.00011740092 8.9875137e-19)
(0.28523426 -0.00017430192 -5.8729279e-20)
(0.28310493 -0.00021314191 6.8163708e-19)
(0.27809437 -0.00021129061 1.7195361e-19)
(0.26879941 -0.0001643982 1.1974902e-19)
(0.25541093 -9.9329386e-05 3.7905804e-20)
(0.238414 -4.7155618e-05 -1.8647117e-19)
(0.21641538 -1.7078743e-05 -1.330912e-19)
(0.18070892 -3.0434748e-06 -1.5171225e-19)
(0.28839355 -4.7270959e-05 7.3800278e-19)
(0.28807682 -0.00011377576 1.3558386e-18)
(0.28702341 -0.00016645983 3.9360489e-19)
(0.28424077 -0.00019602598 6.6709353e-19)
(0.27815548 -0.00018188534 2.0104868e-19)
(0.267996 -0.00013078978 9.7723802e-20)
(0.25440307 -7.3937086e-05 -3.5005911e-19)
(0.23761477 -3.3003637e-05 -2.4975572e-19)
(0.21594074 -1.0715699e-05 -1.3066948e-19)
(0.18052449 -1.3525662e-06 -2.0417991e-19)
(0.29047097 -4.5891452e-05 1.1912948e-18)
(0.29004195 -0.0001098291 3.250938e-18)
(0.28863779 -0.00015729305 1.0073514e-18)
(0.28508023 -0.00017633851 2.5086735e-20)
(0.27797082 -0.00015188722 1.3618602e-19)
(0.26720625 -0.00010094682 4.4477948e-20)
(0.25356401 -5.3258817e-05 -2.8481864e-19)
(0.23700054 -2.1698539e-05 -1.6745182e-19)
(0.21560862 -5.6594152e-06 -2.3068537e-19)
(0.18042759 3.41471e-08 -9.3029738e-20)
(0.29247637 -4.4351544e-05 8.0471865e-19)
(0.29189831 -0.00010531339 4.0229024e-19)
(0.2900463 -0.00014628206 8.6956803e-19)
(0.2856247 -0.00015430656 9.2425922e-19)
(0.27762408 -0.00012253959 6.1453776e-19)
(0.26647732 -7.5148175e-05 4.1476253e-19)
(0.25287923 -3.6358143e-05 1.8503866e-19)
(0.23653862 -1.2544691e-05 9.2029103e-20)
(0.21539111 -1.5278033e-06 -1.4322383e-20)
(0.18040204 1.2057167e-06 9.4992187e-20)
(0.294399 -4.254266e-05 3.5540058e-19)
(0.2936244 -9.9894613e-05 8.6577974e-19)
(0.29121909 -0.00013303044 4.3743124e-19)
(0.28590172 -0.00013054556 1.017132e-18)
(0.27719085 -9.4944363e-05 6.3857871e-19)
(0.26583134 -5.3198645e-05 1.0040244e-19)
(0.25233097 -2.2453139e-05 2.8156918e-19)
(0.23620235 -5.0207315e-06 1.6571735e-19)
(0.2152645 1.8972028e-06 8.6730721e-20)
(0.18043772 2.1934622e-06 -1.0998714e-19)
(0.29622248 -4.0322275e-05 8.4981413e-19)
(0.29519258 -9.3155428e-05 6.4062181e-19)
(0.29213503 -0.00011739323 3.1055803e-19)
(0.28595988 -0.00010594379 9.7856337e-19)
(0.27672821 -6.9857565e-05 7.2041082e-20)
(0.26527516 -3.4649653e-05 4.5824956e-20)
(0.2519011 -1.0911058e-05 1.6596769e-19)
(0.23596807 1.2316277e-06 9.9573917e-20)
(0.21521691 4.70576e-06 5.2721327e-20)
(0.18052213 2.988457e-06 -1.8432207e-20)
(0.29792335 -3.7501307e-05 1.395462e-18)
(0.29657068 -8.4660488e-05 7.3431242e-19)
(0.29278918 -9.9552359e-05 2.0899392e-19)
(0.28585701 -8.1496414e-05 1.7003028e-19)
(0.27627357 -4.7619568e-05 1.5810988e-19)
(0.26480714 -1.898401e-05 4.2469076e-19)
(0.25157194 -1.2538783e-06 -2.9734801e-19)
(0.23582161 6.4206704e-06 -8.9751337e-20)
(0.21523437 6.9891481e-06 -2.9388345e-20)
(0.18064612 3.6202875e-06 -1.6205723e-19)
(0.29946983 -3.3841626e-05 -1.5485499e-18)
(0.29772604 -7.4080277e-05 1.2031529e-18)
(0.29319629 -8.0019837e-05 -3.4354086e-19)
(0.28564803 -5.8125976e-05 -1.4934572e-18)
(0.27584861 -2.8225228e-05 -2.2404267e-19)
(0.2644212 -5.6901892e-06 -5.9289647e-19)
(0.25132937 6.8564153e-06 -3.1693795e-19)
(0.23575038 1.0705065e-05 -1.3598219e-19)
(0.21530525 8.8452143e-06 -1.2879702e-19)
(0.18080244 4.1235366e-06 -5.7312396e-20)
(0.30082185 -2.9094869e-05 -8.5065554e-19)
(0.29863175 -6.1332235e-05 9.4881791e-19)
(0.29338823 -5.956719e-05 -9.0236353e-20)
(0.28537718 -3.6522607e-05 -7.6794283e-19)
(0.27546383 -1.1417214e-05 -1.0739197e-19)
(0.26410765 5.6163836e-06 -2.9166356e-19)
(0.2511654 1.3623268e-05 -2.1787448e-19)
(0.23574182 1.4219665e-05 -1.3886667e-19)
(0.21542012 1.0354957e-05 -3.5485451e-20)
(0.1809852 4.5263614e-06 1.9100874e-19)
(0.30193375 -2.3108778e-05 2.9211279e-18)
(0.29927338 -4.6684821e-05 1.0984271e-18)
(0.29340603 -3.9091862e-05 -4.3386176e-20)
(0.28507547 -1.7047994e-05 2.7058322e-19)
(0.27512088 3.0832704e-06 1.2368392e-18)
(0.26386445 1.5139636e-05 8.2740541e-19)
(0.25106782 1.9209235e-05 1.6683639e-19)
(0.2357854 1.7094272e-05 -8.7581243e-21)
(0.2155712 1.1580624e-05 -3.1559582e-20)
(0.18118948 4.8477368e-06 1.1872511e-20)
(0.30276111 -1.5977014e-05 -1.2248223e-18)
(0.29965288 -3.0773389e-05 -2.2345995e-19)
(0.29329056 -1.9436698e-05 -4.487689e-19)
(0.28476121 1.6711414e-07 -7.9066329e-19)
(0.27482456 1.5439913e-05 1.7632136e-19)
(0.26368339 2.3070644e-05 -1.8466327e-19)
(0.25102649 2.3801544e-05 3.6718111e-19)
(0.2358724 1.9433647e-05 1.0981625e-19)
(0.21575199 1.2564539e-05 3.4996873e-20)
(0.18141107 5.0989589e-06 7.1057892e-20)
(0.30327134 -8.1279617e-06 7.6432563e-19)
(0.29978735 -1.4486376e-05 2.1061922e-18)
(0.29307478 -1.3058949e-06 -3.9753213e-19)
(0.28444919 1.5038914e-05 -6.2108284e-19)
(0.27457433 2.5803381e-05 -8.9321193e-19)
(0.26355616 2.9613027e-05 -5.7377323e-19)
(0.25103262 2.7544077e-05 -3.9120056e-19)
(0.23599543 2.1310795e-05 -1.4205672e-19)
(0.21595697 1.3335611e-05 9.4837473e-21)
(0.18164628 5.2873328e-06 2.2023835e-20)
(0.30345397 -2.423394e-07 -3.1748196e-19)
(0.29970264 1.1328369e-06 1.1583626e-18)
(0.29278638 1.4662184e-05 -1.1540577e-18)
(0.28414893 2.7525657e-05 -6.1021052e-19)
(0.2743656 3.4336692e-05 -7.8210835e-19)
(0.26347497 3.4929916e-05 -6.2175423e-19)
(0.25107851 3.0536096e-05 -3.8243837e-19)
(0.2361481 2.2774114e-05 -2.0224181e-19)
(0.21618129 1.391247e-05 -5.7658425e-20)
(0.18189179 5.4170971e-06 1.7821406e-20)
(0.30332513 6.8810966e-06 -3.0354324e-18)
(0.29943296 1.4985084e-05 -2.5827629e-18)
(0.29244689 2.7994311e-05 -1.8824062e-18)
(0.28386232 3.7677165e-05 -2.3756563e-18)
(0.27419303 4.1187798e-05 -1.3408295e-18)
(0.26343257 3.9128686e-05 -8.7241863e-19)
(0.2511573 3.2836838e-05 -7.1312715e-20)
(0.23632475 2.3849769e-05 -1.0564801e-19)
(0.21642057 1.4303145e-05 3.140733e-20)
(0.18214445 5.4890398e-06 1.1589738e-19)
(0.30293051 1.2607039e-05 2.0267191e-18)
(0.29901531 2.6253141e-05 -1.3600458e-18)
(0.29206923 3.8508436e-05 -1.0331282e-18)
(0.28358876 4.5590518e-05 2.7765694e-19)
(0.27405096 4.6452947e-05 6.8548129e-19)
(0.2634222 4.2268054e-05 5.8076561e-19)
(0.25126272 3.4473467e-05 1.260162e-19)
(0.23652016 2.454483e-05 1.4513064e-20)
(0.21667066 1.4505777e-05 1.2361029e-21)
(0.18240108 5.5005544e-06 -6.806744e-21)
(0.30233163 1.6686055e-05 -4.1281028e-19)
(0.29848532 3.460082e-05 4.2937609e-20)
(0.29166293 4.6231594e-05 1.2588202e-20)
(0.28332652 5.1360576e-05 8.9764985e-19)
(0.27393381 5.0195572e-05 5.5695691e-19)
(0.26343754 4.4379042e-05 9.8428192e-20)
(0.25138895 3.5453426e-05 -4.6573367e-20)
(0.23672935 2.4854148e-05 -5.6635858e-21)
(0.2169274 1.4512246e-05 -8.2114855e-20)
(0.1826584 5.4469656e-06 -1.751557e-20)
(0.30159324 1.9181618e-05 2.2664967e-18)
(0.29787658 4.0083646e-05 2.4911409e-18)
(0.29123635 5.1326462e-05 5.5485052e-19)
(0.28307383 5.5102241e-05 -7.9927842e-20)
(0.27383648 5.2477241e-05 -1.096533e-18)
(0.26347281 4.5486146e-05 -4.3786235e-19)
(0.25153052 3.5778465e-05 -4.7117195e-19)
(0.2369475 2.4769496e-05 -1.4540945e-19)
(0.2171866 1.4313394e-05 -1.7461913e-19)
(0.18291289 5.3234659e-06 -1.2185525e-19)
(0.30077407 2.0343283e-05 6.4123591e-19)
(0.29721994 4.3028535e-05 1.530283e-18)
(0.29079789 5.4061732e-05 6.6172703e-19)
(0.28282962 5.6973134e-05 -4.3338694e-19)
(0.27375459 5.3380532e-05 -6.8388424e-19)
(0.26352281 4.562548e-05 -7.270919e-20)
(0.25168237 3.5458311e-05 -1.9954782e-20)
(0.23716991 2.4288867e-05 -7.1147718e-20)
(0.21744401 1.3904386e-05 -1.2721739e-19)
(0.18316091 5.1271137e-06 -1.1669793e-19)
(0.29992225 2.048325e-05 -4.4375309e-18)
(0.29654263 4.389774e-05 -3.0601688e-18)
(0.29035627 5.4778897e-05 -1.1896572e-18)
(0.28259385 5.7179666e-05 -2.2829257e-18)
(0.27368475 5.3021834e-05 -5.7939802e-19)
(0.26358307 4.4857753e-05 -7.1322264e-19)
(0.25183983 3.452139e-05 1.0920129e-19)
(0.2373921 2.3424018e-05 -1.1585013e-20)
(0.21769543 1.3289191e-05 -7.5599998e-20)
(0.18339877 4.8586121e-06 2.1140285e-20)
(0.29907428 1.9896565e-05 2.7161585e-18)
(0.2958675 4.3178706e-05 -1.0295937e-18)
(0.28992024 5.3853993e-05 -1.0556422e-18)
(0.28236752 5.5968029e-05 6.2916988e-19)
(0.27362457 5.1552951e-05 1.1897531e-18)
(0.2636499 4.3273348e-05 2.7125461e-19)
(0.25199879 3.3020019e-05 1.1708116e-20)
(0.2376099 2.2204349e-05 5.5985873e-20)
(0.21793685 1.2482882e-05 6.1850245e-20)
(0.183623 4.5232072e-06 5.6016295e-21)
(0.2982562 1.8826419e-05 5.7071313e-19)
(0.29521267 4.1316616e-05 2.9903478e-19)
(0.28949801 5.1661786e-05 -1.1199416e-19)
(0.28215238 5.3606373e-05 5.4324625e-19)
(0.27357257 4.9153714e-05 1.6265736e-19)
(0.26372036 4.0989937e-05 3.4746841e-19)
(0.25215571 3.1029945e-05 2.7852763e-20)
(0.23781958 2.0676894e-05 9.7597262e-20)
(0.21816469 1.151161e-05 1.1186935e-19)
(0.18383048 4.1306466e-06 9.4194124e-20)
(0.29748546 1.7458437e-05 1.8474158e-18)
(0.2945917 3.8684603e-05 3.3824989e-18)
(0.28909671 4.8548881e-05 1.3954587e-18)
(0.28195055 5.0365114e-05 3.0125837e-19)
(0.27352799 4.6019672e-05 -7.2560256e-19)
(0.26379223 3.814494e-05 -2.3429675e-19)
(0.25230769 2.8645574e-05 -2.3770917e-19)
(0.238018 1.8903226e-05 -4.679285e-20)
(0.21837591 1.0410755e-05 -2.6011012e-21)
(0.18401872 3.6944125e-06 3.845417e-21)
(0.29677292 1.5927993e-05 1.9914066e-18)
(0.29401397 3.557834e-05 1.9451056e-18)
(0.2887221 4.4817735e-05 5.9893408e-19)
(0.28176412 4.6500002e-05 1.9904387e-20)
(0.27349054 4.2348499e-05 -2.3881238e-19)
(0.26386388 3.4885269e-05 -1.9880733e-19)
(0.25245241 2.5972397e-05 -1.6835891e-19)
(0.23820264 1.6954115e-05 -1.7792473e-19)
(0.21856816 9.2215814e-06 -1.8470679e-20)
(0.18418593 3.2302696e-06 -5.7905528e-20)
(0.29612447 1.4331133e-05 -3.0977671e-18)
(0.29348539 3.2223269e-05 -2.2291141e-18)
(0.28837833 4.0720445e-05 -9.9652401e-19)
(0.28159489 4.2240413e-05 -2.3334577e-18)
(0.27346016 3.8328176e-05 -1.3486382e-18)
(0.26393413 3.1357111e-05 -6.2435515e-19)
(0.25258815 2.3118795e-05 -1.3389918e-20)
(0.23837165 1.4903548e-05 -1.3703641e-19)
(0.21873987 7.9875406e-06 -3.9847306e-20)
(0.1843311 2.754753e-06 9.1475994e-21)
(0.29554244 1.2734623e-05 3.0977004e-18)
(0.29300902 2.8786234e-05 1.3763829e-18)
(0.28806805 3.6459188e-05 1.0065726e-18)
(0.28144412 3.7782808e-05 1.3058532e-18)
(0.27343684 3.4128113e-05 1.3699986e-18)
(0.26400214 2.7697115e-05 4.3611821e-19)
(0.25271369 2.0188425e-05 1.5858821e-19)
(0.23852383 1.2822965e-05 1.3341986e-20)
(0.21889021 6.7506334e-06 -7.7122425e-20)
(0.18445403 2.2837059e-06 -5.2544669e-20)
(0.29502659 1.1183858e-05 1.2926838e-18)
(0.29258573 2.538735e-05 3.6451311e-19)
(0.28779254 3.2190434e-05 5.88677e-19)
(0.2813125 3.3288414e-05 1.171063e-18)
(0.27342049 2.9893528e-05 1.1659407e-18)
(0.26406732 2.4025812e-05 6.0532386e-19)
(0.25282826 1.7274081e-05 2.6300315e-19)
(0.23865858 1.0776446e-05 1.4593035e-19)
(0.21901908 5.5483043e-06 3.1561696e-20)
(0.18455521 1.8310342e-06 6.0568822e-20)
(0.29457491 9.7088374e-06 1.2751659e-18)
(0.2922147 2.2110558e-05 3.0936409e-18)
(0.28755187 2.8031064e-05 1.0791495e-18)
(0.28120011 2.8884183e-05 6.9585401e-19)
(0.27341089 2.5743094e-05 -1.3239543e-19)
(0.2641292 2.0443848e-05 7.2928782e-20)
(0.25293144 1.4453813e-05 2.8560147e-20)
(0.23877584 8.8175831e-06 7.3678688e-20)
(0.21912698 4.4114735e-06 1.4064127e-19)
(0.18463575 1.4080286e-06 1.9141458e-20)
(0.2941842 8.3283794e-06 4.6536692e-18)
(0.29189392 1.9012103e-05 4.6001097e-18)
(0.28734518 2.4064754e-05 2.5482381e-18)
(0.28110652 2.4665539e-05 2.7371514e-18)
(0.27340762 2.1768834e-05 2.2028081e-18)
(0.26418744 1.7030355e-05 1.2714916e-18)
(0.25302315 1.1788861e-05 5.7108575e-19)
(0.23887599 6.9876991e-06 3.4225233e-19)
(0.21921494 3.3633259e-06 1.8453734e-19)
(0.1846972 1.0228832e-06 -7.4236515e-20)
(0.29385047 7.0532949e-06 3.4966946e-18)
(0.29162055 1.6127445e-05 1.4588016e-18)
(0.2871709 2.034829e-05 3.3787031e-18)
(0.28103083 2.0700467e-05 2.5534616e-18)
(0.27341014 1.8038067e-05 1.8278087e-18)
(0.26424178 1.3843563e-05 2.0120991e-18)
(0.25310353 9.323657e-06 1.2217606e-18)
(0.23895977 5.3157529e-06 6.3371265e-19)
(0.21928436 2.4192904e-06 3.9821013e-19)
(0.18474144 6.8076421e-07 8.747324e-20)
(0.29356933 5.8886666e-06 1.1970649e-18)
(0.29139122 1.3476615e-05 1.1678278e-18)
(0.28702693 1.6917224e-05 2.5649367e-18)
(0.28097181 1.7033972e-05 3.1403595e-18)
(0.27341775 1.4596415e-05 2.5044356e-18)
(0.26429201 1.0922726e-05 1.8194605e-18)
(0.25317294 7.0871384e-06 1.1233558e-18)
(0.23902819 3.8192927e-06 6.5672886e-19)
(0.21933689 1.5876818e-06 4.7974502e-19)
(0.18477049 3.8408351e-07 2.414521e-19)
(0.29333615 4.8355519e-06 6.7526904e-19)
(0.29120223 1.1068449e-05 2.2435059e-18)
(0.28691085 1.3790887e-05 4.1152305e-18)
(0.28092802 1.3692678e-05 4.5896646e-18)
(0.27342972 1.1471531e-05 3.8443366e-18)
(0.26433801 8.2910953e-06 1.7456077e-18)
(0.2532319 5.095163e-06 1.3755044e-18)
(0.23908247 2.506404e-06 9.435296e-19)
(0.21937436 8.7110689e-07 7.100052e-19)
(0.18478644 1.3310256e-07 5.5529537e-19)
(0.29314625 3.8922287e-06 3.1602707e-18)
(0.29104975 8.9037805e-06 3.3287009e-18)
(0.28682002 1.0976456e-05 3.33527e-18)
(0.28089785 1.0688857e-05 3.6333899e-18)
(0.27344524 8.676621e-06 3.1476168e-18)
(0.26437968 5.9588369e-06 2.1577065e-18)
(0.25328104 3.3526952e-06 1.707722e-18)
(0.23912392 1.3770625e-06 1.2399676e-18)
(0.21939863 2.7276908e-07 8.5607087e-19)
(0.18479138 -6.9572852e-08 6.289744e-19)
(0.29299503 3.0549171e-06 1.4472992e-19)
(0.29092995 6.9774374e-06 1.9679955e-18)
(0.28675174 8.4716014e-06 7.48732e-19)
(0.28087962 8.0230848e-06 1.5784949e-18)
(0.2734635 6.2126818e-06 2.2986027e-18)
(0.26441701 3.9248509e-06 2.2985209e-18)
(0.25332108 1.8561471e-06 1.7053744e-18)
(0.23915392 4.3061208e-07 1.314599e-18)
(0.21941123 -2.1255125e-07 8.4613823e-19)
(0.18478765 -2.2812184e-07 6.1400614e-19)
(0.29287806 2.3185066e-06 2.734437e-19)
(0.29083905 5.28019e-06 2.0902454e-18)
(0.2867033 6.2673238e-06 3.100521e-18)
(0.28087166 5.6875165e-06 1.5644776e-18)
(0.27348374 4.0720184e-06 8.852398e-19)
(0.26445003 2.1811037e-06 2.2576639e-18)
(0.25335275 6.0092833e-07 1.6903441e-18)
(0.23917356 -3.4190634e-07 1.3866176e-18)
(0.21941461 -6.0317044e-07 1.1070543e-18)
(0.18477678 -3.5362273e-07 7.3763094e-19)
(0.29279111 1.6771571e-06 2.5630528e-18)
(0.29077345 3.8003927e-06 2.0209117e-18)
(0.28667209 4.3504534e-06 2.2086855e-18)
(0.28087235 3.6690972e-06 1.7658129e-18)
(0.27350523 2.242487e-06 1.5914761e-18)
(0.26447878 7.1903355e-07 1.5734876e-18)
(0.2533766 -4.2681219e-07 1.6598228e-18)
(0.23918484 -9.6312374e-07 1.4288476e-18)
(0.21941035 -9.1269185e-07 1.2007416e-18)
(0.18476025 -4.5079818e-07 8.3834082e-19)
(0.2927302 1.1245614e-06 2.6706178e-18)
(0.29072973 2.5247815e-06 2.8720856e-18)
(0.28665557 2.7050419e-06 3.0615892e-18)
(0.28088013 1.9519961e-06 4.067818e-18)
(0.27352725 7.1147002e-07 3.2113677e-18)
(0.26450318 -4.795173e-07 1.5529417e-18)
(0.253394 -1.2543517e-06 1.5755911e-18)
(0.23918903 -1.4519602e-06 1.3434977e-18)
(0.21939991 -1.1474536e-06 1.2401236e-18)
(0.18473942 -5.2126377e-07 1.0451625e-18)
(0.29269161 6.542143e-07 1.2666221e-18)
(0.29070465 1.4394518e-06 1.5220904e-18)
(0.28665138 1.314895e-06 2.0305594e-18)
(0.28089347 5.2082151e-07 2.6609971e-18)
(0.27354904 -5.4298708e-07 2.8685387e-18)
(0.26452391 -1.4454444e-06 2.5292294e-18)
(0.25340577 -1.9054695e-06 1.753295e-18)
(0.2391873 -1.8209017e-06 1.5008276e-18)
(0.21938463 -1.3140213e-06 1.2235357e-18)
(0.18471556 -5.6739305e-07 9.7559586e-19)
(0.2926719 2.5999386e-07 -4.4665091e-19)
(0.29069521 5.3141962e-07 3.0200501e-19)
(0.28665722 1.6281146e-07 -8.6092381e-20)
(0.28091095 -6.4982009e-07 5.4186579e-19)
(0.27357051 -1.5543199e-06 2.2209632e-18)
(0.26454119 -2.2062333e-06 2.2441295e-18)
(0.25341265 -2.3978375e-06 1.8993119e-18)
(0.23918074 -2.0825366e-06 1.742826e-18)
(0.21936571 -1.4205243e-06 1.2398575e-18)
(0.18468976 -5.9232449e-07 9.1598459e-19)
(0.29266787 -6.4659139e-08 1.561544e-18)
(0.29069861 -2.1527485e-07 2.4151204e-18)
(0.28667109 -7.7648986e-07 3.4621176e-18)
(0.28093166 -1.592874e-06 1.8077938e-18)
(0.27359127 -2.3513049e-06 1.4193243e-18)
(0.26455526 -2.7832498e-06 2.1041489e-18)
(0.25341533 -2.7491958e-06 1.9209769e-18)
(0.23917035 -2.2507101e-06 1.7242077e-18)
(0.21934424 -1.4757869e-06 1.561594e-18)
(0.18466296 -5.9944054e-07 1.1307958e-18)
(0.29267664 -3.2783065e-07 3.1227797e-18)
(0.2907124 -8.2001946e-07 2.3121209e-18)
(0.28669133 -1.5297262e-06 1.8524588e-18)
(0.28095459 -2.3341204e-06 1.8777278e-18)
(0.27361099 -2.9565392e-06 1.5862407e-18)
(0.26456637 -3.1976433e-06 1.8847464e-18)
(0.25341451 -2.9780863e-06 1.8268025e-18)
(0.23915703 -2.3394347e-06 1.6032868e-18)
(0.21932114 -1.4884549e-06 1.5087017e-18)
(0.18463594 -5.9198416e-07 1.2731869e-18)
(0.29269572 -5.3702802e-07 2.1219635e-18)
(0.29073445 -1.2995056e-06 1.8625777e-18)
(0.28671638 -2.1173992e-06 2.1521328e-18)
(0.28097886 -2.8955287e-06 1.9273148e-18)
(0.27362943 -3.3925625e-06 1.3525986e-18)
(0.26457479 -3.4708549e-06 1.3960754e-18)
(0.2534108 -3.1027676e-06 1.7330829e-18)
(0.23914159 -2.3621538e-06 1.7280502e-18)
(0.2192972 -1.4667229e-06 1.6073727e-18)
(0.18460933 -5.7303553e-07 1.3615495e-18)
(0.29272288 -6.9821103e-07 1.395557e-18)
(0.29076285 -1.6675928e-06 1.9855056e-18)
(0.28674489 -2.5581085e-06 2.24574e-18)
(0.28100374 -3.2984777e-06 1.5054483e-18)
(0.27364642 -3.6814021e-06 2.8720739e-19)
(0.26458082 -3.6233634e-06 1.3001055e-18)
(0.25340478 -3.1402712e-06 1.6378807e-18)
(0.23912472 -2.3311409e-06 1.6364993e-18)
(0.21927308 -1.4179218e-06 1.5129303e-18)
(0.18458362 -5.4530972e-07 1.2299123e-18)
(0.29275615 -8.1701254e-07 9.1703157e-19)
(0.29079591 -1.9373566e-06 1.7613368e-18)
(0.28677566 -2.8696843e-06 3.3031836e-18)
(0.28102858 -3.5634959e-06 1.9532033e-18)
(0.27366185 -3.8439263e-06 1.6867946e-18)
(0.26458474 -3.6742188e-06 5.4852874e-19)
(0.253397 -3.1061266e-06 1.0643366e-18)
(0.23910704 -2.2573485e-06 1.2746388e-18)
(0.21924932 -1.348471e-06 1.1646967e-18)
(0.18455917 -5.111951e-07 1.0833805e-18)
(0.29279378 -8.9870281e-07 9.6813654e-19)
(0.29083213 -2.121104e-06 2.1317042e-18)
(0.28680767 -3.0689807e-06 4.8731262e-18)
(0.2810529 -3.7098758e-06 2.1796764e-18)
(0.27367567 -3.8994861e-06 2.0704879e-18)
(0.26458683 -3.6407742e-06 1.5492366e-18)
(0.25338791 -3.0141762e-06 1.390319e-18)
(0.23908905 -2.1502901e-06 1.4673644e-18)
(0.21922635 -1.2637787e-06 1.4850844e-18)
(0.18453627 -4.7267633e-07 1.1840998e-18)
(0.29283426 -9.4823543e-07 5.5899349e-19)
(0.29087025 -2.2304075e-06 2.0041207e-18)
(0.28684005 -3.1718228e-06 -6.7253946e-19)
(0.28107626 -3.7555988e-06 1.4035302e-18)
(0.27368788 -3.8658925e-06 2.2654683e-18)
(0.26458737 -3.5387322e-06 2.4287688e-18)
(0.25337794 -2.8766825e-06 1.8146149e-18)
(0.23907118 -2.0181842e-06 1.6273316e-18)
(0.21920449 -1.1683825e-06 1.4778088e-18)
(0.18451511 -4.3140675e-07 1.1642346e-18)
(0.29287628 -9.7025014e-07 1.5827023e-18)
(0.29090917 -2.2761116e-06 2.2689582e-18)
(0.28687208 -3.1929952e-06 6.8678821e-19)
(0.28109837 -3.7173394e-06 1.9770161e-18)
(0.27369849 -3.7594683e-06 2.0655062e-18)
(0.26458661 -3.3822621e-06 2.048742e-18)
(0.25336745 -2.704502e-06 1.8823864e-18)
(0.23905378 -1.8681326e-06 1.6536736e-18)
(0.219184 -1.0660726e-06 1.5560914e-18)
(0.18449581 -3.8872553e-07 1.2169956e-18)
(0.29291875 -9.6910395e-07 2.3637865e-18)
(0.29094796 -2.2683796e-06 2.0406853e-18)
(0.28690317 -3.1462983e-06 2.1736771e-18)
(0.28111898 -3.6105528e-06 1.3817085e-18)
(0.27370757 -3.5951907e-06 5.6017275e-19)
(0.2645848 -3.1842006e-06 1.4589266e-18)
(0.25335673 -2.5073267e-06 1.8297253e-18)
(0.23903712 -1.7063775e-06 1.7191058e-18)
(0.21916506 -9.6011671e-07 1.6107689e-18)
(0.18447843 -3.4575039e-07 1.3185634e-18)
(0.29296073 -9.4883815e-07 1.7483952e-19)
(0.29098588 -2.2166534e-06 2.9810659e-18)
(0.28693285 -3.0445103e-06 4.0070919e-18)
(0.28113793 -3.4494468e-06 1.8416202e-18)
(0.27371519 -3.3866883e-06 2.022987e-18)
(0.26458216 -2.9560884e-06 9.8195605e-19)
(0.25334606 -2.2937589e-06 1.3444395e-18)
(0.23902142 -1.5383828e-06 1.4783613e-18)
(0.21914778 -8.5332093e-07 1.279497e-18)
(0.18446299 -3.0338517e-07 1.2302382e-18)
(0.29300148 -9.1320171e-07 4.9855349e-19)
(0.29102231 -2.1296726e-06 2.9420998e-18)
(0.28696077 -2.8993957e-06 4.6725298e-18)
(0.28115513 -3.246992e-06 2.7843714e-18)
(0.27372146 -3.1462714e-06 2.1177522e-18)
(0.26457888 -2.7082311e-06 2.1367779e-18)
(0.25333564 -2.0713966e-06 1.7570101e-18)
(0.23900682 -1.3689389e-06 1.6410949e-18)
(0.21913222 -7.4815284e-07 1.6097301e-18)
(0.18444946 -2.6241069e-07 1.3185807e-18)
(0.29304039 -8.6558215e-07 8.0294047e-19)
(0.29105678 -2.0153552e-06 2.2340412e-19)
(0.28698667 -2.7215563e-06 -5.2613361e-19)
(0.28117053 -3.0147523e-06 2.1147584e-18)
(0.27372649 -2.8847569e-06 2.0208986e-18)
(0.26457515 -2.4495286e-06 2.5277627e-18)
(0.25332565 -1.8466815e-06 2.1934415e-18)
(0.23899344 -1.2020386e-06 1.8935179e-18)
(0.21911839 -6.466439e-07 1.6165558e-18)
(0.18443777 -2.2344368e-07 1.3418309e-18)
(0.29307701 -8.0901575e-07 1.2829156e-18)
(0.29108894 -1.8807808e-06 5.6032353e-19)
(0.28701039 -2.5203858e-06 8.0199497e-19)
(0.28118414 -2.7628296e-06 2.103166e-18)
(0.27373039 -2.6114185e-06 2.2317404e-18)
(0.26457113 -2.1874398e-06 2.3299396e-18)
(0.2533162 -1.6248721e-06 2.0791445e-18)
(0.23898131 -1.0408489e-06 1.7696193e-18)
(0.21910626 -5.5037053e-07 1.5680349e-18)
(0.18442782 -1.8696115e-07 1.3194309e-18)
(0.29311101 -7.4616801e-07 2.2103053e-18)
(0.29111856 -1.7321501e-06 1.8235369e-18)
(0.28703183 -2.3040182e-06 6.5045278e-19)
(0.281196 -2.499817e-06 1.1570897e-18)
(0.27373328 -2.3339548e-06 6.0711713e-19)
(0.26456695 -1.9279643e-06 1.4955535e-18)
(0.25330741 -1.4100297e-06 1.6361525e-18)
(0.23897048 -8.8769293e-07 1.6571809e-18)
(0.21909576 -4.6042402e-07 1.6291034e-18)
(0.1844195 -1.5329047e-07 1.3601657e-18)
(0.29314216 -6.7934e-07 1.1304204e-18)
(0.29114549 -1.5748006e-06 3.2032993e-18)
(0.28705096 -2.0793611e-06 2.7128393e-18)
(0.28120619 -2.2328592e-06 1.636258e-18)
(0.27373531 -2.0585807e-06 2.3077778e-18)
(0.26456273 -1.6757506e-06 8.6989827e-19)
(0.25329933 -1.2051181e-06 1.1733255e-18)
(0.23896092 -7.4411114e-07 1.4101717e-18)
(0.21908683 -3.7741866e-07 1.2990647e-18)
(0.18441269 -1.2259645e-07 1.1654523e-18)
(0.29317035 -6.105213e-07 2.1169459e-18)
(0.29116965 -1.4133043e-06 2.6346068e-18)
(0.28706781 -1.8522364e-06 4.5042627e-18)
(0.28121479 -1.9678513e-06 2.7174751e-18)
(0.27373657 -1.7902765e-06 2.2225483e-18)
(0.26455857 -1.434372e-06 1.6056629e-18)
(0.253292 -1.0122712e-06 1.5419217e-18)
(0.2389526 -6.1108822e-07 1.5203867e-18)
(0.21907935 -3.0165274e-07 1.588436e-18)
(0.18440724 -9.4945023e-08 1.2284135e-18)
(0.29319551 -5.4139437e-07 9.0414042e-19)
(0.29119105 -1.2515204e-06 1.5284233e-18)
(0.28708243 -1.627494e-06 -1.3045218e-19)
(0.28122192 -1.7096053e-06 2.2215941e-18)
(0.27373718 -1.5329898e-06 1.9969514e-18)
(0.26455453 -1.2065393e-06 2.3243513e-18)
(0.25328544 -8.3299124e-07 2.0024059e-18)
(0.23894548 -4.892012e-07 1.8587383e-18)
(0.21907322 -2.3318293e-07 1.5499047e-18)
(0.18440303 -7.0292364e-08 1.2690615e-18)
(0.29321767 -4.7339495e-07 2.6108489e-19)
(0.29120973 -1.0927128e-06 1.5617237e-18)
(0.28709492 -1.409178e-06 1.280955e-18)
(0.28122768 -1.4620623e-06 2.0299543e-18)
(0.27373724 -1.2898831e-06 2.6810211e-18)
(0.26455069 -9.9435938e-07 2.3604726e-18)
(0.25327964 -6.6838702e-07 2.1199895e-18)
(0.23893948 -3.7882932e-07 1.8827643e-18)
(0.21906833 -1.7200335e-07 1.552058e-18)
(0.18439993 -4.8575039e-08 1.2739504e-18)
(0.29323691 -4.0770359e-07 2.063106e-18)
(0.2912258 -9.3957478e-07 7.6381296e-19)
(0.28710541 -1.2005899e-06 9.2429264e-19)
(0.28123221 -1.2283795e-06 1.2773372e-18)
(0.27373685 -1.0634198e-06 8.9527369e-19)
(0.26454709 -7.994093e-07 1.5243878e-18)
(0.2532746 -5.1923552e-07 1.7479678e-18)
(0.23893453 -2.801885e-07 1.7510595e-18)
(0.21906456 -1.1804804e-07 1.7221512e-18)
(0.1843978 -2.9685759e-08 1.4083738e-18)
(0.29325335 -3.4527405e-07 9.8162512e-19)
(0.29123938 -7.9427209e-07 2.5322662e-18)
(0.28711403 -1.0043389e-06 3.51705e-18)
(0.28123563 -1.0109781e-06 2.0476194e-18)
(0.2737361 -8.5540517e-07 2.0327036e-18)
(0.26454375 -6.2275903e-07 1.3214833e-18)
(0.25327027 -3.8598199e-07 1.5814889e-18)
(0.23893054 -1.9333092e-07 1.6443129e-18)
(0.21906179 -7.1221177e-08 1.4694574e-18)