/*--------------------------------*- C++ -*----------------------------------*\
| =========                 |                                                 |
| \\      /  F ield         | OpenFOAM: The Open Source CFD Toolbox           |
|  \\    /   O peration     | Version:  2506                                  |
|   \\  /    A nd           | Website:  www.openfoam.com                      |
|    \\/     M anipulation  |                                                 |
\*---------------------------------------------------------------------------*/
FoamFile
{
    version     2.0;
    format      ascii;
    arch        "LSB;label=32;scalar=64";
    class       volScalarField;
    location    "11000/rock";
    object      T;
}
// * * * * * * * * * * * * * * * * * * * * * * * * * * * * * * * * * * * * * //

dimensions      [0 0 0 1 0 0 0];

internalField   nonuniform List<scalar> 
16000
(
317.73788
306.96042
301.13365
297.50264
295.03574
293.25974
291.92661
290.89374
290.07332
289.40837
288.86038
288.40241
288.01506
287.68407
287.39869
287.15071
286.93374
286.74275
286.57372
286.4234
286.28916
286.16882
286.06059
285.96296
285.87466
285.79462
285.72191
285.65575
285.59546
285.54044
285.49016
285.44415
285.40199
285.36327
285.32762
285.29466
285.26396
285.23504
285.20723
285.17946
320.42123
309.68327
303.46285
299.47035
296.71745
294.71865
293.21015
292.03707
291.10277
290.34401
289.71773
289.19368
288.75
288.37057
288.0432
287.75856
287.5094
287.28998
287.09571
286.9229
286.76853
286.63012
286.5056
286.39326
286.29163
286.1995
286.1158
286.03964
285.97022
285.90687
285.84898
285.79601
285.74747
285.70291
285.6619
285.624
285.58876
285.55566
285.52405
285.49302
321.95452
311.68837
305.38372
301.19366
298.24348
296.07294
294.42027
293.12703
292.09232
291.24908
290.55118
289.96594
289.4696
289.0445
288.67729
288.3577
288.07769
287.83092
287.6123
287.41771
287.24381
287.08782
286.94743
286.82073
286.70608
286.60212
286.50766
286.42168
286.34331
286.27178
286.20641
286.14661
286.09182
286.04154
285.99531
285.95263
285.91305
285.87603
285.84098
285.80721
322.93663
313.19603
306.96329
302.69057
299.61648
297.32058
295.55376
294.1604
293.03904
292.12106
291.35861
290.7174
290.17231
289.70457
289.29987
288.94717
288.63779
288.36486
288.12285
287.90729
287.71451
287.54149
287.3857
287.24503
287.1177
287.00219
286.89721
286.80163
286.7145
286.63497
286.56229
286.49579
286.43489
286.37904
286.32771
286.28043
286.23669
286.19598
286.15777
286.12153
323.62648
314.36413
308.27142
303.989
300.84657
298.46437
296.61045
295.13587
293.9413
292.95829
292.13843
291.44663
290.8569
290.34968
289.90997
289.52613
289.18895
288.89114
288.6268
288.39113
288.18019
287.99073
287.82004
287.66584
287.52618
287.39945
287.28422
287.17928
287.0836
286.99625
286.91642
286.84339
286.77653
286.71524
286.65898
286.60724
286.55951
286.51531
286.47415
286.43559
324.14564
315.29698
309.36766
305.11874
301.94767
299.51032
297.5925
296.05377
294.79855
293.75988
292.88967
292.15264
291.52242
290.97896
290.50681
290.09387
289.73056
289.40921
289.12363
288.86876
288.64043
288.43518
288.25013
288.08284
287.93126
287.79363
287.66845
287.55441
287.4504
287.35543
287.26863
287.18924
287.11657
287.05
286.98896
286.93291
286.88135
286.83381
286.78986
286.74909
324.55637
316.0625
310.29883
306.10735
302.93481
300.46618
298.50366
296.91567
295.61123
294.52565
293.61183
292.83482
292.16821
291.59177
291.08977
290.64982
290.26206
289.91857
289.61291
289.33978
289.09485
288.87448
288.67564
288.49576
288.33266
288.1845
288.04967
287.92681
287.81471
287.71234
287.61876
287.53318
287.45487
287.38317
287.31748
287.25727
287.20203
287.1513
287.10467
287.06177
324.89338
316.70545
311.10053
306.97857
303.82253
301.34042
299.34864
297.72403
296.38049
295.25599
294.30488
293.49288
292.79387
292.18764
291.65837
291.19351
290.78303
290.41881
290.09423
289.80384
289.54313
289.30834
289.0963
288.90433
288.73015
288.57183
288.42769
288.29628
288.17635
288.06679
287.96664
287.87505
287.79126
287.71459
287.64441
287.58018
287.52139
287.46758
287.41836
287.3734
325.17752
317.25605
311.79953
307.75217
304.62412
302.14149
300.13259
298.48189
297.10799
295.95174
294.96914
294.12686
293.39925
292.76633
292.21231
291.72461
291.29312
290.90959
290.56728
290.26063
289.98499
289.73648
289.51185
289.30831
289.12351
288.95542
288.8023
288.66265
288.53514
288.41863
288.31212
288.2147
288.1256
288.04411
287.96959
287.90147
287.83925
287.78247
287.73075
287.68376
325.42215
317.73525
312.41601
308.44428
305.35125
302.87735
300.86074
299.19256
297.79578
296.61409
295.60526
294.73703
293.9844
293.32772
292.7514
292.24289
291.79207
291.39065
291.0318
290.70988
290.42015
290.15867
289.92206
289.70749
289.51253
289.33507
289.17333
289.02573
288.89091
288.7677
288.65503
288.55198
288.45774
288.37159
288.29286
288.22099
288.15545
288.0958
288.04165
287.99268
325.63629
318.158
312.96532
309.06796
306.01399
303.5553
301.53818
299.85945
298.4461
297.24445
296.21407
295.32386
294.54953
293.87189
293.27558
292.74823
292.27972
291.86179
291.48758
291.15139
290.84844
290.57469
290.32675
290.10169
289.89702
289.71061
289.54059
289.38536
289.24352
289.11383
288.99522
288.88674
288.78754
288.69688
288.61409
288.53858
288.46983
288.40739
288.35088
288.29996
325.82626
318.53523
313.45922
309.63378
306.62094
304.1819
302.16967
300.48597
299.06127
297.8444
296.79661
295.88798
295.09501
294.399
293.78492
293.24058
292.75598
292.32289
291.93447
291.58499
291.26966
290.98439
290.72573
290.49072
290.27683
290.08187
289.90395
289.74141
289.59281
289.4569
289.33258
289.21885
289.11486
289.01985
288.93313
288.85411
288.78225
288.71711
288.65829
288.60546
325.99669
318.87512
313.90688
310.15033
307.17936
304.76293
302.75963
301.07535
299.64364
298.41556
297.35399
296.43015
295.62131
294.90933
294.27955
293.71999
293.22082
292.77388
292.37236
292.01057
291.68368
291.38761
291.11886
290.87445
290.65181
290.44872
290.26325
290.09372
289.93865
289.79678
289.66695
289.54818
289.43958
289.34036
289.24985
289.16743
289.09257
289.0248
288.96373
288.90903
326.15103
319.18394
314.31551
310.6246
307.69541
305.30346
303.31206
301.63067
300.19549
298.95962
297.88742
296.95118
296.129
295.40326
294.75969
294.18658
293.67428
293.21473
292.80121
292.42804
292.09041
291.78424
291.50602
291.25275
291.02184
290.81103
290.61837
290.44217
290.28092
290.13333
289.99822
289.8746
289.76156
289.6583
289.56413
289.47842
289.40064
289.33032
289.26705
289.21051
326.29194
319.46657
314.69086
311.06233
308.17429
305.80792
303.83058
302.15476
300.71901
299.47821
298.39809
297.45198
296.61869
295.8812
295.22561
294.64052
294.11645
293.64549
293.221
292.83736
292.48978
292.17421
291.88712
291.62552
291.3868
291.16868
290.96921
290.78665
290.61951
290.46644
290.32628
290.198
290.08069
289.97354
289.87584
289.78696
289.70635
289.63355
289.56815
289.50979
326.42149
319.72686
315.03758
311.46826
308.6204
306.28016
304.31841
302.65024
301.21626
299.97294
298.88724
297.93343
297.09106
296.34363
295.67766
295.08202
294.54746
294.06622
293.63175
293.2385
292.88175
292.55744
292.26209
291.99268
291.7466
291.52159
291.31566
291.12707
290.9543
290.79601
290.65101
290.51827
290.39686
290.28597
290.18487
290.09292
290.00959
289.93438
289.86688
289.80674
326.54132
319.96793
315.35945
311.84632
309.03749
306.72356
304.77843
303.1195
301.68918
300.44533
299.35605
298.39646
297.54679
296.79107
296.1162
295.51135
294.96749
294.47702
294.03352
293.6315
293.26631
292.93392
292.63087
292.35416
292.10119
291.86967
291.65763
291.46332
291.28521
291.12194
290.97233
290.83532
290.70998
290.59549
290.49111
290.39621
290.31023
290.23268
290.16314
290.10125
326.65276
320.19229
315.65959
312.19981
309.42876
307.14101
305.21319
303.56471
302.13955
300.89685
299.80567
298.84197
297.98659
297.22404
296.54162
295.92879
295.37674
294.87804
294.42638
294.01639
293.64346
293.30362
292.99343
292.70992
292.45048
292.21286
291.99506
291.79533
291.61215
291.44415
291.29014
291.14905
291.01995
290.902
290.79447
290.69672
290.60818
290.52835
290.45682
290.39322
326.75689
320.40201
315.9406
312.53153
309.79695
307.53509
305.62498
303.98784
302.56905
301.32885
300.23723
299.27085
298.41114
297.64309
296.95434
296.33466
295.77544
295.26943
294.81046
294.39324
294.01325
293.66655
293.34976
293.05992
292.79445
292.5511
292.32788
292.12304
291.93506
291.76257
291.60436
291.45938
291.32668
291.20542
291.09486
290.99436
290.90334
290.82131
290.74783
290.68254
326.8546
320.59883
316.20465
312.84382
310.14442
307.908
306.01581
304.39066
302.97918
301.74262
300.65177
299.68395
298.82115
298.04876
297.35479
296.72927
296.16383
295.65138
295.18588
294.76214
294.37571
294.02274
293.69986
293.40415
293.13306
292.88435
292.65604
292.44639
292.25387
292.07712
291.91493
291.76623
291.63009
291.50566
291.3922
291.28904
291.19563
291.11145
291.03608
290.96912
326.94662
320.78418
316.45357
313.13871
310.47321
308.26171
306.38748
304.77478
303.37135
302.13934
301.05029
300.08211
299.21727
298.44159
297.74339
297.11298
296.54218
296.02408
295.55277
295.12318
294.73093
294.37221
294.04374
293.74261
293.4663
293.21258
292.9795
292.76533
292.56852
292.38774
292.22177
292.06954
291.93012
291.80265
291.68639
291.58069
291.48496
291.39871
291.32148
291.2529
327.03359
320.95929
316.68893
313.41793
310.78508
308.59793
306.74158
305.14163
303.74682
302.52012
301.43373
300.4661
299.60017
298.82212
298.12059
297.48612
296.91076
296.38774
295.91131
295.47648
295.07897
294.71504
294.38143
294.07531
293.79416
293.53578
293.29824
293.07981
292.87898
292.69438
292.52483
292.36925
292.22669
292.09632
291.97739
291.86923
291.77127
291.68299
291.60396
291.53378
327.116
321.12519
316.91208
313.68297
311.08158
308.91816
307.07954
305.49252
304.10677
302.88599
301.80297
300.83668
299.97047
299.19086
298.48679
297.84903
297.26983
296.74259
296.26166
295.82218
295.41994
295.05127
294.71298
294.40226
294.11664
293.85394
293.61224
293.38983
293.1852
292.99701
292.82406
292.6653
292.51976
292.38662
292.26512
292.1546
292.05448
291.96424
291.88345
291.8117
327.19432
321.28277
317.12415
313.93513
311.36406
309.22375
307.40263
305.82863
304.45225
303.23787
302.15883
301.19456
300.32878
299.54833
298.84243
298.20207
297.61969
297.08883
296.60399
296.1604
295.75393
295.381
295.03844
294.72351
294.43376
294.16705
293.92148
293.69534
293.48716
293.29558
293.11943
292.95764
292.80927
292.67348
292.54952
292.43673
292.33453
292.2424
292.15988
292.08659
327.26892
321.43279
317.32617
314.17554
311.6337
309.51588
307.71199
306.15102
304.78424
303.57665
302.50209
301.5404
300.67566
299.89501
299.18791
298.54557
297.96061
297.42671
296.93849
296.49129
296.08106
295.70429
295.35787
295.03909
294.74555
294.47513
294.22596
293.99635
293.78483
293.59007
293.41089
293.24624
293.09518
292.95686
292.83055
292.71559
292.61137
292.5174
292.43321
292.35841
327.34012
321.57593
317.51899
314.40519
311.89156
309.79559
308.00864
306.46065
305.10363
303.90313
302.83345
301.87482
301.01165
300.23136
299.52363
298.87987
298.29286
297.75644
297.26534
296.815
296.40145
296.02124
295.67133
295.34905
295.05204
294.7782
294.52569
294.29285
294.07821
293.88046
293.69843
293.53107
293.37745
293.23673
293.10817
292.99111
292.88496
292.7892
292.70338
292.6271
327.40821
321.71276
317.70339
314.62496
312.13855
310.06383
308.2935
306.7584
305.41122
304.21803
303.15358
302.19843
301.33729
300.55784
299.84997
299.20529
298.61673
298.07827
297.58474
297.13168
296.71522
296.33195
295.9789
295.65344
295.35325
295.07628
294.82068
294.58483
294.36728
294.16673
293.98201
293.81209
293.65604
293.51304
293.38233
293.26326
293.15524
293.05775
292.97034
292.89261
327.47343
321.8438
317.88003
314.83562
312.3755
310.32143
308.56738
307.04504
305.70775
304.52206
303.46309
302.51176
301.65305
300.87486
300.1673
299.52215
298.93248
298.39241
297.89687
297.4415
297.02249
296.63652
296.28066
295.95233
295.64925
295.36939
295.11095
294.87231
294.65205
294.44887
294.26163
294.0893
293.93095
293.78576
293.653
293.532
293.42218
293.32302
293.23407
293.15491
327.53601
321.96948
318.04951
315.03785
312.60315
310.56915
308.83103
307.32131
305.9939
304.81582
303.76256
302.81534
301.95939
301.18284
300.47598
299.83076
299.24038
298.69909
298.20192
297.7446
297.32339
296.93505
296.57669
296.24577
295.94007
295.65758
295.39651
295.1553
294.93251
294.72688
294.53727
294.36266
294.20214
294.05488
293.92015
293.79731
293.68576
293.58498
293.49451
293.41395
327.59614
322.09022
318.21237
315.23228
312.82216
310.80767
309.08513
307.58785
306.27029
305.09991
304.05253
303.10965
302.25675
301.48216
300.77635
300.1314
299.54068
298.99852
298.50007
298.04114
297.61807
297.22765
296.86708
296.53385
296.22577
295.94088
295.67741
295.43381
295.20868
295.00076
294.80893
294.63218
294.46959
294.32037
294.18377
294.05916
293.94593
293.84358
293.75165
293.66972
327.65399
322.20637
318.36906
315.41943
313.03311
311.03758
309.33028
307.84525
306.53749
305.37485
304.33348
303.39515
302.54554
301.77318
301.06872
300.42438
299.83363
299.29093
298.79152
298.33129
297.90664
297.51444
297.15192
296.81663
296.50642
296.21934
295.95367
295.70788
295.48058
295.27052
295.07661
294.89784
294.73331
294.58222
294.44384
294.31752
294.20269
294.09882
294.00545
293.92219
327.70973
322.31824
318.52003
315.59982
313.23654
311.25944
309.56704
308.09406
306.79602
305.64114
304.60588
303.67224
302.82614
302.05626
301.35341
300.70995
300.11947
299.57653
299.07645
298.61519
298.18924
297.79551
297.4313
297.09419
296.78206
296.49301
296.22534
295.97752
295.74821
295.53617
295.34032
295.15965
294.99329
294.84042
294.70034
294.57239
294.45601
294.35067
294.25591
294.17133
327.76348
322.42613
318.66564
315.77386
313.43292
311.47376
309.79591
308.33478
307.04636
305.89924
304.87015
303.94134
303.09891
302.33172
301.63072
300.98839
300.39844
299.85551
299.35502
298.893
298.466
298.071
297.70532
297.36661
297.05277
296.76194
296.49244
296.24278
296.01161
295.79773
295.60006
295.41761
295.24951
295.09497
294.95326
294.82376
294.70588
294.59912
294.503
294.41713
327.81537
322.53027
318.80624
315.94198
313.6227
311.68098
310.01735
308.56786
307.28895
306.14956
305.12669
304.20281
303.36419
302.59988
301.90093
301.25995
300.67075
300.12808
299.62741
299.16487
298.73706
298.341
297.97407
297.63397
297.31862
297.02618
296.75503
296.50367
296.2708
296.05521
295.85584
295.67173
295.50199
295.34586
295.20261
295.07161
294.9523
294.84415
294.74672
294.65958
327.86552
322.63092
318.94213
316.10452
313.80626
311.88153
310.23178
308.79371
307.5242
306.39249
305.37587
304.45699
303.62231
302.86102
302.16429
301.52486
300.93663
300.39442
299.89381
299.43095
299.00254
298.60563
298.23766
297.89634
297.57966
297.2858
297.01315
296.76025
296.52581
296.30864
296.1077
295.92201
295.75074
295.59309
295.44837
295.31595
295.19525
295.08577
294.98705
294.89868
327.91404
322.72828
319.0736
316.26182
313.98397
312.07577
310.43959
309.01272
307.75247
306.62841
305.61803
304.70421
303.87357
303.11542
302.42108
301.78337
301.19628
300.65473
300.15436
299.69139
299.26256
298.865
298.49616
298.15382
297.83598
297.54085
297.26685
297.01256
296.77667
296.55804
296.35563
296.16848
295.99576
295.83668
295.69056
295.55677
295.43474
295.32397
295.22399
295.13441
327.96101
322.82254
319.20091
316.41417
314.15616
312.26405
310.64113
309.22525
307.97413
306.85763
305.85349
304.94478
304.11824
303.36335
302.67152
302.03567
301.4499
300.90918
300.40922
299.94633
299.51727
299.11922
298.74969
298.40648
298.08763
297.79139
297.51619
297.26062
297.02342
296.80345
296.59967
296.41116
296.23706
296.07664
295.92918
295.79408
295.67077
295.55875
295.45755
295.36678
328.00653
322.91387
319.32429
316.56185
314.32312
312.44669
310.83672
309.43162
308.18949
307.08048
306.08256
305.17896
304.3566
303.60505
302.91584
302.282
301.69768
301.15795
300.65857
300.1959
299.76677
299.3684
298.99834
298.65442
298.33471
298.03749
297.76122
297.5045
297.2661
297.04489
296.83984
296.65005
296.47467
296.31297
296.16424
296.02789
295.90334
295.79011
295.68773
295.59579
328.05067
323.00244
319.44394
316.70511
314.48512
312.62399
311.02666
309.63212
308.39884
307.29725
306.30551
305.40704
304.58889
303.84076
303.15427
302.52254
301.9398
301.40119
300.90254
300.44024
300.01119
299.61265
299.24219
298.8977
298.57727
298.2792
298.00198
297.74424
297.50475
297.28239
297.07618
296.88519
296.70861
296.54569
296.39576
296.2582
296.13247
296.01806
295.91452
295.82145
328.09351
323.08838
319.56007
316.84418
314.64243
312.79619
311.21123
309.82705
308.60247
307.50819
306.5226
305.62926
304.81536
304.07069
303.38701
302.75749
302.17645
301.63908
301.14127
300.67949
300.25065
299.85207
299.48136
299.13642
298.81539
298.5166
298.23854
297.97988
297.7394
297.516
297.3087
297.1166
296.93889
296.77482
296.62374
296.48504
296.35816
296.24262
296.13795
296.04376
328.1351
323.17185
319.67285
316.97927
314.79528
312.96357
311.39069
310.01665
308.80063
307.71358
306.73408
305.84585
305.03621
304.29507
303.61425
302.98703
302.40778
301.87176
301.37492
300.91377
300.48527
300.08676
299.71592
299.37066
299.04915
298.74974
298.47096
298.21148
297.9701
297.74575
297.53745
297.34431
297.16553
297.00039
296.84821
296.70841
296.58043
296.46378
296.35802
296.26273
328.17553
323.25295
319.78246
317.11057
314.94387
313.12633
311.56527
310.20116
308.99355
307.91363
306.94017
306.05704
305.25167
304.51409
303.83619
303.21133
302.63396
302.09939
301.60362
301.1432
300.71514
300.31684
299.94597
299.6005
299.27861
298.9787
298.69929
298.43908
298.1969
297.97168
297.76246
297.56835
297.38858
297.22241
297.0692
296.92834
296.7993
296.68158
296.57475
296.47839
328.21483
323.3318
319.88903
317.23826
315.08842
313.2847
311.73518
310.38082
309.18147
308.10858
307.14109
306.26303
305.46193
304.72792
304.05299
303.43056
302.85514
302.3221
301.82749
301.3679
300.9404
300.54239
300.1716
299.82602
299.50386
299.20353
298.92358
298.66274
298.41984
298.19383
297.98376
297.78876
297.60805
297.44091
297.28671
297.14484
297.01478
296.89603
296.78816
296.69075
328.25307
323.40851
319.99272
317.36251
315.22909
313.43888
311.90064
310.55582
309.36459
308.29862
307.33704
306.46401
305.66718
304.93676
304.26484
303.64488
303.07148
302.54004
302.04667
301.588
301.16113
300.76351
300.39289
300.0473
299.72496
299.4243
299.14391
298.88252
298.63897
298.41225
298.20139
298.00556
297.82397
297.65592
297.50077
297.35794
297.22689
297.10715
296.99825
296.89982
328.29028
323.48317
320.09365
317.48347
315.36607
313.58903
312.06183
310.72635
309.5431
308.48395
307.52821
306.66017
305.86759
305.14078
304.47188
303.85444
303.2831
302.75333
302.26127
301.8036
301.37745
300.98031
300.60995
300.26442
299.94198
299.64108
299.36032
299.09845
298.85434
298.62697
298.41539
298.21879
298.03638
297.86747
297.71143
297.56767
297.43567
297.31495
297.20507
297.10563
328.32653
323.55588
320.19194
317.60128
315.4995
313.73533
312.21892
310.89261
309.71718
308.66475
307.71478
306.85168
306.06333
305.34012
304.67426
304.05938
303.49015
302.9621
302.47142
302.01482
301.58946
301.19286
300.82284
300.47746
300.155
299.85393
299.57288
299.31061
299.066
298.83804
298.62581
298.42849
298.24531
298.07558
297.91869
297.77404
297.64113
297.51947
297.40862
297.30819
328.36184
323.62672
320.2877
317.71609
315.62955
313.87794
312.37209
311.05475
309.88701
308.84118
307.8969
307.0387
306.25456
305.53494
304.87215
304.25984
303.69276
303.16648
302.67723
302.22176
301.79726
301.40128
301.03166
300.68649
300.36408
300.06292
299.78164
299.51903
299.27399
299.0455
298.83268
298.63469
298.45079
298.2803
298.12259
297.9771
297.8433
297.72072
297.60894
297.50754
328.39626
323.69576
320.38105
317.828
315.75634
314.01701
312.52149
311.21294
310.05274
309.01342
308.07475
307.22139
306.44143
305.7254
305.06566
304.45595
303.89105
303.36658
302.87881
302.42452
302.00093
301.60563
301.23648
300.8916
300.56931
300.26811
299.98667
299.72379
299.47836
299.24941
299.03604
298.83744
298.65287
298.48165
298.32316
298.17686
298.04221
297.91874
297.80604
297.7037
328.42982
323.76308
320.47208
317.93714
315.88
314.15268
312.66726
311.36732
310.21453
309.1816
308.24846
307.3999
306.62408
305.91161
305.25494
304.64783
304.08514
303.56252
303.07626
302.6232
302.20058
301.80602
301.43739
301.09285
300.77073
300.46957
300.18802
299.92492
299.67917
299.4498
299.23594
299.03677
298.85157
298.67966
298.52044
298.37335
298.23788
298.11356
297.99996
297.89669
328.46256
323.82875
320.56087
318.04361
316.00066
314.28506
312.80953
311.51804
310.37251
309.34587
308.41819
307.57435
306.80264
306.09372
305.4401
304.83562
304.27515
303.75439
303.26969
302.8179
302.39629
302.00251
301.63447
301.29032
300.96843
300.66735
300.38576
300.12248
299.87646
299.64673
299.43241
299.23272
299.04693
298.87438
298.71446
298.56662
298.43036
298.3052
298.19073
298.08655
328.49451
323.89282
320.64751
318.14752
316.11842
314.41429
312.94844
311.66522
310.52682
309.50636
308.58405
307.74489
306.97724
306.27185
305.62128
305.01941
304.46118
303.94232
303.45919
303.00871
302.58816
302.19521
301.82779
301.48408
301.16247
300.86152
300.57993
300.31653
300.07029
299.84024
299.62552
299.42535
299.239
299.06584
298.90525
298.75669
298.61966
298.49369
298.37837
298.2733
328.5257
323.95537
320.73209
318.24895
316.2334
314.54048
313.0841
311.80898
310.67758
309.6632
308.74618
307.91163
307.148
306.44611
305.79857
305.19932
304.64334
304.12638
303.64487
303.19572
302.77626
302.38418
302.01743
301.67421
301.35292
301.05214
300.7706
300.50713
300.2607
300.03037
299.81529
299.61467
299.42782
299.25407
299.09285
298.9436
298.80583
298.67907
298.56292
298.45698
328.55615
324.01644
320.81468
318.348
316.34569
314.66374
313.21662
311.94945
310.82491
309.8165
308.90469
308.0747
307.31504
306.61662
305.9721
305.37546
304.82173
304.3067
303.82681
303.37902
302.96069
302.5695
302.20345
301.86076
301.53984
301.23928
300.95782
300.69432
300.44775
300.21718
300.00177
299.80075
299.61341
299.43912
299.27729
299.12738
298.98889
298.86137
298.74441
298.63761
328.5859
324.07609
320.89534
318.44476
316.45538
314.78416
313.34612
312.08673
310.96893
309.96639
309.0597
308.2342
307.47847
306.78349
306.14196
305.54793
304.99645
304.48335
304.00511
303.5587
303.14151
302.75126
302.38595
302.04382
301.7233
301.42299
301.14165
300.87816
300.63148
300.40071
300.18501
299.98362
299.79583
299.62103
299.45862
299.30807
299.16889
299.04062
298.92287
298.81523
328.61496
324.13436
320.97415
318.53929
316.56257
314.90184
313.47268
312.22093
311.10974
310.11296
309.21132
308.39024
307.63839
306.94681
306.30826
305.71682
305.16758
304.65642
304.17984
303.73483
303.31881
302.92952
302.56497
302.22343
301.90335
301.60334
301.32216
301.0587
300.81196
300.58102
300.36506
300.16332
299.97512
299.79982
299.63686
299.4857
299.34585
299.21686
299.09833
298.98988
328.64336
324.1913
321.05117
318.63168
316.66733
315.01687
313.59642
312.35214
311.24744
310.25632
309.35964
308.54292
307.79491
307.10669
306.47109
305.88223
305.33523
304.82601
304.35109
303.9075
303.49267
303.10435
302.7406
302.39968
302.08006
301.78037
301.49938
301.23599
300.98921
300.75814
300.54195
300.3399
300.15131
299.97555
299.81206
299.66031
299.51981
299.39013
299.27084
299.16158
328.67112
324.24697
321.12645
318.722
316.76974
315.12934
313.71741
312.48045
311.38212
310.39656
309.50477
308.69234
307.94811
307.26322
306.63054
306.04424
305.49948
304.9922
304.51895
304.07678
303.66315
303.27584
302.9129
302.57263
302.2535
301.95415
301.67338
301.4101
301.16331
300.93212
300.71573
300.5134
300.32445
300.14825
299.98426
299.83194
299.69081
299.56045
299.44042
299.33037
328.69826
324.30139
321.20005
318.8103
316.86989
315.23932
313.83574
312.60597
311.51387
310.53378
309.64679
308.83859
308.09809
307.41649
306.7867
306.20295
305.66041
305.15506
304.68348
304.24275
303.83034
303.44404
303.08194
302.74233
302.42371
302.12474
301.84422
301.58106
301.33429
301.10302
300.88646
300.68386
300.49457
300.31797
300.15349
300.00062
299.85889
299.72786
299.60712
299.49629
328.7248
324.3546
321.27202
318.89666
316.96783
315.34689
313.95149
312.72876
311.64279
310.66806
309.78579
308.98176
308.24493
307.56658
306.93966
306.35843
305.8181
305.31468
304.84477
304.40548
303.99429
303.60902
303.24777
302.90885
302.59077
302.2922
302.01194
301.74893
301.5022
301.27088
301.05416
300.85133
300.66172
300.48473
300.31979
300.1664
300.02408
299.8924
299.77096
299.65938
328.75077
324.40665
321.34242
318.98113
317.06364
315.45213
314.06473
312.84891
311.76895
310.79949
309.92186
309.12193
308.38873
307.71358
307.0895
306.51076
305.97263
305.47113
305.00289
304.56504
304.15508
303.77086
303.41047
303.07225
302.75472
302.45657
302.1766
301.91376
301.6671
301.43574
301.2189
301.01586
300.82595
300.64859
300.48321
300.32931
300.18642
300.05412
299.93198
299.81966
328.77617
324.45757
321.41129
319.06376
317.15737
315.5551
314.17555
312.96649
311.89243
310.92814
310.05507
309.25918
308.52955
307.85757
307.23628
306.66002
306.12407
305.62448
305.15791
304.7215
304.31278
303.9296
303.57009
303.23259
302.91563
302.61791
302.33825
302.07561
301.82903
301.59766
301.38071
301.17747
300.98729
300.80958
300.64378
300.48939
300.34595
300.21303
300.09023
299.97718
328.80102
324.50739
321.47868
319.14462
317.2491
315.65587
314.28401
313.08158
312.0133
311.0541
310.18551
309.39358
308.66748
307.99862
307.3801
306.80629
306.27249
305.7748
305.30989
304.87492
304.46744
304.08532
303.7267
303.38992
303.07355
302.77627
302.49694
302.23451
301.98804
301.75667
301.53963
301.33622
301.14579
300.96774
300.80154
300.64668
300.50271
300.36919
300.24573
300.13196
328.82534
324.55614
321.54463
319.22376
317.33887
315.75449
314.39017
313.19425
312.13165
311.17743
310.31325
309.52522
308.80258
308.1368
307.52102
306.94963
306.41797
305.92217
305.45891
305.02538
304.61914
304.23808
303.88034
303.54431
303.22853
302.93172
302.65273
302.39053
302.14417
301.91283
301.69572
301.49215
301.30148
301.12312
300.95654
300.80122
300.65673
300.52263
300.39852
300.28406
328.84915
324.60386
321.60917
319.30121
317.42674
315.85104
314.4941
313.30456
312.24752
311.2982
310.43835
309.65416
308.93494
308.27219
307.65911
307.09011
306.56058
306.06664
305.60502
305.17292
304.76792
304.38792
304.03109
303.6958
303.38063
303.0843
302.80566
302.5437
302.29748
302.06617
301.84901
301.6453
301.45441
301.27576
301.1088
300.95305
300.80805
300.67338
300.54865
300.4335
328.87246
324.65057
321.67236
319.37704
317.51277
315.94556
314.59585
313.41257
312.36099
311.41648
310.56088
309.78048
309.06461
308.40485
307.79443
307.2278
306.70037
306.20828
305.7483
305.31762
304.91386
304.53492
304.17899
303.84446
303.5299
303.23405
302.95578
302.69407
302.44801
302.21675
301.99955
301.79572
301.60462
301.42569
301.25837
301.1022
300.95671
300.82149
300.69615
300.58032
328.89527
324.69631
321.73421
319.45128
317.59699
316.03812
314.6955
313.51834
312.47213
311.53233
310.68092
309.90422
309.19166
308.53485
307.92706
307.36276
306.8374
306.34716
305.88879
305.45953
305.057
304.67913
304.3241
303.99033
303.67639
303.38104
303.10315
302.8417
302.5958
302.36461
302.14739
301.94345
301.75216
301.57295
301.4053
301.24872
301.10275
300.96699
300.84105
300.72456
328.91762
324.74108
321.79478
319.52397
317.67947
316.12875
314.79308
313.62194
312.58098
311.64582
310.79851
310.02547
309.31616
308.66225
308.05705
307.49506
306.97175
306.48333
306.02656
305.59872
305.19741
304.8206
304.46648
304.13346
303.82016
303.52531
303.2478
302.98663
302.7409
302.50979
302.29256
302.08852
301.89705
301.71759
301.54961
301.39263
301.24621
301.10992
300.98339
300.86626
328.9395
324.78493
321.8541
319.59515
317.76024
316.21752
314.88866
313.72342
312.68762
311.757
310.91372
310.14427
309.43816
308.78712
308.18446
307.62475
307.10347
306.61684
306.16167
305.73522
305.33514
304.95939
304.60617
304.27392
303.96124
303.6669
303.38979
303.12891
302.88336
302.65234
302.43511
302.23098
302.03935
301.85965
301.69136
301.53399
301.38712
301.25032
301.12321
301.00545
328.96093
324.82788
321.91219
319.66488
317.83936
316.30446
314.98229
313.82282
312.79208
311.86593
311.02661
310.26069
309.55773
308.9095
308.30936
307.75189
307.23262
306.74777
306.29417
305.86911
305.47024
305.09554
304.74323
304.41174
304.0997
303.80587
303.52916
303.26857
303.02322
302.7923
302.57507
302.37088
302.17909
301.99916
301.83057
301.67283
301.52552
301.38822
301.26055
301.14217
328.98192
324.86994
321.96909
319.73317
317.91685
316.38963
315.074
313.92021
312.89443
311.97266
311.13724
310.37478
309.67492
309.02946
308.4318
307.87655
307.35924
306.87616
306.42412
306.00043
305.60277
305.22912
304.8777
304.54698
304.23558
303.94227
303.66596
303.40567
303.16052
302.92971
302.7125
302.50824
302.31631
302.13617
301.96728
301.80919
301.66145
301.52367
301.39545
301.27645
329.00248
324.91115
322.02483
319.80007
317.99276
316.47307
315.16386
314.01562
312.99472
312.07725
311.24565
310.48659
309.78978
309.14704
308.55182
307.99876
307.48341
307.00206
306.55156
306.12924
305.73277
305.36016
305.00965
304.67969
304.36892
304.07613
303.80023
303.54025
303.29531
303.06462
302.84744
302.64312
302.45106
302.27071
302.10154
301.9431
301.79495
301.65669
301.52793
301.40834
329.02263
324.95152
322.07943
319.86561
318.06714
316.55482
315.2519
314.10912
313.09299
312.17975
311.35189
310.59619
309.90237
309.26231
308.6695
308.11858
307.60516
307.12553
306.67656
306.25558
305.8603
305.48872
305.1391
304.8099
304.49977
304.20751
303.93202
303.67235
303.42763
303.19706
302.97992
302.77555
302.58337
302.40282
302.23339
302.07461
301.92606
301.78733
301.65805
301.53787
329.04237
324.99106
322.13293
319.92982
318.14001
316.63492
315.33817
314.20073
313.1893
312.2802
311.45603
310.70361
310.01273
309.37532
308.78487
308.23608
307.72455
307.24661
306.79915
306.37951
305.9854
305.61485
305.26612
304.93768
304.62819
304.33644
304.06137
303.80202
303.55752
303.32707
303.10998
302.90558
302.71328
302.53254
302.36285
302.20375
302.0548
301.91562
301.78582
301.66507
329.06171
325.02982
322.18535
319.99274
318.21142
316.71341
315.42271
314.29052
313.28368
312.37865
311.55809
310.80891
310.12092
309.48611
308.89799
308.35128
307.84163
307.36536
306.91939
306.50107
306.10813