/*--------------------------------*- C++ -*----------------------------------*\
| =========                 |                                                 |
| \\      /  F ield         | OpenFOAM: The Open Source CFD Toolbox           |
|  \\    /   O peration     | Version:  2506                                  |
|   \\  /    A nd           | Website:  www.openfoam.com                      |
|    \\/     M anipulation  |                                                 |
\*---------------------------------------------------------------------------*/
FoamFile
{
    version     2.0;
    format      ascii;
    arch        "LSB;label=32;scalar=64";
    class       volScalarField;
    location    "22000/water";
    object      alphat;
}
// * * * * * * * * * * * * * * * * * * * * * * * * * * * * * * * * * * * * * //

dimensions      [1 -1 -1 0 0 0 0];

internalField   nonuniform List<scalar> 
6000
(
0.041292847
0.041292824
0.041292831
0.041292856
0.041292889
0.041292932
0.041292983
0.041293016
0.041292808
0.041290571
0.041271537
0.041111294
0.0397723
0.030564074
0.013464793
0.040788543
0.040788537
0.040788576
0.040788654
0.040788758
0.040788888
0.04078902
0.040788972
0.040787494
0.040776037
0.040696382
0.040161217
0.036863805
0.023766469
0.015141611
0.04033569
0.040335696
0.040335761
0.040335884
0.040336044
0.040336229
0.04033633
0.040335685
0.040330323
0.040296649
0.040097616
0.038983223
0.033614213
0.0194951
0.016360294
0.039926215
0.039926219
0.039926301
0.039926459
0.03992666
0.039926848
0.039926701
0.039924457
0.039910659
0.039835636
0.039448738
0.037597438
0.030384627
0.016783058
0.017196555
0.039553796
0.039553808
0.039553906
0.039554093
0.039554312
0.039554413
0.039553622
0.0395481
0.039519187
0.039379112
0.038737841
0.036066498
0.027427863
0.015063192
0.01773179
0.039213273
0.039213296
0.039213408
0.039213613
0.039213809
0.039213657
0.039211571
0.039200298
0.039147643
0.038916647
0.037965398
0.034462847
0.024852826
0.013984463
0.018040007
0.038900366
0.038900399
0.038900521
0.038900723
0.038900826
0.038900159
0.038895819
0.03887551
0.038788999
0.038441492
0.037140256
0.032849727
0.022675913
0.013336844
0.018183117
0.038611532
0.038611573
0.038611697
0.038611866
0.038611765
0.038610199
0.038602307
0.038568928
0.038437606
0.037950377
0.036275872
0.031274836
0.020870828
0.012994967
0.018210197
0.038343817
0.038343862
0.038343975
0.038344065
0.038343601
0.038340605
0.038327517
0.03827644
0.038089201
0.037442856
0.03538704
0.029770035
0.019396999
0.012882914
0.018158676
0.038094736
0.03809478
0.038094862
0.038094803
0.038093753
0.038088644
0.038068396
0.037994592
0.037740813
0.036920504
0.03448763
0.028354169
0.018213448
0.012953916
0.018056304
0.037862183
0.037862216
0.037862238
0.037861935
0.037860009
0.037851941
0.037822294
0.037720559
0.037390607
0.036386134
0.033589398
0.02703684
0.017284481
0.013178532
0.017923231
0.03764436
0.037644371
0.037644291
0.037643618
0.037640447
0.037628426
0.037586933
0.037452106
0.037037684
0.035843147
0.032701562
0.025821837
0.016581272
0.013537499
0.017773886
0.037439726
0.037439699
0.03743946
0.037438254
0.037433393
0.037416287
0.037360374
0.037187532
0.036681868
0.035295042
0.031830871
0.02470985
0.016081614
0.014017191
0.017618497
0.037246949
0.037246861
0.037246392
0.037244452
0.037237378
0.037213943
0.037140989
0.036925609
0.0363235
0.034745073
0.030981931
0.023700436
0.015768976
0.014606606
0.017464261
0.037064871
0.037064693
0.037063903
0.037060987
0.037051109
0.037020016
0.036927437
0.036665512
0.035963258
0.03419604
0.030157673
0.022793377
0.015631332
0.015295285
0.017316197
0.03689248
0.036892177
0.036890955
0.036886782
0.036873442
0.036833316
0.036718634
0.03640675
0.035602004
0.033650187
0.029359858
0.021989539
0.015659917
0.016071914
0.01717775
0.036728885
0.036728414
0.036726628
0.036720878
0.03670337
0.036652818
0.036513731
0.036149096
0.035240656
0.033109157
0.028589603
0.021291346
0.015847992
0.016923492
0.017051196
0.036573301
0.03657261
0.036570106
0.036562424
0.036540005
0.036477653
0.03631208
0.035892529
0.034880099
0.032574024
0.027847913
0.02070292
0.016189617
0.01783505
0.016937916
0.036425028
0.036424056
0.036420663
0.036410663
0.036382564
0.036307092
0.036113215
0.03563717
0.034521109
0.032045349
0.027136212
0.020229919
0.016678486
0.018789895
0.016838558
0.036283441
0.03628212
0.036277645
0.036264917
0.036230367
0.036140535
0.03591682
0.035383242
0.034164308
0.031523285
0.026456862
0.019879123
0.017306891
0.019770317
0.016753165
0.036147982
0.036146234
0.036140468
0.036124584
0.036082821
0.035977497
0.035722708
0.035131018
0.033810124
0.031007717
0.025813646
0.019657797
0.018064912
0.0207586
0.016681265
0.036018143
0.036015885
0.036008605
0.035989126
0.035939416
0.035817597
0.035530799
0.034880794
0.033458783
0.030498445
0.025212142
0.019572905
0.018939949
0.021738147
0.016621966
0.03589347
0.03589061
0.035881581
0.035858069
0.035799718
0.035660549
0.035341095
0.034632853
0.033110301
0.029995409
0.024659951
0.019630248
0.019916664
0.02269449
0.016574063
0.035773545
0.035769987
0.035758968
0.035730991
0.035663366
0.035506152
0.035153669
0.034387441
0.032764498
0.029498968
0.024166686
0.019833637
0.020977366
0.023616003
0.016536152
0.035657992
0.035653635
0.035640383
0.035607524
0.035530063
0.035354279
0.034968643
0.03414475
0.03242103
0.029010211
0.023743688
0.020184173
0.022102784
0.024494228
0.016506745
0.035546464
0.035541207
0.035525479
0.035487349
0.035399574
0.035204869
0.034786172
0.033904896
0.032079439
0.028531301
0.023403466
0.020679734
0.023273104
0.025323802
0.016484372
0.035438647
0.035432386
0.035413948
0.035370193
0.035271718
0.035057919
0.034606436
0.03366791
0.03173923
0.028065807
0.023158914
0.021314706
0.0244691
0.026102089
0.016467662
0.035334251
0.035326887
0.035305516
0.035255823
0.03514637
0.034913479
0.03442962
0.033433727
0.031399978
0.02761899
0.023022388
0.022080017
0.02567317
0.026828633
0.016455398
0.035233012
0.035224448
0.035199939
0.03514405
0.035023453
0.034771643
0.034255909
0.033202186
0.031061475
0.027197981
0.02300477
0.022963453
0.026870128
0.027504567
0.016446544
0.035134691
0.035124836
0.035097009
0.035034724
0.034902936
0.03463254
0.03408547
0.032973033
0.030723902
0.0268118
0.023114633
0.023950249
0.02804767
0.028132079
0.016440248
0.035039067
0.035027841
0.034996542
0.034927732
0.034784832
0.034496333
0.033918446
0.032745938
0.030388046
0.026471167
0.023357597
0.025023883
0.02919649
0.028713983
0.016435834
0.034945943
0.034933275
0.034898386
0.034822996
0.034669194
0.034363211
0.033754944
0.032520522
0.030055535
0.026188099
0.023735915
0.026166982
0.030310099
0.029253407
0.016432778
0.034855141
0.034840974
0.034802418
0.034720475
0.034556112
0.034233382
0.033595029
0.032296401
0.029729078
0.025975302
0.024248334
0.02736225
0.031384439
0.029753594
0.016430685
0.034766502
0.034750797
0.03470854
0.034620164
0.034445715
0.034107066
0.033438713
0.032073259
0.029412692
0.025845434
0.024890189
0.028593298
0.032417399
0.030217765
0.016429265
0.034679887
0.034662624
0.034616684
0.034522088
0.034338162
0.033984492
0.033285952
0.031850929
0.029111866
0.025810313
0.025653731
0.029845306
0.033408314
0.030649046
0.016428312
0.034595176
0.034576356
0.034526808
0.034426308
0.034233647
0.033865888
0.033136649
0.03162952
0.028833633
0.025880169
0.026528618
0.031105458
0.034357529
0.03105041
0.016427682
0.034512269
0.034491917
0.034438897
0.034332917
0.034132389
0.033751478
0.032990657
0.031409555
0.028586514
0.026063009
0.027502553
0.032363144
0.035266042
0.031424648
0.01642728
0.034431083
0.034409252
0.034352965
0.034242042
0.034034637
0.033641469
0.032847794
0.031192142
0.028380314
0.026364175
0.028561978
0.033609948
0.036135248
0.031774346
0.016427047
0.034351558
0.034328331
0.034269052
0.034153841
0.033940664
0.03353605
0.032707869
0.03097915
0.028225758
0.026786089
0.029692787
0.034839473
0.03696677
0.032101874
0.01642695
0.034273652
0.034249145
0.03418723
0.034068505
0.03385076
0.033435383
0.03257072
0.030773392
0.028133997
0.02732822
0.030880992
0.036047067
0.037762343
0.032409381
0.016426974
0.034197344
0.03417171
0.034107598
0.033986257
0.033765237
0.033339598
0.032436275
0.030578781
0.028116031
0.027987223
0.032113284
0.037229502
0.038523755
0.032698799
0.016427117
0.034122637
0.034096065
0.034030285
0.033907355
0.033684417
0.033248788
0.032304627
0.030400435
0.028182106
0.028757249
0.03337746
0.038384662
0.039252794
0.032971855
0.016427382
0.034049553
0.034022276
0.033955452
0.033832084
0.033608631
0.033163012
0.03217613
0.030244713
0.028341139
0.029630357
0.034662706
0.039511265
0.039951228
0.033230086
0.016427779
0.03397814
0.033950437
0.033883292
0.033760766
0.033538214
0.033082299
0.032051523
0.030119153
0.028600247
0.03059702
0.035959727
0.04060864
0.040620777
0.033474856
0.016428318
0.033908471
0.033880668
0.033814033
0.033693749
0.033473498
0.033006661
0.031932061
0.03003229
0.028964395
0.031646651
0.037260743
0.041676558
0.0412631
0.033707373
0.01642901
0.033840644
0.033813121
0.033747936
0.033631414
0.033414804
0.032936115
0.031819661
0.029993368
0.02943621
0.032768129
0.038559405
0.042715108
0.041879779
0.033928705
0.016429865
0.033774787
0.03374798
0.033685299
0.033574167
0.033362441
0.032870717
0.031717044
0.030011961
0.030015933
0.033950283
0.039850628
0.043724611
0.042472314
0.034139802
0.016430892
0.033711057
0.03368546
0.033626458
0.03352244
0.033316699
0.032810615
0.031627853
0.030097519
0.030701522
0.0351823
0.041130414
0.044705563
0.043042113
0.034341502
0.016432097
0.033649643
0.033625814
0.033571787
0.033476689
0.033277844
0.032756113
0.031556734
0.030258903
0.031488877
0.036454043
0.042395662
0.045658586
0.043590498
0.034534553
0.016433487
0.03359077
0.033569333
0.033521698
0.033437387
0.03324612
0.032707756
0.031509357
0.030503938
0.032372143
0.037756265
0.043643994
0.046584394
0.044118699
0.034719618
0.016435064
0.033534699
0.033516348
0.033476647
0.033405019
0.033221753
0.032666433
0.031492358
0.030839026
0.033344086
0.039080733
0.04487361
0.047483769
0.044627864
0.034897289
0.016436831
0.033481731
0.033467235
0.033437127
0.033380083
0.033204961
0.032633491
0.031513197
0.031268865
0.03439649
0.040420263
0.046083174
0.048357532
0.045119059
0.035068096
0.016438788
0.033432211
0.033422413
0.033403675
0.033363076
0.033195977
0.032610856
0.031579922
0.031796264
0.035520553
0.041768688
0.047271715
0.049206529
0.045593276
0.035232514
0.016440933
0.033386531
0.033382352
0.033376864
0.033354497
0.033195078
0.03260115
0.031700871
0.03242209
0.036707254
0.043120786
0.048438561
0.050031613
0.046051437
0.035390968
0.016443266
0.033345134
0.033347573
0.033357309
0.033354836
0.033202628
0.032607792
0.031884307
0.033145317
0.037947674
0.044472179
0.04958328
0.050833632
0.046494397
0.035543844
0.016445782
0.033308518
0.033318652
0.033345661
0.033364571
0.033219143
0.032635061
0.032138041
0.033963177
0.03923325
0.04581922
0.050705638
0.05161342
0.046922951
0.035691489
0.016448478
0.033277237
0.03329622
0.033342601
0.033384174
0.033245363
0.03268811
0.032469069
0.034871381
0.040555966
0.047158891
0.051805559
0.052371795
0.047337839
0.035834219
0.016451351
0.033251914
0.033280969
0.033348845
0.033414106
0.033282345
0.032772916
0.032883246
0.035864398
0.041908471
0.048488699
0.052883099
0.053109546
0.047739748
0.03597232
0.016454394
0.033233235
0.033273652
0.033365129
0.033454836
0.033331563
0.032896165
0.033385033
0.036935758
0.043284139
0.049806603
0.053938418
0.053827442
0.048129318
0.036106053
0.016457603
0.033221962
0.033275082
0.033392211
0.033506852
0.033395017
0.03306505
0.033977334
0.038078363
0.044677084
0.051110934
0.054971756
0.054526219
0.048507144
0.036235658
0.016460974
0.033218934
0.033286139
0.033430864
0.033570697
0.033475332
0.033287021
0.03466142
0.039284777
0.046082129
0.052400341
0.055983417
0.055206586
0.048873783
0.036361356
0.016464499
0.033225073
0.033307763
0.033481871
0.033647009
0.033575845
0.033569484
0.035436951
0.040547491
0.047494761
0.053673744
0.056973753
0.055869226
0.049229756
0.036483354
0.016468174
0.033241386
0.033340956
0.033546022
0.033736579
0.03370066
0.033919478
0.036302066
0.041859136
0.048911067
0.054930291
0.057943149
0.056514768
0.049575443
0.036601083
0.01647199
0.033268972
0.03338678
0.033624113
0.033840421
0.033854652
0.034343363
0.037253557
0.043212656
0.050327671
0.056169322
0.058892007
0.057143807
0.049911242
0.036714879
0.016475942
0.033309024
0.033446356
0.033716954
0.033959861
0.034043421
0.034846539
0.038287076
0.044601424
0.051741666
0.057390339
0.059820745
0.057756911
0.050237556
0.036825046
0.016480019
0.03336283
0.033520853
0.033825377
0.034096629
0.034273183
0.03543322
0.039397375
0.046019314
0.053150558
0.058592978
0.060729791
0.058354635
0.050554797
0.036931851
0.016484214
0.033431776
0.033611491
0.033950258
0.034252956
0.034550593
0.036106275
0.040578559
0.047460739
0.054552212
0.059776992
0.061619574
0.058937454
0.050862923
0.037035581
0.016488518
0.033517344
0.033719534
0.03409255
0.034431667
0.034882518
0.036867155
0.041824324
0.048920651
0.055944807
0.060942227
0.062490516
0.059505811
0.051162151
0.037136397
0.016492923
0.033621115
0.033846283
0.034253325
0.034636252
0.035275769
0.037715887
0.043128181
0.050394527
0.057326793
0.062088606
0.063343036
0.060060163
0.051452981
0.037234385
0.016497425
0.033744759
0.03399308
0.034433837
0.03487091
0.035736816
0.038651141
0.044483641
0.051878339
0.058696859
0.063216115
0.064177552
0.060600973
0.051735851
0.037329654
0.016502019
0.033890035
0.03416131
0.034635594
0.035140537
0.036271509
0.039670364
0.045884372
0.053368507
0.0600539
0.064324794
0.064994472
0.061128572
0.052011163
0.037422331
0.0165067
0.034058788
0.034352407
0.034860444
0.035450676
0.036884821
0.040769944
0.04732431
0.054861871
0.06139699
0.065414726
0.065794143
0.061642947
0.052279305
0.037512563
0.016511467
0.034252939
0.034567874
0.035110667
0.035807396
0.037580652
0.041945414
0.04879774
0.05635564
0.062725356
0.066486017
0.066576929
0.062144667
0.052540483
0.037600453
0.016516317
0.034474483
0.034809316
0.035389069
0.036217119
0.038361678
0.043191658
0.05029934
0.057847356
0.064038357
0.067538804
0.067343213
0.062634244
0.052794917
0.037686088
0.016521247
0.034725491
0.035078477
0.035699055
0.036686396
0.03922928
0.044503121
0.051824206
0.059334859
0.065335461
0.068573251
0.068093394
0.063112137
0.053042836
0.037769546
0.016526253
0.035008113
0.035377303
0.036044688
0.037221652
0.04018354
0.045873996
0.053367853
0.060816257
0.066616245
0.069589501
0.06882737
0.063578807
0.05328449
0.037850923
0.016531331
0.035324592
0.035708012
0.036430701
0.037828917
0.041223293
0.047298397
0.0549262
0.062289892
0.067880351
0.070587708
0.069545619
0.064034565
0.053520087
0.037930306
0.016536479
0.035677289
0.036073179
0.036862468
0.03851357
0.04234624
0.048770492
0.056495552
0.063754306
0.069127489
0.071568061
0.070248613
0.064479709
0.053749815
0.038007771
0.016541693
0.036068725
0.036475825
0.037345909
0.039280106
0.043549095
0.050284615
0.058072573
0.065208226
0.070357434
0.072530785
0.070936787
0.064914535
0.05397385
0.03808338
0.016546969
0.036501632
0.036919508
0.037887345
0.040131957
0.044827763
0.051835343
0.059654262
0.066650548
0.07157
0.073475727
0.071610523
0.06533934
0.054192383
0.038157197
0.016552305
0.036979026
0.037408389
0.038493291
0.041071369
0.046177521
0.053417549
0.06123792
0.068080294
0.072765015
0.074403188
0.072270171
0.065754389
0.05440559
0.038229281
0.016557696
0.037504288
0.037947273
0.039170223
0.042099345
0.047593203
0.055026431
0.062821119
0.069496596
0.073942365
0.075313493
0.072916047
0.066159928
0.054613631
0.038299688
0.01656314
0.038081242
0.038541611
0.039924304
0.043215651
0.04906937
0.056657522
0.064401681
0.070898703
0.07510191
0.076206923
0.073548448
0.0665562
0.054816652
0.038368466
0.016568632
0.038714238
0.039197433
0.040761128
0.044418877
0.050600461
0.058306697
0.065977657
0.072285945
0.076243439
0.077083725
0.074167652
0.066943445
0.055014793
0.038435662
0.01657417
0.039408192
0.039921228
0.041685471
0.045706551
0.052180917
0.059970153
0.067547279
0.073657702
0.077366974
0.077944204
0.074773921
0.067321888
0.055208189
0.038501318
0.016579751
0.040168601
0.040719755
0.04270109
0.047075282
0.053805277
0.061644391
0.069108948
0.07501344
0.078472604
0.078788615
0.075367507
0.067691735
0.055396962
0.038565473
0.01658537
0.041001483
0.041599797
0.043810574
0.048520924
0.055468262
0.063326226
0.07066126
0.07635256
0.079560259
0.07961716
0.07594866
0.068053182
0.055581228
0.03862816
0.016591025
0.041913256
0.042567876
0.045015261
0.050038747
0.057164818
0.065012719
0.072202872
0.077674597
0.08063013
0.080430044
0.076517618
0.068406417
0.055761093
0.038689414
0.016596712
0.04291053
0.043629948
0.046315208
0.051623605
0.058890143
0.066701162
0.073732564
0.078979241
0.081682349
0.081227467
0.077074596
0.068751612
0.055936658
0.038749263
0.016602429
0.043999831
0.044791103
0.047709234
0.053270088
0.060639726
0.068389123
0.075249198
0.08026602
0.082716967
0.082009627
0.077619801
0.06908893
0.056108013
0.038807734
0.016608172
0.045187267
0.046055291
0.049195003
0.054972654
0.062409319
0.070074283
0.076751676
0.08153484
0.083734044
0.082776704
0.078153426
0.069418521
0.056275245
0.03886485
0.016613937
0.046478155
0.047425098
0.050769143
0.056725732
0.064194933
0.071754498
0.078239056
0.082785575
0.084733647
0.083528867
0.078675651
0.069740523
0.05643843
0.038920634
0.016619723
0.047876653
0.04890159
0.052427397
0.058523826
0.065992885
0.0734278
0.079710315
0.084018003
0.085715839
0.084266272
0.07918664
0.070055066
0.05659764
0.038975103
0.016625525
0.049385423
0.050484221
0.054164766
0.060361538
0.067799631
0.075092232
0.081164968
0.08523194
0.086680671
0.084989059
0.079686544
0.070362265
0.056752938
0.039028274
0.016631341
0.051005363
0.052170818
0.055975676
0.062233668
0.069611912
0.076745842
0.08260239
0.086427213
0.087628184
0.085697353
0.0801755
0.070662227
0.056904383
0.039080161
0.016637167
0.052735426
0.053957635
0.057854087
0.064135123
0.071426501
0.078387241
0.084021971
0.087603645
0.088558405
0.086391265
0.080653629
0.070955046
0.057052024
0.039130776
0.016643001
0.054572559
0.055839466
0.059793653
0.066061021
0.073240171
0.080015136
0.085423137
0.088761057
0.089471347
0.087070888
0.08112104
0.071240807
0.057195907
0.039180127
0.016648839
0.056511743
0.05780979
0.061787721
0.068006442
0.07505035
0.081628268
0.086805331
0.08989926
0.090367006
0.087736295
0.081577823
0.071519581
0.057336071
0.039228222
0.016654679
0.058546144
0.05986095
0.063829425
0.069966593
0.076854666
0.08322544
0.088168005
0.091018056
0.091245359
0.088387544
0.082024055
0.071791432
0.057472546
0.039275065
0.016660517
0.060667299
0.061984236
0.065911625
0.071937314
0.078650866
0.084805504
0.089510621
0.092117231
0.092106365
0.089024672
0.082459798
0.07205641
0.05760536
0.039320659
0.01666635
0.062865319
0.064170252
0.06802749
0.073914595
0.0804368
0.086367355
0.090832642
0.093196559
0.092949961
0.089647696
0.082885094
0.072314554
0.05773453
0.039365003
0.016672175
0.065129349
0.066409207
0.07017024
0.075894568
0.082210409
0.08790992
0.092133528
0.094255793
0.093776063
0.090256614
0.083299973
0.072565892
0.057860069
0.039408095
0.016677989
0.067447956
0.068691091
0.072333182
0.077873489
0.083969712
0.089432154
0.093412736
0.095294671
0.094584564
0.090851402
0.083704447
0.072810441
0.057981985
0.039449931
0.016683788
0.069809476
0.071005885
0.074509745
0.079847734
0.085712796
0.090933034
0.094669718
0.096312908
0.095375335
0.091432016
0.08409851
0.073048206
0.058100276
0.039490502
0.01668957
0.072202331
0.073343732
0.076693519
0.081813785
0.087437805
0.092411558
0.095903918
0.097310205
0.096148225
0.091998391
0.084482141
0.07327918
0.058214935
0.0395298
0.01669533
0.074615289
0.075695099
0.078878293
0.083768232
0.089142936
0.093866739
0.097114776
0.098286241
0.096903061
0.092550442
0.084855301
0.073503345
0.058325951
0.039567812
0.016701064
0.077037671
0.078050906
0.081058096
0.085707769
0.090826436
0.095297608
0.098301726
0.099240682
0.09763965
0.093088063
0.085217938
0.073720672
0.058433301
0.039604524
0.016706771
0.079459501
0.080402621
0.083227228
0.087629201
0.092486597
0.096703212
0.099464202
0.10017318
0.098357779
0.093611131
0.08556998
0.073931121
0.058536961
0.039639918
0.016712444
0.081871607
0.082742338
0.085380301
0.089529455
0.094121762
0.098082617
0.10060164
0.10108337
0.099057222
0.094119507
0.085911344
0.07413464
0.058636899
0.039673976
0.016718081
0.084265677
0.085062821
0.087512262
0.091405587
0.095730325
0.099434914
0.10171347
0.1019709
0.099737739
0.094613033
0.086241933
0.074331168
0.058733075
0.039706676
0.016723677
0.08663428
0.087357527
0.089618424
0.093254797
0.097310739
0.10075922
0.10279916
0.1028354
0.10039908
0.095091544
0.086561636
0.074520635
0.058825446
0.039737994
0.016729228
0.088970854
0.089620612
0.091694479
0.095074442
0.09886152
0.10205468
0.10385816
0.10367649
0.10104099
0.095554862
0.086870334
0.074702963
0.058913963
0.039767904
0.016734728
0.091269675
0.091846914
0.093736512
0.096862048
0.10038126
0.10332047
0.10488995
0.10449383
0.1016632
0.096002802
0.087167899
0.074878066
0.058998573
0.039796379
0.016740174
0.093525811
0.094031933
0.095741002
0.098615323
0.10186862
0.10455584
0.10589405
0.10528707
0.10226548
0.09643518
0.087454199
0.075045855
0.05907922
0.03982339
0.016745561
0.095735071
0.096171793
0.097704825
0.10033217
0.10332236
0.10576004
0.10687
0.10605588
0.10284757
0.096851808
0.087729098
0.075206234
0.059155843
0.039848908
0.016750882
0.097893938
0.098263203
0.099625241
0.10201067
0.10474133
0.10693241
0.10781738
0.10679996
0.10340923
0.097252508
0.087992459
0.075359107
0.059228382
0.039872901
0.016756134
0.099999513
0.10030341
0.10149988
0.10364914
0.10612449
0.10807234
0.10873579
0.10751905
0.10395027
0.097637106
0.088244149
0.075504379
0.059296776
0.039895339
0.01676131
0.10204945
0.10229017
0.10332674
0.10524608
0.10747089
0.10917929
0.1096249
0.10821289
0.10447047
0.098005444
0.088484043
0.075641957
0.059360962
0.039916192
0.016766405
0.1040419
0.10422167
0.10510414
0.10680018
0.10877972
0.11025277
0.11048443
0.10888128
0.10496968
0.09835738
0.088712024
0.07577175
0.059420883
0.03993543
0.016771414
0.10597546
0.10609652
0.10683073
0.10831036
0.11005025
0.11129237
0.11131413
0.10952407
0.10544776
0.098692792
0.088927985
0.075893677
0.059476483
0.039953026
0.01677633
0.10784911
0.10791367
0.10850545
0.10977572
0.11128189
0.11229776
0.11211383
0.11014112
0.10590461
0.099011583
0.089131839
0.076007664
0.059527711
0.039968954
0.016781148
0.10966217
0.10967241
0.11012749
0.11119554
0.11247417
0.11326869
0.1128834
0.11073237
0.10634015
0.09931368
0.089323513
0.076113651
0.059574524
0.039983191
0.016785862
0.11141427
0.11137233
0.11169631
0.11256928
0.1136267
0.11420498
0.11362277
0.11129779
0.10675437
0.099599043
0.089502958
0.076211588
0.059616885
0.039995717
0.016790467
0.11310529
0.11301324
0.11321159
0.11389657
0.11473924
0.11510651
0.11433193
0.1118374
0.10714727
0.09986766
0.089670144
0.076301441
0.059654765
0.040006518
0.016794957
0.11473535
0.1145952
0.11467321
0.11517721
0.11581164
0.11597326
0.11501093
0.11235126
0.1075189
0.10011955
0.08982507
0.076383194
0.059688148
0.040015583
0.016799326
0.11630476
0.11611845
0.11608122
0.11641113
0.11684387
0.11680527
0.11565988
0.1128395
0.10786936
0.10035478
0.089967757
0.076456847
0.059717024
0.040022905
0.01680357
0.11781401
0.1175834
0.11743586
0.11759841
0.11783597
0.11760267
0.11627894
0.11330229
0.10819879
0.10057343
0.090098255
0.076522421
0.0597414
0.040028483
0.016807684
0.11926373
0.11899062
0.11873748
0.11873923
0.1187881
0.11836563
0.11686833
0.11373983
0.10850736
0.10077564
0.090216642
0.076579955
0.059761293
0.040032324
0.016811663
0.12065467
0.12034078
0.11998658
0.11983391
0.1197005
0.11909441
0.11742832
0.11415239
0.10879529
0.10096155
0.090323022
0.07662951
0.059776731
0.040034438
0.016815502
0.1219877
0.12163469
0.12118377
0.12088287
0.12057349
0.11978932
0.11795923
0.11454027
0.10906283
0.10113138
0.090417529
0.076671167
0.059787758
0.040034841
0.016819199
0.12326378
0.12287324
0.12232975
0.1218866
0.12140747
0.12045074
0.11846143
0.11490381
0.10931029
0.10128534
0.090500324
0.076705028
0.059794431
0.040033558
0.01682275
0.12448393
0.12405739
0.12342533
0.1228457
0.12220292
0.12107909
0.11893532
0.1152434
0.10953799
0.1014237
0.090571595
0.076731216
0.059796819
0.040030618
0.016826151
0.12564927
0.12518819
0.12447135
0.12376084
0.12296037
0.12167485
0.11938138
0.11555946
0.10974629
0.10154674
0.090631556
0.076749873
0.059795005
0.040026055
0.016829401
0.12676094
0.12626674
0.12546876
0.12463274
0.1236804
0.12223857
0.11980008
0.11585244
0.10993559
0.10165479
0.090680445
0.076761161
0.059789085
0.040019911
0.016832497
0.12782016
0.12729417
0.12641855
0.1254622
0.12436367
0.12277079
0.12019196
0.11612283
0.11010632
0.1017482
0.090718526
0.076765261
0.059779166
0.040012233
0.016835438
0.12882814
0.12827168
0.12732173
0.12625005
0.12501087
0.12327214
0.12055759
0.11637114
0.11025892
0.10182733
0.090746082
0.076762371
0.059765368
0.040003073
0.016838222
0.12978617
0.12920047
0.1281794
0.12699719
0.12562273
0.12374326
0.12089755
0.11659791
0.11039388
0.10189259
0.090763419
0.076752706
0.059747821
0.039992488
0.01684085
0.13069552
0.13008179
0.12899264
0.12770452
0.12620003
0.12418483
0.12121246
0.1168037
0.11051168
0.10194438
0.090770858
0.076736494
0.059726666
0.03998054
0.016843322
0.13155751
0.13091689
0.1297626
0.12837301
0.12674356
0.12459755
0.12150296
0.11698911
0.11061284
0.10198314
0.09076874
0.076713979
0.059702051
0.039967294
0.016845638
0.13237345
0.13170705
0.13049041
0.12900364
0.12725415
0.12498214
0.12176971
0.11715472
0.11069789
0.10200931
0.090757417
0.076685414
0.059674134
0.039952818
0.016847798
0.13314466
0.13245355
0.13117724
0.1295974
0.12773266
0.12533936
0.12201339
0.11730116
0.11076738
0.10202336
0.090737256
0.076651065
0.059643079
0.039937185
0.016849806
0.13387247
0.13315766
0.13182427
0.13015532
0.12817996
0.12566997
0.12223469
0.11742904
0.11082187
0.10202575
0.090708632
0.076611204
0.059609055
0.03992047
0.016851662
0.13455819
0.13382068
0.13243267
0.13067841
0.12859693
0.12597475
0.1224343
0.117539
0.1108619
0.10201698
0.090671929
0.07656611
0.059572235
0.039902747
0.016853369
0.13520315
0.13444388
0.13300361
0.13116771
0.12898446
0.12625447
0.12261293
0.11763168
0.11088806
0.10199751
0.090627536
0.076516069
0.059532798
0.039884094
0.016854929
0.13580864
0.13502854
0.13353829
0.13162426
0.12934345
0.12650994
0.1227713
0.11770773
0.11090092
0.10196785
0.090575847
0.076461369
0.059490923
0.039864588
0.016856347
0.13637598
0.13557591
0.13403787
0.13204911
0.12967481
0.12674194
0.12291012
0.11776779
0.11090104
0.10192848
0.090517257
0.0764023
0.059446789
0.039844308
0.016857624
0.13690644
0.13608726
0.13450352
0.13244328
0.12997945
0.12695129
0.1230301
0.1178125
0.11088901
0.10187989
0.090452162
0.076339151
0.059400576
0.03982333
0.016858766
0.1374013
0.13656383
0.13493639
0.13280783
0.13025827
0.12713877
0.12313196
0.11784251
0.11086538
0.10182257
0.090380957
0.076272213
0.059352465
0.039801732
0.016859775
0.13786182
0.13700684
0.13533765
0.13314376
0.13051218
0.12730518
0.12321641
0.11785846
0.11083074
0.10175701
0.090304036
0.076201774
0.059302633
0.039779588
0.016860655
0.13828924
0.1374175
0.13570841
0.13345211
0.13074207
0.12745132
0.12328416
0.11786098
0.11078564
0.1016837
0.090221787
0.076128118
0.059251256
0.039756972
0.016861412
0.13868478
0.13779702
0.13604981
0.13373389
0.13094883
0.12757797
0.12333592
0.11785071
0.11073065
0.1016031
0.090134595
0.076051528
0.059198505
0.039733956
0.01686205
0.13904966
0.13814658
0.13636296
0.1339901
0.13113337
0.12768593
0.12337238
0.11782827
0.1106663
0.10151569
0.090042839
0.075972279
0.05914455
0.039710611
0.016862572
0.13938507
0.13846733
0.13664895
0.13422174
0.13129655
0.12777596
0.12339424
0.11779427
0.11059315
0.10142193
0.089946894
0.075890644
0.059089557
0.039687003
0.016862985
0.13969216
0.13876042
0.13690885
0.13442978
0.13143924
0.12784883
0.12340217
0.11774933
0.11051174
0.10132229
0.089847126
0.075806889
0.059033685
0.039663199
0.016863291
0.1399721
0.13902697
0.13714373
0.13461519
0.1315623
0.1279053
0.12339686
0.11769404
0.11042259
0.1012172
0.089743893
0.075721273
0.058977093
0.039639261
0.016863497
0.140226
0.13926809
0.13735463
0.13477892
0.13166659
0.12794613
0.12337896
0.117629
0.11032621
0.10110712
0.089637548
0.07563405
0.05891993
0.039615251
0.016863607
0.14045497
0.13948485
0.13754257
0.1349219
0.13175292
0.12797204
0.12334912
0.11755478
0.11022311
0.10099245
0.089528431
0.075545466
0.058862343
0.039591226
0.016863625
0.14066008
0.1396783
0.13770855
0.13504504
0.13182211
0.12798377
0.123308
0.11747195
0.1101138
0.10087364
0.089416876
0.075455757
0.058804473
0.03956724
0.016863557
0.14084238
0.13984947
0.13785354
0.13514924
0.13187498
0.12798201
0.12325622
0.11738107
0.10999875
0.10075108
0.089303205
0.075365154
0.058746454
0.039543347
0.016863407
0.14100289
0.13999937
0.13797849
0.13523538
0.13191229
0.12796747
0.12319439
0.11728268
0.10987843
0.10062516
0.08918773
0.075273878
0.058688416
0.039519596
0.016863181
0.1411426
0.14012896
0.13808433
0.1353043
0.13193482
0.12794082
0.12312311
0.1171773
0.1097533
0.10049627
0.08907075
0.075182139
0.058630479
0.039496033
0.016862882
0.14126247
0.14023918
0.13817195
0.13535683
0.13194331
0.12790273
0.12304296
0.11706545
0.1096238
0.10036478
0.088952553
0.075090139
0.05857276
0.039472701
0.016862515
0.14136342
0.14033096
0.13824223
0.13539378
0.13193848
0.12785382
0.12295451
0.11694761
0.10949036
0.10023105
0.088833415
0.074998068
0.058515366
0.03944964
0.016862085
0.14144638
0.14040517
0.13829602
0.13541592
0.13192103
0.12779474
0.12285831
0.11682428
0.10935338
0.1000954
0.088713596
0.074906107
0.058458398
0.039426887
0.016861597
0.14151219
0.14046267
0.13833411
0.13542401
0.13189164
0.12772606
0.12275489
0.1166959
0.10921327
0.099958164
0.088593346
0.074814426
0.058401951
0.039404474
0.016861054
0.14156171
0.1405043
0.13835732
0.13541878
0.13185097
0.12764839
0.12264475
0.11656293
0.10907039
0.099819653
0.088472899
0.074723182
0.05834611
0.039382432
0.016860461
0.14159576
0.14053084