/*--------------------------------*- C++ -*----------------------------------*\
| =========                 |                                                 |
| \\      /  F ield         | OpenFOAM: The Open Source CFD Toolbox           |
|  \\    /   O peration     | Version:  2506                                  |
|   \\  /    A nd           | Website:  www.openfoam.com                      |
|    \\/     M anipulation  |                                                 |
\*---------------------------------------------------------------------------*/
FoamFile
{
    version     2.0;
    format      ascii;
    arch        "LSB;label=32;scalar=64";
    class       volScalarField;
    location    "22000/water";
    object      T;
}
// * * * * * * * * * * * * * * * * * * * * * * * * * * * * * * * * * * * * * //

dimensions      [0 0 0 1 0 0 0];

internalField   nonuniform List<scalar> 
6000
(
333.15
333.15
333.15
333.15
333.15
333.15
333.15
333.15
333.15
333.15
333.15
333.14998
333.14989
333.14924
333.14256
333.15
333.15
333.15
333.15
333.15
333.15
333.15
333.15
333.15
333.15
333.14999
333.14994
333.14968
333.14816
333.13667
333.15
333.15
333.15
333.15
333.15
333.15
333.15
333.15
333.15
333.14999
333.14997
333.14987
333.14939
333.14689
333.13172
333.15
333.15
333.15
333.15
333.15
333.15
333.15
333.15
333.15
333.14999
333.14994
333.14976
333.14903
333.14547
333.1274
333.15
333.15
333.15
333.15
333.15
333.15
333.15
333.15
333.14999
333.14997
333.1499
333.14963
333.1486
333.14396
333.12352
333.15
333.15
333.15
333.15
333.15
333.15
333.15
333.15
333.14999
333.14996
333.14985
333.14947
333.14812
333.14237
333.11999
333.15
333.15
333.15
333.15
333.15
333.15
333.15
333.14999
333.14998
333.14994
333.14978
333.14929
333.1476
333.14073
333.11674
333.15
333.15
333.15
333.15
333.15
333.15
333.15
333.14999
333.14997
333.14991
333.1497
333.14909
333.14703
333.13906
333.11374
333.15
333.15
333.15
333.15
333.15
333.15
333.15
333.14999
333.14996
333.14987
333.14961
333.14886
333.14643
333.13737
333.11094
333.15
333.15
333.15
333.15
333.15
333.15
333.14999
333.14998
333.14994
333.14983
333.14951
333.14862
333.14578
333.13567
333.10832
333.15
333.15
333.15
333.15
333.15
333.15
333.14999
333.14998
333.14993
333.14978
333.1494
333.14836
333.1451
333.13397
333.10587
333.15
333.15
333.15
333.15
333.15
333.15
333.14999
333.14997
333.1499
333.14973
333.14928
333.14807
333.14437
333.13227
333.10359
333.15
333.15
333.15
333.15
333.15
333.14999
333.14998
333.14996
333.14988
333.14967
333.14915
333.14777
333.14361
333.1306
333.10145
333.15
333.15
333.15
333.15
333.15
333.14999
333.14998
333.14994
333.14985
333.14961
333.14901
333.14745
333.1428
333.12894
333.09946
333.15
333.15
333.15
333.15
333.15
333.14999
333.14997
333.14993
333.14982
333.14954
333.14886
333.1471
333.14196
333.12731
333.09761
333.15
333.15
333.15
333.15
333.15
333.14999
333.14997
333.14991
333.14978
333.14946
333.1487
333.14673
333.14107
333.12572
333.0959
333.15
333.15
333.15
333.15
333.14999
333.14998
333.14996
333.1499
333.14974
333.14938
333.14852
333.14634
333.14013
333.12417
333.09431
333.15
333.15
333.15
333.15
333.14999
333.14998
333.14995
333.14988
333.1497
333.14929
333.14834
333.14591
333.13916
333.12267
333.09286
333.15
333.15
333.15
333.15
333.14999
333.14998
333.14994
333.14985
333.14965
333.1492
333.14814
333.14546
333.13814
333.12121
333.09153
333.15
333.15
333.15
333.14999
333.14999
333.14997
333.14993
333.14983
333.1496
333.1491
333.14793
333.14497
333.1371
333.11982
333.09032
333.15
333.15
333.15
333.14999
333.14999
333.14997
333.14992
333.1498
333.14955
333.14899
333.1477
333.14444
333.13602
333.11848
333.08923
333.15
333.15
333.15
333.14999
333.14998
333.14996
333.1499
333.14977
333.14949
333.14887
333.14745
333.14388
333.13491
333.11721
333.08824
333.15
333.15
333.15
333.14999
333.14998
333.14995
333.14989
333.14974
333.14943
333.14875
333.14719
333.14328
333.1338
333.116
333.08734
333.15
333.15
333.14999
333.14999
333.14998
333.14994
333.14987
333.14971
333.14936
333.14861
333.1469
333.14264
333.13267
333.11485
333.08653
333.15
333.15
333.14999
333.14999
333.14997
333.14993
333.14985
333.14967
333.14929
333.14847
333.14659
333.14195
333.13155
333.11377
333.08581
333.15
333.15
333.14999
333.14998
333.14997
333.14992
333.14983
333.14963
333.14921
333.14831
333.14625
333.14123
333.13043
333.11275
333.08515
333.15
333.15
333.14999
333.14998
333.14996
333.14991
333.14981
333.14959
333.14913
333.14815
333.14589
333.14047
333.12933
333.11179
333.08456
333.15
333.14999
333.14999
333.14998
333.14996
333.1499
333.14979
333.14954
333.14904
333.14797
333.14549
333.13968
333.12826
333.11088
333.08403
333.15
333.14999
333.14999
333.14998
333.14995
333.14989
333.14976
333.14949
333.14895
333.14777
333.14507
333.13886
333.12722
333.11003
333.08354
333.14999
333.14999
333.14999
333.14997
333.14994
333.14987
333.14973
333.14944
333.14884
333.14756
333.14461
333.13801
333.12621
333.10923
333.0831
333.14999
333.14999
333.14998
333.14997
333.14993
333.14986
333.1497
333.14939
333.14873
333.14733
333.14412
333.13716
333.12523
333.10848
333.08271
333.14999
333.14999
333.14998
333.14996
333.14992
333.14984
333.14967
333.14932
333.14862
333.14708
333.14359
333.13629
333.1243
333.10777
333.08234
333.14999
333.14999
333.14998
333.14996
333.14991
333.14982
333.14964
333.14926
333.14849
333.14681
333.14304
333.13542
333.1234
333.1071
333.08201
333.14999
333.14999
333.14998
333.14995
333.1499
333.1498
333.1496
333.14919
333.14835
333.14652
333.14245
333.13456
333.12254
333.10646
333.08171
333.14999
333.14998
333.14997
333.14995
333.14989
333.14978
333.14956
333.14911
333.1482
333.1462
333.14184
333.1337
333.12172
333.10586
333.08143
333.14999
333.14998
333.14997
333.14994
333.14988
333.14976
333.14952
333.14903
333.14803
333.14586
333.1412
333.13286
333.12093
333.1053
333.08117
333.14999
333.14998
333.14997
333.14993
333.14987
333.14974
333.14947
333.14895
333.14786
333.14549
333.14054
333.13203
333.12018
333.10476
333.08093
333.14998
333.14998
333.14996
333.14993
333.14985
333.14971
333.14942
333.14885
333.14766
333.1451
333.13987
333.13122
333.11946
333.10425
333.08071
333.14998
333.14998
333.14996
333.14992
333.14984
333.14968
333.14937
333.14875
333.14745
333.14467
333.13918
333.13043
333.11878
333.10377
333.0805
333.14998
333.14997
333.14995
333.14991
333.14982
333.14965
333.14931
333.14864
333.14723
333.14423
333.13849
333.12966
333.11812
333.10331
333.08031
333.14998
333.14997
333.14995
333.1499
333.1498
333.14962
333.14925
333.14852
333.14698
333.14376
333.13779
333.12892
333.11749
333.10287
333.08014
333.14997
333.14996
333.14994
333.14989
333.14978
333.14958
333.14918
333.14839
333.14672
333.14326
333.1371
333.1282
333.11689
333.10246
333.07997
333.14997
333.14996
333.14993
333.14988
333.14976
333.14954
333.14911
333.14824
333.14643
333.14275
333.1364
333.1275
333.11631
333.10206
333.07982
333.14997
333.14996
333.14993
333.14986
333.14974
333.1495
333.14903
333.14809
333.14612
333.14222
333.13572
333.12682
333.11576
333.10168
333.07967
333.14996
333.14995
333.14992
333.14985
333.14972
333.14946
333.14895
333.14792
333.14579
333.14167
333.13504
333.12617
333.11522
333.10132
333.07954
333.14996
333.14995
333.14991
333.14984
333.14969
333.14941
333.14886
333.14774
333.14544
333.14111
333.13437
333.12554
333.11471
333.10097
333.07941
333.14995
333.14994
333.1499
333.14982
333.14966
333.14936
333.14876
333.14754
333.14507
333.14054
333.13371
333.12492
333.11422
333.10064
333.0793
333.14995
333.14993
333.14989
333.1498
333.14963
333.1493
333.14865
333.14733
333.14468
333.13997
333.13307
333.12433
333.11375
333.10032
333.07919
333.14994
333.14993
333.14988
333.14979
333.1496
333.14924
333.14854
333.1471
333.14427
333.13939
333.13244
333.12376
333.1133
333.10002
333.07909
333.14994
333.14992
333.14987
333.14977
333.14957
333.14918
333.14841
333.14686
333.14384
333.13881
333.13182
333.12321
333.11286
333.09973
333.07899
333.14993
333.14991
333.14986
333.14974
333.14953
333.14911
333.14827
333.14659
333.1434
333.13822
333.13122
333.12267
333.11244
333.09945
333.0789
333.14993
333.1499
333.14984
333.14972
333.14949
333.14903
333.14812
333.14631
333.14294
333.13765
333.13063
333.12215
333.11203
333.09918
333.07882
333.14992
333.14989
333.14983
333.1497
333.14944
333.14894
333.14796
333.14601
333.14247
333.13707
333.13006
333.12165
333.11164
333.09892
333.07874
333.14991
333.14988
333.14981
333.14967
333.14939
333.14885
333.14779
333.14569
333.14199
333.1365
333.1295
333.12116
333.11126
333.09867
333.07867
333.1499
333.14987
333.1498
333.14964
333.14934
333.14876
333.1476
333.14536
333.1415
333.13594
333.12895
333.12069
333.11089
333.09843
333.0786
333.14989
333.14986
333.14978
333.14961
333.14928
333.14865
333.1474
333.14501
333.14101
333.13539
333.12842
333.12023
333.11053
333.0982
333.07853
333.14988
333.14985
333.14976
333.14958
333.14922
333.14853
333.14718
333.14464
333.14051
333.13484
333.1279
333.11979
333.11019
333.09797
333.07847
333.14987
333.14983
333.14974
333.14954
333.14916
333.14841
333.14695
333.14426
333.14001
333.1343
333.12739
333.11936
333.10986
333.09776
333.07842
333.14986
333.14982
333.14971
333.1495
333.14908
333.14827
333.1467
333.14387
333.13951
333.13377
333.1269
333.11894
333.10954
333.09755
333.07837
333.14985
333.1498
333.14969
333.14946
333.149
333.14812
333.14643
333.14346
333.139
333.13325
333.12642
333.11853
333.10922
333.09735
333.07832
333.14983
333.14978
333.14966
333.14941
333.14892
333.14797
333.14615
333.14304
333.1385
333.13274
333.12595
333.11814
333.10892
333.09715
333.07827
333.14982
333.14976
333.14963
333.14936
333.14883
333.14779
333.14586
333.14262
333.138
333.13223
333.12549
333.11775
333.10863
333.09697
333.07823
333.1498
333.14974
333.1496
333.1493
333.14872
333.14761
333.14555
333.14219
333.13751
333.13174
333.12505
333.11738
333.10834
333.09678
333.07819
333.14978
333.14972
333.14956
333.14924
333.14861
333.14741
333.14523
333.14175
333.13702
333.13126
333.12461
333.11702
333.10806
333.09661
333.07816
333.14976
333.1497
333.14952
333.14918
333.1485
333.1472
333.14489
333.14131
333.13653
333.13078
333.12419
333.11666
333.10779
333.09644
333.07812
333.14974
333.14967
333.14948
333.1491
333.14837
333.14697
333.14454
333.14086
333.13605
333.13032
333.12377
333.11632
333.10753
333.09627
333.07809
333.14972
333.14964
333.14944
333.14903
333.14823
333.14674
333.14418
333.14041
333.13557
333.12986
333.12337
333.11598
333.10728
333.09611
333.07807
333.14969
333.14961
333.14939
333.14894
333.14808
333.14648
333.14381
333.13996
333.1351
333.12942
333.12297
333.11565
333.10703
333.09595
333.07804
333.14967
333.14957
333.14933
333.14885
333.14792
333.14621
333.14343
333.13951
333.13464
333.12898
333.12259
333.11533
333.10679
333.0958
333.07802
333.14964
333.14954
333.14928
333.14875
333.14774
333.14593
333.14304
333.13906
333.13418
333.12855
333.12221
333.11502
333.10655
333.09565
333.07799
333.14961
333.1495
333.14921
333.14864
333.14756
333.14564
333.14265
333.13862
333.13373
333.12813
333.12184
333.11472
333.10632
333.09551
333.07797
333.14957
333.14945
333.14914
333.14852
333.14736
333.14533
333.14225
333.13817
333.13328
333.12772
333.12148
333.11442
333.1061
333.09537
333.07795
333.14953
333.1494
333.14907
333.1484
333.14714
333.14501
333.14184
333.13773
333.13285
333.12731
333.12113
333.11413
333.10588
333.09524
333.07793
333.14949
333.14935
333.14899
333.14826
333.14692
333.14468
333.14143
333.13729
333.13241
333.12692
333.12078
333.11384
333.10566
333.0951
333.07792
333.14944
333.14929
333.1489
333.14811
333.14668
333.14434
333.14102
333.13685
333.13199
333.12653
333.12044
333.11357
333.10545
333.09498
333.0779
333.14939
333.14923
333.1488
333.14795
333.14643
333.14399
333.14061
333.13642
333.13157
333.12615
333.12011
333.1133
333.10525
333.09485
333.07789
333.14934
333.14916
333.14869
333.14778
333.14616
333.14364
333.1402
333.13599
333.13116
333.12577
333.11979
333.11303
333.10505
333.09473
333.07787
333.14928
333.14908
333.14858
333.14759
333.14588
333.14327
333.13978
333.13557
333.13075
333.1254
333.11947
333.11277
333.10486
333.09461
333.07786
333.14921
333.149
333.14845
333.1474
333.14559
333.1429
333.13937
333.13515
333.13035
333.12504
333.11916
333.11252
333.10467
333.09449
333.07785
333.14914
333.14891
333.14832
333.14719
333.14529
333.14252
333.13895
333.13473
333.12996
333.12469
333.11885
333.11227
333.10448
333.09438
333.07784
333.14906
333.14881
333.14817
333.14696
333.14498
333.14214
333.13854
333.13432
333.12957
333.12434
333.11855
333.11202
333.1043
333.09427
333.07783
333.14897
333.1487
333.14801
333.14673
333.14466
333.14176
333.13813
333.13391
333.12919
333.124
333.11826
333.11178
333.10412
333.09416
333.07782
333.14888
333.14858
333.14784
333.14648
333.14433
333.14137
333.13772
333.13351
333.12882
333.12366
333.11797
333.11155
333.10394
333.09405
333.07781
333.14877
333.14845
333.14765
333.14621
333.14399
333.14098
333.13731
333.13311
333.12845
333.12333
333.11769
333.11132
333.10377
333.09394
333.0778
333.14866
333.14831
333.14746
333.14594
333.14364
333.14059
333.13691
333.13272
333.12808
333.12301
333.11741
333.11109
333.1036
333.09384
333.07779
333.14853
333.14816
333.14725
333.14565
333.14328
333.14019
333.1365
333.13233
333.12772
333.12269
333.11714
333.11087
333.10343
333.09374
333.07778
333.14839
333.14799
333.14702
333.14535
333.14292
333.1398
333.1361
333.13195
333.12737
333.12237
333.11687
333.11065
333.10327
333.09364
333.07777
333.14824
333.14781
333.14678
333.14504
333.14255
333.1394
333.13571
333.13157
333.12702
333.12207
333.11661
333.11044
333.10311
333.09354
333.07776
333.14807
333.14761
333.14653
333.14472
333.14218
333.139
333.13531
333.13119
333.12668
333.12176
333.11635
333.11023
333.10295
333.09345
333.07775
333.14789
333.1474
333.14626
333.14439
333.1418
333.13861
333.13492
333.13082
333.12634
333.12146
333.11609
333.11002
333.1028
333.09335
333.07775
333.14769
333.14718
333.14598
333.14404
333.14142
333.13821
333.13453
333.13046
333.12601
333.12117
333.11584
333.10981
333.10264
333.09326
333.07774
333.14748
333.14694
333.14568
333.14369
333.14104
333.13782
333.13415
333.13009
333.12568
333.12088
333.11559
333.10961
333.10249
333.09317
333.07773
333.14725
333.14668
333.14537
333.14334
333.14065
333.13743
333.13377
333.12974
333.12536
333.12059
333.11535
333.10942
333.10235
333.09308
333.07772
333.147
333.1464
333.14505
333.14297
333.14026
333.13703
333.13339
333.12938
333.12504
333.12031
333.11511
333.10922
333.1022
333.09299
333.07771
333.14673
333.14611
333.14471
333.1426
333.13987
333.13664
333.13301
333.12904
333.12472
333.12004
333.11488
333.10903
333.10205
333.0929
333.0777
333.14644
333.1458
333.14436
333.14222
333.13947
333.13625
333.13264
333.12869
333.12441
333.11976
333.11464
333.10884
333.10191
333.09281
333.07769
333.14613
333.14547
333.144
333.14183
333.13908
333.13586
333.13227
333.12835
333.1241
333.11949
333.11441
333.10865
333.10177
333.09272
333.07768
333.14581
333.14512
333.14363
333.14144
333.13868
333.13547
333.1319
333.12801
333.1238
333.11923
333.11419
333.10847
333.10163
333.09264
333.07767
333.14546
333.14477
333.14325
333.14104
333.13828
333.13509
333.13154
333.12768
333.1235
333.11896
333.11396
333.10829
333.1015
333.09255
333.07766
333.1451
333.14439
333.14286
333.14064
333.13788
333.13471
333.13118
333.12735
333.12321
333.11871
333.11374
333.10811
333.10136
333.09246
333.07764
333.14472
333.144
333.14246
333.14024
333.13749
333.13432
333.13083
333.12702
333.12291
333.11845
333.11353
333.10793
333.10123
333.09238
333.07763
333.14432
333.1436
333.14205
333.13983
333.13709
333.13394
333.13047
333.1267
333.12262
333.1182
333.11331
333.10775
333.10109
333.0923
333.07762
333.14391
333.14318
333.14163
333.13941
333.13669
333.13357
333.13012
333.12638
333.12234
333.11795
333.1131
333.10758
333.10096
333.09221
333.0776
333.14348
333.14275
333.1412
333.139
333.13629
333.13319
333.12977
333.12606
333.12206
333.1177
333.11289
333.10741
333.10083
333.09213
333.07759
333.14304
333.14231
333.14077
333.13858
333.13589
333.13281
333.12943
333.12575
333.12177
333.11745
333.11268
333.10724
333.1007
333.09205
333.07757
333.14258
333.14186
333.14033
333.13815
333.13549
333.13244
333.12908
333.12544
333.1215
333.11721
333.11247
333.10707
333.10057
333.09197
333.07756
333.14212
333.1414
333.13988
333.13773
333.13509
333.13207
333.12874
333.12513
333.12122
333.11697
333.11227
333.1069
333.10044
333.09188
333.07754
333.14165
333.14094
333.13943
333.1373
333.13469
333.1317
333.1284
333.12482
333.12095
333.11673
333.11207
333.10674
333.10032
333.0918
333.07752
333.14116
333.14046
333.13898
333.13687
333.13429
333.13133
333.12807
333.12452
333.12068
333.1165
333.11187
333.10657
333.10019
333.09172
333.0775
333.14068
333.13999
333.13852
333.13644
333.13389
333.13096
333.12773
333.12422
333.12041
333.11627
333.11167
333.10641
333.10007
333.09164
333.07748
333.14018
333.1395
333.13806
333.13601
333.13349
333.1306
333.1274
333.12392
333.12015
333.11603
333.11147
333.10625
333.09994
333.09156
333.07746
333.13968
333.13901
333.1376
333.13558
333.13309
333.13023
333.12707
333.12362
333.11988
333.1158
333.11127
333.10609
333.09982
333.09147
333.07744
333.13918
333.13852
333.13713
333.13515
333.13269
333.12987
333.12674
333.12333
333.11962
333.11558
333.11108
333.10593
333.09969
333.09139
333.07741
333.13867
333.13803
333.13667
333.13471
333.13229
333.1295
333.12641
333.12303
333.11936
333.11535
333.11089
333.10577
333.09957
333.09131
333.07739
333.13817
333.13754
333.1362
333.13428
333.13189
333.12914
333.12608
333.12274
333.11911
333.11513
333.11069
333.10561
333.09945
333.09123
333.07736
333.13766
333.13704
333.13573
333.13385
333.1315
333.12878
333.12576
333.12245
333.11885
333.1149
333.1105
333.10545
333.09932
333.09114
333.07733
333.13715
333.13655
333.13526
333.13341
333.1311
333.12842
333.12544
333.12216
333.11859
333.11468
333.11031
333.10529
333.0992
333.09106
333.07731
333.13665
333.13606
333.1348
333.13298
333.13071
333.12807
333.12512
333.12188
333.11834
333.11446
333.11012
333.10514
333.09908
333.09097
333.07728
333.13614
333.13556
333.13433
333.13255
333.13031
333.12771
333.1248
333.12159
333.11809
333.11424
333.10994
333.10498
333.09896
333.09089
333.07724
333.13564
333.13507
333.13387
333.13212
333.12992
333.12736
333.12448
333.12131
333.11784
333.11402
333.10975
333.10482
333.09883
333.0908
333.07721
333.13514
333.13459
333.13341
333.13169
333.12953
333.127
333.12416
333.12102
333.11759
333.1138
333.10956
333.10467
333.09871
333.09072
333.07718
333.13464
333.1341
333.13295
333.13127
333.12914
333.12665
333.12384
333.12074
333.11734
333.11358
333.10938
333.10451
333.09859
333.09063
333.07714
333.13414
333.13362
333.13249
333.13084
333.12876
333.1263
333.12353
333.12046
333.11709
333.11337
333.10919
333.10436
333.09846
333.09054
333.0771
333.13365
333.13314
333.13204
333.13042
333.12837
333.12595
333.12322
333.12018
333.11684
333.11315
333.10901
333.1042
333.09834
333.09045
333.07706
333.13317
333.13266
333.13158
333.13
333.12799
333.1256
333.1229
333.1199
333.1166
333.11294
333.10882
333.10405
333.09822
333.09036
333.07702
333.13268
333.13219
333.13114
333.12958
333.1276
333.12526
333.12259
333.11963
333.11635
333.11272
333.10864
333.10389
333.09809
333.09027
333.07698
333.1322
333.13173
333.13069
333.12917
333.12722
333.12491
333.12228
333.11935
333.11611
333.11251
333.10845
333.10374
333.09797
333.09018
333.07693
333.13173
333.13126
333.13025
333.12876
333.12685
333.12457
333.12198
333.11908
333.11587
333.1123
333.10827
333.10358
333.09784
333.09009
333.07688
333.13126
333.1308
333.12981
333.12835
333.12647
333.12423
333.12167
333.1188
333.11562
333.11208
333.10808
333.10343
333.09771
333.09
333.07683
333.1308
333.13035
333.12938
333.12794
333.1261
333.12389
333.12136
333.11853
333.11538
333.11187
333.1079
333.10327
333.09759
333.0899
333.07678
333.13034
333.1299
333.12895
333.12754
333.12573
333.12356
333.12106
333.11826
333.11514
333.11166
333.10771
333.10311
333.09746
333.0898
333.07673
333.12988
333.12946
333.12852
333.12714
333.12536
333.12322
333.12076
333.11799
333.1149
333.11145
333.10753
333.10296
333.09733
333.08971
333.07667
333.12944
333.12902
333.1281
333.12675
333.125
333.12289
333.12046
333.11772
333.11466
333.11123
333.10735
333.1028
333.0972
333.08961
333.07662
333.12899
333.12858
333.12769
333.12636
333.12463
333.12256
333.12016
333.11745
333.11442
333.11102
333.10716
333.10264
333.09707
333.08951
333.07656
333.12855
333.12815
333.12727
333.12597
333.12428
333.12223
333.11986
333.11718
333.11418
333.11081
333.10698
333.10248
333.09694
333.0894
333.07649
333.12812
333.12773
333.12687
333.12559
333.12392
333.1219
333.11956
333.11691
333.11394
333.1106
333.10679
333.10233
333.09681
333.0893
333.07643
333.12769
333.1273
333.12646
333.1252
333.12357
333.12158
333.11927
333.11665
333.1137
333.11039
333.10661
333.10217
333.09667
333.0892
333.07636
333.12727
333.12689
333.12606
333.12483
333.12321
333.12126
333.11898
333.11638
333.11347
333.11018
333.10642
333.10201
333.09654
333.08909
333.0763
333.12685
333.12648
333.12567
333.12445
333.12287
333.12094
333.11868
333.11612
333.11323
333.10997
333.10624
333.10185
333.0964
333.08898
333.07623
333.12644
333.12607
333.12528
333.12408
333.12252
333.12062
333.11839
333.11586
333.113
333.10976
333.10605
333.10169
333.09627
333.08887
333.07615
333.12603
333.12567
333.12489
333.12372
333.12218
333.1203
333.11811
333.1156
333.11276
333.10955
333.10587
333.10152
333.09613
333.08876
333.07608
333.12563
333.12528
333.12451
333.12336
333.12184
333.11999
333.11782
333.11534
333.11253
333.10934
333.10568
333.10136
333.09599
333.08865
333.076
333.12523
333.12488
333.12413
333.123
333.12151
333.11968
333.11754
333.11508
333.11229
333.10913
333.1055
333.1012
333.09585
333.08853
333.07592
333.12484
333.1245
333.12376
333.12264
333.12117
333.11937
333.11725
333.11482
333.11206
333.10892
333.10531
333.10104
333.09571
333.08842
333.07584
333.12445
333.12412
333.12339
333.12229
333.12084
333.11906
333.11697
333.11456
333.11183
333.10871
333.10512
333.10087
333.09557
333.0883
333.07575
333.12407
333.12374
333.12302
333.12194
333.12052
333.11876
333.11669
333.11431
333.1116
333.1085
333.10494
333.10071
333.09543
333.08818
333.07567
333.12369
333.12337
333.12266
333.1216
333.12019
333.11846
333.11641
333.11405
333.11136
333.10829
333.10475
333.10054
333.09528
333.08806
333.07558
333.12332
333.123
333.1223
333.12126
333.11987
333.11816
333.11614
333.1138
333.11113
333.10809
333.10456
333.10037
333.09514
333.08794
333.07549
333.12295
333.12263
333.12195
333.12092
333.11955
333.11786
333.11586
333.11355
333.1109
333.10788
333.10437
333.10021
333.09499
333.08782
333.07539
333.12258
333.12228
333.1216
333.12059
333.11924
333.11757
333.11559
333.1133
333.11067
333.10767
333.10419
333.10004
333.09484
333.08769
333.0753
333.12222
333.12192
333.12126
333.12025
333.11892
333.11728
333.11532
333.11305
333.11045
333.10746
333.104
333.09987
333.09469
333.08756
333.0752
333.12187
333.12157
333.12092
333.11993
333.11861
333.11699
333.11505
333.1128
333.11022
333.10725
333.10381
333.0997
333.09454
333.08743
333.0751
333.12152
333.12122
333.12058
333.1196
333.11831
333.1167
333.11478
333.11255
333.10999
333.10705
333.10362
333.09953
333.09439
333.0873
333.075
333.12117
333.12088
333.12025
333.11928
333.118
333.11641
333.11451
333.1123
333.10976
333.10684
333.10343
333.09936
333.09424
333.08717
333.07489
333.12083
333.12054
333.11992
333.11897
333.1177
333.11613
333.11425
333.11206
333.10954
333.10663
333.10324
333.09919
333.09409
333.08704
333.07479
333.12049
333.12021
333.11959
333.11865
333.1174
333.11585
333.11399
333.11181
333.10931
333.10642
333.10305
333.09902
333.09393
333.0869
333.07468
333.12015
333.11988
333.11927
333.11834
333.11711
333.11557
333.11372
333.11157
333.10909
333.10622
333.10286
333.09885
333.09378
333.08677
333.07457
333.11982
333.11955
333.11895
333.11803
333.11681
333.11529
333.11346
333.11133
333.10886
333.10601
333.10267
333.09867
333.09362
333.08663
333.07445
333.11949
333.11922
333.11863
333.11773
333.11652
333.11501
333.11321
333.11109
333.10864
333.1058
333.10248
333.0985
333.09347
333.08649
333.07434
333.11917
333.1189
333.11832
333.11743
333.11623
333.11474
333.11295
333.11085
333.10841
333.1056
333.10229
333.09832
333.09331
333.08635
333.07422
333.11885
333.11859
333.11801
333.11713
333.11595
333.11447
333.11269
333.11061
333.10819
333.10539
333.1021
333.09815
333.09315
333.08621
333.07411
333.11853
333.11827
333.1177
333.11683
333.11566
333.1142
333.11244
333.11037
333.10797
333.10518
333.10191
333.09797
333.09299
333.08607
333.07399
333.11822
333.11797
333.1174
333.11654
333.11538
333.11393
333.11219
333.11013
333.10775
333.10498
333.10172
333.0978
333.09283
333.08592
333.07386
333.11791
333.11766
333.1171
333.11625
333.1151
333.11367
333.11194
333.1099
333.10753
333.10477
333.10153
333.09762
333.09266
333.08578
333.07374
333.11761
333.11736
333.1168
333.11596
333.11483
333.1134
333.11169
333.10966
333.10731
333.10457
333.10134
333.09744
333.0925
333.08563
333.07361
333.1173
333.11706
333.11651
333.11567
333.11455
333.11314
333.11144
333.10943
333.10709
333.10436
333.10115
333.09726
333.09234
333.08548
333.07349
333.117
333.11676
333.11622
333.11539
333.11428
333.11288
333.11119
333.1092
333.10687
333.10415
333.10095
333.09709
333.09217
333.08533
333.07336
333.11671
333.11646
333.11593
333.11511
333.11401
333.11262
333.11095
333.10896
333.10665
333.10395
333.10076
333.09691
333.09201
333.08518
333.07323
333.11641
333.11617
333.11564
333.11483
333.11374
333.11237
333.1107
333.10873
333.10643
333.10374
333.10057
333.09673
333.09184
333.08503
333.0731
333.11612
333.11588
333.11536
333.11456
333.11348
333.11211
333.11046
333.1085
333.10621
333.10354
333.10038
333.09655
333.09167
333.08487
333.07296
333.11583
333.1156
333.11508
333.11428
333.11321
333.11186
333.11022
333.10827
333.106
333.10333
333.10019
333.09637
333.09151
333.08472
333.07283
333.11555
333.11532
333.1148
333.11401
333.11295
333.11161
333.10998
333.10804
333.10578
333.10313
333.09999
333.09619
333.09134
333.08457
333.07269
333.11527
333.11504
333.11453
333.11374
333.11269
333.11136
333.10974
333.10782
333.10556
333.10292
333.0998
333.096
333.09117
333.08441
333.07255
333.11499
333.11476
333.11425
333.11348
333.11243
333.11111
333.1095
333.10759
333.10535
333.10272
333.09961
333.09582
333.091
333.08425
333.07241
333.11471
333.11448
333.11398
333.11321
333.11217
333.11086
333.10926
333.10736
333.10513
333.10252
333.09941
333.09564
333.09082
333.08409
333.07227
333.11443
333.11421
333.11371
333.11295
333.11192
333.11062
333.10903
333.10714
333.10492
333.10231
333.09922
333.09546
333.09065
333.08393
333.07213
333.11416
333.11394
333.11345
333.11269
333.11167
333.11037
333.10879
333.10691
333.1047
333.10211
333.09903
333.09527
333.09048
333.08377
333.07199
333.11389
333.11367
333.11318
333.11243
333.11142
333.11013
333.10856
333.10669
333.10449
333.1019
333.09883
333.09509
333.09031
333.08361
333.07184
333.11363
333.11341
333.11292
333.11217
333.11117
333.10989
333.10833
333.10647
333.10428
333.1017
333.09864
333.09491
333.09013
333.08345
333.0717
333.11336
333.11314
333.11266
333.11192
333.11092
333.10965
333.1081
333.10625
333.10406
333.1015
333.09844
333.09472
333.08996
333.08329
333.07155
333.1131
333.11288
333.1124
333.11167
333.11067
333.10941
333.10787
333.10602
333.10385
333.10129
333.09825
333.09454
333.08978
333.08312
333.0714
333.11284
333.11262
333.11215
333.11142
333.11043
333.10917
333.10764
333.1058
333.10364
333.10109
333.09806
333.09435
333.08961
333.08296
333.07126
333.11258
333.11236
333.11189
333.11117
333.11018
333.10893
333.10741
333.10558
333.10343
333.10089
333.09786
333.09417
333.08943
333.0828
333.0711
333.11232
333.11211
333.11164
333.11092
333.10994
333.1087
333.10718
333.10536
333.10322
333.10068
333.09767
333.09398
333.08926
333.08263
333.07095
333.11206
333.11185
333.11139
333.11067
333.1097
333.10847
333.10695
333.10514
333.10301
333.10048
333.09747
333.09379
333.08908
333.08246
333.0708
333.11181
333.1116
333.11114
333.11043
333.10946
333.10823
333.10673
333.10493
333.1028
333.10028
333.09728
333.09361
333.0889
333.0823
333.07065
333.11156
333.11135
333.11089
333.11018
333.10922
333.108
333.1065
333.10471
333.10259
333.10008
333.09708
333.09342
333.08872
333.08213
333.07049
333.11131
333.1111
333.11065
333.10994
333.10899
333.10777
333.10628
333.10449
333.10238
333.09987
333.09689
333.09323
333.08855
333.08196
333.07034
333.11106
333.11086
333.1104
333.1097
333.10875
333.10754
333.10606
333.10428
333.10217
333.09967
333.09669
333.09305
333.08837
333.08179
333.07018
333.11081
333.11061
333.11016
333.10946
333.10852
333.10731
333.10583
333.10406
333.10196
333.09947
333.0965
333.09286
333.08819
333.08162
333.07002
333.11057
333.11037
333.10992
333.10923
333.10829
333.10709
333.10561
333.10384
333.10175
333.09927
333.0963
333.09267
333.08801
333.08145
333.06987
333.11033
333.11013
333.10968
333.10899
333.10805
333.10686
333.10539
333.10363
333.10154
333.09907
333.09611
333.09248
333.08783
333.08128
333.06971
333.11009
333.10989
333.10944
333.10876
333.10782
333.10663
333.10517
333.10342
333.10133
333.09887
333.09591
333.09229
333.08765
333.08111
333.06955
333.10985
333.10965
333.1092
333.10852
333.10759
333.10641
333.10495
333.1032
333.10113
333.09866
333.09572
333.09211
333.08747
333.08093
333.06939
333.10961
333.10941
333.10897
333.10829
333.10736
333.10618
333.10473
333.10299
333.10092
333.09846
333.09552
333.09192
333.08728
333.08076
333.06923
333.10937
333.10917
333.10873
333.10806
333.10714
333.10596
333.10451
333.10278
333.10071
333.09826
333.09533
333.09173
333.0871
333.08059
333.06906
333.10913
333.10894
333.1085
333.10783
333.10691
333.10574
333.1043
333.10256
333.1005
333.09806
333.09513
333.09154
333.08692
333.08041
333.0689
333.1089
333.1087
333.10827
333.1076
333.10668
333.10552
333.10408
333.10235
333.1003
333.09786
333.09494
333.09135
333.08674
333.08024
333.06874
333.10867
333.10847
333.10804
333.10737
333.10646
333.1053
333.10386
333.10214
333.10009
333.09766
333.09474
333.09116
333.08656
333.08006
333.06857
333.10843