/*--------------------------------*- C++ -*----------------------------------*\
| =========                 |                                                 |
| \\      /  F ield         | OpenFOAM: The Open Source CFD Toolbox           |
|  \\    /   O peration     | Version:  2506                                  |
|   \\  /    A nd           | Website:  www.openfoam.com                      |
|    \\/     M anipulation  |                                                 |
\*---------------------------------------------------------------------------*/
FoamFile
{
    version     2.0;
    format      ascii;
    arch        "LSB;label=32;scalar=64";
    class       volVectorField;
    location    "22000/water";
    object      U;
}
// * * * * * * * * * * * * * * * * * * * * * * * * * * * * * * * * * * * * * //

dimensions      [0 1 -1 0 0 0 0];

internalField   nonuniform List<vector> 
6000
(
(0.25028648 -3.4193493e-05 -1.4193822e-18)
(0.25028875 -7.4648812e-05 -5.0465363e-18)
(0.25029344 -0.00011804414 -6.7311651e-19)
(0.25030059 -0.00016540046 3.5968392e-19)
(0.25031046 -0.00021487336 -4.6207798e-19)
(0.25032332 -0.00026685039 -9.3861452e-20)
(0.25033948 -0.00032192175 -4.3863038e-20)
(0.25035939 -0.00038078672 -2.9378871e-20)
(0.25038356 -0.00044434477 8.8695892e-20)
(0.25041254 -0.00051362452 1.0711117e-19)
(0.25044587 -0.0005867756 3.168776e-20)
(0.25047643 -0.00065822056 2.6447411e-19)
(0.25046276 -0.00078466513 -7.633999e-20)
(0.25013031 -0.0015987837 1.3127408e-19)
(0.24584996 0.0019968142 -9.4554318e-20)
(0.25104035 -3.7261305e-05 4.3120598e-19)
(0.25104514 -8.989598e-05 -2.8798603e-18)
(0.2510558 -0.00014352114 -7.8768837e-21)
(0.25107219 -0.00020025424 5.2086903e-19)
(0.2510947 -0.0002571822 2.9881e-19)
(0.25112368 -0.00031440571 -1.3994411e-19)
(0.25115965 -0.00037188242 -8.2706401e-21)
(0.25120324 -0.00042947839 -1.97949e-19)
(0.2512551 -0.00048709454 3.2110311e-21)
(0.25131538 -0.00054561245 1.1022847e-19)
(0.25138039 -0.00060405492 1.4007763e-19)
(0.25142587 -0.00063755822 3.7887845e-19)
(0.25133175 -0.00059164843 -6.8591243e-20)
(0.25037931 -0.0014370973 1.9532282e-19)
(0.24194277 0.00099520264 -5.2282517e-20)
(0.25195051 -3.6589029e-05 -2.0130049e-18)
(0.25195563 -9.0250614e-05 2.5830159e-18)
(0.25196731 -0.00014313025 2.3313884e-18)
(0.25198528 -0.00019912656 -1.0619518e-18)
(0.25200977 -0.00025508716 2.1897624e-19)
(0.25204101 -0.0003112558 -1.1357539e-18)
(0.25207932 -0.00036762123 -8.1469315e-19)
(0.25212505 -0.00042413945 -7.13318e-19)
(0.25217823 -0.00048056787 -6.2841785e-19)
(0.25223708 -0.00053775721 1.017399e-19)
(0.25229114 -0.00060007155 -2.3121386e-19)
(0.25229033 -0.00065419843 -4.2089744e-19)
(0.25200573 -0.00054460881 -3.9182907e-19)
(0.25014357 -0.0012195308 -1.1742529e-19)
(0.23758495 0.00043820543 -1.791054e-19)
(0.25283353 -3.7446605e-05 -8.6123416e-19)
(0.25283867 -9.3611089e-05 -5.6075586e-19)
(0.25285018 -0.00014906892 1.7785899e-18)
(0.25286783 -0.00020791578 -1.8545653e-19)
(0.25289182 -0.00026672308 2.9000437e-19)
(0.25292238 -0.00032582165 -4.9794027e-19)
(0.25295982 -0.00038519269 -5.8496849e-19)
(0.25300432 -0.00044485276 -7.1594374e-19)
(0.25305525 -0.00050441426 -4.8729468e-19)
(0.25310809 -0.00056332944 6.3672501e-19)
(0.25314261 -0.00062607507 -8.1980695e-20)
(0.25307635 -0.00069910337 -4.5775885e-19)
(0.25255493 -0.0005845712 -4.4818707e-19)
(0.24963188 -0.001063787 -1.3163286e-19)
(0.23320285 0.0001058672 -1.8110253e-19)
(0.25372643 -3.8342945e-05 9.2317422e-18)
(0.2537317 -9.6368693e-05 1.4652795e-18)
(0.25374347 -0.00015372841 1.1716432e-18)
(0.25376156 -0.00021453144 1.5484701e-18)
(0.25378616 -0.00027516439 7.1270483e-19)
(0.25381749 -0.00033599427 7.8480561e-19)
(0.25385581 -0.00039694563 4.0055159e-19)
(0.25390101 -0.00045805575 2.007038e-20)
(0.25395133 -0.00051907431 2.7884959e-19)
(0.25399821 -0.00057855465 2.8261433e-19)
(0.25400834 -0.00063773998 2.0253408e-19)
(0.25386022 -0.0007177221 6.2354409e-21)
(0.25305737 -0.00062191548 1.1336024e-20)
(0.24895451 -0.00093835859 4.759428e-20)
(0.22897365 -8.3792338e-05 6.8110507e-20)
(0.25464474 -3.866162e-05 -1.1327217e-18)
(0.25465014 -9.732012e-05 -6.2834936e-19)
(0.2546622 -0.00015516462 3.4618317e-19)
(0.25468073 -0.00021648309 1.2237343e-18)
(0.2547059 -0.00027758564 -8.4537347e-20)
(0.25473792 -0.000338881 2.1274667e-19)
(0.25477689 -0.00040025681 2.9769879e-19)
(0.25482222 -0.000461728 1.2178415e-19)
(0.25487049 -0.00052322808 4.0059436e-19)
(0.2549078 -0.000583188 1.2342843e-19)
(0.25488519 -0.00063896641 -3.1350019e-20)
(0.25463685 -0.00071821651 -4.4936293e-20)
(0.25350729 -0.0006469875 1.6005867e-19)
(0.248129 -0.00083894719 2.9250724e-20)
(0.2249409 -0.00018589273 1.3072286e-19)
(0.25557031 -3.8595294e-05 -2.1422403e-18)
(0.25557581 -9.7309348e-05 -2.5302539e-18)
(0.25558805 -0.00015511983 -8.0368145e-19)
(0.25560682 -0.00021642527 9.6464916e-19)
(0.2556323 -0.0002774936 -8.4489574e-19)
(0.25566463 -0.00033876346 -1.3370063e-19)
(0.25570371 -0.00040009735 6.5058414e-20)
(0.25574825 -0.00046144626 -9.6101409e-20)
(0.25579256 -0.00052279714 1.3299094e-19)
(0.25581623 -0.0005828814 1.5948575e-19)
(0.25575267 -0.00063600478 1.0536614e-19)
(0.25538743 -0.00071016268 2.0403244e-19)
(0.25388915 -0.00066107344 2.0705841e-19)
(0.24716598 -0.00076077854 9.4481363e-20)
(0.22112141 -0.00023459296 4.8922789e-20)
(0.25649134 -3.8297107e-05 5.2167955e-18)
(0.25649692 -9.671213e-05 2.1529984e-18)
(0.25650928 -0.00015419069 9.8438788e-19)
(0.25652824 -0.00021515485 -1.3120774e-19)
(0.25655393 -0.00027585719 -7.0867998e-19)
(0.25658641 -0.00033675531 -3.8332151e-19)
(0.25662528 -0.00039769653 -1.7779799e-19)
(0.2566683 -0.00045856441 -9.7873369e-20)
(0.25670691 -0.00051927104 1.0735214e-19)
(0.25671305 -0.00057893859 -2.8430611e-19)
(0.25660095 -0.00063003278 1.0182515e-19)
(0.25610359 -0.00069722486 2.8030041e-19)
(0.25419746 -0.0006651972 7.6475535e-20)
(0.24608527 -0.00069788903 6.1644583e-20)
(0.21752738 -0.00025081848 -1.3967432e-20)
(0.25740382 -3.785286e-05 -1.1837217e-18)
(0.25740947 -9.5689495e-05 -1.407334e-18)
(0.25742193 -0.00015257331 8.0303195e-19)
(0.25744104 -0.00021291359 -4.1632805e-19)
(0.25746687 -0.00027297291 3.8873423e-19)
(0.25749936 -0.0003332193 -1.7428342e-19)
(0.2575377 -0.00039348924 2.0722177e-19)
(0.2575784 -0.00045361302 7.8996956e-20)
(0.25760945 -0.00051335259 2.8680616e-19)
(0.25759421 -0.00057212214 2.0169333e-19)
(0.25742635 -0.00062159363 7.2406342e-20)
(0.25678237 -0.00068144217 1.9464005e-19)
(0.25443121 -0.00066103686 -2.050865e-20)
(0.24490935 -0.00064561644 5.8459274e-20)
(0.21416513 -0.00024776584 -5.5878255e-20)
(0.25830515 -3.7308639e-05 6.1451934e-19)
(0.25831084 -9.4372771e-05 -1.0887186e-18)
(0.25832339 -0.00015047649 -1.4605127e-19)
(0.2583426 -0.00020999613 2.3291679e-19)
(0.25836849 -0.00026922145 -7.9344119e-19)
(0.25840083 -0.00032862339 2.5293629e-19)
(0.25843826 -0.00038802595 4.7465809e-19)
(0.25847573 -0.00044722018 4.3789188e-19)
(0.25849727 -0.00050579279 5.0637669e-19)
(0.25845683 -0.00056328987 4.0552777e-19)
(0.25822634 -0.00061131676 1.846341e-19)
(0.25742154 -0.00066417743 1.3621021e-19)
(0.2545896 -0.00065044234 2.1295445e-20)
(0.24365871 -0.00060064453 1.2893749e-20)
(0.21103455 -0.00023378679 -4.972031e-20)
(0.259193 -3.6693881e-05 5.4876059e-18)
(0.25919873 -9.2857461e-05 6.4747262e-18)
(0.25921134 -0.00014806165 -1.3194796e-18)
(0.25923061 -0.00020663289 1.1921329e-19)
(0.25925648 -0.0002648995 2.5120935e-19)
(0.25928848 -0.00032332972 5.7339952e-19)
(0.25932457 -0.00038173097 3.3332104e-19)
(0.25935785 -0.00043986308 7.330325e-19)
(0.25936788 -0.00049714489 6.4672932e-19)
(0.25929853 -0.00055310431 2.1680677e-19)
(0.2589988 -0.00059970361 3.2387177e-19)
(0.25801896 -0.00064623362 1.2173407e-19)
(0.25467145 -0.00063499349 1.1776869e-19)
(0.24235144 -0.00056062195 -5.9932601e-21)
(0.20813122 -0.0002141088 8.047776e-20)
(0.26006576 -3.6034055e-05 5.5040395e-18)
(0.26007152 -9.1214285e-05 4.2252159e-18)
(0.26008417 -0.00014544281 -4.7744888e-19)
(0.26010346 -0.00020298347 -1.3464153e-19)
(0.26012923 -0.00026021093 6.5831082e-19)
(0.2601607 -0.0003175869 3.9546657e-19)
(0.26019497 -0.00037489796 1.6191495e-19)
(0.26022303 -0.0004318747 4.7733871e-19)
(0.26021952 -0.00048779067 2.7176026e-19)
(0.26011767 -0.00054204301 -1.1655541e-20)
(0.25974224 -0.00058714002 4.0513935e-19)
(0.25857279 -0.00062806078 2.2808933e-19)
(0.25467557 -0.00061594005 1.4586294e-19)
(0.24100379 -0.00052390611 3.1596277e-20)
(0.20544863 -0.00019196317 1.3353522e-19)
(0.2609225 -3.5349633e-05 4.4765875e-18)
(0.26092828 -8.9497287e-05 2.4125034e-18)
(0.26094096 -0.00014270541 3.1889257e-20)
(0.26096023 -0.00019916671 4.0133503e-19)
(0.2609858 -0.00025530722 5.4808598e-19)
(0.2610165 -0.00031157922 2.4517912e-20)
(0.26104844 -0.00036774517 1.169382e-19)
(0.2610702 -0.00042350433 -1.3478241e-20)
(0.26105114 -0.00047801113 -1.5236005e-19)
(0.26091327 -0.00053046086 -9.4389663e-20)
(0.2604557 -0.00057393662 2.8539423e-19)
(0.2590814 -0.00060990566 1.8526457e-19)
(0.2546009 -0.00059424331 1.2229402e-19)
(0.23963056 -0.00048937354 7.0777246e-20)
(0.20297926 -0.00016931833 1.2481843e-19)
(0.26176274 -3.4655539e-05 2.8891401e-18)
(0.26176854 -8.7746856e-05 2.197987e-18)
(0.26178122 -0.00013991377 -1.554529e-18)
(0.26180042 -0.00019527247 3.5682694e-19)
(0.26182568 -0.00025030306 5.3107992e-19)
(0.26185536 -0.00030544608 2.5085429e-19)
(0.26188442 -0.00036043769 3.096819e-19)
(0.26189878 -0.00041494197 1.6478747e-19)
(0.26186213 -0.00046801763 -2.2623977e-19)
(0.2616848 -0.00051862213 -1.0692707e-19)
(0.26113855 -0.00056034347 4.0713911e-20)
(0.25954316 -0.00059189153 1.692239e-19)
(0.25444651 -0.0005706321 2.0200058e-19)
(0.23824529 -0.00045627776 9.0468169e-20)
(0.20071509 -0.00014735259 4.5212183e-20)
(0.26258633 -3.396306e-05 1.0278937e-18)
(0.26259213 -8.5993781e-05 1.4615997e-18)
(0.26260479 -0.00013711719 2.6063807e-18)
(0.26262388 -0.00019136968 -2.1669043e-19)
(0.2626487 -0.00024528655 -1.2949961e-18)
(0.26267708 -0.00029929459 5.0015706e-19)
(0.26270267 -0.00035310243 5.6360061e-19)
(0.26270848 -0.00040633486 2.5250282e-19)
(0.26265224 -0.00045797299 2.0469706e-19)
(0.26243199 -0.00050672605 -5.8921683e-21)
(0.26179026 -0.00054656345 3.6122471e-20)
(0.25995633 -0.0005740675 2.6498793e-19)
(0.25421177 -0.00054566294 1.9894957e-19)
(0.23686046 -0.00042415213 3.6249585e-20)
(0.19864765 -0.0001267576 -4.3052507e-21)
(0.26339335 -3.32814e-05 3.0167868e-18)
(0.26339915 -8.426274e-05 4.9121303e-18)
(0.26341177 -0.0001343551 2.9397004e-18)
(0.26343068 -0.0001875135 2.8911532e-19)
(0.26345493 -0.00024032822 8.5649997e-19)
(0.26348171 -0.00029321054 6.3970265e-19)
(0.2635032 -0.00034584107 3.7065386e-19)
(0.2634993 -0.00039780175 5.1649182e-20)
(0.26342146 -0.00044800829 2.3774239e-19)
(0.26315482 -0.00049492779 2.5974026e-19)
(0.26241041 -0.00053276479 1.4742687e-19)
(0.26031893 -0.00055643964 1.7776756e-19)
(0.2538966 -0.000519773 2.5274205e-20)
(0.23548766 -0.00039274464 -2.6552961e-20)
(0.19676807 -0.00010792878 4.257597e-20)
(0.26418413 -3.2618312e-05 2.6004124e-18)
(0.26418991 -8.2574225e-05 4.2789875e-18)
(0.26420246 -0.00013166021 8.4785058e-19)
(0.26422112 -0.0001837496 6.7912048e-19)
(0.26424465 -0.00023548648 1.0172386e-18)
(0.2642695 -0.00028726512 4.9069354e-19)
(0.26428624 -0.00033873796 2.0607505e-19)
(0.26427145 -0.00038944152 3.0120051e-19)
(0.26416998 -0.0004382328 5.1440621e-20)
(0.26385341 -0.00048335173 1.9663643e-19)
(0.26299854 -0.00051908846 9.6583531e-20)
(0.26062878 -0.00053898815 1.3291468e-19)
(0.25350187 -0.00049331964 8.0104568e-21)
(0.2341376 -0.00036197183 -5.4768223e-20)
(0.19506692 -9.1079354e-05 -4.9080177e-20)
(0.26495914 -3.1980324e-05 2.6984004e-18)
(0.2649649 -8.0945388e-05 3.2173536e-18)
(0.26497734 -0.00012905989 1.295585e-18)
(0.26499568 -0.00018011622 1.2900632e-18)
(0.26501831 -0.00023081031 1.1836369e-18)
(0.26504088 -0.00028151806 5.1111502e-19)
(0.2650522 -0.00033186392 2.2880266e-19)
(0.2650253 -0.00038133727 3.8975811e-19)
(0.26489816 -0.00042873842 2.4930063e-19)
(0.26452796 -0.00047209828 2.0654895e-19)
(0.26355413 -0.00050565096 1.3054716e-19)
(0.2608835 -0.00052167636 4.8520593e-20)
(0.25302971 -0.00046660631 1.2518716e-19)
(0.23282016 -0.00033188326 -4.8794831e-20)
(0.19353413 -7.6303782e-05 -1.1039832e-19)
(0.26571903 -3.1372764e-05 3.8886561e-18)
(0.26572475 -7.9390276e-05 1.5199997e-18)
(0.26573705 -0.00012657658 5.6416841e-19)
(0.26575498 -0.00017664472 1.4701655e-18)
(0.26577653 -0.00022633987 8.764258e-19)
(0.26579644 -0.0002760185 7.2258972e-19)
(0.26580163 -0.0003252772 5.1643853e-19)
(0.26576141 -0.00037355728 3.7251449e-19)
(0.26560652 -0.0004196006 1.2312906e-19)
(0.26517878 -0.00046124611 1.0271218e-19)
(0.26407657 -0.00049254343 1.5433486e-19)
(0.26108058 -0.00050445571 6.876141e-20)
(0.25248384 -0.00043989699 1.3025002e-19)
(0.23154421 -0.00030262987 4.1225594e-21)
(0.19215888 -6.3609729e-05 8.7912322e-20)
(0.26646455 -3.0799671e-05 6.6890324e-18)
(0.26647021 -7.7919708e-05 1.4772454e-18)
(0.26648233 -0.00012422758 4.0712909e-18)
(0.26649975 -0.00017335929 2.0218593e-18)
(0.26652002 -0.00022210617 -5.6683384e-19)
(0.26653688 -0.0002708044 1.0977215e-18)
(0.26653522 -0.00031902283 1.2242292e-18)
(0.26648042 -0.00036615421 1.0277782e-18)
(0.26629564 -0.00041087723 5.2102923e-19)
(0.26580617 -0.00045085191 -1.8761797e-19)
(0.26456508 -0.00047982866 4.7447576e-19)
(0.26121753 -0.00048726982 4.0422911e-19)
(0.25186982 -0.00041342264 2.1642127e-19)
(0.23031742 -0.00027443216 2.9570803e-19)
(0.1909297 -5.293283e-05 3.0944429e-19)
(0.26719653 -3.0263686e-05 2.3708516e-18)
(0.26720212 -7.654102e-05 3.9079915e-19)
(0.26721401 -0.00012202465 3.2017665e-18)
(0.26723083 -0.00017027641 1.7339987e-18)
(0.2672496 -0.00021813033 1.0863594e-18)
(0.26726299 -0.00026590165 7.5318015e-19)
(0.26725373 -0.00031313149 7.7836235e-19)
(0.26718309 -0.00035916374 7.6739343e-19)
(0.26696618 -0.00040260692 6.310077e-19)
(0.26641044 -0.00044094905 -5.6802881e-20)
(0.26501868 -0.00046753758 4.5280644e-19)
(0.26129202 -0.00047005901 2.57582e-19)
(0.25119506 -0.00038738324 2.2915235e-19)
(0.2291461 -0.00024754676 4.0330897e-19)
(0.18983455 -4.4145095e-05 2.6401409e-19)
(0.26791589 -2.976599e-05 -2.4158096e-18)
(0.26792138 -7.525793e-05 -5.0699717e-19)
(0.26793299 -0.00011997376 4.153232e-19)
(0.26794908 -0.00016740448 9.7270211e-19)
(0.26796613 -0.00021442312 1.3354448e-18)
(0.26797562 -0.00026132351 1.7829998e-19)
(0.267958 -0.00030761887 2.1582975e-19)
(0.26787018 -0.00035260381 5.3405354e-20)
(0.2676188 -0.00039480804 3.0652581e-20)
(0.2669918 -0.00043154705 -2.400077e-19)
(0.26543617 -0.00045566686 -1.2741105e-20)
(0.2613021 -0.00045276642 3.9890032e-22)
(0.2504687 -0.00036194908 6.9270568e-20)
(0.22803501 -0.00022223216 1.0646457e-19)
(0.18886112 -3.7064082e-05 8.0662692e-20)
(0.26862352 -2.9306381e-05 7.3468557e-18)
(0.2686289 -7.4070658e-05 3.8188572e-19)
(0.26864017 -0.00011807532 2.1084374e-18)
(0.26865542 -0.00016474412 2.6034056e-18)
(0.26867049 -0.00021098532 1.6985924e-18)
(0.26867563 -0.000257071 1.3440979e-18)
(0.26864885 -0.00030248606 1.2263392e-18)
(0.26854251 -0.00034647515 9.272388e-19)
(0.26825414 -0.00038747924 4.8587636e-19)
(0.26755035 -0.00042263245 -3.7727919e-19)
(0.2658161 -0.00044417904 1.1581213e-19)
(0.26124652 -0.00043534493 2.6874117e-19)
(0.24970133 -0.00033726333 2.286823e-19)
(0.22698727 -0.00019871675 3.3510477e-19)
(0.18799711 -3.1466394e-05 1.8928548e-19)
(0.26932033 -2.8883459e-05 4.8180523e-18)
(0.26932558 -7.2976352e-05 -7.6339154e-19)
(0.26933645 -0.00011632481 8.5516638e-19)
(0.26935072 -0.00016228908 1.7192786e-18)
(0.26936357 -0.00020780889 2.1115857e-18)
(0.26936389 -0.00025313432 1.2295734e-18)
(0.26932713 -0.00029772129 1.1583549e-18)
(0.26920083 -0.00034076321 9.9948814e-19)
(0.2688728 -0.00038060158 6.7526064e-19)
(0.26808605 -0.00041417146 2.5112327e-19)
(0.26615679 -0.00043300583 1.5322177e-19)
(0.26112496 -0.00041776402 2.8929501e-19)
(0.24890441 -0.00031344657 2.8575557e-19)
(0.22600436 -0.0001771726 4.3932368e-19)
(0.18723056 -2.7105582e-05 1.5899756e-19)
(0.27000719 -2.8494909e-05 7.5361739e-19)
(0.27001228 -7.196974e-05 3.8258317e-18)
(0.27002267 -0.00011471384 3.0239964e-18)
(0.27003583 -0.0001600277 1.8655913e-18)
(0.27004618 -0.00020487885 9.0708444e-19)
(0.27004119 -0.00024949515 1.084776e-18)
(0.2699936 -0.00029330262 8.5540591e-19)
(0.26984584 -0.00033544135 7.4735498e-19)
(0.26947524 -0.00037414208 8.1240721e-19)
(0.2685986 -0.00040611399 4.192753e-19)
(0.26645635 -0.00042205446 3.6521412e-19)
(0.2609383 -0.00040001523 3.4360117e-19)
(0.24808975 -0.00029060213 3.9297815e-19)
(0.22508629 -0.00015769827 2.9032487e-19)
(0.18655015 -2.3732125e-05 1.3525098e-19)
(0.27068489 -2.8137824e-05 4.3741653e-18)
(0.2706898 -7.1043903e-05 3.9552287e-18)
(0.27069965 -0.00011323137 4.3115482e-18)
(0.27071153 -0.00015794462 3.4886045e-18)
(0.2707191 -0.00020217544 8.0241426e-19)
(0.27070829 -0.00024612932 2.1448005e-18)
(0.27064898 -0.00028920108 1.7543342e-18)
(0.27047818 -0.00033047454 1.3418946e-18)
(0.27006181 -0.00036805783 1.1609316e-18)
(0.26908753 -0.00039839812 1.8131668e-19)
(0.26671278 -0.00041121648 5.3208735e-19)
(0.26068881 -0.00038211515 5.769554e-19)
(0.24726882 -0.00026882041 6.2673123e-19)
(0.22423175 -0.0001403123 5.7444011e-19)
(0.18594537 -2.1112143e-05 3.8708889e-19)
(0.27135418 -2.780901e-05 2.2885071e-18)
(0.27135887 -7.0191038e-05 3.1201661e-18)
(0.2713681 -0.00011186497 1.9954328e-18)
(0.27137855 -0.00015602246 1.8239754e-18)
(0.27138304 -0.00019967637 1.6389088e-18)
(0.27136587 -0.00024300948 1.3642249e-18)
(0.27129391 -0.00028538386 1.3107192e-18)
(0.27109836 -0.00032582299 6.4342456e-19)
(0.27063272 -0.00036230005 5.4976639e-19)
(0.26955206 -0.00039095432 7.8103685e-20)
(0.26692403 -0.00040037783 6.1804003e-20)
(0.26038022 -0.00036410564 3.4616628e-19)
(0.24645221 -0.00024818088 3.0597908e-19)
(0.22343841 -0.00012495718 3.9341297e-19)
(0.18540672 -1.9041827e-05 2.1253462e-19)
(0.27201571 -2.7505234e-05 5.2973073e-18)
(0.27202015 -6.9403097e-05 4.8541755e-18)
(0.27202867 -0.00011060176 2.7484627e-18)
(0.27203751 -0.00015424331 1.9981274e-18)
(0.2720386 -0.00019735858 1.8120889e-18)
(0.27201452 -0.00024010732 1.5164072e-18)
(0.27192892 -0.00028181693 1.1870318e-18)
(0.2717068 -0.00032144525 5.5758774e-19)
(0.27118802 -0.00035681746 5.5831476e-19)
(0.2699912 -0.00038370883 4.4661867e-20)
(0.26708822 -0.000389429 1.7506169e-19)
(0.26001771 -0.00034605163 4.0949422e-19)
(0.24564917 -0.00022875086 3.7961069e-19)
(0.22270325 -0.00011151161 3.4184346e-19)
(0.18492573 -1.7355841e-05 1.4319571e-19)
(0.27267005 -2.7223402e-05 2.8509598e-18)
(0.27267421 -6.8672267e-05 2.3093318e-18)
(0.27268192 -0.00010942927 1.0570838e-18)
(0.27268898 -0.00015258973 1.9167426e-18)
(0.27268634 -0.00019519966 1.9849526e-18)
(0.27265476 -0.00023739527 1.2466834e-18)
(0.27255447 -0.00027846698 1.0552033e-18)
(0.2723038 -0.00031730047 9.4885334e-19)
(0.27172757 -0.00035155883 5.6443887e-19)
(0.27040369 -0.00037658611 4.8711035e-19)
(0.26720375 -0.00037827411 3.7131694e-19)
(0.25960771 -0.00032803713 3.4504862e-19)
(0.24486735 -0.00021058184 4.830864e-19)
(0.22202277 -9.9808138e-05 2.2264334e-19)
(0.18449494 -1.5929483e-05 2.1407303e-19)
(0.27331772 -2.6960666e-05 2.518073e-18)
(0.27332155 -6.7991272e-05 4.4084344e-18)
(0.27332837 -0.00010833587 3.3869574e-18)
(0.27333345 -0.00015104547 2.0168095e-18)
(0.27332673 -0.00019317869 1.2678986e-18)
(0.27328702 -0.0002348475 1.1230912e-18)
(0.27317093 -0.00027530269 1.2189199e-18)
(0.27288957 -0.00031334989 9.8502763e-19)
(0.27225107 -0.00034647442 4.025589e-19)
(0.27078808 -0.00036951039 6.7225772e-19)
(0.26726952 -0.00036683813 3.7043712e-19)
(0.25915765 -0.0003101602 3.6633805e-19)
(0.24411266 -0.00019370464 5.5313244e-19)
(0.22139331 -8.9652404e-05 3.0835768e-19)
(0.1841079 -1.467569e-05 3.536847e-19)
(0.27395916 -2.6714475e-05 7.1166608e-18)
(0.27396262 -6.7353542e-05 4.8047357e-18)
(0.27396843 -0.00010731104 5.3683429e-18)
(0.27397134 -0.00014959583 3.9277859e-18)
(0.27396016 -0.00019127671 1.560534e-18)
(0.27391168 -0.00023244055 2.302776e-18)
(0.2737786 -0.00027229533 1.8439518e-18)
(0.27346419 -0.00030955757 1.3474402e-18)
(0.27275806 -0.00034151677 8.1382895e-19)
(0.27114274 -0.00036240704 3.4726785e-19)
(0.26728512 -0.00035507155 5.8383744e-19)
(0.25867552 -0.00029252748 7.4251746e-19)
(0.24338933 -0.00017812521 6.2678763e-19)
(0.22081116 -8.0841193e-05 7.6758236e-19)
(0.18375901 -1.3538667e-05 5.8270006e-19)
(0.27459475 -2.648259e-05 1.4831836e-18)
(0.2745978 -6.675326e-05 3.7745507e-18)
(0.27460249 -0.0001063455 2.4772453e-18)
(0.274603 -0.0001482278 2.3124657e-18)
(0.27458699 -0.00018947691 2.4750923e-18)
(0.27452902 -0.00023015345 1.2341127e-18)
(0.27437767 -0.00026941895 9.9483958e-19)
(0.27402763 -0.00030589064 7.4022086e-19)
(0.27324789 -0.00033664079 4.1694569e-19)
(0.27146593 -0.0003552038 3.7083217e-19)
(0.26725094 -0.00034295249 2.3237171e-19)
(0.25816956 -0.0002752486 2.8536881e-19)
(0.24270004 -0.00016382254 2.7980361e-19)
(0.22027275 -7.3177112e-05 2.4975878e-19)
(0.18344349 -1.2486089e-05 3.3128641e-19)
(0.27522481 -2.6263072e-05 2.1240901e-18)
(0.27522741 -6.6185368e-05 3.3060587e-18)
(0.27523087 -0.00010543114 2.6489263e-18)
(0.27522875 -0.00014693 2.0333906e-18)
(0.27520748 -0.00018776456 2.4389205e-18)
(0.2751393 -0.00022796774 1.4269923e-18)
(0.27496829 -0.00026665041 9.0875265e-19)
(0.27457978 -0.00030231921 7.5653853e-19)
(0.27371976 -0.0003318036 5.6275768e-19)
(0.27175586 -0.00034783257 4.6071215e-19)
(0.26716832 -0.00033048644 3.2139179e-19)
(0.25764777 -0.0002584306 2.4163155e-19)
(0.24204621 -0.0001507494 3.8569074e-19)
(0.21977469 -6.6478888e-05 1.4918596e-19)
(0.18315725 -1.1501423e-05 2.7753183e-19)
(0.27584964 -2.6054262e-05 1.0445731e-18)
(0.27585173 -6.5645512e-05 1.028346e-18)
(0.27585383 -0.00010456099 9.5311041e-19)
(0.27584885 -0.00014569263 2.0972041e-18)
(0.27582189 -0.00018612688 2.0052836e-18)
(0.2757427 -0.00022586725 1.621982e-18)
(0.27555053 -0.00026396905 8.7017248e-19)
(0.27512041 -0.00029881615 9.9068905e-19)
(0.27417268 -0.00032696406 7.4445361e-19)
(0.27201082 -0.00034023144 6.5216976e-19)
(0.26703956 -0.00031770398 3.7836122e-19)
(0.25711762 -0.00024217267 2.8363062e-19)
(0.24142819 -0.00013883591 4.1315806e-19)
(0.21931381 -6.0587308e-05 3.7260524e-19)
(0.18289682 -1.0577473e-05 2.4248602e-19)
(0.27646948 -2.585475e-05 1.8698441e-18)
(0.27647102 -6.5129982e-05 4.574474e-18)
(0.27647162 -0.00010372909 3.292173e-18)
(0.27646352 -0.00014450731 2.405165e-18)
(0.2764304 -0.00018455289 1.3768028e-18)
(0.27633935 -0.00022383792 1.6303933e-18)
(0.27612438 -0.00026135649 1.3478691e-18)
(0.27564919 -0.00029535665 9.0488915e-19)
(0.27460555 -0.00032208226 8.5211363e-19)
(0.27222923 -0.0003323472 7.4756175e-19)
(0.26686787 -0.00030465719 4.6450709e-19)
(0.25658579 -0.00022656126 5.2446047e-19)
(0.2408456 -0.00012799526 5.2488061e-19)
(0.21888719 -5.5367369e-05 4.5473382e-19)
(0.18265925 -9.7115812e-06 2.4892628e-19)
(0.27708455 -2.5663345e-05 7.9275436e-18)
(0.27708548 -6.4635632e-05 5.4821478e-18)
(0.27708444 -0.0001029304 5.7276155e-18)
(0.27707295 -0.00014336686 3.6830206e-18)
(0.27703318 -0.00018303314 2.1646853e-18)
(0.27692935 -0.00022186744 2.504132e-18)
(0.2766898 -0.00025879623 2.0898009e-18)
(0.27616569 -0.00029191777 1.546758e-18)
(0.27501711 -0.00031711916 1.212794e-18)
(0.27240981 -0.00032413774 4.7211152e-19)
(0.26665729 -0.00029141517 8.5315374e-19)
(0.256058 -0.00021166603 9.953333e-19)
(0.24029748 -0.00011813047 7.4452478e-19)
(0.21849214 -5.0707646e-05 7.2207364e-19)
(0.18244204 -8.9025348e-06 4.4701217e-19)
(0.27769504 -2.5479045e-05 3.0815677e-18)
(0.27769529 -6.4159807e-05 4.5172783e-18)
(0.27769247 -0.00010216065 3.554823e-18)
(0.27767729 -0.00014226521 2.496007e-18)
(0.27763035 -0.0001815595 2.9613584e-18)
(0.27751275 -0.00021994503 1.7171789e-18)
(0.27724666 -0.00025627339 1.3404187e-18)
(0.27666938 -0.00028847797 1.1608069e-18)
(0.275406 -0.00031203634 6.9788896e-19)
(0.27255164 -0.00031557421 4.7184455e-19)
(0.26641246 -0.00027805926 3.5768622e-19)
(0.25553894 -0.00019753711 4.4976296e-19)
(0.23978254 -0.00010914113 2.6229904e-19)
(0.21812621 -4.6517864e-05 3.5995579e-19)
(0.18224308 -8.148856e-06 3.1434268e-19)
(0.27830111 -2.5301005e-05 2.0807529e-18)
(0.27830062 -6.3700269e-05 3.2507252e-18)
(0.27829586 -0.0001014162 2.9304997e-18)
(0.2782767 -0.00014119716 2.6190214e-18)
(0.278222 -0.00018012493 2.8470821e-18)
(0.27808956 -0.00021806116 1.4672313e-18)
(0.2777948 -0.00025377436 1.2039706e-18)
(0.27715962 -0.0002850166 1.0685916e-18)
(0.27577079 -0.00030679609 8.0419275e-19)
(0.27265429 -0.00030664249 4.8133875e-19)
(0.26613848 -0.00026467813 4.0743958e-19)
(0.2550323 -0.00018420368 4.2688649e-19)
(0.23929925 -0.00010092916 3.3965572e-19)
(0.21778713 -4.2725648e-05 3.776484e-19)
(0.18206056 -7.4481453e-06 3.3647191e-19)
(0.27890291 -2.5128516e-05 2.3880461e-18)
(0.27890162 -6.3255127e-05 1.5153646e-18)
(0.27889474 -0.00010069401 1.3359007e-18)
(0.27887126 -0.00014015826 2.0942169e-18)
(0.27880821 -0.00017872332 2.2508721e-18)
(0.27865976 -0.00021620724 1.3129195e-18)
(0.27833397 -0.00025128651 1.0594229e-18)
(0.27763569 -0.00028151345 8.9586558e-19)
(0.27611001 -0.00030136189 6.5201152e-19)
(0.2727179 -0.00029734386 8.6853378e-19)
(0.26584062 -0.00025136317 6.1156694e-19)
(0.25454084 -0.00017167439 4.2069278e-19)
(0.23884602 -9.3403161e-05 5.9671682e-19)
(0.21747286 -3.9273089e-05 5.5512298e-19)
(0.18189296 -6.7970345e-06 3.1064971e-19)
(0.27950056 -2.4960972e-05 -8.7945846e-21)
(0.2794984 -6.2822774e-05 4.0839074e-18)
(0.27948922 -9.9991431e-05 2.2121617e-18)
(0.27946108 -0.00013914466 1.4264934e-18)
(0.279389 -0.00017734922 1.9954275e-18)
(0.27922329 -0.00021437542 8.0105265e-19)
(0.27886389 -0.00024879793 7.1969017e-19)
(0.27809674 -0.00027794828 3.7378845e-19)
(0.27642222 -0.00029569921 1.1898196e-19)
(0.27274323 -0.00028769474 8.742151e-19)
(0.2655241 -0.00023820406 3.016966e-19)
(0.25406651 -0.00015993912 9.8884687e-20)
(0.23842119 -8.6481052e-05 1.3521845e-19)
(0.21718151 -3.6113613e-05 1.808142e-19)
(0.18173897 -6.1914745e-06 1.559574e-19)
(0.28009418 -2.4797856e-05 1.40454e-19)
(0.28009107 -6.2401833e-05 3.4220426e-18)
(0.28007941 -9.9306212e-05 3.4502219e-18)
(0.28004623 -0.00013815299 1.6304835e-18)
(0.27996442 -0.00017599776 1.7492278e-18)
(0.27978006 -0.00021255837 7.8353991e-19)
(0.2793842 -0.00024629715 6.0426492e-19)
(0.27854186 -0.00027430051 5.0469588e-19)
(0.27670605 -0.00028977676 4.4847075e-19)
(0.27273166 -0.0002777256 6.0250838e-19)
(0.26519392 -0.00022528491 2.086665e-19)
(0.25361059 -0.00014897206 2.0569153e-19)
(0.23802316 -8.009123e-05 6.9940334e-21)
(0.21691137 -3.3209338e-05 9.067165e-20)
(0.18159747 -5.6270979e-06 1.9211826e-19)
(0.28068388 -2.4638721e-05 1.3958371e-18)
(0.28067974 -6.1991113e-05 3.3209656e-18)
(0.28066539 -9.8636368e-05 3.1556139e-18)
(0.28062676 -0.00013718022 1.7127588e-18)
(0.28053445 -0.00017466447 1.5546258e-18)
(0.28032993 -0.00021074911 7.6364342e-19)
(0.27989449 -0.00024377295 3.677574e-19)
(0.27897002 -0.0002705489 2.48439e-19)
(0.27696025 -0.00028356785 6.2978213e-19)
(0.27268518 -0.00026747915 5.2867075e-19)
(0.26485469 -0.00021268092 1.9253047e-19)
(0.25317379 -0.00013873548 1.1106287e-19)
(0.23765034 -7.4172513e-05 1.8012989e-19)
(0.2166609 -3.0529028e-05 1.0127337e-19)
(0.18146749 -5.0995647e-06 1.8779238e-19)
(0.28126974 -2.4483172e-05 4.5911075e-18)
(0.28126449 -6.1589565e-05 6.3340534e-18)
(0.28124722 -9.7980134e-05 3.5177836e-18)
(0.28120271 -0.00013622363 1.2785544e-18)
(0.28109907 -0.00017334514 8.0280167e-19)
(0.28087275 -0.00020894082 3.5442283e-19)
(0.28039427 -0.00024121406 -2.0931193e-19)
(0.27938014 -0.00026667151 -2.1609669e-19)
(0.27718382 -0.00027705191 -4.9261152e-20)
(0.27260633 -0.00025700811 3.8409982e-20)
(0.26451052 -0.00020045586 -2.9723672e-19)
(0.25275643 -0.00012918377 -5.1123436e-19)
(0.23730122 -6.8673272e-05 -2.6283887e-19)
(0.21642866 -2.8046556e-05 -4.2643927e-19)
(0.18134818 -4.6048102e-06 -6.1712224e-20)
(0.28185185 -2.4330855e-05 4.6609876e-18)
(0.28184539 -6.1196249e-05 5.3089592e-18)
(0.28182498 -9.7335905e-05 2.9485959e-18)
(0.28177412 -0.00013528067 1.2380998e-18)
(0.28165823 -0.00017203573 8.5884801e-19)
(0.2814083 -0.00020712676 5.9905743e-19)
(0.28088299 -0.00023860899 6.2425575e-21)
(0.27977106 -0.00026264569 -1.343013e-19)
(0.27737601 -0.00027021574 -1.7679413e-19)
(0.27249806 -0.00024637257 -3.1447096e-20)
(0.26416497 -0.0001886604 -1.7201372e-19)
(0.2523585 -0.00012026722 -2.6102542e-19)
(0.23697438 -6.3550123e-05 -2.6714455e-19)
(0.21621337 -2.5739812e-05 -2.4853714e-19)
(0.18123881 -4.139202e-06 -1.5116172e-19)
(0.28243029 -2.4181447e-05 1.4832932e-18)
(0.28242252 -6.0810306e-05 4.7338014e-18)
(0.28239871 -9.6702195e-05 3.5284428e-18)
(0.28234099 -0.00013434892 2.2597077e-18)
(0.28221186 -0.00017073227 2.0975499e-18)
(0.28193636 -0.00020530013 1.1131809e-18)
(0.28136003 -0.00023594578 6.9830771e-19)
(0.2801416 -0.00025844846 4.6312393e-19)
(0.27753642 -0.00026305461 3.8179497e-19)
(0.27236366 -0.00023563725 1.3379917e-19)
(0.26382105 -0.00017733135 2.1401579e-19)
(0.25197976 -0.00011193519 2.1574343e-19)
(0.23666845 -5.8766488e-05 2.6717989e-19)
(0.21601387 -2.3589917e-05 1.5360505e-19)
(0.1811387 -3.6995957e-06 4.8231807e-20)
(0.28300512 -2.4034646e-05 1.8604944e-18)
(0.28299594 -6.0430936e-05 2.8246302e-18)
(0.28296845 -9.6077593e-05 3.8479347e-18)
(0.28290332 -0.00013342601 2.5322013e-18)
(0.28275987 -0.00016943077 2.2670252e-18)
(0.28245663 -0.00020345397 1.3986601e-18)
(0.28182471 -0.00023321186 9.1248246e-19)
(0.28049057 -0.0002540569 6.6446375e-19)
(0.27766504 -0.00025557284 3.8241708e-19)
(0.27220658 -0.00022486879 4.0586863e-19)
(0.26348123 -0.00016649191 2.0522095e-19)
(0.25161982 -0.00010413863 -9.3174525e-21)
(0.23638216 -5.429123e-05 3.2017544e-20)
(0.21582908 -2.1580658e-05 -1.6653795e-21)
(0.18104728 -3.2833412e-06 7.8801485e-20)
(0.2835764 -2.3890166e-05 4.7647091e-18)
(0.28356569 -6.0057377e-05 3.4441747e-18)
(0.28353424 -9.5460736e-05 2.9751241e-18)
(0.2834611 -0.00013250961 2.6741343e-18)
(0.28330215 -0.00016812718 2.079977e-18)
(0.28296879 -0.00020158114 1.6380988e-18)