/*--------------------------------*- C++ -*----------------------------------*\
| =========                 |                                                 |
| \\      /  F ield         | OpenFOAM: The Open Source CFD Toolbox           |
|  \\    /   O peration     | Version:  2506                                  |
|   \\  /    A nd           | Website:  www.openfoam.com                      |
|    \\/     M anipulation  |                                                 |
\*---------------------------------------------------------------------------*/
FoamFile
{
    version     2.0;
    format      ascii;
    arch        "LSB;label=32;scalar=64";
    class       volScalarField;
    location    "27000/water";
    object      alphat;
}
// * * * * * * * * * * * * * * * * * * * * * * * * * * * * * * * * * * * * * //

dimensions      [1 -1 -1 0 0 0 0];

internalField   nonuniform List<scalar> 
2600
(
0.040489031
0.04048893
0.040488932
0.040488969
0.04048893
0.040488424
0.040485257
0.04046703
0.040362559
0.039762099
0.036475623
0.024118064
0.014862723
0.039376404
0.039376463
0.039376584
0.03937667
0.03937627
0.039373342
0.039357935
0.03928206
0.038918252
0.037247647
0.030707814
0.017504579
0.016810247
0.03845331
0.038453299
0.038453385
0.038453188
0.038451259
0.038441479
0.038397507
0.038208927
0.037432867
0.034484227
0.025768479
0.01464355
0.017680736
0.037674097
0.037673994
0.037673876
0.037672833
0.03766736
0.037643826
0.037549741
0.037190974
0.035896577
0.031717985
0.022022178
0.013507107
0.017935556
0.037006829
0.037006634
0.03700605
0.037003229
0.036991211
0.03694503
0.036777672
0.036201229
0.034343725
0.029136321
0.019390213
0.01332192
0.01787019
0.036428097
0.036427705
0.036426239
0.036420305
0.036397905
0.036319194
0.03605724
0.035231095
0.03281421
0.026833154
0.017684561
0.01376901
0.017658004
0.035920433
0.035919673
0.03591673
0.035905979
0.035868817
0.035747845
0.035374204
0.034281783
0.031338745
0.024847734
0.016751764
0.014701365
0.017395975
0.035470606
0.03546924
0.035464057
0.035446499
0.035390052
0.035218253
0.034721129
0.033357857
0.029935921
0.02320089
0.016491475
0.016024754
0.017137191
0.035068412
0.03506614
0.035057811
0.035031314
0.034951338
0.034722033
0.034094772
0.032463227
0.028616047
0.021918168
0.016839593
0.01764423
0.016909598
0.034705855
0.034702323
0.034689851
0.034652315
0.034545228
0.034254009
0.03349406
0.031599319
0.027389013
0.021039007
0.017742707
0.01944683
0.016725717
0.034376582
0.0343714
0.034353768
0.03430331
0.034166516
0.033811296
0.032918607
0.030765036
0.026274288
0.020612421
0.019134169
0.021310298
0.0165878
0.034075484
0.034068256
0.034044512
0.033979658
0.033811775
0.033392551
0.032367695
0.029958513
0.025310237
0.020682513
0.02092045
0.023125093
0.01649134
0.03379842
0.033788771
0.033758129
0.033677993
0.033478994
0.032997353
0.031839672
0.029180919
0.024557973
0.021270679
0.022983308
0.024813263
0.016428198
0.033542011
0.033529635
0.033491576
0.033396025
0.033167279
0.032625685
0.031331905
0.02844226
0.024095308
0.02236241
0.02519592
0.026333969
0.016389375
0.033303501
0.033288203
0.033242589
0.033132389
0.0328766
0.032277488
0.030841496
0.027768047
0.024001078
0.023903802
0.027443847
0.027676786
0.016366908
0.033080659
0.033062404
0.03300959
0.032886524
0.032607559
0.031952311
0.030367144
0.027204004
0.02433601
0.025808536
0.029640409
0.028850257
0.01635471
0.032871707
0.032850677
0.032791627
0.032658586
0.032361164
0.031649138
0.029912405
0.026815113
0.025128027
0.027972561
0.031731261
0.029871995
0.016348606
0.032675278
0.032651931
0.032588332
0.032449362
0.032138606
0.031366538
0.029490156
0.026676984
0.02636662
0.030291378
0.033689748
0.030762439
0.016345973
0.032490392
0.032465523
0.0323999
0.032260198
0.031941021
0.031103392
0.02912715
0.026861559
0.028006318
0.032674378
0.035508202
0.031541613
0.016345289
0.03231644
0.032291251
0.032227075
0.032092906
0.0317693
0.030860474
0.028866522
0.027422392
0.02997661
0.035052626
0.037189756
0.032227633
0.016345749
0.032153193
0.032129365
0.032071151
0.03194966
0.031623986
0.030643052
0.028765901
0.028384666
0.032194874
0.037379729
0.038742713
0.03283612
0.016346971
0.032000817
0.031980587
0.031933965
0.031832869
0.031505423
0.030464306
0.028890209
0.029742269
0.034578895
0.039628039
0.040177388
0.03338011
0.016348812
0.031859898
0.031846136
0.031817892
0.031745018
0.031414332
0.030348688
0.029300795
0.031461309
0.037056243
0.041783221
0.041504536
0.033870256
0.016351246
0.031731488
0.031727775
0.031725824
0.031688525
0.031353059
0.030333689
0.030044463
0.033487924
0.03956915
0.043839374
0.042734578
0.034315152
0.016354289
0.031617156
0.031627852
0.031661123
0.031665646
0.031327616
0.03046839
0.031145811
0.035757861
0.042075206
0.045795593
0.043877212
0.034721702
0.016357969
0.031519059
0.031549348
0.031627545
0.031678558
0.031350385
0.030808115
0.032604582
0.038205562
0.044545297
0.047653851
0.044941233
0.035095453
0.016362308
0.03144002
0.031495925
0.031629136
0.03172978
0.031442846
0.031406231
0.034397781
0.04077106
0.046960464
0.049417769
0.045934484
0.035440885
0.01636731
0.031383622
0.031471952
0.031670108
0.031823119
0.031637178
0.032305486
0.036485149
0.043403915
0.049308923
0.051091864
0.046863895
0.035761637
0.016372969
0.03135431
0.031482518
0.031754744
0.031965284
0.031975483
0.033531426
0.038816231
0.046064359
0.051583768
0.052681065
0.047735561
0.036060692
0.016379266
0.031357497
0.031533412
0.031887426
0.032168111
0.032505943
0.035089406
0.041337342
0.048722488
0.053781402
0.054190402
0.048554836
0.036340517
0.016386174
0.03139966
0.031631056
0.032072921
0.032450913
0.033276472
0.036965348
0.043997165
0.05135652
0.055900492
0.055624808
0.04932644
0.036603249
0.016393659
0.031488426
0.031782428
0.032317109
0.032842097
0.034327507
0.039129411
0.046750328
0.053950898
0.057941206
0.056988871
0.050054078
0.036848496
0.016401672
0.031632621
0.031994973
0.032628307
0.033378941
0.035685984
0.041541295
0.049558962
0.056494681
0.059904717
0.058286903
0.050741227
0.037078061
0.016410157
0.031842264
0.03227662
0.033019161
0.034104836
0.037361923
0.044155831
0.052392711
0.058980323
0.061792813
0.059522756
0.051390026
0.037293993
0.01641906
0.03212853
0.032636021
0.033508769
0.035064176
0.039348105
0.046927801
0.055227856
0.06140278
0.06360764
0.060699935
0.052002676
0.037497695
0.016428334
0.03250367
0.033083204
0.034124295
0.036296095
0.041622398
0.049815353
0.058046131
0.063758858
0.065351543
0.061821636
0.052582579
0.037690193
0.016437945
0.032981002
0.033630796
0.034901057
0.037828729
0.044151811
0.052781865
0.060833582
0.066046676
0.067026698
0.062889498
0.053132467
0.037872529
0.016447871
0.033575096
0.034295805
0.035880364
0.039675446
0.046897152
0.055796502
0.063579597
0.068265329
0.068635566
0.063907353
0.053654301
0.038045473
0.016458088
0.034302371
0.035101607
0.037105069
0.04183372
0.049817345
0.058833932
0.066276152
0.070414391
0.070179107
0.064878396
0.054149994
0.038209783
0.016468569
0.035182284
0.03607936
0.038613767
0.044286507
0.052872737
0.061873598
0.068917176
0.072494025
0.071660188
0.065805209
0.054621164
0.038366084
0.016479288
0.036239053
0.037267822
0.040435166
0.047005444
0.056027181
0.064898919
0.071498029
0.074503821
0.073081483
0.0666901
0.055069327
0.038514917
0.016490218
0.037503435
0.038710807
0.042584062
0.049954877
0.059248948
0.067896472
0.074015188
0.076444646
0.074445479
0.06753512
0.05549582
0.038656743
0.016501334
0.039013527
0.040452295
0.045059742
0.053095852
0.062510861
0.070855345
0.076465332
0.078317617
0.075754309
0.06834217
0.055901828
0.038791954
0.01651261
0.04081334
0.042530195
0.047846841
0.056389323
0.065789827
0.07376652
0.078846475
0.080124259
0.077009873
0.069112942
0.056288387
0.038920882
0.016524019
0.042948361
0.044970364
0.050918089
0.059798405
0.06906634
0.076621982
0.081156927
0.081865802
0.07821393
0.069848946
0.056656397
0.039043805
0.016535536
0.045458427
0.047782336
0.05423798
0.063289412
0.072323507
0.079415219
0.083396352
0.083543334
0.079368024
0.070551494
0.05700663
0.03916095
0.016547136
0.048369547
0.050957607
0.057766492
0.066832261
0.07554657
0.082140754
0.085564141
0.085157813
0.080473488
0.071221711
0.057339737
0.039272497
0.016558794
0.051686976
0.054470454
0.06146214
0.070399941
0.078722002
0.084794919
0.0876597
0.086709994
0.081531433
0.071860535
0.057656249
0.039378585
0.016570485
0.055391541
0.058280589
0.0652837
0.07396756
0.081839619
0.087374113
0.089682329
0.088200398
0.08254273
0.072468717
0.057956587
0.039479308
0.016582185
0.059440099
0.062336546
0.069190825
0.07751402
0.084890581
0.089874884
0.091631148
0.089629283
0.083508004
0.073046821
0.058241061
0.039574724
0.016593867
0.063769534
0.066579766
0.073146322
0.081021488
0.087866743
0.09229381
0.09350505
0.090996621
0.084427625
0.073595224
0.058509872
0.039664845
0.016605507
0.068304216
0.070949169
0.077116143
0.084473725
0.090760491
0.094627437
0.095302675
0.092302092
0.085301706
0.07411412
0.058763112
0.039749649
0.016617076
0.072964003
0.075384371
0.081068546
0.087855788
0.093564628
0.096872251
0.097022412
0.093545085
0.08613011
0.074603516
0.059000772
0.039829073
0.016628545
0.077671249
0.079828381
0.084974051
0.091153828
0.096272329
0.099024708
0.098662433
0.094724728
0.086912463
0.075063251
0.05922274
0.039903018
0.016639885
0.08235587
0.084229594
0.088805541
0.094355004
0.098877159
0.1010813
0.10022076
0.095839935
0.087648192
0.07549301
0.059428818
0.03997135
0.016651062
0.086958223
0.088543092
0.092538492
0.097447499
0.10137313
0.10303863
0.10169536
0.096889474
0.088336562
0.075892351
0.059618728
0.040033909
0.016662041
0.091430096
0.092731276
0.09615125
0.10042062
0.10375478
0.10489359
0.10308426
0.097872061
0.088976744
0.076260745
0.059792138
0.040090514
0.016672786
0.095734374
0.096763942
0.099625284
0.10326492
0.10601734
0.1066434
0.10438564
0.098786456
0.089567887
0.076597619
0.059948688
0.040140975
0.016683256
0.099843911
0.10061792
0.10294534
0.10597238
0.10815677
0.1082858
0.10559802
0.09963157
0.090109195
0.076902415
0.060088015
0.040185103
0.016693412
0.10374007
0.1042764
0.10609946
0.10853648
0.11016994
0.10981913
0.1067203
0.10040657
0.090600016
0.077174642
0.060209793
0.040222727
0.016703211
0.10741122
0.10772816
0.1090789
0.11095231
0.11205462
0.1112424
0.10775189
0.10111098
0.091039915
0.077413941
0.060313762
0.040253709
0.016712613
0.11085131
0.11096668
0.11187789
0.1132166
0.11380961
0.11255535
0.10869278
0.10174473
0.091428747
0.07762013
0.060399769
0.040277955
0.016721579
0.11405867
0.11398934
0.11449339
0.11532764
0.11543468
0.11375849
0.10954353
0.10230822
0.091766704
0.077793255
0.060467791
0.040295433
0.01673007
0.11703502
0.11679666
0.11692473
0.11728522
0.11693059
0.11485303
0.11030536
0.10280236
0.092054356
0.07793362
0.060517962
0.040306181
0.016738054
0.11978461
0.11939164
0.11917329
0.11909051
0.11829902
0.11584094
0.11098006
0.10322854
0.092292665
0.078041808
0.060550584
0.040310311
0.016745503
0.12231363
0.1217792
0.12124214
0.12074591
0.1195425
0.11672483
0.11156998
0.10358867
0.092482981
0.078118684
0.06056614
0.040308018
0.016752392
0.12462963
0.12396575
0.12313578
0.12225488
0.12066432
0.1175079
0.11207801
0.10388506
0.092627025
0.078165393
0.060565284
0.040299573
0.016758706
0.12674118
0.12595878
0.12485979
0.12362179
0.12166843
0.11819386
0.11250748
0.10412047
0.092726857
0.078183335
0.060548837
0.04028532
0.016764435
0.12865751
0.12776657
0.12642062
0.12485173
0.12255934
0.11878689
0.11286207
0.10429795
0.09278483
0.078174141
0.060517768
0.04026567
0.016769575
0.13038832
0.12939792
0.12782537
0.1259504
0.123342
0.11929148
0.11314579
0.10442087
0.092803547
0.078139635
0.060473171
0.040241088
0.01677413
0.13194353
0.13086198
0.12908159
0.12692393
0.12402173
0.11971243
0.1133629
0.1044928
0.092785801
0.078081799
0.06041624
0.04021208
0.016778109
0.13333316
0.13216808
0.13019715
0.12777879
0.12460409
0.1200547
0.11351778
0.10451746
0.092734528
0.078002725
0.060348244
0.040179182
0.016781528
0.13456721
0.13332559
0.13118006
0.12852165
0.12509482
0.12032339
0.11361495
0.10449866
0.092652749
0.07790458
0.060270493
0.040142946
0.016784407
0.13565558
0.13434384
0.13203841
0.12915929
0.12549975
0.12052366
0.11365893
0.10444026
0.092543523
0.077789562
0.060184319
0.040103928
0.016786771
0.13660796
0.135232
0.13278026
0.12969852
0.12582473
0.12066067
0.11365426
0.10434609
0.092409906
0.077659867
0.060091048
0.040062676
0.016788648
0.1374338
0.13599908
0.13341356
0.13014612
0.1260756
0.12073951
0.11360539
0.10421993
0.092254908
0.077517657
0.059991976
0.040019721
0.016790068
0.13814228
0.13665381
0.13394609
0.13050876
0.12625808
0.12076521
0.11351671
0.10406548
0.09208146
0.077365029
0.059888356
0.039975567
0.016791065
0.13874222
0.13720465
0.13438544
0.13079297
0.1263778
0.12074266
0.11339246
0.10388631
0.091892387
0.077203994
0.059781377
0.039930689
0.016791671
0.13924213
0.13765974
0.13473894
0.13100509
0.12644021
0.12067657
0.11323671
0.10368585
0.091690385
0.077036461
0.059672156
0.039885522
0.016791921
0.13965013
0.13802687
0.13501364
0.13115125
0.12645058
0.12057151
0.11305338
0.10346734
0.091478004
0.076864219
0.059561726
0.039840463
0.01679185
0.13997396
0.13831348
0.1352163
0.13123733
0.12641397
0.12043184
0.11284619
0.10323388
0.091257635
0.076688927
0.059451033
0.039795867
0.016791489
0.14022098
0.13852667
0.13535337
0.13126897
0.12633522
0.12026169
0.11261866
0.10298834
0.0910315
0.076512111
0.059340931
0.039752046
0.016790873
0.14039816
0.13867313
0.13543099
0.13125153
0.12621893
0.12006499
0.11237409
0.10273343
0.090801647
0.076335156
0.059232181
0.03970927
0.016790032
0.14051209
0.13875924
0.13545495
0.1311901
0.12606947
0.11984546
0.11211559
0.10247163
0.090569952
0.07615931
0.059125452
0.039667771
0.016788996
0.14056898
0.13879096
0.13543075
0.1310895
0.12589096
0.11960656
0.11184602
0.10220525
0.090338115
0.075985684
0.059021324
0.039627736
0.016787793
0.14057465
0.13877394
0.13536355
0.13095426
0.12568726
0.11935155
0.11156807
0.10193638
0.09010766
0.075815239
0.058920244
0.039589107
0.016786449
0.14053458
0.13871345
0.13525821
0.13078865
0.12546201
0.11908346
0.11128419
0.10166692
0.089879942
0.0756488
0.058822567
0.039551835
0.016784984
0.14045389
0.13861444
0.13511928
0.13059665
0.12521861
0.1188051
0.11099663
0.10139858
0.089656132
0.075487004
0.058728315
0.039516211
0.016783417
0.14033735
0.13848153
0.13495101
0.13038201
0.12496021
0.11851905
0.11070745
0.1011329
0.089437257
0.075330434
0.058637831
0.039482361
0.016781769
0.14018942
0.13831902
0.13475734
0.13014819
0.12468974
0.1182277
0.11041849
0.1008712
0.089224113
0.075179217
0.05855155
0.039450379
0.016780059
0.14001423
0.13813091
0.13454198
0.12989841
0.12440989
0.11793321
0.1101314
0.10061462
0.089017332
0.075034052
0.05846962
0.039420314
0.016778308
0.13981561
0.1379209
0.13430831
0.12963566
0.12412315
0.11763756
0.10984765
0.10036415
0.08881746
0.0748954
0.05839217
0.039392202
0.016776531
0.13959711
0.13769242
0.1340595
0.12936267
0.12383178
0.1173425
0.10956847
0.10012044
0.088625296
0.074763508
0.05831928
0.039366054
0.016774744
0.13936198
0.13744862
0.13379843
0.12908195
0.12353781
0.11704957
0.1092949
0.099884435
0.088441303
0.074638549
0.058250983
0.039341859
0.016772961
0.13911324
0.13719241
0.13352777
0.12879579
0.1232431
0.11676011
0.10902792
0.099656913
0.08826582
0.074520635
0.058187273
0.039319588
0.016771194
0.13885364
0.13692643
0.13324993
0.12850625
0.12294923
0.11647529
0.1087686
0.099438418
0.088099093
0.074409814
0.058128111
0.039299199
0.016769452
0.13858568
0.1366531
0.1329671
0.12821514
0.12265761
0.11619641
0.10851774
0.099229383
0.087941288
0.074306085
0.058073427
0.039280637
0.016767744
0.13831165
0.13637461
0.13268119
0.1279241
0.12236976
0.11592453
0.108276
0.09903014
0.087792498
0.074209399
0.058023125
0.039263838
0.016766078
0.13803357
0.13609287
0.13239403
0.1276348
0.12208696
0.11566054
0.10804391
0.098840933
0.087652752
0.074119668
0.057977094
0.039248735
0.01676446
0.13775331
0.13580973
0.13210733
0.12734869
0.12181034
0.11540521
0.10782191
0.098661922
0.087522024
0.074036769
0.057935203
0.039235256
0.016762894
0.13747259
0.13552687
0.13182265
0.12706709
0.12154088
0.1151592
0.10761033
0.098493195
0.087400235
0.073960549
0.057897309
0.039223325
0.016761387
0.13719299
0.13524583
0.13154137
0.12679115
0.12127945
0.11492303
0.10740942
0.098334768
0.087287258
0.073890828
0.057863259
0.039212865
0.01675994
0.13691594
0.13496797
0.13126474
0.12652188
0.12102674
0.11469711
0.10721933
0.098186592
0.087182921
0.073827398
0.057832883
0.039203795
0.016758558
0.13664271
0.13469453
0.13099383
0.12626013
0.12078338
0.11448178
0.10704013
0.098048553
0.087087011
0.073770028
0.057806006
0.039196031
0.016757241
0.13637443
0.13442659
0.13072961
0.12600667
0.12054982
0.11427725
0.10687182
0.097920486
0.086999279
0.073718467
0.057782441
0.039189488
0.016755992
0.1361121
0.13416507
0.13047288
0.1257621
0.12032647
0.11408365
0.10671431
0.097802173
0.086919443
0.073672448
0.057761997
0.03918408
0.016754811
0.13585658
0.13391081
0.13022434
0.12552693
0.12011358
0.11390103
0.10656749
0.097693357
0.086847199
0.073631694
0.057744481
0.039179722
0.016753698
0.13560861
0.1336645
0.12998459
0.12530157
0.11991137
0.1137294
0.10643116
0.097593749
0.086782228
0.073595923
0.057729702
0.03917633
0.016752652
0.13536884
0.13342673
0.12975409
0.12508635
0.11971996
0.11356866
0.1063051
0.09750304
0.086724201
0.073564855
0.057717474
0.039173827
0.016751673
0.13513782
0.13319802
0.12953327
0.12488151
0.1195394
0.11341872
0.10618907
0.097420903
0.086672787
0.073538216
0.057707618
0.039172136
0.01675076
0.13491598
0.13297876
0.12932243
0.12468722
0.11936969
0.11327941
0.10608278
0.097347002
0.086627657
0.073515737
0.057699964
0.039171191
0.016749911
0.13470372
0.1327693
0.12912182
0.1245036
0.1192108
0.11315053
0.10598594
0.097280993
0.086588481
0.073497158
0.057694351
0.039170928
0.016749125
0.13450133
0.13256991
0.12893162
0.12433068
0.11906262
0.11303187
0.10589822
0.097222526
0.086554933
0.073482224
0.057690622
0.039171286
0.016748401
0.13430903
0.13238076
0.12875194
0.12416848
0.11892502
0.11292315
0.1058193
0.097171239
0.086526686
0.073470684
0.057688626
0.039172209
0.016747737
0.13412697
0.13220199
0.12858283
0.12401691
0.11879779
0.11282409
0.1057488
0.097126761
0.086503408
0.073462288
0.057688213
0.039173639
0.016747132
0.13395522
0.13203362
0.12842426
0.12387586
0.11868071
0.11273435
0.10568636
0.097088713
0.086484768
0.073456789
0.057689237
0.039175521
0.016746584
0.13379378
0.13187565
0.12827614
0.12374514
0.1185735
0.11265357
0.10563157
0.097056704
0.086470431
0.073453939
0.057691551
0.0391778
0.01674609
0.1336426
0.13172798
0.12813833
0.12362453
0.11847584
0.11258138
0.10558402
0.097030339
0.086460061
0.073453493
0.057695012
0.039180422
0.016745648
0.13350154
0.13159047
0.12801064
0.12351375
0.11838738
0.11251736
0.10554328
0.09700922
0.086453327
0.073455213
0.057699483
0.039183333
0.016745255
0.13337045
0.13146292
0.12789281
0.12341249
0.11830774
0.11246109
0.10550892
0.096992955
0.086449907
0.073458869
0.05770483
0.039186485
0.016744909
0.1332491
0.13134511
0.12778458
0.12332042
0.11823652
0.11241215
0.10548054
0.09698116
0.086449489
0.073464244
0.057710932
0.039189831
0.016744607
0.13313725
0.13123677
0.12768564
0.12323718
0.11817334
0.11237011
0.1054577
0.096973468
0.086451782
0.073471133
0.057717673
0.03919333
0.016744346
0.13303463
0.13113762
0.12759568
0.12316242
0.11811779
0.11233456
0.10544001
0.096969529
0.086456509
0.073479352
0.057724955
0.039196947
0.016744124
0.13294098
0.13104737
0.12751437
0.12309577
0.11806948
0.1123051
0.10542709
0.096969016
0.086463419
0.07348873
0.057732686
0.039200652
0.016743937
0.13285599
0.13096571
0.12744139
0.12303688
0.11802802
0.11228134
0.10541859
0.096971622
0.086472278
0.073499117
0.057740789
0.039204418
0.016743784
0.13277939
0.13089234
0.1273764
0.12298537
0.11799303
0.1122629
0.10541415
0.096977062
0.086482872
0.073510372
0.057749193
0.039208225
0.016743663
0.13271085
0.13082695
0.12731907
0.12294088
0.11796414
0.11224943
0.10541346
0.096985064
0.086495
0.073522371
0.057757837
0.039212055
0.016743571
0.13265006
0.13076919
0.12726903
0.12290307
0.11794099
0.11224057
0.10541619
0.096995369
0.086508471
0.073534991
0.057766661
0.039215891
0.016743508
0.13259669
0.13071874
0.12722595
0.12287154
0.11792319
0.11223596
0.10542204
0.097007724
0.0865231
0.073548118
0.057775607
0.039219716
0.01674347
0.13255037
0.13067522
0.12718944
0.12284593
0.11791038
0.11223525
0.10543069
0.097021876
0.086538706
0.073561635
0.057784619
0.039223511
0.016743456
0.13251074
0.13063825
0.12715912
0.12282583
0.11790216
0.11223809
0.10544183
0.097037577
0.086555103
0.073575426
0.057793637
0.039227258
0.016743465
0.13247738
0.13060743
0.12713457
0.12281083
0.11789814
0.11224411
0.10545515
0.097054577
0.086572112
0.073589374
0.057802598
0.039230935
0.016743494
0.13244989
0.13058235
0.12711537
0.12280053
0.11789794
0.11225296
0.10547034
0.097072631
0.086589555
0.073603367
0.057811443
0.039234519
0.01674354
0.13242784
0.13056258
0.12710111
0.12279452
0.11790115
0.11226428
0.10548712
0.097091509
0.086607264
0.073617297
0.057820117
0.039237991
0.016743602
0.13241082
0.1305477
0.12709138
0.12279239
0.11790741
0.11227776
0.1055052
0.097110997
0.08662509
0.073631071
0.057828571
0.039241332
0.016743677
0.13239843
0.13053732
0.12708577
0.12279376
0.11791638
0.11229307
0.10552433
0.097130905
0.086642902
0.073644612
0.05783677
0.039244532
0.016743763
0.13239028
0.13053106
0.12708393
0.12279829
0.11792773
0.11230997
0.10554431
0.097151075
0.086660596
0.073657865
0.05784469
0.039247584
0.016743857
0.13238605
0.13052858
0.1270855
0.12280566
0.11794118
0.1123282
0.10556494
0.097171377
0.086678094
0.073670789
0.057852318
0.039250481
0.01674396
0.1323854
0.13052955
0.1270902
0.12281559
0.11795649
0.11234756
0.10558607
0.097191707
0.086695335
0.073683359
0.057859648
0.039253204
0.016744068
0.13238805
0.13053369
0.12709773
0.12282781
0.11797343
0.11236788
0.10560757
0.09721198
0.086712275
0.073695557
0.057866664
0.039255778
0.016744181
0.13239373
0.13054073
0.12710784
0.1228421
0.1179918
0.11238899
0.10562933
0.097232123
0.086728876
0.073707372
0.057873369
0.039258213
0.016744299
0.13240218
0.13055041
0.12712027
0.12285822
0.11801139
0.11241073
0.10565122
0.097252061
0.086745094
0.073718765
0.057879782
0.039260517
0.016744421
0.13241313
0.13056248
0.12713479
0.12287594
0.11803202
0.11243296
0.10567314
0.097271717
0.086760881
0.07372973
0.057885897
0.039262694
0.016744547
0.13242631
0.13057666
0.12715113
0.12289503
0.11805349
0.1124555
0.10569496
0.097291001
0.086776166
0.073740254
0.05789171
0.039264748
0.016744675
0.13244144
0.13059268
0.12716904
0.12291526
0.11807558
0.11247819
0.10571655
0.097309811
0.08679091
0.073750307
0.057897209
0.039266675
0.016744806
0.13245823
0.13061026
0.12718823
0.12293637
0.11809809
0.11250085
0.10573778
0.097328054
0.086805067
0.073759861
0.057902382
0.039268473
0.016744937
0.13247639
0.13062911
0.12720845
0.12295812
0.1181208
0.11252331
0.1057585
0.09734566
0.086818585
0.073768888
0.057907216
0.039270138
0.016745068
0.13249564
0.13064895
0.12722943
0.12298028
0.11814352
0.11254542
0.10577861
0.09736256
0.08683142
0.073777363
0.057911703
0.039271665
0.016745198
0.13251571
0.13066953
0.12725093
0.12300264
0.11816607
0.11256703
0.10579803
0.097378694
0.086843537
0.073785274
0.057915837
0.039273053
0.016745326
0.13253637
0.13069062
0.12727274
0.123025
0.11818829
0.11258805
0.1058167
0.097394023
0.086854921
0.073792616
0.05791962
0.039274303
0.01674545
0.13255742
0.13071202
0.12729468
0.12304722
0.11821009
0.11260842
0.10583457
0.097408528
0.086865569
0.073799399
0.057923064
0.039275419
0.01674557
0.1325787
0.13073358
0.1273166
0.12306919
0.11823138
0.11262807
0.10585161
0.097422209
0.086875496
0.073805642
0.057926184
0.039276408
0.016745685
0.13260007
0.13075516
0.1273384
0.12309082
0.11825211
0.11264698
0.10586783
0.097435082
0.086884729
0.073811372
0.057929001
0.039277282
0.016745796
0.13262146
0.13077669
0.12736
0.12311206
0.11827224
0.11266514
0.10588324
0.097447174
0.086893301
0.073816622
0.05793154
0.039278052
0.016745902
0.13264278
0.13079809
0.12738134
0.12313286
0.11829176
0.11268257
0.10589785
0.09745852
0.08690125
0.073821428
0.057933827
0.039278729
0.016746004
0.13266398
0.13081931
0.12740239
0.1231532
0.11831066
0.11269926
0.1059117
0.097469153
0.086908615
0.073825823
0.057935883
0.039279326
0.016746102
0.13268498
0.13084029
0.12742307
0.12317304
0.11832892
0.11271521
0.10592481
0.097479106
0.086915428
0.073829833
0.05793773
0.039279851
0.016746196
0.13270572
0.13086096
0.12744335
0.12319234
0.11834652
0.11273044
0.10593718
0.097488399
0.086921714
0.073833483
0.057939382
0.039280311
0.016746287
0.13272612
0.13088124
0.12746316
0.12321105
0.11836343
0.11274493
0.10594882
0.097497047
0.08692749
0.073836788
0.057940849
0.039280712
0.016746373
0.13274609
0.13090105
0.12748242
0.12322912
0.11837961
0.11275865
0.10595974
0.097505054
0.086932766
0.073839755
0.057942138
0.039281056
0.016746457
0.1327655
0.13092029
0.12750104
0.12324647
0.11839501
0.11277158
0.1059699
0.097512418
0.086937543
0.073842388
0.05794325
0.039281341
0.016746536
0.13278427
0.13093886
0.12751894
0.12326304
0.11840959
0.11278369
0.1059793
0.09751913
0.086941819
0.073844688
0.057944183
0.039281568
0.016746612
0.13280229
0.13095666
0.12753603
0.12327875
0.11842329
0.11279494
0.10598792
0.097525183
0.086945592
0.073846652
0.057944937
0.039281734
0.016746683
0.13281946
0.13097361
0.12755225
0.12329356
0.11843608
0.11280531
0.10599575
0.097530574
0.086948862
0.073848281
0.057945512
0.039281837
0.016746749
0.13283573
0.13098965
0.12756752
0.12330741
0.11844793
0.1128148
0.10600278
0.097535308
0.086951636
0.073849582
0.057945909
0.039281877
0.016746809
0.13285106
0.13100474
0.12758184
0.1233203
0.11845883
0.1128234
0.10600904
0.097539403
0.086953931
0.073850567
0.057946135
0.039281854
0.016746864
0.13286545
0.13101888
0.1275952
0.12333224
0.11846881
0.11283115
0.10601455
0.097542891
0.086955775
0.073851258
0.057946204
0.039281774
0.016746913
0.13287894
0.1310321
0.12760764
0.12334326
0.11847792
0.1128381
0.10601937
0.09754582
0.08695721
0.073851684
0.057946133
0.039281642
0.016746957
0.13289157
0.13104446
0.1276192
0.12335343
0.11848621
0.11284432
0.10602356
0.097548252
0.086958286
0.073851885
0.057945947
0.03928147
0.016746995
0.13290343
0.13105603
0.12762998
0.12336282
0.11849378
0.11284988
0.10602721
0.097550257
0.086959062
0.073851905
0.057945674
0.039281268
0.016747029
0.13291458
0.13106689
0.12764003
0.12337151
0.11850069
0.11285487
0.10603038
0.097551905
0.086959598
0.073851788
0.057945342
0.039281051
0.016747059
0.13292509
0.1310771
0.12764944
0.12337958
0.11850704
0.11285936
0.10603315
0.097553264
0.08695995
0.073851577
0.057944977
0.03928083
0.016747085
0.13293502
0.13108671
0.12765826
0.12338709
0.11851287
0.11286343
0.10603559
0.097554385
0.08696016
0.073851301
0.0579446
0.039280616
0.01674711
0.13294436
0.13109574
0.12766651
0.12339405
0.11851822
0.11286709
0.10603772
0.097555302
0.086960256
0.073850983
0.057944224
0.039280415
0.016747133
0.1329531
0.13110418
0.12767419
0.12340048
0.1185231
0.11287036
0.10603956
0.097556025
0.086960244
0.073850625
0.057943849
0.039280229
0.016747155
0.13296119
0.13111199
0.12768125
0.12340635
0.11852749
0.11287323
0.1060411
0.097556541
0.086960114
0.073850216
0.057943467
0.039280053
0.016747176
0.13296855
0.13111908
0.12768764
0.1234116
0.11853133
0.11287566
0.10604229
0.09755682
0.086959837
0.073849733
0.057943061
0.039279878
0.016747195
0.13297511
0.13112541
0.12769329
0.12341617
0.11853459
0.1128776
0.1060431
0.097556821
0.086959378
0.073849146
0.057942608
0.039279692
0.016747212
0.13298082
0.13113089
0.12769815
0.12342002
0.1185372
0.112879
0.10604349
0.097556507
0.086958702
0.073848426
0.057942088
0.039279483
0.016747227
0.13298562
0.1311355
0.12770218
0.12342311
0.11853915
0.11287984
0.10604343
0.097555853
0.086957786
0.073847552
0.057941483
0.039279241
0.016747238
0.13298956
0.13113925
0.12770539
0.12342544
0.11854044
0.11288012
0.10604292
0.097554856
0.086956626
0.07384652
0.057940788
0.039278959
0.016747244
0.13299268
0.13114219
0.12770784
0.12342707
0.11854111
0.11287989
0.106042
0.097553546
0.086955243
0.073845342
0.057940008
0.039278637
0.016747246
0.13299511
0.13114445
0.12770962
0.1234281
0.11854125
0.11287922
0.10604074
0.097551981
0.086953685
0.073844054
0.057939167
0.039278285
0.016747243
0.13299702
0.13114617
0.12771088
0.12342866
0.118541
0.11287823
0.10603923
0.097550248
0.086952021
0.073842708
0.057938296
0.039277916
0.016747236
0.13299858
0.13114754
0.1277118
0.1234289
0.11854049
0.11287705
0.1060376
0.097548449
0.086950335
0.073841367
0.057937438
0.03927755
0.016747226
0.13299997
0.13114872
0.12771253
0.12342899
0.11853987
0.11287581
0.10603597
0.097546689
0.086948712
0.073840095
0.057936633
0.039277208
0.016747215
0.13300135
0.13114987
0.12771323
0.12342907
0.11853928
0.11287465
0.10603444
0.097545059
0.086947227
0.073838946
0.057935919
0.039276909
0.016747204
0.13300282
0.13115109
0.12771401
0.12342924
0.1185388
0.11287364
0.1060331
0.097543623
0.086945929
0.073837958
0.05793532
0.039276666
0.016747195
0.1330044
0.13115243
0.12771489
0.12342953
0.11853848
0.11287281
0.10603196
0.097542405
0.086944839
0.073837144
0.057934843
0.039276483
0.016747188
0.13300604
0.13115384
0.12771587
0.12342994
0.1185383
0.11287216
0.10603102
0.097541392
0.08694394
0.073836491
0.057934482
0.039276363
0.016747185
0.13300765
0.13115524
0.12771685
0.12343038
0.11853819
0.11287161
0.10603022
0.097540525
0.086943183
0.073835958
0.057934209
0.039276295
0.016747184
0.13300907
0.13115647
0.12771771
0.12343074
0.11853805
0.11287107
0.10602945
0.097539717
0.086942492
0.073835485
0.057933985
0.039276262
0.016747186
0.13301012
0.13115738
0.12771828
0.12343086
0.11853773
0.1128704
0.10602861
0.097538867
0.086941777
0.073834998
0.057933753
0.039276228
0.016747189
0.13301064
0.13115781
0.12771843
0.12343063
0.11853711
0.11286951
0.10602759
0.09753788
0.086940955
0.073834426
0.057933458
0.039276157
0.01674719
0.13301052
0.13115763
0.12771804
0.12342993
0.11853611
0.1128683
0.10602631
0.097536686
0.086939965
0.073833724
0.057933064