/*--------------------------------*- C++ -*----------------------------------*\
| =========                 |                                                 |
| \\      /  F ield         | OpenFOAM: The Open Source CFD Toolbox           |
|  \\    /   O peration     | Version:  2506                                  |
|   \\  /    A nd           | Website:  www.openfoam.com                      |
|    \\/     M anipulation  |                                                 |
\*---------------------------------------------------------------------------*/
FoamFile
{
    version     2.0;
    format      ascii;
    arch        "LSB;label=32;scalar=64";
    class       volScalarField;
    location    "27000/water";
    object      epsilon;
}
// * * * * * * * * * * * * * * * * * * * * * * * * * * * * * * * * * * * * * //

dimensions      [0 2 -3 0 0 0 0];

internalField   nonuniform List<scalar> 
2600
(
8.8079773e-05
8.8079245e-05
8.8079271e-05
8.807949e-05
8.8079744e-05
8.8080245e-05
8.8082926e-05
8.8104349e-05
8.8272771e-05
8.9512908e-05
9.8428186e-05
0.00017145296
0.0010138716
6.7789348e-05
6.7791881e-05
6.7793339e-05
6.7794963e-05
6.7796901e-05
6.7799886e-05
6.7810178e-05
6.7875511e-05
6.8312468e-05
7.1039872e-05
8.7857083e-05
0.00021159534
0.0014669324
5.3500886e-05
5.3503148e-05
5.3504846e-05
5.3506859e-05
5.3509287e-05
5.3513643e-05
5.3532992e-05
5.3656306e-05
5.4399641e-05
5.8506995e-05
8.1500797e-05
0.00023956052
0.0017068244
4.3127504e-05
4.3128883e-05
4.3130503e-05
4.3132598e-05
4.3135149e-05
4.3140834e-05
4.3171684e-05
4.3362646e-05
4.4413342e-05
4.9710824e-05
7.7552644e-05
0.00025818579
0.0017816909
3.539909e-05
3.5400132e-05
3.5401605e-05
3.5403513e-05
3.5405834e-05
3.5412916e-05
3.5457613e-05
3.5722605e-05
3.7073304e-05
4.3450503e-05
7.5629285e-05
0.00027290618
0.0017622817
2.9510599e-05
2.9511446e-05
2.95127e-05
2.9514227e-05
2.9516143e-05
2.9525119e-05
2.9586798e-05
2.9933924e-05
3.159515e-05
3.9095388e-05
7.5939385e-05
0.00028837858
0.0017002497
2.4935213e-05
2.4935877e-05
2.4936847e-05
2.4937875e-05
2.4939416e-05
2.4951342e-05
2.503458e-05
2.5477125e-05
2.7489448e-05
3.6318413e-05
7.8818158e-05
0.0003073199
0.0016256765
2.1318423e-05
2.1318913e-05
2.1319549e-05
2.132003e-05
2.1321464e-05
2.1338095e-05
2.144948e-05
2.2008273e-05
2.4447975e-05
3.4968795e-05
8.4593389e-05
0.00033066897
0.0015541994
1.8415642e-05
1.8415958e-05
1.8416233e-05
1.8416208e-05
1.8418091e-05
1.8442025e-05
1.8590687e-05
1.9295945e-05
2.2279378e-05
3.5010665e-05
9.3512814e-05
0.00035786641
0.0014930959
1.6054297e-05
1.6054439e-05
1.6054351e-05
1.6053968e-05
1.6057197e-05
1.6092028e-05
1.6290179e-05
1.7183376e-05
2.0872546e-05
3.6486908e-05
0.00010564207
0.00038720676
0.0014449141
1.411016e-05
1.4110129e-05
1.4109712e-05
1.4109249e-05
1.4115119e-05
1.4165612e-05
1.4429188e-05
1.5565379e-05
2.0175367e-05
3.9486471e-05
0.00012074249
0.00041640751
0.0014094648
1.249217e-05
1.2491978e-05
1.249131e-05
1.24912e-05
1.2501471e-05
1.2573786e-05
1.2923263e-05
1.4374121e-05
2.0181311e-05
4.4103574e-05
0.00013819401
0.0004433175
0.0013850187
1.1132483e-05
1.1132152e-05
1.1131368e-05
1.1132227e-05
1.1149209e-05
1.1251189e-05
1.1712642e-05
1.3570321e-05
2.0918928e-05
5.0386672e-05
0.00015703479
0.00046647967
0.0013691707
9.9797899e-06
9.9793621e-06
9.9786681e-06
9.9813266e-06
1.0007987e-05
1.0149541e-05
1.0756002e-05
1.3137755e-05
2.2440689e-05
5.8285038e-05
0.00017613324
0.00048532286
0.0013594869
8.994766e-06
8.994305e-06
8.9939894e-06
8.9995396e-06
9.0396464e-06
9.2332357e-06
1.0026406e-05
1.3079617e-05
2.4808572e-05
6.7609618e-05
0.00019442665
0.00050000486
0.0013539038
8.1468971e-06
8.1464947e-06
8.1469469e-06
8.1567947e-06
8.2150975e-06
8.4763588e-06
9.5087285e-06
1.3415553e-05
2.807526e-05
7.8026841e-05
0.0002111215
0.00051110137
0.0013508788
7.4122408e-06
7.412023e-06
7.4137548e-06
7.4296903e-06
7.5121568e-06
7.8606834e-06
9.1980664e-06
1.4178291e-05
3.2262331e-05
8.9094588e-05
0.00022578146
0.00051932558
0.0013493668
6.7718206e-06
6.7719549e-06
6.7756276e-06
6.7999151e-06
6.9140283e-06
7.3743439e-06
9.0987625e-06
1.5408888e-05
3.7339829e-05
0.00010033156
0.00023829849
0.00052535583
0.0013487149
6.2104575e-06
6.2111621e-06
6.2176208e-06
6.2531142e-06
6.4082476e-06
7.0110033e-06
9.2236697e-06
1.7149875e-05
4.3213605e-05
0.00011129559
0.0002487951
0.00052976262
0.0013485457
5.7159095e-06
5.7174657e-06
5.7277834e-06
5.7780724e-06
5.9859581e-06
6.7693776e-06
9.5932706e-06
1.9436232e-05
4.9726067e-05
0.00012164394
0.00025751549
0.00053299526
0.0013486594
5.2782322e-06
5.2809984e-06
5.2965329e-06
5.3661281e-06
5.6414368e-06
6.6530083e-06
1.0234238e-05
2.228513e-05
5.6672016e-05
0.00013115952
0.00026474159
0.0005353945
0.0013489619
4.889296e-06
4.893728e-06
4.9161934e-06
5.0107595e-06
5.3718124e-06
6.6701645e-06
1.1177042e-05
2.5686553e-05
6.3825677e-05
0.00013974422
0.00027074337
0.00053721257
0.0013494179
4.5424222e-06
4.549097e-06
4.5806559e-06
4.707302e-06
5.1769356e-06
6.8337316e-06
1.2452335e-05
2.9597476e-05
7.0970789e-05
0.00014739148
0.0002757568
0.0005386328
0.0013500205
4.2321037e-06
4.2417515e-06
4.2851315e-06
4.4527719e-06
5.0593678e-06
7.1609028e-06
1.4086151e-05
3.394183e-05
7.7925113e-05
0.00015415333
0.00027997823
0.00053978641
0.0013507744
3.9537926e-06
3.9673375e-06
4.0259782e-06
4.2457763e-06
5.0244498e-06
7.6724685e-06
1.6094424e-05
3.8616919e-05
8.4553951e-05
0.00016011197
0.00028356674
0.00054076615
0.0013516866
3.7037376e-06
3.7223496e-06
3.8005873e-06
4.0864974e-06
5.0804009e-06
8.3914976e-06
1.8477844e-05
4.3504911e-05
9.077206e-05
0.00016536002
0.00028664926
0.00054163684
0.0013527623
3.4788613e-06
3.504022e-06
3.6073203e-06
3.9767408e-06
5.2383695e-06
9.3412706e-06
2.1218352e-05
4.8486363e-05
9.6537094e-05
0.00016998886
0.00028932618
0.00054244334
0.0013540034
3.2766694e-06
3.3102566e-06
3.4454921e-06
3.9200366e-06
5.5123349e-06
1.0542478e-05
2.427837e-05
5.3452375e-05
0.00010183911
0.00017408281
0.00029167656
0.00054321637
0.0013554084
3.0951868e-06
3.1395803e-06
3.315394e-06
3.9217755e-06
5.9187331e-06
1.2009945e-05
2.7603266e-05
5.8312862e-05
0.0001066899
0.00017771679
0.00029376257
0.00054397675
0.0013569728
2.9329181e-06
2.991133e-06
3.2183574e-06
3.9893517e-06
6.4756801e-06
1.3749403e-05
3.112658e-05
6.3000084e-05
0.00011111418
0.0001809559
0.00029563312
0.00054473837
0.0013586903
2.7888292e-06
2.8646819e-06
3.1568533e-06
4.132263e-06
7.2016968e-06
1.5755029e-05
3.4776807e-05
6.7468124e-05
0.00011514328
0.00018385585
0.00029732665
0.00054550992
0.0013605531
2.6623516e-06
2.7606642e-06
3.1346229e-06
4.3621021e-06
8.1139276e-06
1.8008404e-05
3.8484156e-05
7.1689805e-05
0.00011881108
0.00018646428
0.00029887505
0.00054629402
0.0013625491
2.5534088e-06
2.680258e-06
3.1568305e-06
4.6923498e-06
9.2259802e-06
2.0479255e-05
4.21859e-05
7.5652556e-05
0.00012215122
0.00018882083
0.00030030031
0.00054708344
0.001364665
2.4624667e-06
2.6254827e-06
3.2302147e-06
5.1378785e-06
1.0545685e-05
2.3127918e-05
4.5829653e-05
7.935444e-05
0.00012519597
0.00019095973
0.00030162122
0.00054787012
0.0013668874
2.3906118e-06
2.5993266e-06
3.3632046e-06
5.7140893e-06
1.2073207e-05
2.5908985e-05
4.9374528e-05
8.2800768e-05
0.00012797522
0.0001929092
0.00030285018
0.00054865287
0.0013692048
2.3396576e-06
2.6059009e-06
3.5659452e-06
6.4356569e-06
1.3799941e-05
2.877532e-05
5.2790669e-05
8.6001444e-05
0.00013051585
0.0001946916
0.00030399376
0.00054944273
0.0013716092
2.3122834e-06
2.6506069e-06
3.850162e-06
7.3149536e-06
1.5708514e-05
3.1681693e-05
5.6057928e-05
8.8969442e-05
0.00013284315
0.00019632773
0.00030505437
0.00055025018
0.0013740956
2.312204e-06
2.7402972e-06
4.2287859e-06
8.3603387e-06
1.7773922e-05
3.4587409e-05
5.9163896e-05
9.1718486e-05
0.000134977
0.00019782951
0.00030604752
0.00055107623
0.0013766577
2.3443665e-06
2.8833945e-06
4.7152664e-06
9.5746054e-06
1.996561e-05
3.7457896e-05
6.2102576e-05
9.4263949e-05
0.00013693775
0.00019920349
0.00030698676
0.00055192215
0.0013792894
2.4151614e-06
3.0899102e-06
5.3225449e-06
1.0953906e-05
2.2249994e-05
4.0265061e-05
6.487208e-05
9.6618925e-05
0.00013873802
0.00020046565
0.00030788007
0.00055278756
0.0013819844
2.5326206e-06
3.3712895e-06
6.0617316e-06
1.2487423e-05
2.4593019e-05
4.2987259e-05
6.7474463e-05
9.8797814e-05
0.00014038632
0.00020163083
0.00030873382
0.00055367122
0.0013847362
2.7065547e-06
3.7399974e-06
6.9406298e-06
1.4157865e-05
2.6962173e-05
4.5608171e-05
6.9912766e-05
0.00010081056
0.00014189658
0.00020271014
0.00030955281
0.00055457138
0.0013875385
2.9485503e-06
4.2087766e-06
7.9623512e-06
1.5942735e-05
2.9328092e-05
4.8116705e-05
7.2192974e-05
0.00010266311
0.00014328329
0.00020371267
0.00031034059
0.00055548596
0.0013903847
3.2717209e-06
4.789554e-06
9.124283e-06
1.7815987e-05
3.1665002e-05
5.0504534e-05
7.4318481e-05
0.00010436656
0.0001445581
0.0002046458
0.00031109971
0.0005564126
0.0013932687
3.6900859e-06
5.4920734e-06
1.0417684e-05
1.9750013e-05
3.39517e-05
5.2768184e-05
7.6289669e-05
0.00010593299
0.00014573089
0.00020551555
0.00031183197
0.00055734878
0.001396184
4.2174849e-06
6.3224283e-06
1.1827952e-05
2.1717141e-05
3.6170246e-05
5.490116e-05
7.8113758e-05
0.00010737249
0.00014680993
0.00020632674
0.00031253851
0.00055829181
0.0013991244
4.8660261e-06
7.2817749e-06
1.3335594e-05
2.3691123e-05
3.8306688e-05
5.6898168e-05
7.9798305e-05
0.0001086939
0.00014780214
0.00020708321
0.00031321994
0.0005592389
0.0014020837
5.6442494e-06
8.3655567e-06
1.4917866e-05
2.564878e-05
4.0344257e-05
5.8760207e-05
8.1350099e-05
0.00010990478
0.00014871321
0.00020778792
0.00031387635
0.00056018712
0.0014050556
6.5553591e-06
9.5634599e-06
1.6550686e-05
2.7565321e-05
4.2272541e-05
6.0488808e-05
8.2775228e-05
0.00011101156
0.00014954783
0.00020844308
0.00031450744
0.0005611334
0.0014080338
7.596153e-06
1.0860441e-05
1.8207369e-05
2.9419102e-05
4.408453e-05
6.2085814e-05
8.4079034e-05
0.0001120196
0.00015030969
0.00020905022
0.00031511248
0.00056207453
0.0014110119
8.7563146e-06
1.223555e-05
1.9861232e-05
3.1193216e-05
4.5774965e-05
6.355318e-05
8.5266112e-05
0.00011293328
0.00015100165
0.00020961023
0.00031569038
0.00056300711
0.0014139831
1.0017521e-05
1.3664334e-05
2.1488448e-05
3.2873858e-05
4.7340054e-05
6.4892867e-05
8.6340347e-05
0.00011375612
0.0001516258
0.00021012347
0.00031623966
0.00056392755
0.0014169405
1.13559e-05
1.512121e-05
2.3068171e-05
3.4450178e-05
4.8777289e-05
6.6106812e-05
8.7304985e-05
0.00011449085
0.00015218355
0.00021058975
0.00031675852
0.00056483204
0.0014198766
1.2744263e-05
1.658108e-05
2.4582902e-05
3.5914123e-05
5.0085355e-05
6.7196971e-05
8.8162738e-05
0.00011513953
0.00015267569
0.00021100843
0.00031724482
0.00056571653
0.0014227834
1.415448e-05
1.8020636e-05
2.6018604e-05
3.7260265e-05
5.1264092e-05
6.8165414e-05
8.8915932e-05
0.0001157037
0.00015310253
0.00021137848
0.00031769616
0.00056657676
0.0014256524
1.5559578e-05
1.94193e-05
2.7364606e-05
3.8485598e-05
5.231449e-05
6.901445e-05
8.9566665e-05
0.0001161845
0.00015346401
0.00021169859
0.00031810989
0.00056740823
0.0014284744
1.6935336e-05
2.0759785e-05
2.8613377e-05
3.9589303e-05
5.3238669e-05
6.9746757e-05
9.0116988e-05
0.00011658289
0.00015375983
0.00021196724
0.00031848323
0.00056820634
0.0014312396
1.8261266e-05
2.2028324e-05
2.9760205e-05
4.0572477e-05
5.4039842e-05
7.0365496e-05
9.0569077e-05
0.00011689975
0.00015398961
0.00021218284
0.00031881337
0.0005689664
0.0014339377
1.9521045e-05
2.3214634e-05
3.0802834e-05
4.1437841e-05
5.4722227e-05
7.0874392e-05
9.0925391e-05
0.00011713613
0.00015415307
0.0002123439
0.00031909759
0.00056968379
0.0014365579
2.0702512e-05
2.4311686e-05
3.1741084e-05
4.2189435e-05
5.5290937e-05
7.1277772e-05
9.118879e-05
0.00011729336
0.00015425015
0.00021244916
0.00031933341
0.00057035411
0.0014390892
2.1797367e-05
2.5315351e-05
3.2576488e-05
4.2832331e-05
5.5751827e-05
7.1580557e-05
9.1362625e-05
0.00011737319
0.0001542812
0.00021249774
0.00031951873
0.00057097331
0.0014415208
2.280069e-05
2.6223981e-05
3.331194e-05
4.3372361e-05
5.6111336e-05
7.1788218e-05
9.1450776e-05
0.00011737786
0.00015424703
0.00021248926
0.00031965201
0.00057153788
0.0014438419
2.3710401e-05
2.7037975e-05
3.3951387e-05
4.3815873e-05
5.6376315e-05
7.190669e-05
9.1457655e-05
0.00011731022
0.00015414911
0.000212424
0.00031973233
0.00057204498
0.0014460426
2.4526699e-05
2.7759358e-05
3.4499553e-05
4.4169528e-05
5.6553868e-05
7.1942282e-05
9.1388168e-05
0.00011717368
0.00015398951
0.00021230291
0.00031975954
0.00057249255
0.001448114
2.525156e-05
2.8391401e-05
3.4961706e-05
4.4440129e-05
5.6651212e-05
7.1901558e-05
9.1247654e-05
0.00011697221
0.00015377099
0.00021212768
0.00031973427
0.00057287944
0.001450048
2.5888276e-05
2.8938285e-05
3.5343454e-05
4.4634485e-05
5.6675544e-05
7.1791233e-05
9.1041801e-05
0.00011671034
0.00015349694
0.00021190075
0.00031965799
0.0005732054
0.0014518386
2.6441081e-05
2.9404815e-05
3.565059e-05
4.4759302e-05
5.6633947e-05
7.1618066e-05
9.0776553e-05
0.00011639299
0.00015317136
0.00021162526
0.00031953294
0.00057347114
0.0014534808
2.6914834e-05
2.9796195e-05
3.5888957e-05
4.4821106e-05
5.6533304e-05
7.1388765e-05
9.0458012e-05
0.00011602548
0.00015279874
0.00021130497
0.00031936212
0.00057367824
0.0014549719
2.731477e-05
3.0117836e-05
3.6064345e-05
4.4826183e-05
5.6380236e-05
7.1109904e-05
9.0092342e-05
0.00011561335
0.00015238399
0.00021094419
0.00031914913
0.00057382908
0.0014563106
2.7646311e-05
3.0375211e-05
3.6182416e-05
4.4780537e-05
5.6181059e-05
7.0787857e-05
8.9685678e-05
0.00011516232
0.00015193234
0.00021054764
0.00031889812
0.00057392677
0.0014574976
2.7914912e-05
3.0573746e-05
3.6248644e-05
4.4689864e-05
5.5941754e-05
7.0428742e-05
8.9244048e-05
0.00011467816
0.0001514492
0.00021012034
0.00031861363
0.00057397499
0.0014585351
2.8125956e-05
3.071874e-05
3.6268275e-05
4.4559537e-05
5.5667947e-05
7.0038381e-05
8.87733e-05
0.00011416656
0.00015094006
0.00020966751
0.00031830045
0.00057397783
0.0014594269
2.8284676e-05
3.0815303e-05
3.6246294e-05
4.4394596e-05
5.5364899e-05
6.9622267e-05
8.8279043e-05
0.00011363314
0.00015041038
0.00020919438
0.0003179635
0.00057393972
0.0014601782
2.8396094e-05
3.0868314e-05
3.6187415e-05
4.4199747e-05
5.5037505e-05
6.9185541e-05
8.7766604e-05
0.00011308327
0.00014986552
0.00020870617
0.00031760771
0.00057386523
0.0014607953
2.8464993e-05
3.08824e-05
3.6096062e-05
4.397937e-05
5.4690295e-05
6.8732987e-05
8.7240986e-05
0.0001125221
0.00014931061
0.0002082079
0.00031723789
0.00057375898
0.0014612853
2.849589e-05
3.0861918e-05
3.5976375e-05
4.3737515e-05
5.432744e-05
6.8269018e-05
8.6706845e-05
0.00011195443
0.00014875053
0.00020770439
0.00031685867
0.00057362553
0.0014616562
2.8493024e-05
3.0810945e-05
3.5832204e-05
4.3477924e-05
5.3952766e-05
6.7797679e-05
8.6168474e-05
0.00011138475
0.00014818984
0.00020720013
0.00031647439
0.00057346928
0.0014619165
2.8460353e-05
3.0733282e-05
3.5667118e-05
4.3204033e-05
5.356976e-05
6.7322655e-05
8.5629791e-05
0.00011081716
0.0001476327
0.00020669924
0.00031608905
0.00057329442
0.0014620748
2.8401558e-05
3.0632456e-05
3.5484413e-05
4.2918985e-05
5.3181588e-05
6.6847275e-05
8.5094339e-05
0.00011025537
0.00014708291
0.00020620548
0.00031570629
0.00057310485
0.0014621402
2.8320043e-05
3.0511727e-05
3.5287118e-05
4.262565e-05
5.2791108e-05
6.6374525e-05
8.4565291e-05
0.00010970271
0.00014654385
0.00020572217
0.00031532934
0.00057290416
0.0014621215
2.8218953e-05
3.0374094e-05
3.5078009e-05
4.2326628e-05
5.2400887e-05
6.5907066e-05
8.4045456e-05
0.00010916211
0.0001460185
0.00020525221
0.00031496101
0.0005726956
0.0014620274
2.8101174e-05
3.0222312e-05
3.4859621e-05
4.2024271e-05
5.2013213e-05
6.5447242e-05
8.3537293e-05
0.00010863613
0.00014550942
0.00020479809
0.00031460373
0.00057248208
0.0014618664
2.7969352e-05
3.0058897e-05
3.4634257e-05
4.1720697e-05
5.1630116e-05
6.4997105e-05
8.3042928e-05
0.00010812695
0.00014501877
0.00020436187
0.0003142595
0.00057226617
0.0014616468
2.7825903e-05
2.9886145e-05
3.4404004e-05
4.1417796e-05
5.125338e-05
6.4558426e-05
8.256417e-05
0.00010763639
0.00014454835
0.00020394523
0.00031392996
0.00057205011
0.0014613762
2.7673028e-05
2.9706137e-05
3.4170743e-05
4.1117252e-05
5.0884562e-05
6.4132718e-05
8.2102531e-05
0.00010716596
0.00014409957
0.00020354948
0.00031361638
0.00057183576
0.0014610621
2.7512721e-05
2.952076e-05
3.3936165e-05
4.0820555e-05
5.0525007e-05
6.3721251e-05
8.1659248e-05
0.00010671685
0.00014367354
0.00020317561
0.00031331978
0.00057162449
0.001460711
2.7346788e-05
2.9331712e-05
3.3701777e-05
4.0529012e-05
5.0175862e-05
6.3325074e-05
8.1235298e-05
0.00010628995
0.00014327104
0.00020282423
0.0003130407
0.00057141639
0.0014603286
2.7176854e-05
2.9140519e-05
3.346892e-05
4.0243759e-05
4.9838093e-05
6.2945028e-05
8.0831431e-05
0.00010588593
0.00014289262
0.00020249588
0.00031277952
0.00057120926
0.0014599197
2.7004379e-05
2.8948542e-05
3.3238781e-05
3.9965777e-05
4.9512499e-05
6.2581768e-05
8.0448179e-05
0.00010550517
0.00014253849
0.00020219043
0.00031253534
0.00057100467
0.0014594897
2.6830669e-05
2.8756996e-05
3.3012396e-05
3.9695902e-05
4.9199725e-05
6.223578e-05
8.0085898e-05
0.00010514794
0.00014220886
0.00020190801
0.00031230612
0.00057080571
0.0014590437
2.6656884e-05
2.8566953e-05
3.2790673e-05
3.9434839e-05
4.8900279e-05
6.1907402e-05
7.9744774e-05
0.00010481424
0.00014190344
0.00020164699
0.00031209277
0.00057061394
0.0014585869
2.6484054e-05
2.8379358e-05
3.2574393e-05
3.9183169e-05
4.8614543e-05
6.1596828e-05
7.9424821e-05
0.00010450389
0.00014162171
0.0002014064
0.00031189577
0.00057043048
0.0014581236
2.6313087e-05
2.8195036e-05
3.2364224e-05
3.8941366e-05
4.8342789e-05
6.130415e-05
7.9125976e-05
0.00010421667
0.00014136221
0.00020118622
0.00031171522
0.00057025611
0.0014576579
2.6144777e-05
2.8014706e-05
3.2160733e-05
3.8709803e-05
4.8085189e-05
6.1029344e-05
7.884799e-05
0.00010395153
0.00014112446
0.00020098613
0.00031155096
0.00057009128
0.0014571931
2.5979816e-05
2.7838985e-05
3.196439e-05
3.8488764e-05
4.7841824e-05
6.0772276e-05
7.8590336e-05
0.00010370764
0.00014090797
0.00020080564
0.00031140263
0.00056993627
0.0014567324
2.5818802e-05
2.7668399e-05
3.1775584e-05
3.8278456e-05
4.7612705e-05
6.0532704e-05
7.8352152e-05
0.00010348449
0.00014071215
0.00020064412
0.00031126974
0.00056979116
0.0014562785
2.5662249e-05
2.7503397e-05
3.1594631e-05
3.8079032e-05
4.7397755e-05
6.0309954e-05
7.8132956e-05
0.00010328146
0.00014053627
0.00020050082
0.00031115169
0.00056965594
0.0014558335
2.5510597e-05
2.7344358e-05
3.1421798e-05
3.7890532e-05
4.7196571e-05
6.0103638e-05
7.79322e-05
0.00010309787
0.00014037954
0.00020037493
0.0003110478
0.00056953048
0.0014553994
2.5364226e-05
2.7191602e-05
3.1257211e-05
3.7712808e-05
4.7008895e-05
5.9913322e-05
7.7749285e-05
0.00010293297
0.00014024112
0.00020026558
0.00031095736
0.00056941458
0.001454978
2.5223414e-05
2.704532e-05
3.1100914e-05
3.7545747e-05
4.6834436e-05
5.9738533e-05
7.7583564e-05
0.00010278597
0.00014012009
0.00020017184
0.0003108796
0.00056930797
0.0014545706
2.5088366e-05
2.6905645e-05
3.0952916e-05
3.7389203e-05
4.6672869e-05
5.9578762e-05
7.7434355e-05
0.00010265602
0.00014001554
0.00020009279
0.00031081373
0.00056921034
0.0014541783
2.495923e-05
2.6772668e-05
3.081319e-05
3.7242993e-05
4.6523837e-05
5.9433471e-05
7.7300944e-05
0.00010254228
0.00013992649
0.00020002746
0.00031075896
0.00056912133
0.0014538021
2.4836111e-05
2.6646438e-05
3.0681675e-05
3.7106909e-05
4.6386957e-05
5.9302096e-05
7.7182597e-05
0.00010244386
0.000139852
0.00019997489
0.00031071448
0.00056904054
0.0014534426
2.4719072e-05
2.6526967e-05
3.0558279e-05
3.6980711e-05
4.6261822e-05
5.9184052e-05
7.7078562e-05
0.00010235988
0.0001397911
0.00019993416
0.00031067951
0.00056896758
0.0014531002
2.4608143e-05
2.6414235e-05
3.0442877e-05
3.6864138e-05
4.6148004e-05
5.9078736e-05
7.6988075e-05
0.00010228945
0.00013974283
0.00019990432
0.00031065329
0.00056890203
0.0014527753
2.4503321e-05
2.6308191e-05
3.0335324e-05
3.6756904e-05
4.6045056e-05
5.8985538e-05
7.6910371e-05
0.00010223168
0.00013970626
0.00019988448
0.00031063507
0.0005688435
0.0014524679
2.4404575e-05
2.6208759e-05
3.0235446e-05
3.6658707e-05
4.5952522e-05
5.8903837e-05
7.6844684e-05
0.00010218571
0.00013968047
0.00019987376
0.00031062415
0.00056879161
0.0014521782
2.4311847e-05
2.6115838e-05
3.0143052e-05
3.6569227e-05
4.586993e-05
5.883301e-05
7.6790253e-05
0.00010215067
0.00013966456
0.00019987134
0.00031061986
0.000568746
0.001451906
2.4225057e-05
2.6029304e-05
3.0057932e-05
3.648813e-05
4.5796806e-05
5.8772434e-05
7.6746327e-05
0.00010212572
0.00013965768
0.0001998764
0.00031062157
0.00056870631
0.0014516512
2.4144105e-05
2.5949017e-05
2.9979858e-05
3.6415074e-05
4.5732667e-05
5.8721487e-05
7.6712166e-05
0.00010211005
0.000139659
0.00019988819
0.00031062867
0.0005686722
0.0014514135
2.406887e-05
2.5874817e-05
2.9908592e-05
3.6349704e-05
4.5677029e-05
5.8679555e-05
7.6687044e-05
0.00010210287
0.00013966771
0.00019990598
0.00031064058
0.00056864333
0.0014511928
2.3999215e-05
2.5806531e-05
2.9843882e-05
3.6291662e-05
4.5629408e-05
5.8646031e-05
7.6670254e-05
0.0001021034
0.00013968305
0.00019992907
0.00031065675
0.00056861936
0.0014509888
2.3934992e-05
2.5743972e-05
2.9785466e-05
3.6240583e-05
4.5589322e-05
5.8620318e-05
7.6661108e-05
0.00010211092
0.00013970429
0.00019995681
0.00031067667
0.00056859993
0.0014508009
2.3876034e-05
2.5686941e-05
2.9733075e-05
3.61961e-05
4.5556293e-05
5.8601831e-05
7.6658938e-05
0.00010212471
0.00013973074
0.00019998857
0.00031069984
0.00056858468
0.0014506288
2.3822169e-05
2.5635232e-05
2.9686434e-05
3.6157847e-05
4.552985e-05
5.859e-05
7.6663099e-05
0.00010214409
0.00013976174
0.00020002377
0.00031072578
0.00056857329
0.0014504719
2.3773211e-05
2.558863e-05
2.9645265e-05
3.6125455e-05
4.5509528e-05
5.8584271e-05
7.6672973e-05
0.00010216843
0.00013979666
0.00020006187
0.00031075407
0.0005685654
0.0014503297
2.372897e-05
2.5546913e-05
2.9609284e-05
3.6098562e-05
4.5494873e-05
5.8584106e-05
7.6687965e-05
0.0001021971
0.00013983494
0.00020010235
0.00031078429
0.00056856069
0.0014502015
2.3689249e-05
2.5509855e-05
2.957821e-05
3.6076808e-05
4.5485442e-05
5.858899e-05
7.670751e-05
0.00010222954
0.00013987601
0.00020014475
0.00031081609
0.00056855887
0.0014500867
2.3653843e-05
2.5477228e-05
2.9551759e-05
3.6059838e-05
4.5480804e-05
5.8598425e-05
7.6731069e-05
0.0001022652
0.00013991938
0.00020018864
0.0003108491
0.00056855966
0.0014499845
2.3622549e-05
2.5448802e-05
2.9529652e-05
3.6047306e-05
4.5480543e-05
5.8611935e-05
7.6758134e-05
0.00010230358
0.00013996458
0.00020023362
0.00031088305
0.00056856281
0.0014498943
2.3595158e-05
2.5424345e-05
2.951161e-05
3.6038873e-05
4.5484257e-05
5.8629067e-05
7.6788224e-05
0.00010234419
0.00014001119
0.00020027933
0.00031091765
0.00056856811
0.0014498153
2.357146e-05
2.5403626e-05
2.9497359e-05
3.603421e-05
4.5491558e-05
5.8649389e-05
7.6820887e-05
0.0001023866
0.00014005879
0.00020032546
0.00031095266
0.00056857534
0.0014497471
2.3551248e-05
2.5386417e-05
2.9486631e-05
3.6032996e-05
4.5502077e-05
5.8672493e-05
7.6855701e-05
0.00010243041
0.00014010704
0.00020037171
0.00031098786
0.00056858434
0.0014496889
2.3534312e-05
2.5372491e-05
2.9479162e-05
3.6034922e-05
4.5515458e-05
5.8697991e-05
7.689227e-05
0.00010247523
0.00014015561
0.00020041781
0.00031102305
0.00056859491
0.0014496403
2.3520447e-05
2.5361624e-05
2.9474696e-05
3.6039689e-05
4.5531364e-05
5.8725521e-05
7.6930224e-05
0.00010252072
0.00014020418
0.00020046352
0.00031105805
0.00056860689
0.0014496006
2.3509447e-05
2.5353597e-05
2.9472982e-05
3.6047011e-05
4.5549473e-05
5.8754738e-05
7.6969221e-05
0.00010256656
0.0001402525
0.00020050863
0.00031109269
0.0005686201
0.0014495694
2.3501112e-05
2.5348194e-05
2.9473778e-05
3.6056612e-05
4.556948e-05
5.8785322e-05
7.7008943e-05
0.00010261246
0.0001403003
0.00020055294
0.0003111268
0.00056863434
0.0014495461
2.3495243e-05
2.5345206e-05
2.9476849e-05
3.6068229e-05
4.5591098e-05
5.8816974e-05
7.7049098e-05
0.00010265814
0.00014034737
0.00020059626
0.00031116025
0.00056864943
0.0014495301
2.3491649e-05
2.5344427e-05
2.948197e-05
3.608161e-05
4.5614056e-05
5.8849413e-05
7.7089415e-05
0.00010270338
0.0001403935
0.00020063845
0.00031119288
0.00056866517
0.0014495209
2.349014e-05
2.534566e-05
2.9488923e-05
3.6096518e-05
4.5638099e-05
5.8882383e-05
7.712965e-05
0.00010274795
0.00014043851
0.00020067936
0.00031122457
0.00056868137
0.0014495178
2.3490535e-05
2.5348713e-05
2.9497501e-05
3.6112728e-05
4.566299e-05
5.8915646e-05
7.7169579e-05
0.00010279166
0.00014048226
0.00020071888
0.00031125522
0.00056869786
0.0014495203
2.3492657e-05
2.5353403e-05
2.9507506e-05
3.6130028e-05
4.568851e-05
5.8948985e-05
7.7209004e-05
0.00010283434
0.00014052461
0.0002007569
0.00031128474
0.00056871448
0.0014495276
2.3496335e-05
2.5359553e-05
2.9518752e-05
3.6148219e-05
4.5714455e-05
5.8982203e-05
7.7247746e-05
0.00010287584
0.00014056544
0.00020079335
0.00031131308
0.00056873112
0.0014495393
2.3501408e-05
2.5366995e-05
2.953106e-05
3.6167117e-05
4.5740639e-05
5.9015124e-05
7.7285651e-05
0.00010291604
0.00014060468
0.00020082818
0.00031134018
0.0005687477
0.0014495547
2.350772e-05
2.5375569e-05
2.9544264e-05
3.6186551e-05
4.5766893e-05
5.904759e-05
7.7322583e-05
0.00010295483
0.00014064226
0.00020086134
0.00031136603
0.00056876416
0.0014495734
2.3515123e-05
2.5385124e-05
2.9558208e-05
3.6206361e-05
4.5793062e-05
5.9079459e-05
7.7358425e-05
0.00010299214
0.00014067812
0.00020089283
0.00031139063
0.00056878049
0.001449595
2.3523476e-05
2.5395517e-05
2.9572747e-05
3.6226403e-05
4.5819008e-05
5.9110609e-05
7.7393079e-05
0.00010302789
0.00014071223
0.00020092264
0.00031141398
0.00056879665
0.0014496191
2.3532645e-05
2.5406615e-05
2.9587744e-05
3.6246542e-05
4.5844604e-05
5.9140931e-05
7.7426462e-05
0.00010306203
0.00014074457
0.00020095076
0.00031143609
0.00056881258
0.0014496455
2.3542506e-05
2.5418289e-05
2.9603074e-05
3.6266656e-05
4.5869739e-05
5.9170332e-05
7.7458504e-05
0.00010309452
0.00014077512
0.0002009772
0.00031145696
0.00056882819
0.0014496738
2.355294e-05
2.5430422e-05
2.9618619e-05
3.6286633e-05
4.5894314e-05
5.919873e-05
7.7489149e-05
0.00010312533
0.00014080388
0.00020100198
0.00031147659
0.00056884315
0.0014497038
2.3563834e-05
2.5442903e-05
2.9634271e-05
3.6306373e-05
4.591824e-05
5.9226057e-05
7.7518353e-05
0.00010315445
0.00014083086
0.00020102509
0.00031149489
0.00056885741
0.0014497352
2.3575086e-05
2.545563e-05
2.9649932e-05
3.6325785e-05
4.594144e-05
5.9252255e-05
7.7546081e-05
0.00010318185
0.00014085607
0.00020104657
0.00031151173
0.00056887106
0.0014497676
2.3586599e-05
2.5468507e-05
2.9665512e-05
3.6344788e-05
4.5963848e-05
5.9277278e-05
7.7572312e-05
0.00010320756
0.00014087952
0.00020106636
0.00031152715
0.00056888411
0.0014498009
2.3598282e-05
2.5481447e-05
2.9680927e-05
3.6363309e-05
4.5985408e-05
5.9301093e-05
7.7597036e-05
0.00010323157
0.00014090123
0.00020108442
0.00031154124
0.00056889654
0.0014498347
2.3610053e-05
2.549437e-05
2.9696106e-05
3.6381289e-05
4.6006076e-05
5.9323674e-05
7.7620251e-05
0.0001032539
0.00014092118
0.00020110083
0.00031155405
0.00056890833
0.0014498688
2.3621837e-05
2.5507203e-05
2.9710982e-05
3.6398673e-05
4.6025816e-05
5.9345007e-05
7.7641964e-05
0.00010327458
0.00014093939
0.00020111565
0.00031156564
0.00056891947
0.0014499028
2.3633565e-05
2.5519882e-05
2.9725499e-05
3.6415417e-05
4.6044602e-05
5.9365091e-05
7.7662198e-05
0.00010329358
0.00014095592
0.00020112899
0.00031157608
0.00056892997
0.0014499365
2.3645177e-05
2.5532348e-05
2.9739608e-05
3.6431488e-05
4.606242e-05
5.9383931e-05
7.7680941e-05
0.00010331096
0.00014097085
0.0002011409
0.00031158544
0.00056893985
0.0014499695
2.3656617e-05
2.5544552e-05
2.9753268e-05
3.6446858e-05
4.6079261e-05
5.9401522e-05
7.7698211e-05
0.00010332677
0.00014098426
0.00020115148
0.00031159378
0.00056894913
0.0014500019
2.3667838e-05
2.555645e-05
2.9766445e-05
3.646151e-05
4.6095115e-05
5.9417863e-05
7.7714052e-05
0.00010334107
0.00014099622
0.00020116079
0.00031160117
0.00056895786
0.0014500334
2.3678797e-05
2.5568004e-05
2.9779113e-05
3.6475422e-05
4.6109972e-05
5.9432978e-05
7.772851e-05
0.00010335395
0.00014100681
0.00020116894
0.00031160769
0.0005689661
0.001450064
2.368946e-05
2.5579184e-05
2.9791244e-05
3.6488579e-05
4.6123838e-05
5.9446897e-05
7.7741634e-05
0.00010336545
0.00014101611
0.00020117598
0.0003116134
0.00056897386
0.0014500937
2.3699791e-05
2.5589958e-05
2.9802815e-05
3.6500973e-05
4.6136725e-05
5.9459651e-05
7.7753478e-05
0.00010337565
0.0001410242
0.00020118199
0.00031161836
0.00056898119
0.0014501225
2.3709763e-05
2.56003e-05
2.9813811e-05
3.6512602e-05
4.614865e-05
5.9471278e-05
7.7764096e-05
0.00010338462
0.00014103114
0.00020118704
0.00031162262
0.0005689881
0.0014501504
2.3719349e-05
2.561019e-05
2.9824219e-05
3.652347e-05
4.6159634e-05
5.9481816e-05
7.7773543e-05
0.00010339241
0.000141037
0.0002011912
0.00031162622
0.00056899459
0.0014501774
2.3728528e-05
2.5619611e-05
2.9834034e-05
3.6533583e-05
4.6169701e-05
5.9491307e-05
7.7781875e-05
0.00010339911
0.00014104186
0.00020119452
0.00031162919
0.00056900066
0.0014502035
2.3737284e-05
2.562855e-05
2.9843253e-05
3.6542954e-05
4.6178877e-05
5.9499793e-05
7.7789148e-05
0.00010340477
0.00014104578
0.00020119705
0.00031163157
0.00056900628
0.0014502286
2.3745604e-05
2.5637001e-05
2.9851876e-05
3.6551595e-05
4.6187193e-05
5.950732e-05
7.7795419e-05
0.00010340945
0.00014104882
0.00020119886
0.00031163338
0.00056901143
0.0014502528
2.375348e-05
2.5644957e-05
2.9859908e-05
3.6559524e-05
4.6194679e-05
5.9513931e-05
7.7800743e-05
0.00010341322
0.00014105104
0.00020119998
0.00031163465
0.0005690161
0.0014502758
2.3760905e-05
2.5652418e-05
2.9867357e-05
3.6566761e-05
4.6201369e-05
5.9519674e-05
7.7805178e-05
0.00010341613
0.0001410525
0.00020120047
0.00031163542
0.00056902027
0.0014502977
2.3767879e-05
2.5659387e-05
2.9874233e-05
3.6573328e-05
4.6207298e-05
5.9524597e-05
7.780878e-05
0.00010341826
0.00014105326
0.00020120039
0.0003116357
0.00056902393
0.0014503184
2.3774403e-05
2.5665868e-05
2.988055e-05
3.6579249e-05
4.6212504e-05
5.9528746e-05
7.7811605e-05
0.00010341966
0.00014105338
0.00020119977
0.00031163555
0.00056902709