/*--------------------------------*- C++ -*----------------------------------*\
| =========                 |                                                 |
| \\      /  F ield         | OpenFOAM: The Open Source CFD Toolbox           |
|  \\    /   O peration     | Version:  2506                                  |
|   \\  /    A nd           | Website:  www.openfoam.com                      |
|    \\/     M anipulation  |                                                 |
\*---------------------------------------------------------------------------*/
FoamFile
{
    version     2.0;
    format      ascii;
    arch        "LSB;label=32;scalar=64";
    class       volScalarField;
    location    "27000/water";
    object      k;
}
// * * * * * * * * * * * * * * * * * * * * * * * * * * * * * * * * * * * * * //

dimensions      [0 2 -2 0 0 0 0];

internalField   nonuniform List<scalar> 
2600
(
0.0001992401
0.00019923925
0.00019923929
0.00019923963
0.00019923982
0.00019923914
0.00019923438
0.00019921375
0.00019914651
0.00019904325
0.00019990841
0.00021454267
0.00040955349
0.00017237279
0.00017237614
0.00017237826
0.00017238051
0.0001723821
0.00017237949
0.00017235884
0.00017227555
0.000172027
0.00017162102
0.00017329371
0.00020304806
0.00052391648
0.00015132731
0.00015133049
0.00015133306
0.00015133552
0.00015133516
0.00015132207
0.00015126283
0.00015106462
0.00015055477
0.00014985944
0.0001528957
0.00019760629
0.00057958156
0.00013448336
0.00013448533
0.00013448764
0.00013448905
0.00013448325
0.00013445009
0.00013432997
0.00013398205
0.00013321503
0.00013247936
0.00013787909
0.00019702317
0.00059640815
0.00012075551
0.00012075697
0.00012075853
0.00012075718
0.00012074152
0.0001206782
0.00012048052
0.00011997843
0.0001190486
0.00011870929
0.00012776334
0.00020116854
0.00059206885
0.0001093899
0.00010939088
0.000109391
0.00010938492
0.00010935483
0.00010925313
0.00010897207
0.00010834649
0.00010742643
0.0001080609
0.00012226457
0.00021023394
0.00057809221
9.984982e-05
9.9850093e-05
9.9847944e-05
9.9835056e-05
9.9786463e-05
9.9641865e-05
9.9284958e-05
9.859999e-05
9.7925044e-05
0.00010022517
0.00012123091
0.00022425603
0.00056106272
9.1744874e-05
9.174416e-05
9.1738826e-05
9.1717148e-05
9.1647174e-05
9.1460104e-05
9.1049018e-05
9.0398665e-05
9.0258419e-05
9.5030413e-05
0.00012461431
0.00024286356
0.00054449405
8.4785472e-05
8.4783454e-05
8.4774018e-05
8.4741918e-05
8.4649457e-05
8.4426122e-05
8.3996574e-05
8.3502376e-05
8.4241543e-05
9.2421343e-05
0.00013239492
0.00026511347
0.00053012765
7.8752977e-05
7.8749319e-05
7.8734951e-05
7.8691403e-05
7.8577619e-05
7.8330528e-05
7.7932172e-05
7.7743318e-05
7.9771153e-05
9.2438122e-05
0.00014444361
0.00028951151
0.0005186607
7.3479682e-05
7.3474066e-05
7.3454131e-05
7.3398964e-05
7.3267704e-05
7.3016085e-05
7.2712929e-05
7.3009357e-05
7.6815021e-05
9.5182833e-05
0.00016036324
0.00031428525
0.00051014247
6.8835097e-05
6.8827266e-05
6.8801436e-05
6.8735571e-05
6.8593744e-05
6.836405e-05
6.8235745e-05
6.9234209e-05
7.5403716e-05
0.00010076472
0.00017939076
0.00033780739
0.0005042266
6.4716374e-05
6.4706175e-05
6.4674551e-05
6.4600233e-05
6.4458202e-05
6.4284863e-05
6.4429045e-05
6.6391811e-05
7.5619872e-05
0.0001092241
0.00020043528
0.00035894529
0.00050037283
6.1041501e-05
6.1028932e-05
6.0992164e-05
6.091321e-05
6.0785257e-05
6.0711783e-05
6.1247563e-05
6.4493003e-05
7.7580807e-05
0.00012045028
0.00022225715
0.00037717552
0.0004980107
5.7744396e-05
5.7729653e-05
5.7689074e-05
5.7611142e-05
5.751606e-05
5.7596592e-05
5.8669223e-05
6.3582872e-05
8.1411587e-05
0.00013412437
0.00024370832
0.00039247762
0.00049664628
5.4771313e-05
5.4754847e-05
5.4712615e-05
5.4643526e-05
5.4605384e-05
5.4906753e-05
5.6693486e-05
6.3736861e-05
8.7208044e-05
0.00014971788
0.00026392364
0.00040513366
0.00049590625
5.2078186e-05
5.206076e-05
5.2020025e-05
5.1970154e-05
5.2019282e-05
5.2623661e-05
5.5340605e-05
6.5053658e-05
9.4994186e-05
0.00016655656
0.0002823955
0.00041554871
0.00049553614
4.9628636e-05
4.9611393e-05
4.9576492e-05
4.9559258e-05
4.9733503e-05
5.0741693e-05
5.4651195e-05
6.7643172e-05
0.00010468473
0.00018392817
0.00029893687
0.00042413794
0.00049537652
4.7392458e-05
4.7377004e-05
4.7353699e-05
4.7386176e-05
4.773248e-05
4.9267886e-05
5.4685329e-05
7.1608743e-05
0.00011606686
0.00020119288
0.00031358495
0.0004312733
0.0004953351
4.5344476e-05
4.5332971e-05
4.5328746e-05
4.5432431e-05
4.600877e-05
4.8222045e-05
5.5520139e-05
7.7024462e-05
0.0001288111
0.00021785898
0.00032650009
0.00043726613
0.00049536293
4.3463657e-05
4.3458933e-05
4.3483358e-05
4.3685127e-05
4.4562868e-05
4.7637066e-05
5.7244888e-05
8.3911106e-05
0.00014251076
0.00023360813
0.00033789056
0.00044236711
0.00049543702
4.1732429e-05
4.173814e-05
4.1803329e-05
4.2136614e-05
4.3403329e-05
4.7559127e-05
5.9952699e-05
9.2216774e-05
0.00015673762
0.00024827797
0.00034796834
0.00044677301
0.00049554866
4.0136167e-05
4.015697e-05
4.0278148e-05
4.0784372e-05
4.2547129e-05
4.8047288e-05
6.3728701e-05
0.00010180889
0.00017109624
0.00026182258
0.0003569282
0.00045063571
0.00049569617
3.8662802e-05
3.8704582e-05
3.8900797e-05
3.9631106e-05
4.2020194e-05
4.9171841e-05
6.863543e-05
0.00011248166
0.0001852623
0.00027427018
0.00036494028
0.00045407114
0.00049588069
3.7302531e-05
3.7372692e-05
3.7667676e-05
3.8685008e-05
4.1857944e-05
5.1010816e-05
7.4697746e-05
0.00012397797
0.00019899861
0.00028568912
0.00037214923
0.00045716736
0.00049610392
3.6047628e-05
3.6155447e-05
3.6578682e-05
3.7960181e-05
4.2105652e-05
5.3644137e-05
8.1890766e-05
0.00013601988
0.00021215193
0.00029616533
0.00037867608
0.00045999117
0.00049636709
3.4892327e-05
3.5049398e-05
3.5637397e-05
3.74772e-05
4.2818254e-05
5.7145344e-05
9.0134488e-05
0.00014833914
0.00022463802
0.00030578893
0.00038462123
0.0004625934
0.00049667064
3.383279e-05
3.4053568e-05
3.4851411e-05
3.7263736e-05
4.4059203e-05
6.1571461e-05
9.929738e-05
0.00016070076
0.00023642316
0.00031464713
0.00039006764
0.00046501299
0.00049701416
3.2867148e-05
3.316962e-05
3.4232754e-05
3.7355161e-05
4.5897909e-05
6.695245e-05
0.00010920861
0.00017291579
0.00024750737
0.00032282077
0.00039508379
0.00046727996
0.00049739654
3.1995627e-05
3.2402111e-05
3.3798454e-05
3.7794961e-05
4.8405426e-05
7.3282434e-05
0.00011967597
0.00018484396
0.00025791153
0.00033038288
0.00039972633
0.00046941773
0.00049781615
3.1220754e-05
3.1758868e-05
3.3571165e-05
3.8634688e-05
5.1648298e-05
8.0515032e-05
0.000130505
0.00019638896
0.00026766839
0.00033739835
0.00040404224
0.00047144508
0.00049827105
3.0547674e-05
3.1251458e-05
3.3579859e-05
3.9933127e-05
5.5680953e-05
8.8564409e-05
0.00014151526
0.0002074904
0.00027681664
0.00034392426
0.00040806987
0.00047336165
0.00049875826
2.9984563e-05
3.0895778e-05
3.3860461e-05
4.1754321e-05
6.053758e-05
9.7312146e-05
0.00015255088
0.00021811501
0.00028539698
0.00035000996
0.00041183982
0.00047517683
0.00049927447
2.9543172e-05
3.071274e-05
3.4456303e-05
4.4164148e-05
6.6225001e-05
0.00010661843
0.00016348529
0.00022824914
0.00029345001
0.00035569878
0.00041537497
0.00047690098
0.00049981638
2.9239498e-05
3.072904e-05
3.5418148e-05
4.7225362e-05
7.2718212e-05
0.00011633496
0.00017422101
0.00023789272
0.00030101458
0.00036102772
0.00041869399
0.00047854312
0.00050038114
2.9094595e-05
3.0977952e-05
3.6803501e-05
5.0991332e-05
7.9959879e-05
0.00012631696
0.00018468651
0.00024705469
0.00030812683
0.00036602758
0.00042181619
0.00048011509
0.00050096676
2.9135496e-05
3.1500047e-05
3.867486e-05
5.5499187e-05
8.7864162e-05
0.00013643209
0.00019483195
0.00025575014
0.00031482083
0.00037072328
0.00042475508
0.00048162854
0.000501572
2.9396232e-05
3.234367e-05
4.1096632e-05
6.0763504e-05
9.6324071e-05
0.00014656574
0.00020462431
0.0002639967
0.00032112526
0.00037513787
0.00042753007
0.00048308916
0.00050219529
2.9918842e-05
3.356491e-05
4.4130587e-05
6.6771886e-05
0.00010522079
0.00015662302
0.00021404417
0.00027181505
0.00032706606
0.00037928747
0.00043015897
0.00048450265
0.00050283511
3.0754244e-05
3.5226728e-05
4.7830037e-05
7.3483558e-05
0.00011443288
0.00016652783
0.00022308101
0.00027922363
0.00033266467
0.00038319522
0.0004326545
0.00048587308
0.00050348988
3.1962699e-05
3.7396847e-05
5.2233356e-05
8.0831464e-05
0.00012384409
0.00017622137
0.00023173238
0.0002862417
0.00033793723
0.00038688253
0.00043502774
0.00048720352
0.00050415803
3.3613512e-05
4.01441e-05
5.7357861e-05
8.8727407e-05
0.00013334838
0.00018565852
0.00023999856
0.00029288458
0.000342906
0.0003903665
0.00043728792
0.00048849634
0.00050483797
3.5783419e-05
4.3533089e-05
6.3195329e-05
9.7069251e-05
0.00014285308
0.00019480685
0.0002478847
0.00029916232
0.00034759331
0.00039366188
0.0004394427
0.00048975326
0.00050552812
3.8553087e-05
4.7617456e-05
6.9710143e-05
0.00010574829
0.00015227868
0.0002036408
0.00025539331
0.00030509329
0.0003520176
0.00039678119
0.00044149843
0.00049097545
0.00050622692
4.2001181e-05
5.2432592e-05
7.6840751e-05
0.00011465644
0.00016156004
0.00021214496
0.00026252195
0.00031069684
0.00035619501
0.00039973505
0.00044346031
0.00049216368
0.00050693283
4.6195953e-05
5.7988999e-05
8.450385e-05
0.00012369063
0.0001706418
0.00022029903
0.00026928196
0.0003159893
0.00036013926
0.00040253239
0.00044533253
0.00049331827
0.00050764433
5.1185057e-05
6.426775e-05
9.2600671e-05
0.00013275652
0.00017947941
0.0002280859
0.00027568472
0.00032098504
0.00036386203
0.00040518057
0.00044711837
0.00049443922
0.00050835989
5.6985402e-05
7.121933e-05
0.0001010246
0.00014177167
0.0001880221
0.00023550305
0.00028174032
0.00032569631
0.00036737304
0.00040768556
0.00044882026
0.00049552615
0.000509078
6.3575521e-05
7.8766119e-05
0.0001096681
0.00015065104
0.00019623702
0.00024254865
0.00028745747
0.00033013331
0.00037068023
0.00041005205
0.00045043987
0.00049657836
0.00050979712
7.0893526e-05
8.6809062e-05
0.00011841802
0.00015932165
0.00020409991
0.0002492214
0.00029284336
0.00033430427
0.00037378984
0.00041228348
0.00045197812
0.00049759483
0.00051051571
7.8838302e-05
9.5225409e-05
0.0001271655
0.00016772591
0.00021159053
0.00025552
0.00029790358
0.00033821555
0.00037670648
0.00041438213
0.00045343518
0.00049857418
0.00051123213
8.7271782e-05
0.00010388141
0.00013581419
0.00017581508
0.00021869193
0.00026144298
0.00030264214
0.00034187167
0.00037943324
0.00041634919
0.00045481054
0.00049951469
0.00051194472
9.6036221e-05
0.00011264292
0.00014427887
0.00018354852
0.00022539
0.00026698863
0.0003070616
0.00034527556
0.00038197181
0.00041818478
0.00045610303
0.00050041431
0.00051265169
0.00010496813
0.00012138221
0.0001524859
0.00019089302
0.00023167335
0.00027215517
0.00031116333
0.00034842866
0.00038432261
0.00041988808
0.00045731083
0.00050127064
0.00051335112
0.00011391062
0.00012998325
0.00016037327
0.00019782237
0.00023753335
0.00027694109
0.00031494782
0.00035133129
0.00038648498
0.00042145744
0.00045843154
0.00050208095
0.000514041
0.0001227225
0.0001383452
0.00016789036
0.00020431696
0.00024296425
0.00028134553
0.00031841516
0.00035398297
0.00038845747
0.00042289052
0.00045946232
0.00050284227
0.00051471912
0.0001312839
0.0001463843
0.00017499756
0.00021036347
0.00024796342
0.00028536877
0.00032156552
0.0003563828
0.00039023809
0.00042418456
0.00046039998
0.00050355141
0.00051538316
0.00013949844
0.00015403431
0.00018166561
0.00021595444
0.00025253143
0.00028901263
0.00032439961
0.00035852996
0.00039182473
0.00042533657
0.00046124118
0.00050420509
0.00051603067
0.00014729306
0.00016124585
0.00018787485
0.00022108784
0.00025667213
0.00029228087
0.00032691921
0.00036042416
0.00039321548
0.0004263437
0.00046198264
0.0005048001
0.0005166591
0.00015461612
0.000167985
0.0001936143
0.00022576659
0.00026039251
0.00029517938
0.00032912753
0.00036206601
0.00039440908
0.00042720348
0.00046262138
0.0005053334
0.00051726585
0.00016143467
0.00017423145
0.00019888062
0.00022999797
0.00026370259
0.00029771634
0.0003310295
0.00036345745
0.00039540521
0.00042791421
0.00046315498
0.00050580232
0.00051784835
0.0001677314
0.00017997641
0.00020367703
0.00023379303
0.00026661509
0.00029990218
0.00033263198
0.00036460198
0.00039620482
0.00042847515
0.00046358174
0.00050620471
0.00051840409
0.00017350163
0.00018522055
0.00020801226
0.00023716599
0.00026914508
0.00030174947
0.00033394378
0.00036550485
0.0003968104
0.00042888685
0.00046390098
0.00050653909
0.00051893073
0.00017875057
0.00018997213
0.00021189948
0.00024013363
0.00027130961
0.00030327269
0.00033497566
0.00036617317
0.00039722604
0.00042915123
0.00046411314
0.00050680479
0.00051942616
0.00018349092
0.00019424522
0.00021535538
0.00024271477
0.00027312731
0.00030448798
0.00033574015
0.00036661583
0.00039745756
0.00042927174
0.00046421987
0.00050700198
0.00051988855
0.00018774092
0.00019805824
0.00021839931
0.0002449297
0.00027461798
0.00030541284
0.00033625137
0.00036684343
0.00039751245
0.00042925333
0.00046422411
0.00050713178
0.00052031644
0.00019152268
0.00020143273
0.00022105252
0.00024679975
0.00027580225
0.00030606579
0.00033652476
0.00036686808
0.00039739976
0.00042910243
0.00046413002
0.00050719617
0.00052070874
0.00019486089
0.00020439233
0.00022333751
0.00024834691
0.00027670123
0.00030646604
0.0003365768
0.0003667032
0.00039712992
0.0004288268
0.00046394293
0.00050719803
0.00052106479
0.00019778179
0.00020696193
0.00022527756
0.00024959341
0.00027733623
0.00030663326
0.00033642472
0.0003663632
0.00039671454
0.00042843536
0.0004636692
0.00050714098
0.00052138436
0.00020031243
0.00020916704
0.00022689623
0.00025056152
0.00027772848
0.00030658723
0.00033608623
0.00036586329
0.00039616615
0.00042793799
0.00046331602
0.00050702931
0.00052166763
0.00020248
0.00021103332
0.00022821701
0.00025127324
0.00027789894
0.00030634765
0.00033557923
0.00036521912
0.00039549793
0.00042734529
0.00046289127
0.00050686781
0.00052191516
0.00020431145
0.00021258615
0.00022926309
0.00025175012
0.00027786811
0.00030593389
0.00033492155
0.00036444656
0.00039472347
0.00042666834
0.00046240328
0.00050666169
0.00052212789
0.00020583309
0.00021385034
0.00023005712
0.00025201312
0.00027765588
0.00030536487
0.0003341308
0.00036356146
0.0003938565
0.00042591846
0.00046186066
0.00050641636
0.00052230706
0.00020707043
0.00021484997
0.00023062102
0.00025208249
0.00027728141
0.00030465885
0.00033322409
0.00036257939
0.00039291068
0.00042510701
0.00046127207
0.00050613733
0.0005224542
0.00020804798
0.00021560818
0.00023097588
0.00025197762
0.00027676305
0.00030383334
0.00033221795
0.00036151553
0.00039189937
0.00042424515
0.00046064608
0.00050583012
0.00052257103
0.00020878912
0.00021614709
0.00023114188
0.00025171704
0.00027611824
0.00030290504
0.00033112817
0.00036038441
0.00039083547
0.00042334372
0.00045999101
0.00050550007
0.00052265945
0.00020931605
0.00021648776
0.00023113821
0.00025131834
0.00027536353
0.00030188971
0.00032996971
0.00035919988
0.00038973128
0.00042241304
0.00045931481
0.00050515233
0.0005227215
0.00020964979
0.00021665008
0.00023098304
0.00025079813
0.00027451445
0.00030080215
0.00032875661
0.00035797495
0.0003885984
0.00042146284
0.00045862492
0.00050479172
0.00052275924
0.00020981009
0.00021665282
0.00023069349
0.00025017204
0.00027358559
0.00029965622
0.00032750197
0.00035672174
0.00038744759
0.00042050216
0.00045792826
0.00050442272
0.00052277483
0.00020981551
0.00021651359
0.00023028565
0.00024945469
0.00027259053
0.00029846474
0.00032621792
0.00035545145
0.00038628879
0.00041953927
0.00045723113
0.00050404944
0.00052277036
0.00020968339
0.00021624889
0.00022977457
0.00024865975
0.00027154188
0.00029723956
0.00032491558
0.00035417431
0.00038513103
0.00041858168
0.00045653919
0.00050367555
0.00052274793
0.0002094299
0.00021587408
0.00022917426
0.00024779988
0.00027045127
0.00029599153
0.00032360509
0.00035289958
0.00038398244
0.00041763607
0.00045585747
0.00050330431
0.00052270956
0.00020907007
0.00021540345
0.00022849774
0.00024688683
0.0002693294
0.00029473056
0.00032229561
0.0003516356
0.00038285026
0.00041670834
0.00045519034
0.00050293858
0.0005226572
0.00020861784
0.00021485025
0.00022775708
0.00024593141
0.00026818605
0.00029346561
0.00032099537
0.00035038972
0.00038174082
0.0004158036
0.00045454154
0.0005025808
0.00052259271
0.00020808609
0.00021422673
0.00022696339
0.00024494352
0.00026703012
0.00029220476
0.00031971169
0.00034916845
0.00038065963
0.00041492619
0.00045391424
0.000502233
0.00052251782
0.00020748669
0.00021354416
0.00022612689
0.00024393226
0.00026586966
0.00029095522
0.000318451
0.00034797742
0.00037961138
0.00041407975
0.00045331088
0.00050189541
0.00052243412
0.00020683057
0.00021281291
0.00022525694
0.00024290586
0.00026471193
0.00028972338
0.00031721893
0.00034682141
0.00037859995
0.00041326717
0.00045273321
0.00050156778
0.00052234292
0.00020612774
0.00021204246
0.00022436209
0.00024187181
0.00026356341
0.00028851488
0.00031602032
0.0003457045
0.00037762858
0.00041249069
0.0004521816
0.00050125097
0.00052224543
0.00020538735
0.0002112415
0.00022345011
0.00024083684
0.00026242987
0.00028733462
0.00031485928
0.00034462999
0.00037669971
0.00041175179
0.00045165672
0.00050094651
0.00052214286
0.00020461776
0.0002104179
0.00022252802
0.00023980701
0.0002613164
0.00028618683
0.00031373927
0.00034360062
0.00037581526
0.00041105093
0.00045115877
0.00050065632
0.00052203649
0.00020382654
0.0002095788
0.00022160218
0.00023878768
0.00026022744
0.00028507512
0.00031266312
0.00034261838
0.0003749762
0.00041038836
0.00045068899
0.00050038144
0.00052192752
0.00020302056
0.00020873068
0.00022067827
0.00023778365
0.00025916686
0.00028400249
0.00031163302
0.00034168468
0.000374183
0.00040976434
0.00045024823
0.00050012257
0.00052181699
0.00020220602
0.00020787933
0.00021976137
0.0002367991
0.00025813795
0.00028297141
0.00031065068
0.00034080027
0.00037343539
0.00040917954
0.00044983686
0.00049988013
0.00052170586
0.00020138846
0.00020702996
0.00021885599
0.00023583769
0.00025714352
0.00028198384
0.00030971712
0.00033996508
0.00037273371
0.0004086341
0.00044945492
0.00049965427
0.00052159497
0.00020057289
0.0002061872
0.00021796611
0.00023490258
0.00025618584
0.00028104119
0.00030883278
0.00033917908
0.00037207803
0.00040812781
0.00044910212
0.00049944491
0.00052148503
0.00019976373
0.00020535516
0.0002170952
0.00023399647
0.00025526678
0.00028014437
0.00030799751
0.00033844234
0.00037146806
0.00040766018
0.00044877796
0.00049925183
0.00052137669
0.00019896492
0.00020453747
0.0002162463
0.00023312163
0.00025438769
0.00027929349
0.0003072115
0.00033775462
0.0003709032
0.00040723044
0.00044848174
0.00049907468
0.00052127048
0.00019817992
0.00020373732
0.00021542205
0.00023227983
0.00025354919
0.00027848898
0.00030647463
0.00033711533
0.0003703826
0.00040683763
0.00044821263
0.000498913
0.00052116687
0.00019741181
0.00020295747
0.00021462449
0.00023147226
0.00025275201
0.00027773094
0.0003057865
0.00033652368
0.00036990519
0.00040648063
0.00044796966
0.00049876628
0.00052106627
0.00019666312
0.00020220014
0.00021385529
0.0002307
0.0002519966
0.00027701925
0.00030514645
0.00033597863
0.00036946972
0.00040615816
0.0004477518
0.00049863395
0.00052096899
0.00019593599
0.00020146721
0.00021311586
0.00022996387
0.00025128317
0.00027635353
0.00030455363
0.00033547896
0.00036907479
0.00040586887
0.00044755793
0.00049851538
0.00052087531
0.00019523223
0.00020076025
0.00021240732
0.00022926445
0.00025061169
0.00027573319
0.00030400697
0.00033502329
0.00036871887
0.00040561129
0.00044738687
0.00049840992
0.00052078545
0.00019455337
0.00020008057
0.00021173056
0.00022860207
0.00024998191
0.00027515742
0.00030350524
0.00033461008
0.00036840033
0.00040538389
0.00044723742
0.0004983169
0.00052069957
0.00019390065
0.0001994292
0.0002110862
0.00022797683
0.00024939337
0.00027462527
0.00030304706
0.00033423771
0.00036811746
0.00040518507
0.00044710832
0.00049823561
0.00052061779
0.00019327508
0.00019880695
0.00021047465
0.00022738864
0.00024884545
0.00027413561
0.00030263091
0.00033390442
0.00036786846
0.00040501322
0.00044699831
0.00049816533
0.00052054018
0.00019267741
0.0001982144
0.00020989612
0.00022683722
0.00024833735
0.00027368717
0.00030225518
0.00033360839
0.00036765152
0.00040486669
0.00044690612
0.00049810533
0.00052046677
0.00019210821
0.00019765191
0.00020935062
0.00022632211
0.00024786813
0.00027327858
0.00030191817
0.00033334777
0.00036746477
0.00040474384
0.0004468305
0.00049805492
0.00052039757
0.00019156783
0.00019711968
0.00020883799
0.00022584273
0.00024743674
0.00027290838
0.00030161811
0.00033312066
0.00036730638
0.00040464306
0.00044677023
0.00049801339
0.00052033256
0.00019105646
0.00019661773
0.00020835793
0.00022539835
0.00024704202
0.00027257503
0.00030135321
0.00033292515
0.00036717451
0.00040456277
0.00044672414
0.0004979801
0.00052027169
0.00019057414
0.00019614593
0.00020791001
0.00022498814
0.00024668273
0.00027227694
0.00030112166
0.00033275936
0.00036706739
0.00040450145
0.0004466911
0.00049795442
0.00052021492
0.00019012075
0.00019570402
0.00020749368
0.00022461118
0.00024635758
0.0002720125
0.00030092163
0.00033262142
0.00036698325
0.00040445761
0.00044667004
0.00049793577
0.00052016219
0.00018969605
0.00019529162
0.00020710827
0.00022426646
0.00024606519
0.00027178005
0.00030075132
0.0003325095
0.00036692041
0.00040442986
0.00044665995
0.0004979236
0.00052011341
0.00018929969
0.00019490825
0.00020675303
0.00022395291
0.00024580417
0.00027157794
0.00030060891
0.0003324218
0.00036687722
0.00040441681
0.00044665983
0.00049791737
0.0005200685
0.00018893119
0.0001945533
0.00020642713
0.00022366938
0.00024557308
0.0002714045
0.00030049261
0.00033235655
0.00036685207
0.00040441717
0.00044666875
0.00049791656
0.00052002735
0.00018859
0.0001942261
0.00020612965
0.00022341468
0.00024537045
0.00027125804
0.00030040066
0.00033231201
0.00036684341
0.00040442966
0.00044668581
0.00049792066
0.00051998984
0.00018827545
0.00019392587
0.00020585962
0.00022318755
0.00024519477
0.00027113688
0.00030033129
0.00033228649
0.00036684971
0.00040445303
0.0004467101
0.00049792917
0.00051995583
0.00018798681
0.00019365177
0.00020561598
0.00022298672
0.00024504453
0.00027103935
0.00030028278
0.00033227834
0.00036686951
0.0004044861
0.00044674078
0.00049794159
0.00051992518
0.00018772325
0.0001934029
0.00020539764
0.00022281085
0.00024491821
0.00027096379
0.00030025344
0.00033228593
0.00036690138
0.00040452772
0.00044677703
0.00049795745
0.00051989773
0.00018748389
0.00019317827
0.00020520345
0.00022265861
0.00024481427
0.00027090854
0.00030024161
0.00033230771
0.00036694397
0.00040457681
0.00044681808
0.0004979763
0.00051987332
0.00018726782
0.00019297688
0.00020503226
0.00022252864
0.00024473121
0.00027087201
0.00030024568
0.00033234218
0.00036699598
0.00040463233
0.00044686318
0.0004979977
0.00051985177
0.00018707405
0.00019279768
0.00020488286
0.0002224196
0.00024466753
0.00027085264
0.00030026412
0.00033238793
0.00036705619
0.00040469332
0.00044691167
0.00049802129
0.00051983294
0.00018690159
0.0001926396
0.00020475408
0.00022233014
0.00024462178
0.00027084892
0.00030029546
0.00033244361
0.00036712345
0.0004047589
0.00044696293
0.00049804669
0.00051981665
0.00018674943
0.00019250159
0.00020464471
0.00022225895
0.00024459255
0.00027085941
0.00030033831
0.00033250797
0.00036719672
0.00040482826
0.00044701643
0.00049807361
0.00051980277
0.00018661655
0.00019238254
0.00020455359
0.00022220474
0.00024457848
0.00027088273
0.00030039135
0.00033257983
0.00036727503
0.00040490066
0.00044707165
0.00049810178
0.00051979116
0.00018650193
0.00019228141
0.00020447955
0.00022216627
0.00024457826
0.00027091758
0.00030045336
0.00033265811
0.00036735749
0.00040497545
0.00044712818
0.00049813095
0.00051978167
0.00018640454
0.00019219712
0.00020442146
0.00022214232
0.00024459063
0.00027096272
0.00030052318
0.0003327418
0.00036744328
0.00040505202
0.00044718562
0.00049816092
0.00051977419
0.00018632339
0.00019212863
0.00020437821
0.00022213172
0.00024461439
0.00027101697
0.00030059973
0.00033282997
0.00036753166
0.00040512983
0.0004472436
0.00049819149
0.00051976858
0.00018625745
0.00019207489
0.00020434869
0.00022213333
0.0002446484
0.00027107922
0.00030068198
0.00033292175
0.00036762193
0.00040520837
0.0004473018
0.00049822247
0.00051976472
0.00018620573
0.00019203488
0.00020433185
0.00022214604
0.00024469152
0.0002711484
0.00030076898
0.0003330163
0.00036771343
0.00040528715
0.00044735989
0.00049825366
0.00051976248
0.00018616723
0.00019200758
0.00020432662
0.00022216877
0.0002447427
0.00027122349
0.0003008598
0.00033311285
0.00036780554
0.00040536571
0.00044741757
0.00049828487
0.00051976172
0.00018614096
0.00019199198
0.00020433197
0.00022220046
0.0002448009
0.00027130351
0.00030095356
0.00033321065
0.00036789768
0.00040544362
0.00044747451
0.00049831589
0.0005197623
0.00018612593
0.00019198709
0.00020434689
0.00022224011
0.00024486513
0.00027138754
0.00030104944
0.000333309
0.00036798927
0.00040552045
0.00044753042
0.00049834652
0.00051976407
0.00018612119
0.00019199194
0.0002043704
0.00022228673
0.00024493443
0.0002714747
0.00030114666
0.00033340726
0.00036807981
0.00040559581
0.00044758503
0.00049837658
0.00051976688
0.00018612579
0.00019200557
0.00020440154
0.00022233939
0.00024500791
0.00027156414
0.00030124449
0.00033350482
0.00036816883
0.00040566937
0.00044763808
0.00049840589
0.00051977061
0.00018613882
0.00019202708
0.0002044394
0.00022239718
0.00024508472
0.00027165513
0.00030134227
0.00033360115
0.00036825591
0.00040574082
0.0004476894
0.00049843433
0.00051977512
0.00018615941
0.00019205559
0.00020448313
0.00022245929
0.0002451641
0.00027174697
0.00030143944
0.00033369579
0.00036834072
0.00040580994
0.00044773882
0.0004984618
0.00051978032
0.00018618675
0.0001920903
0.00020453193
0.00022252496
0.00024524534
0.00027183904
0.00030153549
0.00033378835
0.00036842299
0.00040587655
0.00044778626
0.00049848827
0.00051978612
0.00018622005
0.00019213043
0.00020458505
0.00022259348
0.00024532783
0.00027193082
0.00030162999
0.00033387853
0.00036850251
0.00040594056
0.00044783168
0.00049851364
0.00051979243
0.00018625861
0.00019217528
0.00020464182
0.00022266423
0.000245411
0.00027202185
0.00030172259
0.00033396608
0.00036857916
0.0004060019
0.00044787506
0.00049853778
0.00051979919
0.00018630174
0.00019222419
0.00020470161
0.00022273664
0.00024549435
0.00027211172
0.000301813
0.00033405082
0.00036865283
0.00040606053
0.00044791632
0.00049856068
0.00051980633
0.00018634882
0.00019227655
0.00020476383
0.00022281017
0.00024557745
0.00027220008
0.00030190096
0.00033413258
0.00036872344
0.00040611643
0.00044795544
0.00049858239
0.00051981378
0.00018639925
0.00019233176
0.00020482795
0.00022288435
0.00024565988
0.00027228662
0.00030198624
0.00033421123
0.00036879091
0.00040616951
0.00044799236
0.000498603
0.00051982149
0.00018645247
0.0001923893
0.00020489346
0.00022295872
0.00024574126
0.00027237103
0.00030206864
0.00033428663
0.00036885516
0.00040621971
0.00044802712
0.00049862255
0.00051982941
0.00018650793
0.00019244861
0.00020495986
0.00022303285
0.00024582124
0.00027245304
0.00030214797
0.00033435865
0.00036891608
0.00040626694
0.00044805974
0.00049864103
0.00051983747
0.00018656509
0.00019250922
0.00020502669
0.00022310633
0.00024589948
0.0002725324
0.00030222402
0.00033442714
0.00036897354
0.00040631121
0.00044809023
0.00049865844
0.0005198456
0.00018662348
0.00019257062
0.00020509352
0.00022317879
0.00024597567
0.00027260885
0.00030229663
0.00033449197
0.00036902746
0.00040635251
0.00044811858
0.00049867474
0.00051985373
0.0001866826
0.00019263237
0.00020515992
0.00022324987
0.00024604952
0.0002726822
0.00030236564
0.000334553
0.00036907784
0.00040639084
0.0004481448
0.00049868991
0.0005198618
0.00018674201
0.00019269405
0.00020522553
0.00022331925
0.00024612079
0.00027275225
0.00030243088
0.00033461017
0.00036912467
0.00040642622
0.00044816889
0.00049870394
0.00051986975
0.00018680133
0.00019275528
0.00020529
0.00022338666
0.00024618926
0.00027281883
0.00030249226
0.0003346635
0.00036916798
0.0004064587
0.00044819088
0.00049871682
0.00051987753
0.00018686019
0.00019281572
0.00020535305
0.00022345186
0.00024625476
0.00027288184
0.00030254979
0.00033471302
0.00036920784
0.00040648834
0.00044821084
0.00049872858
0.00051988511
0.00018691829
0.00019287509
0.00020541444
0.00022351467
0.00024631716
0.00027294122
0.00030260347
0.00033475879
0.00036924434
0.00040651524
0.00044822886
0.00049873927
0.00051989246
0.00018697537
0.00019293316
0.00020547396
0.00022357493
0.00024637637
0.000272997
0.00030265339
0.00033480092
0.00036927761
0.00040653955
0.00044824503
0.00049874896
0.00051989957
0.00018703122
0.00019298972
0.00020553145
0.00022363255
0.00024643239
0.0002730492
0.00030269963
0.00033483956
0.00036930782
0.00040656141
0.0004482595
0.00049875772
0.00051990645
0.00018708565
0.0001930446
0.0002055868
0.00022368746
0.00024648522
0.00027309791
0.00030274232
0.00033487486
0.00036933513
0.00040658097
0.00044827239
0.00049876564
0.0005199131
0.00018713851
0.00019309769
0.00020563992
0.00022373965
0.00024653489
0.00027314323
0.0003027816
0.00033490698
0.0003693597
0.00040659841
0.00044828382
0.00049877278
0.00051991952
0.00018718967
0.00019314886
0.00020569074
0.00022378911
0.00024658147
0.00027318525
0.00030281762
0.0003349361
0.00036938172
0.00040661386
0.00044829391
0.00049877923
0.00051992572
0.00018723902
0.00019319805
0.00020573922
0.00022383583
0.000246625
0.00027322407
0.00030285051
0.00033496236
0.00036940133
0.00040662747
0.00044830277
0.00049878502
0.00051993168
0.00018728647
0.00019324516
0.00020578531
0.00022387984
0.00024666554
0.00027325981
0.0003028804
0.00033498591
0.00036941866
0.00040663934
0.00044831046
0.00049879021
0.00051993742
0.00018733192
0.00019329012
0.00020582899
0.00022392112
0.00024670316
0.00027329255
0.00030290741
0.00033500687
0.00036943384
0.00040664958
0.00044831706
0.0004987948
0.0005199429
0.00018737529
0.00019333287
0.00020587021
0.0002239597
0.00024673788
0.00027332237
0.00030293165
0.00033502535
0.00036944697
0.00040665825
0.00044832259
0.00049879881
0.00051994812
0.00018741649
0.00019337333
0.00020590895
0.00022399558
0.00024676977
0.00027334934
0.00030295319
0.00033504145
0.00036945811
0.00040666541
0.0004483271
0.00049880222
0.00051995306
0.00018745546