/*--------------------------------*- C++ -*----------------------------------*\
| =========                 |                                                 |
| \\      /  F ield         | OpenFOAM: The Open Source CFD Toolbox           |
|  \\    /   O peration     | Version:  2506                                  |
|   \\  /    A nd           | Website:  www.openfoam.com                      |
|    \\/     M anipulation  |                                                 |
\*---------------------------------------------------------------------------*/
FoamFile
{
    version     2.0;
    format      ascii;
    arch        "LSB;label=32;scalar=64";
    class       volScalarField;
    location    "27000/water";
    object      nut;
}
// * * * * * * * * * * * * * * * * * * * * * * * * * * * * * * * * * * * * * //

dimensions      [0 2 -1 0 0 0 0];

internalField   nonuniform List<scalar> 
2600
(
4.0562043e-05
4.0561942e-05
4.0561944e-05
4.0561981e-05
4.0561942e-05
4.0561434e-05
4.0558261e-05
4.0540002e-05
4.0435343e-05
3.98338e-05
3.6541397e-05
2.4161555e-05
1.4889524e-05
3.944741e-05
3.9447468e-05
3.944759e-05
3.9447676e-05
3.9447275e-05
3.9444342e-05
3.9428907e-05
3.9352895e-05
3.8988431e-05
3.7314814e-05
3.0763187e-05
1.7536144e-05
1.684056e-05
3.852265e-05
3.852264e-05
3.8522725e-05
3.8522528e-05
3.8520597e-05
3.8510798e-05
3.8466747e-05
3.8277827e-05
3.7500368e-05
3.454641e-05
2.5814945e-05
1.4669956e-05
1.7712619e-05
3.7742032e-05
3.774193e-05
3.7741811e-05
3.7740766e-05
3.7735283e-05
3.7711707e-05
3.7617453e-05
3.7258039e-05
3.5961308e-05
3.177518e-05
2.2061889e-05
1.3531464e-05
1.7967898e-05
3.7073562e-05
3.7073366e-05
3.7072781e-05
3.7069955e-05
3.7057916e-05
3.7011651e-05
3.6843992e-05
3.6266509e-05
3.4405655e-05
2.9188861e-05
1.9425178e-05
1.3345943e-05
1.7902414e-05
3.6493786e-05
3.6493393e-05
3.6491924e-05
3.648598e-05
3.646354e-05
3.6384687e-05
3.612226e-05
3.5294625e-05
3.2873382e-05
2.6881541e-05
1.771645e-05
1.3793839e-05
1.7689846e-05
3.5985207e-05
3.5984445e-05
3.5981496e-05
3.5970726e-05
3.5933497e-05
3.5812307e-05
3.5437992e-05
3.4343601e-05
3.1395257e-05
2.4892541e-05
1.6781972e-05
1.4727875e-05
1.7427344e-05
3.5534568e-05
3.55332e-05
3.5528007e-05
3.5510417e-05
3.5453869e-05
3.5281761e-05
3.478374e-05
3.3418009e-05
2.9989903e-05
2.3242727e-05
1.6521213e-05
1.605365e-05
1.7168093e-05
3.5131649e-05
3.5129373e-05
3.5121029e-05
3.5094485e-05
3.5014364e-05
3.4784646e-05
3.4156253e-05
3.2521766e-05
2.8667649e-05
2.1957692e-05
1.6869959e-05
1.7676047e-05
1.694009e-05
3.4768438e-05
3.47649e-05
3.4752406e-05
3.4714802e-05
3.4607522e-05
3.4315777e-05
3.3554458e-05
3.16563e-05
2.7438403e-05
2.1076946e-05
1.7774701e-05
1.9481897e-05
1.6755877e-05
3.4438571e-05
3.443338e-05
3.4415717e-05
3.4365168e-05
3.4228127e-05
3.3872266e-05
3.2977968e-05
3.0820513e-05
2.6321667e-05
2.064959e-05
1.9168673e-05
2.1348725e-05
1.6617712e-05
3.4136931e-05
3.4129689e-05
3.4105903e-05
3.4040932e-05
3.3872746e-05
3.3452766e-05
3.2426062e-05
3.0012536e-05
2.5355877e-05
2.0719809e-05
2.0958175e-05
2.3166793e-05
1.6521078e-05
3.3859367e-05
3.3849701e-05
3.3819003e-05
3.3738723e-05
3.3539365e-05
3.3056856e-05
3.1897087e-05
2.923354e-05
2.4602257e-05
2.1309035e-05
2.3024752e-05
2.4858007e-05
1.6457822e-05
3.3602495e-05
3.3590098e-05
3.355197e-05
3.3456247e-05
3.3227088e-05
3.2684517e-05
3.1388405e-05
2.8493549e-05
2.4138757e-05
2.2402735e-05
2.5241354e-05
2.6381455e-05
1.6418929e-05
3.3363555e-05
3.334823e-05
3.3302533e-05
3.3192135e-05
3.2935885e-05
3.2335692e-05
3.0897111e-05
2.781812e-05
2.4044358e-05
2.3946906e-05
2.7493335e-05
2.7726694e-05
1.6396422e-05
3.3140311e-05
3.3122024e-05
3.3069114e-05
3.2945826e-05
3.2666358e-05
3.2009929e-05
3.0421904e-05
2.725306e-05
2.4379894e-05
2.5855075e-05
2.9693858e-05
2.8902281e-05
1.6384202e-05
3.2930983e-05
3.2909915e-05
3.2850758e-05
3.2717477e-05
3.2419519e-05
3.1706209e-05
2.9966345e-05
2.6863467e-05
2.5173339e-05
2.8023003e-05
3.1788481e-05
2.9925862e-05
1.6378087e-05
3.27342e-05
3.2710811e-05
3.2647097e-05
3.2507877e-05
3.219656e-05
3.14231e-05
2.9543334e-05
2.6725089e-05
2.6414165e-05
3.0346001e-05
3.3750499e-05
3.0817911e-05
1.6375449e-05
3.254898e-05
3.2524066e-05
3.2458325e-05
3.2318372e-05
3.1998619e-05
3.1159479e-05
2.9179673e-05
2.6909997e-05
2.8056821e-05
3.2733298e-05
3.5572232e-05
3.159849e-05
1.6374764e-05
3.2374714e-05
3.234948e-05
3.2285189e-05
3.2150777e-05
3.1826588e-05
3.0916123e-05
2.8918576e-05
2.7471842e-05
3.0030666e-05
3.5115834e-05
3.7256818e-05
3.2285747e-05
1.6375224e-05
3.2211173e-05
3.2187303e-05
3.2128983e-05
3.2007273e-05
3.1681012e-05
3.0698309e-05
2.8817773e-05
2.8435851e-05
3.2252929e-05
3.7447133e-05
3.8812576e-05
3.2895331e-05
1.6376448e-05
3.2058522e-05
3.2038256e-05
3.199155e-05
3.1890271e-05
3.1562235e-05
3.051924e-05
2.8942305e-05
2.9795901e-05
3.464125e-05
3.9699498e-05
4.0249838e-05
3.3440303e-05
1.6378293e-05
3.1917349e-05
3.1903563e-05
3.1875268e-05
3.1802262e-05
3.147098e-05
3.0403414e-05
2.9353632e-05
3.1518042e-05
3.7123065e-05
4.1858566e-05
4.1579379e-05
3.3931332e-05
1.6380731e-05
3.1788707e-05
3.1784988e-05
3.1783034e-05
3.1745667e-05
3.1409596e-05
3.0388388e-05
3.009864e-05
3.3548311e-05
3.9640503e-05
4.3918427e-05
4.2811639e-05
3.4377031e-05
1.638378e-05
3.167417e-05
3.1684884e-05
3.1718215e-05
3.1722747e-05
3.1384107e-05
3.0523332e-05
3.1201974e-05
3.5822341e-05
4.2151078e-05
4.5878174e-05
4.3956334e-05
3.4784314e-05
1.6387467e-05
3.1575896e-05
3.1606239e-05
3.1684577e-05
3.1735682e-05
3.1406918e-05
3.086367e-05
3.2663377e-05
3.8274456e-05
4.4625623e-05
4.7739783e-05
4.5022273e-05
3.5158739e-05
1.6391813e-05
3.1496714e-05
3.155272e-05
3.1686171e-05
3.1786997e-05
3.1499545e-05
3.1462865e-05
3.4459809e-05
4.084458e-05
4.7045145e-05
4.9506882e-05
4.6017315e-05
3.5504794e-05
1.6396824e-05
3.1440215e-05
3.1528703e-05
3.1727217e-05
3.1880504e-05
3.1694228e-05
3.2363741e-05
3.655094e-05
4.3482183e-05
4.9397839e-05
5.1183995e-05
4.6948402e-05
3.5826124e-05
1.6402494e-05
3.141085e-05
3.1539289e-05
3.1812006e-05
3.2022925e-05
3.2033143e-05
3.3591891e-05
3.8886226e-05
4.6147425e-05
5.1676786e-05
5.2776062e-05
4.782164e-05
3.6125718e-05
1.6408802e-05
3.1414042e-05
3.1590274e-05
3.1944927e-05
3.2226118e-05
3.256456e-05
3.5152681e-05
4.1411884e-05
4.8810347e-05
5.3878383e-05
5.4288121e-05
4.8642393e-05
3.6406047e-05
1.6415722e-05
3.1456281e-05
3.1688095e-05
3.2130756e-05
3.250943e-05
3.3336477e-05
3.7032005e-05
4.4076503e-05
5.1449129e-05
5.6001294e-05
5.5725113e-05
4.9415387e-05
3.6669254e-05
1.642322e-05
3.1545208e-05
3.183974e-05
3.2375385e-05
3.290132e-05
3.4389408e-05
3.9199971e-05
4.683463e-05
5.4048185e-05
5.8045688e-05
5.7091636e-05
5.0144338e-05
3.6914943e-05
1.6431248e-05
3.1689662e-05
3.2052668e-05
3.2687144e-05
3.3439131e-05
3.5750334e-05
4.1616204e-05
4.9648329e-05
5.6596555e-05
6.001274e-05
5.8392009e-05
5.0832726e-05
3.7144922e-05
1.6439749e-05
3.1899684e-05
3.2334823e-05
3.3078702e-05
3.4166335e-05
3.7429296e-05
4.4235455e-05
5.2487188e-05
5.9086679e-05
6.1904241e-05
5.963009e-05
5.1482695e-05
3.7361243e-05
1.6448668e-05
3.2186465e-05
3.2694872e-05
3.3569194e-05
3.5127406e-05
3.9419059e-05
4.7012423e-05
5.5327445e-05
6.1513504e-05
6.372234e-05
6.0809392e-05
5.2096449e-05
3.7565313e-05
1.6457958e-05
3.2562282e-05
3.3142861e-05
3.4185829e-05
3.6361546e-05
4.1697453e-05
4.9905183e-05
5.8150803e-05
6.3873831e-05
6.5469388e-05
6.1933116e-05
5.2677398e-05
3.7758157e-05
1.6467586e-05
3.3040475e-05
3.3691441e-05
3.4963992e-05
3.7896943e-05
4.4231427e-05
5.2877044e-05
6.094328e-05
6.6165775e-05
6.7147564e-05
6.3002903e-05
5.3228278e-05
3.7940823e-05
1.6477531e-05
3.363564e-05
3.4357649e-05
3.5945066e-05
3.9746991e-05
4.6981719e-05
5.5897116e-05
6.3694246e-05
6.8388428e-05
6.8759333e-05
6.4022594e-05
5.3751052e-05
3.8114078e-05
1.6487766e-05
3.4364227e-05
3.5164904e-05
3.7171979e-05
4.1909156e-05
4.9907178e-05
5.8940024e-05
6.6395664e-05
7.0541366e-05
7.0305657e-05
6.4995388e-05
5.4247639e-05
3.8278684e-05
1.6498266e-05
3.5245726e-05
3.614442e-05
3.8683397e-05
4.4366367e-05
5.2968079e-05
6.1985171e-05
6.904145e-05
7.2624749e-05
7.1789409e-05
6.5923872e-05
5.4719659e-05
3.8435268e-05
1.6509004e-05
3.6304401e-05
3.7335025e-05
4.050808e-05
4.7090206e-05
5.6128212e-05
6.5015948e-05
7.1626957e-05
7.463817e-05
7.3213267e-05
6.6810359e-05
5.516863e-05
3.8584369e-05
1.6519954e-05
3.7571063e-05
3.8780613e-05
4.2660852e-05
5.0044958e-05
5.9355788e-05
6.8018906e-05
7.4148655e-05
7.6582494e-05
7.4579722e-05
6.7656903e-05
5.5595893e-05
3.872645e-05
1.653109e-05
3.9083878e-05
4.052524e-05
4.5140996e-05
5.3191597e-05
6.2623584e-05
7.0983115e-05
7.6603218e-05
7.8458843e-05
7.5890913e-05
6.8465408e-05
5.6002633e-05
3.8861905e-05
1.6542386e-05
4.0886937e-05
4.2606887e-05
4.793312e-05
5.6491007e-05
6.5908462e-05
7.389954e-05
7.8988655e-05
8.0268743e-05
7.7148741e-05
6.923757e-05
5.6389889e-05
3.8991066e-05
1.6553816e-05
4.3025808e-05
4.5051456e-05
5.1009907e-05
5.9906236e-05
6.9190884e-05
7.6760151e-05
8.1303273e-05
8.2013426e-05
7.8354969e-05
6.9974901e-05
5.6758562e-05
3.9114211e-05
1.6565353e-05
4.5540399e-05
4.7868499e-05
5.4335784e-05
6.3403539e-05
7.2453924e-05
7.9558424e-05
8.3546736e-05
8.3693983e-05
7.9511144e-05
7.0678716e-05
5.7109427e-05
3.9231567e-05
1.6576974e-05
4.8456769e-05
5.1049496e-05
5.7870659e-05
6.6952776e-05
7.5682799e-05
8.2288874e-05
8.5718434e-05
8.5311374e-05
8.0618602e-05
7.1350141e-05
5.7443134e-05
3.9343315e-05
1.6588653e-05
5.178018e-05
5.4568678e-05
6.1572972e-05
7.0526889e-05
7.8863957e-05
8.4947825e-05
8.7817772e-05
8.6866354e-05
8.1678454e-05
7.1990117e-05
5.7760217e-05
3.9449594e-05
1.6600366e-05
5.5491425e-05
5.8385683e-05
6.5401423e-05
7.4100941e-05
8.1987196e-05
8.753167e-05
8.9844048e-05
8.8359445e-05
8.2691575e-05
7.2599395e-05
5.8061097e-05
3.9550499e-05
1.6612087e-05
5.9547284e-05
6.2448954e-05
6.9315593e-05
7.7653797e-05
8.5043659e-05
9.003695e-05
9.1796381e-05
8.9790906e-05
8.3658589e-05
7.3178542e-05
5.8346084e-05
3.9646087e-05
1.662379e-05
6.3884526e-05
6.6699825e-05
7.3278223e-05
8.1167589e-05
8.8025188e-05
9.2460238e-05
9.3673663e-05
9.1160711e-05
8.4579868e-05
7.3727935e-05
5.861538e-05
3.9736371e-05
1.6635451e-05
6.8427386e-05
7.1077108e-05
7.7255202e-05
8.4626052e-05
9.0924154e-05
9.4798073e-05
9.5474529e-05
9.2468536e-05
8.5455526e-05
7.4247766e-05
5.8869077e-05
3.9821328e-05
1.664704e-05
7.3095575e-05
7.5520308e-05
8.1214733e-05
8.8014214e-05
9.3733348e-05
9.7046936e-05
9.7197367e-05
9.371377e-05
8.6285423e-05
7.4738044e-05
5.9107165e-05
3.9900895e-05
1.6658531e-05
7.7811309e-05
7.9972331e-05
8.512728e-05
9.1318201e-05
9.6445932e-05
9.9203274e-05
9.8840345e-05
9.489554e-05
8.7069188e-05
7.5198608e-05
5.9329534e-05
3.9974973e-05
1.6669891e-05
8.2504378e-05
8.4381481e-05
8.8965679e-05
9.4525149e-05
9.9055458e-05
0.00010126357
0.00010040148
9.6012758e-05
8.7806243e-05
7.5629142e-05
5.9535982e-05
4.0043428e-05
1.6681088e-05
8.711503e-05
8.8702757e-05
9.2705361e-05
9.7623221e-05
0.00010155593
0.00010322444
0.00010187874
9.706419e-05
8.8495855e-05
7.6029204e-05
5.9726235e-05
4.01061e-05
1.6692087e-05
9.1594967e-05
9.2898493e-05
9.6324634e-05
0.0001006017
0.00010394188
0.00010508273
0.00010327014
9.8048549e-05
8.9137191e-05
7.6398262e-05
5.9899958e-05
4.0162807e-05
1.6702851e-05
9.5907006e-05
9.6938431e-05
9.9804933e-05
0.00010345113
0.00010620851
0.0001068357
0.00010457388
9.8964592e-05
8.97294e-05
7.6735744e-05
6.0056791e-05
4.0213359e-05
1.671334e-05
0.00010002395
0.00010079935
0.00010313098
0.00010616347
0.00010835181
0.00010848106
0.00010578844
9.9811231e-05
9.0271684e-05
7.7041089e-05
6.0196369e-05
4.0257566e-05
1.6723514e-05
0.00010392714
0.00010446443
0.00010629078
0.00010873219
0.0001103686
0.00011001716
0.00010691274
0.00010058763
9.076339e-05
7.7313807e-05
6.0318366e-05
4.0295258e-05
1.6733331e-05
0.00010760491
0.00010792242
0.00010927559
0.00011115239
0.00011225668
0.000111443
0.0001079462
0.00010129331
9.1204083e-05
7.7553537e-05
6.0422523e-05
4.0326296e-05
1.674275e-05
0.0001110512
0.00011116678
0.00011207963
0.00011342076
0.00011401483
0.00011275832
0.00010888878
0.0001019282
9.1593615e-05
7.7760098e-05
6.0508685e-05
4.0350586e-05
1.6751732e-05
0.00011426435
0.0001141949
0.00011469985
0.00011553561
0.00011564283
0.00011396362
0.00010974107
0.0001024927
9.1932182e-05
7.7933535e-05
6.057683e-05
4.0368096e-05
1.6760238e-05
0.00011724606
0.00011700727
0.00011713557
0.00011749672
0.00011714144
0.00011506014
0.00011050427
0.00010298773
9.2220353e-05
7.8074154e-05
6.0627091e-05
4.0378863e-05
1.6768237e-05
0.00012000062
0.00011960693
0.00011938818
0.00011930526
0.00011851234
0.00011604983
0.00011118018
0.00010341469
9.2459092e-05
7.8182536e-05
6.0659772e-05
4.0383001e-05
1.6775699e-05
0.00012253419
0.0001219988
0.00012146077
0.00012096365
0.00011975806
0.00011693531
0.00011177117
0.00010377546
9.2649751e-05
7.8259551e-05
6.0675355e-05
4.0380703e-05
1.6782601e-05
0.00012485437
0.00012418929
0.00012335783
0.00012247534
0.0001208819
0.00011771979
0.00011228012
0.0001040724
9.2794055e-05
7.8306344e-05
6.0674498e-05
4.0372243e-05
1.6788926e-05
0.00012696972
0.00012618592
0.00012508494
0.00012384471
0.00012188783
0.000118407
0.00011271035
0.00010430822
9.2894066e-05
7.8324319e-05
6.0658021e-05
4.0357965e-05
1.6794665e-05
0.00012888951
0.00012799696
0.00012664859
0.00012507687
0.00012278034
0.00011900109
0.00011306558
0.00010448603
9.2952144e-05
7.8315108e-05
6.0626896e-05
4.0338279e-05
1.6799815e-05
0.00013062344
0.00012963126
0.00012805587
0.00012617751
0.00012356442
0.00011950659
0.00011334982
0.00010460917
9.2970894e-05
7.828054e-05
6.0582219e-05
4.0313653e-05
1.6804378e-05
0.00013218145
0.00013109796
0.00012931436
0.0001271528
0.00012424537
0.0001199283
0.00011356732
0.00010468123
9.2953117e-05
7.82226e-05
6.0525186e-05
4.0284592e-05
1.6808364e-05
0.00013357359
0.00013240641
0.00013043193
0.00012800921
0.00012482878
0.00012027119
0.00011372248
0.00010470593
9.2901751e-05
7.8143384e-05
6.0457066e-05
4.0251635e-05
1.6811789e-05
0.00013480987
0.00013356601
0.00013141661
0.0001287534
0.00012532039
0.00012054036
0.00011381982
0.0001046871
9.2819824e-05
7.8045061e-05
6.0379175e-05
4.0215334e-05
1.6814674e-05
0.0001359002
0.00013458609
0.00013227651
0.00012939219
0.00012572605
0.000120741
0.00011386388
0.00010462859
9.2710402e-05
7.7929836e-05
6.0292846e-05
4.0176245e-05
1.6817042e-05
0.0001368543
0.00013547586
0.00013301969
0.0001299324
0.00012605162
0.00012087825
0.0001138592
0.00010453425
9.2576544e-05
7.7799907e-05
6.0199407e-05
4.0134919e-05
1.6818922e-05
0.00013768163
0.00013624432
0.00013365413
0.0001303808
0.00012630294
0.00012095724
0.00011381025
0.00010440786
9.2421266e-05
7.765744e-05
6.0100156e-05
4.0091886e-05
1.6820345e-05
0.00013839138
0.00013690023
0.00013418763
0.0001307441
0.00012648576
0.00012098298
0.00011372141
0.00010425314
9.2247505e-05
7.7504537e-05
5.999635e-05
4.0047653e-05
1.6821343e-05
0.00013899241
0.00013745207
0.00013462777
0.00013102882
0.00012660569
0.00012096038
0.00011359693
0.00010407365
9.2058091e-05
7.7343212e-05
5.9889178e-05
4.0002694e-05
1.6821951e-05
0.00013949322
0.00013790797
0.00013498191
0.00013124132
0.00012666822
0.00012089418
0.0001134409
0.00010387282
9.1855725e-05
7.7175377e-05
5.9779759e-05
3.9957445e-05
1.6822201e-05
0.00013990195
0.00013827576
0.0001352571
0.00013138774
0.0001266786
0.00012078893
0.00011325725
0.00010365392
9.1642962e-05
7.7002824e-05
5.966913e-05
3.9912305e-05
1.6822129e-05
0.00014022637
0.00013856289
0.00013546013
0.00013147398
0.00012664193
0.00012064901
0.00011304968
0.00010342004
9.1422195e-05
7.6827216e-05
5.9558238e-05
3.9867628e-05
1.6821768e-05
0.00014047383
0.00013877646
0.00013559745
0.00013150568
0.00012656304
0.00012047855
0.00011282174
0.00010317406
9.1195652e-05
7.6650081e-05
5.9447937e-05
3.9823728e-05
1.6821151e-05
0.00014065133
0.0001389232
0.0001356752
0.00013148821
0.00012644654
0.0001202815
0.00011257673
0.00010291868
9.0965385e-05
7.6472807e-05
5.9338991e-05
3.9780876e-05
1.6820309e-05
0.00014076547
0.00013900946
0.00013569921
0.00013142667
0.00012629681
0.00012006157
0.00011231776
0.00010265641
9.0733272e-05
7.6296644e-05
5.9232069e-05
3.9739301e-05
1.6819271e-05
0.00014082246
0.00013904124
0.00013567496
0.00013132589
0.00012611797
0.00011982224
0.00011204771
0.00010238955
9.0501017e-05
7.6122704e-05
5.9127754e-05
3.9699194e-05
1.6818066e-05
0.00014082814
0.00013902418
0.00013560765
0.00013119041
0.0001259139
0.00011956677
0.00011176926
0.00010212019
9.0270147e-05
7.5951952e-05
5.9026492e-05
3.9660496e-05
1.6816719e-05
0.000140788
0.00013896359
0.00013550212
0.00013102449
0.00012568825
0.0001192982
0.00011148487
0.00010185025
9.0042018e-05
7.5785213e-05
5.8928638e-05
3.9623157e-05
1.6815251e-05
0.00014070716
0.0001388644
0.00013536294
0.00013083215
0.00012544441
0.00011901933
0.00011119679
0.00010158143
8.9817804e-05
7.5623126e-05
5.8834217e-05
3.9587469e-05
1.6813682e-05
0.00014059041
0.00013873125
0.00013519436
0.00013061712
0.00012518555
0.00011873277
0.00011090708
0.00010131527
8.9598535e-05
7.5466273e-05
5.8743569e-05
3.9553558e-05
1.6812031e-05
0.00014044222
0.00013856845
0.00013500034
0.00013038288
0.00012491459
0.00011844089
0.0001106176
0.0001010531
8.9385006e-05
7.5314784e-05
5.8657132e-05
3.9521517e-05
1.6810318e-05
0.00014026671
0.00013837999
0.00013478459
0.00013013265
0.00012463423
0.00011814588
0.00011032999
0.00010079605
8.9177852e-05
7.5169357e-05
5.8575055e-05
3.9491399e-05
1.6808563e-05
0.00014006773
0.00013816961
0.0001345505
0.00012986942
0.00012434698
0.00011784969
0.00011004573
0.00010054514
8.8977619e-05
7.5030455e-05
5.8497466e-05
3.9463236e-05
1.6806783e-05
0.00013984883
0.00013794071
0.00013430124
0.00012959594
0.00012405508
0.00011755409
0.00010976605
0.00010030098
8.8785109e-05
7.4898325e-05
5.8424444e-05
3.9437041e-05
1.6804993e-05
0.00013961329
0.00013769648
0.00013403971
0.00012931472
0.00012376058
0.00011726064
0.00010949198
0.00010006455
8.8600785e-05
7.4773141e-05
5.8356023e-05
3.9412802e-05
1.6803207e-05
0.0001393641
0.0001374398
0.00013376855
0.00012902804
0.00012346533
0.00011697066
0.00010922452
9.9836619e-05
8.8424985e-05
7.4655014e-05
5.8292199e-05
3.9390491e-05
1.6801436e-05
0.00013910402
0.00013717334
0.00013349021
0.00012873798
0.00012317094
0.00011668532
0.00010896474
9.961773e-05
8.8257958e-05
7.4543993e-05
5.8232931e-05
3.9370065e-05
1.6799691e-05
0.00013883558
0.00013689952
0.00013320687
0.00012844635
0.00012287879
0.00011640594
0.00010871343
9.9408318e-05
8.8099868e-05
7.4440077e-05
5.8178147e-05
3.9351469e-05
1.6797981e-05
0.00013856106
0.00013662053
0.00013292045
0.00012815478
0.00012259042
0.00011613357
0.00010847125
9.9208716e-05
8.795081e-05
7.4343217e-05
5.8127755e-05
3.933464e-05
1.6796311e-05
0.00013828248
0.00013633828
0.00013263277
0.00012786496
0.00012230711
0.0001158691
0.00010823874
9.9019167e-05
8.7810812e-05
7.4253324e-05
5.808164e-05
3.931951e-05
1.679469e-05
0.00013800171
0.00013605463
0.00013234556
0.00012757834
0.00012202999
0.00011561332
0.00010801633
9.8839834e-05
8.7679848e-05
7.4170275e-05
5.8039674e-05
3.9306007e-05
1.6793122e-05
0.00013772048
0.00013577126
0.00013206036
0.00012729623
0.00012176005
0.00011536686
0.00010780438
9.8670803e-05
8.7557839e-05
7.4093918e-05
5.8001713e-05
3.9294055e-05
1.6791612e-05
0.00013744038
0.00013548971
0.00013177858
0.00012701979
0.00012149814
0.00011513026
0.0001076031
9.851209e-05
8.7444658e-05
7.4024072e-05
5.79676e-05
3.9283576e-05
1.6790163e-05
0.00013716283
0.00013521136
0.00013150144
0.00012675003
0.00012124499
0.00011490394
0.00010741267
9.8363646e-05
8.7340133e-05
7.3960527e-05
5.793717e-05
3.9274489e-05
1.6788778e-05
0.00013688911
0.00013493742
0.00013123005
0.00012648781
0.00012100118
0.00011468822
0.00010723315
9.8225359e-05
8.7244051e-05
7.3903054e-05
5.7910244e-05
3.9266711e-05
1.6787459e-05
0.00013662035
0.00013466899
0.00013096535
0.00012623389
0.0001207672
0.00011448332
0.00010706453
9.8097061e-05
8.715616e-05
7.38514e-05
5.7886637e-05
3.9260156e-05
1.6786207e-05
0.00013635754
0.00013440701
0.00013070815
0.00012598888
0.00012054344
0.00011428937
0.00010690675
9.7978534e-05
8.707618e-05
7.3805298e-05
5.7866156e-05
3.9254739e-05
1.6785024e-05
0.00013610156
0.00013415229
0.00013045917
0.00012575328
0.00012033018
0.00011410643
0.00010675966
9.7869522e-05
8.7003806e-05
7.376447e-05
5.7848609e-05
3.9250373e-05
1.6783909e-05
0.00013585315
0.00013390553
0.00013021898
0.00012552752
0.0001201276
0.00011393448
0.00010662308
9.7769735e-05
8.6938718e-05
7.3728634e-05
5.7833803e-05
3.9246975e-05
1.6782862e-05
0.00013561295
0.00013366734
0.00012998807
0.00012531191
0.00011993584
0.00011377346
0.0001064968
9.7678862e-05
8.6880586e-05
7.3697511e-05
5.7821553e-05
3.9244467e-05
1.6781881e-05
0.0001353815
0.0001334382
0.00012976685
0.0001251067
0.00011975495
0.00011362324
0.00010638055
9.7596577e-05
8.682908e-05
7.3670823e-05
5.7811679e-05
3.9242773e-05
1.6780966e-05
0.00013515927
0.00013321855
0.00012955563
0.00012491206
0.00011958494
0.00011348368
0.00010627407
9.7522542e-05
8.6783868e-05
7.3648304e-05
5.7804012e-05
3.9241827e-05
1.6780115e-05
0.00013494663
0.00013300872
0.00012935466
0.00012472811
0.00011942577
0.00011335457
0.00010617706
9.7456415e-05
8.6744621e-05
7.3629691e-05
5.7798388e-05
3.9241563e-05
1.6779328e-05
0.00013474387
0.00013280896
0.00012916412
0.00012455488
0.00011927732
0.00011323569
0.00010608918
9.7397842e-05
8.6711013e-05
7.361473e-05
5.7794652e-05
3.9241922e-05
1.6778603e-05
0.00013455122
0.00013261948
0.00012898412
0.00012439239
0.00011913947
0.00011312678
0.00010601011
9.7346462e-05
8.6682715e-05
7.3603169e-05
5.7792653e-05
3.9242846e-05
1.6777938e-05
0.00013436883
0.00013244038
0.0001288147
0.00012424054
0.00011901201
0.00011302753
0.00010593949
9.7301905e-05
8.6659395e-05
7.3594759e-05
5.7792239e-05
3.9244279e-05
1.6777332e-05
0.00013419677
0.00013227171
0.00012865584
0.00012409924
0.00011889473
0.00011293763
0.00010587694
9.7263788e-05
8.6640722e-05
7.358925e-05
5.7793265e-05
3.9246164e-05
1.6776782e-05
0.00013403504
0.00013211345
0.00012850746
0.00012396828
0.00011878732
0.00011285672
0.00010582205
9.7231721e-05
8.6626358e-05
7.3586394e-05
5.7795583e-05
3.9248448e-05
1.6776287e-05
0.00013388359
0.00013196552
0.0001283694
0.00012384745
0.00011868948
0.00011278439
0.00010577441
9.7205308e-05
8.661597e-05
7.3585948e-05
5.7799051e-05
3.9251074e-05
1.6775844e-05
0.00013374228
0.00013182776
0.00012824147
0.00012373647
0.00011860086
0.00011272025
0.0001057336
9.7184151e-05
8.6609224e-05
7.3587671e-05
5.7803529e-05
3.925399e-05
1.6775451e-05
0.00013361095
0.00013169998
0.00012812343
0.00012363503
0.00011852107
0.00011266389
0.00010569918
9.7167857e-05
8.6605797e-05
7.3591334e-05
5.7808886e-05
3.9257148e-05
1.6775105e-05
0.00013348938
0.00013158195
0.000128015
0.00012354279
0.00011844973
0.00011261486
0.00010567074
9.7156041e-05
8.6605379e-05
7.3596718e-05
5.7814999e-05
3.92605e-05
1.6774802e-05
0.00013337733
0.00013147342
0.00012791589
0.00012345941
0.00011838644
0.00011257274
0.00010564786
9.7148335e-05
8.6607675e-05
7.360362e-05
5.7821753e-05
3.9264005e-05
1.6774541e-05
0.00013327453
0.00013137409
0.00012782577
0.00012338451
0.00011833079
0.00011253713
0.00010563014
9.7144389e-05
8.6612412e-05
7.3611853e-05
5.7829047e-05
3.9267629e-05
1.6774318e-05
0.0001331807
0.00013128368
0.00012774431
0.00012331775
0.00011828239
0.00011250762
0.0001056172
9.7143875e-05
8.6619334e-05
7.3621249e-05
5.7836792e-05
3.927134e-05
1.6774131e-05
0.00013309557
0.00013120187
0.0001276712
0.00012325874
0.00011824085
0.00011248381
0.00010560869
9.7146486e-05
8.6628209e-05
7.3631654e-05
5.784491e-05
3.9275113e-05
1.6773978e-05
0.00013301882
0.00013112837
0.00012760609
0.00012320714
0.0001182058
0.00011246534
0.00010560424
9.7151936e-05
8.6638822e-05
7.364293e-05
5.7853329e-05
3.9278927e-05
1.6773856e-05
0.00013295016
0.00013106286
0.00012754865
0.00012316258
0.00011817686
0.00011245184
0.00010560355
9.7159952e-05
8.6650971e-05
7.3654949e-05
5.7861988e-05
3.9282764e-05
1.6773764e-05
0.00013288926
0.000131005
0.00012749853
0.00012312469
0.00011815367
0.00011244296
0.00010560629
9.7170276e-05
8.6664467e-05
7.3667593e-05
5.7870828e-05
3.9286607e-05
1.67737e-05
0.00013283579
0.00013095445
0.00012745537
0.00012309311
0.00011813584
0.00011243835
0.00010561214
9.7182653e-05
8.6679123e-05
7.3680743e-05
5.7879791e-05
3.9290438e-05
1.6773662e-05
0.00013278939
0.00013091086
0.0001274188
0.00012306745
0.000118123
0.00011243764
0.00010562081
9.7196831e-05
8.6694756e-05
7.3694285e-05
5.7888819e-05
3.9294241e-05
1.6773649e-05
0.00013274969
0.00013087382
0.00012738842
0.00012304731
0.00011811477
0.00011244048
0.00010563196
9.721256e-05
8.6711184e-05
7.3708101e-05
5.7897853e-05
3.9297995e-05
1.6773658e-05
0.00013271627
0.00013084295
0.00012736382
0.00012303229
0.00011811074
0.00011244651
0.00010564531
9.722959e-05
8.6728223e-05
7.3722074e-05
5.790683e-05
3.9301678e-05
1.6773686e-05
0.00013268873
0.00013081782
0.00012734459
0.00012302197
0.00011811053
0.00011245538
0.00010566053
9.7247677e-05
8.6745697e-05
7.3736092e-05
5.7915691e-05
3.9305269e-05
1.6773733e-05
0.00013266664
0.00013079801
0.00012733031
0.00012301595
0.00011811375
0.00011246672
0.00010567734
9.7266589e-05
8.6763439e-05
7.3750047e-05
5.792438e-05
3.9308746e-05
1.6773795e-05
0.00013264959
0.00013078311
0.00012732056
0.00012301381
0.00011812003
0.00011248022
0.00010569545
9.7286112e-05
8.6781296e-05
7.3763846e-05
5.793285e-05
3.9312094e-05
1.677387e-05
0.00013263717
0.00013077271
0.00012731494
0.00012301519
0.00011812901
0.00011249557
0.00010571462
9.7306056e-05
8.679914e-05
7.3777412e-05
5.7941064e-05
3.9315299e-05
1.6773956e-05
0.00013262902
0.00013076644
0.00012731309
0.00012301973
0.00011814038
0.00011251249
0.00010573463
9.7326263e-05
8.6816867e-05
7.3790688e-05
5.7948998e-05
3.9318357e-05
1.6774051e-05
0.00013262477
0.00013076395
0.00012731467
0.00012302711
0.00011815386
0.00011253075
0.0001057553
9.7346601e-05
8.6834396e-05
7.3803635e-05
5.795664e-05
3.9321259e-05
1.6774153e-05
0.00013262412
0.00013076492
0.00012731937
0.00012303706
0.0001181692
0.00011255015
0.00010577647
9.7366968e-05
8.6851668e-05
7.3816228e-05
5.7963983e-05
3.9323987e-05
1.6774262e-05
0.00013262678
0.00013076907
0.00012732692
0.0001230493
0.00011818617
0.00011257051
0.00010579801
9.7387278e-05
8.6868639e-05
7.3828448e-05
5.7971012e-05
3.9326566e-05
1.6774375e-05
0.00013263247
0.00013077613
0.00012733704
0.00012306361
0.00011820456
0.00011259165
0.0001058198
9.7407457e-05
8.688527e-05
7.3840284e-05
5.7977729e-05
3.9329005e-05
1.6774494e-05
0.00013264093
0.00013078583
0.0001273495
0.00012307976
0.0001182242
0.00011261344
0.00010584174
9.7427431e-05
8.6901516e-05
7.3851698e-05
5.7984153e-05
3.9331313e-05
1.6774616e-05
0.0001326519
0.00013079792
0.00012736405
0.00012309751
0.00011824487
0.0001126357
0.0001058637
9.7447122e-05
8.6917332e-05
7.3862683e-05
5.799028e-05
3.9333495e-05
1.6774741e-05
0.00013266511
0.00013081212
0.00012738042
0.00012311664
0.00011826637
0.00011265828
0.00010588556
9.746644e-05
8.6932644e-05
7.3873226e-05
5.7996103e-05
3.9335552e-05
1.677487e-05
0.00013268027
0.00013082817
0.00012739835
0.0001231369
0.0001182885
0.00011268101
0.00010590719
9.7485284e-05
8.6947415e-05
7.3883297e-05
5.8001612e-05
3.9337482e-05
1.6775001e-05
0.00013269709
0.00013084578
0.00012741758
0.00012315805
0.00011831105
0.00011270372
0.00010592845
9.750356e-05
8.6961598e-05
7.3892869e-05
5.8006794e-05
3.9339284e-05
1.6775132e-05
0.00013271528
0.00013086466
0.00012743784
0.00012317984
0.0001183338
0.00011272622
0.0001059492
9.7521198e-05
8.6975141e-05
7.3901911e-05
5.8011637e-05
3.9340952e-05
1.6775264e-05
0.00013273456
0.00013088454
0.00012745886
0.00012320204
0.00011835656
0.00011274836
0.00010596935
9.7538128e-05
8.6987998e-05
7.3910402e-05
5.8016132e-05
3.9342482e-05
1.6775394e-05
0.00013275467
0.00013090516
0.0001274804
0.00012322444
0.00011837915
0.00011277001
0.00010598881
9.7554292e-05
8.7000138e-05
7.3918327e-05
5.8020273e-05
3.9343872e-05
1.6775522e-05
0.00013277536
0.00013092629
0.00012750225
0.00012324685
0.00011840141
0.00011279108
0.00010600752
9.7569649e-05
8.7011542e-05
7.3925683e-05
5.8024064e-05
3.9345124e-05
1.6775646e-05
0.00013279645
0.00013094773
0.00012752422
0.00012326911
0.00011842325
0.00011281148
0.00010602542
9.758418e-05
8.7022209e-05
7.3932478e-05
5.8027514e-05
3.9346242e-05
1.6775766e-05
0.00013281777
0.00013096932
0.00012754618
0.00012329111
0.00011844458
0.00011283116
0.00010604249
9.7597885e-05
8.7032154e-05
7.3938731e-05
5.8030639e-05
3.9347233e-05
1.6775882e-05
0.00013283918
0.00013099095
0.00012756802
0.00012331278
0.00011846534
0.00011285011
0.00010605874
9.7610781e-05
8.7041403e-05
7.3944472e-05
5.8033461e-05
3.9348109e-05
1.6775993e-05
0.00013286061
0.00013101251
0.00012758966
0.00012333406
0.00011848552
0.00011286831
0.00010607417
9.7622895e-05
8.7049991e-05
7.3949732e-05
5.8036005e-05
3.934888e-05
1.6776099e-05
0.00013288197
0.00013103396
0.00012761104
0.0001233549
0.00011850507
0.00011288576
0.00010608881
9.7634261e-05
8.7057955e-05
7.3954547e-05
5.8038296e-05
3.9349558e-05
1.6776201e-05
0.0001329032
0.00013105521
0.00012763212
0.00012337527
0.000118524
0.00011290248
0.00010610269
9.7644914e-05
8.7065333e-05
7.3958949e-05
5.8040356e-05
3.9350156e-05
1.6776299e-05
0.00013292425
0.00013107623
0.00012765285
0.00012339515
0.0001185423
0.00011291847
0.00010611581
9.7654884e-05
8.7072158e-05
7.3962967e-05
5.8042206e-05
3.9350682e-05
1.6776394e-05
0.00013294503
0.00013109693
0.00012767317
0.00012341449
0.00011855993
0.00011293372
0.00010612821
9.7664194e-05
8.7078455e-05
7.3966623e-05
5.8043861e-05
3.9351144e-05
1.6776484e-05
0.00013296546
0.00013111725
0.00012769301
0.00012343323
0.00011857687
0.00011294823
0.00010613988
9.7672858e-05
8.7084242e-05
7.3969934e-05
5.8045331e-05
3.9351545e-05
1.6776571e-05
0.00013298546
0.0001311371
0.0001277123
0.00012345133
0.00011859308
0.00011296198
0.00010615081
9.768088e-05
8.7089527e-05
7.3972906e-05
5.8046622e-05
3.9351889e-05
1.6776655e-05
0.00013300491
0.00013115638
0.00012773096
0.00012346872
0.00011860851
0.00011297494
0.00010616099
9.7688257e-05
8.7094312e-05
7.3975544e-05
5.8047735e-05
3.9352175e-05
1.6776734e-05
0.00013302371