/*--------------------------------*- C++ -*----------------------------------*\
| =========                 |                                                 |
| \\      /  F ield         | OpenFOAM: The Open Source CFD Toolbox           |
|  \\    /   O peration     | Version:  2506                                  |
|   \\  /    A nd           | Website:  www.openfoam.com                      |
|    \\/     M anipulation  |                                                 |
\*---------------------------------------------------------------------------*/
FoamFile
{
    version     2.0;
    format      ascii;
    arch        "LSB;label=32;scalar=64";
    class       surfaceScalarField;
    location    "27000/water";
    object      phi;
}
// * * * * * * * * * * * * * * * * * * * * * * * * * * * * * * * * * * * * * //

dimensions      [1 0 -1 0 0 0 0];

oriented        oriented;

internalField   nonuniform List<scalar> 
4987
(
-6.9167736e-06
0.00085760419
-2.7656569e-05
0.0024926737
-6.1431121e-05
0.0040117068
-0.0001075903
0.0054211695
-0.00016565319
0.0067272392
-0.00023525167
0.0079357375
-0.00031606519
0.0090521266
-0.00040763483
0.010081416
-0.00050867084
0.011027654
-0.00061447105
0.011892066
-0.00070641237
0.012665127
-0.00069017742
0.01327532
0.013255156
-6.4252097e-06
0.00086402939
-2.4701717e-05
0.0025109502
-5.3973207e-05
0.0040409782
-9.3433184e-05
0.0054606295
-0.00014227852
0.0067760845
-0.00019970621
0.0079931652
-0.00026484255
0.0091172629
-0.00033648012
0.010153054
-0.00041221923
0.011103393
-0.0004856843
0.011965531
-0.00053558126
0.012715024
-0.00047144624
0.013211185
0.01278371
-6.163969e-06
0.00087019336
-2.380905e-05
0.0025285953
-5.2164898e-05
0.0040693341
-9.0528703e-05
0.0054989933
-0.00013822172
0.0068237776
-0.00019455674
0.0080495002
-0.00025870612
0.0091814123
-0.00032929751
0.010223645
-0.00040329175
0.011177387
-0.0004727614
0.012035
-0.00051220841
0.012754471
-0.00042242592
0.013121403
0.012361284
-6.1054147e-06
0.00087629878
-2.3924376e-05
0.0025464143
-5.2620538e-05
0.0040980303
-9.1395558e-05
0.0055377683
-0.00013947504
0.006871857
-0.00019604176
0.0081060669
-0.00026004543
0.009245416
-0.00032969289
0.010293293
-0.00040116834
0.011248863
-0.00046497904
0.012098811
-0.00049117541
0.012780667
-0.00037835998
0.013008587
0.011982924
-5.9919785e-06
0.00088229076
-2.3432324e-05
0.0025638546
-5.1502782e-05
0.0041261007
-8.9417765e-05
0.0055756833
-0.0001363976
0.0069188369
-0.00019157934
0.0081612487
-0.00025377584
0.0093076125
-0.0003208868
0.010360404
-0.00038849227
0.011316468
-0.0004456482
0.012155967
-0.00045837524
0.012793394
-0.00033102689
0.012881239
0.011651897
-5.8197985e-06
0.00088811056
-2.2720415e-05
0.0025807553
-4.9911333e-05
0.0041532916
-8.6629801e-05
0.0056124017
-0.00013209822
0.0069643053
-0.00018540983
0.0082145603
-0.00024524283
0.0093674455
-0.00030921061
0.010424371
-0.00037232044
0.011379578
-0.00042207813
0.012205725
-0.00042081904
0.012792135
-0.00028517408
0.012745594
0.011366723
-5.6148952e-06
0.00089372545
-2.1923414e-05
0.0025970638
-4.8158186e-05
0.0041795264
-8.35701e-05
0.0056478136
-0.00012737381
0.007008109
-0.00017860877
0.0082657952
-0.00023581604
0.0094246528
-0.00029633568
0.010484891
-0.0003545854
0.011437828
-0.00039630862
0.012247448
-0.00038067559
0.012776502
-0.00024201049
0.012606929
0.011124713
-5.4046947e-06
0.00089913014
-2.1106786e-05
0.0026127659
-4.6361915e-05
0.0042047815
-8.0433154e-05
0.0056818849
-0.00012252438
0.0070502002
-0.00017161842
0.0083148893
-0.0002261212
0.0094791555
-0.00028309872
0.010541869
-0.00033629459
0.011491024
-0.00036936757
0.012280521
-0.00033930313
0.012746438
-0.00020218079
0.012469807
0.010922532
-5.2040371e-06
0.00090433418
-2.0322449e-05
0.0026278843
-4.4632486e-05
0.0042290916
-7.7407183e-05
0.0057146596
-0.000117836
0.007090629
-0.00016484161
0.0083618949
-0.00021669175
0.0095310057
-0.00027015443
0.010595331
-0.00031814583
0.011539015
-0.00034189245
0.012304267
-0.00029797663
0.012702522
-0.00016629141
0.012338121
0.010756241
-5.0193755e-06
0.00090935356
-1.9599432e-05
0.0026424643
-4.3036007e-05
0.0042525281
-7.460817e-05
0.0057462317
-0.00011348606
0.0071295069
-0.00015852683
0.0084069356
-0.0002078498
0.0095803287
-0.00025787593
0.010645357
-0.00030047882
0.011581618
-0.00031421626
0.012318005
-0.00025799659
0.012646302
-0.00013488814
0.012215013
0.010621352
-4.8544122e-06
0.00091420797
-1.8953518e-05
0.0026565634
-4.1607992e-05
0.0042751826
-7.2098327e-05
0.0057767221
-0.00010956978
0.0071669784
-0.00015280648
0.0084501723
-0.00019976083
0.009627283
-0.00024643025
0.010692027
-0.00028338283
0.01161857
-0.00028657101
0.012321193
-0.00022065197
0.012580383
-0.00010831398
0.012102675
0.010513039
-4.7104907e-06
0.00091891846
-1.838964e-05
0.0026702426
-4.0359024e-05
0.004297152
-6.9895773e-05
0.0058062588
-0.00010611414
0.0072031967
-0.00014771517
0.0084917734
-0.00019245611
0.0096720239
-0.00023580475
0.010735375
-0.00026674607
0.011649512
-0.00025920371
0.012313651
-0.00018698909
0.012508168
-8.6549236e-05
0.012002235
0.010426489
-4.5864893e-06
0.00092350495
-1.7903118e-05
0.0026835592
-3.9278552e-05
0.0043185274
-6.7981782e-05
0.0058349621
-0.00010308929
0.0072383042
-0.0001432058
0.0085318899
-0.00018585427
0.0097146724
-0.00022583645
0.010775358
-0.0002503233
0.011673999
-0.00023244679
0.012295774
-0.00015760689
0.012433329
-6.9195206e-05
0.011913823
0.010357294
-4.47971e-06
0.00092798466
-1.7483378e-05
0.0026965629
-3.8343221e-05
0.0043393873
-6.6315361e-05
0.0058629342
-0.00010043089
0.0072724198
-0.00013918123
0.0085706402
-0.00017980338
0.0097552946
-0.00021627053
0.010811825
-0.0002338457
0.011691574
-0.00020673154
0.01226866
-0.0001326094
0.012359206
-5.5603111e-05
0.011836817
0.010301691
-4.3869483e-06
0.00093237161
-1.7117943e-05
0.0027092939
-3.7525517e-05
0.0043597948
-6.4848148e-05
0.0058902568
-9.8062773e-05
0.0073056344
-0.00013552609
0.0086081035
-0.00017412332
0.0097938918
-0.00020682318
0.010844525
-0.00021713162
0.011701882
-0.00018252415
0.012234053
-0.00011170489
0.012288387
-4.5044655e-05
0.011770157
0.010256646
-4.3051909e-06
0.0009366768
-1.6795059e-05
0.0027217838
-3.6799451e-05
0.0043797992
-6.3534223e-05
0.0059169916
-9.5911854e-05
0.007338012
-0.0001321276
0.0086443193
-0.00016863371
0.0098303979
-0.0001972305
0.010873121
-0.00020015793
0.01170481
-0.0001602209
0.012194115
-9.4372482e-05
0.012222539
-3.6838818e-05
0.011712623
0.010219807
-4.231915e-06
0.00094090871
-1.6504851e-05
0.0027340567
-3.6143084e-05
0.0043994375
-6.2334437e-05
0.005943183
-9.3914665e-05
0.0073695922
-0.00012888455
0.0086792892
-0.00016316714
0.0098646805
-0.00018728235
0.010897237
-0.00018307195
0.011700599
-0.00014006424
0.012151108
-8.0017929e-05
0.012162492
-3.0412511e-05
0.011663018
0.010189395
-4.1651418e-06
0.00094507385
-1.6239539e-05
0.0027461311
-3.5538992e-05
0.0044187369
-6.1217189e-05
0.0059688612
-9.2018424e-05
0.0074003935
-0.00012570858
0.0087129793
-0.00015757395
0.0098965459
-0.00017684648
0.010916509
-0.00016614712
0.0116899
-0.0001221172
0.012107078
-6.8078242e-05
0.012108453
-2.5313026e-05
0.011620253
0.010164082
-4.1033745e-06
0.00094917723
-1.5993201e-05
0.0027580209
-3.4973725e-05
0.0044377174
-6.0157434e-05
0.0059940449
-9.0179432e-05
0.0074304155
-0.00012252186
0.0087453217
-0.00015172469
0.0099257487
-0.0001658846
0.010930669
-0.00014970629
0.011673722
-0.00010629217
0.012063664
-5.8071522e-05
0.012060233
-2.1196921e-05
0.011583378
0.010142885
-4.045497e-06
0.00095322273
-1.5761374e-05
0.0027697368
-3.4436919e-05
0.004456393
-5.9135103e-05
0.006018743
-8.8360528e-05
0.0074596409
-0.00011925379
0.008776215
-0.00014551369
0.0099520086
-0.00015445694
0.010939612
-0.00013404494
0.01165331
-9.2406391e-05
0.012022025
-4.9608158e-05
0.012017435
-1.7811015e-05
0.011551581
0.010125074
-3.9906706e-06
0.0009572134
-1.5540649e-05
0.0027812868
-3.3920384e-05
0.0044747727
-5.8133472e-05
0.0060429561
-8.6528477e-05
0.0074880359
-0.00011583835
0.0088055249
-0.00013886507
0.0099750353
-0.00014270997
0.010943457
-0.00011937991
0.01162998
-8.0236232e-05
0.011982881
-4.2382127e-05
0.01197958
-1.4972587e-05
0.011524171
0.010110101
-3.938246e-06
0.00096115164
-1.5328322e-05
0.0027926768
-3.3417324e-05
0.0044928617
-5.7137748e-05
0.0060666766
-8.4651727e-05
0.0075155499
-0.00011221299
0.0088330861
-0.00013174064
0.009994563
-0.00013084741
0.010942564
-0.00010583199
0.011604964
-6.955566e-05
0.011946605
-3.6155821e-05
0.011946181
-1.2551511e-05
0.011500567
0.01009755
-3.8876948e-06
0.00096503934
-1.512212e-05
0.0028039113
-3.2921708e-05
0.0045106613
-5.613392e-05
0.0060898888
-8.2698664e-05
0.0075421146
-0.00010831969
0.0088587072
-0.00012414736
0.010010391
-0.00011909198
0.010937509
-9.3435701e-05
0.011579308
-6.0156892e-05
0.011913326
-3.0745125e-05
0.011916769
-1.0455501e-05
0.011480277
0.010087094
-3.8385568e-06
0.00096887789
-1.4919992e-05
0.0028149927
-3.2427784e-05
0.0045281691
-5.510785e-05
0.0061125688
-8.0636494e-05
0.0075676432
-0.00010410814
0.0088821788
-0.00011614034
0.010022423
-0.00010764918
0.010929017
-8.216272e-05
0.011553821
-5.1858107e-05
0.011883022
-2.600701e-05
0.011890918
-8.6187525e-06
0.011462889
0.010078476
-3.7904019e-06
0.0009726683
-1.471995e-05
0.0028259223
-3.1929704e-05
0.0045453789
-5.4044564e-05
0.0061346837
-7.8430837e-05
0.0075920295
-9.9540735e-05
0.0089032887
-0.00010781835
0.0100307
-9.6682483e-05
0.010917882
-7.1946846e-05
0.011529086
-4.450396e-05
0.011855579
-2.1829746e-05
0.011868244
-6.9937057e-06
0.011448053
0.010071482
-3.7428e-06
0.0009764111
-1.4519945e-05
0.0028366994
-3.1421227e-05
0.0045622801
-5.2927708e-05
0.0061561902
-7.6046256e-05
0.0076151481
-9.4598626e-05
0.0089218411
-9.9310965e-05
0.010035413
-8.6303358e-05
0.010904874
-6.2703778e-05
0.011505486
-3.796313e-05
0.011830838
-1.8125325e-05
0.011848406
-5.5452877e-06
0.011435473
0.010065937
-3.6952977e-06
0.00098010639
-1.4317763e-05
0.0028473219
-3.0895462e-05
0.0045788578
-5.1739149e-05
0.0061770339
-7.34478e-05
0.0076368567
-8.9287317e-05
0.0089376806
-9.0760483e-05
0.010036886
-7.6573764e-05
0.010890687
-5.4344021e-05
0.011483256
-3.2125049e-05
0.011808619
-1.4823682e-05
0.011831104
-4.2469966e-06
0.011424896
0.01006169
-3.6473964e-06
0.00098375379
-1.4110936e-05
0.0028577854
-3.0344641e-05
0.0045950915
-5.0458784e-05
0.006197148
-7.0603635e-05
0.0076570016
-8.3639735e-05
0.0089507167
-8.2303601e-05
0.01003555
-6.7515803e-05
0.010875899
-4.6780167e-05
0.011462521
-2.6896731e-05
0.011788736
-1.1868358e-05
0.011816076
-3.0782568e-06
0.011416106
0.010058611
-3.5985288e-06
0.00098735232
-1.3896642e-05
0.0028680835
-2.9759896e-05
0.0046109548
-4.9064619e-05
0.0062164527
-6.7488584e-05
0.0076754255
-7.7715074e-05
0.0089609432
-7.4057339e-05
0.010031892
-5.9123311e-05
0.010860965
-3.9930397e-05
0.011443328
-2.2199857e-05
0.011771005
-9.2132845e-06
0.011803089
-2.0226624e-06
0.011408916
0.010056589
-3.5480256e-06
0.00099090034
-1.3671564e-05
0.0028782071
-2.9130949e-05
0.0046264142
-4.753311e-05
0.0062348549
-6.408791e-05
0.0076919803
-7.1592546e-05
0.0089684478
-6.611109e-05
0.010026411
-5.1371383e-05
0.010846226
-3.3718975e-05
0.011425676
-1.7967099e-05
0.011755253
-6.8191941e-06
0.011791942
-1.066574e-06
0.011403163
0.010055522
-3.4950998e-06
0.00099439544
-1.343182e-05
0.0028881438
-2.8446031e-05
0.0046414284
-4.5840365e-05
0.0062522492
-6.0401302e-05
0.0077065413
-6.536229e-05
0.0089734088
-5.8525784e-05
0.010019574
-4.4224383e-05
0.010831924
-2.8076927e-05
0.011409528
-1.4140034e-05
0.011741316
-4.649169e-06
0.011782451
-1.6922859e-07
0.011398683
0.010055353
-3.4388796e-06
0.00099783432
-1.3173131e-05
0.002897878
-2.7692439e-05
0.0046559477
-4.3964996e-05
0.0062685218
-5.644713e-05
0.0077190234
-5.9117562e-05
0.0089760792
-5.1340496e-05
0.010011797
-3.7645564e-05
0.010818229
-2.2947469e-05
0.01139483
-1.0674767e-05
0.011729044
-2.6810976e-06
0.011774457
6.6544743e-07
0.011395337
0.010056018
-3.3783149e-06
0.0010012126
-1.2890438e-05
0.0029073902
-2.6855995e-05
0.0046699133
-4.1889312e-05
0.0062835551
-5.2260839e-05
0.0077293949
-5.294343e-05
0.0089767618
-4.4574254e-05
0.010003428
-3.1595996e-05
0.010805251
-1.827961e-05
0.011381514
-7.5311734e-06
0.011718295
-8.830237e-07
0.011767809
1.4049888e-06
0.011393049
0.010057423
-3.3120983e-06
0.0010045247
-1.2577617e-05
0.0029166557
-2.5921007e-05
0.0046832566
-3.9601334e-05
0.0062972354
-4.7891273e-05
0.0077376849
-4.6909586e-05
0.0089757801
-3.8229286e-05
0.0099947476
-2.6033925e-05
0.010793056
-1.4024267e-05
0.011369504
-4.6695341e-06
0.011708941
7.7466602e-07
0.011762365
2.0667345e-06
0.011391756
0.01005949
-3.2386928e-06
0.0010077634
-1.2227714e-05
0.0029256447
-2.4871687e-05
0.0046959006
-3.7098718e-05
0.0063094625
-4.3397665e-05
0.0077439838
-4.1070812e-05
0.0089734533
-3.229914e-05
0.0099859759
-2.0920724e-05
0.010781677
-1.0139942e-05
0.011358723
-2.059123e-06
0.01170086
2.278004e-06
0.011758028
2.6638803e-06
0.011391371
0.010062154
-3.1562771e-06
0.0010109197
-1.1832823e-05
0.0029343212
-2.3693038e-05
0.0047077608
-3.4390253e-05
0.0063201597
-3.8842814e-05
0.0077484364
-3.5466326e-05
0.0089700768
-2.6770483e-05
0.0099772801
-1.6218807e-05
0.010771126
-6.5853379e-06
0.01134909
3.4752441e-07
0.011693927
3.632257e-06
0.011754743
3.2023376e-06
0.011391801
0.010065356
-3.0627118e-06
0.0010139824
-1.1384178e-05
0.0029426427
-2.2372402e-05
0.0047187491
-3.14965e-05
0.0063292838
-3.4287354e-05
0.0077512272
-3.012186e-05
0.0089659113
-2.1625933e-05
0.0099687841
-1.1894056e-05
0.010761394
-3.3303242e-06
0.011340526
2.5510898e-06
0.011688046
4.8616694e-06
0.011752432
3.6898406e-06
0.011392972
0.010069046
-2.9555338e-06
0.001016938
-1.0872487e-05
0.0029505597
-2.090146e-05
0.004728778
-2.8448943e-05
0.0063368313
-2.9785793e-05
0.0077525641
-2.50526e-05
0.0089611781
-1.6845471e-05
0.009960577
-7.9112243e-06
0.01075246
-3.2673402e-07
0.011332941
4.5433986e-06
0.011683175
5.9753604e-06
0.011751
4.1313247e-06
0.011394816
0.010073177
-2.8319475e-06
0.0010197699
-1.0288357e-05
0.0029580161
-1.9277893e-05
0.0047377676
-2.5286898e-05
0.0063428403
-2.5383492e-05
0.0077526607
-2.0264995e-05
0.0089560596
-1.2407957e-05
0.00995272
-4.241874e-06
0.010744293
2.4380353e-06
0.011326262
6.3570149e-06
0.011679256
6.9857828e-06
0.011750371
4.5313317e-06
0.011397271
0.010077709
-2.6889067e-06
0.0010224588
-9.62321e-06
0.0029649504
-1.7507126e-05
0.0047456515
-2.2054207e-05
0.0063473873
-2.1116465e-05
0.0077517229
-1.5759113e-05
0.0089507023
-8.2896634e-06
0.0099452505
-8.4669691e-07
0.01073685
4.9536932e-06
0.011320461
8.0065033e-06
0.011676204
7.9030916e-06
0.011750475
4.8940006e-06
0.01140028
0.010082603
-2.5232499e-06
0.0010249821
-8.8703623e-06
0.0029712975
-1.5602907e-05
0.004752384
-1.8795215e-05
0.0063505797
-1.7011649e-05
0.0077499394
-1.1530715e-05
0.0089452213
-4.4700103e-06
0.0099381898
2.2909713e-06
0.01073009
7.2495181e-06
0.011315503
9.5068931e-06
0.011673946
8.7354478e-06
0.011751246
5.222339e-06
0.011403793
0.010087825
-2.3319742e-06
0.001027314
-8.0264223e-06
0.0029769919
-1.3587003e-05
0.0047579446
-1.5551692e-05
0.0063525443
-1.3087784e-05
0.0077474754
-7.5700376e-06
0.0089397036
-9.1685059e-07
0.0099315366
5.1653524e-06
0.010724007
9.3448688e-06
0.011311323
1.0871969e-05
0.011672419
9.4906196e-06
0.011752628
5.5193515e-06
0.011407764
0.010093345
-2.1126539e-06
0.0010294267
-7.0926578e-06
0.0029819719
-1.1487674e-05
0.0047623396
-1.2360755e-05
0.0063534174
-9.357439e-06
0.0077444721
-3.8680862e-06
0.0089342142
2.3812022e-06
0.0099252873
7.7971332e-06
0.010718591
1.1256332e-05
0.011307864
1.2113259e-05
0.011671562
1.0175004e-05
0.011754566
5.7874327e-06
0.011412152
0.010099132
-1.8640265e-06
0.0010312907
-6.0761487e-06
0.0029861841
-9.337473e-06
0.0047656009
-9.2535867e-06
0.0063533335
-5.8255802e-06
0.0077410441
-4.0087093e-07
0.0089287895
5.4171539e-06
0.0099194693
1.0206085e-05
0.010713802
1.2999134e-05
0.011305071
1.3241036e-05
0.01167132
1.079428e-05
0.011757013
6.028725e-06
0.011416917
0.010105161
-1.5866516e-06
0.0010328774
-4.9902363e-06
0.0029895876
-7.1706267e-06
0.0047677813
-6.2552689e-06
0.0063524182
-2.4927339e-06
0.0077372816
2.8316893e-06
0.0089234651
8.2068016e-06
0.0099140942
1.240895e-05
0.0107096
1.4586646e-05
0.011302893
1.4264271e-05
0.011671643
1.1353366e-05
0.011759924
6.24507e-06
0.011422026
0.010111406
-1.2835175e-06
0.0010341609
-3.8541824e-06
0.0029921583
-5.0207791e-06
0.0047689479
-3.3849432e-06
0.0063507823
6.4622727e-07
0.0077332504
5.8153838e-06
0.0089182959
1.0765936e-05
0.0099091437
1.4420845e-05
0.010705945
1.6030831e-05
0.011301283
1.5191005e-05
0.011672482
1.1856704e-05
0.011763258
6.4381635e-06
0.011427444
0.010117844
-9.6035043e-07
0.0010351212
-2.6918222e-06
0.0029938898
-2.9183388e-06
0.0047691744
-6.5060225e-07
0.0063485146
3.5782626e-06
0.0077290215
8.5629322e-06
0.0089133113
1.3108582e-05
0.009904598
1.6254537e-05
0.010702799
1.7341534e-05
0.011300196
1.6027689e-05
0.011673796
1.2307722e-05
0.011766978
6.6092223e-06
0.011433143
0.010124453
-6.2535311e-07
0.0010357466
-1.5291175e-06
0.0029947935
-8.8736254e-07
0.0047685327
1.9291028e-06
0.0063456981
6.287325e-06
0.0077246633
1.1084076e-05
0.0089085145
1.5247503e-05
0.0099004346
1.7921722e-05
0.010700125
1.8527751e-05
0.01129959
1.678025e-05
0.011675544
1.2709633e-05
0.011771049
6.7594488e-06
0.011439093
0.010131213
-2.8821892e-07
0.0010360348
-3.9067724e-07
0.002994896
1.0457132e-06
0.0047670963
4.3266771e-06
0.0063424172
8.7771266e-06
0.0077202129
1.3387463e-05
0.0089039042
1.7193138e-05
0.0098966289
1.9431845e-05
0.010697886
1.9596631e-05
0.011299425
1.7453261e-05
0.011677687
1.3064784e-05
0.011775437
6.8896271e-06
0.011445268
0.010138102
4.0780631e-08
0.001035994
6.9665696e-07
0.0029942401
2.8485959e-06
0.0047649444
6.5296084e-06
0.0063387362
1.104952e-05
0.007715693
1.5480303e-05
0.0088994734
1.8954067e-05
0.0098931551
2.0792553e-05
0.010696048
2.0553845e-05
0.011299664
1.8050242e-05
0.011680191
1.3374891e-05
0.011780112
7.000279e-06
0.011451643
0.010145102
3.5067333e-07
0.0010356433
1.704865e-06
0.0029928859
4.4970869e-06
0.0047621521
8.5307846e-06
0.0063347025
1.3105724e-05
0.007711118
1.7368019e-05
0.0088952111
2.0536748e-05
0.0098899864
2.2009492e-05
0.010694575
2.1403419e-05
0.01130027
1.85735e-05
0.011683021
1.3640898e-05
0.011785045
7.0915598e-06
0.011458192
0.010152194
6.3199243e-07
0.0010350114
2.6137941e-06
0.0029909041
5.9771935e-06
0.0047587887
1.032451e-05
0.0063303552
1.4946284e-05
0.0077064963
1.9054268e-05
0.0088911031
2.1945526e-05
0.0098870951
2.3086291e-05
0.010693435
2.2147684e-05
0.011301209
1.9024079e-05
0.011686144
1.3862936e-05
0.011790206
7.1632478e-06
0.011464892
0.010159357
8.7876198e-07
0.0010341326
3.411379e-06
0.0029883715
7.2795448e-06
0.0047549206
1.1906905e-05
0.0063257278
1.6571497e-05
0.0077018317
2.0541349e-05
0.0088871333
2.3182995e-05
0.0098844535
2.4024848e-05
0.010692593
2.2787494e-05
0.011302446
1.9401896e-05
0.01168953
1.4040399e-05
0.011795568
7.21477e-06
0.011471717
0.010166572
1.0879008e-06
0.0010330447
4.0915501e-06
0.0029853679
8.3995035e-06
0.0047506126
1.3276247e-05
0.006320851
1.7981826e-05
0.0076971261
2.1830608e-05
0.0088832845
2.4250315e-05
0.0098820338
2.4825562e-05
0.010692017
2.3322371e-05
0.011303949
1.9705839e-05
0.011693146
1.4172011e-05
0.011801101
7.2452468e-06
0.011478644
0.010173817
1.258895e-06
0.0010317858
4.6536583e-06
0.0029819731
9.3370817e-06
0.0047459292
1.4433328e-05
0.0063157548
1.9178446e-05
0.007692381
2.2922982e-05
0.00887954
2.5147694e-05
0.0098798091
2.548772e-05
0.010691677
2.3750803e-05
0.011305686
1.9933963e-05
0.011696963
1.4255926e-05
0.011806779
7.2535162e-06
0.011485647
0.010181071
1.3932132e-06
0.0010303926
5.1015121e-06
0.0029782648
1.0096593e-05
0.0047409341
1.5381711e-05
0.0063104697
2.0163774e-05
0.0076875989
2.3819589e-05
0.0088758841
2.5874921e-05
0.0098777538
2.6009931e-05
0.010691542
2.4070564e-05
0.011307626
2.0083726e-05
0.01170095
1.4289902e-05
0.011812573
7.2382408e-06
0.011492698
0.010188309
1.4936548e-06
0.0010288989
5.4422373e-06
0.0029743162
1.0686063e-05
0.0047356903
1.6127809e-05
0.0063050279
2.0941932e-05
0.0076827848
2.4522326e-05
0.0088723038
2.6431964e-05
0.0098758441
2.6390662e-05
0.010691584
2.4279167e-05
0.011309737
2.0152325e-05
0.011705077
1.4271507e-05
0.011818454
7.1979962e-06
0.011499772
0.010195507
1.5637638e-06
0.0010273352
5.6851352e-06
0.0029701949
1.1116461e-05
0.004730259
1.6680745e-05
0.0062994637
2.1519036e-05
0.0076779465
2.5034359e-05
0.0088687884
2.6819515e-05
0.009874059
2.6628744e-05
0.010691774
2.4374287e-05
0.011311992
2.0137037e-05
0.011709314
1.4198377e-05
0.011824393
7.131418e-06
0.011506839
0.010202638
1.6073726e-06
0.0010257278
5.8406794e-06
0.0029659615
1.1400861e-05
0.0047246988
1.7052027e-05
0.0062938125
2.1903318e-05
0.0076730952
2.5360512e-05
0.0088653312
2.703948e-05
0.00987238
2.6723889e-05
0.01069209
2.4354236e-05
0.011314361
2.0035597e-05
0.011713633
1.4068461e-05
0.01183036
7.0373096e-06
0.01151387
0.010209676
1.6282845e-06
0.0010240995
5.9197111e-06
0.0029616701
1.1553606e-05
0.0047190649
1.7255071e-05
0.006288111
2.2105042e-05
0.0076682452
2.5507452e-05
0.0088619288
2.7095326e-05
0.0098707921
2.6677074e-05
0.010692508
2.4218337e-05
0.01131682
1.9846534e-05
0.011718005
1.3880288e-05
0.011836326
6.9148064e-06
0.011520835
0.010216591
1.6300787e-06
0.0010224694
5.9328548e-06
0.0029573673
1.1589577e-05
0.0047134082
1.7304654e-05
0.0062823959
2.2136273e-05
0.0076634136
2.5483735e-05
0.0088585814
2.6992298e-05
0.0098692836
2.6490866e-05
0.01069301
2.3967276e-05
0.011319343
1.9569476e-05
0.011722402
1.3633188e-05
0.011842262
6.76347e-06
0.011527705
0.010223354
1.616006e-06
0.0010208534
5.8901305e-06
0.0029530932
1.152358e-05
0.0047077747
1.7216352e-05
0.0062767032
2.2010529e-05
0.0076586194
2.5299681e-05
0.0088552922
2.6737468e-05
0.0098678458
2.6169573e-05
0.010693578
2.3603296e-05
0.01132191
1.9205359e-05
0.0117268
1.3327465e-05
0.01184814
6.5834083e-06
0.011534449
0.010229937
1.5889481e-06
0.0010192645
5.8007315e-06
0.0029488814
1.1369898e-05
0.0047022056
1.7006029e-05
0.006271067
2.1742374e-05
0.0076538831
2.4967152e-05
0.0088520674
2.6339681e-05
0.0098664732
2.5719309e-05
0.010694198
2.3130336e-05
0.011324499
1.8756575e-05
0.011731174
1.2964512e-05
0.011853932
6.3753142e-06
0.011541038
0.010236313
1.5514162e-06
0.0010177131
5.6729204e-06
0.0029447599
1.114197e-05
0.0046967365
1.6689387e-05
0.0062655196
2.1346999e-05
0.0076492255
2.4499225e-05
0.0088489152
2.5809348e-05
0.0098651631
2.5147891e-05
0.010694859
2.2554003e-05
0.011327093
1.8226991e-05
0.011735501
1.2546851e-05
0.011859613
6.1405064e-06
0.011547445
0.010242453
1.5055727e-06
0.0010162075
5.5140107e-06
0.0029407515
1.0852202e-05
0.0046913983
1.6281613e-05
0.0062600902
2.0839818e-05
0.0076446673
2.3909852e-05
0.0088458452
2.5158197e-05
0.0098639148
2.4464685e-05
0.010695553
2.1881483e-05
0.011329676
1.7621906e-05
0.011739761
1.2078105e-05
0.011865156
5.8809014e-06
0.011553642
0.010248334
1.4532629e-06
0.0010147542
5.3303994e-06
0.0029368744
1.0511863e-05
0.0046862168
1.5797118e-05
0.006254805
2.0236109e-05
0.0076402283
2.3213484e-05
0.0088428678
2.4398938e-05
0.0098627293
2.368033e-05
0.010696272
2.1121341e-05
0.011332235
1.6947904e-05
0.011743934
1.1562901e-05
0.011870541
5.5989729e-06
0.011559606
0.010253933
1.3960519e-06
0.0010133582
5.1276327e-06
0.0029331428
1.0131069e-05
0.0046812134
1.5249351e-05
0.0062496867
1.9550722e-05
0.0076359269
2.2424734e-05
0.0088399938
2.3544937e-05
0.0098616091
2.2806454e-05
0.01069701
2.028327e-05
0.011334758
1.6212655e-05
0.011748005
1.1006721e-05
0.011875747
5.2976539e-06
0.011565315
0.010259231
1.3352609e-06
0.0010120229
4.9104846e-06
0.0029295676
9.718799e-06
0.0046764051
1.4650693e-05
0.0062447548
1.8797836e-05
0.0076317798
2.1558065e-05
0.0088372336
2.2609882e-05
0.0098605573
2.1855344e-05
0.010697765
1.9377806e-05
0.011337236
1.5424678e-05
0.011751958
1.0415723e-05
0.011880756
4.9802439e-06
0.01157075
0.010264211
1.2720005e-06
0.0010107509
4.6830402e-06
0.0029261565
9.2829581e-06
0.0046718052
1.4012408e-05
0.0062400253
1.799079e-05
0.0076278014
2.0627521e-05
0.0088345968
2.1607461e-05
0.0098595774
2.0839622e-05
0.010698532
1.8416016e-05
0.011339659
1.459306e-05
0.011755781
9.7965247e-06
0.011885553
4.6502883e-06
0.011575897
0.010268861
1.2072013e-06
0.0010095437
4.4487775e-06
0.0029229149
8.8304501e-06
0.0046674235
1.3344634e-05
0.0062355111
1.7141962e-05
0.0076240041
1.964652e-05
0.0088320923
2.0551105e-05
0.0098586728
1.9771955e-05
0.010699312
1.7409206e-05
0.011342022
1.3727196e-05
0.011759463
9.1560003e-06
0.011890124
4.3114474e-06
0.011580741
0.010273173
1.1416405e-06
0.0010084021
4.2106432e-06
0.0029198459
8.3672627e-06
0.0046632669
1.2656406e-05
0.006231222
1.6262696e-05
0.0076203978
1.8627683e-05
0.0088297273
1.9453738e-05
0.0098578467
1.8664769e-05
0.010700101
1.636863e-05
0.011344318
1.2836525e-05
0.011762995
8.5010675e-06
0.011894459
3.9673989e-06
0.011585275
0.01027714
1.0759646e-06
0.0010073261
3.9711222e-06
0.0029169508
7.8985548e-06
0.0046593395
1.1955711e-05
0.0062271648
1.5363278e-05
0.0076169902
1.7582724e-05
0.0088275078
1.8327603e-05
0.0098571018
1.7530035e-05
0.010700898
1.530526e-05
0.011346543
1.1930301e-05
0.01176637
7.8385065e-06
0.011898551
3.6217165e-06
0.011589492
0.010280762
1.010709e-06
0.0010063154
3.732299e-06
0.0029142292
7.4287413e-06
0.004655643
1.1249542e-05
0.006223344
1.4452926e-05
0.0076137868
1.6522369e-05
0.0088254384
1.7184116e-05
0.0098564401
1.6379068e-05
0.010701703
1.4229563e-05
0.011348692
1.1017387e-05
0.011769582
7.1747966e-06
0.011902394
3.2777894e-06
0.011593389
0.01028404
9.463149e-07
0.0010053691
3.4959119e-06
0.0029116796
6.9615747e-06
0.0046521774
1.0543976e-05
0.0062197616
1.3539825e-05
0.007610791
1.5456326e-05
0.0088235219
1.6033773e-05
0.0098558626
1.5222398e-05
0.010702515
1.3151345e-05
0.011350763
1.0106101e-05
0.011772627
6.5159857e-06
0.011905984
2.9387432e-06
0.011596966
0.010286978
8.8314313e-07
0.0010044859
3.2634003e-06
0.0029092993
6.5002193e-06
0.0046489405
9.844242e-06
0.0062164176
1.263116e-05
0.0076080041
1.4393268e-05
0.0088217598
1.4886085e-05
0.0098553698
1.4069657e-05
0.010703331
1.2079624e-05
0.011352753
9.2040836e-06
0.011775503
5.8675918e-06
0.01190932
2.6073951e-06
0.011600226
0.010289586
8.2148638e-07
0.0010036645
3.035946e-06
0.0029070849
6.0473214e-06
0.0046459292
9.1548019e-06
0.0062133101
1.1733179e-05
0.0076054257
1.3340857e-05
0.0088201521
1.3749558e-05
0.0098549611
1.2929528e-05
0.010704151
1.1022549e-05
0.01135466
8.318218e-06
0.011778207
5.2345369e-06
0.011912404
2.2862125e-06
0.011603174
0.010291872
7.6157908e-07
0.0010029029
2.8145086e-06
0.0029050319
5.6050701e-06
0.0046431386
8.47942e-06
0.0062104358
1.0851246e-05
0.0076030539
1.2305772e-05
0.0088186976
1.2631684e-05
0.0098546352
1.1809705e-05
0.010704973
9.987345e-06
0.011356483
7.4545723e-06
0.01178074
4.6211052e-06
0.011915238
1.9773018e-06
0.011605818
0.010293849
7.0360627e-07
0.0010021993
2.5998567e-06
0.0029031357
5.1752545e-06
0.0046405632
7.8212352e-06
0.0062077898
9.9899167e-06
0.0076008852
1.1293762e-05
0.0088173937
1.1538974e-05
0.00985439
1.0716901e-05
0.010705795
8.9803036e-06
0.011358219
6.6183849e-06
0.011783102
4.0309267e-06
0.011917825
1.6823941e-06
0.011608167
0.010295532
6.4771069e-07
0.0010015516
2.392594e-06
0.0029013908
4.7593129e-06
0.0046381965
7.182826e-06
0.0062053663
9.1529986e-06
0.007598915
1.0309696e-05
0.008816237
1.0476984e-05
0.0098542227
9.6568564e-06
0.010706615
8.0067809e-06
0.011359869
5.8140585e-06
0.011785295
3.4669859e-06
0.011920172
1.4028659e-06
0.011610231
0.010296935
5.939993e-07
0.0010009576
2.1931835e-06
0.0028997916
4.3583789e-06
0.0046360313
6.5662753e-06
0.0062031584
8.3436261e-06
0.0075971377
9.3576321e-06
0.008815223
9.4503764e-06
0.00985413
8.6343894e-06
0.010707431
7.0712373e-06
0.011361433
5.0451932e-06
0.011787321
2.9316439e-06
0.011922286
1.1397457e-06
0.011612023
0.010298074
5.4254835e-07
0.001000415
2.0019661e-06
0.0028983322
3.9733201e-06
0.0046340599
5.9732244e-06
0.0062011585
7.564321e-06
0.0075955466
8.4408801e-06
0.0088143465
8.4629738e-06
0.0098541079
7.6534364e-06
0.010708241
6.1772694e-06
0.011362909
4.3146204e-06
0.011789183
2.4266753e-06
0.011924174
8.9374853e-07
0.011613556
0.010298968
4.934083e-07
0.0009999216
1.8191804e-06
0.0028970064
3.6047751e-06
0.0046322743
5.4049296e-06
0.0061993583
6.8170641e-06
0.0075941344
7.5620754e-06
0.0088136015
7.517832e-06
0.0098541521
6.7171249e-06
0.010709041
5.3276817e-06
0.011364298
3.6244601e-06
0.011790887
1.9533101e-06
0.011925845
6.6529233e-07
0.011614844
0.010299633
4.4660775e-07
0.00099947499
1.6449761e-06
0.0028958081
3.253185e-06
0.0046306661
4.8623108e-06
0.0061977492
6.1033536e-06
0.0075928934
6.723245e-06
0.0088129816
6.6173086e-06
0.0098542581
5.8278418e-06
0.010709831
4.5245511e-06
0.011365601
2.976194e-06
0.011792435
1.5123055e-06
0.011927309
4.5455522e-07
0.011615901
0.010300088
4.0215817e-07
0.00099907283
1.4794343e-06
0.0028947308
2.9188338e-06
0.0046292267
4.3460154e-06
0.006196322
5.4242955e-06
0.0075918151
5.9259203e-06
0.0088124799
5.7631963e-06
0.0098544208
4.9873855e-06
0.010710607
3.7694022e-06
0.011366819
2.370848e-06
0.011793834
1.1041307e-06
0.011928575
2.6163099e-07
0.011616744
0.01030035
3.6005656e-07
0.00099871278
1.322577e-06
0.0028937683
2.6018715e-06
0.0046279474
3.8564588e-06
0.0061950674
4.7806591e-06
0.0075908909
5.1712045e-06
0.0088120894
4.9567983e-06
0.0098546352
4.1970487e-06
0.010711366
3.0632969e-06
0.011367953
1.8091308e-06
0.011795088
7.2934557e-07
0.011929655
8.9035172e-08
0.011617384
0.010300439
3.2028284e-07
0.0009983925
1.1743565e-06
0.0028929142
2.3022865e-06
0.0046268195
3.3937697e-06
0.006193976
4.1727833e-06
0.0075901119
4.4596269e-06
0.0088118026
4.1987183e-06
0.0098548961
3.4573296e-06
0.010712108
2.4064491e-06
0.011369004
1.2908979e-06
0.011796203
3.876848e-07
0.011930558
-6.2288706e-08
0.011617834
0.010300376
2.8280129e-07
0.00099810969
1.0346602e-06
0.0028921623
2.0199188e-06
0.0046258342
2.9578121e-06
0.0061930381
3.6006067e-06
0.0075894691
3.7911811e-06
0.008811612
3.488905e-06
0.0098551984
2.7680014e-06
0.010712829
1.7984103e-06
0.011369974
8.1584317e-07
0.011797186
8.124087e-08
0.011931293
-1.9799642e-07