/*--------------------------------*- C++ -*----------------------------------*\
| =========                 |                                                 |
| \\      /  F ield         | OpenFOAM: The Open Source CFD Toolbox           |
|  \\    /   O peration     | Version:  2506                                  |
|   \\  /    A nd           | Website:  www.openfoam.com                      |
|    \\/     M anipulation  |                                                 |
\*---------------------------------------------------------------------------*/
FoamFile
{
    version     2.0;
    format      ascii;
    arch        "LSB;label=32;scalar=64";
    class       volScalarField;
    location    "12000/water";
    object      alphat;
}
// * * * * * * * * * * * * * * * * * * * * * * * * * * * * * * * * * * * * * //

dimensions      [1 -1 -1 0 0 0 0];

internalField   nonuniform List<scalar> 
2600
(
0.040489031
0.04048893
0.040488932
0.040488969
0.04048893
0.040488424
0.040485257
0.04046703
0.040362559
0.039762099
0.036475623
0.024118064
0.014862723
0.039376404
0.039376463
0.039376584
0.03937667
0.03937627
0.039373342
0.039357935
0.03928206
0.038918252
0.037247647
0.030707814
0.017504579
0.016810247
0.03845331
0.038453299
0.038453385
0.038453188
0.038451259
0.038441479
0.038397507
0.038208927
0.037432867
0.034484227
0.025768479
0.01464355
0.017680736
0.037674097
0.037673994
0.037673876
0.037672833
0.03766736
0.037643826
0.037549741
0.037190974
0.035896577
0.031717985
0.022022178
0.013507107
0.017935556
0.037006829
0.037006634
0.03700605
0.037003229
0.036991211
0.03694503
0.036777672
0.036201229
0.034343725
0.029136321
0.019390213
0.01332192
0.01787019
0.036428097
0.036427705
0.036426239
0.036420305
0.036397905
0.036319194
0.03605724
0.035231095
0.03281421
0.026833154
0.017684561
0.01376901
0.017658004
0.035920433
0.035919673
0.03591673
0.035905979
0.035868817
0.035747845
0.035374204
0.034281783
0.031338745
0.024847734
0.016751764
0.014701365
0.017395975
0.035470606
0.03546924
0.035464057
0.035446499
0.035390052
0.035218253
0.034721129
0.033357857
0.029935921
0.02320089
0.016491475
0.016024754
0.017137191
0.035068412
0.03506614
0.035057811
0.035031314
0.034951338
0.034722033
0.034094772
0.032463227
0.028616047
0.021918168
0.016839593
0.01764423
0.016909598
0.034705855
0.034702323
0.034689851
0.034652315
0.034545228
0.034254009
0.03349406
0.031599319
0.027389013
0.021039007
0.017742707
0.01944683
0.016725717
0.034376582
0.0343714
0.034353768
0.03430331
0.034166516
0.033811296
0.032918607
0.030765036
0.026274288
0.020612421
0.019134169
0.021310298
0.0165878
0.034075484
0.034068256
0.034044512
0.033979658
0.033811775
0.033392551
0.032367695
0.029958513
0.025310237
0.020682514
0.02092045
0.023125093
0.01649134
0.03379842
0.033788771
0.033758129
0.033677993
0.033478994
0.032997353
0.031839672
0.029180919
0.024557973
0.021270679
0.022983308
0.024813263
0.016428198
0.033542011
0.033529635
0.033491576
0.033396025
0.033167279
0.032625685
0.031331905
0.02844226
0.024095308
0.02236241
0.02519592
0.026333969
0.016389375
0.033303501
0.033288203
0.033242589
0.033132389
0.0328766
0.032277488
0.030841496
0.027768047
0.024001078
0.023903802
0.027443847
0.027676786
0.016366908
0.033080659
0.033062404
0.03300959
0.032886524
0.032607559
0.031952311
0.030367144
0.027204004
0.02433601
0.025808536
0.029640409
0.028850257
0.01635471
0.032871707
0.032850677
0.032791627
0.032658586
0.032361164
0.031649138
0.029912405
0.026815112
0.025128026
0.027972561
0.031731261
0.029871995
0.016348606
0.032675278
0.032651931
0.032588332
0.032449362
0.032138606
0.031366538
0.029490156
0.026676983
0.02636662
0.030291378
0.033689748
0.030762439
0.016345973
0.032490392
0.032465523
0.0323999
0.032260198
0.031941021
0.031103392
0.02912715
0.026861558
0.028006318
0.032674378
0.035508202
0.031541613
0.016345289
0.03231644
0.032291251
0.032227075
0.032092906
0.0317693
0.030860474
0.028866522
0.027422392
0.02997661
0.035052626
0.037189756
0.032227633
0.016345749
0.032153193
0.032129365
0.032071151
0.03194966
0.031623986
0.030643052
0.028765901
0.028384666
0.032194873
0.037379728
0.038742713
0.03283612
0.016346971
0.032000817
0.031980587
0.031933965
0.031832869
0.031505423
0.030464306
0.028890209
0.029742268
0.034578895
0.039628039
0.040177388
0.03338011
0.016348812
0.031859898
0.031846136
0.031817892
0.031745018
0.031414332
0.030348688
0.029300795
0.031461309
0.037056244
0.041783221
0.041504536
0.033870256
0.016351246
0.031731488
0.031727775
0.031725824
0.031688525
0.031353059
0.030333689
0.030044463
0.033487924
0.039569151
0.043839375
0.042734578
0.034315152
0.016354289
0.031617156
0.031627852
0.031661123
0.031665646
0.031327616
0.03046839
0.031145811
0.035757862
0.042075207
0.045795594
0.043877213
0.034721702
0.016357969
0.031519059
0.031549348
0.031627545
0.031678558
0.031350386
0.030808116
0.032604583
0.038205563
0.044545297
0.047653852
0.044941234
0.035095454
0.016362308
0.03144002
0.031495925
0.031629136
0.031729781
0.031442847
0.031406233
0.034397782
0.040771061
0.046960464
0.04941777
0.045934484
0.035440886
0.01636731
0.031383622
0.031471952
0.031670108
0.031823119
0.031637179
0.032305487
0.03648515
0.043403916
0.049308923
0.051091864
0.046863895
0.035761637
0.016372969
0.03135431
0.031482518
0.031754744
0.031965285
0.031975484
0.033531428
0.038816232
0.04606436
0.051583768
0.052681066
0.047735561
0.036060692
0.016379266
0.031357497
0.031533412
0.031887427
0.032168112
0.032505945
0.035089408
0.041337344
0.048722489
0.053781403
0.054190403
0.048554836
0.036340517
0.016386174
0.03139966
0.031631057
0.032072921
0.032450915
0.033276474
0.03696535
0.043997167
0.051356522
0.055900493
0.055624809
0.04932644
0.036603249
0.016393659
0.031488426
0.031782428
0.03231711
0.032842099
0.03432751
0.039129414
0.04675033
0.0539509
0.057941207
0.056988872
0.050054079
0.036848496
0.016401672
0.031632621
0.031994973
0.032628308
0.033378943
0.035685988
0.041541299
0.049558965
0.056494684
0.059904719
0.058286905
0.050741228
0.037078062
0.016410157
0.031842264
0.032276621
0.033019162
0.034104839
0.037361928
0.044155835
0.052392715
0.058980326
0.061792816
0.059522758
0.051390027
0.037293993
0.01641906
0.03212853
0.032636022
0.033508772
0.035064181
0.039348111
0.046927806
0.05522786
0.061402784
0.063607643
0.060699938
0.052002678
0.037497696
0.016428334
0.03250367
0.033083205
0.034124297
0.0362961
0.041622404
0.049815359
0.058046136
0.063758862
0.065351547
0.061821639
0.052582581
0.037690194
0.016437945
0.032981002
0.033630797
0.034901059
0.037828734
0.044151817
0.052781871
0.060833587
0.06604668
0.067026702
0.062889501
0.053132469
0.03787253
0.016447872
0.033575095
0.034295805
0.035880367
0.039675451
0.046897157
0.055796506
0.063579601
0.068265333
0.068635569
0.063907355
0.053654302
0.038045474
0.016458088
0.034302369
0.035101606
0.03710507
0.041833723
0.049817348
0.058833935
0.066276154
0.070414394
0.070179109
0.064878398
0.054149995
0.038209783
0.016468569
0.03518228
0.036079356
0.038613765
0.044286507
0.052872737
0.061873598
0.068917176
0.072494026
0.071660189
0.06580521
0.054621165
0.038366085
0.016479288
0.036239045
0.037267815
0.040435159
0.047005439
0.056027178
0.064898917
0.071498027
0.07450382
0.073081483
0.0666901
0.055069327
0.038514917
0.016490218
0.037503421
0.038710794
0.04258405
0.049954867
0.059248941
0.067896466
0.074015184
0.076444643
0.074445477
0.067535119
0.055495819
0.038656742
0.016501334
0.039013504
0.040452273
0.045059723
0.053095836
0.06251085
0.070855337
0.076465325
0.078317612
0.075754305
0.068342167
0.055901827
0.038791953
0.01651261
0.040813308
0.042530165
0.047846815
0.056389303
0.065789811
0.073766509
0.078846466
0.080124252
0.077009868
0.069112939
0.056288385
0.038920882
0.016524019
0.042948316
0.044970324
0.050918056
0.05979838
0.069066322
0.076621968
0.081156916
0.081865793
0.078213924
0.069848942
0.056656395
0.039043804
0.016535536
0.045458369
0.047782286
0.054237941
0.063289384
0.072323486
0.079415203
0.083396339
0.083543325
0.079368017
0.07055149
0.057006628
0.039160949
0.016547136
0.048369476
0.050957549
0.057766449
0.06683223
0.075546548
0.082140737
0.085564128
0.085157804
0.080473481
0.071221707
0.057339734
0.039272496
0.016558794
0.051686894
0.05447039
0.061462095
0.070399909
0.078721979
0.084794901
0.087659687
0.086709984
0.081531426
0.07186053
0.057656246
0.039378584
0.016570485
0.055391451
0.05828052
0.065283653
0.073967527
0.081839595
0.087374095
0.089682315
0.088200387
0.082542722
0.072468712
0.057956585
0.039479307
0.016582185
0.059440006
0.062336476
0.069190779
0.077513988
0.084890557
0.089874865
0.091631133
0.089629272
0.083507996
0.073046815
0.058241058
0.039574722
0.016593867
0.063769441
0.066579697
0.073146277
0.081021457
0.08786672
0.092293792
0.093505036
0.09099661
0.084427616
0.073595219
0.058509868
0.039664843
0.016605507
0.068304129
0.070949104
0.077116101
0.084473696
0.090760469
0.094627419
0.095302661
0.092302081
0.085301697
0.074114114
0.058763109
0.039749647
0.016617075
0.072963925
0.075384313
0.081068508
0.087855762
0.093564607
0.096872235
0.097022399
0.093545075
0.086130102
0.07460351
0.059000768
0.039829071
0.016628545
0.077671182
0.079828331
0.084974019
0.091153805
0.096272312
0.099024695
0.098662422
0.09472472
0.086912457
0.075063246
0.059222737
0.039903016
0.016639885
0.082355817
0.084229554
0.088805515
0.094354985
0.098877145
0.10108129
0.10022075
0.095839928
0.087648187
0.075493007
0.059428816
0.039971349
0.016651062
0.086958185
0.088543062
0.092538472
0.097447485
0.10137312
0.10303863
0.10169536
0.096889471
0.08833656
0.07589235
0.059618727
0.040033909
0.016662041
0.091430072
0.092731256
0.096151237
0.10042061
0.10375478
0.10489358
0.10308425
0.09787206
0.088976744
0.076260746
0.059792139
0.040090515
0.016672786
0.095734363
0.096763932
0.099625278
0.10326492
0.10601734
0.10664339
0.10438564
0.098786456
0.089567888
0.076597621
0.05994869
0.040140976
0.016683256
0.099843912
0.10061791
0.10294534
0.10597237
0.10815677
0.1082858
0.10559802
0.099631572
0.090109197
0.076902417
0.060088017
0.040185104
0.016693412
0.10374008
0.1042764
0.10609946
0.10853648
0.11016994
0.10981913
0.1067203
0.10040657
0.090600017
0.077174644
0.060209794
0.040222728
0.016703211
0.10741124
0.10772817
0.10907891
0.11095232
0.11205462
0.1112424
0.10775189
0.10111098
0.091039915
0.07741394
0.060313762
0.040253708
0.016712613
0.11085134
0.1109667
0.1118779
0.11321661
0.11380961
0.11255535
0.10869277
0.10174473
0.091428744
0.077620127
0.060399767
0.040277953
0.016721579
0.11405871
0.11398938
0.11449341
0.11532765
0.11543468
0.11375849
0.10954353
0.10230822
0.091766701
0.077793251
0.060467788
0.040295431
0.01673007
0.11703507
0.1167967
0.11692476
0.11728524
0.1169306
0.11485304
0.11030536
0.10280236
0.092054355
0.077933617
0.060517959
0.040306178
0.016738054
0.11978468
0.11939169
0.11917333
0.11909054
0.11829904
0.11584096
0.11098007
0.10322855
0.092292668
0.078041807
0.060550583
0.04031031
0.016745502
0.12231371
0.12177927
0.1212422
0.12074596
0.11954253
0.11672486
0.11157
0.10358868
0.09248299
0.078118689
0.060566141
0.040308018
0.016752392
0.12462973
0.12396584
0.12313585
0.12225494
0.12066436
0.11750793
0.11207804
0.10388509
0.092627043
0.078165404
0.06056529
0.040299576
0.016758706
0.12674129
0.12595888
0.12485987
0.12362185
0.12166848
0.11819391
0.11250752
0.1041205
0.092726882
0.078183353
0.060548848
0.040285326
0.016764435
0.12865763
0.12776667
0.12642071
0.1248518
0.1225594
0.11878694
0.11286211
0.10429799
0.092784862
0.078174164
0.060517783
0.040265678
0.016769576
0.13038843
0.12939802
0.12782545
0.12595047
0.12334206
0.11929154
0.11314584
0.10442092
0.092803582
0.078139662
0.060473189
0.040241097
0.016774131
0.13194362
0.13086207
0.12908167
0.12692399
0.12402178
0.11971248
0.11336294
0.10449284
0.092785834
0.078081825
0.060416258
0.040212089
0.01677811
0.13333323
0.13216814
0.1301972
0.12777884
0.12460413
0.12005473
0.11351782
0.10451749
0.092734554
0.078002747
0.060348258
0.04017919
0.016781529
0.13456725
0.13332563
0.13118009
0.12852167
0.12509484
0.12032341
0.11361496
0.10449868
0.092652764
0.077904593
0.060270502
0.040142951
0.016784408
0.13565559
0.13434384
0.13203841
0.12915929
0.12549974
0.12052366
0.11365893
0.10444026
0.092543525
0.077789565
0.060184322
0.040103929
0.016786772
0.13660794
0.13523199
0.13278024
0.1296985
0.12582471
0.12066065
0.11365424
0.10434607
0.092409895
0.07765986
0.060091043
0.040062673
0.016788648
0.13743377
0.13599905
0.13341352
0.13014608
0.12607556
0.12073948
0.11360536
0.1042199
0.092254887
0.077517641
0.059991965
0.040019714
0.016790068
0.13814224
0.13665377
0.13394605
0.13050872
0.12625804
0.12076517
0.11351668
0.10406545
0.092081432
0.077365007
0.059888341
0.039975559
0.016791064
0.13874219
0.13720462
0.13438541
0.13079293
0.12637776
0.12074262
0.11339242
0.10388628
0.091892358
0.077203971
0.059781361
0.03993068
0.01679167
0.13924211
0.13765971
0.13473892
0.13100506
0.12644018
0.12067654
0.11323668
0.10368582
0.09169036
0.077036441
0.059672142
0.039885514
0.016791921
0.13965013
0.13802686
0.13501363
0.13115123
0.12645057
0.1205715
0.11305337
0.10346733
0.091477988
0.076864205
0.059561716
0.039840458
0.016791849
0.13997397
0.13831349
0.13521631
0.13123734
0.12641398
0.12043184
0.11284619
0.10323388
0.09125763
0.076688921
0.059451028
0.039795865
0.016791489
0.14022101
0.1385267
0.1353534
0.131269
0.12633525
0.12026171
0.11261868
0.10298835
0.091031506
0.076512113
0.059340932
0.039752047
0.016790873
0.1403982
0.13867318
0.13543103
0.13125157
0.12621897
0.12006503
0.11237412
0.10273345
0.090801663
0.076335166
0.059232187
0.039709275
0.016790032
0.14051214
0.13875929
0.135455
0.13119015
0.12606952
0.1198455
0.11211563
0.10247166
0.090569976
0.076159326
0.059125462
0.039667776
0.016788997
0.14056902
0.138791
0.13543079
0.13108955
0.125891
0.11960661
0.11184607
0.10220529
0.090338144
0.075985704
0.059021336
0.039627742
0.016787794
0.14057467
0.13877397
0.13536359
0.1309543
0.1256873
0.1193516
0.11156812
0.10193641
0.090107692
0.075815262
0.058920258
0.039589114
0.016786449
0.14053458
0.13871346
0.13525823
0.13078868
0.12546205
0.1190835
0.11128423
0.10166696
0.089879975
0.075648825
0.058822582
0.039551842
0.016784984
0.14045386
0.13861443
0.13511928
0.13059666
0.12521863
0.11880513
0.11099667
0.10139862
0.089656163
0.075487029
0.058728332
0.039516218
0.016783418
0.1403373
0.13848149
0.13495098
0.130382
0.12496021
0.11851906
0.11070747
0.10113293
0.089437285
0.075330458
0.058637847
0.039482369
0.016781769
0.14018934
0.13831895
0.13475729
0.13014815
0.12468972
0.11822769
0.11041849
0.10087121
0.089224132
0.075179236
0.058551564
0.039450385
0.01678006
0.14001412
0.13813081
0.13454189
0.12989835
0.12440984
0.11793318
0.11013138
0.10061462
0.089017338
0.075034062
0.058469629
0.039420319
0.016778308
0.13981547
0.13792077
0.1343082
0.12963556
0.12412307
0.1176375
0.10984761
0.10036413
0.088817447
0.074895395
0.05839217
0.039392203
0.016776531
0.13959695
0.13769227
0.13405936
0.12936255
0.12383167
0.11734241
0.1095684
0.10012039
0.08862526
0.074763484
0.058319266
0.039366048
0.016774744
0.13936181
0.13744846
0.13379828
0.12908181
0.12353768
0.11704945
0.1092948
0.099884357
0.088441243
0.074638506
0.058250955
0.039341846
0.016772961
0.13911308
0.13719224
0.13352761
0.12879564
0.12324295
0.11675998
0.1090278
0.099656814
0.088265741
0.074520575
0.058187234
0.039319569
0.016771193
0.13885349
0.13692628
0.13324978
0.12850611
0.12294909
0.11647515
0.10876848
0.099438312
0.088099007
0.074409748
0.058128067
0.039299176
0.01676945
0.13858558
0.136653
0.13296698
0.12821502
0.12265749
0.11619629
0.10851763
0.099229288
0.087941209
0.074306025
0.058073386
0.039280615
0.016767743
0.13831161
0.13637456
0.13268113
0.12792403
0.12236968
0.11592445
0.10827592
0.099030074
0.087792443
0.074209358
0.058023098
0.039263824
0.016766076
0.13803361
0.13609289
0.13239403
0.12763479
0.12208694
0.11566051
0.10804388
0.098840909
0.087652734
0.074119656
0.057977087
0.039248732
0.016764459
0.13775342
0.13580982
0.13210741
0.12734875
0.12181038
0.11540525
0.10782193
0.098661947
0.087522047
0.07403679
0.05793522
0.039235266
0.016762894
0.13747277
0.13552703
0.13182279
0.12706721
0.12154099
0.11515929
0.10761041
0.098493264
0.087400294
0.073960599
0.057897347
0.039223346
0.016761387
0.13719321
0.13524604
0.13154156
0.12679132
0.12127959
0.11492315
0.10740953
0.098334865
0.087287339
0.073890894
0.057863306
0.039212892
0.016759942
0.13691617
0.1349682
0.13126494
0.12652206
0.1210269
0.11469725
0.10721945
0.098186694
0.087183004
0.073827462
0.057832928
0.039203821
0.01675856
0.13664292
0.13469474
0.13099402
0.1262603
0.12078352
0.1144819
0.10704023
0.098048637
0.087087075
0.073770074
0.057806036
0.039196049
0.016757243
0.1363746
0.13442675
0.13072976
0.1260068
0.12054993
0.11427733
0.10687188
0.097920532
0.086999307
0.073718481
0.057782446
0.039189492
0.016755994
0.1361122
0.13416518
0.13047297
0.12576217
0.12032652
0.11408368
0.10671433
0.097802173
0.086919429
0.073672427
0.057761976
0.039184069
0.016754812
0.13585661
0.13391085
0.13022437
0.12552695
0.12011359
0.11390102
0.10656746
0.097693317
0.086847151
0.073631645
0.05774444
0.039179698
0.016753698
0.13560859
0.13366448
0.12998457
0.12530155
0.11991134
0.11372935
0.10643111
0.097593688
0.086782164
0.073595862
0.057729653
0.039176301
0.016752651
0.13536879
0.13342669
0.12975405
0.12508631
0.11971991
0.11356862
0.10630505
0.097502984
0.086724146
0.073564805
0.057717433
0.0391738
0.016751672
0.13513776
0.13319797
0.12953323
0.12488148
0.11953937
0.1134187
0.10618905
0.09742088
0.086672766
0.073538197
0.057707602
0.039172123
0.016750759
0.13491596
0.13297874
0.12932242
0.12468722
0.11936971
0.11327943
0.10608281
0.097347033
0.086627687
0.073515764
0.057699983
0.039171197
0.01674991
0.13470374
0.13276933
0.12912186
0.12450365
0.11921087
0.11315062
0.10598603
0.097281085
0.086588568
0.073497233
0.057694406
0.039170954
0.016749126
0.13450139
0.13256998
0.12893171
0.12433079
0.11906274
0.113032
0.10589836
0.097222668
0.086555066
0.073482338
0.057690705
0.039171329
0.016748403
0.13430912
0.13238086
0.12875206
0.12416861
0.11892517
0.11292331
0.10581947
0.097171406
0.086526841
0.073470815
0.057688722
0.03917226
0.01674774
0.13412705
0.13220208
0.12858294
0.12401704
0.11879793
0.11282424
0.10574896
0.097126918
0.086503552
0.073462409
0.057688301
0.039173687
0.016747135
0.13395525
0.13203367
0.12842432
0.12387594
0.11868081
0.11273445
0.10568647
0.09708882
0.086484867
0.07345687
0.057689296
0.039175556
0.016746587
0.13379373
0.13187561
0.12827612
0.12374513
0.11857351
0.11265359
0.10563159
0.097056728
0.086470454
0.073453958
0.057691565
0.039177812
0.016746092
0.13364243
0.13172782
0.1281382
0.1236244
0.11847573
0.11258128
0.10558393
0.09703026
0.086459993
0.073453438
0.057694974
0.039180406
0.016745649
0.13350125
0.13159019
0.12801037
0.1235135
0.11838714
0.11251714
0.10554308
0.097009038
0.08645317
0.073455086
0.057699393
0.03918329
0.016745254
0.13337004
0.13146253
0.12789244
0.12341213
0.1183074
0.11246077
0.10550863
0.09699269
0.086449679
0.073458686
0.057704702
0.03918642
0.016744907
0.13324863
0.13134465
0.12778414
0.12331999
0.11823612
0.11241177
0.10548019
0.09698085
0.086449225
0.073464034
0.057710786
0.039189756
0.016744603
0.13313678
0.1312363
0.12768519
0.12323675
0.11817294
0.11236973
0.10545735
0.096973162
0.086451525
0.073470933
0.057717536
0.039193258
0.016744341
0.13303424
0.13113722
0.12759529
0.12316205
0.11811745
0.11233424
0.10543972
0.09696928
0.086456305
0.073479198
0.057724851
0.039196892
0.016744119
0.13294072
0.1310471
0.12751411
0.12309553
0.11806925
0.1123049
0.10542692
0.09696887
0.086463307
0.073488652
0.057732637
0.039200625
0.016743933
0.13285593
0.13096563
0.1274413
0.12303679
0.11802795
0.11228129
0.10541856
0.096971608
0.086472281
0.073499131
0.057740806
0.039204426
0.016743782
0.13277953
0.13089246
0.12737651
0.12298547
0.11799314
0.11226302
0.10541427
0.096977184
0.086482991
0.07351048
0.057749275
0.039208268
0.016743663
0.13271119
0.13082726
0.12731935
0.12294116
0.11796441
0.11224969
0.10541371
0.096985301
0.086495214
0.073522551
0.05775797
0.039212126
0.016743574
0.13265054
0.13076965
0.12726946
0.12290347
0.11794137
0.11224092
0.10541653
0.096995676
0.08650874
0.073535211
0.057766819
0.039215976
0.016743512
0.13259724
0.13071926
0.12722644
0.122872
0.11792361
0.11223635
0.10542239
0.097008039
0.086523369
0.073548331
0.057775758
0.039219798
0.016743475
0.1325509
0.13067572
0.12718991
0.12284635
0.11791076
0.11223559
0.10543099
0.097022134
0.086538916
0.073561796
0.05778473
0.039223573
0.016743462
0.13251115
0.13063865
0.12715948
0.12282614
0.11790243
0.11223831
0.10544201
0.097037719
0.086555208
0.073575496
0.05779368
0.039227285
0.016743469
0.1324776
0.13060765
0.12713476
0.12281098
0.11789824
0.11224417
0.10545517
0.097054569
0.086572083
0.073589334
0.057802561
0.039230918
0.016743496
0.1324499
0.13058236
0.12711536
0.12280048
0.11789785
0.11225284
0.10547019
0.09707247
0.086589392
0.073603218
0.057811329
0.03923446
0.01674354
0.13242765
0.13056239
0.12710091
0.12279429
0.1179009
0.11226401
0.10548683
0.097091225
0.086606998
0.073617067
0.057819946
0.0392379
0.016743599
0.13241048
0.13054737
0.12709104
0.12279204
0.11790705
0.11227739
0.10550483
0.097110648
0.086624774
0.073630807
0.057828379
0.039241228
0.016743671
0.13239803
0.13053693
0.12708539
0.12279338
0.117916
0.1122927
0.10552397
0.097130568
0.086642605
0.073644372
0.057836597
0.039244436
0.016743756
0.13238994
0.13053072
0.12708359
0.12279797
0.11792742
0.11230967
0.10554403
0.097150828
0.086660387
0.073657701
0.057844576
0.039247519
0.016743851
0.13238585
0.13052837
0.12708531
0.12280549
0.11794103
0.11232806
0.10556482
0.097171283
0.086678024
0.073670742
0.057852289
0.039250454
0.016743955
0.13238542
0.13052956
0.12709022
0.12281562
0.11795655
0.11234763
0.10558615
0.097191797
0.086695428
0.073683446
0.057859713
0.039253225
0.016744066
0.13238832
0.13053394
0.12709798
0.12282808
0.1179737
0.11236816
0.10560785
0.097212249
0.086712522
0.073695767
0.057866813
0.039255842
0.016744183
0.13239422
0.1305412
0.1271083
0.12284256
0.11799226
0.11238944
0.10562976
0.097232528
0.086729236
0.073707667
0.057873576
0.039258309
0.016744304
0.13240281
0.13055103
0.12712088
0.1228588
0.11801196
0.11241128
0.10565174
0.09725253
0.086745501
0.073719093
0.057880008
0.039260628
0.016744428
0.1324138
0.13056314
0.12713543
0.12287655
0.11803261
0.1124335
0.10567365
0.097272166
0.086761264
0.073730032
0.057886105
0.039262801
0.016744555
0.1324269
0.13057725
0.1271517
0.12289556
0.11805398
0.11245595
0.10569536
0.097291349
0.086776458
0.07374048
0.057891865
0.039264831
0.016744683
0.13244183
0.13059308
0.12716942
0.1229156
0.11807589
0.11247845
0.10571678
0.097310001
0.086791064
0.073750423
0.057897287
0.039266722
0.016744812
0.13245835
0.13061039
0.12718836
0.12293647
0.11809816
0.11250089
0.1057378
0.097328057
0.086805062
0.07375985
0.057902373
0.039268478
0.016744941
0.13247621
0.13062895
0.1272083
0.12295796
0.11812063
0.11252313
0.10575831
0.097345482
0.086818427
0.073768758
0.057907127
0.039270101
0.016745069
0.13249518
0.13064852
0.12722902
0.12297988
0.11814313
0.11254504
0.10577825
0.097362235
0.086831142
0.073777143
0.057911552
0.039271595
0.016745196
0.13251504
0.1306689
0.12725034
0.12300207
0.11816553
0.11256652
0.10579757
0.097378282
0.086843191
0.073785005
0.057915655
0.039272964
0.016745321
0.13253561
0.13068989
0.12727206
0.12302437
0.1181877
0.11258751
0.10581621
0.097393594
0.086854567
0.073792347
0.05791944
0.039274211
0.016745444
0.1325567
0.13071132
0.12729402
0.12304662
0.11820954
0.11260792
0.10583413
0.097408153
0.086865267
0.073799175
0.057922916
0.039275339
0.016745563
0.13257813
0.13073302
0.12731608
0.12306872
0.11823096
0.1126277
0.1058513
0.097421946
0.086875292
0.073805497
0.05792609
0.039276354
0.01674568
0.13259976
0.13075484
0.12733809
0.12309056
0.11825188
0.11264679
0.10586768
0.097434967
0.086884651
0.073811326
0.057928975
0.039277259
0.016745792
0.13262143
0.13077664
0.12735996
0.12311204
0.11827224
0.11266516
0.10588327
0.09744722
0.086893356
0.073816678
0.057931582
0.039278062
0.0167459
0.13264304
0.13079833
0.12738157
0.12313308
0.11829198
0.11268278
0.10589806
0.097458714
0.086901425
0.073821573
0.057933926
0.03927877
0.016746004
0.13266447
0.13081978
0.12740282
0.12315362
0.11831106
0.11269963
0.10591204
0.09746946
0.086908878
0.07382603
0.057936024
0.03927939
0.016746104
0.13268561
0.13084089
0.12742365
0.12317358
0.11832942
0.11271568
0.10592523
0.097479474
0.086915736
0.073830072
0.05793789
0.039279929
0.0167462
0.13270637
0.13086159
0.12744395
0.1231929
0.11834704
0.11273092
0.1059376
0.09748877
0.08692202
0.073833716
0.057939539
0.039280393
0.016746292
0.13272666
0.13088178
0.12746368
0.12321153
0.11836387
0.11274533
0.10594918
0.09749736
0.086927746
0.073836981
0.057940981
0.039280787
0.016746379
0.1327464
0.13090138
0.12748275
0.12322943
0.11837989
0.11275891
0.10595997
0.097505254
0.086932928
0.073839878
0.057942225
0.039281113
0.016746462
0.13276551
0.13092034
0.1275011
0.12324653
0.11839507
0.11277164
0.10596995
0.097512463
0.086937579
0.073842417
0.057943277
0.039281372
0.016746541
0.13278395
0.13093859
0.1275187
0.12326282
0.11840939
0.11278351
0.10597914
0.097518996
0.08694171
0.073844609
0.05794414
0.039281564
0.016746615
0.13280166
0.13095609
0.1275355
0.12327826
0.11842284
0.11279453
0.10598756
0.097524869
0.086945337
0.073846463
0.057944822
0.03928169
0.016746683
0.13281862
0.13097281
0.12755149
0.12329285
0.11843542
0.11280471
0.10599521
0.097530107
0.08694848
0.073847996
0.057945329
0.039281753
0.016746746
0.13283481
0.13098875
0.12756666
0.1233066
0.11844716
0.11281409
0.10600214
0.097534744
0.08695117
0.07384923
0.057945675
0.039281758
0.016746803
0.13285022
0.1310039
0.12758102
0.12331951
0.11845808
0.11282269
0.10600839
0.097538822
0.086953445
0.073850193
0.057945879
0.039281714
0.016746855
0.13286487
0.13101827
0.12759458
0.12333162
0.11846821
0.11283058
0.10601401
0.097542393
0.086955349
0.07385092
0.057945964
0.039281633
0.016746902
0.13287874
0.13103186
0.12760736
0.12334296
0.1184776
0.11283778
0.10601905
0.097545508
0.086956928
0.07385145
0.057945955
0.039281527
0.016746946
0.13289185
0.13104468
0.12761936
0.12335354
0.11848628
0.11284435
0.10602356
0.097548213
0.086958226
0.073851815
0.057945876
0.039281408
0.016746986
0.13290418
0.13105672
0.12763059
0.12336337
0.11849427
0.11285031
0.10602757
0.097550543
0.086959273
0.073852043
0.057945743
0.039281283
0.016747024
0.13291571
0.13106796
0.12764104
0.12337246
0.11850157
0.11285567
0.10603109
0.097552514
0.086960086
0.073852145
0.057945566
0.039281155
0.01674706
0.13292641
0.13107839
0.12765069
0.12338078
0.11850818
0.11286044
0.10603413
0.097554126
0.086960664
0.07385212
0.05794534
0.039281019
0.016747094
0.13293626
0.13108796
0.12765951
0.12338831
0.11851407
0.11286458
0.10603667
0.097555365
0.086960994
0.073851955
0.057945054
0.039280867
0.016747125
0.13294525
0.13109668
0.12766749
0.12339505
0.11851923
0.11286809
0.1060387
0.097556214
0.086961055
0.07385163
0.057944691
0.039280687
0.016747153
0.13295338
0.13110455
0.12767463
0.12340099
0.11852366
0.11287097
0.1060402
0.097556659
0.086960832
0.073851127
0.057944232
0.039280465
0.016747176
0.13296069
0.13111159
0.12768096
0.12340616
0.11852739
0.11287324
0.10604119
0.097556706
0.086960323
0.073850437
0.057943668
0.039280196
0.016747194
0.13296725
0.13111789
0.12768656
0.12341063
0.11853048
0.11287494
0.10604171
0.097556387
0.086959546
0.07384957
0.057942999
0.03927988
0.016747205
0.13297315
0.13112352
0.1276915
0.12341448
0.11853301
0.11287616
0.10604184
0.097555764
0.086958549
0.073848557
0.057942247
0.039279525
0.016747211
0.13297851
0.1311286
0.12769591
0.12341783
0.1185351
0.11287701
0.10604168
0.097554925
0.086957405
0.073847451
0.057941444
0.039279152
0.016747212
0.13298343
0.13113325
0.12769989
0.12342079
0.11853686
0.11287761
0.10604134
0.097553972
0.086956198
0.07384632
0.05794064
0.039278787
0.01674721
0.13298799
0.13113753
0.12770354
0.12342348
0.1185384
0.11287807
0.10604093
0.097553006
0.086955018
0.073845236
0.057939883
0.039278456
0.016747207
0.13299223
0.13114152
0.12770692
0.12342595
0.11853981
0.11287846
0.10604053
0.097552104
0.086953934
0.073844256
0.057939214
0.039278181
0.016747206
0.13299614
0.13114519
0.12771004
0.12342821
0.1185411
0.11287883
0.10604017
0.097551305
0.086952984
0.073843413
0.05793866
0.039277974
0.016747208
0.13299967
0.13114851
0.12771284
0.12343025
0.11854224
0.11287913
0.10603984
0.097550599
0.086952164
0.073842707
0.057938221
0.039277833
0.016747214
0.13300271
0.13115137
0.12771525
0.12343196
0.11854315
0.11287931
0.10603947
0.097549925
0.086951427
0.073842104
0.057937871
0.039277743
0.016747223
0.13300514
0.13115366
0.12771714
0.12343323
0.11854371
0.11287925
0.10603896
0.097549188
0.086950688
0.073841536
0.057937563
0.039277674
0.016747235
0.13300687
0.13115527
0.1277184
0.12343395
0.11854382
0.11287882
0.10603818
0.097548273
0.086949846
0.073840917
0.057937232
0.039277589
0.016747245
0.13300784
0.13115614
0.12771897
0.12343403
0.11854337
0.11287792
0.10603702
0.097547074
0.086948801
0.073840164
0.057936817
0.039277452
0.016747252
0.13300806
0.13115627
0.12771882
0.12343346
0.11854233
0.11287651
0.10603543
0.097545524
0.086947485
0.073839213
0.057936267
0.039277236
0.016747252
0.13300762
0.13115574
0.12771803
0.12343227
0.11854073
0.1128746
0.10603341
0.097543613
0.086945879
0.073838041
0.057935559
0.039276927
0.016747244
0.1330067
0.13115472
0.12771675
0.12343061
0.11853869
0.1128723
0.10603104
0.097541403
0.086944023
0.073836668
0.057934708
0.039276541
0.016747227
0.13300551
0.13115341
0.12771517
0.12342867
0.11853639
0.11286978
0.10602848
0.09753902
0.086942017
0.073835169
0.057933766
0.039276111
0.016747202
0.1330043
0.13115207
0.12771355
0.1234267
0.11853408
0.11286724
0.10602592
0.097536642
0.08694001
0.073833664
0.057932821
0.039275689
0.016747174
0.1330033
0.13115091
0.12771211
0.12342491
0.11853197
0.11286492
0.10602357
0.097534461
0.08693817
0.073832292
0.057931972
0.039275331
0.016747146
0.13300266
0.1311501
0.12771103
0.12342349
0.11853024
0.112863
0.10602161
0.097532647
0.086936652
0.073831181