/*--------------------------------*- C++ -*----------------------------------*\
| =========                 |                                                 |
| \\      /  F ield         | OpenFOAM: The Open Source CFD Toolbox           |
|  \\    /   O peration     | Version:  2506                                  |
|   \\  /    A nd           | Website:  www.openfoam.com                      |
|    \\/     M anipulation  |                                                 |
\*---------------------------------------------------------------------------*/
FoamFile
{
    version     2.0;
    format      ascii;
    arch        "LSB;label=32;scalar=64";
    class       volScalarField;
    location    "12000/water";
    object      epsilon;
}
// * * * * * * * * * * * * * * * * * * * * * * * * * * * * * * * * * * * * * //

dimensions      [0 2 -3 0 0 0 0];

internalField   nonuniform List<scalar> 
2600
(
8.8079773e-05
8.8079245e-05
8.8079271e-05
8.807949e-05
8.8079744e-05
8.8080245e-05
8.8082926e-05
8.8104349e-05
8.8272771e-05
8.9512908e-05
9.8428186e-05
0.00017145296
0.0010138716
6.7789348e-05
6.7791881e-05
6.7793339e-05
6.7794963e-05
6.7796901e-05
6.7799886e-05
6.7810178e-05
6.7875511e-05
6.8312468e-05
7.1039872e-05
8.7857083e-05
0.00021159534
0.0014669324
5.3500886e-05
5.3503148e-05
5.3504846e-05
5.3506859e-05
5.3509287e-05
5.3513643e-05
5.3532992e-05
5.3656306e-05
5.4399641e-05
5.8506995e-05
8.1500797e-05
0.00023956052
0.0017068244
4.3127504e-05
4.3128883e-05
4.3130503e-05
4.3132598e-05
4.3135149e-05
4.3140834e-05
4.3171684e-05
4.3362646e-05
4.4413342e-05
4.9710824e-05
7.7552644e-05
0.00025818579
0.0017816909
3.539909e-05
3.5400132e-05
3.5401605e-05
3.5403513e-05
3.5405834e-05
3.5412916e-05
3.5457613e-05
3.5722605e-05
3.7073304e-05
4.3450503e-05
7.5629285e-05
0.00027290618
0.0017622817
2.9510599e-05
2.9511446e-05
2.95127e-05
2.9514227e-05
2.9516143e-05
2.9525119e-05
2.9586798e-05
2.9933924e-05
3.159515e-05
3.9095388e-05
7.5939385e-05
0.00028837858
0.0017002497
2.4935213e-05
2.4935877e-05
2.4936847e-05
2.4937875e-05
2.4939416e-05
2.4951342e-05
2.503458e-05
2.5477125e-05
2.7489448e-05
3.6318413e-05
7.8818158e-05
0.0003073199
0.0016256765
2.1318423e-05
2.1318913e-05
2.1319549e-05
2.132003e-05
2.1321464e-05
2.1338095e-05
2.144948e-05
2.2008273e-05
2.4447975e-05
3.4968795e-05
8.4593389e-05
0.00033066897
0.0015541994
1.8415642e-05
1.8415958e-05
1.8416233e-05
1.8416208e-05
1.8418091e-05
1.8442025e-05
1.8590687e-05
1.9295945e-05
2.2279378e-05
3.5010665e-05
9.3512814e-05
0.00035786641
0.0014930959
1.6054297e-05
1.6054439e-05
1.6054351e-05
1.6053968e-05
1.6057197e-05
1.6092028e-05
1.6290179e-05
1.7183376e-05
2.0872546e-05
3.6486908e-05
0.00010564207
0.00038720676
0.0014449141
1.411016e-05
1.4110129e-05
1.4109712e-05
1.4109249e-05
1.4115119e-05
1.4165612e-05
1.4429188e-05
1.5565379e-05
2.0175367e-05
3.9486471e-05
0.00012074249
0.00041640751
0.0014094648
1.249217e-05
1.2491978e-05
1.249131e-05
1.24912e-05
1.2501471e-05
1.2573786e-05
1.2923263e-05
1.4374121e-05
2.0181311e-05
4.4103574e-05
0.00013819401
0.0004433175
0.0013850187
1.1132483e-05
1.1132152e-05
1.1131368e-05
1.1132227e-05
1.1149209e-05
1.1251189e-05
1.1712642e-05
1.3570321e-05
2.0918928e-05
5.0386672e-05
0.00015703479
0.00046647967
0.0013691707
9.9797899e-06
9.9793621e-06
9.9786681e-06
9.9813266e-06
1.0007987e-05
1.0149541e-05
1.0756002e-05
1.3137755e-05
2.2440689e-05
5.8285038e-05
0.00017613324
0.00048532287
0.0013594869
8.994766e-06
8.994305e-06
8.9939894e-06
8.9995396e-06
9.0396464e-06
9.2332357e-06
1.0026406e-05
1.3079617e-05
2.4808572e-05
6.7609618e-05
0.00019442665
0.00050000486
0.0013539038
8.1468971e-06
8.1464947e-06
8.1469469e-06
8.1567947e-06
8.2150975e-06
8.4763588e-06
9.5087285e-06
1.3415553e-05
2.807526e-05
7.8026841e-05
0.0002111215
0.00051110137
0.0013508788
7.4122408e-06
7.412023e-06
7.4137548e-06
7.4296903e-06
7.5121568e-06
7.8606834e-06
9.1980663e-06
1.4178291e-05
3.2262331e-05
8.9094588e-05
0.00022578146
0.00051932558
0.0013493668
6.7718206e-06
6.7719549e-06
6.7756276e-06
6.7999151e-06
6.9140283e-06
7.3743439e-06
9.0987625e-06
1.5408888e-05
3.7339829e-05
0.00010033156
0.00023829849
0.00052535583
0.0013487149
6.2104575e-06
6.2111621e-06
6.2176208e-06
6.2531142e-06
6.4082476e-06
7.0110033e-06
9.2236697e-06
1.7149875e-05
4.3213605e-05
0.00011129559
0.0002487951
0.00052976262
0.0013485457
5.7159095e-06
5.7174657e-06
5.7277834e-06
5.7780724e-06
5.9859581e-06
6.7693776e-06
9.5932706e-06
1.9436232e-05
4.9726067e-05
0.00012164394
0.00025751549
0.00053299526
0.0013486594
5.2782322e-06
5.2809984e-06
5.2965329e-06
5.3661281e-06
5.6414368e-06
6.6530083e-06
1.0234238e-05
2.228513e-05
5.6672016e-05
0.00013115952
0.00026474159
0.0005353945
0.0013489619
4.889296e-06
4.893728e-06
4.9161934e-06
5.0107595e-06
5.3718124e-06
6.6701645e-06
1.1177042e-05
2.5686553e-05
6.3825678e-05
0.00013974422
0.00027074338
0.00053721257
0.0013494179
4.5424222e-06
4.549097e-06
4.5806559e-06
4.707302e-06
5.1769356e-06
6.8337316e-06
1.2452335e-05
2.9597477e-05
7.097079e-05
0.00014739148
0.0002757568
0.0005386328
0.0013500205
4.2321037e-06
4.2417515e-06
4.2851315e-06
4.4527719e-06
5.0593678e-06
7.1609028e-06
1.4086152e-05
3.394183e-05
7.7925113e-05
0.00015415333
0.00027997823
0.00053978641
0.0013507744
3.9537926e-06
3.9673375e-06
4.0259782e-06
4.2457763e-06
5.0244498e-06
7.6724685e-06
1.6094424e-05
3.8616919e-05
8.4553951e-05
0.00016011197
0.00028356674
0.00054076616
0.0013516866
3.7037376e-06
3.7223496e-06
3.8005873e-06
4.0864974e-06
5.0804009e-06
8.3914976e-06
1.8477844e-05
4.3504911e-05
9.077206e-05
0.00016536002
0.00028664926
0.00054163685
0.0013527623
3.4788613e-06
3.504022e-06
3.6073203e-06
3.9767408e-06
5.2383695e-06
9.3412706e-06
2.1218352e-05
4.8486363e-05
9.6537094e-05
0.00016998886
0.00028932618
0.00054244334
0.0013540034
3.2766694e-06
3.3102566e-06
3.4454921e-06
3.9200366e-06
5.5123349e-06
1.0542478e-05
2.427837e-05
5.3452375e-05
0.00010183911
0.00017408281
0.00029167656
0.00054321637
0.0013554084
3.0951868e-06
3.1395803e-06
3.315394e-06
3.9217755e-06
5.9187331e-06
1.2009945e-05
2.7603266e-05
5.8312862e-05
0.0001066899
0.00017771679
0.00029376257
0.00054397675
0.0013569728
2.9329181e-06
2.991133e-06
3.2183574e-06
3.9893517e-06
6.47568e-06
1.3749403e-05
3.112658e-05
6.3000084e-05
0.00011111418
0.0001809559
0.00029563313
0.00054473837
0.0013586903
2.7888292e-06
2.8646819e-06
3.1568532e-06
4.132263e-06
7.2016967e-06
1.5755029e-05
3.4776807e-05
6.7468124e-05
0.00011514328
0.00018385585
0.00029732665
0.00054550992
0.0013605531
2.6623516e-06
2.7606642e-06
3.1346228e-06
4.362102e-06
8.1139275e-06
1.8008404e-05
3.8484156e-05
7.1689805e-05
0.00011881108
0.00018646428
0.00029887505
0.00054629402
0.0013625491
2.5534088e-06
2.680258e-06
3.1568304e-06
4.6923497e-06
9.22598e-06
2.0479254e-05
4.21859e-05
7.5652556e-05
0.00012215122
0.00018882083
0.00030030032
0.00054708344
0.001364665
2.4624667e-06
2.6254827e-06
3.2302147e-06
5.1378784e-06
1.0545685e-05
2.3127918e-05
4.5829653e-05
7.9354439e-05
0.00012519597
0.00019095973
0.00030162122
0.00054787013
0.0013668874
2.3906118e-06
2.5993266e-06
3.3632046e-06
5.7140891e-06
1.2073206e-05
2.5908985e-05
4.9374528e-05
8.2800768e-05
0.00012797522
0.0001929092
0.00030285018
0.00054865288
0.0013692048
2.3396576e-06
2.6059009e-06
3.5659451e-06
6.4356566e-06
1.3799941e-05
2.8775319e-05
5.2790669e-05
8.6001443e-05
0.00013051585
0.0001946916
0.00030399376
0.00054944273
0.0013716092
2.3122834e-06
2.6506068e-06
3.8501618e-06
7.3149532e-06
1.5708513e-05
3.1681693e-05
5.6057927e-05
8.8969442e-05
0.00013284315
0.00019632773
0.00030505437
0.00055025018
0.0013740956
2.312204e-06
2.7402971e-06
4.2287856e-06
8.3603381e-06
1.7773921e-05
3.4587408e-05
5.9163895e-05
9.1718485e-05
0.000134977
0.0001978295
0.00030604752
0.00055107622
0.0013766577
2.3443664e-06
2.8833943e-06
4.715266e-06
9.5746046e-06
1.9965609e-05
3.7457895e-05
6.2102575e-05
9.4263947e-05
0.00013693775
0.00019920349
0.00030698675
0.00055192215
0.0013792894
2.4151613e-06
3.08991e-06
5.3225444e-06
1.0953905e-05
2.2249993e-05
4.026506e-05
6.4872079e-05
9.6618924e-05
0.00013873802
0.00020046565
0.00030788006
0.00055278756
0.0013819844
2.5326205e-06
3.3712892e-06
6.0617309e-06
1.2487422e-05
2.4593018e-05
4.2987257e-05
6.7474462e-05
9.8797812e-05
0.00014038632
0.00020163083
0.00030873382
0.00055367121
0.0013847362
2.7065545e-06
3.739997e-06
6.940629e-06
1.4157864e-05
2.6962172e-05
4.5608169e-05
6.9912765e-05
0.00010081055
0.00014189658
0.00020271014
0.00030955281
0.00055457138
0.0013875385
2.9485501e-06
4.2087761e-06
7.9623503e-06
1.5942734e-05
2.9328091e-05
4.8116704e-05
7.2192973e-05
0.0001026631
0.00014328329
0.00020371266
0.00031034058
0.00055548595
0.0013903847
3.2717206e-06
4.7895534e-06
9.1242821e-06
1.7815986e-05
3.1665001e-05
5.0504533e-05
7.431848e-05
0.00010436656
0.00014455809
0.0002046458
0.00031109971
0.0005564126
0.0013932686
3.6900856e-06
5.4920728e-06
1.0417683e-05
1.9750012e-05
3.3951699e-05
5.2768183e-05
7.6289668e-05
0.00010593299
0.00014573089
0.00020551555
0.00031183197
0.00055734877
0.0013961839
4.2174845e-06
6.3224277e-06
1.1827951e-05
2.171714e-05
3.6170245e-05
5.4901159e-05
7.8113757e-05
0.00010737249
0.00014680993
0.00020632674
0.00031253851
0.00055829181
0.0013991243
4.8660258e-06
7.2817743e-06
1.3335593e-05
2.3691122e-05
3.8306687e-05
5.6898167e-05
7.9798304e-05
0.00010869389
0.00014780214
0.00020708321
0.00031321994
0.0005592389
0.0014020836
5.6442491e-06
8.3655562e-06
1.4917865e-05
2.564878e-05
4.0344257e-05
5.8760206e-05
8.1350098e-05
0.00010990478
0.00014871321
0.00020778792
0.00031387635
0.00056018712
0.0014050556
6.555359e-06
9.5634596e-06
1.6550685e-05
2.756532e-05
4.227254e-05
6.0488807e-05
8.2775227e-05
0.00011101156
0.00014954782
0.00020844308
0.00031450744
0.0005611334
0.0014080338
7.5961532e-06
1.0860441e-05
1.8207368e-05
2.9419101e-05
4.4084529e-05
6.2085813e-05
8.4079033e-05
0.0001120196
0.00015030968
0.00020905021
0.00031511248
0.00056207452
0.0014110119
8.7563151e-06
1.223555e-05
1.9861231e-05
3.1193216e-05
4.5774964e-05
6.355318e-05
8.5266111e-05
0.00011293328
0.00015100165
0.00020961023
0.00031569037
0.0005630071
0.0014139831
1.0017522e-05
1.3664334e-05
2.1488448e-05
3.2873858e-05
4.7340053e-05
6.4892867e-05
8.6340346e-05
0.00011375612
0.0001516258
0.00021012347
0.00031623965
0.00056392754
0.0014169405
1.1355901e-05
1.5121211e-05
2.3068171e-05
3.4450178e-05
4.8777289e-05
6.6106812e-05
8.7304984e-05
0.00011449085
0.00015218355
0.00021058974
0.00031675851
0.00056483203
0.0014198766
1.2744265e-05
1.6581081e-05
2.4582903e-05
3.5914123e-05
5.0085355e-05
6.7196971e-05
8.8162738e-05
0.00011513953
0.00015267569
0.00021100843
0.00031724482
0.00056571653
0.0014227834
1.4154482e-05
1.8020638e-05
2.6018604e-05
3.7260265e-05
5.1264092e-05
6.8165414e-05
8.8915932e-05
0.0001157037
0.00015310253
0.00021137849
0.00031769616
0.00056657676
0.0014256524
1.5559581e-05
1.9419302e-05
2.7364607e-05
3.8485598e-05
5.231449e-05
6.901445e-05
8.9566666e-05
0.0001161845
0.00015346401
0.0002116986
0.0003181099
0.00056740824
0.0014284744
1.693534e-05
2.0759787e-05
2.8613378e-05
3.9589304e-05
5.323867e-05
6.9746758e-05
9.0116989e-05
0.00011658289
0.00015375983
0.00021196724
0.00031848324
0.00056820636
0.0014312396
1.826127e-05
2.2028326e-05
2.9760207e-05
4.0572479e-05
5.4039843e-05
7.0365497e-05
9.0569079e-05
0.00011689975
0.00015398961
0.00021218284
0.00031881338
0.00056896642
0.0014339377
1.9521049e-05
2.3214636e-05
3.0802836e-05
4.1437842e-05
5.4722228e-05
7.0874393e-05
9.0925393e-05
0.00011713614
0.00015415307
0.00021234391
0.0003190976
0.00056968381
0.0014365579
2.0702516e-05
2.4311689e-05
3.1741086e-05
4.2189436e-05
5.5290938e-05
7.1277773e-05
9.1188792e-05
0.00011729337
0.00015425016
0.00021244916
0.00031933341
0.00057035412
0.0014390893
2.1797371e-05
2.5315354e-05
3.257649e-05
4.2832333e-05
5.5751829e-05
7.1580559e-05
9.1362627e-05
0.00011737319
0.0001542812
0.00021249774
0.00031951874
0.00057097332
0.0014415208
2.2800694e-05
2.6223984e-05
3.3311942e-05
4.3372362e-05
5.6111337e-05
7.1788219e-05
9.1450778e-05
0.00011737787
0.00015424704
0.00021248927
0.00031965201
0.00057153789
0.0014438419
2.3710404e-05
2.7037978e-05
3.3951389e-05
4.3815874e-05
5.6376316e-05
7.1906692e-05
9.1457657e-05
0.00011731022
0.00015414911
0.000212424
0.00031973233
0.00057204498
0.0014460427
2.4526702e-05
2.7759361e-05
3.4499555e-05
4.4169529e-05
5.655387e-05
7.1942283e-05
9.138817e-05
0.00011717368
0.00015398951
0.00021230291
0.00031975954
0.00057249255
0.001448114
2.5251563e-05
2.8391404e-05
3.4961708e-05
4.4440131e-05
5.6651214e-05
7.190156e-05
9.1247656e-05
0.00011697222
0.00015377099
0.00021212768
0.00031973427
0.00057287944
0.0014500481
2.5888279e-05
2.8938287e-05
3.5343456e-05
4.4634487e-05
5.6675546e-05
7.1791236e-05
9.1041804e-05
0.00011671034
0.00015349695
0.00021190076
0.00031965799
0.00057320542
0.0014518386
2.6441083e-05
2.9404818e-05
3.5650593e-05
4.4759304e-05
5.663395e-05
7.1618069e-05
9.0776556e-05
0.00011639299
0.00015317136
0.00021162527
0.00031953295
0.00057347116
0.0014534809
2.6914835e-05
2.9796198e-05
3.5888959e-05
4.4821108e-05
5.6533307e-05
7.1388768e-05
9.0458016e-05
0.00011602548
0.00015279874
0.00021130498
0.00031936213
0.00057367827
0.001454972
2.7314772e-05
3.0117838e-05
3.6064346e-05
4.4826185e-05
5.6380238e-05
7.1109907e-05
9.0092346e-05
0.00011561336
0.000152384
0.0002109442
0.00031914915
0.00057382912
0.0014563107
2.7646312e-05
3.0375212e-05
3.6182417e-05
4.4780538e-05
5.6181061e-05
7.0787859e-05
8.9685682e-05
0.00011516233
0.00015193235
0.00021054765
0.00031889814
0.00057392682
0.0014574977
2.7914912e-05
3.0573746e-05
3.6248645e-05
4.4689865e-05
5.5941755e-05
7.0428744e-05
8.9244051e-05
0.00011467816
0.0001514492
0.00021012035
0.00031861365
0.00057397502
0.0014585352
2.8125956e-05
3.071874e-05
3.6268274e-05
4.4559537e-05
5.5667948e-05
7.0038382e-05
8.8773301e-05
0.00011416657
0.00015094006
0.00020966751
0.00031830046
0.00057397786
0.001459427
2.8284674e-05
3.0815302e-05
3.6246293e-05
4.4394595e-05
5.5364899e-05
6.9622266e-05
8.8279043e-05
0.00011363314
0.00015041038
0.00020919438
0.0003179635
0.00057393973
0.0014601782
2.8396092e-05
3.0868312e-05
3.6187413e-05
4.4199746e-05
5.5037504e-05
6.918554e-05
8.7766602e-05
0.00011308327
0.00014986551
0.00020870616
0.0003176077
0.00057386522
0.0014607952
2.8464991e-05
3.0882398e-05
3.609606e-05
4.3979367e-05
5.4690292e-05
6.8732984e-05
8.7240982e-05
0.00011252209
0.00014931061
0.00020820789
0.00031723788
0.00057375895
0.0014612852
2.8495888e-05
3.0861915e-05
3.5976373e-05
4.3737513e-05
5.4327437e-05
6.8269014e-05
8.670684e-05
0.00011195443
0.00014875053
0.00020770438
0.00031685865
0.00057362548
0.0014616561
2.8493022e-05
3.0810942e-05
3.5832202e-05
4.3477922e-05
5.3952763e-05
6.7797675e-05
8.6168469e-05
0.00011138475
0.00014818983
0.00020720011
0.00031647437
0.00057346923
0.0014619164
2.8460351e-05
3.073328e-05
3.5667116e-05
4.320403e-05
5.3569757e-05
6.7322651e-05
8.5629786e-05
0.00011081715
0.00014763269
0.00020669923
0.00031608903
0.00057329437
0.0014620747
2.8401556e-05
3.0632455e-05
3.5484411e-05
4.2918984e-05
5.3181586e-05
6.6847272e-05
8.5094335e-05
0.00011025536
0.0001470829
0.00020620547
0.00031570627
0.0005731048
0.0014621401
2.8320042e-05
3.0511726e-05
3.5287117e-05
4.2625648e-05
5.2791107e-05
6.6374524e-05
8.4565288e-05
0.00010970271
0.00014654385
0.00020572216
0.00031532932
0.00057290412
0.0014621214
2.8218952e-05
3.0374093e-05
3.5078008e-05
4.2326627e-05
5.2400887e-05
6.5907065e-05
8.4045455e-05
0.00010916211
0.0001460185
0.00020525221
0.000314961
0.00057269558
0.0014620274
2.8101173e-05
3.0222312e-05
3.4859621e-05
4.2024272e-05
5.2013214e-05
6.5447243e-05
8.3537294e-05
0.00010863613
0.00014550942
0.00020479809
0.00031460373
0.00057248208
0.0014618664
2.7969352e-05
3.0058897e-05
3.4634257e-05
4.1720697e-05
5.1630117e-05
6.4997107e-05
8.304293e-05
0.00010812695
0.00014501878
0.00020436188
0.00031425951
0.00057226619
0.0014616468
2.7825904e-05
2.9886145e-05
3.4404005e-05
4.1417797e-05
5.1253382e-05
6.4558429e-05
8.2564174e-05
0.0001076364
0.00014454836
0.00020394524
0.00031392998
0.00057205015
0.0014613763
2.7673028e-05
2.9706138e-05
3.4170744e-05
4.1117254e-05
5.0884564e-05
6.4132721e-05
8.2102536e-05
0.00010716597
0.00014409958
0.0002035495
0.00031361641
0.00057183581
0.0014610622
2.7512722e-05
2.9520761e-05
3.3936165e-05
4.0820557e-05
5.0525009e-05
6.3721255e-05
8.1659253e-05
0.00010671686
0.00014367355
0.00020317562
0.00031331982
0.00057162456
0.0014607111
2.7346788e-05
2.9331713e-05
3.3701777e-05
4.0529013e-05
5.0175863e-05
6.3325077e-05
8.1235302e-05
0.00010628996
0.00014327105
0.00020282425
0.00031304073
0.00057141646
0.0014603286
2.7176854e-05
2.9140518e-05
3.346892e-05
4.0243759e-05
4.9838094e-05
6.294503e-05
8.0831434e-05
0.00010588593
0.00014289262
0.0002024959
0.00031277955
0.00057120931
0.0014599198
2.7004378e-05
2.8948541e-05
3.323878e-05
3.9965776e-05
4.9512498e-05
6.2581767e-05
8.0448179e-05
0.00010550518
0.0001425385
0.00020219044
0.00031253535
0.00057100469
0.0014594897
2.6830667e-05
2.8756994e-05
3.3012395e-05
3.96959e-05
4.9199723e-05
6.2235778e-05
8.0085896e-05
0.00010514794
0.00014220886
0.00020190801
0.00031230611
0.00057080569
0.0014590437
2.6656882e-05
2.8566951e-05
3.2790671e-05
3.9434836e-05
4.8900276e-05
6.1907397e-05
7.9744768e-05
0.00010481424
0.00014190343
0.00020164698
0.00031209274
0.00057061388
0.0014585868
2.6484053e-05
2.8379356e-05
3.257439e-05
3.9183166e-05
4.8614538e-05
6.1596822e-05
7.9424814e-05
0.00010450388
0.0001416217
0.00020140637
0.00031189572
0.00057043039
0.0014581235
2.6313086e-05
2.8195034e-05
3.2364221e-05
3.8941362e-05
4.8342784e-05
6.1304144e-05
7.9125967e-05
0.00010421665
0.00014136219
0.00020118619
0.00031171517
0.000570256
0.0014576577
2.6144776e-05
2.8014705e-05
3.216073e-05
3.87098e-05
4.8085184e-05
6.1029337e-05
7.8847982e-05
0.00010395152
0.00014112444
0.0002009861
0.00031155092
0.00057009118
0.0014571929
2.5979816e-05
2.7838984e-05
3.1964389e-05
3.8488762e-05
4.784182e-05
6.0772271e-05
7.8590329e-05
0.00010370763
0.00014090796
0.00020080562
0.0003114026
0.0005699362
0.0014567322
2.5818803e-05
2.7668399e-05
3.1775583e-05
3.8278455e-05
4.7612702e-05
6.05327e-05
7.8352148e-05
0.00010348448
0.00014071214
0.00020064411
0.00031126973
0.00056979115
0.0014562782
2.5662251e-05
2.7503398e-05
3.1594631e-05
3.8079032e-05
4.7397755e-05
6.0309953e-05
7.8132955e-05
0.00010328146
0.00014053627
0.00020050083
0.00031115171
0.00056965599
0.0014558334
2.5510599e-05
2.734436e-05
3.1421799e-05
3.7890533e-05
4.7196572e-05
6.010364e-05
7.7932202e-05
0.00010309787
0.00014037955
0.00020037495
0.00031104784
0.00056953057
0.0014553994
2.5364228e-05
2.7191605e-05
3.1257213e-05
3.7712811e-05
4.7008898e-05
5.9913325e-05
7.7749289e-05
0.00010293298
0.00014024113
0.0002002656
0.00031095741
0.00056941469
0.0014549782
2.5223417e-05
2.7045323e-05
3.1100917e-05
3.7545751e-05
4.6834439e-05
5.9738537e-05
7.7583568e-05
0.00010278597
0.0001401201
0.00020017186
0.00031087964
0.00056930806
0.0014545709
2.5088369e-05
2.6905648e-05
3.0952919e-05
3.7389206e-05
4.6672872e-05
5.9578766e-05
7.7434358e-05
0.00010265603
0.00014001554
0.00020009279
0.00031081375
0.00056921038
0.0014541786
2.4959232e-05
2.6772671e-05
3.0813193e-05
3.7242996e-05
4.652384e-05
5.9433474e-05
7.7300946e-05
0.00010254228
0.00013992649
0.00020002745
0.00031075894
0.00056912129
0.0014538024
2.4836112e-05
2.664644e-05
3.0681678e-05
3.7106911e-05
4.6386959e-05
5.9302097e-05
7.7182597e-05
0.00010244386
0.00013985199
0.00019997487
0.00031071444
0.00056904044
0.0014534427
2.4719073e-05
2.6526969e-05
3.055828e-05
3.6980713e-05
4.6261823e-05
5.9184052e-05
7.707856e-05
0.00010235988
0.00013979109
0.00019993413
0.00031067945
0.00056896744
0.0014531002
2.4608144e-05
2.6414236e-05
3.0442879e-05
3.6864139e-05
4.6148005e-05
5.9078737e-05
7.6988074e-05
0.00010228945
0.00013974282
0.0001999043
0.00031065324
0.0005689019
0.0014527751
2.4503322e-05
2.6308192e-05
3.0335325e-05
3.6756906e-05
4.6045058e-05
5.898554e-05
7.6910372e-05
0.00010223168
0.00013970626
0.00019988447
0.00031063504
0.00056884343
0.0014524677
2.4404576e-05
2.6208761e-05
3.0235448e-05
3.6658709e-05
4.5952525e-05
5.8903842e-05
7.6844689e-05
0.00010218571
0.00013968048
0.00019987378
0.00031062417
0.00056879163
0.0014521779
2.4311848e-05
2.6115839e-05
3.0143054e-05
3.656923e-05
4.5869935e-05
5.8833018e-05
7.6790263e-05
0.00010215068
0.00013966458
0.00019987138
0.00031061993
0.00056874613
0.0014519058
2.4225058e-05
2.6029306e-05
3.0057934e-05
3.6488135e-05
4.5796813e-05
5.8772444e-05
7.6746342e-05
0.00010212574
0.00013965772
0.00019987646
0.00031062168
0.00056870654
0.0014516511
2.4144106e-05
2.5949019e-05
2.9979861e-05
3.6415078e-05
4.5732674e-05
5.8721498e-05
7.6712182e-05
0.00010211007
0.00013965904
0.00019988826
0.0003106288
0.00056867249
0.0014514137
2.406887e-05
2.5874819e-05
2.9908595e-05
3.6349708e-05
4.5677036e-05
5.8679566e-05
7.668706e-05
0.00010210289
0.00013966775
0.00019990605
0.00031064071
0.00056864362
0.0014511932
2.3999215e-05
2.5806531e-05
2.9843883e-05
3.6291665e-05
4.5629413e-05
5.8646039e-05
7.6670267e-05
0.00010210342
0.00013968308
0.00019992912
0.00031065685
0.00056861958
0.0014509893
2.393499e-05
2.5743971e-05
2.9785465e-05
3.6240583e-05
4.5589323e-05
5.8620321e-05
7.6661113e-05
0.00010211093
0.0001397043
0.00019995683
0.00031067671
0.00056860003
0.0014508015
2.3876031e-05
2.5686938e-05
2.9733072e-05
3.6196097e-05
4.555629e-05
5.8601828e-05
7.6658934e-05
0.0001021247
0.00013973073
0.00019998855
0.00031069981
0.00056858463
0.0014506293
2.3822164e-05
2.5635227e-05
2.9686429e-05
3.615784e-05
4.5529842e-05
5.858999e-05
7.6663086e-05
0.00010214407
0.00013976171
0.00020002372
0.00031072568
0.00056857308
0.0014504722
2.3773205e-05
2.5588623e-05
2.9645257e-05
3.6125446e-05
4.5509515e-05
5.8584254e-05
7.6672951e-05
0.0001021684
0.00013979662
0.00020006179
0.00031075391
0.00056856506
0.0014503297
2.3728964e-05
2.5546905e-05
2.9609275e-05
3.609855e-05
4.5494858e-05
5.8584086e-05
7.6687937e-05
0.00010219707
0.00013983488
0.00020010225
0.00031078411
0.00056856028
0.0014502012
2.3689242e-05
2.5509847e-05
2.95782e-05
3.6076795e-05
4.5485426e-05
5.8588969e-05
7.6707481e-05
0.0001022295
0.00013987595
0.00020014465
0.0003108159
0.00056855846
0.001450086
2.3653838e-05
2.5477221e-05
2.955175e-05
3.6059826e-05
4.5480789e-05
5.8598405e-05
7.6731043e-05
0.00010226517
0.00013991933
0.00020018856
0.00031084896
0.00056855933
0.0014499836
2.3622545e-05
2.5448796e-05
2.9529645e-05
3.6047297e-05
4.5480532e-05
5.8611921e-05
7.6758115e-05
0.00010230355
0.00013996455
0.00020023357
0.00031088297
0.00056856262
0.0014498933
2.3595156e-05
2.5424342e-05
2.9511606e-05
3.6038868e-05
4.5484251e-05
5.862906e-05
7.6788215e-05
0.00010234418
0.00014001118
0.00020027933
0.00031091765
0.00056856809
0.0014498145
2.3571462e-05
2.5403626e-05
2.9497359e-05
3.603421e-05
4.5491559e-05
5.864939e-05
7.682089e-05
0.00010238661
0.00014005881
0.0002003255
0.00031095274
0.00056857551
0.0014497465
2.3551252e-05
2.5386421e-05
2.9486635e-05
3.6033e-05
4.5502083e-05
5.8672501e-05
7.6855714e-05
0.00010243043
0.00014010708
0.00020037178
0.00031098801
0.00056858466
0.0014496888
2.3534319e-05
2.5372497e-05
2.9479169e-05
3.603493e-05
4.5515468e-05
5.8698006e-05
7.689229e-05
0.00010247526
0.00014015566
0.0002004179
0.00031102324
0.00056859533
0.0014496406
2.3520454e-05
2.5361632e-05
2.9474705e-05
3.6039699e-05
4.5531377e-05
5.8725538e-05
7.6930247e-05
0.00010252075
0.00014020424
0.00020046361
0.00031105824
0.00056860732
0.0014496013
2.3509455e-05
2.5353605e-05
2.9472991e-05
3.6047021e-05
4.5549485e-05
5.8754754e-05
7.6969242e-05
0.00010256659
0.00014025254
0.0002005087
0.00031109283
0.00056862044
0.0014495703
2.3501118e-05
2.5348202e-05
2.9473786e-05
3.605662e-05
4.556949e-05
5.8785334e-05
7.7008958e-05
0.00010261247
0.00014030032
0.00020055297
0.00031112687
0.00056863453
0.0014495471
2.3495248e-05
2.5345211e-05
2.9476854e-05
3.6068234e-05
4.5591103e-05
5.8816978e-05
7.7049102e-05
0.00010265815
0.00014034736
0.00020059625
0.00031116022
0.00056864941
0.001449531
2.3491651e-05
2.534443e-05
2.9481972e-05
3.6081611e-05
4.5614055e-05
5.884941e-05
7.7089407e-05
0.00010270337
0.00014039347
0.0002006384
0.00031119275
0.00056866493
0.0014495215
2.349014e-05
2.534566e-05
2.9488922e-05
3.6096515e-05
4.5638092e-05
5.8882372e-05
7.7129632e-05
0.00010274792
0.00014043846
0.00020067927
0.00031122437
0.00056868095
0.001449518
2.3490533e-05
2.5348711e-05
2.9497497e-05
3.6112722e-05
4.566298e-05
5.891563e-05
7.7169555e-05
0.00010279162
0.0001404822
0.00020071876
0.00031125499
0.00056869733
0.0014495199
2.3492653e-05
2.5353399e-05
2.9507501e-05
3.613002e-05
4.5688498e-05
5.8948968e-05
7.7208978e-05
0.0001028343
0.00014052454
0.00020075679
0.00031128452
0.00056871396
0.0014495268
2.3496332e-05
2.5359549e-05
2.9518747e-05
3.6148212e-05
4.5714445e-05
5.8982189e-05
7.7247726e-05
0.00010287581
0.0001405654
0.00020079327
0.00031131292
0.00056873073
0.0014495382
2.3501407e-05
2.5366992e-05
2.9531057e-05
3.6167114e-05
4.5740634e-05
5.9015117e-05
7.7285641e-05
0.00010291602
0.00014060466
0.00020082815
0.00031134012
0.00056874752
0.0014495535
2.3507721e-05
2.5375569e-05
2.9544264e-05
3.6186552e-05
4.5766895e-05
5.9047592e-05
7.7322587e-05
0.00010295484
0.00014064227
0.00020086137
0.00031136609
0.00056876426
0.0014495724
2.3515127e-05
2.5385128e-05
2.9558213e-05
3.6206368e-05
4.5793071e-05
5.9079472e-05
7.7358444e-05
0.00010299217
0.00014067816
0.00020089292
0.0003113908
0.00056878084
0.0014495944
2.3523482e-05
2.5395524e-05
2.9572755e-05
3.6226414e-05
4.5819023e-05
5.911063e-05
7.739311e-05
0.00010302794
0.0001407123
0.00020092277
0.00031141424
0.0005687972
0.0014496191
2.3532653e-05
2.5406624e-05
2.9587756e-05
3.6246556e-05
4.5844623e-05
5.9140958e-05
7.74265e-05
0.00010306209
0.00014074465
0.00020095091
0.00031143638
0.00056881325
0.0014496461
2.3542515e-05
2.5418299e-05
2.9603086e-05
3.6266671e-05
4.586976e-05
5.917036e-05
7.7458542e-05
0.00010309458
0.0001407752
0.00020097734
0.00031145723
0.00056882882
0.0014496749
2.3552947e-05
2.5430431e-05
2.961863e-05
3.6286647e-05
4.5894331e-05
5.9198753e-05
7.748918e-05
0.00010312538
0.00014080395
0.00020100208
0.00031147678
0.00056884364
0.0014497052
2.356384e-05
2.544291e-05
2.963428e-05
3.6306383e-05
4.5918251e-05
5.9226071e-05
7.7518371e-05
0.00010315447
0.00014083089
0.00020102514
0.00031149498
0.00056885768
0.0014497366
2.3575088e-05
2.5455633e-05
2.9649936e-05
3.6325789e-05
4.5941443e-05
5.9252259e-05
7.7546084e-05
0.00010318186
0.00014085607
0.00020104655
0.0003115117
0.00056887107
0.0014497689
2.3586597e-05
2.5468506e-05
2.966551e-05
3.6344785e-05
4.5963843e-05
5.9277271e-05
7.7572299e-05
0.00010320753
0.00014087947
0.00020106629
0.00031152701
0.00056888386
0.0014498018
2.3598277e-05
2.5481442e-05
2.9680921e-05
3.6363302e-05
4.5985397e-05
5.9301075e-05
7.759701e-05
0.00010323153
0.00014090116
0.00020108431
0.00031154102
0.00056889609
0.0014498351
2.3610045e-05
2.5494362e-05
2.9696096e-05
3.6381277e-05
4.600606e-05
5.9323651e-05
7.7620218e-05
0.00010325385
0.0001409211
0.00020110069
0.00031155379
0.00056890778
0.0014498685
2.3621828e-05
2.5507194e-05
2.9710971e-05
3.6398659e-05
4.6025799e-05
5.9344983e-05
7.7641931e-05
0.00010327453
0.00014093931
0.00020111553
0.0003115654
0.00056891892
0.001449902
2.3633557e-05
2.5519873e-05
2.9725489e-05
3.6415405e-05
4.6044587e-05
5.9365071e-05
7.7662171e-05
0.00010329354
0.00014095586
0.00020112889
0.0003115759
0.00056892953
0.0014499353
2.3645171e-05
2.5532341e-05
2.9739601e-05
3.643148e-05
4.606241e-05
5.9383919e-05
7.7680925e-05
0.00010331093
0.00014097082
0.00020114085
0.00031158534
0.00056893959
0.0014499682
2.3656614e-05
2.5544548e-05
2.9753264e-05
3.6446855e-05
4.6079259e-05
5.940152e-05
7.769821e-05
0.00010332676
0.00014098426
0.00020115148
0.00031159379
0.00056894911
0.0014500007
2.3667838e-05
2.555645e-05
2.9766446e-05
3.6461512e-05
4.609512e-05
5.9417871e-05
7.7714065e-05
0.00010334109
0.00014099625
0.00020116086
0.0003116013
0.00056895808
0.0014500325
2.3678801e-05
2.5568008e-05
2.9779118e-05
3.647543e-05
4.6109984e-05
5.9432995e-05
7.7728534e-05
0.00010335398
0.00014100687
0.00020116904
0.0003116079
0.0005689665
0.0014500635
2.3689465e-05
2.557919e-05
2.9791252e-05
3.648859e-05
4.6123854e-05
5.9446919e-05
7.7741666e-05
0.0001033655
0.00014101619
0.00020117611
0.00031161365
0.00056897438
0.0014500937
2.3699798e-05
2.5589966e-05
2.9802825e-05
3.6500986e-05
4.6136743e-05
5.9459675e-05
7.7753512e-05
0.0001033757
0.00014102427
0.00020118212
0.00031161861
0.00056898173
0.001450123
2.3709769e-05
2.5600308e-05
2.981382e-05
3.6512614e-05
4.6148666e-05
5.9471299e-05
7.7764125e-05
0.00010338466
0.0001410312
0.00020118715
0.00031162282
0.00056898856
0.0014501512
2.3719353e-05
2.5610196e-05
2.9824227e-05
3.6523478e-05
4.6159645e-05
5.948183e-05
7.7773563e-05
0.00010339244
0.00014103704
0.00020119126
0.00031162634
0.0005689949
0.0014501784
2.3728529e-05
2.5619613e-05
2.9834038e-05
3.6533587e-05
4.6169705e-05
5.9491312e-05
7.7781881e-05
0.00010339912
0.00014104187
0.00020119453
0.00031162921
0.00056900076
0.0014502046
2.3737282e-05
2.5628549e-05
2.9843251e-05
3.6542951e-05
4.6178874e-05
5.9499788e-05
7.778914e-05
0.00010340475
0.00014104576
0.00020119701
0.00031163149
0.00056900617
0.0014502296
2.3745598e-05
2.5636995e-05
2.9851869e-05
3.6551587e-05
4.6187182e-05
5.9507304e-05
7.7795397e-05
0.00010340941
0.00014104877
0.00020119877
0.00031163322
0.00056901113
0.0014502535
2.3753471e-05
2.5644948e-05
2.9859897e-05
3.6559511e-05
4.6194661e-05
5.9513907e-05
7.780071e-05
0.00010341317
0.00014105097
0.00020119986
0.00031163443
0.00056901567
0.0014502762
2.3760895e-05
2.5652407e-05
2.9867343e-05
3.6566744e-05
4.6201347e-05
5.9519645e-05
7.7805139e-05
0.00010341608
0.00014105242
0.00020120034
0.00031163518
0.00056901978
0.0014502976
2.3767869e-05
2.5659374e-05
2.9874218e-05
3.657331e-05
4.6207275e-05
5.9524566e-05
7.7808739e-05
0.0001034182
0.00014105318
0.00020120026
0.00031163548
0.00056902345
0.0014503178
2.3774394e-05
2.5665856e-05
2.9880536e-05
3.6579232e-05
4.6212482e-05
5.9528719e-05
7.7811569e-05
0.00010341961
0.00014105332
0.00020119967
0.00031163536
0.00056902669
0.0014503367