/*--------------------------------*- C++ -*----------------------------------*\
| =========                 |                                                 |
| \\      /  F ield         | OpenFOAM: The Open Source CFD Toolbox           |
|  \\    /   O peration     | Version:  2506                                  |
|   \\  /    A nd           | Website:  www.openfoam.com                      |
|    \\/     M anipulation  |                                                 |
\*---------------------------------------------------------------------------*/
FoamFile
{
    version     2.0;
    format      ascii;
    arch        "LSB;label=32;scalar=64";
    class       volScalarField;
    location    "12000/water";
    object      k;
}
// * * * * * * * * * * * * * * * * * * * * * * * * * * * * * * * * * * * * * //

dimensions      [0 2 -2 0 0 0 0];

internalField   nonuniform List<scalar> 
2600
(
0.0001992401
0.00019923925
0.00019923929
0.00019923963
0.00019923982
0.00019923914
0.00019923438
0.00019921375
0.00019914651
0.00019904325
0.00019990841
0.00021454267
0.00040955349
0.00017237279
0.00017237614
0.00017237826
0.00017238051
0.0001723821
0.00017237949
0.00017235884
0.00017227555
0.000172027
0.00017162102
0.00017329371
0.00020304806
0.00052391648
0.00015132731
0.00015133049
0.00015133306
0.00015133552
0.00015133516
0.00015132207
0.00015126283
0.00015106462
0.00015055477
0.00014985944
0.0001528957
0.00019760629
0.00057958156
0.00013448336
0.00013448533
0.00013448764
0.00013448905
0.00013448325
0.00013445009
0.00013432997
0.00013398205
0.00013321503
0.00013247936
0.00013787909
0.00019702317
0.00059640815
0.00012075551
0.00012075697
0.00012075853
0.00012075718
0.00012074152
0.0001206782
0.00012048052
0.00011997843
0.0001190486
0.00011870929
0.00012776334
0.00020116854
0.00059206885
0.0001093899
0.00010939088
0.000109391
0.00010938492
0.00010935483
0.00010925313
0.00010897207
0.00010834649
0.00010742643
0.0001080609
0.00012226457
0.00021023394
0.00057809221
9.984982e-05
9.9850093e-05
9.9847944e-05
9.9835056e-05
9.9786463e-05
9.9641865e-05
9.9284958e-05
9.859999e-05
9.7925044e-05
0.00010022517
0.00012123091
0.00022425603
0.00056106272
9.1744874e-05
9.174416e-05
9.1738826e-05
9.1717148e-05
9.1647174e-05
9.1460104e-05
9.1049018e-05
9.0398665e-05
9.0258419e-05
9.5030413e-05
0.00012461431
0.00024286356
0.00054449405
8.4785472e-05
8.4783454e-05
8.4774018e-05
8.4741918e-05
8.4649457e-05
8.4426122e-05
8.3996574e-05
8.3502376e-05
8.4241543e-05
9.2421343e-05
0.00013239492
0.00026511347
0.00053012765
7.8752977e-05
7.8749319e-05
7.8734951e-05
7.8691403e-05
7.8577619e-05
7.8330528e-05
7.7932172e-05
7.7743318e-05
7.9771153e-05
9.2438123e-05
0.00014444361
0.00028951151
0.0005186607
7.3479682e-05
7.3474066e-05
7.3454131e-05
7.3398964e-05
7.3267704e-05
7.3016085e-05
7.2712929e-05
7.3009357e-05
7.6815021e-05
9.5182833e-05
0.00016036324
0.00031428525
0.00051014247
6.8835097e-05
6.8827266e-05
6.8801436e-05
6.8735571e-05
6.8593744e-05
6.836405e-05
6.8235745e-05
6.9234209e-05
7.5403716e-05
0.00010076472
0.00017939076
0.00033780739
0.0005042266
6.4716374e-05
6.4706175e-05
6.4674551e-05
6.4600233e-05
6.4458202e-05
6.4284863e-05
6.4429045e-05
6.6391811e-05
7.5619872e-05
0.0001092241
0.00020043528
0.00035894529
0.00050037283
6.1041501e-05
6.1028932e-05
6.0992164e-05
6.091321e-05
6.0785257e-05
6.0711783e-05
6.1247563e-05
6.4493003e-05
7.7580807e-05
0.00012045028
0.00022225715
0.00037717552
0.0004980107
5.7744396e-05
5.7729653e-05
5.7689074e-05
5.7611142e-05
5.751606e-05
5.7596592e-05
5.8669223e-05
6.3582872e-05
8.1411587e-05
0.00013412437
0.00024370832
0.00039247762
0.00049664628
5.4771313e-05
5.4754847e-05
5.4712615e-05
5.4643526e-05
5.4605384e-05
5.4906753e-05
5.6693486e-05
6.3736861e-05
8.7208043e-05
0.00014971788
0.00026392364
0.00040513366
0.00049590625
5.2078186e-05
5.206076e-05
5.2020025e-05
5.1970154e-05
5.2019282e-05
5.2623661e-05
5.5340604e-05
6.5053658e-05
9.4994185e-05
0.00016655656
0.0002823955
0.00041554871
0.00049553614
4.9628636e-05
4.9611393e-05
4.9576492e-05
4.9559258e-05
4.9733503e-05
5.0741692e-05
5.4651195e-05
6.7643172e-05
0.00010468473
0.00018392817
0.00029893687
0.00042413794
0.00049537652
4.7392458e-05
4.7377004e-05
4.7353699e-05
4.7386176e-05
4.773248e-05
4.9267885e-05
5.4685329e-05
7.1608743e-05
0.00011606686
0.00020119288
0.00031358495
0.0004312733
0.0004953351
4.5344476e-05
4.5332971e-05
4.5328746e-05
4.5432431e-05
4.600877e-05
4.8222045e-05
5.5520138e-05
7.7024462e-05
0.0001288111
0.00021785898
0.00032650009
0.00043726613
0.00049536294
4.3463657e-05
4.3458933e-05
4.3483358e-05
4.3685127e-05
4.4562868e-05
4.7637065e-05
5.7244888e-05
8.3911106e-05
0.00014251076
0.00023360813
0.00033789056
0.00044236711
0.00049543702
4.1732429e-05
4.173814e-05
4.1803329e-05
4.2136614e-05
4.3403329e-05
4.7559127e-05
5.9952699e-05
9.2216774e-05
0.00015673762
0.00024827797
0.00034796834
0.00044677301
0.00049554866
4.0136167e-05
4.015697e-05
4.0278148e-05
4.0784372e-05
4.2547129e-05
4.8047288e-05
6.3728702e-05
0.00010180889
0.00017109624
0.00026182259
0.0003569282
0.00045063571
0.00049569617
3.8662802e-05
3.8704582e-05
3.8900797e-05
3.9631107e-05
4.2020194e-05
4.9171841e-05
6.8635431e-05
0.00011248166
0.0001852623
0.00027427018
0.00036494028
0.00045407114
0.00049588069
3.7302531e-05
3.7372692e-05
3.7667676e-05
3.8685008e-05
4.1857944e-05
5.1010817e-05
7.4697747e-05
0.00012397798
0.00019899861
0.00028568912
0.00037214923
0.00045716736
0.00049610392
3.6047628e-05
3.6155447e-05
3.6578682e-05
3.7960181e-05
4.2105652e-05
5.3644138e-05
8.1890767e-05
0.00013601989
0.00021215193
0.00029616534
0.00037867608
0.00045999117
0.00049636709
3.4892327e-05
3.5049398e-05
3.5637398e-05
3.7477201e-05
4.2818254e-05
5.7145345e-05
9.0134489e-05
0.00014833915
0.00022463802
0.00030578893
0.00038462123
0.0004625934
0.00049667064
3.383279e-05
3.4053569e-05
3.4851411e-05
3.7263736e-05
4.4059203e-05
6.1571463e-05
9.9297381e-05
0.00016070076
0.00023642316
0.00031464714
0.00039006764
0.00046501299
0.00049701416
3.2867148e-05
3.316962e-05
3.4232754e-05
3.7355161e-05
4.589791e-05
6.6952452e-05
0.00010920861
0.00017291579
0.00024750737
0.00032282077
0.00039508379
0.00046727996
0.00049739654
3.1995627e-05
3.2402111e-05
3.3798454e-05
3.7794962e-05
4.8405427e-05
7.3282436e-05
0.00011967597
0.00018484396
0.00025791153
0.00033038288
0.00039972633
0.00046941774
0.00049781615
3.1220754e-05
3.1758868e-05
3.3571166e-05
3.8634688e-05
5.1648299e-05
8.0515034e-05
0.00013050501
0.00019638896
0.00026766839
0.00033739835
0.00040404224
0.00047144508
0.00049827105
3.0547674e-05
3.1251458e-05
3.3579859e-05
3.9933128e-05
5.5680955e-05
8.8564412e-05
0.00014151526
0.0002074904
0.00027681665
0.00034392427
0.00040806987
0.00047336165
0.00049875826
2.9984563e-05
3.0895778e-05
3.3860461e-05
4.1754322e-05
6.0537583e-05
9.7312151e-05
0.00015255089
0.00021811501
0.00028539698
0.00035000997
0.00041183983
0.00047517683
0.00049927448
2.9543172e-05
3.071274e-05
3.4456303e-05
4.416415e-05
6.6225005e-05
0.00010661843
0.0001634853
0.00022824915
0.00029345001
0.00035569879
0.00041537498
0.00047690098
0.00049981638
2.9239498e-05
3.072904e-05
3.5418149e-05
4.7225364e-05
7.2718216e-05
0.00011633497
0.00017422102
0.00023789273
0.00030101459
0.00036102773
0.000418694
0.00047854313
0.00050038114
2.9094595e-05
3.0977952e-05
3.6803502e-05
5.0991334e-05
7.9959884e-05
0.00012631696
0.00018468652
0.00024705469
0.00030812684
0.00036602759
0.00042181619
0.0004801151
0.00050096676
2.9135496e-05
3.1500046e-05
3.8674861e-05
5.549919e-05
8.7864166e-05
0.00013643209
0.00019483196
0.00025575015
0.00031482084
0.00037072328
0.00042475509
0.00048162855
0.00050157201
2.9396231e-05
3.2343669e-05
4.1096632e-05
6.0763505e-05
9.6324075e-05
0.00014656574
0.00020462432
0.0002639967
0.00032112526
0.00037513788
0.00042753008
0.00048308916
0.00050219529
2.9918841e-05
3.3564909e-05
4.4130586e-05
6.6771886e-05
0.00010522079
0.00015662302
0.00021404418
0.00027181505
0.00032706606
0.00037928747
0.00043015898
0.00048450266
0.00050283511
3.0754241e-05
3.5226725e-05
4.7830033e-05
7.3483555e-05
0.00011443287
0.00016652783
0.00022308101
0.00027922363
0.00033266467
0.00038319522
0.0004326545
0.00048587308
0.00050348988
3.1962695e-05
3.7396842e-05
5.2233349e-05
8.0831457e-05
0.00012384408
0.00017622136
0.00023173237
0.0002862417
0.00033793723
0.00038688253
0.00043502773
0.00048720352
0.00050415803
3.3613504e-05
4.0144091e-05
5.7357849e-05
8.8727395e-05
0.00013334837
0.00018565851
0.00023999855
0.00029288457
0.00034290599
0.00039036649
0.00043728791
0.00048849634
0.00050483797
3.5783408e-05
4.3533075e-05
6.3195312e-05
9.7069234e-05
0.00014285306
0.00019480683
0.00024788468
0.00029916231
0.0003475933
0.00039366187
0.00043944269
0.00048975325
0.00050552812
3.855307e-05
4.7617436e-05
6.971012e-05
0.00010574827
0.00015227865
0.00020364078
0.00025539329
0.00030509328
0.00035201758
0.00039678117
0.00044149842
0.00049097545
0.00050622692
4.2001157e-05
5.2432566e-05
7.6840723e-05
0.00011465641
0.00016156001
0.00021214494
0.00026252193
0.00031069682
0.00035619499
0.00039973504
0.0004434603
0.00049216367
0.00050693283
4.6195921e-05
5.7988965e-05
8.4503817e-05
0.0001236906
0.00017064178
0.00022029901
0.00026928193
0.00031598928
0.00036013924
0.00040253237
0.00044533252
0.00049331826
0.00050764432
5.1185017e-05
6.4267711e-05
9.2600634e-05
0.00013275649
0.00017947938
0.00022808588
0.00027568469
0.00032098502
0.00036386201
0.00040518055
0.00044711835
0.00049443921
0.00050835988
5.6985356e-05
7.1219286e-05
0.00010102456
0.00014177164
0.00018802207
0.00023550302
0.00028174029
0.00032569629
0.00036737302
0.00040768555
0.00044882025
0.00049552614
0.00050907799
6.3575469e-05
7.8766071e-05
0.00010966806
0.000150651
0.00019623699
0.00024254863
0.00028745744
0.00033013329
0.00037068022
0.00041005204
0.00045043986
0.00049657835
0.00050979712
7.0893471e-05
8.6809013e-05
0.00011841798
0.00015932162
0.00020409988
0.00024922137
0.00029284334
0.00033430425
0.00037378982
0.00041228346
0.0004519781
0.00049759482
0.0005105157
7.8838247e-05
9.5225361e-05
0.00012716546
0.00016772587
0.0002115905
0.00025551997
0.00029790356
0.00033821552
0.00037670646
0.00041438211
0.00045343516
0.00049857417
0.00051123213
8.727173e-05
0.00010388137
0.00013581415
0.00017581505
0.0002186919
0.00026144295
0.00030264212
0.00034187165
0.00037943322
0.00041634917
0.00045481053
0.00049951468
0.00051194472
9.6036175e-05
0.00011264288
0.00014427884
0.00018354849
0.00022538997
0.00026698861
0.00030706158
0.00034527554
0.00038197179
0.00041818476
0.00045610302
0.0005004143
0.00051265168
0.0001049681
0.00012138217
0.00015248588
0.000190893
0.00023167333
0.00027215516
0.00031116331
0.00034842864
0.0003843226
0.00041988807
0.00045731082
0.00050127063
0.00051335112
0.00011391059
0.00012998322
0.00016037325
0.00019782235
0.00023753333
0.00027694108
0.00031494781
0.00035133128
0.00038648498
0.00042145743
0.00045843154
0.00050208095
0.000514041
0.00012272249
0.00013834518
0.00016789035
0.00020431695
0.00024296424
0.00028134552
0.00031841515
0.00035398296
0.00038845747
0.00042289052
0.00045946232
0.00050284227
0.00051471912
0.00013128389
0.00014638429
0.00017499755
0.00021036347
0.00024796342
0.00028536876
0.00032156551
0.0003563828
0.00039023809
0.00042418456
0.00046039999
0.00050355142
0.00051538316
0.00013949845
0.00015403431
0.0001816656
0.00021595444
0.00025253143
0.00028901263
0.00032439961
0.00035852997
0.00039182473
0.00042533658
0.00046124119
0.00050420511
0.00051603068
0.00014729307
0.00016124586
0.00018787485
0.00022108784
0.00025667213
0.00029228087
0.00032691922
0.00036042417
0.00039321549
0.00042634371
0.00046198265
0.00050480012
0.00051665911
0.00015461614
0.00016798502
0.00019361431
0.0002257666
0.00026039251
0.00029517938
0.00032912753
0.00036206602
0.00039440909
0.00042720349
0.0004626214
0.00050533341
0.00051726586
0.0001614347
0.00017423147
0.00019888063
0.00022999798
0.0002637026
0.00029771634
0.00033102951
0.00036345745
0.00039540521
0.00042791421
0.00046315498
0.00050580232
0.00051784835
0.00016773144
0.00017997643
0.00020367705
0.00023379304
0.0002666151
0.00029990219
0.00033263198
0.00036460198
0.00039620482
0.00042847515
0.00046358173
0.0005062047
0.00051840409
0.00017350168
0.00018522059
0.00020801228
0.000237166
0.00026914509
0.00030174948
0.00033394379
0.00036550485
0.00039681039
0.00042888684
0.00046390097
0.00050653907
0.00051893073
0.00017875062
0.00018997217
0.00021189951
0.00024013366
0.00027130963
0.0003032727
0.00033497567
0.00036617318
0.00039722604
0.00042915122
0.00046411313
0.00050680477
0.00051942616
0.00018349099
0.00019424527
0.00021535542
0.0002427148
0.00027312734
0.00030448801
0.00033574017
0.00036661585
0.00039745757
0.00042927174
0.00046421986
0.00050700197
0.00051988855
0.000187741
0.00019805831
0.00021839937
0.00024492975
0.00027461803
0.00030541288
0.00033625141
0.00036684346
0.00039751248
0.00042925335
0.00046422412
0.00050713178
0.00052031644
0.00019152277
0.00020143281
0.00022105258
0.00024679982
0.00027580231
0.00030606584
0.00033652481
0.00036686813
0.0003973998
0.00042910247
0.00046413005
0.0005071962
0.00052070875
0.00019486098
0.00020439242
0.00022333759
0.00024834698
0.0002767013
0.00030646611
0.00033657686
0.00036670326
0.00039712998
0.00042882686
0.00046394299
0.00050719808
0.00052106481
0.00019778189
0.00020696202
0.00022527765
0.00024959349
0.0002773363
0.00030663334
0.0003364248
0.00036636328
0.00039671462
0.00042843543
0.00046366927
0.00050714105
0.00052138439
0.00020031252
0.00020916713
0.0002268963
0.0002505616
0.00027772855
0.00030658731
0.00033608631
0.00036586337
0.00039616623
0.00042793807
0.0004633161
0.00050702938
0.00052166766
0.00020248007
0.00021103339
0.00022821707
0.0002512733
0.000277899
0.00030634771
0.00033557929
0.00036521919
0.00039549801
0.00042734537
0.00046289135
0.00050686789
0.00052191519
0.00020431149
0.00021258619
0.00022926314
0.00025175016
0.00027786816
0.00030593394
0.0003349216
0.00036444662
0.00039472353
0.0004266684
0.00046240335
0.00050666175
0.00052212791
0.00020583311
0.00021385036
0.00023005714
0.00025201315
0.0002776559
0.00030536489
0.00033413082
0.00036356148
0.00039385654
0.0004259185
0.0004618607
0.00050641639
0.00052230707
0.00020707043
0.00021484997
0.00023062102
0.00025208248
0.00027728141
0.00030465884
0.00033322408
0.00036257939
0.00039291068
0.00042510702
0.00046127207
0.00050613733
0.0005224542
0.00020804796
0.00021560816
0.00023097586
0.00025197759
0.00027676302
0.00030383331
0.00033221792
0.0003615155
0.00039189934
0.00042424513
0.00046064605
0.00050583009
0.00052257101
0.00020878908
0.00021614706
0.00023114185
0.000251717
0.0002761182
0.00030290499
0.00033112812
0.00036038436
0.00039083541
0.00042334366
0.00045999096
0.00050550001
0.00052265943
0.00020931602
0.00021648772
0.00023113817
0.0002513183
0.00027536347
0.00030188965
0.00032996964
0.00035919981
0.00038973121
0.00042241297
0.00045931473
0.00050515225
0.00052272147
0.00020964976
0.00021665004
0.000230983
0.00025079809
0.0002745144
0.0003008021
0.00032875654
0.00035797488
0.00038859832
0.00042146276
0.00045862484
0.00050479164
0.00052275922
0.00020981007
0.00021665279
0.00023069346
0.00025017201
0.00027358556
0.00029965618
0.00032750192
0.00035672169
0.00038744753
0.00042050209
0.00045792819
0.00050442266
0.0005227748
0.00020981551
0.00021651358
0.00023028564
0.00024945468
0.00027259052
0.00029846472
0.00032621789
0.00035545142
0.00038628875
0.00041953923
0.00045723108
0.0005040494
0.00052277034
0.0002096834
0.0002162489
0.00022977458
0.00024865975
0.00027154189
0.00029723956
0.00032491558
0.0003541743
0.00038513102
0.00041858166
0.00045653917
0.00050367553
0.00052274792
0.00020942993
0.0002158741
0.00022917428
0.00024779991
0.0002704513
0.00029599156
0.00032360511
0.0003528996
0.00038398246
0.00041763608
0.00045585747
0.00050330432
0.00052270957
0.00020907011
0.00021540348
0.00022849778
0.00024688687
0.00026932945
0.00029473061
0.00032229566
0.00035163564
0.00038285029
0.00041670838
0.00045519037
0.00050293862
0.00052265722
0.00020861788
0.00021485029
0.00022775713
0.00024593145
0.00026818611
0.00029346567
0.00032099543
0.00035038979
0.00038174088
0.00041580365
0.0004545416
0.00050258085
0.00052259273
0.00020808612
0.00021422676
0.00022696343
0.00024494357
0.00026703018
0.00029220483
0.00031971176
0.00034916853
0.0003806597
0.00041492626
0.0004539143
0.00050223306
0.00052251785
0.00020748671
0.00021354418
0.00022612692
0.0002439323
0.00026586971
0.00029095528
0.00031845107
0.00034797749
0.00037961146
0.00041407984
0.00045331096
0.00050189549
0.00052243414
0.00020683057
0.00021281291
0.00022525696
0.00024290589
0.00026471197
0.00028972343
0.00031721899
0.00034682149
0.00037860004
0.00041326725
0.00045273329
0.00050156785
0.00052234294
0.00020612772
0.00021204245
0.00022436209
0.00024187182
0.00026356343
0.00028851492
0.00031602037
0.00034570457
0.00037762866
0.00041249078
0.00045218169
0.00050125104
0.00052224545
0.00020538731
0.00021124146
0.00022345008
0.00024083683
0.00026242987
0.00028733464
0.00031485931
0.00034463004
0.00037669977
0.00041175186
0.00045165679
0.00050094656
0.00052214287
0.0002046177
0.00021041784
0.00022252797
0.00023980696
0.00026131637
0.00028618682
0.00031373928
0.00034360064
0.0003758153
0.00041105098
0.00045115882
0.00050065636
0.0005220365
0.00020382645
0.00020957872
0.0002216021
0.00023878761
0.00026022738
0.00028507507
0.00031266309
0.00034261837
0.00037497621
0.00041038837
0.00045068901
0.00050038144
0.00052192751
0.00020302046
0.00020873057
0.00022067817
0.00023778355
0.00025916676
0.0002840024
0.00031163295
0.00034168463
0.00037418296
0.00040976431
0.00045024819
0.00050012254
0.00052181697
0.00020220589
0.00020787921
0.00021976125
0.00023679897
0.00025813783
0.00028297129
0.00031065056
0.00034080016
0.00037343529
0.00040917945
0.00044983678
0.00049988005
0.00052170582
0.00020138834
0.00020702983
0.00021885586
0.00023583754
0.00025714337
0.00028198369
0.00030971697
0.00033996493
0.00037273356
0.00040863395
0.00044945478
0.00049965414
0.00052159491
0.00020057277
0.00020618707
0.00021796597
0.00023490243
0.00025618568
0.00028104102
0.0003088326
0.00033917889
0.00037207785
0.00040812763
0.00044910195
0.00049944476
0.00052148497
0.00019976363
0.00020535505
0.00021709508
0.00023399633
0.00025526663
0.0002801442
0.00030799733
0.00033844216
0.00037146787
0.00040765999
0.00044877778
0.00049925168
0.00052137663
0.00019896485
0.0002045374
0.00021624621
0.00023312152
0.00025438757
0.00027929335
0.00030721134
0.00033775445
0.00037090304
0.00040723028
0.0004484816
0.00049907457
0.00052127043
0.0001981799
0.00020373729
0.00021542201
0.00023227977
0.00025354912
0.00027848889
0.00030647453
0.00033711523
0.00037038249
0.00040683753
0.00044821255
0.00049891295
0.00052116685
0.00019741184
0.0002029575
0.0002146245
0.00023147226
0.000252752
0.00027773092
0.00030578647
0.00033652365
0.00036990516
0.00040648061
0.00044796967
0.00049876631
0.00052106628
0.00019666321
0.00020220023
0.00021385536
0.00023070006
0.00025199666
0.0002770193
0.0003051465
0.00033597869
0.00036946978
0.00040615824
0.00044775189
0.00049863405
0.00052096903
0.00019593612
0.00020146734
0.00021311598
0.00022996399
0.00025128329
0.00027635365
0.00030455375
0.00033547909
0.00036907492
0.00040586901
0.00044755808
0.00049851553
0.00052087537
0.0001952324
0.00020076041
0.00021240748
0.00022926461
0.00025061185
0.00027573334
0.00030400713
0.00033502345
0.00036871904
0.00040561146
0.00044738704
0.00049841008
0.00052078552
0.00019455354
0.00020008074
0.00021173073
0.00022860224
0.00024998208
0.00027515759
0.00030350541
0.00033461025
0.0003684005
0.00040538404
0.00044723756
0.00049831703
0.00052069963
0.00019390081
0.00019942936
0.00021108636
0.00022797699
0.00024939353
0.00027462542
0.0003030472
0.00033423784
0.00036811758
0.00040518517
0.00044710839
0.00049823567
0.00052061782
0.0001932752
0.00019880708
0.00021047477
0.00022738876
0.00024884557
0.00027413571
0.000302631
0.00033390449
0.00036786851
0.00040501324
0.00044699829
0.0004981653
0.00052054018
0.00019267749
0.00019821448
0.0002098962
0.00022683729
0.00024833741
0.00027368721
0.00030225521
0.00033360839
0.00036765149
0.00040486662
0.00044690602
0.00049810523
0.00052046673
0.00019210823
0.00019765194
0.00020935065
0.00022632213
0.00024786815
0.00027327857
0.00030191814
0.00033334771
0.00036746468
0.00040474372
0.00044683036
0.00049805477
0.00052039751
0.00019156782
0.00019711967
0.00020883798
0.00022584272
0.00024743672
0.00027290834
0.00030161805
0.00033312058
0.00036730627
0.00040464294
0.00044677009
0.00049801326
0.0005203325
0.00019105643
0.0001966177
0.00020835791
0.00022539832
0.00024704199
0.00027257499
0.00030135316
0.00033292509
0.00036717444
0.00040456269
0.00044672407
0.00049798003
0.00052027166
0.0001905741
0.0001961459
0.00020790999
0.00022498813
0.00024668273
0.00027227693
0.00030112166
0.00033275936
0.0003670674
0.00040450147
0.00044669114
0.00049795446
0.00052021493
0.00019012073
0.00019570401
0.00020749368
0.0002246112
0.00024635761
0.00027201255
0.0003009217
0.00033262152
0.00036698337
0.00040445775
0.00044667021
0.00049793593
0.00052016224
0.00018969606
0.00019529164
0.0002071083
0.00022426652
0.00024606528
0.00027178017
0.00030075147
0.00033250969
0.00036692064
0.00040443011
0.00044666023
0.00049792386
0.00052011351
0.00018929972
0.00019490829
0.00020675309
0.00022395301
0.0002458043
0.00027157811
0.00030060912
0.00033242206
0.00036687752
0.00040441715
0.00044666018
0.00049791769
0.00052006862
0.00018893124
0.00019455336
0.00020642721
0.00022366949
0.00024557323
0.00027140469
0.00030049284
0.00033235683
0.00036685239
0.00040441752
0.0004466691
0.00049791686
0.00052002747
0.00018859004
0.00019422615
0.00020612972
0.00022341477
0.00024537057
0.0002712582
0.00030040086
0.00033231225
0.00036684367
0.00040442994
0.00044668607
0.00049792088
0.00051998993
0.00018827545
0.00019392588
0.00020585964
0.00022318759
0.00024519483
0.00027113697
0.0003003314
0.00033228663
0.00036684985
0.00040445317
0.00044671022
0.00049792924
0.00051995587
0.00018798674
0.00019365171
0.00020561593
0.00022298667
0.0002450445
0.00027103932
0.00030028276
0.00033227831
0.00036686948
0.00040448605
0.00044674071
0.00049794149
0.00051992515
0.0001877231
0.00019340275
0.00020539749
0.0002228107
0.00024491805
0.00027096361
0.00030025326
0.00033228573
0.00036690116
0.00040452747
0.00044677675
0.00049795717
0.00051989763
0.00018748366
0.00019317803
0.00020520321
0.00022265835
0.00024481399
0.00027090823
0.00030024127
0.00033230734
0.00036694357
0.00040457638
0.00044681762
0.00049797588
0.00051987315
0.00018726752
0.00019297657
0.00020503193
0.0002225283
0.00024473083
0.0002708716
0.00030024522
0.00033234169
0.00036699545
0.00040463178
0.00044686262
0.00049799721
0.00051985156
0.00018707371
0.00019279733
0.0002048825
0.00022241921
0.0002446671
0.00027085217
0.00030026361
0.00033238738
0.00036705561
0.00040469274
0.0004469111
0.0004980208
0.00051983272
0.00018690127
0.00019263927
0.00020475372
0.00022232975
0.00024462136
0.00027084847
0.00030029497
0.0003324431
0.00036712293
0.00040475838
0.00044696246
0.00049804631
0.00051981647
0.00018674917
0.00019250131
0.00020464441
0.00022225863
0.00024459221
0.00027085905
0.00030033792
0.00033250757
0.00036719634
0.0004048279
0.00044701613
0.0004980734
0.00051980266
0.00018661639
0.00019238237
0.0002045534
0.00022220454
0.00024457827
0.00027088252
0.00030039114
0.00033257963
0.00036727486
0.00040490054
0.0004470716
0.00049810179
0.00051979114
0.00018650191
0.00019228138
0.00020447951
0.00022216623
0.00024457822
0.00027091756
0.00030045336
0.00033265814
0.00036735756
0.00040497558
0.00044712838
0.00049813119
0.00051978175
0.00018640467
0.00019219724
0.00020442158
0.00022214245
0.00024459078
0.00027096289
0.00030052339
0.00033274206
0.00036744359
0.00040505239
0.00044718604
0.00049816134
0.00051977436
0.00018632365
0.00019212888
0.00020437847
0.000222132
0.0002446147
0.00027101731
0.00030060011
0.00033283041
0.00036753215
0.00040513037
0.00044724416
0.00049819202
0.00051976881
0.00018625781
0.00019207524
0.00020434905
0.00022213371
0.0002446488
0.00027107966
0.00030068247
0.00033292228
0.0003676225
0.00040520896
0.00044730239
0.000498223
0.00051976496
0.00018620613
0.00019203528
0.00020433225
0.00022214645
0.00024469196
0.00027114886
0.00030076947
0.00033301681
0.00036771396
0.00040528768
0.00044736039
0.00049825408
0.00051976269
0.0001861676
0.00019200795
0.00020432699
0.00022216914
0.00024474308
0.00027122387
0.00030086019
0.00033311324
0.00036780592
0.00040536605
0.00044741785
0.00049828508
0.00051976185
0.00018614124
0.00019199227
0.00020433225
0.00022220073
0.00024480115
0.00027130375
0.00030095377
0.00033321083
0.00036789782
0.00040544369
0.00044747451
0.00049831583
0.00051976231
0.00018612608
0.00019198724
0.00020434703
0.00022224022
0.0002448652
0.00027138757
0.00030104942
0.00033330893
0.00036798913
0.00040552022
0.00044753012
0.00049834619
0.00051976396
0.00018612119
0.00019199193
0.00020437037
0.00022228667
0.00024493431
0.00027147452
0.00030114641
0.00033340694
0.0003680794
0.00040559532
0.00044758447
0.00049837603
0.00051976668
0.00018612565
0.00019200542
0.00020440136
0.00022233917
0.00024500763
0.0002715638
0.00030124406
0.00033350431
0.00036816823
0.00040566871
0.00044763738
0.00049840524
0.00051977035
0.00018613858
0.00019202683
0.00020443913
0.00022239687
0.00024508435
0.00027165469
0.00030134176
0.00033360056
0.00036825526
0.00040574012
0.0004476887
0.00049843371
0.00051977486
0.00018615915
0.00019205532
0.00020448284
0.00022245896
0.00024516372
0.00027174654
0.00030143896
0.00033369525
0.00036834015
0.00040580936
0.00044773827
0.00049846135
0.00051978011
0.00018618653
0.00019209007
0.00020453169
0.0002225247
0.00024524506
0.00027183873
0.00030153516
0.000333788
0.00036842264
0.00040587623
0.000447786
0.0004984881
0.00051978601
0.00018621995
0.00019213032
0.00020458494
0.00022259337
0.00024532772
0.00027193072
0.0003016299
0.00033387846
0.00036850248
0.00040594058
0.00044783178
0.00049851377
0.00051979246
0.00018625866
0.00019217533
0.00020464188
0.00022266431
0.00024541111
0.000272022
0.00030172278
0.00033396633
0.00036857947
0.00040600228
0.00044787551
0.00049853819
0.00051979936
0.00018630196
0.00019222442
0.00020470185
0.00022273692
0.00024549469
0.00027211211
0.00030181346
0.00033405135
0.00036865344
0.00040606121
0.00044791704
0.0004985613
0.0005198066
0.00018634919
0.00019227692
0.00020476424
0.00022281062
0.00024557796
0.00027220066
0.00030190161
0.00033413331
0.00036872424
0.00040611729
0.0004479563
0.00049858312
0.00051981411
0.00018639971
0.00019233223
0.00020482845
0.00022288489
0.00024566048
0.00027228729
0.00030198698
0.00033421203
0.00036879177
0.0004061704
0.00044799321
0.00049860371
0.00051982183
0.00018645294
0.00019238978
0.00020489397
0.00022295926
0.00024574185
0.00027237167
0.00030206933
0.00033428736
0.00036885592
0.00040622047
0.00044802782
0.00049862312
0.00051982969
0.00018650832
0.00019244903
0.00020496029
0.0002230333
0.00024582172
0.00027245354
0.00030214849
0.00033435918
0.00036891661
0.00040626745
0.00044806018
0.00049864137
0.00051983764
0.00018656534
0.00019250948
0.00020502697
0.00022310661
0.00024589976
0.00027253267
0.00030222428
0.00033442739
0.00036897376
0.00040631139
0.00044809035
0.0004986585
0.00051984564
0.00018662352
0.00019257068
0.00020509358
0.00022317884
0.00024597569
0.00027260885
0.00030229659
0.0003344919
0.00036902735
0.00040635235
0.00044811838
0.00049867453
0.00051985365
0.00018668243
0.00019263222
0.00020515976
0.00022324968
0.00024604929
0.00027268193
0.00030236531
0.00033455263
0.00036907743
0.00040639039
0.00044814432
0.00049868948
0.00051986161
0.00018674166
0.0001926937
0.00020522517
0.00022331886
0.00024612035
0.00027275176
0.00030243033
0.00033460958
0.00036912404
0.00040642557
0.00044816824
0.00049870338
0.00051986948
0.00018680085
0.00019275479
0.0002052895
0.00022338613
0.00024618869
0.00027281822
0.0003024916
0.00033466279
0.00036916724
0.00040645796
0.00044819019
0.00049871624
0.00051987724
0.00018685966
0.00019281518
0.0002053525
0.00022345129
0.00024625416
0.0002728812
0.00030254911
0.00033471231
0.00036920713
0.00040648766
0.00044821023
0.00049872809
0.00051988485
0.0001869178
0.00019287459
0.00020541393
0.00022351415
0.00024631662
0.00027294066
0.00030260289
0.0003347582
0.00036924377
0.00040651473
0.00044822843
0.00049873895
0.00051989227
0.000186975
0.00019293277
0.00020547357
0.00022357454
0.00024637598
0.0002729966
0.00030265299
0.00033480055
0.00036927728
0.00040653928
0.00044824485
0.00049874884
0.00051989948
0.00018703102
0.00019298951
0.00020553125
0.00022363235
0.0002464322
0.00027304903
0.00030269948
0.00033483944
0.00036930775
0.00040656141
0.00044825958
0.00049875781
0.00051990647
0.00018708565
0.0001930446
0.0002055868
0.00022368748
0.00024648526
0.00027309799
0.00030274242
0.00033487501
0.00036933533
0.00040658123
0.00044827269
0.00049876591
0.00051991322
0.0001871387
0.00019309788
0.00020564012
0.00022373988
0.00024653515
0.00027314352
0.00030278194
0.00033490736
0.00036936013
0.00040659887
0.00044828429
0.00049877318
0.00051991971
0.00018719002
0.00019314921
0.0002056911
0.0002237895
0.00024658189
0.00027318571
0.00030281812
0.00033493664
0.00036938229
0.00040661445
0.00044829447
0.00049877968
0.00051992595
0.00018723945
0.00019319849
0.00020573967
0.00022383632
0.00024662551
0.00027322462
0.00030285109
0.00033496297
0.00036940195
0.00040662808
0.00044830333
0.00049878547
0.00051993193
0.0001872869
0.0001932456
0.00020578577
0.00022388032
0.00024666606
0.00027326035
0.00030288097
0.00033498649
0.00036941924
0.0004066399
0.00044831095
0.0004987906
0.00051993763
0.00018733226
0.00019329048
0.00020582937
0.00022392152
0.00024670357
0.00027329298
0.00030290787
0.00033500733
0.00036943429
0.00040664999
0.00044831741
0.00049879509
0.00051994306
0.00018737547
0.00019333307
0.00020587043
0.00022395993
0.00024673812
0.00027332261
0.0003029319
0.00033502561
0.0003694472
0.00040665845
0.00044832276
0.00049879896
0.00051994819
0.00018741646
0.00019337332
0.00020590894
0.00022399558
0.00024676977
0.00027334934
0.00030295318
0.00033504143
0.00036945809
0.00040666536
0.00044832704
0.00049880221
0.00051995303