/*--------------------------------*- C++ -*----------------------------------*\
| =========                 |                                                 |
| \\      /  F ield         | OpenFOAM: The Open Source CFD Toolbox           |
|  \\    /   O peration     | Version:  2506                                  |
|   \\  /    A nd           | Website:  www.openfoam.com                      |
|    \\/     M anipulation  |                                                 |
\*---------------------------------------------------------------------------*/
FoamFile
{
    version     2.0;
    format      ascii;
    arch        "LSB;label=32;scalar=64";
    class       volVectorField;
    location    "12000/water";
    object      U;
}
// * * * * * * * * * * * * * * * * * * * * * * * * * * * * * * * * * * * * * //

dimensions      [0 1 -1 0 0 0 0];

internalField   nonuniform List<vector> 
2600
(
(0.2509291 -6.6886033e-05 -2.431638e-18)
(0.25093316 -0.00014739222 -3.6669989e-18)
(0.25094167 -0.00023143146 -8.6613158e-19)
(0.2509543 -0.00031980044 -9.5297363e-19)
(0.25097092 -0.0004082391 -3.0525193e-19)
(0.25099124 -0.00049673666 5.0380495e-20)
(0.25101467 -0.0005856609 -1.4039247e-19)
(0.25103908 -0.00067482201 -2.0027492e-19)
(0.25105541 -0.00075972197 -2.3036253e-19)
(0.25102652 -0.00083857781 -1.0386598e-19)
(0.25079811 -0.00098580402 3.9372396e-20)
(0.24954942 -0.001485464 -2.391e-19)
(0.2411817 0.0014904344 -4.8323386e-19)
(0.25290631 -5.2391824e-05 -3.2073955e-18)
(0.25291356 -0.00012867936 -4.4340971e-18)
(0.25292967 -0.00020232594 -1.4886508e-18)
(0.25295369 -0.00027812692 -9.9046488e-19)
(0.25298503 -0.00035187867 -2.3221411e-19)
(0.25302278 -0.00042368282 2.1505589e-19)
(0.25306456 -0.0004936843 -1.1587363e-19)
(0.25310219 -0.00056251339 -2.5230721e-19)
(0.25310631 -0.00062550536 -3.5297703e-19)
(0.25297401 -0.00066089399 -2.2371117e-19)
(0.25231856 -0.00068576655 -6.0505137e-20)
(0.24919071 -0.0011507908 -3.7548561e-19)
(0.23317376 0.00055016191 -5.2082228e-19)
(0.25485703 -5.0201261e-05 6.9576005e-19)
(0.25486389 -0.00012463928 -7.4513972e-19)
(0.2548791 -0.00019574884 -1.6391357e-18)
(0.2549016 -0.00026956178 -5.8416037e-20)
(0.25493052 -0.00034177627 9.3295715e-20)
(0.25496396 -0.00041257844 1.13935e-19)
(0.25499618 -0.00048173979 8.2841051e-20)
(0.25500857 -0.00054996705 2.9986049e-19)
(0.25494172 -0.0006163767 2.2850793e-19)
(0.2546073 -0.0006602417 -1.2490707e-19)
(0.25332071 -0.00063871076 -1.2499204e-19)
(0.2478214 -0.00092597142 -3.9911896e-19)
(0.22526486 0.00012340436 -5.4201689e-19)
(0.25664521 -4.9743849e-05 4.5227491e-18)
(0.25665224 -0.00012488064 1.3076187e-18)
(0.2566674 -0.00019721364 2.4939967e-19)
(0.2566896 -0.0002720698 5.4080693e-20)
(0.25671747 -0.00034495172 -6.4655893e-20)
(0.25674738 -0.00041609227 -9.0142722e-20)
(0.25676826 -0.0004848948 -1.0348936e-20)
(0.25674667 -0.00055096518 2.2789838e-19)
(0.25658539 -0.00061444887 4.6182887e-20)
(0.2559957 -0.0006636637 -5.7426227e-20)
(0.2539403 -0.00063277351 -1.1061277e-19)
(0.24583249 -0.00077044467 -3.7743637e-19)
(0.21800982 -5.9385922e-05 -4.9636295e-19)
(0.25841323 -4.8556775e-05 7.6204754e-19)
(0.2584204 -0.00012219546 1.0573276e-18)
(0.25843571 -0.00019301892 6.8195326e-19)
(0.25845781 -0.00026625064 -2.8402633e-19)
(0.25848442 -0.00033744492 1.7636061e-19)
(0.25850914 -0.00040689654 9.6343131e-20)
(0.25851346 -0.00047389151 2.6075645e-20)
(0.25844542 -0.0005370587 -1.36709e-19)
(0.25816424 -0.00059536593 1.5874279e-20)
(0.25726648 -0.00064373127 -9.4769059e-20)
(0.25431322 -0.00061442321 -1.4992447e-19)
(0.24352458 -0.00065114414 -2.3678022e-19)
(0.21163262 -0.00012321892 -4.6555874e-19)
(0.26015467 -4.709344e-05 -4.6717236e-19)
(0.26016187 -0.0001185153 1.798534e-18)
(0.26017704 -0.0001870764 8.1631762e-19)
(0.2601984 -0.00025799462 9.790277e-19)
(0.26022227 -0.00032687702 3.9622921e-19)
(0.26023853 -0.00039398781 3.4675965e-19)
(0.26021927 -0.00045855461 1.4364318e-19)
(0.26009115 -0.00051865148 -8.7447218e-20)
(0.25966515 -0.00057157394 -1.3283269e-19)
(0.2584067 -0.0006148087 -1.0393642e-19)
(0.25443266 -0.00058544056 -1.8600263e-19)
(0.24102793 -0.0005571206 3.7997906e-20)
(0.20612335 -0.00013293671 -3.7374001e-19)
(0.26183846 -4.5390268e-05 3.1925985e-19)
(0.26184561 -0.00011435405 7.1238679e-19)
(0.26186042 -0.00018050108 1.2062895e-18)
(0.26188043 -0.00024892327 1.3311853e-18)
(0.26190008 -0.00031528561 3.3158171e-19)
(0.26190445 -0.00037977027 2.7928085e-19)
(0.26185458 -0.00044151446 1.6111494e-19)
(0.2616533 -0.00049832849 8.1733246e-21)
(0.26105826 -0.00054618084 -3.7464864e-19)
(0.25938354 -0.00058222647 -1.6750997e-19)
(0.25426994 -0.00054801504 -1.159014e-19)
(0.23842933 -0.00047868139 -5.1717466e-20)
(0.20141646 -0.00011963306 -3.557013e-19)
(0.26345768 -4.3664882e-05 -8.2937892e-19)
(0.26346469 -0.00011008558 -1.6406855e-18)
(0.26347885 -0.00017377013 -6.0885232e-20)
(0.26349678 -0.00023963045 4.5150896e-20)
(0.26351051 -0.00030340684 1.0099391e-19)
(0.26349932 -0.00036518044 -8.463069e-20)
(0.26341166 -0.00042394823 1.353042e-19)
(0.2631242 -0.00047735794 8.7284717e-20)
(0.26233468 -0.00052050214 6.6139035e-20)
(0.26018092 -0.00054846095 -9.2881595e-20)
(0.25381559 -0.00050481858 -4.9350147e-20)
(0.23581666 -0.00040978299 -1.7020535e-20)
(0.19745226 -9.8494617e-05 -3.1397052e-19)
(0.26501552 -4.2046877e-05 1.9954784e-18)
(0.26502225 -0.00010599907 1.2844247e-18)
(0.26503542 -0.0001673021 1.0898145e-18)
(0.26505044 -0.00023067618 8.5480142e-19)
(0.26505633 -0.00029193976 2.1635769e-19)
(0.26502564 -0.00035106733 -1.7548887e-19)
(0.26489279 -0.0004068816 7.1113526e-20)
(0.26450568 -0.00045685738 3.0830398e-20)
(0.26349313 -0.00049549056 -1.7742252e-19)
(0.26078727 -0.00051473411 -2.1227753e-20)
(0.25307513 -0.00045847926 -7.1586613e-20)
(0.23327192 -0.00034737981 1.9042489e-19)
(0.19416843 -7.6932879e-05 -8.1431757e-20)
(0.2665165 -4.057706e-05 8.6309827e-19)
(0.26652283 -0.00010224007 1.8323816e-18)
(0.26653459 -0.00016134013 9.2484895e-19)
(0.26654572 -0.0002224043 7.1013064e-19)
(0.26654166 -0.00028132047 4.7054421e-19)
(0.26648729 -0.00033795568 1.6660217e-20)
(0.26630156 -0.0003909415 -3.033625e-20)
(0.26580019 -0.00043752442 -1.7943035e-20)
(0.26453091 -0.00047164498 -2.1161248e-19)
(0.26118849 -0.00048140525 -1.0424427e-20)
(0.25206937 -0.00041120617 -2.7107567e-20)
(0.23086314 -0.00029047959 -2.1434131e-19)
(0.19149027 -5.8333256e-05 -1.9192988e-19)
(0.26796591 -3.9276697e-05 -5.8940107e-19)
(0.26797166 -9.8886215e-05 -5.4334211e-19)
(0.26798155 -0.00015601486 -1.7020241e-19)
(0.26798768 -0.00021499986 5.2271119e-19)
(0.26797137 -0.00027178437 3.7497196e-19)
(0.26788889 -0.00032612646 3.1824503e-19)
(0.26764202 -0.00037645613 4.6365149e-20)
(0.26700984 -0.00041972353 -1.7051587e-19)
(0.26544297 -0.00044912486 -1.9616065e-19)
(0.26137042 -0.00044842587 -8.9538818e-20)
(0.25083979 -0.00036475941 -1.5855055e-19)
(0.22864123 -0.00023936528 -5.7292528e-19)
(0.18933265 -4.3854024e-05 -3.0758118e-19)
(0.26936985 -3.8151201e-05 -9.4315916e-19)
(0.26937484 -9.5961771e-05 -1.100095e-18)
(0.26938229 -0.00015136516 -4.0996942e-19)
(0.2693822 -0.00020851724 3.1746615e-19)
(0.26935114 -0.00026339986 2.3792067e-19)
(0.26923575 -0.00031565718 2.5019966e-19)
(0.26891866 -0.00036350366 7.8326868e-20)
(0.26813622 -0.00040351927 -1.8831496e-19)
(0.26622207 -0.00042777198 -5.4795153e-20)
(0.26132397 -0.00041560855 -1.3712181e-19)
(0.24944814 -0.00032041762 -2.5634136e-19)
(0.22663743 -0.00019477817 -4.1805983e-19)
(0.18760708 -3.3365972e-05 -3.7131877e-19)
(0.27073452 -3.7186892e-05 -1.3362057e-18)
(0.27073851 -9.3441594e-05 -2.4322661e-19)
(0.27074291 -0.00014735094 -9.0783988e-21)
(0.27073523 -0.00020290124 4.8816926e-19)
(0.27068668 -0.00025609589 1.2254095e-19)
(0.27053315 -0.00030645578 -8.8001762e-20)
(0.27013553 -0.00035195662 -2.2077352e-19)
(0.26917943 -0.00038871662 -2.4559513e-21)
(0.26685881 -0.00040716162 -1.4643868e-19)
(0.26105041 -0.00038281108 -9.3283431e-20)
(0.24796793 -0.00027903903 -1.9672532e-19)
(0.2248628 -0.00015723519 -3.9602143e-19)
(0.18622942 -2.608962e-05 -3.3479355e-19)
(0.27206549 -3.6358597e-05 -4.8749079e-19)
(0.27206822 -9.1270024e-05 -1.0280239e-19)
(0.27206885 -0.0001438843 2.8792886e-19)
(0.27205207 -0.00019803069 1.2293868e-18)
(0.27198302 -0.00024971698 -1.7102603e-19)
(0.27178551 -0.0002983267 1.2294809e-19)
(0.27129541 -0.00034156266 2.2799184e-19)
(0.27013718 -0.00037494839 8.1496365e-20)
(0.26734241 -0.00038673535 -1.0707265e-19)
(0.2605654 -0.00035005845 -9.3013504e-20)
(0.24647172 -0.00024119444 -2.1997804e-19)
(0.22331131 -0.00012666963 -3.0098779e-19)
(0.18512583 -2.107637e-05 -3.8566743e-19)
(0.27336737 -3.5638788e-05 -1.14821e-19)
(0.27336856 -8.938186e-05 -4.7159339e-19)
(0.27336463 -0.00014086217 9.8682542e-19)
(0.27333706 -0.00019376295 3.2783581e-19)
(0.27324415 -0.00024407934 7.3821369e-20)
(0.27299604 -0.00029103798 1.8982403e-19)
(0.27239931 -0.00033202382 2.5249398e-19)
(0.27100443 -0.00036176734 6.0996771e-20)
(0.26766283 -0.00036596046 1.551873e-19)
(0.25989992 -0.00031757793 -1.3363211e-19)
(0.24502002 -0.00020725745 -3.9840904e-19)
(0.22196569 -0.00010242448 -4.9435485e-20)
(0.18423545 -1.7507118e-05 -1.5639583e-19)
(0.27464382 -3.5002894e-05 8.2422521e-19)
(0.27464313 -8.7716017e-05 1.8194603e-19)
(0.27463375 -0.00013818758 9.009353e-19)
(0.2745935 -0.00018996324 2.2429376e-19)
(0.27447297 -0.0002390078 6.5645796e-19)
(0.27416661 -0.00028436529 -4.2527673e-20)
(0.27344636 -0.00032304577 -3.1045448e-19)
(0.27177364 -0.00034871442 -8.8035581e-20)
(0.26781391 -0.00034445792 -2.3750364e-19)
(0.25909705 -0.00028576382 -2.008035e-19)
(0.2436552 -0.00017740821 -3.1303823e-19)
(0.22080343 -8.3473061e-05 -3.916742e-19)
(0.18351045 -1.4804615e-05 5.4772424e-20)
(0.27589768 -3.4431105e-05 1.2279304e-18)
(0.27589473 -8.6221418e-05 1.1602393e-18)
(0.27587888 -0.00013577914 -6.3377747e-20)
(0.27582384 -0.00018651757 2.5987729e-19)
(0.27567139 -0.00023435206 3.2889014e-19)
(0.27529788 -0.00027811161 6.9876708e-20)
(0.27443375 -0.00031435607 -3.0285357e-19)
(0.27243556 -0.00033536392 -2.786378e-19)
(0.26779662 -0.00032206948 -9.8120911e-20)
(0.25820551 -0.00025510598 -1.6181738e-19)
(0.24240122 -0.00015160162 -1.3304903e-19)
(0.21980119 -6.8691003e-05 -4.4872865e-19)
(0.18291435 -1.2618554e-05 -2.7694721e-19)
(0.27713109 -3.3908296e-05 -8.44818e-19)
(0.27712546 -8.4858001e-05 6.376193e-19)
(0.27710201 -0.00013357264 3.318899e-20)
(0.27702977 -0.00018333501 1.7229099e-19)
(0.27684047 -0.00022998947 9.8779058e-20)
(0.2763893 -0.00027211088 2.8258875e-19)
(0.27535691 -0.00030570399 -6.1668784e-20)
(0.2729805 -0.00032135787 -1.6824652e-19)
(0.26762111 -0.00029886295 -1.4554684e-19)
(0.25727242 -0.00022610441 -2.9059065e-19)
(0.24126718 -0.00012956886 -2.5899592e-19)
(0.21893722 -5.7057435e-05 -3.7163628e-19)
(0.18241982 -1.0759084e-05 -2.9664513e-19)
(0.27834572 -3.3423243e-05 -2.4013515e-19)
(0.27833694 -8.3595438e-05 1.9059676e-19)
(0.2783046 -0.00013151911 1.6860978e-19)
(0.27821241 -0.00018034488 6.2780717e-19)
(0.27798052 -0.00022582105 5.7424931e-20)
(0.27743925 -0.00026622306 2.7950933e-19)
(0.27620962 -0.00029685485 4.6271742e-19)
(0.27340008 -0.00030643644 8.2453301e-20)
(0.26730692 -0.00027509383 -2.9650644e-19)
(0.25633756 -0.0001991843 -4.0561026e-19)
(0.24025214 -0.0001108758 -2.0502726e-19)
(0.21819234 -4.7749367e-05 -2.3857332e-19)
(0.18200662 -9.1303525e-06 -4.0515419e-19)
(0.27954284 -3.2967675e-05 1.5384521e-19)
(0.27953036 -8.2411064e-05 7.148899e-19)
(0.27948767 -0.00012958149 9.0173802e-19)
(0.27937237 -0.00017749197 2.1640888e-19)
(0.27909121 -0.00022176546 3.8879513e-19)
(0.27844503 -0.00026032527 1.640043e-19)
(0.27698441 -0.00028758731 1.9289316e-19)
(0.27368915 -0.00029046172 9.211036e-20)
(0.26688073 -0.00025114512 2.0354946e-19)
(0.25543062 -0.00017462896 1.3821566e-19)
(0.2393495 -9.5013855e-05 -1.0098315e-19)
(0.21755 -4.0152309e-05 -4.8926398e-20)
(0.18165972 -7.6839575e-06 -1.4884759e-19)
(0.28072346 -3.2535411e-05 4.2316465e-19)
(0.28070667 -8.1287794e-05 9.5956377e-19)
(0.28065194 -0.00012773124 5.9716164e-19)
(0.28050986 -0.0001747318 2.2272276e-19)
(0.28017156 -0.00021775304 -3.7558396e-20)
(0.27940289 -0.00025430188 -4.7035004e-20)
(0.27767312 -0.00027769789 9.2856378e-20)
(0.27384765 -0.00027342828 2.3198969e-19)
(0.26637281 -0.00022746053 2.0071798e-19)
(0.2545711 -0.0001525485 -1.9879879e-19)
(0.23855012 -8.148403e-05 -2.7864169e-19)
(0.21699614 -3.3827434e-05 -5.0358589e-20)
(0.18136794 -6.3925383e-06 1.1280912e-19)
(0.28188837 -3.2121656e-05 3.2608402e-18)
(0.28186655 -8.0212343e-05 1.6755603e-18)
(0.28179785 -0.00012594549 1.0785682e-19)
(0.28162471 -0.00017202641 6.4496808e-20)
(0.28121999 -0.00021372065 -1.375532e-19)
(0.28030804 -0.00024803603 -5.9093357e-20)
(0.27826773 -0.00026701328 9.641232e-20)
(0.27388156 -0.00025545692 6.9505548e-20)
(0.26581311 -0.00020447967 -9.4269238e-20)
(0.25377001 -0.00013289057 -4.8611336e-19)
(0.23784411 -6.9849921e-05 -3.1097069e-19)
(0.21651887 -2.8467154e-05 -8.3138922e-20)
(0.18112283 -5.2370934e-06 -4.7877627e-20)
(0.28303819 -3.1722486e-05 3.5690315e-18)
(0.28301052 -7.917385e-05 6.9782144e-19)
(0.28292559 -0.00012420469 3.4681813e-19)
(0.28271638 -0.00016934096 -3.3278483e-19)
(0.2822343 -0.00020960734 5.8330418e-19)
(0.28115476 -0.00024140494 1.5271437e-19)
(0.27876144 -0.00025540748 -8.3848688e-20)
(0.27380291 -0.00023677356 2.3934641e-19)
(0.26522808 -0.00018258167 1.0105489e-19)
(0.25303215 -0.00011548282 -1.9571675e-20)
(0.23722187 -5.9756961e-05 -8.8383513e-20)
(0.21610816 -2.3855673e-05 -1.6965493e-19)
(0.18091788 -4.201843e-06 4.6402586e-20)
(0.28417339 -3.1334452e-05 -7.4064199e-19)
(0.28413893 -7.8162818e-05 -3.5058901e-19)
(0.28403512 -0.00012249081 3.1328447e-19)
(0.28378396 -0.00016664114 4.6718112e-19)
(0.28321158 -0.0002053501 1.9584436e-19)
(0.28193659 -0.00023428041 1.4920516e-19)
(0.27914984 -0.00024281874 5.487098e-19)
(0.27362851 -0.00021767781 7.3484208e-19)
(0.26463906 -0.00016204558 3.0771708e-19)
(0.25235823 -0.00010008753 -3.1098647e-19)
(0.23667446 -5.0928433e-05 -3.4669387e-19)
(0.21575559 -1.9839553e-05 -1.2886885e-19)
(0.18074793 -3.2726369e-06 -2.5764857e-20)
(0.28529433 -3.0954305e-05 -1.1828226e-18)
(0.28525196 -7.7170336e-05 3.8221874e-19)
(0.28512619 -0.000120786 1.1609601e-18)
(0.28482614 -0.00016389138 2.2533426e-19)
(0.28414822 -0.00020087986 1.3855075e-19)
(0.28264669 -0.00022653515 3.2705223e-19)
(0.27943202 -0.00022926076 4.7286845e-19)
(0.27337791 -0.00019850622 3.4621496e-19)
(0.26406181 -0.0001430334 3.0340389e-19)
(0.25174654 -8.6449681e-05 3.411075e-19)
(0.23619383 -4.3151082e-05 -2.8356709e-20)
(0.21545404 -1.6307482e-05 -1.13342e-19)
(0.18060883 -2.4367078e-06 1.0244486e-20)
(0.28640123 -3.0578784e-05 7.0172536e-19)
(0.28634965 -7.6187463e-05 1.2729759e-18)
(0.28619826 -0.00011907139 8.9385207e-19)
(0.28584114 -0.00016105348 -3.9436752e-19)
(0.28503985 -0.00019611847 2.5146334e-19)
(0.2832784 -0.00021805401 3.7202755e-19)
(0.27961117 -0.00021482471 -1.048581e-19)
(0.27307114 -0.00017959427 1.832467e-19)
(0.26350715 -0.00012559658 1.6981914e-19)
(0.25119402 -7.4328968e-05 5.9810587e-19)
(0.23577276 -3.6259373e-05 3.529653e-19)
(0.21519748 -1.3176838e-05 1.162922e-19)
(0.18049716 -1.682759e-06 1.7713553e-19)
(0.28749419 -3.0204451e-05 3.7462681e-19)
(0.28743185 -7.520472e-05 2.0267467e-18)
(0.28725056 -0.00011732616 1.3329928e-19)
(0.28682673 -0.0001580853 7.9116361e-20)
(0.28588145 -0.00019097762 2.0994773e-19)
(0.28382593 -0.00020874813 1.2205639e-19)
(0.27969464 -0.00019967158 -3.0227978e-20)
(0.27272685 -0.00016124193 -2.110683e-20)
(0.26298189 -0.00010969946 9.1188781e-20)
(0.25069697 -6.351502e-05 -1.0691926e-19)
(0.23540492 -3.0122544e-05 1.6554399e-19)
(0.21498079 -1.0384803e-05 1.6374618e-19)
(0.18041 -1.0010031e-06 -1.9100371e-20)
(0.28857317 -2.9827535e-05 -2.4940434e-19)
(0.28849825 -7.4211613e-05 6.7242241e-19)
(0.28828196 -0.00011552671 2.5399013e-19)
(0.28778008 -0.00015493915 3.5042888e-19)
(0.28666738 -0.00018536089 3.4591208e-19)
(0.28428521 -0.00019856896 5.2017421e-20)
(0.27969326 -0.00018401637 2.3755583e-19)
(0.27236107 -0.00014368791 1.0729119e-19)
(0.26248991 -9.5249867e-05 1.2331686e-19)
(0.25025143 -5.3830554e-05 -7.2139391e-20)
(0.23508472 -2.4635272e-05 1.8428366e-19)
(0.21479959 -7.8824896e-06 1.6538664e-19)
(0.18034487 -3.8307951e-07 -1.0522305e-20)
(0.28963798 -2.944375e-05 2.3953806e-19)
(0.28954832 -7.3196105e-05 -2.0069657e-19)
(0.28929102 -0.00011364593 -3.3261553e-19)
(0.2886978 -0.00015155982 5.7825711e-19)
(0.28739174 -0.00017916927 -1.2565316e-19)
(0.28465455 -0.00018751865 3.3024192e-19)
(0.27962017 -0.00016810641 7.8868247e-19)
(0.2719867 -0.00012709648 8.337964e-19)
(0.26203302 -8.2127518e-05 1.3091696e-19)
(0.24985346 -4.512813e-05 -3.1797926e-19)
(0.23480728 -1.9711265e-05 -2.820789e-19)
(0.21465012 -5.6309917e-06 1.104094e-19)
(0.18029962 1.78128e-07 3.1134315e-20)
(0.29068824 -2.9047997e-05 2.2086107e-18)
(0.29058125 -7.2143821e-05 1.0687892e-18)
(0.29027586 -0.00011165221 6.9230867e-19)
(0.28957586 -0.00014788248 6.7573136e-19)
(0.28804865 -0.00017230925 2.3565851e-19)
(0.28493523 -0.00017565385 3.2802008e-19)
(0.2794894 -0.00015219579 4.2782716e-19)
(0.2716136 -0.00011155661 1.6101696e-19)
(0.26161163 -7.020356e-05 9.7281614e-20)
(0.24949925 -3.7283206e-05 6.1071403e-20)
(0.23456828 -1.527706e-05 -2.5291387e-19)
(0.21452909 -3.597875e-06 -1.3114358e-19)
(0.18027234 6.8891606e-07 2.7280806e-20)
(0.29172336 -2.863428e-05 -6.6713555e-20)
(0.291596 -7.1037634e-05 6.7990007e-19)
(0.29123415 -0.00010950892 6.1364625e-19)
(0.29040962 -0.00014383257 3.1130338e-19)
(0.28863287 -0.00016470429 8.3289611e-19)
(0.28513156 -0.00016308395 3.808806e-19)
(0.27931466 -0.00013652206 -8.5689336e-20)
(0.27124896 -9.7093554e-05 2.0170531e-19)
(0.26122524 -5.9353645e-05 1.2351478e-19)
(0.24918522 -3.0190173e-05 5.255397e-19)
(0.23436395 -1.1270298e-05 2.8622917e-19)
(0.2144337 -1.7305498e-06 -1.3313211e-19)
(0.18026136 1.1761562e-06 1.3965674e-19)
(0.29274252 -2.8196034e-05 5.5138454e-19)
(0.29259116 -6.9858459e-05 1.1152954e-18)
(0.29216305 -0.00010717576 2.3297958e-20)
(0.29119393 -0.00013933085 -1.5468408e-19)
(0.28914031 -0.00015631032 4.8089875e-19)
(0.28525057 -0.00014996782 4.2177737e-19)
(0.27910837 -0.00012129297 1.2669192e-19)
(0.2708978 -8.3692841e-05 2.9236315e-19)
(0.26087272 -4.9471599e-05 3.2376707e-19)
(0.24890802 -2.376677e-05 2.8813548e-19)
(0.23419085 -7.6476552e-06 2.1852231e-19)
(0.21436056 -1.6257405e-08 4.3632466e-20)
(0.18026627 1.6403968e-06 -2.0638657e-20)
(0.2937446 -2.7725099e-05 2.5089939e-18)
(0.29356496 -6.858319e-05 3.0124915e-19)
(0.29305914 -0.00010460504 6.0796523e-19)
(0.29192334 -0.00013429445 -1.2778301e-20)
(0.28956868 -0.00014712078 4.8428389e-19)
(0.2853013 -0.00013649478 2.6810998e-19)
(0.27888121 -0.00010666836 3.0038976e-19)
(0.27056351 -7.1310466e-05 2.4892905e-19)
(0.26055265 -4.0462885e-05 1.6389757e-19)
(0.24866458 -1.7940248e-05 7.9371396e-20)
(0.23404606 -4.3539012e-06 1.1730276e-19)
(0.21430781 1.5374088e-06 2.0148581e-19)
(0.18028522 2.0563886e-06 -1.5910629e-20)
(0.29472815 -2.7211025e-05 1.5733424e-18)
(0.29451518 -6.7183246e-05 -1.2525946e-19)
(0.29391842 -0.00010173906 -8.9215118e-20)
(0.29259237 -0.00012864185 6.9590437e-19)
(0.28991788 -0.00013716948 -7.5313149e-20)
(0.28529395 -0.00012286451 4.5154291e-19)
(0.27864192 -9.2752914e-05 1.0614285e-18)
(0.27024822 -5.988243e-05 9.7496621e-19)
(0.26026336 -3.2238652e-05 2.1275189e-19)
(0.24845204 -1.2642367e-05 -3.8906737e-19)
(0.23392646 -1.3358739e-06 -2.8327299e-19)
(0.21427448 2.9561813e-06 5.5348236e-20)
(0.18031663 2.4263132e-06 -3.2628406e-20)
(0.29569132 -2.6641403e-05 8.6156164e-19)
(0.2954391 -6.5625548e-05 5.6515217e-19)
(0.29473631 -9.8512685e-05 9.6667916e-19)
(0.29319592 -0.00012230569 8.3555209e-19)
(0.29019018 -0.00012653596 -1.189713e-19)
(0.2852389 -0.00010927514 3.6496191e-19)
(0.27839743 -7.9607251e-05 6.4952685e-19)
(0.26995312 -4.9342214e-05 3.5966283e-19)
(0.26000309 -2.4722166e-05 2.6059529e-19)
(0.24826773 -7.8150813e-06 3.1952107e-19)
(0.23382955 1.4151575e-06 -5.0453776e-20)
(0.21425921 4.2390857e-06 -7.9939801e-20)
(0.18035932 2.7544362e-06 -1.1147778e-20)
(0.29663173 -2.6001182e-05 -8.6455057e-19)
(0.29633339 -6.3871157e-05 1.3286441e-20)
(0.29550768 -9.4853896e-05 9.0829346e-19)
(0.29372976 -0.00011524119 4.077766e-19)
(0.29039011 -0.00011533897 5.8662541e-19)
(0.28514604 -9.5905376e-05 3.5270763e-19)
(0.27815305 -6.7254129e-05 -2.3418476e-19)
(0.26967872 -3.9623322e-05 3.7757445e-20)
(0.25977003 -1.7841845e-05 1.2387006e-19)
(0.24810923 -3.3839578e-06 6.8770019e-19)
(0.23375398 3.9312132e-06 5.2500205e-19)
(0.21425996 5.3906156e-06 9.3842748e-20)
(0.18041214 3.044342e-06 1.2987282e-19)
(0.29754645 -2.527239e-05 -1.0690991e-18)
(0.29719411 -6.1874452e-05 1.4886058e-18)
(0.29622706 -9.0687762e-05 1.2943951e-19)
(0.29419101 -0.00010743479 3.5952348e-19)
(0.290524 -0.00010372737 6.8634835e-19)
(0.28502427 -8.2903362e-05 4.0810848e-19)
(0.27791277 -5.5688931e-05 -1.1506379e-19)
(0.26942499 -3.0662227e-05 2.6301057e-20)
(0.25956226 -1.1539676e-05 2.4364164e-19)
(0.24797362 6.7590177e-07 1.8864372e-19)
(0.23369893 6.2277244e-06 3.6577134e-19)
(0.21427538 6.4296396e-06 2.6720771e-19)
(0.18047413 3.3030884e-06 2.1551714e-20)
(0.29843186 -2.4434089e-05 -5.4735372e-19)
(0.29801658 -5.958298e-05 1.6551627e-18)
(0.29688883 -8.5943397e-05 3.1191911e-19)
(0.29457851 -9.8910845e-05 6.2289721e-19)
(0.29059935 -9.186843e-05 5.7230901e-19)
(0.28488126 -7.0382621e-05 4.3031324e-19)
(0.27767954 -4.4890679e-05 1.4875535e-19)
(0.26919163 -2.2395841e-05 1.8308011e-19)
(0.25937815 -5.7364148e-06 3.1696625e-19)
(0.24785972 4.3904859e-06 1.2855571e-19)
(0.2336621 8.301598e-06 2.4085102e-19)
(0.21430404 7.3666994e-06 2.0418663e-19)
(0.18054443 3.5354659e-06 1.2159227e-19)
(0.29928359 -2.3462153e-05 1.4063651e-18)
(0.29879547 -5.6937593e-05 1.3377289e-18)
(0.29748763 -8.0561623e-05 4.706381e-19)
(0.29489309 -8.973243e-05 1.0929093e-18)
(0.29062422 -7.9932341e-05 -1.0829776e-19)
(0.28472341 -5.8420104e-05 4.5699705e-19)
(0.27745536 -3.4827532e-05 8.5551507e-19)
(0.26897782 -1.4770409e-05 6.5361854e-19)
(0.25921519 -3.9179941e-07 2.5202586e-19)
(0.24776702 7.7920444e-06 -2.9349036e-19)
(0.23364198 1.0181102e-05 -2.6752741e-19)
(0.21434474 8.2147629e-06 -8.4473557e-20)
(0.18062225 3.7449975e-06 1.0150589e-19)
(0.30009637 -2.232973e-05 2.2670771e-18)
(0.29952479 -5.3875499e-05 1.3959873e-18)
(0.29801875 -7.4505257e-05 1.0508586e-18)
(0.29513749 -7.9999953e-05 6.7011952e-19)
(0.29060659 -6.8080584e-05 3.3994715e-19)
(0.28455591 -4.7062485e-05 5.3780972e-19)
(0.27724164 -2.5459231e-05 5.8835315e-19)
(0.2687829 -7.715676e-06 -4.1796448e-20)
(0.25907248 4.5153856e-06 1.7048334e-19)
(0.24769347 1.0881378e-05 -7.1512785e-21)
(0.23363709 1.1884859e-05 -9.7976283e-20)
(0.21439637 8.9837406e-06 -7.9879538e-20)
(0.1807069 3.9343471e-06 -1.0411747e-19)
(0.30086402 -2.1007838e-05 1.8371005e-18)
(0.30019808 -5.0335141e-05 1.6781272e-18)
(0.29847858 -6.7767503e-05 1.9924859e-18)
(0.29531607 -6.9843626e-05 -5.0387727e-19)
(0.29055391 -5.645443e-05 7.8033937e-19)
(0.28438287 -3.6332031e-05 2.9700923e-19)
(0.27703906 -1.6748271e-05 2.2850305e-20)
(0.2686053 -1.1875343e-06 -2.3502997e-19)
(0.25894976 9.021329e-06 1.7946801e-19)
(0.24763751 1.3689789e-05 3.0521682e-19)
(0.23364609 1.3431083e-05 2.8594422e-19)
(0.21445793 9.6806786e-06 -6.6625201e-20)
(0.18079772 4.105019e-06 -1.2131367e-19)
(0.30157943 -1.9467192e-05 1.2106355e-18)
(0.30080863 -4.6264343e-05 3.3523213e-18)
(0.29886499 -6.0378833e-05 2.3944015e-18)
(0.29543444 -5.9413961e-05 3.3966012e-19)
(0.29047287 -4.5169377e-05 3.5770216e-19)
(0.28420752 -2.6229163e-05 -1.886256e-19)
(0.27684812 -8.636281e-06 -2.7865554e-20)
(0.26844451 4.838634e-06 -1.1213995e-19)
(0.25884557 1.3135757e-05 -7.8469064e-20)
(0.2475977 1.6244088e-05 8.2810173e-20)
(0.23366777 1.4835349e-05 7.5947405e-20)
(0.21452852 1.0311981e-05 -2.3132177e-20)
(0.18089414 4.2585294e-06 -5.5687653e-20)
(0.30223466 -1.7681571e-05 1.1679406e-18)
(0.3013499 -4.1630434e-05 9.671608e-19)
(0.29917751 -5.2409547e-05 4.1050217e-19)
(0.29549883 -4.8869434e-05 1.1823917e-18)
(0.29036918 -3.4313667e-05 5.2399889e-19)
(0.28403214 -1.6747529e-05 3.995195e-19)
(0.27666826 -1.0891225e-06 3.896567e-19)
(0.26830088 1.0390964e-05 4.085982e-20)
(0.25875851 1.6888473e-05 -1.8620247e-19)
(0.24757272 1.8568175e-05 -2.8845933e-19)
(0.23370102 1.6110015e-05 -1.8674095e-19)
(0.21460732 1.0882758e-05 -2.4232144e-19)
(0.18099561 4.3960735e-06 -1.1965965e-19)
(0.30282117 -1.5633393e-05 -8.6019355e-20)
(0.30181594 -3.6431493e-05 1.1462225e-18)
(0.29941741 -4.3968567e-05 -1.7334691e-19)
(0.29551566 -3.8365482e-05 7.1352225e-19)
(0.2902477 -2.3945242e-05 5.101784e-19)
(0.28385859 -7.8477441e-06 6.106352e-19)
(0.27649982 5.9141048e-06 4.4707021e-19)
(0.26817344 1.5479796e-05 1.8389462e-19)
(0.25868728 2.0310825e-05 1.012192e-20)
(0.24756135 2.0682624e-05 -2.0869384e-19)
(0.23374484 1.7265694e-05 -1.27693e-19)
(0.21469357 1.1397582e-05 -2.5494433e-19)
(0.18110164 4.5187588e-06 -1.3946357e-19)
(0.30333026 -1.3320792e-05 -1.1112198e-18)
(0.30220189 -3.0705595e-05 2.7295438e-18)
(0.29958744 -3.5196386e-05 5.6999126e-19)
(0.29549103 -2.8043663e-05 7.1254392e-19)
(0.29011218 -1.4099861e-05 7.6686829e-19)
(0.28368733 4.8515214e-07 2.4032589e-19)
(0.276344 1.238888e-05 -1.523609e-19)
(0.26806118 2.0135109e-05 -2.1706878e-19)
(0.2586307 2.3431335e-05 -6.3547369e-20)
(0.24756246 2.2604551e-05 2.1909079e-19)
(0.23379832 1.8311462e-05 1.116031e-19)
(0.21478659 1.1860459e-05 2.5372088e-19)
(0.18121176 4.6275454e-06 -4.8290459e-21)
(0.30375374 -1.0764906e-05 2.7425109e-18)
(0.30250438 -2.4536361e-05 1.974538e-18)
(0.29969147 -2.6255606e-05 2.1999821e-18)
(0.29543051 -1.8024214e-05 -1.0619454e-19)
(0.28996562 -4.7858312e-06 8.1267773e-19)
(0.28352015 8.2431005e-06 4.5861243e-19)
(0.27620025 1.8335864e-05 2.5883088e-20)
(0.26796311 2.4389449e-05 -3.0147581e-20)
(0.25858763 2.627464e-05 9.6470692e-20)
(0.24757502 2.4348897e-05 3.2444989e-19)
(0.2338606 1.9255523e-05 2.6181834e-19)
(0.21488574 1.2275077e-05 1.0476111e-21)
(0.18132555 4.7233383e-06 -7.9065919e-21)
(0.30408466 -8.0145749e-06 1.8443892e-18)
(0.30272186 -1.8051796e-05 3.7572967e-18)
(0.29973407 -1.7315895e-05 2.0895486e-18)
(0.29533886 -8.389597e-06 -1.5115639e-20)
(0.28980995 3.978947e-06 3.4715067e-19)
(0.28335875 1.5424484e-05 1.5385911e-19)
(0.27606809 2.3784717e-05 3.9988572e-19)
(0.26787825 2.8272265e-05 4.2105266e-19)
(0.25855702 2.8860149e-05 3.7123295e-19)
(0.24759808 2.59276e-05 3.5799243e-19)
(0.23393092 2.01044e-05 4.2951678e-19)
(0.21499042 1.2644224e-05 4.1920159e-20)
(0.1814426 4.8067198e-06 4.9605169e-20)
(0.30431819 -5.1449419e-06 -9.5063372e-19)
(0.30285461 -1.1412639e-05 -5.3569438e-19)
(0.29971994 -8.5331665e-06 7.7223937e-19)
(0.29521955 7.8207581e-07 7.4117553e-19)
(0.28964857 1.2143071e-05 3.0472976e-19)
(0.28320331 2.2022607e-05 2.7173637e-19)
(0.27594691 2.8765106e-05 9.0707506e-19)
(0.26780566 3.1808677e-05 5.3386232e-19)
(0.25853789 3.1205155e-05 1.19722e-19)
(0.24763076 2.7351694e-05 -1.5294889e-19)
(0.23400854 2.0864184e-05 -7.5652612e-21)
(0.2151001 1.2970542e-05 1.8450819e-19)
(0.18156252 4.8782818e-06 4.0216386e-20)
(0.30445222 -2.2472279e-06 1.5444467e-18)
(0.30290466 -4.7892315e-06 -7.6212983e-19)
(0.2996534 -5.7440961e-08 1.1009359e-19)
(0.29507686 9.3868729e-06 1.0034649e-18)
(0.28948321 1.9670549e-05 6.0300182e-19)
(0.28305386 2.8057794e-05 8.6074657e-19)
(0.27583605 3.3302667e-05 6.6097317e-19)
(0.26774441 3.5018178e-05 4.1246129e-19)
(0.25852929 3.3323416e-05 1.1844348e-19)
(0.24767222 2.8629891e-05 -9.8992616e-20)
(0.23409279 2.1539473e-05 -6.3948925e-20)
(0.21521426 1.3255879e-05 1.7457143e-19)
(0.18168495 4.9383486e-06 3.1613776e-20)
(0.30448759 5.8143871e-07 3.8991703e-18)
(0.30287533 1.6332063e-06 2.9434229e-18)
(0.29953939 7.9403946e-06 -1.7066604e-19)
(0.29491435 1.7334251e-05 1.2042631e-18)
(0.28931491 2.655039e-05 8.6467283e-19)
(0.28291026 3.3548719e-05 5.389721e-19)
(0.2757348 3.7416519e-05 -3.4559161e-20)
(0.26769361 3.7916264e-05 1.2011873e-19)
(0.25853035 3.5226098e-05 5.3210925e-20)
(0.24772169 2.9769058e-05 1.8002044e-19)
(0.23418305 2.2133714e-05 4.5150864e-20)
(0.2153324 1.3501511e-05 1.5057117e-19)
(0.18180955 4.987076e-06 7.0220385e-20)
(0.30442824 3.2381498e-06 2.9751922e-18)
(0.30277199 7.6570032e-06 3.0853137e-18)
(0.29938292 1.5304024e-05 2.8081654e-18)
(0.29473444 2.4565391e-05 -4.1059615e-19)
(0.28914434 3.2781715e-05 8.48799e-20)
(0.28277222 3.850814e-05 -4.2080546e-20)
(0.27564244 4.1120462e-05 -4.318121e-19)
(0.26765239 4.0514597e-05 -3.0780171e-19)
(0.25854021 3.6921364e-05 -3.0532198e-20)
(0.24777843 3.0773897e-05 2.1656523e-19)
(0.23427872 2.2648992e-05 -1.7225094e-21)
(0.21545406 1.3708006e-05 -1.8477651e-19)
(0.18193595 5.0243874e-06 -1.9952391e-20)
(0.30428148 5.6356034e-06 4.8996783e-19)
(0.30260141 1.3122408e-05 2.53455e-18)
(0.29918843 2.1930453e-05 2.0065141e-18)
(0.29453912 3.1047555e-05 -7.6805396e-20)
(0.28897192 3.8362721e-05 1.4871418e-19)
(0.28263933 4.2943582e-05 1.4857967e-19)
(0.2755582 4.4423872e-05 -1.4048212e-19)
(0.26761989 4.2821015e-05 -1.0556961e-19)
(0.25855808 3.8414278e-05 3.6487274e-19)
(0.24784174 3.1646868e-05 4.6562475e-19)
(0.23437921 2.3085971e-05 1.5588637e-19)
(0.21557877 1.3875173e-05 -6.1480819e-20)
(0.18206381 5.0499538e-06 -5.8463411e-20)
(0.30405678 7.7205595e-06 1.0860306e-18)
(0.30237113 1.7926745e-05 2.6536406e-18)
(0.29896016 2.7756861e-05 1.2609822e-18)
(0.29433004 3.675957e-05 3.6677943e-19)
(0.28879784 4.3291058e-05 1.5640489e-19)
(0.2825111 4.6859672e-05 9.2214807e-20)
(0.2754813 4.7332666e-05 1.1736145e-19)
(0.26759529 4.4840007e-05 9.5622827e-20)
(0.25858316 3.9707158e-05 1.3529727e-19)
(0.24791094 3.238845e-05 1.0225832e-19)
(0.23448396 2.3444038e-05 1.1315752e-20)
(0.21570609 1.4002133e-05 -1.1297023e-19)
(0.18219278 5.06322e-06 -4.2407059e-20)
(0.30376497 9.4677098e-06 -6.5670217e-19)
(0.30208913 2.2015521e-05 7.377889e-19)
(0.29870222 3.2751983e-05 1.1677469e-18)
(0.29410866 4.1691522e-05 6.4006634e-19)
(0.2886222 4.7566394e-05 2.1054601e-19)
(0.28238699 5.0259569e-05 4.8200712e-20)