/*--------------------------------*- C++ -*----------------------------------*\
| =========                 |                                                 |
| \\      /  F ield         | OpenFOAM: The Open Source CFD Toolbox           |
|  \\    /   O peration     | Version:  2506                                  |
|   \\  /    A nd           | Website:  www.openfoam.com                      |
|    \\/     M anipulation  |                                                 |
\*---------------------------------------------------------------------------*/
FoamFile
{
    version     2.0;
    format      ascii;
    arch        "LSB;label=32;scalar=64";
    class       volScalarField;
    location    "1000/rock";
    object      T;
}
// * * * * * * * * * * * * * * * * * * * * * * * * * * * * * * * * * * * * * //

dimensions      [0 0 0 1 0 0 0];

internalField   nonuniform List<scalar> 
16000
(
317.42831
306.34188
300.29723
296.49864
293.89614
292.00674
290.57661
289.45943
288.56485
287.83412
287.2274
286.71674
286.282
285.90827
285.58433
285.30156
285.05321
284.83399
284.63963
284.46667
284.3123
284.17418
284.05038
283.93925
283.83943
283.74972
283.66913
283.59678
283.53191
283.47385
283.42201
283.37586
283.33492
283.29875
283.26691
283.23898
283.2145
283.19294
283.17361
283.15536
320.06448
308.96973
302.49786
298.31201
295.40267
293.27303
291.65262
290.38226
289.36241
288.52776
287.83372
287.24889
286.75054
286.3218
285.94994
285.62516
285.33981
285.08782
284.86433
284.6654
284.48781
284.32888
284.1864
284.05849
283.94357
283.8403
283.74751
283.6642
283.5895
283.52264
283.46295
283.40982
283.3627
283.32107
283.28446
283.25237
283.22431
283.19971
283.17788
283.15789
321.55077
310.88013
304.29053
299.88139
296.75396
294.43519
292.65574
291.2523
290.12067
289.19145
288.4168
287.76271
287.20442
286.72347
286.30586
285.94079
285.61978
285.33611
285.08439
284.86022
284.66001
284.48078
284.32004
284.17571
284.046
283.92942
283.82465
283.73058
283.64622
283.57073
283.50333
283.44334
283.39016
283.34321
283.30195
283.26586
283.23441
283.20703
283.18307
283.16181
322.48596
312.29336
305.74225
301.2248
297.95271
295.49124
293.5828
292.06636
290.83675
289.82274
288.97454
288.25643
287.64215
287.11203
286.65104
286.24753
285.89236
285.57822
285.29924
285.05064
284.82848
284.6295
284.45098
284.29061
284.14646
284.01686
283.90037
283.79575
283.70194
283.61797
283.54302
283.47632
283.41722
283.36507
283.31931
283.27938
283.24472
283.21478
283.18897
283.16671
323.12894
313.3673
306.92293
302.3702
299.00909
296.44403
294.43371
292.8232
291.50907
290.42001
289.50546
288.72872
288.06258
287.48647
286.98459
286.54465
286.1569
285.81358
285.50841
285.23624
284.99285
284.77473
284.57894
284.40298
284.24475
284.10245
283.97451
283.85959
283.75653
283.66428
283.58194
283.50869
283.44381
283.38662
283.33651
283.29289
283.25519
283.22288
283.19541
283.1723
323.6013
314.20627
307.89214
303.34743
299.93706
297.29962
295.21067
293.5232
292.13718
290.98246
290.00864
289.17868
288.46485
287.84601
287.30584
286.83151
286.41286
286.04172
285.71147
285.41666
285.15282
284.91621
284.70369
284.5126
284.34069
284.18603
284.04694
283.92198
283.80989
283.70957
283.62002
283.54039
283.46989
283.4078
283.35348
283.30632
283.26574
283.23122
283.20224
283.17838
323.96532
314.87822
308.69673
304.18407
300.75171
298.06584
295.91752
294.16803
292.72157
291.50999
290.48368
289.60577
288.84838
288.19009
287.61423
287.10764
286.6598
286.26224
285.90807
285.59159
285.3081
285.05368
284.82501
284.61929
284.43412
284.26746
284.11754
283.98281
283.86194
283.75375
283.6572
283.57135
283.49539
283.42855
283.37017
283.31961
283.2763
283.23969
283.20932
283.18478
324.25574
315.42794
309.37232
304.90395
301.46765
298.75121
296.55901
294.7602
293.26346
292.00306
290.93061
290.00978
289.21285
288.51833
287.90939
287.37264
286.89735
286.47482
286.09791
285.76075
285.45846
285.18693
284.94271
284.72287
284.52489
284.34661
284.18619
284.04198
283.91258
283.79675
283.69339
283.60151
283.52025
283.44883
283.38653
283.3327
283.28677
283.24821
283.21654
283.19137
324.49343
315.88567
309.94576
305.52684
302.09819
299.36422
297.14036
295.30281
293.7646
292.46258
291.34983
290.39082
289.55818
288.83056
288.19109
287.62628
287.12527
286.67919
286.28076
285.92394
285.60369
285.31578
285.05664
284.8232
284.61286
284.42337
284.25278
284.0994
283.96174
283.8385
283.72853
283.63081
283.54443
283.46856
283.40249
283.34553
283.2971
283.25667
283.22378
283.19802
324.69177
316.27241
310.43724
306.06894
302.65507
299.9129
297.66686
295.79925
294.22709
292.88981
291.74206
290.74924
289.88451
289.12676
288.45922
287.86841
287.34339
286.8752
286.45645
286.08098
285.74364
285.44009
285.16665
284.92017
284.69794
284.49764
284.31724
284.15499
284.00933
283.87893
283.76257
283.65919
283.56785
283.48771
283.41799
283.35803
283.30721
283.26501
283.23095
283.20464
324.85978
316.60312
310.86216
306.54334
303.14841
300.40462
298.14365
296.25299
294.65324
293.28624
292.10823
291.0856
290.19212
289.40706
288.71382
288.09899
287.55162
287.06273
286.62485
286.23174
285.87818
285.55974
285.27264
285.01366
284.78002
284.56932
284.37948
284.20867
284.05531
283.91798
283.79545
283.68661
283.59049
283.50621
283.43299
283.37014
283.31704
283.27314
283.23798
283.21115
325.00384
316.88877
311.23231
306.96068
303.58685
300.84597
298.57558
296.66749
295.04545
293.6535
292.44941
291.40058
290.48146
289.67172
288.95501
288.31805
287.74996
287.24173
286.78589
286.37616
286.00724
285.67464
285.37452
285.1036
284.85902
284.63835
284.43943
284.26039
284.0996
283.9556
283.82711
283.71301
283.61227
283.52402
283.44743
283.38181
283.32652
283.281
283.24478
283.21746
325.12857
317.13757
311.5569
307.32957
303.97772
301.24279
298.9671
297.04606
295.40612
293.99331
292.76681
291.69503
290.75308
289.92109
289.18301
288.52573
287.93845
287.41222
286.93957
286.51419
286.13076
285.78473
285.47223
285.18992
284.9349
284.70467
284.49704
284.3101
284.14216
283.99174
283.85752
283.73834
283.63317
283.54109
283.46127
283.39298
283.33559
283.28853
283.25131
283.22352
325.23746
317.35583
311.84318
307.65705
304.3272
301.60021
299.32227
297.39181
295.73759
294.30738
293.06168
291.96983
291.00761
290.15562
289.39812
288.7222
288.11721
287.57426
287.08589
286.64583
286.24871
285.88999
285.56574
285.27259
285.00761
284.76825
284.55228
284.35776
284.18296
284.02637
283.88664
283.76259
283.65315
283.55738
283.47446
283.40362
283.34422
283.29568
283.2575
283.22926
325.33318
317.54845
312.09694
307.94891
304.64055
301.92271
299.64477
297.70766
296.04211
294.59745
293.33531
292.22593
291.24574
290.37579
289.60068
288.90773
288.28641
287.72795
287.22493
286.77111
286.36112
285.99041
285.65504
285.35159
285.07712
284.82904
284.60511
284.40333
284.22195
284.05945
283.91443
283.7857
283.67216
283.57287
283.48696
283.41367
283.35235
283.30239
283.2633
283.23464
325.41781
317.71931
312.32286
308.20991
304.92222
302.2142
299.93787
297.99627
296.32181
294.86515
293.58897
292.46431
291.4682
290.58216
289.79111
289.08259
288.44626
287.87344
287.35679
286.89009
286.46802
286.08601
285.74011
285.42691
285.14342
284.88705
284.65551
284.44679
284.25913
284.09096
283.94087
283.80765
283.69019
283.58751
283.49874
283.42312
283.35995
283.30864
283.26868
283.23961
325.49302
317.87155
312.52475
308.44405
305.176
302.47808
300.20451
298.2601
296.57869
295.11209
293.82392
292.68594
291.67576
290.77531
289.96983
289.24712
288.597
288.0109
287.48159
287.00288
286.56948
286.17683
285.821
285.49856
285.20651
284.94225
284.70347
284.48814
284.29447
284.12088
283.96595
283.82843
283.70721
283.60128
283.50978
283.43191
283.36698
283.31439
283.27359
283.24414
325.56015
318.00772
312.70578
308.65465
305.40514
302.71731
300.44728
298.50135
296.81458
295.33978
294.04138
292.8918
291.86917
290.95582
290.13731
289.40167
288.7389
288.14055
287.59948
287.10957
286.66557
286.26294
285.89775
285.56657
285.26642
284.99467
284.74899
284.52736
284.32797
284.1492
283.98964
283.84801
283.72319
283.61417
283.52005
283.44004
283.37343
283.3196
283.27801
283.2482
325.62031
318.12991
312.86856
308.84455
305.61242
302.9345
300.66852
298.72206
297.0312
295.54964
294.24252
293.08283
292.04919
291.12431
290.29403
289.54662
288.87225
288.26262
287.71066
287.21032
286.7564
286.3444
285.9704
285.63099
285.32317
285.04431
284.7921
284.56447
284.35962
284.17592
284.01194
283.86639
283.73814
283.62615
283.52953
283.44747
283.37925
283.32425
283.28191
283.25175
325.67438
318.23987
313.01531
309.01613
305.80023
303.13191
300.87029
298.92403
297.23013
295.743
294.42844
293.25995
292.21657
291.28137
290.44048
289.68237
288.99738
288.37734
287.81529
287.30526
286.84209
286.42131
286.03903
285.69186
285.3768
285.09122
284.8328
284.59948
284.38944
284.20105
284.03285
283.88356
283.75203
283.63722
283.53821
283.4542
283.38445
283.32832
283.28527
283.25478
325.72313
318.33908
313.14788
309.17145
305.97066
303.31154
301.05444
299.10894
297.4128
295.92111
294.60019
293.42403
292.37205
291.42762
290.57714
289.8093
289.11459
288.48498
287.91361
287.39457
286.92277
286.49377
286.10373
285.74925
285.42735
285.13542
284.87113
284.63241
284.41744
284.22458
284.05237
283.89952
283.76486
283.64736
283.54608
283.4602
283.389
283.33181
283.28807
283.25728
325.76718
318.42876
313.26787
309.31226
306.1255
303.47514
301.22259
299.27825
297.58054
296.08512
294.75878
293.57592
292.51632
291.56364
290.70451
289.92782
289.22423
288.58581
288.00582
287.47842
286.99858
286.56191
286.16458
285.80323
285.4749
285.17697
284.90711
284.66328
284.44363
284.24653
284.07052
283.91428
283.77665
283.65658
283.55313
283.46548
283.39289
283.33468
283.2903
283.25922
325.80707
318.50998
313.37665
309.44011
306.26633
303.62426
301.37623
299.43333
297.73457
296.23609
294.90512
293.71642
292.65007
291.69
290.82307
290.03833
289.32661
288.68011
288.09215
287.557
287.06968
286.62584
286.22169
285.85389
285.5195
285.21591
284.9408
284.69213
284.46805
284.26693
284.08729
283.92784
283.78738
283.66487
283.55937
283.47003
283.39612
283.33695
283.29195
283.2606
325.84325
318.58365
313.47539
309.55631
306.39455
303.76028
301.51665
299.57538
297.87598
296.37502
295.04009
293.84628
292.77395
291.80727
290.93328
290.14124
289.42208
288.76814
288.17284
287.6305
287.13622
286.68569
286.27516
285.90131
285.56123
285.25231
284.97225
284.719
284.49073
284.28579
284.10273
283.94021
283.79707
283.67225
283.56479
283.47385
283.39868
283.33861
283.29303
283.26142
325.8761
318.65055
313.56512
309.66202
306.51136
303.88441
301.64504
299.70552
298.0058
296.50282
295.1645
293.96622
292.88858
291.91596
291.03561
290.23692
289.51097
288.8502
288.24812
287.69913
287.19838
286.74161
286.32511
285.9456
285.60016
285.28622
285.0015
284.74393
284.51169
284.30315
284.11683
283.95142
283.80574
283.67872
283.5694
283.47695
283.40059
283.33965
283.29352
283.26167
325.90597
318.71136
313.64674
309.75826
306.61784
303.99773
301.76244
299.82473
298.12494
296.62032
295.27911
294.0769
292.99454
292.01661
291.13051
290.32577
289.59361
288.92656
288.31822
287.76307
287.25631
286.79374
286.37167
285.98685
285.63639
285.31774
285.02861
284.76697
284.53099
284.31904
284.12964
283.96149
283.8134
283.68429
283.57322
283.47932
283.40184
283.34008
283.29343
283.26136
325.93313
318.76667
313.72102
309.84594
306.71495
304.10121
301.86982
299.93394
298.23425
296.72832
295.38461
294.17897
293.09241
292.1097
291.21839
290.40815
289.67031
288.99749
288.38339
287.82254
287.3102
286.84222
286.41495
286.02516
285.66999
285.34691
285.05365
284.78817
284.54866
284.33348
284.14118
283.97044
283.82006
283.68898
283.57624
283.48099
283.40244
283.3399
283.29277
283.26049
325.95785
318.81702
313.78867
309.92584
306.80354
304.19573
301.96801
300.03395
298.33452
296.82753
295.48168
294.273
293.1827
292.19569
291.29967
290.48442
289.74138
289.06327
288.44385
287.87773
287.36021
286.8872
286.45508
286.06064
285.70107
285.37383
285.07668
284.80758
284.56475
284.34654
284.15149
283.97829
283.82576
283.69281
283.5785
283.48195
283.4024
283.33913
283.29154
283.25907
325.98034
318.86286
313.85029
309.99868
306.88437
304.28205
302.05781
300.12552
298.42644
296.9186
295.5709
294.35955
293.26591
292.27503
291.37474
290.55493
289.80714
289.12416
288.49984
287.92884
287.40653
286.92883
286.49218
286.09341
285.72971
285.39858
285.09777
284.82528
284.5793
284.35823
284.16059
283.98508
283.83051
283.6958
283.58
283.48224
283.40173
283.33778
283.28976
283.25711
326.00082
318.9046
313.90643
310.06509
306.95812
304.36089
302.1399
300.20933
298.51067
297.00216
295.65286
294.43915
293.34252
292.34815
291.44399
290.62002
289.86787
289.18043
288.55158
287.97607
287.44931
286.96726
286.52639
286.12357
285.75601
285.42122
285.11699
284.8413
284.59238
284.36861
284.16854
283.99084
283.83435
283.69798
283.58077
283.48186
283.40045
283.33585
283.28743
283.25462
326.01945
318.94261
313.95758
310.12563
307.0254
304.43287
302.21492
300.286
298.58781
297.07876
295.72808
294.51227
293.41296
292.41545
291.50776
290.68
289.92387
289.23231
288.5993
288.01962
287.48872
287.00263
286.55784
286.15124
285.78007
285.44186
285.13441
284.85573
284.60404
284.37773
284.17535
283.9956
283.8373
283.69936
283.58083
283.48083
283.39858
283.33337
283.28457
283.2516
326.03639
318.97722
314.00418
310.1808
307.08677
304.49857
302.28345
300.35609
298.6584
297.14892
295.79704
294.57937
293.47765
292.47729
291.56641
290.73519
289.9754
289.28007
288.64321
288.05967
287.52495
287.0351
286.58665
286.17653
285.80198
285.46057
285.15011
284.86861
284.61432
284.38563
284.18109
283.9994
283.83939
283.69997
283.58019
283.47918
283.39613
283.33035
283.2812
283.24809
326.0518
319.00872
314.04662
310.23108
307.14271
304.55851
302.34602
300.42014
298.72294
297.21313
295.86019
294.64086
293.53698
292.53404
291.62025
290.78587
290.02273
289.32392
288.68352
288.09641
287.55814
287.0648
286.61295
286.19954
285.82185
285.47744
285.16416
284.88003
284.62329
284.39236
284.18579
284.00228
283.84066
283.69985
283.5789
283.47692
283.39313
283.32681
283.27733
283.2441
326.0658
319.03738
314.08525
310.27687
307.19369
304.61316
302.4031
300.47861
298.78191
297.27183
295.91797
294.69715
293.59132
292.58604
291.6696
290.83232
290.0661
289.3641
288.72042
288.13002
287.58846
287.09188
286.63687
286.22039
285.83976
285.49256
285.17663
284.89003
284.631
284.39796
284.18949
284.00427
283.84114
283.69902
283.57697
283.47409
283.3896
283.32278
283.27298
283.23964
326.0785
319.06344
314.12039
310.31854
307.24011
304.66295
302.45513
300.53194
298.83573
297.32544
295.97075
294.74861
293.641
292.6336
291.71473
290.8748
290.10577
289.40082
288.75413
288.16067
287.61607
287.11648
286.65852
286.23919
285.85582
285.506
285.1876
284.89869
284.63751
284.4025
284.19223
284.00541
283.84086
283.69752
283.57442
283.4707
283.38555
283.31826
283.26818
283.23473
326.09002
319.08712
314.15234
310.35645
307.28235
304.70827
302.50252
300.58054
298.88479
297.37432
296.01891
294.79556
293.68636
292.67702
291.75594
290.91358
290.14195
289.43429
288.78482
288.18854
287.64111
287.13873
286.67803
286.25605
285.87011
285.51786
285.19715
284.90607
284.64288
284.40603
284.19407
284.00574
283.83986
283.69537
283.5713
283.46678
283.38102
283.31329
283.26295
283.2294
326.10045
319.1086
314.18135
310.39089
307.32074
304.74949
302.54563
300.62476
298.92945
297.41884
296.06278
294.83835
293.72769
292.71658
291.79348
290.94889
290.17488
289.46472
288.81267
288.21378
287.66373
287.15876
286.69552
286.27106
285.88274
285.5282
285.20534
284.91224
284.64717
284.40858
284.19505
284.00531
283.83818
283.69261
283.56763
283.46236
283.37602
283.30789
283.2573
283.22367
326.10989
319.12809
314.20768
310.42215
307.3556
304.78692
302.5848
300.66495
298.97005
297.45931
296.10267
294.87726
293.76527
292.75254
291.82759
290.98096
290.20475
289.49228
288.83786
288.23655
287.68408
287.1767
286.71109
286.28433
285.89379
285.53713
285.21225
284.91725
284.65043
284.41022
284.19522
284.00415
283.83585
283.68926
283.56343
283.45747
283.37059
283.30207
283.25126
283.21755
326.11841
319.14572
314.23153
310.45048
307.38721
304.82087
302.62033
300.70142
299.00689
297.49605
296.13888
294.91257
293.79937
292.78516
291.85851
291.00999
290.23176
289.51717
288.86055
288.25701
287.70229
287.19267
286.72487
286.29596
285.90335
285.54471
285.21795
284.92119
284.65271
284.41099
284.19461
284.0023
283.8329
283.68537
283.55874
283.45213
283.36475
283.29587
283.24485
283.21107
326.12609
319.16167
314.25311
310.47613
307.41583
304.85162
302.65252
300.73445
299.04028
297.52934
296.17168
294.94455
293.83024
292.81467
291.88645
291.03621
290.25611
289.53956
288.8809
288.27529
287.71849
287.2068
286.73695
286.30605
285.91151
285.55102
285.22251
284.9241
284.65408
284.41094
284.19327
283.9998
283.82938
283.68096
283.55358
283.44636
283.35851
283.28931
283.23809
283.20426
326.13299
319.17606
314.27261
310.49931
307.44171
304.87942
302.68162
300.76432
299.07046
297.55942
296.20132
294.97343
293.8581
292.84129
291.91163
291.05979
290.27797
289.5596
288.89907
288.29154
287.73281
287.2192
286.74745
286.31469
285.91836
285.55615
285.226
284.92604
284.65459
284.41013
284.19125
283.9967
283.82532
283.67607
283.54799
283.44021
283.35192
283.28241
283.23102
283.19713
326.13919
319.18903
314.29018
310.52022
307.46505
304.9045
302.70787
300.79127
299.09768
297.58655
296.22803
294.99945
293.88318
292.86521
291.93423
291.08091
290.29751
289.57747
288.9152
288.30589
287.74537
287.22997
286.75645
286.32197
285.92397
285.56015
285.22848
284.92709
284.6543
284.40859
284.18859
283.99303
283.82076
283.67073
283.542
283.43369
283.345
283.2752
283.22365
283.18972
326.14473
319.20068
314.306
310.53904
307.48606
304.92708
302.73151
300.81553
299.12217
297.61095
296.25204
295.02282
293.90567
292.88665
291.95444
291.09976
290.31489
289.59329
288.92942
288.31847
287.75628
287.23922
286.76407
286.32798
285.92842
285.56311
285.23002
284.92729
284.65325
284.40639
284.18533
283.98882
283.81572
283.66497
283.53563
283.42683
283.33776
283.26771
283.216
283.18203
326.14967
319.21112
314.32019
310.55593
307.50492
304.94736
302.75273
300.83729
299.14415
297.63283
296.27355
295.04373
293.92578
292.90577
291.97242
291.11649
290.33026
289.60723
288.94186
288.32939
287.76566
287.24706
286.77038
286.3328
285.9318
285.5651
285.23068
284.9267
284.65149
284.40356
284.18152
283.98413
283.81025
283.65883
283.52892
283.41966
283.33024
283.25994
283.2081
283.17411
326.15406
319.22046
314.33289
310.57106
307.52182
304.96551
302.77172
300.85677
299.16379
297.65237
296.29275
295.06236
293.94366
292.92274
291.98835
291.13125
290.34376
289.6194
288.95265
288.33876
287.77361
287.25357
286.77548
286.33652
285.93417
285.56617
285.23052
284.92538
284.64908
284.40015
284.1772
283.97898
283.80437
283.65233
283.52189
283.4122
283.32246
283.25194
283.19998
283.16596
326.15795
319.22877
314.34421
310.58456
307.5369
304.98171
302.78867
300.87414
299.1813
297.66977
296.30981
295.0789
293.9595
292.93773
292.00236
291.14419
290.35553
289.62994
288.96191
288.34671
287.78022
287.25886
286.77946
286.3392
285.9356
285.5664
285.2296
284.92337
284.64607
284.3962
284.17239
283.97342
283.79813
283.6455
283.51457
283.40449
283.31445
283.24372
283.19164
283.15761
326.16137
319.23615
314.35428
310.59656
307.55031
304.99612
302.80372
300.88956
299.19683
297.68518
296.32491
295.09349
293.97344
292.95088
292.01461
291.15543
290.3657
289.63896
288.96974
288.35332
287.78561
287.26301
286.78239
286.34093
285.93617
285.56585
285.22798
284.92074
284.6425
284.39175
284.16716
283.96746
283.79155
283.63837
283.50699
283.39654
283.30622
283.23531
283.18313
283.14908
326.16437
319.24266
314.36319
310.60719
307.56218
305.00887
302.81705
300.90319
299.21054
297.69876
296.33818
295.10629
293.98563
292.96234
292.02522
291.16511
290.37437
289.64658
288.97626
288.35871
287.78985
287.2661
286.78434
286.34178
285.93593
285.56457
285.22571
284.91753
284.63841
284.38685
284.16152
283.96116
283.78466
283.63098
283.49918
283.38839
283.29781
283.22672
283.17445
283.14039
326.16697
319.24839
314.37104
310.61656
307.57264
305.0201
302.82877
300.91517
299.22257
297.71066
296.34978
295.11745
293.99621
292.97223
292.03433
291.17335
290.38168
289.6529
288.98155
288.36295
287.79303
287.26822
286.78541
286.34181
285.93495
285.56262
285.22283
284.91378
284.63385
284.38154
284.15551
283.95454
283.7775
283.62335
283.49115
283.38004
283.28923
283.21799
283.16564
283.13157
326.16922
319.25339
314.37791
310.62476
307.58181
305.02993
302.83902
300.92563
299.23305
297.721
296.35983
295.12707
294.0053
292.98067
292.04204
291.18025
290.38771
289.65801
288.98572
288.36614
287.79523
287.26944
286.78564
286.34108
285.93329
285.56006
285.21941
284.90955
284.62885
284.37584
284.14918
283.94763
283.77008
283.6155
283.48294
283.37154
283.28051
283.20912
283.1567
283.12263
326.17113
319.25772
314.38388
310.6319
307.58979
305.03848
302.84793
300.93471
299.24212
297.72992
296.36846
295.1353
294.01301
292.98778
292.04847
291.18593
290.39258
289.66203
288.98885
288.36836
287.79654
287.26982
286.78512
286.33966
285.931
285.55693
285.21549
284.90487
284.62347
284.36981
284.14255
283.94047
283.76245
283.60746
283.47457
283.3629
283.27167
283.20015
283.14766
283.11359
326.17275
319.26145
314.38903
310.63807
307.59667
305.04585
302.8556
300.9425
299.24989
297.73753
296.37579
295.14224
294.01947
292.99367
292.05371
291.19047
290.39637
289.66502
288.99102
288.36969
287.79701
287.26945
286.7839
286.33761
285.92814
285.55329
285.2111
284.89979
284.61773
284.36346
284.13565
283.93308
283.75462
283.59926
283.46605
283.35414
283.26273
283.19108
283.13854
283.10448
326.17408
319.26461
314.39343
310.64334
307.60256
305.05215
302.86213
300.94911
299.25646
297.74393
296.38192
295.148
294.02477
292.99843
292.05787
291.19397
290.39917
289.66708
288.99231
288.3702
287.79673
287.26837
286.78203
286.33497
285.92475
285.54919
285.20631
284.89434
284.61167
284.35684
284.12852
283.92549
283.74663
283.59092
283.45742
283.34528
283.2537
283.18195
283.12935
283.0953
326.17517
319.26726
314.39714
310.64779
307.60752
305.05745
302.86761
300.95465
299.26193
297.74923
296.38695
295.15267
294.029
293.00216
292.06103
291.19652
290.40106
289.66829
288.9928
288.36996
287.79575
287.26666
286.77959
286.33181
285.92089
285.54466
285.20113
284.88856
284.60533
284.34998
284.12118
283.91772
283.73849
283.58246
283.4487
283.33635
283.24461
283.17276
283.12012
283.08608
326.17603
319.26945
314.40021
310.65149
307.61165
305.06185
302.87215
300.95921
299.2664
297.75352
296.39097
295.15634
294.03226
293.00494
292.06329
291.1982
290.40212
289.66871
288.99256
288.36904
287.79414
287.26436
286.77661
286.32817
285.9166
285.53974
285.19562
284.88249
284.59873
284.3429
284.11366
283.90981
283.73023
283.5739
283.4399
283.32735
283.23547
283.16353
283.11086
283.07683
326.17667
319.2712
314.40271
310.6545
307.615
305.06541
302.87581
300.96286
299.26995
297.75688
296.39406
295.15911
294.03463
293.00686
292.0647
291.19907
290.40242
289.66841
288.99164
288.36749
287.79195
287.26153
286.77315
286.32409
285.91192
285.53448
285.18981
284.87616
284.59191
284.33563
284.10598
283.90177
283.72187
283.56527
283.43103
283.31831
283.2263
283.15428
283.10158
283.06757
326.17712
319.27257
314.40468
310.65688
307.61766
305.06822
302.87867
300.96569
299.27266
297.7594
296.39632
295.16104
294.03618
293.00798
292.06536
291.19922
290.40203
289.66746
288.99011
288.36537
287.78924
287.25823
286.76926
286.31962
285.9069
285.52892
285.18373
284.86959
284.5849
284.3282
284.09818
283.89362
283.71342
283.55657
283.42213
283.30925
283.21712
283.14503
283.0923
283.05831
326.1774
319.27358
314.40617
310.65869
307.61968
305.07034
302.88081
300.96776
299.2746
297.76114
296.39781
295.16221
294.03699
293.00839
292.06532
291.1987
290.40101
289.66591
288.98802
288.36274
287.78605
287.25449
286.76497
286.3148
285.90156
285.52308
285.17742
284.86283
284.57772
284.32063
284.09026
283.88539
283.70492
283.54784
283.41321
283.30017
283.20794
283.13579
283.08304
283.04907
326.17752
319.27426
314.40722
310.65998
307.62111
305.07183
302.88228
300.96915
299.27585
297.76218
296.39859
295.16269
294.03712
293.00813
292.06464
291.19758
290.39942
289.66383
288.98544
288.35964
287.78244
287.25036
286.76034
286.30967
285.89594
285.517
285.1709
284.8559
284.57039
284.31295
284.08226
283.8771
283.69638
283.53908
283.40428
283.2911
283.19878
283.12656
283.0738
283.03985
326.17749
319.27465
314.40787
310.6608
307.62201
305.07275
302.88315
300.96992
299.27646
297.76258
296.39874
295.16255
294.03664
293.00729
292.0634
291.19591
290.39731
289.66126
288.98239
288.35612
287.77844
287.24588
286.75539
286.30426
285.89009
285.51071
285.16421
284.84881
284.56295
284.30518
284.07419
283.86876
283.68781
283.53032
283.39535
283.28205
283.18964
283.11738
283.06459
283.03067
326.17733
319.27477
314.40816
310.66119
307.62242
305.07314
302.88347
300.97012
299.27649
297.7624
296.39831
295.16183
294.03561
293.0059
292.06163
291.19375
290.39473
289.65825
288.97894
288.35222
287.7741
287.24109
286.75016
286.29861
285.88402
285.50424
285.15736
284.84161
284.55542
284.29734
284.06607
283.8604
283.67923
283.52155
283.38644
283.27303
283.18054
283.10823
283.05544
283.02154
326.17706
319.27464
314.40813
310.66118
307.6224
305.07306
302.8833
300.9698
299.27599
297.7617
296.39735
295.16059
294.03406
293.00402
292.0594
291.19114
290.39173
289.65484
288.97513
288.34799
287.76945
287.23603
286.74469
286.29274
285.87776
285.49762
285.15038
284.8343
284.5478
284.28944
284.05792
283.85202
283.67066
283.51281
283.37756
283.26405
283.17149
283.09915
283.04635
283.01247
326.17667
319.2743
314.40779
310.66082
307.62199
305.07256
302.88267
300.96902
299.27503
297.76051
296.39593
295.1589
294.03207
293.00171
292.05675
291.18813
290.38835
289.65109
288.97099
288.34346
287.76453
287.23073
286.73901
286.28668
285.87135
285.49086
285.1433
284.82692
284.54013
284.28151
284.04975
283.84365
283.6621
283.5041
283.36873
283.25513
283.1625
283.09012
283.03732
283.00348
326.17619
319.27376
314.40718
310.66013
307.62121
305.07166
302.88163
300.96782
299.27363
297.7589
296.39407
295.15677
294.02966
292.99899
292.05371
291.18476
290.38463
289.64701
288.96655
288.33866
287.75937
287.22521
286.73314
286.28047
285.8648
285.484
285.13614
284.81947
284.53242
284.27356
284.04158
283.83529
283.65357
283.49544
283.35995
283.24627
283.15358
283.08118
283.02838
282.99456
326.17563
319.27304
314.40633
310.65916
307.62011
305.07042
302.88023
300.96624
299.27185
297.7569
296.39183
295.15428
294.02689
292.99593
292.05034
291.18107
290.38062
289.64266
288.96187
288.33364
287.754
287.21951
286.72711
286.27412
285.85815
285.47705
285.12891
284.81198
284.52469
284.26561
284.03343
283.82695
283.64509
283.48683
283.35124
283.23748
283.14474
283.07231
283.01952
282.98572
326.17498
319.27215
314.40527
310.65793
307.61872
305.06886
302.8785
300.96431
299.26973
297.75455
296.38925
295.15144
294.02378
292.99255
292.04667
291.1771
290.37633
289.63807
288.95695
288.3284
287.74846
287.21365
286.72095
286.26766
285.8514
285.47003
285.12163
284.80446
284.51695
284.25766
284.0253
283.81866
283.63666
283.47828
283.3426
283.22877
283.13599
283.06354
283.01075
282.97698
326.17427
319.27112
314.404
310.65647
307.61706
305.06702
302.87647
300.96209
299.26729
297.75189
296.38636
295.1483
294.02039
292.98888
292.04273
291.17287
290.37181
289.63325
288.95184
288.323
287.74276
287.20766
286.71467
286.26111
285.84459
285.46296
285.11432
284.79693
284.50921
284.24973
284.0172
283.81042
283.62828
283.4698
283.33404
283.22014
283.12733
283.05486
283.00208
282.96834
326.17349
319.26996
314.40256
310.65479
307.61517
305.06493
302.87417
300.95958
299.26457
297.74896
296.38319
295.1449
294.01673
292.98497
292.03855
291.16842
290.36709
289.62825
288.94656
288.31744
287.73692
287.20156
286.70831
286.25449
285.83772
285.45586
285.107
284.7894
284.50149
284.24184
284.00915
283.80223
283.61998
283.4614
283.32556
283.21161
283.11877
283.04629
282.99351
282.9598
326.17265
319.26869
314.40096
310.65293
307.61308
305.06261
302.87164
300.95684
299.26161
297.74578
296.37978
295.14125
294.01284
292.98083
292.03416
291.16378
290.36219
289.62309
288.94114
288.31175
287.73098
287.19536
286.70187
286.24781
285.83081
285.44874
285.09967
284.78188
284.4938
284.23399
284.00116
283.79411
283.61176
283.45309
283.31718
283.20319
283.11031
283.03782
282.98505
282.95138
326.17177
319.26731
314.39922
310.6509
307.61079
305.06009
302.8689
300.95388
299.25843
297.74237
296.37615
295.13739
294.00876
292.97651
292.02959
291.15897
290.35713
289.61778
288.93559
288.30596
287.72495
287.18909
286.69537
286.2411
285.82389
285.44161
285.09236
284.77439
284.48614
284.22619
283.99323
283.78607
283.60362
283.44487
283.3089
283.19486
283.10196
283.02947
282.97671
282.94306
326.17084
319.26584
314.39736
310.64872
307.60834
305.0574
302.86597
300.95072
299.25506
297.73878
296.37234
295.13335
294.00449
292.97201
292.02487
291.15401
290.35194
289.61236
288.92993
288.30008
287.71884
287.18277
286.68883
286.23435
285.81695
285.43449
285.08506
284.76693
284.47854
284.21845
283.98537
283.77811
283.59557
283.43675
283.30073
283.18665
283.09372
283.02123
282.96848
282.93486
326.16988
319.26429
314.39539
310.64641
307.60575
305.05454
302.86287
300.9474
299.25151
297.73501
296.36835
295.12915
294.00007
292.96737
292.02001
291.14893
290.34664
289.60684
288.9242
288.29413
287.71268
287.17641
286.68227
286.2276
285.81002
285.42739
285.0778
284.75952
284.47099
284.21078
283.97759
283.77023
283.58761
283.42873
283.29266
283.17854
283.0856
283.01311
282.96037
282.92679
326.16888
319.26267
314.39332
310.64399
307.60302
305.05155
302.85964
300.94393
299.24782
297.7311
296.36423
295.12481
293.99552
292.96261
292.01503
291.14374
290.34124
289.60124
288.91839
288.28812
287.70648
287.17001
286.6757
286.22085
285.8031
285.42031
285.07058
284.75216
284.4635
284.20318
283.96989
283.76245
283.57975
283.42081
283.2847
283.17056
283.0776
283.0051
282.95239
282.91883
326.16785
319.26098
314.39117
310.64146
307.60018
305.04844
302.85627
300.94033
299.24399
297.72706
296.35997
295.12035
293.99085
292.95774
292.00996
291.13847
290.33577
289.59557
288.91253
288.28208
287.70025
287.16361
286.66912