/*--------------------------------*- C++ -*----------------------------------*\
| =========                 |                                                 |
| \\      /  F ield         | OpenFOAM: The Open Source CFD Toolbox           |
|  \\    /   O peration     | Version:  2506                                  |
|   \\  /    A nd           | Website:  www.openfoam.com                      |
|    \\/     M anipulation  |                                                 |
\*---------------------------------------------------------------------------*/
FoamFile
{
    version     2.0;
    format      ascii;
    arch        "LSB;label=32;scalar=64";
    class       volScalarField;
    location    "28000/water";
    object      alphat;
}
// * * * * * * * * * * * * * * * * * * * * * * * * * * * * * * * * * * * * * //

dimensions      [1 -1 -1 0 0 0 0];

internalField   nonuniform List<scalar> 
1000
(
0.038690245
0.038689577
0.038688046
0.038679676
0.038634252
0.038395956
0.037190881
0.031863289
0.019099264
0.016301307
0.036437656
0.036436968
0.036430539
0.036397696
0.036243742
0.035561448
0.032798672
0.024476355
0.014644251
0.017654592
0.034756095
0.034752688
0.034735392
0.034658264
0.034338316
0.033096043
0.028914325
0.020078523
0.014287388
0.017671293
0.033455039
0.033447371
0.03341324
0.033276591
0.032760738
0.030940145
0.025770065
0.018272319
0.015952278
0.017301532
0.032418332
0.032405139
0.032350677
0.032150526
0.031437439
0.029070433
0.023556342
0.018636197
0.01886181
0.01692572
0.031571667
0.031552637
0.031479594
0.031226152
0.030328079
0.027485165
0.022554978
0.020803635
0.02227886
0.016666259
0.030866455
0.030843487
0.030761488
0.03047791
0.029401964
0.026291947
0.023061592
0.024243792
0.025541362
0.016525215
0.03027085
0.030249444
0.030178143
0.029894433
0.028644149
0.025787175
0.025138339
0.028280596
0.028305094
0.016463216
0.029764733
0.029755538
0.029725661
0.029468599
0.028106986
0.026357016
0.028508372
0.032334665
0.030519316
0.016442695
0.029337065
0.029357535
0.029409785
0.02919676
0.027981021
0.028237305
0.032681297
0.03608079
0.032267658
0.016440713
0.028984757
0.029060656
0.0292414
0.029099718
0.028583613
0.03137509
0.037164809
0.039413793
0.033659274
0.016446409
0.028712556
0.028878736
0.029233271
0.029270615
0.030215478
0.035478635
0.041608815
0.042341721
0.03478784
0.016455615
0.028533655
0.028833136
0.029403558
0.029913234
0.033002878
0.04016139
0.045828079
0.044910571
0.035723396
0.016467075
0.028470752
0.028951028
0.02979584
0.031304007
0.036852143
0.045075324
0.049751444
0.047172222
0.03651533
0.016480524
0.028557145
0.029264126
0.030516252
0.03367597
0.041511929
0.049976922
0.05336563
0.049173942
0.037197762
0.016495909
0.028837299
0.029812424
0.031757653
0.037114153
0.046676242
0.054725954
0.056681717
0.050955481
0.037793721
0.016513133
0.029366647
0.030660662
0.033764631
0.041531168
0.052070968
0.059252798
0.059719546
0.052547796
0.038312931
0.016531934
0.030212282
0.031928138
0.036741808
0.046714536
0.057495158
0.063527143
0.062500619
0.053971469
0.038771696
0.016552021
0.031460353
0.033808027
0.040769087
0.052403177
0.062820325
0.067538685
0.065043735
0.055249852
0.039180726
0.0165732
0.033237155
0.036537609
0.045775496
0.058353775
0.067969886
0.071286995
0.067367526
0.056402425
0.039547836
0.016595306
0.035735248
0.040316833
0.051571447
0.064375178
0.072897823
0.074772855
0.069492411
0.057443945
0.039878964
0.016618165
0.039206682
0.045225819
0.057910246
0.070331031
0.077571947
0.078006057
0.071435139
0.058386199
0.040178372
0.016641582
0.043889481
0.051191396
0.064546331
0.076124193
0.081973908
0.08099738
0.073209188
0.059238374
0.040449106
0.016665355
0.049893866
0.058010516
0.071268339
0.08168312
0.086094713
0.083755163
0.074825056
0.06000735
0.040693263
0.016689281
0.057121535
0.065404946
0.07790586
0.086957385
0.089927624
0.086284908
0.076290159
0.060697907
0.040912143
0.016713151
0.065268309
0.073076531
0.084332317
0.091909529
0.093464404
0.088588797
0.077608866
0.061312894
0.041106336
0.016736744
0.07390571
0.080753374
0.090453304
0.09650658
0.096694985
0.090665805
0.078782746
0.061853439
0.041275815
0.016759828
0.082590875
0.088206045
0.096192721
0.10071981
0.099608354
0.092512495
0.079811142
0.06231928
0.041420048
0.016782142
0.090951664
0.09525294
0.10148967
0.10452589
0.10219441
0.094124527
0.080692159
0.062709315
0.041538207
0.016803409
0.098724363
0.10176097
0.10629849
0.10790867
0.10444632
0.095498621
0.081424026
0.063022364
0.041629474
0.016823341
0.10575247
0.10764359
0.11058982
0.11086091
0.10636266
0.096634562
0.082006562
0.063258061
0.041693409
0.01684166
0.11196576
0.1128561
0.1143511
0.11338524
0.10794894
0.097536736
0.082442433
0.06341764
0.041730296
0.016858126
0.11735507
0.11738878
0.11758589
0.1154941
0.1092179
0.098214848
0.082737864
0.063504425
0.041741347
0.016872561
0.12195051
0.12125881
0.12031183
0.11720863
0.11018901
0.098683747
0.082902692
0.063523909
0.041728716
0.016884864
0.1258053
0.12450237
0.1225578
0.11855697
0.11088704
0.098962544
0.082949845
0.063483457
0.041695348
0.016895014
0.12898468
0.12716778
0.1243607
0.11957208
0.11134047
0.099073332
0.082894472
0.063391774
0.041644723
0.016903069
0.13155867
0.12930994
0.12576239
0.12028984
0.11157972
0.09903984
0.082752966
0.063258298
0.041580574
0.016909146
0.13359759
0.13098628
0.12680712
0.12074721
0.1116358
0.098886228
0.082542058
0.06309263
0.04150665
0.016913415
0.13516935
0.13225398
0.12753951
0.1209809
0.11153911
0.098636102
0.082278058
0.062904061
0.041426511
0.016916076
0.13633784
0.13316805
0.12800305
0.12102631
0.11131859
0.098311775
0.081976272
0.062701204
0.041343394
0.016917348
0.13716218
0.13378022
0.12823906
0.12091676
0.11100113
0.097933723
0.08165057
0.062491731
0.041260107
0.016917457
0.13769632
0.13413825
0.12828599
0.12068302
0.11061114
0.097520224
0.0813131
0.062282193
0.041178971
0.016916622
0.13798885
0.13428556
0.12817896
0.12035288
0.11017029
0.097087152
0.080974139
0.062077947
0.041101789
0.016915047
0.13808315
0.13426108
0.12794957
0.11995108
0.10969741
0.096647912
0.080642062
0.061883147
0.041029861
0.016912918
0.13801748
0.13409934
0.1276258
0.1194992
0.1092085
0.096213467
0.080323325
0.061700564
0.040962956
0.016910384
0.13782533
0.13383058
0.12723211
0.11901579
0.10871685
0.09579244
0.080022492
0.061531226
0.04090218
0.01690757
0.13753573
0.13348107
0.12678961
0.11851649
0.10823318
0.095391215
0.079742045
0.061377169
0.040847976
0.0169046
0.13717364
0.13307338
0.12631631
0.11801427
0.10776581
0.095013883
0.079485059
0.061239158
0.040800489
0.016901577
0.13676038
0.13262672
0.12582728
0.11751949
0.1073206
0.094664712
0.07925297
0.061117405
0.040759635
0.016898584
0.13631394
0.13215718
0.12533477
0.1170401
0.10690329
0.094346125
0.079046337
0.061011689
0.040725154
0.016895685
0.13584919
0.13167789
0.12484887
0.11658349
0.10651761
0.094059381
0.078865028
0.060921439
0.040696665
0.01689293
0.13537847
0.1312001
0.1243784
0.11615497
0.10616592
0.093804803
0.078708355
0.060845812
0.040673702
0.016890353
0.13491224
0.13073314
0.12393015
0.11575831
0.10584941
0.093581938
0.078575186
0.060783769
0.040655745
0.016887978
0.13445901
0.13028448
0.12350923
0.1153959
0.1055683
0.093389714
0.078464058
0.060734142
0.040642252
0.016885819
0.13402547
0.12985981
0.12311922
0.11506898
0.10532199
0.093226571
0.078373275
0.060695687
0.04063267
0.01688388
0.13361675
0.12946332
0.12276243
0.11477782
0.10510926
0.0930906
0.078300998
0.060667136
0.040626461
0.016882163
0.1332365
0.12909787
0.12244009
0.1145219
0.10492839
0.09297966
0.078245326
0.060647241
0.040623112
0.01688066
0.1328872
0.12876519
0.12215251
0.11430009
0.10477735
0.092891485
0.078204364
0.06063481
0.040622153
0.016879362
0.13257028
0.12846608
0.12189928
0.11411079
0.10465384
0.092823774
0.078176282
0.060628729
0.04062316
0.016878259
0.13228632
0.1282006
0.12167941
0.11395207
0.1045555
0.092774245
0.078159339
0.06062798
0.040625761
0.016877337
0.1320352
0.12796813
0.12149146
0.11382176
0.10447985
0.092740679
0.078151896
0.060631633
0.040629627
0.016876583
0.13181619
0.12776757
0.12133364
0.11371748
0.10442444
0.092720927
0.07815242
0.060638834
0.040634461
0.016875983
0.13162809
0.12759738
0.12120384
0.11363678
0.10438679
0.092712931
0.078159475
0.060648803
0.040639992
0.016875522
0.13146929
0.12745567
0.12109975
0.1135771
0.10436451
0.092714739
0.078171732
0.060660827
0.040645976
0.016875184
0.13133785
0.12734029
0.12101894
0.11353592
0.10435527
0.092724534
0.078187985
0.060674273
0.040652198
0.016874954
0.1312316
0.12724892
0.1209589
0.11351074
0.10435692
0.092740661
0.078207163
0.060688596
0.040658479
0.016874816
0.13114825
0.12717918
0.12091716
0.11349923
0.10436747
0.092761647
0.078228343
0.06070334
0.040664678
0.016874756
0.13108545
0.12712865
0.12089132
0.1134992
0.10438511
0.092786206
0.078250746
0.060718142
0.040670691
0.016874762
0.13104087
0.12709498
0.12087912
0.11350861
0.10440826
0.092813221
0.078273718
0.060732705
0.04067644
0.016874823
0.13101223
0.12707592
0.12087842
0.11352564
0.10443547
0.092841728
0.078296711
0.060746793
0.040681863
0.016874927
0.13099733
0.12706929
0.12088721
0.11354859
0.10446549
0.092870892
0.078319261
0.060760208
0.040686913
0.016875065
0.13099408
0.12707305
0.12090364
0.11357596
0.10449721
0.092899999
0.078340981
0.060772783
0.040691502
0.016875229
0.13100047
0.12708529
0.12092603
0.11360639
0.10452966
0.092928447
0.078361549
0.060784355
0.040695603
0.016875408
0.13101469
0.12710426
0.12095283
0.11363869
0.10456203
0.092955747
0.078380701
0.060794849
0.040699237
0.016875597
0.13103503
0.12712835
0.12098272
0.11367186
0.10459365
0.092981501
0.078398273
0.060804264
0.04070242
0.016875789
0.13105998
0.12715615
0.12101451
0.11370505
0.10462397
0.093005432
0.078414219
0.060812608
0.040705176
0.016875981
0.1310882
0.12718643
0.1210472
0.11373754
0.10465258
0.093027412
0.078428513
0.060819913
0.040707535
0.016876169
0.1311185
0.12721809
0.12107991
0.11376876
0.10467922
0.093047347
0.078441167
0.060826223
0.040709523
0.01687635
0.13114986
0.1272502
0.12111196
0.11379833
0.10470371
0.093065197
0.078452217
0.060831592
0.04071117
0.016876522
0.13118141
0.12728199
0.12114281
0.11382591
0.10472593
0.093080964
0.078461722
0.060836076
0.040712501
0.016876683
0.13121244
0.12731286
0.12117202
0.1138513
0.1047458
0.09309469
0.078469758
0.060839738
0.040713542
0.016876832
0.13124237
0.12734232
0.12119928
0.11387435
0.10476334
0.093106453
0.078476419
0.060842647
0.040714322
0.016876967
0.13127078
0.12737
0.12122436
0.113895
0.1047786
0.093116361
0.078481815
0.060844879
0.040714872
0.016877089
0.13129733
0.12739564
0.12124713
0.11391325
0.10479168
0.093124547
0.078486066
0.060846512
0.040715223
0.016877196
0.13132183
0.12741908
0.12126754
0.11392917
0.1048027
0.093131159
0.078489297
0.060847626
0.040715407
0.01687729
0.13134412
0.12744023
0.1212856
0.11394285
0.10481182
0.093136349
0.078491629
0.060848295
0.040715453
0.016877371
0.13136416
0.12745907
0.12130136
0.11395441
0.10481919
0.093140267
0.078493177
0.060848586
0.040715384
0.01687744
0.13138194
0.12747564
0.12131491
0.11396399
0.10482496
0.093143058
0.078494047
0.060848558
0.040715221
0.016877498
0.1313975
0.12748999
0.12132636
0.11397175
0.10482931
0.093144861
0.078494338
0.060848264
0.040714982
0.016877545
0.13141092
0.12750223
0.12133584
0.11397784
0.10483238
0.09314581
0.078494142
0.060847755
0.040714682
0.016877582
0.13142231
0.12751248
0.12134352
0.11398244
0.10483435
0.093146037
0.078493549
0.060847077
0.040714337
0.01687761
0.13143179
0.12752089
0.12134956
0.11398572
0.10483538
0.09314567
0.078492645
0.060846277
0.040713963
0.016877631
0.13143954
0.12752763
0.12135415
0.11398787
0.10483562
0.093144832
0.078491511
0.060845398
0.040713577
0.016877644
0.13144573
0.12753289
0.12135746
0.11398906
0.10483522
0.093143634
0.078490218
0.060844477
0.040713191
0.016877652
0.13145054
0.12753684
0.12135968
0.11398944
0.10483431
0.093142173
0.078488828
0.060843545
0.040712816
0.016877655
0.13145414
0.12753966
0.12136097
0.11398918
0.10483302
0.093140529
0.07848739
0.060842625
0.040712459
0.016877654
0.1314567
0.1275415
0.12136148
0.11398838
0.10483143
0.09313877
0.078485939
0.060841732
0.040712121
0.016877651
0.13145835
0.12754252
0.12136135
0.11398716
0.10482963
0.093136947
0.078484504
0.060840876
0.040711806
0.016877644
0.13145923
0.12754284
0.12136068
0.11398562
0.10482769
0.093135105
0.078483108
0.060840065
0.040711513
0.016877636
0.13145946
0.12754258
0.12135958
0.11398385
0.10482568
0.093133282
0.078481768
0.060839303
0.040711241
0.016877626
)
;

boundaryField
{
    water_inlet
    {
        type            calculated;
        value           uniform 0.041850807;
    }
    water_outlet
    {
        type            calculated;
        value           nonuniform List<scalar> 10(0.13145946 0.12754258 0.12135958 0.11398385 0.10482568 0.093133282 0.078481768 0.060839303 0.040711241 0.016877626);
    }
    water_wedge1
    {
        type            wedge;
    }
    water_wedge2
    {
        type            wedge;
    }
    water_to_rock
    {
        type            compressible::alphatWallFunction;
        value           nonuniform List<scalar> 
100
(
0.0020384971
0.0022594581
0.0022621707
0.0022020357
0.0021407411
0.0020983181
0.0020752201
0.0020650583
0.0020616935
0.0020613684
0.0020623024
0.0020638119
0.0020656908
0.0020678958
0.0020704176
0.0020732402
0.0020763211
0.0020796123
0.0020830818
0.0020867024
0.0020904452
0.0020942785
0.0020981695
0.0021020852
0.0021059913
0.0021098521
0.0021136287
0.0021172785
0.0021207557
0.0021240134
0.0021270068
0.0021296973
0.0021320562
0.002134067
0.002135726
0.0021370422
0.0021380351
0.002138732
0.0021391662
0.0021393738
0.0021393916
0.0021392554
0.0021389984
0.0021386509
0.0021382369
0.0021377771
0.0021372917
0.0021367976
0.0021363085
0.002135835
0.0021353851
0.0021349644
0.0021345765
0.0021342238
0.002133907
0.0021336262
0.0021333804
0.0021331683
0.002132988
0.0021328375
0.0021327145
0.0021326167
0.0021325414
0.0021324861
0.0021324483
0.0021324257
0.0021324159
0.002132417
0.0021324269
0.002132444
0.0021324666
0.0021324932
0.0021325225
0.0021325532
0.0021325845
0.0021326158
0.0021326464
0.002132676
0.002132704
0.0021327303
0.0021327545
0.0021327765
0.0021327963
0.0021328139
0.0021328293
0.0021328426
0.0021328539
0.0021328633
0.002132871
0.0021328772
0.0021328818
0.0021328853
0.0021328876
0.002132889
0.0021328896
0.0021328896
0.0021328891
0.0021328881
0.0021328868
0.0021328852
)
;
    }
}


// ************************************************************************* //
