/*--------------------------------*- C++ -*----------------------------------*\
| =========                 |                                                 |
| \\      /  F ield         | OpenFOAM: The Open Source CFD Toolbox           |
|  \\    /   O peration     | Version:  2506                                  |
|   \\  /    A nd           | Website:  www.openfoam.com                      |
|    \\/     M anipulation  |                                                 |
\*---------------------------------------------------------------------------*/
FoamFile
{
    version     2.0;
    format      ascii;
    arch        "LSB;label=32;scalar=64";
    class       volScalarField;
    location    "28000/water";
    object      epsilon;
}
// * * * * * * * * * * * * * * * * * * * * * * * * * * * * * * * * * * * * * //

dimensions      [0 2 -3 0 0 0 0];

internalField   nonuniform List<scalar> 
1000
(
7.2399316e-05
7.2397808e-05
7.2397502e-05
7.2398682e-05
7.2424146e-05
7.2686938e-05
7.4736184e-05
8.8973294e-05
0.00019794853
0.0013048048
4.7739543e-05
4.7745807e-05
4.7746167e-05
4.7748745e-05
4.7810065e-05
4.8371229e-05
5.2145897e-05
7.5319325e-05
0.0002360734
0.0016574915
3.3261229e-05
3.326441e-05
3.3263962e-05
3.3272039e-05
3.3396639e-05
3.4348944e-05
3.9973158e-05
7.1502174e-05
0.00026550008
0.0016622
2.4212884e-05
2.4213778e-05
2.421353e-05
2.4236018e-05
2.4468827e-05
2.5979956e-05
3.408664e-05
7.6374958e-05
0.00030233495
0.0015600258
1.8263229e-05
1.8263302e-05
1.8265922e-05
1.8318446e-05
1.8730722e-05
2.1090712e-05
3.2935524e-05
9.0422848e-05
0.00035053483
0.0014605596
1.4183053e-05
1.4183388e-05
1.4193788e-05
1.4301414e-05
1.5003321e-05
1.8678172e-05
3.6168034e-05
0.00011337721
0.00040230486
0.0013944159
1.1285033e-05
1.1287109e-05
1.1313191e-05
1.1514088e-05
1.2672058e-05
1.8360676e-05
4.3854221e-05
0.00014255072
0.00044702309
0.0013593134
9.1651308e-06
9.1712237e-06
9.2251472e-06
9.576518e-06
1.1437677e-05
2.0107227e-05
5.5828219e-05
0.00017322844
0.00047957494
0.001344071
7.5754963e-06
7.5890767e-06
7.6892452e-06
8.2761046e-06
1.1198223e-05
2.4041246e-05
7.1186957e-05
0.00020099014
0.0005008069
0.0013390506
6.3585386e-06
6.3848726e-06
6.5589454e-06
7.5064234e-06
1.1984536e-05
3.0236131e-05
8.8277339e-05
0.00022355893
0.00051393007
0.0013385664
5.4111024e-06
5.4581713e-06
5.7474932e-06
7.236929e-06
1.3906677e-05
3.8515434e-05
0.00010524305
0.00024078277
0.00052197866
0.0013399582
4.6642397e-06
4.7441297e-06
5.210051e-06
7.4969403e-06
1.7086992e-05
4.8355534e-05
0.00012068228
0.00025359518
0.00052708025
0.0013422097
4.0714677e-06
4.2024396e-06
4.9349783e-06
8.3622555e-06
2.157545e-05
5.8975506e-05
0.00013393059
0.00026313407
0.00053055265
0.0013450162
3.6019035e-06
3.8114126e-06
4.9402416e-06
9.9351097e-06
2.7272231e-05
6.9567141e-05
0.00014492636
0.00027035442
0.00053316294
0.0013483149
3.2363932e-06
3.5653601e-06
5.2715506e-06
1.2311455e-05
3.390173e-05
7.951078e-05
0.00015392455
0.00027595639
0.00053534096
0.0013520946
2.9656643e-06
3.4742239e-06
5.9984096e-06
1.5537508e-05
4.1062774e-05
8.8461046e-05
0.00016127363
0.00028042539
0.00053731664
0.001356334
2.7900134e-06
3.5645542e-06
7.2040711e-06
1.9569981e-05
4.8330096e-05
9.6307058e-05
0.00016730378
0.00028408913
0.00053917759
0.0013609721
2.7202661e-06
3.8804183e-06
8.9663951e-06
2.4261445e-05
5.5350047e-05
0.00010308384
0.00017229236
0.00028715795
0.00054093705
0.0013659395
2.7797401e-06
4.481967e-06
1.1330808e-05
2.9383068e-05
6.1887515e-05
0.00010889379
0.00017645207
0.00028975402
0.00054267282
0.0013711899
3.0065693e-06
5.4387008e-06
1.4283611e-05
3.4675053e-05
6.7820875e-05
0.00011385665
0.0001799386
0.00029198049
0.00054443466
0.0013766842
3.4547929e-06
6.8148548e-06
1.7738614e-05
3.9899714e-05
7.3111836e-05
0.00011808669
0.00018285388
0.00029394154
0.00054623654
0.00138238
4.1911472e-06
8.6475871e-06
2.1546198e-05
4.4874669e-05
7.7769097e-05
0.00012165871
0.00018531776
0.00029569725
0.00054807356
0.0013882308
5.2835673e-06
1.0924818e-05
2.5521666e-05
4.947795e-05
8.1803561e-05
0.00012466926
0.0001874126
0.00029728365
0.00054993207
0.0013941879
6.7798707e-06
1.3574348e-05
2.9480172e-05
5.3622467e-05
8.5253008e-05
0.00012719915
0.00018919497
0.00029872067
0.00055179334
0.0014002011
8.6831571e-06
1.6473986e-05
3.3249931e-05
5.7259468e-05
8.8166984e-05
0.00012930763
0.00019070216
0.00030001659
0.00055363485
0.0014062184
1.0937739e-05
1.9464174e-05
3.6694105e-05
6.0377179e-05
9.0586621e-05
0.00013103655
0.00019195679
0.00030117073
0.00055543058
0.0014121841
1.3423217e-05
2.2384318e-05
3.9727001e-05
6.2977923e-05
9.2544851e-05
0.00013241432
0.0001929704
0.00030217556
0.00055715133
0.0014180371
1.5988107e-05
2.5103535e-05
4.230322e-05
6.507449e-05
9.4068777e-05
0.00013346001
0.00019374703
0.00030301901
0.00055876568
0.0014237098
1.8484567e-05
2.7531439e-05
4.4410763e-05
6.6689322e-05
9.5183248e-05
0.00013418773
0.00019428693
0.00030368724
0.00056024188
0.001429129
2.0793706e-05
2.9617783e-05
4.6063574e-05
6.7854321e-05
9.5914493e-05
0.00013461099
0.00019459037
0.00030416786
0.00056155052
0.001434219
2.2836505e-05
3.1345723e-05
4.7294027e-05
6.8609933e-05
9.6292797e-05
0.00013474626
0.0001946612
0.00030445298
0.00056266757
0.0014389072
2.4572756e-05
3.2723021e-05
4.8145946e-05
6.9003177e-05
9.6353645e-05
0.00013461534
0.00019450933
0.00030454181
0.00056357702
0.0014431305
2.5993467e-05
3.3773707e-05
4.8668771e-05
6.9084946e-05
9.6137356e-05
0.00013424616
0.00019415199
0.00030444198
0.00056427265
0.0014468407
2.7111459e-05
3.4531254e-05
4.8913154e-05
6.8907195e-05
9.5687612e-05
0.00013367217
0.0001936136
0.00030416959
0.00056475858
0.001450009
2.7952855e-05
3.503349e-05
4.8927982e-05
6.8520479e-05
9.5049447e-05
0.00013293074
0.0001929244
0.00030374807
0.00056504839
0.0014526269
2.8550529e-05
3.531907e-05
4.8758557e-05
6.7972099e-05
9.4267176e-05
0.0001320611
0.00019211834
0.00030320606
0.00056516334
0.0014547063
2.8939562e-05
3.5425195e-05
4.8445638e-05
6.7304889e-05
9.3382621e-05
0.0001311021
0.00019123072
0.00030257487
0.00056512981
0.0014562759
2.9154357e-05
3.5386261e-05
4.802508e-05
6.6556567e-05
9.2433771e-05
0.00013009038
0.00019029589
0.00030188602
0.00056497659
0.0014573783
2.9226967e-05
3.5233158e-05
4.7527819e-05
6.5759527e-05
9.1453946e-05
0.00012905893
0.00018934545
0.00030116909
0.00056473244
0.0014580653
2.9186254e-05
3.4993009e-05
4.6980104e-05
6.4940934e-05
9.0471395e-05
0.00012803614
0.00018840685
0.00030045013
0.00056442419
0.0014583938
2.9057564e-05
3.4689196e-05
4.6403843e-05
6.4123037e-05
8.9509263e-05
0.00012704538
0.00018750278
0.0002997508
0.00056407544
0.0014584219
2.886274e-05
3.4341542e-05
4.5817011e-05
6.3323598e-05
8.8585821e-05
0.00012610502
0.00018665088
0.00029908799
0.00056370601
0.0014582064
2.8620306e-05
3.3966605e-05
4.5234093e-05
6.2556381e-05
8.7714871e-05
0.00012522864
0.00018586394
0.00029847397
0.00056333179
0.0014577999
2.8345751e-05
3.3578001e-05
4.4666509e-05
6.1831665e-05
8.6906248e-05
0.00012442552
0.00018515034
0.00029791674
0.00056296478
0.0014572501
2.8051855e-05
3.3186753e-05
4.4123031e-05
6.1156731e-05
8.6166341e-05
0.00012370114
0.00018451448
0.00029742038
0.00056260927
0.0014565951
2.7749012e-05
3.2801617e-05
4.3610159e-05
6.0536337e-05
8.5498675e-05
0.00012305791
0.00018395779
0.00029698498
0.00056226337
0.0014558678
2.7445553e-05
3.2429401e-05
4.313248e-05
5.9973159e-05
8.4904455e-05
0.00012249575
0.00018347851
0.00029660443
0.00056194
0.0014551001
2.7148035e-05
3.2075251e-05
4.2692985e-05
5.9468187e-05
8.4383e-05
0.00012201223
0.00018306993
0.00029628012
0.00056164595
0.0014543191
2.6861508e-05
3.1742916e-05
4.2293358e-05
5.9021065e-05
8.3932001e-05
0.00012160113
0.00018272926
0.0002960108
0.00056138412
0.0014535465
2.6589765e-05
3.1435003e-05
4.1934287e-05
5.8630206e-05
8.3546347e-05
0.00012125841
0.00018245244
0.00029579327
0.00056115511
0.0014527988
2.6335573e-05
3.1153194e-05
4.1615251e-05
5.8292214e-05
8.3222159e-05
0.00012097924
0.00018223426
0.00029562316
0.00056095804
0.0014520886
2.6100731e-05
3.0898045e-05
4.1334748e-05
5.8004105e-05
8.2954998e-05
0.00012075814
0.00018206892
0.00029549556
0.00056079116
0.0014514248
2.5886132e-05
3.0669445e-05
4.1091094e-05
5.7762533e-05
8.2740056e-05
0.00012058932
0.00018195038
0.00029540532
0.00056065224
0.001450813
2.569213e-05
3.0466868e-05
4.0882292e-05
5.7563891e-05
8.2572324e-05
0.00012046686
0.00018187259
0.00029534737
0.00056053879
0.0014502567
2.551865e-05
3.0289448e-05
4.0706099e-05
5.7404411e-05
8.2446737e-05
0.00012038493
0.00018182971
0.00029531686
0.00056044826
0.0014497572
2.5365273e-05
3.0136042e-05
4.0560088e-05
5.7280255e-05
8.2358285e-05
0.00012033788
0.00018181622
0.00029530927
0.00056037817
0.0014493144
2.5231307e-05
3.0005289e-05
4.0441718e-05
5.7187591e-05
8.2302105e-05
0.00012032037
0.00018182699
0.00029532045
0.0005603261
0.001448927
2.5115841e-05
2.9895667e-05
4.0348387e-05
5.7122658e-05
8.2273558e-05
0.0001203274
0.00018185734
0.00029534667
0.00056028977
0.0014485926
2.5017796e-05
2.9805543e-05
4.0277487e-05
5.7081823e-05
8.2268274e-05
0.00012035439
0.00018190304
0.00029538458
0.00056026701
0.0014483086
2.493597e-05
2.9733212e-05
4.022644e-05
5.7061619e-05
8.228219e-05
0.00012039716
0.00018196031
0.0002954312
0.00056025575
0.0014480716
2.4869077e-05
2.9676939e-05
4.0192744e-05
5.7058785e-05
8.2311583e-05
0.00012045197
0.00018202584
0.00029548393
0.00056025409
0.001447878
2.4815779e-05
2.963499e-05
4.0173998e-05
5.7070291e-05
8.235308e-05
0.00012051551
0.00018209675
0.00029554054
0.00056026025
0.0014477239
2.4774721e-05
2.9605664e-05
4.0167933e-05
5.7093358e-05
8.2403667e-05
0.0001205849
0.0001821706
0.00029559915
0.00056027268
0.0014476053
2.4744553e-05
2.9587314e-05
4.0172429e-05
5.7125467e-05
8.246069e-05
0.00012065765
0.00018224534
0.00029565819
0.00056029002
0.0014475183
2.4723953e-05
2.9578373e-05
4.018553e-05
5.7164365e-05
8.2521841e-05
0.00012073169
0.00018231929
0.00029571641
0.00056031107
0.0014474587
2.4711647e-05
2.957736e-05
4.0205455e-05
5.7208062e-05
8.2585141e-05
0.00012080528
0.00018239109
0.00029577281
0.0005603348
0.001447423
2.4706424e-05
2.9582901e-05
4.0230596e-05
5.7254821e-05
8.2648922e-05
0.00012087701
0.00018245969
0.00029582658
0.00056036029
0.0014474076
2.4707141e-05
2.959373e-05
4.0259523e-05
5.7303147e-05
8.2711796e-05
0.00012094574
0.00018252426
0.00029587711
0.00056038673
0.0014474093
2.4712741e-05
2.9608695e-05
4.0290978e-05
5.7351776e-05
8.2772642e-05
0.00012101061
0.00018258421
0.00029592397
0.0005604134
0.0014474249
2.4722251e-05
2.9626765e-05
4.0323873e-05
5.7399661e-05
8.2830575e-05
0.00012107098
0.00018263914
0.00029596684
0.00056043971
0.0014474518
2.4734791e-05
2.9647024e-05
4.0357282e-05
5.7445953e-05
8.2884929e-05
0.00012112643
0.00018268883
0.00029600556
0.00056046519
0.0014474875
2.4749573e-05
2.9668673e-05
4.039043e-05
5.7489987e-05
8.2935228e-05
0.00012117669
0.0001827332
0.00029604008
0.00056048927
0.0014475294
2.47659e-05
2.9691025e-05
4.0422685e-05
5.7531263e-05
8.2981166e-05
0.00012122166
0.0001827723
0.00029607039
0.00056051126
0.0014475754
2.4783169e-05
2.9713499e-05
4.0453545e-05
5.7569427e-05
8.3022583e-05
0.00012126139
0.00018280625
0.0002960964
0.0005605311
0.0014476237
2.4800861e-05
2.9735615e-05
4.0482626e-05
5.760425e-05
8.3059441e-05
0.00012129599
0.00018283516
0.00029611824
0.00056054908
0.001447673
2.481854e-05
2.9756984e-05
4.0509648e-05
5.7635617e-05
8.30918e-05
0.00012132559
0.00018285922
0.00029613637
0.00056056533
0.0014477223
2.4835848e-05
2.9777302e-05
4.0534428e-05
5.7663509e-05
8.3119756e-05
0.00012135037
0.00018287887
0.00029615117
0.0005605799
0.0014477705
2.4852499e-05
2.9796343e-05
4.0556866e-05
5.7687939e-05
8.3143445e-05
0.00012137072
0.00018289454
0.00029616297
0.00056059282
0.001447817
2.4868274e-05
2.9813952e-05
4.0576891e-05
5.770898e-05
8.3163148e-05
0.00012138704
0.00018290665
0.00029617209
0.00056060413
0.0014478611
2.4883003e-05
2.9830006e-05
4.0594503e-05
5.7726797e-05
8.317918e-05
0.00012139972
0.00018291562
0.00029617886
0.0005606139
0.0014479024
2.4896558e-05
2.9844438e-05
4.0609759e-05
5.7741601e-05
8.3191877e-05
0.00012140918
0.00018292184
0.00029618356
0.00056062224
0.0014479405
2.4908863e-05
2.9857234e-05
4.0622763e-05
5.7753626e-05
8.3201582e-05
0.0001214158
0.00018292568
0.00029618648
0.00056062922
0.0014479751
2.4919881e-05
2.9868418e-05
4.0633649e-05
5.7763127e-05
8.3208638e-05
0.00012141997
0.0001829275
0.00029618789
0.00056063497
0.0014480063
2.4929614e-05
2.9878046e-05
4.064257e-05
5.7770362e-05
8.321338e-05
0.00012142204
0.00018292764
0.00029618803
0.00056063958
0.001448034
2.4938089e-05
2.9886196e-05
4.0649697e-05
5.7775592e-05
8.3216129e-05
0.00012142236
0.00018292638
0.00029618712
0.00056064316
0.0014480583
2.4945354e-05
2.9892967e-05
4.0655205e-05
5.7779071e-05
8.321719e-05
0.00012142123
0.00018292401
0.00029618538
0.0005606458
0.0014480792
2.4951478e-05
2.9898465e-05
4.0659274e-05
5.7781044e-05
8.3216847e-05
0.00012141895
0.00018292079
0.00029618297
0.00056064762
0.0014480971
2.495654e-05
2.9902808e-05
4.0662079e-05
5.7781746e-05
8.3215363e-05
0.00012141576
0.00018291692
0.00029618008
0.00056064874
0.001448112
2.4960626e-05
2.9906114e-05
4.0663792e-05
5.7781391e-05
8.3212978e-05
0.0001214119
0.00018291261
0.00029617686
0.00056064926
0.0014481241
2.4963829e-05
2.9908503e-05
4.0664576e-05
5.7780182e-05
8.3209906e-05
0.00012140758
0.00018290804
0.00029617344
0.00056064929
0.0014481338
2.4966243e-05
2.9910093e-05
4.0664585e-05
5.7778299e-05
8.3206336e-05
0.00012140297
0.00018290335
0.00029616993
0.00056064893
0.0014481412
2.4967961e-05
2.9910996e-05
4.066396e-05
5.7775903e-05
8.3202434e-05
0.00012139822
0.00018289865
0.00029616642
0.00056064826
0.0014481466
2.4969075e-05
2.9911319e-05
4.0662828e-05
5.7773139e-05
8.319834e-05
0.00012139345
0.00018289405
0.00029616298
0.00056064735
0.0014481504
2.496967e-05
2.9911159e-05
4.0661305e-05
5.7770128e-05
8.3194174e-05
0.00012138876
0.00018288962
0.00029615967
0.00056064625
0.0014481527
2.4969829e-05
2.9910608e-05
4.0659494e-05
5.7766979e-05
8.3190034e-05
0.00012138424
0.00018288542
0.00029615652
0.00056064501
0.0014481538
2.4969627e-05
2.9909748e-05
4.0657483e-05
5.7763781e-05
8.3186001e-05
0.00012137994
0.0001828815
0.00029615357
0.00056064368
0.0014481538
2.4969132e-05
2.9908652e-05
4.0655351e-05
5.7760609e-05
8.3182138e-05
0.00012137592
0.00018287787
0.00029615085
0.0005606423
0.001448153
2.4968409e-05
2.9907385e-05
4.0653164e-05
5.7757525e-05
8.3178497e-05
0.00012137221
0.00018287458
0.00029614837
0.0005606409
0.0014481514
2.4967514e-05
2.9906006e-05
4.0650978e-05
5.7754579e-05
8.3175114e-05
0.00012136883
0.00018287162
0.00029614614
0.00056063953
0.0014481494
2.49665e-05
2.9904569e-05
4.0648848e-05
5.7751819e-05
8.3172025e-05
0.0001213658
0.000182869
0.00029614413
0.00056063817
0.0014481469
)
;

boundaryField
{
    water_inlet
    {
        type            turbulentMixingLengthDissipationRateInlet;
        mixingLength    0.005;
        phi             phi;
        k               k;
        value           uniform 0.00011791765;
    }
    water_outlet
    {
        type            inletOutlet;
        inletValue      uniform 0.0001;
        value           nonuniform List<scalar> 10(2.49665e-05 2.9904569e-05 4.0648848e-05 5.7751819e-05 8.3172025e-05 0.0001213658 0.000182869 0.00029614413 0.00056063817 0.0014481469);
    }
    water_wedge1
    {
        type            wedge;
    }
    water_wedge2
    {
        type            wedge;
    }
    water_to_rock
    {
        type            epsilonWallFunction;
        blending        stepwise;
        value           nonuniform List<scalar> 
100
(
0.0013048048
0.0016574915
0.0016622
0.0015600258
0.0014605596
0.0013944159
0.0013593134
0.001344071
0.0013390506
0.0013385664
0.0013399582
0.0013422097
0.0013450162
0.0013483149
0.0013520946
0.001356334
0.0013609721
0.0013659395
0.0013711899
0.0013766842
0.00138238
0.0013882308
0.0013941879
0.0014002011
0.0014062184
0.0014121841
0.0014180371
0.0014237098
0.001429129
0.001434219
0.0014389072
0.0014431305
0.0014468407
0.001450009
0.0014526269
0.0014547063
0.0014562759
0.0014573783
0.0014580653
0.0014583938
0.0014584219
0.0014582064
0.0014577999
0.0014572501
0.0014565951
0.0014558678
0.0014551001
0.0014543191
0.0014535465
0.0014527988
0.0014520886
0.0014514248
0.001450813
0.0014502567
0.0014497572
0.0014493144
0.001448927
0.0014485926
0.0014483086
0.0014480716
0.001447878
0.0014477239
0.0014476053
0.0014475183
0.0014474587
0.001447423
0.0014474076
0.0014474093
0.0014474249
0.0014474518
0.0014474875
0.0014475294
0.0014475754
0.0014476237
0.001447673
0.0014477223
0.0014477705
0.001447817
0.0014478611
0.0014479024
0.0014479405
0.0014479751
0.0014480063
0.001448034
0.0014480583
0.0014480792
0.0014480971
0.001448112
0.0014481241
0.0014481338
0.0014481412
0.0014481466
0.0014481504
0.0014481527
0.0014481538
0.0014481538
0.001448153
0.0014481514
0.0014481494
0.0014481469
)
;
    }
}


// ************************************************************************* //
