/*--------------------------------*- C++ -*----------------------------------*\
| =========                 |                                                 |
| \\      /  F ield         | OpenFOAM: The Open Source CFD Toolbox           |
|  \\    /   O peration     | Version:  2506                                  |
|   \\  /    A nd           | Website:  www.openfoam.com                      |
|    \\/     M anipulation  |                                                 |
\*---------------------------------------------------------------------------*/
FoamFile
{
    version     2.0;
    format      ascii;
    arch        "LSB;label=32;scalar=64";
    class       volScalarField;
    location    "28000/water";
    object      k;
}
// * * * * * * * * * * * * * * * * * * * * * * * * * * * * * * * * * * * * * //

dimensions      [0 2 -2 0 0 0 0];

internalField   nonuniform List<scalar> 
1000
(
0.00017657855
0.00017657518
0.00017657131
0.00017655365
0.00017648098
0.00017625478
0.00017589507
0.00017764177
0.00020514192
0.00048657967
0.00013915035
0.00013915817
0.00013914641
0.00013908743
0.00013888206
0.0001383736
0.00013797747
0.00014325063
0.00019616751
0.00057072179
0.00011343696
0.00011343683
0.00011340783
0.00011329561
0.00011298241
0.0001124902
0.00011342551
0.00012641409
0.00020548433
0.00057180212
9.4956345e-05
9.4947216e-05
9.4898275e-05
9.4747991e-05
9.4461182e-05
9.4591114e-05
9.8882587e-05
0.00012463565
0.00023169971
0.00054812313
8.1180941e-05
8.1164581e-05
8.1102165e-05
8.096705e-05
8.0960055e-05
8.2611658e-05
9.2930051e-05
0.00013695809
0.0002712859
0.00052456968
7.0599818e-05
7.0579371e-05
7.052347e-05
7.0504799e-05
7.1168223e-05
7.5593826e-05
9.5291381e-05
0.00016203262
0.0003158596
0.00050861035
6.2267978e-05
6.2250532e-05
6.2239515e-05
6.2499613e-05
6.4399383e-05
7.3303662e-05
0.0001061012
0.00019613493
0.00035649789
0.00050003836
5.5571434e-05
5.5570244e-05
5.5667648e-05
5.6450649e-05
6.038886e-05
7.5971018e-05
0.00012498708
0.00023351987
0.00038871429
0.00049629329
5.0098705e-05
5.0135845e-05
5.044029e-05
5.2102996e-05
5.9190451e-05
8.3984002e-05
0.0001502991
0.00026896237
0.00041247014
0.00049505673
4.5567683e-05
4.5677873e-05
4.6337532e-05
4.9391682e-05
6.1095939e-05
9.7486548e-05
0.00017920256
0.0002996429
0.00042964098
0.00049493737
4.1782813e-05
4.2019052e-05
4.3252207e-05
4.841629e-05
6.6518158e-05
0.00011597913
0.00020865684
0.00032501752
0.00044223052
0.00049528039
3.8609691e-05
3.9051465e-05
4.1174625e-05
4.9422864e-05
7.580843e-05
0.00013818996
0.0002364201
0.00034572017
0.00045177486
0.00049583504
3.5960371e-05
3.6725409e-05
4.0189494e-05
5.2767117e-05
8.9027832e-05
0.00016237164
0.000261382
0.00036268767
0.00045931494
0.00049652594
3.3785898e-05
3.5046523e-05
4.0478264e-05
5.8837778e-05
0.0001057698
0.00018682779
0.00028329995
0.00037677308
0.00046551915
0.00049733743
3.2074359e-05
3.4079204e-05
4.2316014e-05
6.7933612e-05
0.00012516052
0.00021031378
0.00030238116
0.00038864913
0.00047080775
0.00049826643
3.085377e-05
3.3954513e-05
4.6048154e-05
8.011806e-05
0.00014606362
0.00023213609
0.00031898711
0.00039881738
0.00047543914
0.00049930742
3.0199537e-05
3.4878945e-05
5.203433e-05
9.5115706e-05
0.00016736961
0.0002520307
0.00033348868
0.00040763787
0.00047952204
0.00050044507
3.0245963e-05
3.7136078e-05
6.0556276e-05
0.00011231928
0.00018821082
0.00026998828
0.0003462144
0.00041534836
0.00048317085
0.00050166201
3.1199947e-05
4.1069007e-05
7.1707717e-05
0.00013091739
0.00020802789
0.00028611974
0.00035742595
0.00042213392
0.00048649148
0.00050294668
3.3351663e-05
4.7031368e-05
8.5311092e-05
0.00015007661
0.00022652176
0.00030057601
0.00036733088
0.00042814982
0.00048955806
0.0005042893
3.7070579e-05
5.5302081e-05
0.00010091006
0.0001690885
0.00024356848
0.00031350352
0.0003760891
0.00043353341
0.00049241613
0.00050567934
4.2767756e-05
6.5979748e-05
0.00011785092
0.00018743215
0.00025913486
0.00032501674
0.00038387023
0.00043837796
0.0004950916
0.00050710525
5.080586e-05
7.8899738e-05
0.00013541297
0.00020475625
0.0002732083
0.00033526262
0.00039079784
0.00044274844
0.00049759837
0.00050855497
6.136267e-05
9.3623057e-05
0.00015292669
0.00022080531
0.00028583345
0.0003443641
0.0003969614
0.00044668855
0.0004999418
0.00051001622
7.4303407e-05
0.00010951525
0.00016980497
0.0002354219
0.00029707733
0.000352411
0.00040242229
0.00045022485
0.00050212031
0.00051147629
8.9142525e-05
0.00012582789
0.00018559451
0.00024853448
0.00030699062
0.00035946416
0.00040721838
0.00045336945
0.00050412617
0.00051292174
0.00010508416
0.00014184768
0.00019999773
0.00026010134
0.00031560805
0.00036556045
0.00041136835
0.00045612256
0.00050594624
0.0005143379
0.00012123681
0.00015699527
0.00021282752
0.00027010511
0.00032295395
0.00037071976
0.0004148769
0.00045847548
0.0005075632
0.00051570863
0.00013679806
0.00017085339
0.00022398813
0.00027855442
0.00032905144
0.00037495381
0.00041774131
0.00046041479
0.00050895762
0.00051701647
0.0001511639
0.00018316263
0.00023345992
0.00028548736
0.00033393247
0.00037827598
0.00041995903
0.00046192766
0.00051011118
0.00051824345
0.00016395703
0.00019379974
0.0002412852
0.00029097299
0.00033764589
0.00038071024
0.00042153532
0.00046300749
0.00051101025
0.00051937232
0.00017500059
0.00020274922
0.00024755403
0.00029510921
0.00034026182
0.0003822974
0.00042248917
0.00046365875
0.00051164924
0.00052038816
0.0001842693
0.00021007415
0.00025239036
0.00029801736
0.00034187155
0.00038309764
0.00042285653
0.00046389984
0.00051203269
0.00052127972
0.00019183958
0.00021589013
0.00025593929
0.00029983481
0.0003425839
0.00038318921
0.00042269023
0.0004637634
0.00051217561
0.00052204037
0.00019784839
0.00022034362
0.00025835633
0.00030070711
0.00034251939
0.00038266444
0.00042205721
0.00046329436
0.00051210213
0.00052266846
0.0002024632
0.00022359554
0.00025979869
0.00030078086
0.00034180368
0.0003816241
0.00042103399
0.00046254645
0.0005118432
0.00052316706
0.00020586176
0.00022580941
0.00026041902
0.00030019797
0.00034056157
0.00038017167
0.00041970155
0.00046157804
0.00051143366
0.00052354333
0.00020821932
0.00022714345
0.00026036094
0.00029909143
0.00033891208
0.00037840814
0.00041814058
0.0004604482
0.00051090956
0.00052380756
0.00020970121
0.00022774567
0.00025975642
0.00029758272
0.00033696498
0.00037642802
0.00041642751
0.00045921335
0.0005103058
0.00052397222
0.00021045892
0.00022775118
0.00025872424
0.00029578021
0.0003348185
0.00037431653
0.00041463159
0.00045792474
0.00050965446
0.00052405095
0.00021062832
0.00022728095
0.00025736952
0.00029377867
0.00033255819
0.00037214787
0.00041281306
0.00045662682
0.00050898354
0.00052405769
0.00021032936
0.00022644159
0.00025578375
0.0002916593
0.00033025659
0.00036998447
0.00041102216
0.00045535635
0.0005083163
0.00052400602
0.00020966653
0.00022532568
0.00025404537
0.0002894903
0.00032797355
0.00036787703
0.00040929902
0.00045414221
0.00050767112
0.00052390859
0.00020872972
0.0002240126
0.0002522205
0.00028732772
0.00032575691
0.00036586506
0.00040767401
0.00045300564
0.00050706146
0.00052377682
0.00020759544
0.00022256951
0.00025036399
0.00028521647
0.00032364359
0.00036397767
0.00040616831
0.00045195988
0.00050648787
0.00052361986
0.00020632804
0.00022105242
0.00024852047
0.00028319157
0.00032166076
0.00036223495
0.00040479496
0.00045100877
0.00050595639
0.00052344557
0.00020498105
0.00021950745
0.00024672549
0.00028127933
0.00031982722
0.00036064895
0.00040355827
0.00045015513
0.00050547562
0.00052326158
0.00020359846
0.00021797194
0.00024500669
0.00027949856
0.0003181544
0.00035922386
0.00040245861
0.00044940285
0.00050504952
0.00052307436
0.00020221591
0.00021647557
0.0002433848
0.00027786154
0.00031664694
0.00035795862
0.00040149652
0.00044875179
0.00050467892
0.00052288908
0.0002008618
0.00021504141
0.00024187466
0.00027637454
0.00031530382
0.00035685184
0.00040066894
0.00044819874
0.0005043625
0.00052270975
0.00019955833
0.00021368679
0.0002404853
0.00027503867
0.00031412331
0.00035589874
0.00039996981
0.00044773832
0.00050409752
0.00052253936
0.0001983221
0.00021242349
0.00023922144
0.00027385346
0.00031310053
0.00035509186
0.00039939102
0.00044736375
0.00050388031
0.00052238006
0.00019716473
0.00021125927
0.00023808515
0.00027281558
0.00031222817
0.00035442178
0.00039892307
0.00044706733
0.00050370668
0.00052223324
0.0001960943
0.00021019879
0.00023707583
0.00027191942
0.00031149708
0.00035387777
0.00039855565
0.00044684095
0.00050357212
0.00052209973
0.00019511582
0.00020924401
0.00023619061
0.00027115757
0.00031089678
0.00035344828
0.00039827806
0.00044667639
0.0005034721
0.00052197985
0.00019423173
0.00020839459
0.00023542477
0.00027052128
0.000310416
0.00035312141
0.0003980796
0.00044656558
0.00050340215
0.00052187358
0.0001934423
0.00020764831
0.00023477215
0.00027000086
0.00031004301
0.00035288526
0.00039794985
0.00044650081
0.00050335801
0.00052178058
0.00019274601
0.00020700142
0.00023422554
0.00026958608
0.00030976604
0.0003527282
0.00039787887
0.00044647486
0.00050333575
0.00052170033
0.00019213991
0.00020644897
0.00023377696
0.00026926645
0.00030957348
0.00035263917
0.00039785741
0.00044648113
0.00050333176
0.00052163213
0.00019161988
0.00020598514
0.00023341798
0.00026903149
0.00030945416
0.00035260771
0.00039787691
0.0004465136
0.00050334282
0.0005215752
0.00019118097
0.00020560346
0.00023313994
0.00026887094
0.00030939744
0.00035262415
0.0003979296
0.0004465669
0.00050336602
0.00052152869
0.00019081754
0.00020529703
0.00023293412
0.00026877485
0.00030939334
0.00035267958
0.00039800844
0.0004466362
0.00050339873
0.00052149167
0.00019052354
0.00020505872
0.00023279191
0.00026873375
0.00030943256
0.00035276588
0.0003981071
0.00044671719
0.00050343858
0.00052146319
0.00019029261
0.00020488129
0.00023270496
0.00026873872
0.00030950656
0.00035287573
0.00039821998
0.00044680609
0.00050348343
0.00052144228
0.00019011827
0.00020475759
0.00023266523
0.00026878145
0.0003096076
0.00035300263
0.00039834216
0.0004468996
0.00050353143
0.00052142801
0.00018999406
0.00020468062
0.00023266516
0.00026885435
0.00030972878
0.0003531409
0.00039846946
0.00044699496
0.00050358099
0.00052141944
0.00018991364
0.00020464368
0.00023269774
0.00026895056
0.00030986401
0.00035328568
0.00039859835
0.00044708989
0.00050363083
0.00052141575
0.00018987092
0.00020464047
0.00023275651
0.000269064
0.00031000805
0.00035343289
0.00039872596
0.00044718259
0.00050367995
0.00052141613
0.00018986015
0.0002046651
0.00023283567
0.00026918931
0.00031015643
0.00035357912
0.00039884996
0.00044727162
0.00050372753
0.00052141989
0.00018987592
0.00020471219
0.00023293002
0.00026932186
0.00031030538
0.00035372162
0.00039896854
0.00044735589
0.00050377294
0.00052142635
0.00018991327
0.00020477683
0.00023303497
0.00026945768
0.00031045179
0.00035385817
0.00039908027
0.00044743456
0.00050381565
0.00052143491
0.00018996765
0.00020485461
0.00023314649
0.00026959341
0.00031059311
0.00035398703
0.00039918406
0.00044750695
0.00050385488
0.00052144499
0.00019003494
0.00020494164
0.00023326116
0.0002697263
0.00031072736
0.00035410693
0.00039927917
0.00044757246
0.00050389016
0.00052145604
0.00019011149
0.00020503448
0.00023337605
0.0002698541
0.00031085301
0.00035421696
0.00039936505
0.00044763075
0.00050392157
0.00052146765
0.0001901941
0.00020513021
0.00023348875
0.0002699751
0.00031096902
0.00035431656
0.0003994414
0.00044768192
0.00050394936
0.00052147951
0.00019027999
0.00020522634
0.00023359735
0.00027008802
0.00031107467
0.00035440539
0.0003995083
0.00044772635
0.00050397373
0.00052149134
0.00019036682
0.00020532083
0.00023370035
0.00027019195
0.00031116953
0.00035448347
0.00039956617
0.00044776442
0.00050399488
0.00052150293
0.00019045263
0.00020541203
0.00023379661
0.00027028628
0.00031125348
0.00035455118
0.00039961553
0.00044779657
0.000504013
0.00052151411
0.00019053585
0.00020549865
0.00023388527
0.00027037068
0.00031132677
0.00035460902
0.00039965691
0.00044782323
0.00050402828
0.00052152471
0.00019061519
0.00020557964
0.00023396581
0.00027044519
0.0003113898
0.00035465758
0.00039969092
0.00044784485
0.00050404091
0.00052153463
0.00019068965
0.00020565431
0.00023403798
0.00027051003
0.00031144312
0.00035469754
0.00039971817
0.00044786188
0.0005040511
0.00052154379
0.00019075852
0.00020572218
0.00023410178
0.00027056558
0.00031148736
0.00035472962
0.00039973934
0.0004478748
0.00050405907
0.00052155212
0.00019082136
0.00020578307
0.00023415736
0.00027061237
0.00031152326
0.00035475458
0.00039975507
0.00044788408
0.00050406506
0.00052155961
0.00019087792
0.00020583695
0.00023420506
0.000270651
0.00031155157
0.00035477321
0.00039976605
0.0004478902
0.0005040693
0.00052156626
0.00019092817
0.00020588396
0.00023424531
0.00027068216
0.00031157311
0.00035478627
0.0003997729
0.00044789361
0.00050407205
0.00052157208
0.00019097219
0.00020592437
0.00023427862
0.00027070656
0.00031158864
0.00035479451
0.00039977625
0.00044789475
0.00050407352
0.00052157712
0.0001910102
0.00020595853
0.00023430556
0.00027072491
0.00031159895
0.00035479863
0.00039977667
0.00044789401
0.00050407391
0.0005215814
0.0001910425
0.00020598687
0.00023432673
0.00027073794
0.00031160476
0.00035479929
0.00039977466
0.00044789172
0.00050407341
0.00052158497
0.00019106945
0.00020600986
0.00023434272
0.00027074632
0.00031160675
0.00035479709
0.0003997707
0.0004478882
0.00050407216
0.00052158788
0.00019109146
0.00020602797
0.00023435415
0.00027075072
0.00031160557
0.00035479258
0.0003997652
0.00044788374
0.00050407031
0.0005215902
0.00019110898
0.00020604173
0.00023436159
0.00027075177
0.00031160181
0.00035478627
0.00039975856
0.00044787859
0.00050406802
0.00052159197
0.00019112246
0.00020605163
0.00023436562
0.00027075006
0.00031159603
0.00035477863
0.00039975113
0.00044787299
0.00050406541
0.00052159326
0.00019113236
0.00020605819
0.00023436679
0.00027074613
0.00031158872
0.00035477006
0.00039974321
0.00044786716
0.00050406261
0.00052159415
0.00019113914
0.00020606189
0.0002343656
0.00027074049
0.00031158032
0.00035476093
0.00039973508
0.00044786126
0.00050405972
0.00052159468
0.00019114324
0.00020606318
0.00023436252
0.00027073357
0.00031157122
0.00035475154
0.00039972695
0.00044785545
0.00050405685
0.00052159492
0.00019114508
0.0002060625
0.00023435797
0.00027072576
0.00031156175
0.00035474213
0.000399719
0.00044784984
0.00050405403
0.00052159492
0.00019114505
0.00020606021
0.00023435232
0.00027071738
0.00031155215
0.00035473291
0.00039971134
0.00044784449
0.00050405132
0.00052159471
0.00019114348
0.00020605667
0.00023434588
0.00027070871
0.00031154266
0.00035472401
0.00039970409
0.00044783947
0.00050404874
0.00052159434
0.00019114069
0.00020605218
0.00023433894
0.00027069998
0.00031153345
0.00035471557
0.00039969731
0.0004478348
0.00050404632
0.00052159384
0.00019113698
0.00020604702
0.00023433174
0.0002706914
0.00031152466
0.00035470767
0.00039969102
0.00044783047
0.00050404402
0.00052159325
)
;

boundaryField
{
    water_inlet
    {
        type            turbulentIntensityKineticEnergyInlet;
        intensity       0.05;
        value           uniform 0.000234375;
    }
    water_outlet
    {
        type            inletOutlet;
        inletValue      uniform 0.0001;
        value           nonuniform List<scalar> 10(0.00019113698 0.00020604702 0.00023433174 0.0002706914 0.00031152466 0.00035470767 0.00039969102 0.00044783047 0.00050404402 0.00052159325);
    }
    water_wedge1
    {
        type            wedge;
    }
    water_wedge2
    {
        type            wedge;
    }
    water_to_rock
    {
        type            kqRWallFunction;
        value           nonuniform List<scalar> 
100
(
0.00048657967
0.00057072179
0.00057180212
0.00054812313
0.00052456968
0.00050861035
0.00050003836
0.00049629329
0.00049505673
0.00049493737
0.00049528039
0.00049583504
0.00049652594
0.00049733743
0.00049826643
0.00049930742
0.00050044507
0.00050166201
0.00050294668
0.0005042893
0.00050567934
0.00050710525
0.00050855497
0.00051001622
0.00051147629
0.00051292174
0.0005143379
0.00051570863
0.00051701647
0.00051824345
0.00051937232
0.00052038816
0.00052127972
0.00052204037
0.00052266846
0.00052316706
0.00052354333
0.00052380756
0.00052397222
0.00052405095
0.00052405769
0.00052400602
0.00052390859
0.00052377682
0.00052361986
0.00052344557
0.00052326158
0.00052307436
0.00052288908
0.00052270975
0.00052253936
0.00052238006
0.00052223324
0.00052209973
0.00052197985
0.00052187358
0.00052178058
0.00052170033
0.00052163213
0.0005215752
0.00052152869
0.00052149167
0.00052146319
0.00052144228
0.00052142801
0.00052141944
0.00052141575
0.00052141613
0.00052141989
0.00052142635
0.00052143491
0.00052144499
0.00052145604
0.00052146765
0.00052147951
0.00052149134
0.00052150293
0.00052151411
0.00052152471
0.00052153463
0.00052154379
0.00052155212
0.00052155961
0.00052156626
0.00052157208
0.00052157712
0.0005215814
0.00052158497
0.00052158788
0.0005215902
0.00052159197
0.00052159326
0.00052159415
0.00052159468
0.00052159492
0.00052159492
0.00052159471
0.00052159434
0.00052159384
0.00052159325
)
;
    }
}


// ************************************************************************* //
