/*--------------------------------*- C++ -*----------------------------------*\
| =========                 |                                                 |
| \\      /  F ield         | OpenFOAM: The Open Source CFD Toolbox           |
|  \\    /   O peration     | Version:  2506                                  |
|   \\  /    A nd           | Website:  www.openfoam.com                      |
|    \\/     M anipulation  |                                                 |
\*---------------------------------------------------------------------------*/
FoamFile
{
    version     2.0;
    format      ascii;
    arch        "LSB;label=32;scalar=64";
    class       volScalarField;
    location    "28000/water";
    object      nut;
}
// * * * * * * * * * * * * * * * * * * * * * * * * * * * * * * * * * * * * * //

dimensions      [0 2 -1 0 0 0 0];

internalField   nonuniform List<scalar> 
1000
(
3.8760013e-05
3.8759344e-05
3.875781e-05
3.8749425e-05
3.8703919e-05
3.8465194e-05
3.7257946e-05
3.1920746e-05
1.9133705e-05
1.6330702e-05
3.6503362e-05
3.6502673e-05
3.6496233e-05
3.646333e-05
3.6309098e-05
3.5625574e-05
3.2857816e-05
2.4520492e-05
1.4670658e-05
1.7686427e-05
3.4818769e-05
3.4815355e-05
3.4798028e-05
3.4720761e-05
3.4400236e-05
3.3155724e-05
2.8966465e-05
2.011473e-05
1.4313152e-05
1.7703159e-05
3.3515366e-05
3.3507685e-05
3.3473492e-05
3.3336597e-05
3.2819813e-05
3.0995938e-05
2.5816535e-05
1.8305269e-05
1.5981043e-05
1.7332731e-05
3.2476791e-05
3.2463573e-05
3.2409014e-05
3.2208501e-05
3.1494128e-05
2.9122854e-05
2.3598819e-05
1.8669803e-05
1.8895822e-05
1.6956242e-05
3.1628598e-05
3.1609534e-05
3.1536359e-05
3.128246e-05
3.0382768e-05
2.7534728e-05
2.2595651e-05
2.0841149e-05
2.2319034e-05
1.6696313e-05
3.0922114e-05
3.0899105e-05
3.0816959e-05
3.0532869e-05
2.9454983e-05
2.6339358e-05
2.3103178e-05
2.4287509e-05
2.5587419e-05
1.6555014e-05
3.0325436e-05
3.0303991e-05
3.0232562e-05
2.994834e-05
2.8695801e-05
2.5833676e-05
2.518367e-05
2.8331593e-05
2.8356135e-05
1.6492904e-05
2.9818406e-05
2.9809194e-05
2.9779264e-05
2.9521738e-05
2.815767e-05
2.6404544e-05
2.8559779e-05
3.2392973e-05
3.057435e-05
1.6472346e-05
2.9389967e-05
2.9410474e-05
2.9462818e-05
2.9249408e-05
2.8031477e-05
2.8288224e-05
3.2740229e-05
3.6145852e-05
3.2325845e-05
1.647036e-05
2.9037024e-05
2.9113059e-05
2.929413e-05
2.9152192e-05
2.8635156e-05
3.1431667e-05
3.7231826e-05
3.9484865e-05
3.371997e-05
1.6476066e-05
2.8764332e-05
2.8930811e-05
2.9285986e-05
2.9323397e-05
3.0269964e-05
3.5542611e-05
4.1683846e-05
4.2418074e-05
3.4850571e-05
1.6485289e-05
2.8585108e-05
2.8885129e-05
2.945658e-05
2.9967175e-05
3.306239e-05
4.023381e-05
4.5910718e-05
4.4991556e-05
3.5787814e-05
1.6496769e-05
2.8522091e-05
2.9003233e-05
2.984957e-05
3.1360456e-05
3.6918597e-05
4.5156605e-05
4.9841158e-05
4.7257285e-05
3.6581176e-05
1.6510243e-05
2.860864e-05
2.9316896e-05
3.0571281e-05
3.3736696e-05
4.1586785e-05
5.0067042e-05
5.3461861e-05
4.9262615e-05
3.7264839e-05
1.6525656e-05
2.8889299e-05
2.9866183e-05
3.181492e-05
3.7181079e-05
4.6760411e-05
5.4824638e-05
5.6783928e-05
5.1047366e-05
3.7861873e-05
1.654291e-05
2.9419602e-05
3.0715951e-05
3.3825517e-05
4.1606059e-05
5.2164865e-05
5.9359646e-05
5.9827235e-05
5.2642552e-05
3.8382019e-05
1.6561746e-05
3.0266762e-05
3.1985713e-05
3.6808062e-05
4.6798774e-05
5.7598836e-05
6.3641698e-05
6.2613323e-05
5.4068793e-05
3.8841611e-05
1.6581869e-05
3.1517084e-05
3.3868991e-05
4.0842603e-05
5.2497673e-05
6.2933605e-05
6.7660474e-05
6.5161025e-05
5.5349481e-05
3.9251379e-05
1.6603085e-05
3.329709e-05
3.6603496e-05
4.5858041e-05
5.8459001e-05
6.8092453e-05
7.1415543e-05
6.7489006e-05
5.6504132e-05
3.9619151e-05
1.6625232e-05
3.5799687e-05
4.0389534e-05
5.1664443e-05
6.4491262e-05
7.3029276e-05
7.4907689e-05
6.9617723e-05
5.7547531e-05
3.9950875e-05
1.6648131e-05
3.9277382e-05
4.5307372e-05
5.8014672e-05
7.0457855e-05
7.7711828e-05
7.8146721e-05
7.1563954e-05
5.8491483e-05
4.0250823e-05
1.6671591e-05
4.3968624e-05
5.1283706e-05
6.4662724e-05
7.6261464e-05
8.2121727e-05
8.1143439e-05
7.3341202e-05
5.9345195e-05
4.0522046e-05
1.6695407e-05
4.9983837e-05
5.8115123e-05
7.1396853e-05
8.1830415e-05
8.6249963e-05
8.3906194e-05
7.4959984e-05
6.0115558e-05
4.0766643e-05
1.6719376e-05
5.722454e-05
6.5522887e-05
7.8046344e-05
8.7114191e-05
9.0089786e-05
8.6440501e-05
7.6427729e-05
6.080736e-05
4.0985917e-05
1.6743288e-05
6.5386004e-05
7.3208306e-05
8.4484389e-05
9.2075265e-05
9.3632943e-05
8.8748544e-05
7.7748814e-05
6.1423456e-05
4.1180461e-05
1.6766925e-05
7.403898e-05
8.0898992e-05
9.0616414e-05
9.6680605e-05
9.686935e-05
9.0829298e-05
7.8924811e-05
6.1964976e-05
4.1350246e-05
1.679005e-05
8.2739806e-05
8.8365102e-05
9.636618e-05
0.00010090144
9.9787972e-05
9.2679318e-05
7.9955061e-05
6.2431657e-05
4.1494739e-05
1.6812405e-05
9.1115672e-05
9.5424704e-05
0.00010167268
0.00010471438
0.00010237869
9.4294256e-05
8.0837667e-05
6.2822395e-05
4.1613111e-05
1.683371e-05
9.8902387e-05
0.00010194447
0.00010649017
0.00010810326
0.00010463466
9.5670828e-05
8.1570853e-05
6.3136009e-05
4.1704542e-05
1.6853678e-05
0.00010594316
0.0001078377
0.00011078924
0.00011106082
0.00010655446
9.6808818e-05
8.215444e-05
6.3372131e-05
4.1768593e-05
1.6872029e-05
0.00011216766
0.00011305961
0.00011455731
0.0001135897
0.00010814359
9.7712619e-05
8.2591097e-05
6.3531997e-05
4.1805546e-05
1.6888525e-05
0.00011756669
0.00011760046
0.00011779793
0.00011570236
0.00010941485
9.8391953e-05
8.2887061e-05
6.3618939e-05
4.1816617e-05
1.6902987e-05
0.00012217042
0.00012147746
0.00012052878
0.00011741999
0.0001103877
9.8861698e-05
8.3052186e-05
6.3638458e-05
4.1803963e-05
1.6915312e-05
0.00012603216
0.00012472688
0.00012277881
0.00011877075
0.000111087
9.9140998e-05
8.3099424e-05
6.3597933e-05
4.1770535e-05
1.692548e-05
0.00012921727
0.00012739709
0.00012458495
0.0001197877
0.00011154124
9.9251985e-05
8.3043951e-05
6.3506085e-05
4.1719818e-05
1.6933549e-05
0.0001317959
0.00012954311
0.00012598917
0.00012050675
0.00011178093
9.9218433e-05
8.290219e-05
6.3372369e-05
4.1655554e-05
1.6939637e-05
0.0001338385
0.00013122248
0.00012703579
0.00012096495
0.00011183711
9.9064544e-05
8.2690902e-05
6.3206402e-05
4.1581496e-05
1.6943914e-05
0.00013541309
0.00013249247
0.0001277695
0.00012119906
0.00011174024
9.8813967e-05
8.2426426e-05
6.3017492e-05
4.1501213e-05
1.6946579e-05
0.00013658369
0.00013340819
0.00012823388
0.00012124455
0.00011151932
9.8489055e-05
8.2124096e-05
6.281427e-05
4.1417946e-05
1.6947854e-05
0.00013740952
0.00013402146
0.00012847031
0.00012113481
0.00011120129
9.8110321e-05
8.1797806e-05
6.2604418e-05
4.1334509e-05
1.6947963e-05
0.00013794462
0.00013438014
0.00012851732
0.00012090064
0.0001108106
9.7696077e-05
8.1459728e-05
6.2394503e-05
4.1253226e-05
1.6947127e-05
0.00013823768
0.00013452771
0.0001284101
0.00012056991
0.00011036895
9.7262224e-05
8.1120155e-05
6.2189889e-05
4.1175906e-05
1.6945549e-05
0.00013833214
0.00013450319
0.00012818029
0.00012016739
0.00010989522
9.6822192e-05
8.0787479e-05
6.1994738e-05
4.1103848e-05
1.6943416e-05
0.00013826636
0.00013434115
0.00012785594
0.00011971469
0.00010940543
9.6386963e-05
8.0468168e-05
6.1811825e-05
4.1036822e-05
1.6940877e-05
0.00013807386
0.00013407191
0.00012746154
0.0001192304
0.00010891289
9.5965178e-05
8.0166793e-05
6.1642181e-05
4.0975937e-05
1.6938059e-05
0.00013778374
0.00013372177
0.00012701825
0.00011873021
0.00010842836
9.5563228e-05
7.9885839e-05
6.1487847e-05
4.0921635e-05
1.6935083e-05
0.000137421
0.00013331334
0.00012654409
0.00011822708
0.00010796013
9.5185217e-05
7.962839e-05
6.1349587e-05
4.0874063e-05
1.6932054e-05
0.000137007
0.00013286588
0.00012605418
0.00011773141
0.00010751413
9.4835415e-05
7.9395883e-05
6.1227614e-05
4.0833134e-05
1.6929056e-05
0.00013655975
0.00013239549
0.00012556078
0.00011725116
0.00010709606
9.4516254e-05
7.9188877e-05
6.1121708e-05
4.0798591e-05
1.6926152e-05
0.00013609416
0.00013191534
0.00012507401
0.00011679371
0.00010670969
9.4228993e-05
7.9007241e-05
6.1031295e-05
4.0770051e-05
1.6923392e-05
0.00013562259
0.00013143668
0.00012460269
0.00011636443
0.00010635736
9.3973956e-05
7.8850285e-05
6.0955532e-05
4.0747046e-05
1.692081e-05
0.00013515552
0.00013096889
0.00012415363
0.00011596705
0.00010604028
9.375069e-05
7.8716876e-05
6.0893377e-05
4.0729058e-05
1.6918431e-05
0.00013470147
0.00013051941
0.00012373194
0.00011560399
0.00010575866
9.3558118e-05
7.8605548e-05
6.084366e-05
4.071554e-05
1.6916268e-05
0.00013426716
0.00013009398
0.00012334123
0.00011527648
0.00010551191
9.3394681e-05
7.8514602e-05
6.0805136e-05
4.0705941e-05
1.6914326e-05
0.00013385769
0.00012969677
0.00012298381
0.0001149848
0.0001052988
9.3258465e-05
7.8442194e-05
6.0776534e-05
4.0699721e-05
1.6912605e-05
0.00013347676
0.00012933066
0.00012266088
0.00011472841
0.00010511761
9.3147325e-05
7.8386421e-05
6.0756603e-05
4.0696366e-05
1.69111e-05
0.00013312683
0.00012899738
0.00012237278
0.0001145062
0.00010496628
9.3058992e-05
7.8345386e-05
6.0744149e-05
4.0695404e-05
1.69098e-05
0.00013280934
0.00012869774
0.00012211909
0.00011431656
0.00010484256
9.2991158e-05
7.8317253e-05
6.0738057e-05
4.0696413e-05
1.6908694e-05
0.00013252487
0.00012843177
0.00012189883
0.00011415756
0.00010474404
9.294154e-05
7.8300279e-05
6.0737307e-05
4.069902e-05
1.6907771e-05
0.00013227329
0.00012819889
0.00012171054
0.000114027
0.00010466826
9.2907913e-05
7.8292823e-05
6.0740966e-05
4.0702892e-05
1.6907016e-05
0.00013205389
0.00012799796
0.00012155243
0.00011392254
0.00010461274
9.2888125e-05
7.8293348e-05
6.0748181e-05
4.0707735e-05
1.6906415e-05
0.00013186545
0.00012782747
0.0001214224
0.00011384169
0.00010457503
9.2880115e-05
7.8300416e-05
6.0758168e-05
4.0713276e-05
1.6905953e-05
0.00013170636
0.0001276855
0.00012131812
0.00011378191
0.0001045527
9.2881927e-05
7.8312695e-05
6.0770214e-05
4.0719271e-05
1.6905614e-05
0.00013157468
0.00012756991
0.00012123716
0.00011374065
0.00010454345
9.2891739e-05
7.8328977e-05
6.0783684e-05
4.0725504e-05
1.6905383e-05
0.00013146824
0.00012747838
0.00012117702
0.00011371543
0.00010454511
9.2907895e-05
7.8348189e-05
6.0798032e-05
4.0731796e-05
1.6905245e-05
0.00013138474
0.00012740851
0.0001211352
0.0001137039
0.00010455567
9.2928919e-05
7.8369408e-05
6.0812803e-05
4.0738007e-05
1.6905185e-05
0.00013132183
0.00012735789
0.00012110932
0.00011370386
0.00010457335
9.2953522e-05
7.8391851e-05
6.0827631e-05
4.0744031e-05
1.6905192e-05
0.00013127717
0.00012732416
0.0001210971
0.0001137133
0.00010459653
9.2980586e-05
7.8414865e-05
6.0842221e-05
4.074979e-05
1.6905252e-05
0.00013124848
0.00012730506
0.00012109639
0.00011373035
0.00010462379
9.3009144e-05
7.8437899e-05
6.0856334e-05
4.0755223e-05
1.6905356e-05
0.00013123355
0.00012729842
0.0001211052
0.00011375335
0.00010465387
9.3038361e-05
7.846049e-05
6.0869774e-05
4.0760282e-05
1.6905495e-05
0.00013123029
0.00012730219
0.00012112166
0.00011378077
0.00010468564
9.3067521e-05
7.8482249e-05
6.0882371e-05
4.0764879e-05
1.6905659e-05
0.0001312367
0.00012731446
0.00012114409
0.00011381125
0.00010471815
9.309602e-05
7.8502855e-05
6.0893964e-05
4.0768987e-05
1.6905839e-05
0.00013125094
0.00012733346
0.00012117094
0.00011384361
0.00010475058
9.3123369e-05
7.852204e-05
6.0904477e-05
4.0772628e-05
1.6906028e-05
0.00013127132
0.00012735759
0.00012120088
0.00011387684
0.00010478226
9.3149169e-05
7.8539644e-05
6.0913909e-05
4.0775816e-05
1.690622e-05
0.00013129631
0.00012738545
0.00012123273
0.00011391009
0.00010481263
9.3173144e-05
7.8555619e-05
6.0922268e-05
4.0778578e-05
1.6906412e-05
0.00013132458
0.00012741578
0.00012126547
0.00011394264
0.00010484129
9.3195163e-05
7.8569939e-05
6.0929586e-05
4.078094e-05
1.6906601e-05
0.00013135494
0.0001274475
0.00012129825
0.00011397392
0.00010486799
9.3215134e-05
7.8582615e-05
6.0935908e-05
4.0782933e-05
1.6906782e-05
0.00013138636
0.00012747966
0.00012133036
0.00011400353
0.00010489252
9.3233016e-05
7.8593686e-05
6.0941286e-05
4.0784583e-05
1.6906955e-05
0.00013141796
0.00012751151
0.00012136126
0.00011403117
0.00010491477
9.3248812e-05
7.8603208e-05
6.0945779e-05
4.0785916e-05
1.6907116e-05
0.00013144904
0.00012754244
0.00012139052
0.0001140566
0.00010493468
9.3262563e-05
7.8611258e-05
6.0949447e-05
4.0786959e-05
1.6907265e-05
0.00013147903
0.00012757195
0.00012141783
0.00011407969
0.00010495226
9.3274347e-05
7.8617931e-05
6.0952362e-05
4.078774e-05
1.6907401e-05
0.00013150749
0.00012759968
0.00012144295
0.00011410038
0.00010496755
9.3284273e-05
7.8623337e-05
6.0954597e-05
4.0788291e-05
1.6907522e-05
0.0001315341
0.00012762536
0.00012146577
0.00011411867
0.00010498065
9.3292474e-05
7.8627596e-05
6.0956234e-05
4.0788643e-05
1.690763e-05
0.00013155863
0.00012764884
0.00012148621
0.00011413461
0.00010499169
9.3299098e-05
7.8630833e-05
6.095735e-05
4.0788827e-05
1.6907724e-05
0.00013158097
0.00012767003
0.00012150431
0.00011414831
0.00010500082
9.3304297e-05
7.8633169e-05
6.095802e-05
4.0788873e-05
1.6907805e-05
0.00013160104
0.00012768891
0.00012152009
0.0001141599
0.0001050082
9.3308222e-05
7.863472e-05
6.0958311e-05
4.0788804e-05
1.6907875e-05
0.00013161886
0.00012770551
0.00012153367
0.00011416949
0.00010501399
9.3311018e-05
7.8635592e-05
6.0958283e-05
4.0788641e-05
1.6907932e-05
0.00013163445
0.00012771989
0.00012154514
0.00011417727
0.00010501834
9.3312824e-05
7.8635883e-05
6.0957989e-05
4.0788401e-05
1.6907979e-05
0.00013164789
0.00012773215
0.00012155464
0.00011418337
0.00010502142
9.3313775e-05
7.8635686e-05
6.0957478e-05
4.07881e-05
1.6908017e-05
0.00013165929
0.00012774241
0.00012156233
0.00011418798
0.0001050234
9.3314002e-05
7.8635092e-05
6.0956799e-05
4.0787755e-05
1.6908045e-05
0.0001316688
0.00012775084
0.00012156838
0.00011419127
0.00010502442
9.3313635e-05
7.8634186e-05
6.0955998e-05
4.0787381e-05
1.6908065e-05
0.00013167656
0.00012775759
0.00012157298
0.00011419342
0.00010502466
9.3312795e-05
7.863305e-05
6.0955117e-05
4.0786994e-05
1.6908079e-05
0.00013168276
0.00012776286
0.0001215763
0.00011419461
0.00010502426
9.3311595e-05
7.8631755e-05
6.0954195e-05
4.0786607e-05
1.6908086e-05
0.00013168758
0.00012776682
0.00012157852
0.000114195
0.00010502336
9.3310131e-05
7.8630363e-05
6.0953261e-05
4.0786231e-05
1.6908089e-05
0.00013169119
0.00012776964
0.00012157982
0.00011419473
0.00010502206
9.3308485e-05
7.8628922e-05
6.0952339e-05
4.0785873e-05
1.6908089e-05
0.00013169375
0.00012777149
0.00012158033
0.00011419393
0.00010502047
9.3306722e-05
7.8627468e-05
6.0951444e-05
4.0785535e-05
1.6908085e-05
0.0001316954
0.00012777251
0.00012158019
0.00011419271
0.00010501866
9.3304896e-05
7.8626031e-05
6.0950587e-05
4.078522e-05
1.6908079e-05
0.00013169628
0.00012777283
0.00012157952
0.00011419117
0.00010501672
9.3303051e-05
7.8624633e-05
6.0949774e-05
4.0784926e-05
1.6908071e-05
0.00013169652
0.00012777257
0.00012157843
0.00011418939
0.0001050147
9.3301224e-05
7.862329e-05
6.0949011e-05
4.0784653e-05
1.6908061e-05
)
;

boundaryField
{
    water_inlet
    {
        type            calculated;
        value           uniform 4.1926275e-05;
    }
    water_outlet
    {
        type            calculated;
        value           nonuniform List<scalar> 10(0.00013169652 0.00012777257 0.00012157843 0.00011418939 0.0001050147 9.3301224e-05 7.862329e-05 6.0949011e-05 4.0784653e-05 1.6908061e-05);
    }
    water_wedge1
    {
        type            wedge;
    }
    water_wedge2
    {
        type            wedge;
    }
    water_to_rock
    {
        type            nutkWallFunction;
        blending        stepwise;
        value           nonuniform List<scalar> 
100
(
1.7358471e-06
1.9240026e-06
1.9263124e-06
1.8751055e-06
1.8229112e-06
1.7867866e-06
1.7671179e-06
1.7584648e-06
1.7555995e-06
1.7553227e-06
1.7561181e-06
1.7574034e-06
1.7590034e-06
1.760881e-06
1.7630284e-06
1.765432e-06
1.7680554e-06
1.770858e-06
1.7738124e-06
1.7768955e-06
1.7800826e-06
1.7833467e-06
1.7866601e-06
1.7899944e-06
1.7933206e-06
1.7966082e-06
1.799824e-06
1.802932e-06
1.805893e-06
1.808667e-06
1.811216e-06
1.813507e-06
1.8155157e-06
1.8172279e-06
1.8186407e-06
1.8197615e-06
1.8206069e-06
1.8212004e-06
1.8215701e-06
1.8217469e-06
1.821762e-06
1.821646e-06
1.8214272e-06
1.8211313e-06
1.8207788e-06
1.8203873e-06
1.8199739e-06
1.8195531e-06
1.8191367e-06
1.8187335e-06
1.8183504e-06
1.8179921e-06
1.8176618e-06
1.8173615e-06
1.8170918e-06
1.8168526e-06
1.8166433e-06
1.8164627e-06
1.8163092e-06
1.816181e-06
1.8160763e-06
1.815993e-06
1.8159288e-06
1.8158818e-06
1.8158496e-06
1.8158303e-06
1.815822e-06
1.8158229e-06
1.8158313e-06
1.8158459e-06
1.8158652e-06
1.8158879e-06
1.8159127e-06
1.8159389e-06
1.8159656e-06
1.8159922e-06
1.8160183e-06
1.8160435e-06
1.8160673e-06
1.8160897e-06
1.8161103e-06
1.8161291e-06
1.8161459e-06
1.8161609e-06
1.816174e-06
1.8161853e-06
1.816195e-06
1.816203e-06
1.8162096e-06
1.8162148e-06
1.8162188e-06
1.8162217e-06
1.8162237e-06
1.8162249e-06
1.8162254e-06
1.8162254e-06
1.8162249e-06
1.8162241e-06
1.816223e-06
1.8162216e-06
)
;
    }
}


// ************************************************************************* //
