/*--------------------------------*- C++ -*----------------------------------*\
| =========                 |                                                 |
| \\      /  F ield         | OpenFOAM: The Open Source CFD Toolbox           |
|  \\    /   O peration     | Version:  2506                                  |
|   \\  /    A nd           | Website:  www.openfoam.com                      |
|    \\/     M anipulation  |                                                 |
\*---------------------------------------------------------------------------*/
FoamFile
{
    version     2.0;
    format      ascii;
    arch        "LSB;label=32;scalar=64";
    class       surfaceScalarField;
    location    "28000/water";
    object      phi;
}
// * * * * * * * * * * * * * * * * * * * * * * * * * * * * * * * * * * * * * //

dimensions      [1 0 -1 0 0 0 0];

oriented        oriented;

internalField   nonuniform List<scalar> 
1890
(
-4.1736246e-05
0.0022168351
-0.00015753622
0.0059586937
-0.00032930669
0.0087985477
-0.00054203243
0.010900937
-0.00078239504
0.012402155
-0.0010351826
0.013412336
-0.0012746193
0.014013996
-0.0014359746
0.014245356
-0.001284859
0.0140006
0.012745539
-3.1455821e-05
0.0022482909
-0.00011269722
0.0060399351
-0.00023219386
0.0089180443
-0.00037999424
0.011048737
-0.00054594258
0.012568103
-0.00071649907
0.013582893
-0.00086674521
0.014164242
-0.00093361969
0.01431223
-0.00073394525
0.013800926
0.012011594
-2.9138823e-05
0.0022774298
-0.00010672994
0.0061175262
-0.0002210554
0.0090323698
-0.00036160326
0.011189285
-0.0005170014
0.012723501
-0.00067116228
0.013737054
-0.00079396158
0.014287042
-0.00081139715
0.014329666
-0.00056729866
0.013556827
0.011444295
-2.7339932e-05
0.0023047697
-0.00010102595
0.0061912122
-0.00020924234
0.0091405861
-0.00034097891
0.011321022
-0.00048374656
0.012866269
-0.00061911457
0.013872422
-0.000710881
0.014378808
-0.0006765977
0.014295383
-0.00042025993
0.01330049
0.011024035
-2.5625232e-05
0.0023303949
-9.4386145e-05
0.0062599731
-0.0001950669
0.0092412669
-0.0003166986
0.011442653
-0.00044589494
0.012995465
-0.00056132383
0.013987851
-0.00061882751
0.014436312
-0.00053651318
0.014213068
-0.00029565565
0.013059632
0.010728379
-2.4159484e-05
0.0023545544
-8.8799476e-05
0.0063246131
-0.00018306044
0.0093355278
-0.00029574169
0.011555335
-0.000412109
0.013111833
-0.00050662384
0.014082365
-0.00052703832
0.014456726
-0.00040878726
0.014094817
-0.00020043481
0.01285128
0.010527945
-2.296547e-05
0.0023775199
-8.4333419e-05
0.006385981
-0.00017335333
0.0094245477
-0.00027826856
0.01166025
-0.00038232713
0.013215891
-0.00045437957
0.014154418
-0.00043820658
0.014440553
-0.00030321747
0.013959828
-0.00013378898
0.012681851
0.010394156
-2.2023825e-05
0.0023995437
-8.0769724e-05
0.0064447269
-0.00016540565
0.0095091837
-0.00026327189
0.011758116
-0.00035472691
0.013307346
-0.00040244375
0.014202135
-0.00035545868
0.014393568
-0.00022236869
0.013826738
-8.9855053e-05
0.012549338
0.010304301
-2.1260558e-05
0.0024208043
-7.7812564e-05
0.006501279
-0.00015855226
0.0095899234
-0.00024948523
0.011849049
-0.00032712229
0.013384983
-0.00034954571
0.014224558
-0.0002821285
0.014326151
-0.00016300168
0.013707611
-6.1425827e-05
0.012447762
0.010242875
-2.0607153e-05
0.0024414114
-7.5216656e-05
0.0065558885
-0.00015223234
0.0096669391
-0.00023577762
0.011932594
-0.00029784611
0.013447052
-0.00029644746
0.01422316
-0.00022023847
0.014249942
-0.0001198048
0.013607178
-4.2689198e-05
0.012370646
0.010200186
-2.0018288e-05
0.0024614297
-7.2804705e-05
0.0066086749
-0.0001460013
0.0097401357
-0.0002212056
0.012007799
-0.00026613498
0.013491981
-0.00024531953
0.014202344
-0.00016974805
0.014174371
-8.7951628e-05
0.013525381
-2.980606e-05
0.012312501
0.01017038
-1.9463546e-05
0.0024808933
-7.0441424e-05
0.0066596528
-0.00013947747
0.0098091717
-0.00020502187
0.012073343
-0.00023228111
0.01351924
-0.00019838542
0.014168448
-0.00012919817
0.014105183
-6.3919353e-05
0.013460102
-2.0486514e-05
0.012269068
0.010149893
-1.8918752e-05
0.002499812
-6.8008123e-05
0.0067087422
-0.0001322987
0.0098734623
-0.00018675575
0.0121278
-0.00019748212
0.013529967
-0.00015698091
0.014127947
-9.6701294e-05
0.014044904
-4.5355865e-05
0.013408757
-1.3427301e-05
0.012237139
0.010136466
-1.8360401e-05
0.0025181724
-6.5381824e-05
0.0067557636
-0.00012410694
0.0099321874
-0.00016633463
0.012170028
-0.00016333328
0.013526965
-0.00012140715
0.014086021
-7.0530626e-05
0.013994027
-3.0720136e-05
0.013368947
-7.8897295e-06
0.012214309
0.010128576
-1.7761434e-05
0.0025359339
-6.2419675e-05
0.0068004218
-0.00011457693
0.0099843446
-0.00014416262
0.012199614
-0.00013124003
0.013514043
-9.127304e-05
0.014046054
-4.9295769e-05
0.01395205
-1.8985794e-05
0.013338637
-3.4322437e-06
0.012198755
0.010125144
-1.7087934e-05
0.0025530218
-5.8952552e-05
0.0068422864
-0.00010349039
0.010028882
-0.00012105269
0.012217176
-0.0001020832
0.013495073
-6.5898926e-05
0.01400987
-3.1931771e-05
0.013918083
-9.4505745e-06
0.013316155
2.8702483e-07
0.012189018
0.010125431
-1.6296478e-05
0.0025693183
-5.4793274e-05
0.0068807832
-9.0832262e-05
0.010064921
-9.7998747e-05
0.012224342
-7.6209841e-05
0.013473284
-4.4571833e-05
0.013978232
-1.7627053e-05
0.013891138
-1.5572765e-06
0.013300086
3.3716355e-06
0.012184089
0.010128802
-1.5331771e-05
0.00258465
-4.9761969e-05
0.0069152134
-7.6852573e-05
0.010092012
-7.5898457e-05
0.012223388
-5.35888e-05
0.013450975
-2.6634492e-05
0.013951277
-5.7255323e-06
0.013870229
4.9976422e-06
0.013289362
5.8492077e-06
0.012183237
0.010134652
-1.4126734e-05
0.0025987768
-4.3732654e-05
0.0069448193
-6.2044053e-05
0.010110323
-5.5379274e-05
0.012216723
-3.3985546e-05
0.013429581
-1.1511413e-05
0.013928803
4.2380478e-06
0.013854479
1.0368589e-05
0.013283232
7.8672364e-06
0.012185738
0.010142519
-1.2609122e-05
0.0026113859
-3.6694583e-05
0.0069689048
-4.7030993e-05
0.01012066
-3.6774738e-05
0.012206467
-1.7079746e-05
0.013409886
1.3293401e-06
0.013910394
1.2528211e-05
0.013843281
1.4775085e-05
0.013280985
9.5165066e-06
0.012190997
0.010152035
-1.0718563e-05
0.0026221044
-2.8800579e-05
0.0069869868
-3.2419717e-05
0.010124279
-2.0180805e-05
0.012194228
-2.4803376e-06
0.013392185
1.217256e-05
0.013895741
1.9377498e-05
0.013836076
1.8390488e-05
0.013281972
1.0862144e-05
0.012198525
0.010162898
-8.4362017e-06
0.0026305406
-2.0369034e-05
0.0069989196
-1.8684346e-05
0.010122594
-5.5176066e-06
0.012181061
1.0031234e-05
0.013376637
2.119709e-05
0.013884575
2.5023696e-05
0.013832249
2.1345033e-05
0.013285651
1.1951298e-05
0.012207919
0.010174849
-5.8189187e-06
0.0026363595
-1.1825413e-05
0.0070049261
-6.1108751e-06
0.01011688
7.2761247e-06
0.012167674
2.0569614e-05
0.013363343
2.8683207e-05
0.013876462
2.9652861e-05
0.013831279
2.3736814e-05
0.013291567
1.2818387e-05
0.012218837
0.010187667
-3.0143987e-06
0.0026393739
-3.5967043e-06
0.0070055084
5.1012103e-06
0.010108182
1.8188576e-05
0.012154587
2.9351478e-05
0.01335218
3.4836572e-05
0.013870977
3.340342e-05
0.013832712
2.563786e-05
0.013299332
1.3488212e-05
0.012230987
0.010201155
-2.3454785e-07
0.0026396085
3.9055963e-06
0.0070013682
1.473762e-05
0.01009735
2.7281506e-05
0.012142043
3.6555309e-05
0.013342906
3.9807366e-05
0.013867725
3.6372547e-05
0.013836147
2.7096707e-05
0.013308608
1.3976363e-05
0.012244107
0.010215132
2.2765406e-06
0.0026373319
1.0307188e-05
0.0069933375
2.2679146e-05
0.010084978
3.4652502e-05
0.01213007
4.2304858e-05
0.013335254
4.3692944e-05
0.013866337
3.8618009e-05
0.013841222
2.8138279e-05
0.013319088
1.4288667e-05
0.012257957
0.01022942
4.3214744e-06
0.0026330104
1.5394292e-05
0.0069822647
2.8919341e-05
0.010071453
4.0371981e-05
0.012118617
4.6676192e-05
0.01332895
4.6544686e-05
0.013866468
4.0162538e-05
0.013847604
2.876561e-05
0.013330484
1.442094e-05
0.012272301
0.010243841
5.8173258e-06
0.0026271931
1.9123944e-05
0.0069689581
3.349372e-05
0.010057083
4.4500643e-05
0.01210761
4.9717122e-05
0.013323733
4.8384702e-05
0.0138678
4.1006177e-05
0.013854983
2.896785e-05
0.013342523
1.4363562e-05
0.012286906
0.010258205
6.7759921e-06
0.0026204171
2.1563324e-05
0.0069541708
3.6488728e-05
0.010042158
4.7110851e-05
0.012096988
5.1470248e-05
0.013319374
4.9225863e-05
0.013870045
4.1141468e-05
0.013863067
2.8729982e-05
0.013354934
1.4105271e-05
0.012301531
0.01027231
7.2696114e-06
0.0026131475
2.2858589e-05
0.0069385819
3.8043816e-05
0.010026972
4.8304519e-05
0.012086727
5.1995263e-05
0.013315683
4.9092916e-05
0.013872947
4.0570764e-05
0.013871589
2.804517e-05
0.01336746
1.3640137e-05
0.012315936
0.01028595
7.3948205e-06
0.0026057527
2.3199776e-05
0.0069227769
3.8342789e-05
0.010011829
4.8220941e-05
0.012076849
5.1383346e-05
0.013312521
4.8037882e-05
0.013876293
3.9319584e-05
0.013880308
2.6924247e-05
0.013379855
1.2972033e-05
0.012329888
0.010298922
7.2477478e-06
0.002598505
2.2789406e-05
0.0069072353
3.7597244e-05
0.0099970215
4.7033711e-05
0.012067413
4.9761453e-05
0.013309793
4.6147154e-05
0.013879907
3.7443701e-05
0.013889011
2.5401077e-05
0.013391898
1.2117422e-05
0.012343172
0.01031104
6.911454e-06
0.0025915935
2.1819625e-05
0.0068923271
3.6027316e-05
0.0099828138
4.4939367e-05
0.012058501
4.7286938e-05
0.013307445
4.3539496e-05
0.013883655
3.502857e-05
0.013897522
2.353227e-05
0.013403394
1.1105077e-05
0.012355599
0.010322145
6.4521704e-06
0.0025851414
2.0458967e-05
0.0068783203
3.3844635e-05
0.0099694282
4.2142446e-05
0.012050203
4.4135916e-05
0.013305452
4.0357149e-05
0.013887433
3.2182485e-05
0.013905697
2.1392053e-05
0.013414185
9.972945e-06
0.012367018
0.010332118
5.9202092e-06
0.0025792212
1.8847184e-05
0.0068653933
3.1240399e-05
0.0099570349
3.8841486e-05
0.012042602
4.0489896e-05
0.013303804
3.6754026e-05
0.013891169
2.9026737e-05
0.013913424
1.9064927e-05
0.013424147
8.7641739e-06
0.012377319
0.010340882
5.3525971e-06
0.0025738686
1.709537e-05
0.0068536506
2.8378894e-05
0.0099457514
3.521837e-05
0.012035762
3.6523707e-05
0.013302498
3.288393e-05
0.013894809
2.568527e-05
0.013920623
1.663778e-05
0.013433194
7.5227405e-06
0.012386434
0.010348405
4.7759623e-06
0.0025690926
1.5288924e-05
0.0068431376
2.5395537e-05
0.0099356448
3.1431794e-05
0.012029726
3.2396489e-05
0.013301534
2.8890888e-05
0.013898315
2.2275833e-05
0.013927238
1.4193168e-05
0.013441277
6.2898997e-06
0.012394337
0.010354695
4.2090577e-06
0.0025648835
1.34916e-05
0.0068338551
2.2397966e-05
0.0099267385
2.761442e-05
0.01202451
2.8246111e-05
0.013300902
2.4902398e-05
0.013901658
1.8903474e-05
0.013933237
1.1804326e-05
0.013448376
5.101602e-06
0.01240104
0.010359796
3.6647615e-06
0.0025612188
1.1749584e-05
0.0068257702
1.946876e-05
0.0099190193
2.387268e-05
0.012020106
2.4186505e-05
0.013300588
2.1025396e-05
0.013904819
1.565638e-05
0.013938606
9.5319646e-06
0.0134545
3.9869628e-06
0.012406585
0.010363783
3.151584e-06
0.0025580672
1.0095109e-05
0.0068188267
1.6668797e-05
0.0099124456
2.0288258e-05
0.012016486
2.0307175e-05
0.013300569
1.7344521e-05
0.013907782
1.2603792e-05
0.013943347
7.4226255e-06
0.013459682
2.9673821e-06
0.01241104
0.010366751
2.6748133e-06
0.0025553924
8.5495219e-06
0.006812952
1.4040782e-05
0.0099069544
1.6920625e-05
0.012013607
1.6674427e-05
0.013300815
1.3922359e-05
0.013910534
9.7958264e-06
0.013947473
5.5085768e-06
0.013463969
2.0567808e-06
0.012414492
0.010368807
2.2373477e-06
0.002553155
7.1257463e-06
0.0068080636
1.1612508e-05
0.0099024676
1.3809999e-05
0.012011409
1.333354e-05
0.013301292
1.0800926e-05
0.013913067
7.2645619e-06
0.01395101
3.808667e-06
0.013467425
1.2620013e-06
0.012417039
0.010370069
1.8403595e-06
0.0025513147
5.8303674e-06
0.0068040736
9.3999821e-06
0.009898898
1.0980729e-05
0.012009828
1.0311971e-05
0.013301961
8.0046132e-06
0.013915374
5.0267377e-06
0.013953987
2.330669e-06
0.013470121
5.8448087e-07
0.012418785
0.010370654
1.4837636e-06
0.0025498309
4.6652109e-06
0.0068008922
7.4099858e-06
0.0098961532
8.4442709e-06
0.012008794
7.6223263e-06
0.013302783
5.5429303e-06
0.013917454
3.0862315e-06
0.013956444
1.0741717e-06
0.013472133
3.1776428e-08
0.012419827
0.010370686
1.1665442e-06
0.0025486644
3.6284311e-06
0.0067984303
5.6418939e-06
0.0098941398
6.2013528e-06
0.012008235
5.2645683e-06
0.013303719
3.4128843e-06
0.013919305
1.4376803e-06
0.013958419
4.0189976e-08
0.01347353
-4.1117923e-07
0.012420279
0.010370274
8.8704625e-07
0.0025477773
2.7156162e-06
0.0067966017
4.0897627e-06
0.0098927656
4.2449762e-06
0.012008079
3.2299673e-06
0.013304734
1.6044169e-06
0.013920931
7.537451e-08
0.013959948
-7.9510948e-07
0.013474401
-7.6971311e-07
0.012420253
0.010369505
6.4324982e-07
0.0025471341
1.9208145e-06
0.0067953242
2.7444062e-06
0.009891942
2.5636401e-06
0.01200826
1.5057211e-06
0.013305792
1.0724116e-07
0.013922329
-1.0289846e-06
0.013961085
-1.4645975e-06
0.013474836
-1.0484206e-06
0.012419837
0.010368456
4.3290213e-07
0.0025467012
1.237083e-06
0.00679452
1.5946025e-06
0.0098915845
1.1435285e-06
0.012008711
7.8431432e-08
0.013306857
-1.108829e-06
0.013923517
-1.9123278e-06
0.013961888
-1.9816287e-06
0.013474906
-1.2536145e-06
0.012419109
0.010367203
2.5368006e-07
0.0025464475
6.5717372e-07
0.0067941165
6.2899633e-07
0.0098916127
-2.9487483e-08
0.01200937
-1.0814155e-06
0.013307909
-2.0813191e-06
0.013924516
-2.5946775e-06
0.013962401
-2.3611183e-06
0.013474672
-1.3932404e-06
0.012418141
0.010365809
1.0333039e-07
0.0025463442
1.7407716e-07
0.0067940457
-1.6585828e-07
0.0098919526
-9.8194004e-07
0.012010186
-2.0089337e-06
0.013308936
-2.8338263e-06
0.013925341
-3.0969931e-06
0.013962665
-2.6193455e-06
0.013474195
-1.4760823e-06
0.012416998
0.010364333
-2.0619576e-08
0.0025463648
-2.2142656e-07
0.0067942465
-8.0985649e-07
0.0098925411
-1.7427492e-06
0.012011119
-2.7272872e-06
0.013309921
-3.3899218e-06
0.013926004
-3.4410337e-06
0.013962716
-2.7728915e-06
0.013473526
-1.5108641e-06
0.012415736
0.010362823
-1.2119358e-07
0.002546486
-5.4016697e-07
0.0067946655
-1.3217491e-06
0.0098933226
-2.3310369e-06
0.012012128
-3.2593903e-06
0.013310849
-3.7736786e-06
0.013926518
-3.6486539e-06
0.013962591
-2.8381144e-06
0.013472716
-1.5060989e-06
0.012414404
0.010361316
-2.0118168e-07
0.0025466872
-7.9089595e-07
0.0067952552
-1.7152494e-06
0.009894247
-2.7661268e-06
0.012013179
-3.6281437e-06
0.013311711
-4.0087265e-06
0.013926899
-3.7409081e-06
0.013962323
-2.8304419e-06
0.013471805
-1.4695923e-06
0.012413043
0.010359847
-2.6285335e-07
0.00254695
-9.8107366e-07
0.0067959734
-2.0039555e-06
0.0098952699
-3.0670009e-06
0.012014242
-3.8558059e-06
0.0133125
-4.1176765e-06
0.013927161
-3.7375874e-06
0.013961943
-2.7640997e-06
0.013470832
-1.4084354e-06
0.012411687
0.010358438
-3.0834744e-07
0.0025472584
-1.1179107e-06
0.006796783
-2.2010242e-06
0.009896353
-3.2518827e-06
0.012015293
-3.9634869e-06
0.013313212
-4.1216408e-06
0.013927319
-3.6568176e-06
0.013961478
-2.6518411e-06
0.013469827
-1.3288276e-06
0.012410364
0.01035711
-3.3969288e-07
0.0025475981
-1.2082956e-06
0.0067976516
-2.3189982e-06
0.0098974637
-3.3379979e-06
0.012016312
-3.9708963e-06
0.013313845
-4.0400016e-06
0.013927388
-3.5149305e-06
0.013960953
-2.5049253e-06
0.013468817
-1.2361679e-06
0.012409096
0.010355873
-3.5878995e-07
0.0025479568
-1.258702e-06
0.0067985515
-2.3696169e-06
0.0098985746
-3.3413182e-06
0.012017283
-3.8960423e-06
0.013314399
-3.8901495e-06
0.013927382
-3.3262626e-06
0.013960389
-2.3329917e-06
0.013467824
-1.1348972e-06
0.012407897
0.010354739
-3.6742272e-07
0.0025483243
-1.2751824e-06
0.0067994593
-2.3637829e-06
0.0098996632
-3.2765149e-06
0.012018196
-3.7552319e-06
0.013314878
-3.6875568e-06
0.013927314
-3.1033074e-06
0.013959805
-2.1442404e-06
0.013466865
-1.0287462e-06
0.012406782
0.01035371
-3.6724137e-07
0.0025486915
-1.2633246e-06
0.0068003554
-2.3114926e-06
0.0099007114
-3.1568908e-06
0.012019042
-3.5630229e-06
0.013315284
-3.4457685e-06
0.013927197
-2.8567503e-06
0.013959216
-1.9455013e-06
0.013465953
-9.2067238e-07
0.012405757
0.010352789
-3.5977802e-07
0.0025490513
-1.2282804e-06
0.0068012239
-2.2218847e-06
0.009901705
-2.9944713e-06
0.012019814
-3.3323932e-06
0.013315622
-3.1766706e-06
0.013927041
-2.5958065e-06
0.013958635
-1.7425475e-06
0.0134651
-8.1316098e-07
0.012404828
0.010351976
-3.4643641e-07
0.0025493977
-1.1747545e-06
0.0068020522
-2.1032431e-06
0.0099026334
-2.8000318e-06
0.012020511
-3.0748097e-06
0.013315897
-2.8905942e-06
0.013926857
-2.3283418e-06
0.013958073
-1.5402158e-06
0.013464312
-7.0823626e-07
0.012403996
0.010351268
-3.2849761e-07
0.0025497262
-1.1070196e-06
0.0068028307
-1.9630256e-06
0.0099034894
-2.5831678e-06
0.012021131
-2.800346e-06
0.013316114
-2.5964812e-06
0.013926653
-2.0610645e-06
0.013957537
-1.342585e-06
0.013463593
-6.0759797e-07
0.012403261
0.01035066
-3.0711719e-07
0.0025500333
-1.0289115e-06
0.0068035525
-1.8078669e-06
0.0099042684
-2.3523055e-06
0.012021676
-2.5177137e-06
0.013316279
-2.3019379e-06
0.013926438
-1.7995874e-06
0.013957035
-1.1530105e-06
0.013462947
-5.1263662e-07
0.01240262
0.010350147
-2.8331995e-07
0.0025503166
-9.4381493e-07
0.006804213
-1.6435569e-06
0.0099049681
-2.1146816e-06
0.012022147
-2.2342476e-06
0.013316399
-2.0132094e-06
0.013926216
-1.5483709e-06
0.01395657
-9.7405915e-07
0.013462373
-4.2436128e-07
0.012402071
0.010349723
-2.5800135e-07
0.0025505747
-8.5466646e-07
0.0068048096
-1.4750477e-06
0.0099055885
-1.8763668e-06
0.012022548
-1.9559394e-06
0.013316478
-1.7352286e-06
0.013925996
-1.3107878e-06
0.013956146
-8.0755127e-07
0.013461869
-3.434219e-07
0.012401606
0.01034938
-2.3192939e-07
0.0025508066
-7.6395826e-07
0.0068053417
-1.3064719e-06
0.009906131
-1.6423e-06
0.012022884
-1.6875067e-06
0.013316524
-1.4716933e-06
0.01392578
-1.0891748e-06
0.013955763
-6.5458134e-07
0.013461435
-2.7010895e-07
0.012401222
0.01034911
-2.0575143e-07
0.0025510123
-6.7376735e-07
0.0068058097
-1.141203e-06
0.0099065985
-1.4164008e-06
0.012023159
-1.4325308e-06
0.01331654
-1.2252333e-06
0.013925573
-8.8501205e-07
0.013955423
-5.1567263e-07
0.013461065
-2.0444053e-07
0.012400911
0.010348905
-1.8000516e-07
0.0025511923
-5.8579547e-07
0.0068062155
-9.8194468e-07
0.0099069946
-1.2017105e-06
0.012023379
-1.1936649e-06
0.013316532
-9.9764359e-07
0.013925377
-6.9914264e-07
0.013955124
-3.9095524e-07
0.013460757
-1.4625992e-07
0.012400666
0.010348759
-1.5513114e-07
0.0025513475
-5.0141225e-07
0.0068065617
-8.3082437e-07
0.009907324
-1.0005345e-06
0.012023548
-9.7281088e-07
0.013316504
-7.900856e-07
0.013925194
-5.3197277e-07
0.013954866
-2.8033594e-07
0.013460506
-9.535823e-08
0.012400481
0.010348664
-1.3147736e-07
0.0025514789
-4.2168877e-07
0.006806852
-6.8945535e-07
0.0099075918
-8.1454483e-07
0.012023674
-7.7123023e-07
0.013316461
-6.0318052e-07
0.013925026
-3.8353785e-07
0.013954647
-1.8352693e-07
0.013460306
-5.1457033e-08
0.012400349
0.010348612
-1.0931338e-07
0.0025515883
-3.4743212e-07
0.0068070901
-5.5900664e-07
0.0099078033
-6.4485959e-07
0.012023759
-5.8963914e-07
0.013316405
-4.3710654e-07
0.013924873
-2.5357865e-07
0.013954463
-1.0005449e-07
0.013460152
-1.3789388e-08
0.012400263
0.010348598
-8.8830302e-08
0.0025516771
-2.7920415e-07
0.0068072804
-4.4023484e-07
0.0099079644
-4.9209429e-07
0.012023811
-4.2824741e-07
0.013316342
-2.9160429e-07
0.013924737
-1.4145056e-07
0.013954313
-2.8866129e-08
0.013460039
1.7994448e-08
0.012400216
0.010348616
-7.0157203e-08
0.0025517472
-2.1735849e-07
0.0068074276
-3.3354501e-07
0.0099080806
-3.564335e-07
0.012023834
-2.8683051e-07
0.013316272
-1.6599032e-07
0.013924616
-4.5984626e-08
0.013954193
3.0725432e-08
0.013459963
4.3436907e-08
0.012400203
0.01034866
-5.3357267e-08
0.0025518006
-1.62038e-07
0.0068075363
-2.3898823e-07
0.0099081575
-2.3760579e-07
0.012023833
-1.6464445e-07
0.013316199
-5.8968961e-08
0.01392451
3.3973487e-08
0.0139541
7.8846009e-08
0.013459918
6.297407e-08
0.012400219
0.010348723
-3.8444353e-08
0.002551839
-1.1321809e-07
0.0068076111
-1.5632665e-07
0.0099082006
-1.3496181e-07
0.012023811
-6.0473057e-08
0.013316125
3.0806289e-08
0.013924419
9.8929155e-08
0.013954032
1.1630422e-07
0.0134599
7.7489423e-08
0.012400258
0.0103488
-2.5384696e-08
0.0025518644
-7.0724839e-08
0.0068076564
-8.5059301e-08
0.009908215
-4.7465074e-08
0.012023774
2.698779e-08
0.01331605
1.0404935e-07
0.013924342
1.4988483e-07
0.013953986
1.4446174e-07
0.013459906
8.7755904e-08
0.012400315
0.010348888
-1.4112166e-08
0.0025518785
-3.4264064e-08
0.0068076766
-2.4447618e-08
0.0099082051
2.5891048e-08
0.012023723
9.8428135e-08
0.013315978
1.6174258e-07
0.013924278
1.8842229e-07
0.013953959
1.6450407e-07
0.01345993
9.4364758e-08
0.012400385
0.010348982
-4.5180619e-09
0.0025518831
-3.4191352e-09
0.0068076755
2.6146169e-08
0.0099081756
8.5700954e-08
0.012023664
1.547926e-07
0.013315909
2.0556026e-07
0.013924228
2.1604255e-07
0.013953949
1.7752922e-07
0.013459968
9.7869605e-08
0.012400464
0.01034908
3.4918587e-09
0.0025518796
2.2083981e-08
0.0068076569
6.7144301e-08
0.0099081305
1.3280851e-07
0.012023598
1.9763947e-07
0.013315844
2.3709048e-07
0.013924188
2.3412085e-07
0.013953952
1.844929e-07
0.013460018
9.8703706e-08
0.01240055
0.010349179
9.9996329e-09
0.0025518696
4.2512821e-08
0.0068076244
9.9262258e-08
0.0099080738
1.6854295e-07
0.012023529
2.2852996e-07
0.013315784
2.5790186e-07
0.013924159
2.4400125e-07
0.013953966
1.863294e-07
0.013460076
9.7331437e-08
0.012400639
0.010349276
1.5121374e-08
0.0025518544
5.8338705e-08
0.0068075812
1.2344754e-07
0.0099080087
1.9422443e-07
0.012023458
2.4898693e-07
0.013315729
2.6949772e-07
0.013924138
2.4695e-07
0.013953988
1.8390477e-07
0.013460139
9.4146789e-08
0.012400729
0.01034937
1.9001851e-08
0.0025518354
7.0073937e-08
0.0068075301
1.4065345e-07
0.0099079381
2.1116989e-07
0.012023388
2.6051135e-07
0.01331568
2.733494e-07
0.013924126
2.4420279e-07
0.013954017
1.7807714e-07
0.013460205
8.9571057e-08
0.012400817
0.01034946
2.1785565e-08
0.0025518137
7.8223675e-08
0.0068074737
1.5180823e-07
0.0099078645
2.2064133e-07
0.012023319
2.6452501e-07
0.013315636
2.7082337e-07
0.013924119
2.3688525e-07
0.013954051
1.696142e-07
0.013460272
8.3962747e-08
0.012400903
0.010349544
2.3616035e-08
0.00255179
8.3278765e-08
0.006807414
1.5779807e-07
0.00990779
2.2383305e-07
0.012023253
2.6234954e-07
0.013315597
2.6317815e-07
0.013924118
2.2603312e-07
0.013954088
1.592191e-07
0.013460339
7.7669006e-08
0.012400985
0.010349622
2.4627981e-08
0.0025517654
8.5699274e-08
0.0068073529
1.5944646e-07
0.0099077162
2.2183062e-07
0.01202319
2.55168e-07
0.013315564
2.5151637e-07
0.013924122
2.1252415e-07
0.013954127
1.4746443e-07
0.013460404
7.0940432e-08
0.012401061
0.010349692
2.4949005e-08
0.0025517405
8.5913613e-08
0.006807292
1.5750698e-07
0.0099076446
2.1561678e-07
0.012023132
2.4403197e-07
0.013315535
2.367939e-07
0.013924129
1.9710105e-07
0.013954167
1.3482566e-07
0.013460466
6.3987831e-08
0.012401132
0.010349756
2.4696152e-08
0.0025517158
8.4312728e-08
0.0068072324
1.5265911e-07
0.0099075763
2.0606565e-07
0.012023079
2.2985979e-07
0.013315512
2.1983443e-07
0.013924139
1.8039056e-07
0.013954207
1.2168089e-07
0.013460525
5.6969808e-08
0.012401197
0.010349813
2.3978003e-08
0.0025516918
8.1255336e-08
0.0068071751
1.4552419e-07
0.009907512
1.9396548e-07
0.01202303
2.1347586e-07
0.013315492
2.0136633e-07
0.013924151
1.6293512e-07
0.013954245
1.0836281e-07
0.01346058
5.0017328e-08
0.012401255
0.010349863
2.2894656e-08
0.0025516689
7.7069169e-08
0.0068071209
1.3666145e-07
0.0099074524
1.8002413e-07
0.012022987
1.9561101e-07
0.013315477
1.8203622e-07
0.013924165
1.452211e-07
0.013954282
9.5167855e-08
0.01346063
4.3254991e-08
0.012401307
0.010349907
2.1535151e-08
0.0025516474
7.2048745e-08
0.0068070704
1.2657592e-07
0.0099073979
1.6487659e-07
0.012022949
1.7692033e-07
0.013315465
1.6241612e-07
0.01392418
1.2767974e-07
0.013954317
8.2352841e-08
0.013460675
3.6790553e-08
0.012401353
0.010349943
1.9980889e-08
0.0025516274
6.6458511e-08
0.0068070239
1.1571682e-07
0.0099073487
1.4908531e-07
0.012022915
1.5798038e-07
0.013315456
1.4301445e-07
0.013924195
1.1069205e-07
0.013954349
7.0166155e-08
0.013460715
3.0742014e-08
0.012401392
0.010349974
1.830015e-08
0.0025516091
6.0524989e-08
0.0068069817
1.0446583e-07
0.0099073047
1.3312012e-07
0.012022887
1.3926362e-07
0.013315449
1.2423433e-07
0.01392421
9.4554475e-08
0.013954379
5.8785187e-08
0.013460751
2.5173651e-08
0.012401426
0.010349999
1.6552968e-08
0.0025515925
5.4440506e-08
0.0068069438
9.3141716e-08
0.009907266
1.1736547e-07
0.012022863
1.2114777e-07
0.013315446
1.0638684e-07
0.013924224
7.9482176e-08
0.013954405
4.8333498e-08
0.013460782
2.0150134e-08
0.012401454
0.01035002
1.478531e-08
0.0025515777
4.8356285e-08
0.0068069102
8.1989519e-08
0.0099072324
1.0210742e-07
0.012022842
1.0389433e-07
0.013315444
8.9666487e-08
0.013924239
6.5589917e-08
0.01395443
3.8856089e-08
0.013460809
1.5665476e-08
0.012401477
0.010350035
1.3037381e-08
0.0025515647
4.239472e-08
0.0068068809
7.1203422e-08
0.0099072036
8.756075e-08
0.012022826
8.7688702e-08
0.013315444
7.4198273e-08
0.013924252
5.2934086e-08
0.013954451
3.0360206e-08
0.013460832
1.1718658e-08
0.012401496
0.010350047
1.133625e-08
0.0025515534
3.6642754e-08
0.0068068556
6.0911598e-08
0.0099071793
7.3855777e-08
0.012022813
7.2622983e-08
0.013315445
6.0012878e-08
0.013924265
4.1489847e-08
0.013954469
2.2780085e-08
0.01346085
8.2401343e-09
0.01240151
0.010350055
9.7095887e-09
0.0025515437
3.117748e-08
0.0068068341
5.1227974e-08
0.0099071593
6.110539e-08
0.012022803
5.8780105e-08
0.013315447
4.714738e-08
0.013924276
3.1247793e-08
0.013954485
1.6097139e-08
0.013460866
5.2276031e-09
0.012401521
0.01035006
8.167695e-09
0.0025515355
2.6035988e-08
0.0068068162
4.2204449e-08
0.0099071431
4.9356508e-08
0.012022796
4.6174472e-08
0.013315451
3.55773e-08
0.013924287
2.2155621e-08
0.013954499
1.0234199e-08
0.013460877
2.5987363e-09
0.012401529
0.010350063
6.7365174e-09
0.0025515288
2.1274767e-08
0.0068068017
3.3945614e-08
0.0099071304
3.8783785e-08
0.012022791
3.5063486e-08
0.013315454
2.5623495e-08
0.013924296
1.4552663e-08
0.01395451
5.4956914e-09
0.013460886
5.8005677e-10
0.012401534
0.010350064
3.0575838e-09
9.6282698e-09
1.5250032e-08
1.7208487e-08
1.5293977e-08
1.0851131e-08
5.8759032e-09
1.9786155e-09
1.0764154e-10
)
;

boundaryField
{
    water_inlet
    {
        type            calculated;
        value           nonuniform List<scalar> 10(-0.0021750989 -0.0058428937 -0.0086267772 -0.010688211 -0.012161792 -0.013159549 -0.01377456 -0.014084001 -0.014151716 -0.014030398);
    }
    water_outlet
    {
        type            calculated;
        value           nonuniform List<scalar> 10(0.0025515257 0.0068067951 0.0099071248 0.012022789 0.013315456 0.013924301 0.013954515 0.01346089 0.012401536 0.010350064);
    }
    water_wedge1
    {
        type            wedge;
        value           nonuniform List<scalar> 
1000
(
-1.1296032e-13
-1.4267459e-13
-1.1216208e-13
-1.0631889e-13
-9.9357878e-14
-9.3386066e-14
-8.8690261e-14
-8.4957165e-14
-8.1976603e-14
-7.9485897e-14
-7.7280484e-14
-7.5240269e-14
-7.3267349e-14
-7.128042e-14
-6.9182437e-14
-6.6854074e-14
-6.4135433e-14
-6.0818626e-14
-5.6667471e-14
-5.1408645e-14
-4.4793983e-14
-3.6659933e-14
-2.7082405e-14
-1.6559529e-14
-5.8642901e-15
4.0670561e-15
1.2372952e-14
1.8671977e-14
2.2906748e-14
2.5295894e-14
2.6219152e-14
2.6006553e-14
2.502471e-14
2.3512014e-14
2.1684908e-14
1.9704406e-14
1.7629738e-14
1.5585446e-14
1.3609429e-14
1.1735346e-14
1.0001117e-14
8.3939681e-15
6.9243364e-15
5.6079277e-15
4.4442175e-15
3.409241e-15
2.4952205e-15
1.7132902e-15
1.0456229e-15
4.741754e-16
1.0619424e-17
-3.6218462e-16
-6.72251e-16
-9.1286888e-16
-1.0894821e-15
-1.2110039e-15
-1.2852336e-15
-1.3215616e-15
-1.327155e-15
-1.3153538e-15
-1.2666481e-15
-1.2009458e-15
-1.1314939e-15
-1.0441568e-15
-9.5816357e-16
-8.6704306e-16
-7.6621324e-16
-6.7344326e-16
-5.8455132e-16
-4.9558557e-16
-4.1818154e-16
-3.415313e-16
-2.7286105e-16
-2.1142772e-16
-1.5467007e-16
-1.0657984e-16
-6.1588698e-17
-2.4592443e-17
3.0583595e-18
2.6533223e-17
5.0895114e-17
6.4362023e-17
6.7524913e-17
7.5756681e-17
8.6267077e-17
8.6482052e-17
8.407586e-17
8.1947511e-17
7.9062711e-17
7.6286008e-17
7.1834563e-17
6.7172919e-17
5.5807659e-17
4.8873782e-17
4.7690343e-17
3.5154398e-17
2.9570207e-17
2.8504261e-17
1.893628e-17
6.9631733e-18
-6.8081125e-13
-1.0335437e-12
-8.3928903e-13
-7.9752735e-13
-7.4939864e-13
-7.0313707e-13
-6.6536397e-13
-6.3522828e-13
-6.1093532e-13
-5.905272e-13
-5.7244991e-13
-5.5560666e-13
-5.391258e-13
-5.2219954e-13
-5.0397451e-13
-4.8343301e-13
-4.5934358e-13
-4.301881e-13
-3.9436825e-13
-3.5055382e-13
-2.9813853e-13
-2.3765516e-13
-1.7103402e-13
-1.0155654e-13
-3.3373697e-14
2.8945553e-14
8.1483981e-14
1.2215006e-13
1.5064588e-13
1.6798058e-13
1.7589553e-13
1.7635514e-13
1.7126813e-13
1.6227136e-13
1.5072825e-13
1.3768964e-13
1.2392827e-13
1.1004097e-13
9.6442156e-14
8.3438639e-14
7.1225105e-14
5.9901236e-14
4.954949e-14
4.0196379e-14
3.1827704e-14
2.4423827e-14
1.7938704e-14
1.2313437e-14
7.5065951e-15
3.4631051e-15
1.1487851e-16
-2.6136092e-15
-4.8016062e-15
-6.5025074e-15
-7.7721832e-15
-8.6593292e-15
-9.2153577e-15
-9.4924809e-15
-9.5296978e-15
-9.3797791e-15
-9.0645969e-15
-8.6154724e-15
-8.0837016e-15
-7.4802454e-15
-6.8298623e-15
-6.158719e-15
-5.4780779e-15
-4.8080326e-15
-4.1578344e-15
-3.5413314e-15
-2.9601033e-15
-2.4155986e-15
-1.9240544e-15
-1.4776248e-15
-1.082145e-15
-7.3606411e-16
-4.2891755e-16
-1.7280504e-16
4.4660141e-17
2.2077957e-16
3.5512227e-16
4.6342763e-16
5.4229798e-16
5.959495e-16
6.2534224e-16
6.3586598e-16
6.3568691e-16
6.198335e-16
5.9095926e-16
5.5814036e-16
5.2337433e-16
4.8045639e-16
4.3034593e-16
3.8573474e-16
3.4161842e-16
2.9451166e-16
2.5559024e-16
2.1645794e-16
1.7758258e-16
1.0298852e-16
3.1339116e-12
4.8023017e-12
3.9072355e-12
3.7113886e-12
3.4900554e-12
3.2689346e-12
3.0860199e-12
2.9387808e-12
2.8176147e-12
2.7124756e-12
2.6152694e-12
2.5197166e-12
2.4205067e-12
2.3123554e-12
2.1894943e-12
2.0461148e-12
1.8774948e-12
1.6811008e-12
1.4574234e-12
1.2105466e-12
9.4808832e-13
6.8016811e-13
4.1760592e-13
1.7021076e-13
-5.3280759e-14
-2.4551703e-13
-4.0215394e-13
-5.2204719e-13
-6.0638782e-13
-6.5809547e-13
-6.8131821e-13
-6.8088522e-13
-6.6176687e-13
-6.2866814e-13
-5.8577474e-13
-5.3662725e-13
-4.841103e-13
-4.3048755e-13
-3.7748354e-13