/*--------------------------------*- C++ -*----------------------------------*\
| =========                 |                                                 |
| \\      /  F ield         | OpenFOAM: The Open Source CFD Toolbox           |
|  \\    /   O peration     | Version:  2506                                  |
|   \\  /    A nd           | Website:  www.openfoam.com                      |
|    \\/     M anipulation  |                                                 |
\*---------------------------------------------------------------------------*/
FoamFile
{
    version     2.0;
    format      ascii;
    arch        "LSB;label=32;scalar=64";
    class       volScalarField;
    location    "7000/rock";
    object      T;
}
// * * * * * * * * * * * * * * * * * * * * * * * * * * * * * * * * * * * * * //

dimensions      [0 0 0 1 0 0 0];

internalField   nonuniform List<scalar> 
6000
(
315.50063
304.43244
298.74643
295.34913
293.11821
291.55606
290.41025
289.53976
288.86
288.31731
287.87612
287.51198
287.2076
286.95041
286.73108
286.54256
286.37941
286.2374
286.11318
286.00406
285.90786
285.82279
285.74735
285.68027
285.62045
285.5669
285.51865
285.47472
285.43387
285.39435
319.11756
308.34259
302.18348
298.2849
295.63885
293.74813
292.34282
291.26536
290.41839
289.73883
289.18425
288.72515
288.34046
288.01476
287.73656
287.49711
287.28965
287.1089
286.95067
286.81159
286.6889
286.58037
286.48411
286.39853
286.32225
286.25405
286.19279
286.13732
286.08646
286.03885
320.92352
310.89686
304.76832
300.68589
297.81267
295.70644
294.11202
292.87308
291.88931
291.09388
290.4408
289.89753
289.44054
289.05238
288.71994
288.43316
288.18424
287.96703
287.77663
287.60908
287.46116
287.33023
287.21406
287.11079
287.01881
286.93672
286.86324
286.79719
286.73746
286.68301
322.02017
312.6715
306.73908
302.64124
299.66817
297.4356
295.71352
294.3557
293.26512
292.37528
291.63934
291.02352
290.50297
290.05905
289.67757
289.34755
289.06042
288.80935
288.58889
288.39462
288.22292
288.0708
287.93577
287.81574
287.7089
287.61371
287.5288
287.45297
287.38514
287.32443
322.78005
313.98423
308.28357
304.24867
301.25251
298.95645
297.15496
295.7144
294.54396
293.57989
292.77632
292.09955
291.52438
291.03166
290.60661
290.23772
289.91586
289.63377
289.38557
289.1665
288.97261
288.80065
288.64792
288.51212
288.39131
288.28382
288.18821
288.10325
288.02789
287.96129
323.35292
315.0069
309.53024
305.59035
302.61415
300.296
298.45047
296.95589
295.72833
294.70787
293.85064
293.1239
292.50278
291.96815
291.50505
291.10172
290.74876
290.4386
290.1651
289.92324
289.70885
289.5185
289.34927
289.19876
289.06487
288.94587
288.84026
288.74676
288.66431
288.59207
323.80937
315.83627
310.56396
306.72905
303.79553
301.48135
299.61662
298.08981
296.82347
295.76171
294.86312
294.09637
293.43739
292.8674
292.37161
291.93823
291.55776
291.22251
290.92619
290.66362
290.43048
290.22318
290.03872
289.87455
289.72852
289.59879
289.48381
289.3823
289.29315
289.21551
324.18734
316.53001
311.44104
307.71107
304.8313
302.53693
300.66992
299.12692
297.83612
296.74543
295.81594
295.01795
294.3284
293.72912
293.20567
292.74642
292.34194
291.98454
291.66785
291.38663
291.13648
290.91374
290.7153
290.53855
290.38126
290.24156
290.11786
290.00882
289.91332
289.83048
324.50923
317.12437
312.19966
308.57034
305.74889
303.48361
301.62555
300.07791
298.77359
297.66385
296.71216
295.89045
295.17675
294.55364
294.00716
293.52596
293.10079
292.72403
292.38936
292.09151
291.82608
291.58934
291.37817
291.18989
291.02224
290.87332
290.74148
290.62538
290.52387
290.43603
324.78931
317.64333
312.86634
309.33183
306.5697
304.33865
302.49686
300.95276
299.64312
298.52211
297.55531
296.71619
295.98389
295.34179
294.77644
294.27688
293.8341
293.44063
293.09023
292.7777
292.49864
292.24934
292.02664
291.82786
291.65072
291.49328
291.35389
291.23118
291.12397
291.03131
325.03711
318.10339
313.46006
310.01417
307.31048
305.11621
303.29532
301.76046
300.45159
299.32532
298.3491
297.49781
296.75164
296.09474
295.51422
294.99954
294.54196
294.13422
293.77023
293.44484
293.15374
292.89322
292.66015
292.45186
292.26606
292.10079
291.95441
291.82551
291.7129
291.61563
325.25928
318.51628
313.99465
310.63142
307.98431
305.82781
304.03063
302.5089
301.20525
300.07834
299.09724
298.23807
297.482
296.81389
296.22144
295.69451
295.22468
294.80491
294.42926
294.09273
293.79106
293.52061
293.27828
293.06142
292.86775
292.69531
292.54246
292.40778
292.29008
292.18837
325.46059
318.89062
314.4805
311.19438
308.60156
306.48281
304.71093
303.20496
301.90974
300.78571
299.80329
298.93972
298.17703
297.50079
296.8992
296.36255
295.88273
295.45294
295.06743
294.72132
294.41046
294.13128
293.88073
293.65618
293.45538
293.2764
293.11759
292.97752
292.855
292.74902
325.64461
319.23288
314.92553
311.71146
309.17045
307.08888
305.34306
303.85454
302.57007
301.45154
300.47059
299.60542
298.83883
298.15702
297.54869
297.00452
296.51671
296.0787
295.68494
295.33069
295.0119
294.72509
294.46727
294.23587
294.02865
293.84372
293.67941
293.53432
293.40725
293.2972
325.81401
319.54802
315.33588
312.1893
309.69763
307.6523
305.93277
304.46275
303.19061
302.07955
301.10223
300.23769
299.46943
298.78419
298.17116
297.62136
297.12731
296.68269
296.28211
295.92101
295.59544
295.30202
295.03783
294.80033
294.58735
294.397
294.22765
294.07789
293.94654
293.83257
325.97091
319.83994
315.71642
312.6332
310.18847
308.17828
306.48488
305.03392
303.77521
302.67306
301.70102
300.83888
300.07075
299.38388
298.76786
298.21407
297.71529
297.26545
296.85934
296.49254
296.16124
295.86213
295.59237
295.34949
295.13135
294.93609
294.76211
294.60802
294.47262
294.35489
326.11697
320.11172
316.07104
313.04747
310.6474
308.67112
307.00347
305.57182
304.32724
303.23503
302.26953
301.41119
300.64464
299.9576
299.34003
298.78362
298.28144
297.82759
297.41708
297.04562
296.7095
296.40553
296.13094
295.88332
295.66058
295.46089
295.28267
295.12454
294.98533
294.86402
326.25354
320.36588
316.40292
313.43563
311.07805
309.13445
307.492
306.07967
304.84964
303.76808
302.81007
301.9566
301.19281
300.50679
299.88887
299.33102
298.82654
298.36976
297.95583
297.5806
297.2405
296.93243
296.65368
296.4019
296.17506
295.97137
295.78926
295.6274
295.48459
295.35983
326.38172
320.60446
316.71465
313.80058
311.48349
309.57131
307.95343
306.56024
305.34496
304.27455
303.32471
302.47695
301.71683
301.03282
300.41554
299.85723
299.35141
298.8926
298.47611
298.09792
297.75458
297.44305
297.16074
296.90534
296.67486
296.46756
296.2819
296.11656
295.97036
295.84231
326.50243
320.82915
317.0084
314.14476
311.86626
309.9843
308.39028
307.01594
305.81546
304.7565
303.81532
302.9739
302.21818
301.53696
300.92113
300.36319
299.85684
299.39678
298.97847
298.59802
298.25207
297.93769
297.65234
297.3938
297.1601
296.94955
296.76064
296.59206
296.44267
296.31146
326.61643
321.04139
317.28598
314.47023
312.22855
310.37561
308.80474
307.44889
306.26312
305.21576
304.28358
303.44896
302.6982
302.0204
301.4067
300.84979
300.34359
299.88295
299.46346
299.08135
298.73336
298.41665
298.12874
297.86747
297.63093
297.41745
297.22557
297.05399
296.90158
296.76734
326.72437
321.24235
317.54892
314.77872
312.57221
310.74715
309.19868
307.8609
306.68969
305.65397
304.73099
303.90351
303.15814
302.48425
301.87321
301.31791
300.81243
300.35176
299.93164
299.54839
299.19886
298.88027
298.59022
298.3266
298.08755
297.87145
297.67684
297.50246
297.3472
297.21007
326.8268
321.43307
317.79854
315.07172
312.89884
311.10057
309.57375
308.25358
307.0967
306.07259
305.15891
304.3388
303.59915
302.92955
302.32159
301.76836
301.26406
300.80385
300.38355
299.99962
299.64896
299.3289
299.03708
298.77145
298.5302
298.31172
298.11462
297.93764
297.77968
297.63978
326.9242
321.61442
318.03596
315.35053
313.20982
311.43729
309.93138
308.62835
307.48553
306.47291
305.56858
304.75597
304.02226
303.35725
302.75272
302.20191
301.69919
301.23982
300.81976
300.43552
300.08411
299.76291
299.46965
299.2023
298.95911
298.73851
298.53912
298.35971
298.1992
298.05664
327.01696
321.78716
318.26216
315.61625
313.50635
311.75856
310.27286
308.98646
307.85738
306.85611
305.9611
305.15607
304.42844
303.76823
303.16739
302.61931
302.11849
301.66029
301.24078
300.85656
300.50471
300.18269
299.88826
299.61946
299.37457
299.15205
298.95056
298.76888
298.60596
298.46084
327.10546
321.95194
318.47798
315.86986
313.78949
312.06549
310.59928
309.32903
308.21337
307.22325
306.33746
305.54003
304.81858
304.16333
303.56638
303.02125
302.52258
302.06582
301.64714
301.26322
300.91121
300.58861
300.29326
300.02324
299.77685
299.55261
299.34919
299.16539
299.00018
298.85261
327.18999
322.10934
318.68417
316.11223
314.06018
312.35905
310.91166
309.65704
308.55445
307.57526
306.6986
305.90873
305.19351
304.54331
303.95038
303.40839
302.91207
302.45698
302.03935
301.65596
301.304
300.98106
300.68501
300.41396
300.16627
299.94047
299.73527
299.54949
299.38211
299.23219
327.27083
322.25987
318.88138
316.34411
314.31923
312.6401
311.21086
309.9714
308.88152
307.91302
307.04533
306.26297
305.55397
304.90887
304.32008
303.78136
303.28754
302.83429
302.4179
302.03523
301.68353
301.36043
301.06385
300.79196
300.54313
300.31593
300.10908
299.92144
299.75199
299.59982
327.34822
322.40398
319.07021
316.56617
314.56739
312.90943
311.4977
310.2729
309.19538
308.23731
307.37843
306.60348
305.90067
305.2607
304.6761
304.14074
303.64955
303.19826
302.78327
302.40148
302.0502
301.72711
301.43016
301.15757
300.90774
300.67928
300.47091
300.28152
300.11011
299.95577
327.42239
322.54207
319.25117
316.77901
314.80531
313.16772
311.77289
310.56227
309.49674
308.54884
307.69859
306.93093
306.23425
305.5994
305.01902
304.48708
303.99861
303.54941
303.13593
302.75514
302.40441
302.08146
301.78428
301.51113
301.26043
301.03082
300.82104
300.63001
300.45673
300.30031
327.49352
322.6745
319.42474
316.98319
315.03358
313.41561
312.03708
310.84018
309.78627
308.84828
308.00645
307.24595
306.55533
305.92556
305.3494
304.82093
304.33522
303.88818
303.47631
303.09663
302.74656
302.42387
302.12658
301.85298
301.60152
301.37086
301.15979
300.9672
300.79214
300.63372
327.56178
322.80159
319.59132
317.17918
315.25275
313.65367
312.29086
311.10722
310.06459
309.13621
308.3026
307.54912
306.86446
306.23973
305.66777
305.14276
304.65987
304.21504
303.80485
303.42637
303.07705
302.7547
302.4574
302.18344
301.93133
301.69973
301.48744
301.29339
301.11663
300.95628
327.62734
322.92365
319.7513
317.36743
315.4633
313.88241
312.53477
311.36394
310.33223
309.4132
308.5876
307.84097
307.16217
306.5424
305.97461
305.45307
304.973
304.53042
304.12197
303.74474
303.39625
303.07433
302.77709
302.50287
302.25018
302.01771
301.80429
301.60886
301.43048
301.26828
327.69034
323.04092
319.90503
317.54834
315.66567
314.10231
312.7693
311.61086
310.58972
309.67976
308.86196
308.12202
307.44895
306.83406
306.2704
305.75229
305.27505
304.83475
304.42805
304.05213
303.70452
303.3831
303.086
302.81158
302.55839
302.32513
302.11066
301.91392
301.73398
301.57
327.7509
323.15367
320.05283
317.72229
315.86028
314.31381
312.99492
311.84844
310.83754
309.93637
309.12614
308.39274
307.72526
307.11516
306.55556
306.04086
305.56644
305.12841
304.7235
304.34891
304.00223
303.68135
303.38445
303.1099
302.85627
302.6223
302.40683
302.20885
302.02743
301.86174
327.80916
323.26211
320.19499
317.88962
316.04749
314.5173
313.21203
312.07712
311.07611
310.18347
309.3806
308.65355
307.99155
307.38613
306.83052
306.31918
305.84755
305.41179
305.00868
304.63545
304.28973
303.96944
303.67278
303.39815
303.14414
302.9095
302.69311
302.49395
302.31111
302.14377
327.86521
323.36645
320.33178
318.05063
316.22767
314.71317
313.42103
312.29728
311.30585
310.42148
309.62575
308.90487
308.24821
307.64738
307.09568
306.58765
306.11877
305.68527
305.28395
304.9121
304.56735
304.24768
303.9513
303.67664
303.4223
303.18705
302.96979
302.76951
302.58531
302.41638
327.91916
323.46687
320.46344
318.20562
316.40111
314.90174
313.62229
312.50932
311.52715
310.65077
309.86198
309.1471
308.49563
307.89927
307.3514
306.84662
306.38045
305.94918
305.54965
305.17918
304.83543
304.5164
304.22033
303.94567
303.69105
303.45524
303.23715
303.0358
302.8503
302.67984
327.9711
323.56356
320.59021
318.35486
316.56814
315.08335
313.81613
312.71358
311.74036
310.87172
310.08965
309.3806
308.73418
308.14218
307.59805
307.09645
306.63295
306.20388
305.80613
305.43702
305.09428
304.77591
304.48018
304.20555
303.95068
303.71435
303.49549
303.29313
303.10637
302.93444
328.02113
323.65667
320.7123
318.4986
316.72902
315.25829
314.00287
312.91038
311.94582
311.08467
310.3091
309.60571
308.9642
308.37645
307.83597
307.33747
306.8766
306.44969
306.05369
305.68595
305.34421
305.02651
304.73113
304.45657
304.20148
303.96467
303.74508
303.54174
303.35379
303.18044
328.06932
323.74637
320.82991
318.63707
316.88401
315.42685
314.18282
313.10004
312.14384
311.28994
310.52067
309.82277
309.18602
308.6024
308.06548
307.57002
307.1117
306.68693
306.29264
305.92625
305.58552
305.2685
304.97349
304.69901
304.44373
304.20648
303.9862
303.78193
303.59283
303.4181
328.11576
323.8328
320.94323
318.77049
317.03336
315.58928
314.35624
313.28284
312.33472
311.48783
310.72467
310.03208
309.39996
308.82035
308.28689
307.79439
307.33858
306.91588
306.5233
306.15824
305.8185
305.50215
305.20753
304.93315
304.67771
304.44004
304.2191
304.01395
303.82374
303.64769
328.16051
323.91608
321.05243
318.89907
317.17731
315.74584
314.52341
313.45905
312.51875
311.67864
310.92138
310.23394
309.6063
309.03059
308.50049
308.01088
307.55751
307.13686
306.74593
306.38218
306.04342
305.72776
305.43353
305.15927
304.90368
304.66562
304.44406
304.23806
304.04678
303.86947
328.20364
323.99636
321.15769
319.02301
317.31606
315.89676
314.68456
313.62895
312.69618
311.86263
311.11108
310.42863
309.80534
309.23341
308.70658
308.21977
307.76879
307.35012
306.96082
306.59836
306.26057
305.94558
305.65174
305.37761
305.1219
304.88348
304.66132
304.45451
304.26221
304.08367
328.24521
324.07373
321.25915
319.14249
317.44981
316.04226
314.83993
313.79276
312.86728
312.04006
311.29403
310.61641
309.99734
309.42907
308.90542
308.42134
307.97267
307.55594
307.16823
306.80703
306.4702
306.15588
305.86243
305.58844
305.33262
305.09386
304.87113
304.66354
304.47026
304.29054
328.28529
324.14833
321.35697
319.25767
317.57878
316.18254
314.98975
313.95073
313.03229
312.21118
311.4705
310.79755
310.18255
309.61784
309.09727
308.61584
308.16942
307.75459
307.36843
307.00846
306.67257
306.3589
306.06585
305.792
305.53609
305.297
305.07374
304.8654
304.67118
304.49032
328.32394
324.22026
321.45129
319.36874
317.70313
316.31782
315.13423
314.10306
313.19142
312.37623
311.64071
310.97228
310.36123
309.79997
309.28238
308.80352
308.3593
307.9463
307.56165
307.20289
306.86792
306.5549
306.26224
305.98853
305.73254
305.49315
305.26938
305.06033
304.86519
304.68323
328.3612
324.28961
321.54223
319.47584
317.82304
316.44827
315.27355
314.24998
313.3449
312.53543
311.8049
311.14084
310.53362
309.97568
309.46099
308.98463
308.54253
308.13132
307.74814
307.39056
307.05648
306.7441
306.45183
306.17828
305.92221
305.68254
305.45827
305.24853
305.05252
304.8695
328.39713
324.35649
321.62993
319.57912
317.93869
316.57409
315.40793
314.39169
313.49294
312.68899
311.96329
311.30345
310.69992
310.14522
309.63333
309.15939
308.71935
308.30988
307.92813
307.57169
307.23849
306.92673
306.63484
306.36145
306.10532
305.86538
305.64064
305.43024
305.23338
305.04934
328.43178
324.42099
321.71451
319.67872
318.05021
316.69543
315.53754
314.52837
313.63574
312.83711
312.11608
311.46032
310.86037
310.30879
309.79962
309.32802
308.88998
308.48219
308.10183
307.74651
307.41417
307.10302
306.81151
306.53827
306.28209
306.04189
305.8167
305.60567
305.408
305.22297
328.4652
324.48319
321.79608
319.77479
318.15778
316.81246
315.66254
314.6602
313.77348
312.98
312.26347
311.61166
311.01517
310.46661
309.96007
309.49073
309.05464
308.64848
308.26947
307.91523
307.58372
307.27317
306.98203
306.70895
306.45272
306.21228
305.98666
305.77502
305.57656
305.39059
328.49742
324.54317
321.87475
319.86744
318.26153
316.92534
315.78312
314.78737
313.90635
313.11784
312.40566
311.75766
311.16452
310.61888
310.11488
309.64774
309.21353
308.80896
308.43126
308.07807
307.74737
307.43739
307.14662
306.87369
306.61742
306.37675
306.15073
305.93849
305.73928
305.55239
328.5285
324.60103
321.95063
319.9568
318.36159
317.03421
315.89942
314.91003
314.03452
313.25081
312.54283
311.89852
311.3086
310.76579
310.26425
309.79924
309.36685
308.96381
308.58738
308.23521
307.9053
307.59589
307.30547
307.0327
306.77639
306.5355
306.30908
306.09629
305.89635
305.70857
328.55847
324.65683
322.02381
320.04299
318.45811
317.13923
316.0116
315.02835
314.15815
313.37908
312.67516
312.03441
311.44761
310.90753
310.40837
309.94541
309.51478
309.11323
308.73803
308.38686
308.05771
307.74885
307.45878
307.18616
306.92982
306.68872
306.46192
306.24858
306.04795
305.85932
328.58738
324.71065
322.09439
320.12612
318.55121
317.24053
316.11981
315.14248
314.27742
313.50281
312.80281
312.1655
311.58172
311.04428
310.54742
310.08645
309.65752
309.25741
308.8834
308.53319
308.20478
307.89646
307.60673
307.33426
307.0779
306.8366
306.60943
306.39557
306.19426
306.00481
328.61525
324.76255
322.16247
320.2063
318.641
317.33823
316.22419
315.25257
314.39246
313.62217
312.92595
312.29196
311.7111
311.17621
310.68157
310.22252
309.79524
309.39652
309.02367
308.67439
308.3467
308.0389
307.74949
307.47718
307.22079
306.9793
306.75179
306.53742
306.33546
306.14521
328.64214
324.81261
322.22812
320.28363
318.7276
317.43247
316.32486
315.35876
314.50342
313.73731
313.04474
312.41395
311.8359
311.30348
310.81099
310.3538
309.92811
309.53074
309.15901
308.81063
308.48363
308.17634
307.88726
307.61509
307.35868
307.117
306.88916
306.67431
306.47172
306.2807
328.66806
324.86088
322.29145
320.35822
318.81113
317.52336
316.42197
315.46119
314.61046
313.84837
313.15932
312.53163
311.9563
311.42625
310.93584
310.48045
310.0563
309.66023
309.28958
308.94207
308.61576
308.30895
308.02018
307.74815
307.49172
307.24988
307.02171
306.80639
306.6032
306.41145
328.69305
324.90744
322.35251
320.43015
318.89169
317.61103
316.51562
315.55998
314.7137
313.95549
313.26985
312.64514
312.07244
311.54469
311.05628
310.60263
310.17997
309.78516
309.41555
309.06888
308.74322
308.43689
308.14843
307.87654
307.62009
307.37808
307.1496
306.93384
306.73006
306.5376
328.71715
324.95234
322.41141
320.49953
318.96938
317.69557
316.60595
315.65526
314.81327
314.05881
313.37645
312.75463
312.18446
311.65893
311.17245
310.72048
310.29926
309.90567
309.53707
309.19122
308.8662
308.56032
308.27215
308.0004
307.74394
307.50177
307.27299
307.05679
306.85245
306.65931
328.74038
324.99563
322.4682
320.56643
319.04431
317.77711
316.69306
315.74715
314.9093
314.15846
313.47927
312.86023
312.2925
311.76912
311.28451
310.83416
310.41433
310.02191
309.65429
309.30923
308.98482
308.67939
308.39151
308.11989
307.86342
307.62109
307.39203
307.17541
306.97053
306.77672
328.76277
325.03737
322.52296
320.63094
319.11657
317.85574
316.77707
315.83577
315.00192
314.25456
313.57843
312.96208
312.39671
311.87539
311.39259
310.9438
310.52531
310.13403
309.76736
309.42306
309.09924
308.79425
308.50664
308.23515
307.97867
307.7362
307.50685
307.28984
307.08444
306.88999
328.78436
325.07761
322.57577
320.69314
319.18624
317.93156
316.85808
315.92122
315.09123
314.34723
313.67405
313.0603
312.49721
311.97789
311.49682
311.04954
310.63235
310.24217
309.87641
309.53285
309.2096
308.90503
308.61768
308.34632
308.08983
307.84722
307.61761
307.40021
307.1943
306.99924
328.80517
325.11641
322.62668
320.75312
319.25342
318.00467
316.93619
316.00362
315.17735
314.4366
313.76627
313.15501
312.59412
312.07672
311.59734
311.15152
310.73558
310.34646
309.98158
309.63873
309.31604
309.01187
308.72478
308.45355
308.19704
307.9543
307.72444
307.50666
307.30027
307.10461
328.82521
325.15381
322.67576
320.81094
319.31818
318.07516
317.0115
316.08307
315.26038
314.52277
313.85518
313.24634
312.68756
312.17203
311.69427
311.24986
310.83512
310.44703
310.083
309.74084
309.41868
309.1149
308.82807
308.55695
308.30044
308.05757
307.82745
307.60932
307.40246
307.20623
328.84453
325.18987
322.72307
320.86669
319.38062
318.14311
317.08411
316.15967
315.34044
314.60584
313.9409
313.33439
312.77766
312.26392
311.78773
311.34467
310.93111
310.544
310.18079
309.8393
309.51766
309.21425
308.92766
308.65666
308.40014
308.15714
307.9268
307.70832
307.50101
307.30422
328.86315
325.22461
322.76867
320.92042
319.44081
318.20862
317.15411
316.23351
315.41762
314.68593
314.02355
313.41928
312.86452
312.35251
311.87783
311.43608
311.02364
310.63749
310.27507
309.93422
309.61308
309.31004
309.02369
308.75279
308.49627
308.25316
308.02258
307.80377
307.59602
307.39871
328.88108
325.25809
322.81262
320.97221
319.49883
318.27176
317.22157
316.30469
315.49201
314.76313
314.10321
313.50111
312.94826
312.43791
311.96469
311.52421
311.11285
310.72762
310.36596
310.02574
309.70508
309.40238
309.11626
308.84548
308.58895
308.34572
308.11492
307.89579
307.68763
307.4898
328.89835
325.29035
322.85498
321.02212
319.55474
318.33262
317.2866
316.37329
315.56371
314.83754
314.18
313.57998
313.02897
312.52023
312.04841
311.60915
311.19884
310.81449
310.45358
310.11395
309.79376
309.4914
309.2055
308.93482
308.67829
308.43495
308.20394
307.9845
307.77593
307.57761
328.91498
325.32144
322.89579
321.07021
319.60861
318.39126
317.34926
316.4394
315.63281
314.90925
314.254
313.656
313.10675
312.59957
312.1291
311.69101
311.28172
310.89822
310.53802
310.19897
309.87923
309.5772
309.29151
309.02093
308.7644
308.52095
308.28974
308.07
307.86105
307.66225
328.93099
325.35138
322.93511
321.11655
319.66053
318.44777
317.40964
316.50311
315.6994
314.97835
314.32531
313.72925
313.1817
312.67602
312.20686
311.7699
311.36158
310.97892
310.6194
310.28091
309.9616
309.65989
309.3744
309.10392
308.84738
308.60384
308.37243
308.1524
307.94307
307.74382
328.9464
325.38022
322.97298
321.16119
319.71054
318.50221
317.46782
316.56448
315.76355
315.04493
314.39401
313.79982
313.25392
312.74968
312.28178
311.84592
311.43853
311.05667
310.69781
310.35985
310.04096
309.73956
309.45427
309.18389
308.92735
308.6837
308.45211
308.23181
308.02211
307.82241
328.96124
325.40799
323.00946
321.20418
319.75871
318.55464
317.52385
316.62361
315.82535
315.10907
314.4602
313.86781
313.3235
312.82064
312.35396
311.91915
311.51267
311.13157
310.77336
310.43592
310.11743
309.81632
309.53122
309.26093
309.00439
308.76065
308.52887
308.3083
308.09827
307.89814
328.97551
325.43472
323.04458
321.24559
319.80511
318.60515
317.57782
316.68055
315.88487
315.17084
314.52395
313.9333
313.39051
312.889
312.42349
311.98969
311.58408
311.20372
310.84613
310.50918
310.19108
309.89026
309.60535
309.33514
309.0786
308.83477
308.60282
308.382
308.17162
307.97109
328.98925
325.46046
323.0784
321.28546
319.84978
318.65378
317.6298
316.73539
315.94219
315.23033
314.58535
313.99637
313.45505
312.95483
312.49044
312.05763
311.65286
311.27321
310.91621
310.57975
310.26202
309.96147
309.67674
309.40662
309.15007
308.90616
308.67404
308.45297
308.24227
308.04134
329.00246
325.48523
323.11095
321.32384
319.89279
318.7006
317.67984
316.78819
315.99738
315.28761
314.64446
314.05709
313.51719
313.01821
312.55491
312.12304
311.71908
311.34012
310.98369
310.64769
310.33033
310.03004
309.74548
309.47545
309.2189
308.9749
308.74262
308.52131
308.31031
308.10899
329.01516
325.50907
323.14229
321.36078
319.93419
318.74567
317.728
316.83901
316.05051
315.34275
314.70137
314.11555
313.57702
313.07923
312.61698
312.18601
311.78284
311.40454
311.04866
310.71311
310.39609
310.09606
309.81166
309.54171
309.28516
309.04108
308.80864
308.58711
308.37581
308.17413
329.02737
325.532
323.17243
321.39633
319.97403
318.78905
317.77436
316.88792
316.10164
315.39582
314.75613
314.17182
313.6346
313.13797
312.67672
312.24663
311.8442
311.46654
311.11119
310.77607
310.45939
310.15961
309.87537
309.60549
309.34894
309.10478
308.8722
308.65044
308.43885
308.23682
329.03911
325.55406
323.20143
321.43053
320.01236
318.83078
317.81896
316.93499
316.15084
315.44689
314.80884
314.22596
313.69
313.19448
312.7342
312.30495
311.90325
311.5262
311.17137
310.83666
310.5203
310.22075
309.93667
309.66687
309.41032
309.16609
308.93336
308.71139
308.49952
308.29715
329.05039
325.57526
323.22932
321.46342
320.04922
318.87092
317.86187
316.98026
316.19817
315.49601
314.85953
314.27804
313.7433
313.24885
312.78951
312.36107
311.96006
311.5836
311.22926
310.89495
310.57891
310.27958
309.99565
309.72592
309.46936
309.22506
308.9922
308.77003
308.55789
308.3552
329.06122
325.59565
323.25614
321.49505
320.08468
318.90952
317.90313
317.0238
316.24369
315.54326
314.90829
314.32813
313.79457
313.30114
312.8427
312.41503
312.0147
311.63881
311.28494
310.95101
310.63527
310.33617
310.05237
309.78271
309.52616
309.28179
309.04879
308.82642
308.61404
308.41103
329.07162
325.61524
323.28191
321.52545
320.11876
318.94663
317.9428
317.06566
316.28745
315.58868
314.95517
314.37629
313.84385
313.35142
312.89384
312.46692
312.06724
311.69189
311.33848
311.00492
310.68946
310.39057
310.10691
309.83732
309.58077
309.33633
309.10321
308.88065
308.66802
308.46471
329.0816
325.63406
323.30667
321.55467
320.15151
318.9823
317.98092
317.1059
316.32951
315.63234
315.00023
314.42259
313.89123
313.39974
312.94299
312.5168
312.11773
311.74292
311.38994
311.05674
310.74156
310.44287
310.15934
309.88982
309.63326
309.38876
309.15551
308.93278
308.71991
308.51631
329.09118
325.65213
323.33046
321.58273
320.18297
319.01656
318.01755
317.14455
316.36992
315.67428
315.04353
314.46707
313.93675
313.44618
312.99023
312.56473
312.16626
311.79195
311.43939
311.10653
310.79162
310.49312
310.20973
309.94026
309.6837
309.43915
309.20578
308.98287
308.76978
308.5659
329.10037
325.66947
323.3533
321.60968
320.21319
319.04947
318.05273
317.18168
316.40874
315.71457
315.08511
314.50979
313.98047
313.49078
313.0356
312.61077
312.21287
311.83904
311.48689
311.15436
310.8397
310.5414
310.25812
309.98871
309.73216
309.48754
309.25406
309.03099
308.81768
308.61353
329.10918
325.68612
323.37522
321.63555
320.2422
319.08106
318.0865
317.21732
316.446
315.75326
315.12504
314.55081
314.02246
313.53361
313.07916
312.65497
312.25762
311.88426
311.5325
311.20028
310.88587
310.58775
310.30459
310.03524
309.77868
309.53401
309.30043
309.07719
308.86367
308.65926
329.11762
325.70208
323.39625
321.66037
320.27003
319.11138
318.11891
317.25152
316.48177
315.79038
315.16336
314.59018
314.06275
313.57471
313.12097
312.69739
312.30057
311.92766
311.57627
311.24436
310.93019
310.63223
310.34919
310.0799
309.82334
309.57862
309.34492
309.12154
308.90781
308.70316
329.1257
325.71738
323.41641
321.68418
320.29673
319.14045
318.14999
317.28433
316.51607
315.82599
315.20011
314.62794
314.1014
313.61414
313.16108
312.73809
312.34177
311.9693
311.61826
311.28665
310.9727
310.67491
310.39198
310.12274
309.86618
309.62141
309.38761
309.16408
308.95016
308.74528
329.13343
325.73205
323.43573
321.70699
320.32232
319.16833
318.1798
317.31579
316.54896
315.86013
315.23535
314.66415
314.13846
313.65194
313.19953
312.77711
312.38128
312.00922
311.65853
311.32719
311.01346
310.71584
310.433
310.16382
309.90726
309.66244
309.42855
309.20488
308.99077
308.78566
329.14083
325.74609
323.45425
321.72885
320.34683
319.19504
318.20835
317.34593
316.58048
315.89285
315.26913
314.69885
314.17397
313.68817
313.23639
312.81451
312.41915
312.04748
311.69712
311.36605
311.05253
310.75506
310.47232
310.20318
309.94663
309.70176
309.46778
309.24397
309.02969
308.82436
329.1479
325.75952
323.47197
321.74978
320.37031
319.22061
318.2357
317.3748
316.61066
315.92418
315.30147
314.73208
314.20798
313.72287
313.27168
312.85033
312.45541
312.08412
311.73408
311.40327
311.08995
310.79262
310.50998
310.24089
309.98434
309.73942
309.50536
309.28142
309.06697
308.86143
329.15466
325.77237
323.48892
321.7698
320.39277
319.24508
318.26187
317.40242
316.63954
315.95417
315.33242
314.76388
314.24054
313.75608
313.30547
312.88461
312.49012
312.1192
311.76946
311.43889
311.12576
310.82858
310.54603
310.27699
310.02043
309.77548
309.54132
309.31726
309.10265
308.89691
329.16111
325.78465
323.50512
321.78895
320.41425
319.26849
318.28689
317.42884
316.66717
315.98285
315.36203
314.7943
314.27167
313.78784
313.33778
312.9174
312.52332
312.15274
311.8033
311.47296
311.16002
310.86297
310.58051
310.31151
310.05496
309.80996
309.57573
309.35155
309.13678
308.93085
329.16725
325.79638
323.5206
321.80724
320.43477
319.29085
318.31081
317.45408
316.69357
316.01026
315.39032
314.82338
314.30143
313.8182
313.36867
312.94874
312.55506
312.18481
311.83564
311.50553
311.19276
310.89584
310.61347
310.34451
310.08796
309.84292
309.60861
309.38432
309.16941
308.96329
329.17311
325.80756
323.53538
321.8247
320.45437
319.3122
318.33364
317.47819
316.71878
316.03643
315.41734
314.85114
314.32985
313.84719
313.39816
312.97867
312.58536
312.21543
311.86653
311.53663
311.22403
310.92723
310.64494
310.37602
310.11947
309.8744
309.64002
309.41562
309.20056
308.99428
329.17868
325.81822
323.54946
321.84135
320.47305
319.33256
318.35542
317.50118
316.74283
316.0614
315.44312
314.87763
314.35696
313.87485
313.4263
313.00722
312.61427
312.24465
311.896
311.56631
311.25387
310.95719
310.67498
310.40609
310.14954
309.90444
309.66999
309.44548
309.23029
309.02384
329.18398
325.82837
323.56288
321.85721
320.49086
319.35197
318.37618
317.5231
316.76575
316.0852
315.46769
314.90287
314.3828
313.90122
313.45312
313.03444
312.64183
312.2725
311.92409
311.5946
311.28231
310.98574
310.7036
310.43476
310.1782
309.93307
309.69855
309.47395
309.25863
309.05202
329.18901
325.83803
323.57564
321.8723
320.5078
319.37044
318.39593
317.54396
316.78756
316.10785
315.49108
314.92691
314.4074
313.92632
313.47865
313.06035
312.66807
312.29901
311.95083
311.62153
311.30939
311.01293
310.73086
310.46205
310.2055
309.96033
309.72575
309.50105
309.28561
309.07885
329.19378
325.84719
323.58777