/*--------------------------------*- C++ -*----------------------------------*\
| =========                 |                                                 |
| \\      /  F ield         | OpenFOAM: The Open Source CFD Toolbox           |
|  \\    /   O peration     | Version:  2506                                  |
|   \\  /    A nd           | Website:  www.openfoam.com                      |
|    \\/     M anipulation  |                                                 |
\*---------------------------------------------------------------------------*/
FoamFile
{
    version     2.0;
    format      ascii;
    arch        "LSB;label=32;scalar=64";
    class       volScalarField;
    location    "1000/rock";
    object      T;
}
// * * * * * * * * * * * * * * * * * * * * * * * * * * * * * * * * * * * * * //

dimensions      [0 0 0 1 0 0 0];

internalField   nonuniform List<scalar> 
2500
(
314.95197
303.86218
298.11505
294.68774
292.45302
290.90179
289.77387
288.92397
288.26534
287.74334
287.32201
286.97682
286.69054
286.45071
286.24818
286.076
285.92889
285.80271
285.69416
285.60055
285.51966
285.44951
285.38826
285.33396
285.28425
319.1493
308.93557
302.88942
298.93346
296.18306
294.18631
292.6874
291.53153
290.62031
289.88866
289.29217
288.79962
288.38857
288.04249
287.74903
287.49876
287.28439
287.10017
286.94154
286.80477
286.68681
286.58506
286.49728
286.42147
286.35585
320.94823
311.71682
305.9432
301.95459
299.04696
296.8517
295.15077
293.80542
292.72307
291.83975
291.11006
290.50106
289.98836
289.55361
289.18278
288.86502
288.5918
288.35634
288.15321
287.978
287.82708
287.69746
287.58665
287.49259
287.41361
321.99801
313.48251
308.03385
304.16088
301.25333
298.99659
297.20421
295.75568
294.56863
293.58459
292.76087
292.06568
291.47488
290.96992
290.53635
290.16275
289.84006
289.56098
289.3196
289.11111
288.93156
288.77767
288.64679
288.53673
288.44578
322.7189
314.7316
309.56685
305.83927
302.99085
300.73901
298.91833
297.42227
296.17764
295.13188
294.24606
293.49064
292.84285
292.28484
291.80248
291.38445
291.02163
290.70661
290.43331
290.19675
289.9928
289.81806
289.66976
289.54561
289.44378
323.26075
315.68147
310.75372
307.16635
304.39511
302.17761
300.36212
298.8518
297.58046
296.50051
295.57652
294.7814
294.094
293.49759
292.97874
292.52659
292.13227
291.78848
291.48922
291.2295
291.00516
290.81277
290.64947
290.51292
290.40122
323.69119
316.43981
311.71048
308.24962
305.55761
303.38602
301.59245
300.08685
298.80809
297.71242
296.7673
295.94777
295.2343
294.61131
294.06621
293.58872
293.17039
292.80421
292.48434
292.2059
291.96481
291.75765
291.58157
291.43419
291.31356
324.04581
317.06601
312.50501
309.15628
306.53963
304.41715
302.65324
301.16273
299.88819
298.78877
297.83418
297.00127
296.27185
295.63143
295.06823
294.57258
294.13651
293.75332
293.41744
293.12416
292.86951
292.65015
292.46326
292.30647
292.1778
324.3454
317.59572
313.17952
309.92996
307.38292
305.30892
303.5776
302.10749
300.84394
299.74831
298.79206
297.95345
297.21545
296.56446
295.98944
295.48132
295.03254
294.63679
294.28874
293.98389
293.71841
293.48907
293.29309
293.12815
292.99226
324.60312
318.05181
313.76171
310.6001
308.11661
306.08875
304.39043
302.9431
301.69429
300.60704
299.65419
298.81512
298.07374
297.4172
296.8351
296.31886
295.86135
295.45658
295.09949
294.78577
294.51174
294.27429
294.07071
293.89872
293.75635
324.82784
318.44976
314.27054
311.18729
308.76154
306.77682
305.11061
303.68675
302.45451
301.37829
300.43202
299.59598
298.85482
298.19633
297.61062
297.08956
296.62637
296.21535
295.85169
295.53127
295.25057
295.00656
294.79664
294.61856
294.47039
325.02579
318.80048
314.71954
311.7064
309.33305
307.38827
305.75261
304.35193
303.13693
302.07313
301.13534
300.30456
299.56605
298.90812
298.3213
297.79784
297.33126
296.91614
296.54784
296.22245
295.93657
295.68729
295.47207
295.28872
295.13534
325.20151
319.11195
315.11867
312.16849
309.84269
307.93469
306.32773
304.94937
303.75157
302.70076
301.77247
300.9483
300.21402
299.55835
298.97219
298.44808
297.97981
297.56218
297.19074
296.86173
296.57186
296.31833
296.09868
295.91076
295.75271
325.35843
319.39018
315.47546
312.58199
310.29938
308.42514
306.84489
305.48773
304.30664
303.26885
302.3505
301.5337
300.80461
300.15231
299.568
299.04447
298.57575
298.15679
297.78334
297.45174
297.15883
296.90189
296.67851
296.48662
296.32437
325.4992
319.63982
315.79575
312.95351
310.71013
308.86683
307.31132
305.97405
304.80894
303.78387
302.87551
302.06639
301.34302
300.69478
300.1131
299.59101
299.12269
298.70329
298.32866
297.99526
297.70004
297.44034
297.21383
297.01847
296.85245
325.6259
319.86455
316.08422
313.28831
311.08059
309.2656
307.73292
306.4142
305.26417
304.25131
303.35274
302.55134
301.83393
301.19011
300.61155
300.09144
299.62413
299.20488
298.82969
298.4951
298.19813
297.9362
297.70703
297.50863
297.33921
325.74022
320.06735
316.34462
313.5907
311.41541
309.62628
308.11461
306.81309
305.67719
304.6759
303.78674
302.99291
302.28146
301.64223
301.06704
300.54925
300.08334
299.66468
299.28936
298.95402
298.65574
298.39199
298.16057
297.95948
297.787
325.84355
320.25068
316.58008
313.86424
311.71844
309.95293
308.46053
307.1749
306.05215
305.06172
304.18151
303.39496
302.68936
302.05471
301.483
300.96771
300.50344
300.08565
299.71051
299.37474
299.07548
298.81026
298.57689
298.37345
298.19821
325.93705
320.4166
316.79323
314.11193
311.99296
310.24899
308.77424
307.50324
306.39266
305.41238
304.54058
303.76095
303.06097
302.4308
301.86257
301.34985
300.88734
300.4706
300.09586
299.75989
299.45991
299.19347
298.95843
298.7529
298.57516
326.02172
320.56686
316.9863
314.33635
312.24177
310.51744
309.05884
307.80126
306.70191
305.73104
304.8671
304.09398
303.39934
302.77348
302.20863
301.69847
301.23778
300.82218
300.44798
300.11199
299.81147
299.54402
299.30754
299.10015
298.92017
326.09841
320.70298
317.16123
314.53973
312.46732
310.76087
309.31701
308.07173
306.98271
306.02053
305.16388
304.39685
303.70723
303.08546
302.52385
302.01619
301.5573
301.1429
300.76931
300.43342
300.13251
299.86423
299.62649
299.41744
299.23543
326.16787
320.82629
317.31972
314.72403
312.67175
310.98157
309.55115
308.31711
307.23756
306.28337
305.43346
304.67208
303.98716
303.36923
302.8107
302.30543
301.84831
301.43509
301.06216
300.72644
300.42526
300.15628
299.91744
299.70692
299.52308
326.23075
320.93795
317.46326
314.89098
312.85697
311.18158
309.76339
308.5396
307.46872
306.52186
305.67815
304.92199
304.24142
303.62708
303.07145
302.56843
302.113
301.70095
301.3287
300.99321
300.69183
300.42225
300.18245
299.97062
299.78513
326.28765
321.03901
317.59319
315.04212
313.02468
311.36272
309.95564
308.7412
307.67821
306.73806
305.90003
305.14868
304.47214
303.86111
303.30818
302.80729
302.35346
301.94253
301.57095
301.23572
300.9342
300.66413
300.42348
300.21047
300.02349
326.33909
321.13041
317.71071
315.17884
313.17641
311.52662
310.12964
308.92369
307.86789
306.93386
306.10103
305.35408
304.68124
304.07328
303.52284
303.02393
302.57161
302.16174
301.79082
301.45585
301.15425
300.88375
300.64236
300.4283
300.23998
326.38555
321.21298
317.8169
315.30239
313.31354
311.67478
310.28695
309.0887
308.03944
307.11098
306.28289
305.53996
304.8705
304.26536
303.71723
303.22015
302.76923
302.36035
301.99006
301.65537
301.35371
301.08285
300.8408
300.6258
300.43628
326.42745
321.28748
317.91274
315.41391
313.43734
311.80855
310.429
309.23773
308.1944
307.27099
306.44721
305.70794
305.04158
304.43902
303.893
303.39761
302.94798
302.54003
302.17033
301.83591
301.53423
301.26306
301.02043
300.8046
300.61399
326.46518
321.35462
317.99911
315.51444
313.54895
311.92915
310.55709
309.37213
308.33416
307.41533
306.59547
305.85953
305.19598
304.59577
304.05168
303.55783
303.1094
302.70231
302.33316
301.99901
301.69733
301.42589
301.18274
300.96616
300.77459
326.49909
321.41502
318.07684
315.60491
313.64941
312.03773
310.67242
309.49315
308.46003
307.54534
306.72902
305.9961
305.33509
304.73702
304.19469
303.70226
303.25491
302.84863
302.47999
302.14609
301.84441
301.57274
301.32915
301.11191
300.91946
326.52952
321.46926
318.14666
315.6862
313.73967
312.1353
310.77607
309.60193
308.57318
307.66223
306.8491
306.11891
305.46022
304.86408
304.32334
303.8322
303.38585
302.98029
302.61213
302.27847
301.97681
301.70495
301.46095
301.24312
301.0499
326.55675
321.51786
318.20925
315.75909
313.82063
312.22282
310.86905
309.69952
308.67471
307.76712
306.95687
306.22913
305.57253
304.97814
304.43885
303.94887
303.50343
303.09853
302.73081
302.39738
302.09574
301.82371
301.57937
301.36101
301.16709
326.58107
321.56133
318.26525
315.82431
313.89308
312.30115
310.95228
309.78689
308.7656
307.86103
307.05338
306.32785
305.67312
305.08031
304.54233
304.0534
303.60878
303.20449
302.83717
302.50395
302.20234
301.93016
301.68551
301.46669
301.27216
326.60271
321.60009
318.31522
315.88253
313.95777
312.3711
311.02661
309.86492
308.8468
307.94493
307.1396
306.41606
305.76301
305.17162
304.63481
304.14683
303.70295
303.29921
302.93226
302.59923
302.29765
302.02535
301.78043
301.5612
301.36613
326.62191
321.63456
318.35969
315.93435
314.01536
312.43339
311.09281
309.93444
308.91913
308.01969
307.21643
306.49466
305.84313
305.253
304.71724
304.23012
303.78691
303.38366
303.01704
302.68419
302.38265
302.11025
301.86509
301.64549
301.44994
326.63888
321.66512
318.39914
315.98035
314.0665
312.4887
311.1516
309.99618
308.98339
308.0861
307.28469
306.5645
305.91432
305.32533
304.79051
304.30415
303.86154
303.45874
303.09242
302.75974
302.45823
302.18574
301.94038
301.72046
301.52449
326.65382
321.69211
318.43401
316.02104
314.11174
312.53765
311.20364
310.05083
309.04027
308.1449
307.34513
306.62636
305.97737
305.3894
304.85542
304.36974
303.92766
303.52526
303.15922
302.82669
302.52521
302.25265
302.00711
301.78692
301.59057
326.66691
321.71585
318.46473
316.05689
314.15161
312.58081
311.24953
310.09903
309.09045
308.19678
307.39846
306.68094
306.03301
305.44594
304.9127
304.42763
303.98604
303.58399
303.21819
302.8858
302.58436
302.31174
302.06605
301.84562
301.64895
326.6783
321.73662
318.49165
316.08833
314.18661
312.61869
311.28983
310.14137
309.13453
308.24234
307.44532
306.72889
306.08191
305.49563
304.96306
304.47852
304.03735
303.63563
303.27005
302.93778
302.63637
302.3637
302.11789
301.89725
301.70029
326.68816
321.75471
318.51512
316.11577
314.21716
312.65178
311.32503
310.17836
309.17305
308.28218
307.48628
306.77083
306.12467
305.53909
305.0071
304.52304
304.08224
303.6808
303.31542
302.98326
302.6819
302.40919
302.16326
301.94244
301.74524
326.69662
321.77035
318.53546
316.13957
314.24368
312.68051
311.3556
310.2105
309.20652
308.3168
307.52189
306.80728
306.16185
305.57688
305.0454
304.56176
304.1213
303.72011
303.3549
303.02284
302.72151
302.44877
302.20275
301.98179
301.78438
326.70381
321.78377
318.55295
316.16007
314.26653
312.70528
311.38198
310.23823
309.23541
308.34669
307.55264
306.83877
306.19397
305.60953
305.07849
304.59522
304.15505
303.75408
303.38902
303.05706
302.75577
302.483
302.23691
302.01582
301.81823
326.70985
321.79517
318.56787
316.17757
314.28605
312.72646
311.40454
310.26196
309.26014
308.37228
307.57897
306.86574
306.22148
305.6375
305.10686
304.6239
304.18398
303.7832
303.41828
303.08641
302.78515
302.51237
302.26621
302.04501
301.84729
326.71484
321.80474
318.58043
316.19234
314.30256
312.74438
311.42364
310.28206
309.2811
308.39397
307.6013
306.88861
306.24482
305.66124
305.13093
304.64824
304.20854
303.80793
303.44314
303.11134
302.8101
302.53732
302.29112
302.06983
301.87198
326.71889
321.81265
318.59088
316.20465
314.31634
312.75935
311.4396
310.29887
309.29863
308.41213
307.61999
306.90777
306.26437
305.68113
305.1511
304.66865
304.22914
303.82868
303.46399
303.13225
302.83105
302.55826
302.31202
302.09067
301.89272
326.72208
321.81906
318.5994
316.21472
314.32763
312.77164
311.45272
310.31269
309.31306
308.42708
307.63539
306.92355
306.28049
305.69753
305.16775
304.6855
304.24614
303.8458
303.4812
303.14953
302.84836
302.57557
302.32931
302.1079
301.90988
326.72449
321.82411
318.60617
316.22277
314.33667
312.78149
311.46326
310.32381
309.32468
308.43912
307.6478
306.93628
306.2935
305.71078
305.18119
304.6991
304.25988
303.85965
303.49513
303.16351
302.86236
302.58958
302.3433
302.12186
301.92378
326.7262
321.82792
318.61136
316.22897
314.34368
312.78915
311.47146
310.33247
309.33374
308.44853
307.6575
306.94624
306.30368
305.72115
305.19172
304.70977
304.27066
303.87052
303.50606
303.17449
302.87338
302.6006
302.35431
302.13285
301.93472
326.72727
321.83061
318.61511
316.23351
314.34883
312.7948
311.47754
310.33891
309.34048
308.45554
307.66475
306.95369
306.3113
305.72892
305.19962
304.71778
304.27876
303.87869
303.51429
303.18275
302.88167
302.60891
302.36262
302.14114
301.94299
326.72776
321.83229
318.61756
316.23653
314.3523
312.79864
311.48168
310.34332
309.34512
308.46037
307.66975
306.95884
306.31659
305.73432
305.20512
304.72336
304.28441
303.8844
303.52004
303.18855
302.88748
302.61474
302.36846
302.14698
301.94882
326.72772
321.83303
318.61882
316.23817
314.35424
312.80083
311.48407
310.34589
309.34784
308.46323
307.67273
306.96192
306.31975
305.73756
305.20843
304.72674
304.28784
303.88787
303.52356
303.19209
302.89105
302.61833
302.37206
302.15058
301.95242
326.72721
321.83293
318.619
316.23855
314.35478
312.8015
311.48486
310.34677
309.34881
308.46427
307.67384
306.9631
306.32098
305.73884
305.20976
304.7281
304.28924
303.88931
303.52502
303.19358
302.89256
302.61986
302.37361
302.15215
301.954
326.72625
321.83207
318.61818
316.23778
314.35405
312.8008
311.48419
310.34612
309.34818
308.46367
307.67326
306.96253
306.32044
305.73832
305.20926
304.72762
304.28879
303.88887
303.52461
303.19319
302.8922
302.61952
302.37328
302.15185
301.95373
326.7249
321.83049
318.61646
316.23595
314.35214
312.79883
311.48216
310.34406
309.34609
308.46154
307.67111
306.96038
306.31828
305.73615
305.20709
304.72545
304.28662
303.88672
303.52247
303.19107
302.8901
302.61744
302.37124
302.14984
301.95175
326.72317
321.82825
318.6139
316.23315
314.34915
312.79569
311.4789
310.34069
309.34263
308.45802
307.66753
306.95674
306.31461
305.73245
305.20337
304.72172
304.28289
303.88299
303.51875
303.18736
302.88641
302.61378
302.36761
302.14624
301.94819
326.7211
321.82541
318.61056
316.22944
314.34515
312.79146
311.47448
310.33611
309.33792
308.45319
307.66261
306.95174
306.30954
305.72734
305.19821
304.71654
304.27769
303.87778
303.51354
303.18217
302.88124
302.60863
302.3625
302.14117
301.94317
326.7187
321.822
318.60649
316.22488
314.34021
312.78621
311.46898
310.3304
309.33203
308.44715
307.65643
306.94546
306.30317
305.7209
305.19172
304.71
304.27112
303.8712
303.50696
303.17559
302.87468
302.6021
302.356
302.13473
301.93679
326.716
321.81806
318.60173
316.21953
314.33439
312.78001
311.46246
310.32361
309.32502
308.43995
307.64908
306.93797
306.29557
305.7132
305.18395
304.70218
304.26326
303.86332
303.49906
303.1677
302.86681
302.59426
302.34821
302.12698
301.92911
326.71302
321.81361
318.59631
316.21341
314.32772
312.77289
311.45497
310.31581
309.31695
308.43166
307.6406
306.92933
306.28679
305.70432
305.17497
304.69314
304.25417
303.85419
303.48993
303.15857
302.85769
302.58518
302.33916
302.118
301.92019
326.70975
321.80866
318.59027
316.20656
314.32023
312.76489
311.44655
310.30703
309.30787
308.42232
307.63103
306.91958
306.27689
305.69428
305.16484
304.68292
304.24389
303.84388
303.47959
303.14823
302.84737
302.57489
302.32892
302.10782
301.91009
326.70622
321.80324
318.58361
316.19899
314.31195
312.75604
311.43721
310.29729
309.29778
308.41194
307.62041
306.90874
306.26588
305.68312
305.15356
304.67155
304.23246
303.8324
303.46809
303.13672
302.83588
302.56343
302.31752
302.09648
301.89884
326.70241
321.79734
318.57634
316.19071
314.30289
312.74633
311.42698
310.28661
309.28672
308.40055
307.60874
306.89684
306.25378
305.67086
305.14117
304.65905
304.21988
303.81977
303.45543
303.12406
302.82323
302.55081
302.30495
302.08399
301.88644
326.69834
321.79097
318.56847
316.18173
314.29304
312.73578
311.41584
310.27498
309.27467
308.38814
307.59603
306.88387
306.24059
305.65749
305.12765
304.64542
304.20616
303.80599
303.44162
303.11024
302.80942
302.53704
302.29124
302.07035
301.8729
326.694
321.78412
318.55997
316.17203
314.2824
312.72437
311.40379
310.26239
309.26163
308.37471
307.58226
306.86982
306.2263
305.64301
305.113
304.63065
304.19129
303.79105
303.42664
303.09525
302.79444
302.5221
302.27636
302.05555
301.8582
326.68938
321.77678
318.55085
316.1616
314.27095
312.71208
311.39081
310.24882
309.24756
308.36022
307.56741
306.85466
306.21088
305.62737
305.09719
304.61469
304.17523
303.77492
303.41047
303.07906
302.77826
302.50596
302.26028
302.03956
301.84232
326.68447
321.76893
318.54108
316.15041
314.25865
312.69888
311.37686
310.23424
309.23244
308.34464
307.55144
306.83835
306.19429
305.61054
305.08017
304.59752
304.15795
303.75755
303.39305
303.06162
302.76084
302.48858
302.24297
302.02234
301.82521
326.67926
321.76054
318.53062
316.13842
314.24546
312.68472
311.36189
310.21859
309.21621
308.32791
307.53428
306.82084
306.17647
305.59247
305.06189
304.57908
304.13937
303.73889
303.37434
303.04289
302.74212
302.46989
302.22435
302.00382
301.80681
326.67373
321.75159
318.51943
316.12559
314.23134
312.66955
311.34585
310.20181
309.1988
308.30997
307.51589
306.80205
306.15735
305.57308
305.04227
304.55928
304.11944
303.71886
303.35425
303.02278
302.72202
302.44984
302.20437
301.98394
301.78706
326.66786
321.74204
318.50747
316.11186
314.21622
312.65331
311.32866
310.18383
309.18015
308.29074
307.49616
306.78191
306.13685
305.55228
305.02123
304.53805
304.09806
303.69738
303.3327
303.0012
302.70045
302.42831
302.18292
301.9626
301.76586
326.66163
321.73185
318.49469
316.09717
314.20003
312.6359
311.31025
310.16456
309.16015
308.27012
307.47501
306.76031
306.11487
305.52998
304.99867
304.51527
304.07513
303.67433
303.30958
302.97805
302.67731
302.40522
302.15991
301.9397
301.74311
326.655
321.72095
318.481
316.08143
314.18269
312.61725
311.29051
310.1439
309.13871
308.24801
307.45233
306.73714
306.09129
305.50605
304.97446
304.49084
304.05052
303.64959
303.28477
302.95321
302.65247
302.38043
302.1352
301.91512
301.71869
326.64794
321.7093
318.46635
316.06456
314.16409
312.59724
311.26933
310.12173
309.1157
308.22428
307.42798
306.71226
306.06597
305.48036
304.94846
304.4646
304.02409
303.62303
303.25812
302.92652
302.6258
302.35381
302.10867
301.88872
301.69246
326.64042
321.69683
318.45063
316.04647
314.14412
312.57576
311.24658
310.09792
309.09098
308.19878
307.40182
306.68553
306.03876
305.45276
304.92053
304.4364
303.99569
303.59449
303.22949
302.89785
302.59713
302.32519
302.08016
301.86035
301.66426
326.63239
321.68346
318.43377
316.02703
314.12267
312.55267
311.22213
310.07232
309.0644
308.17136
307.37368
306.65679
306.0095
305.42306
304.89048
304.40607
303.96514
303.56378
303.19868
302.867
302.56629
302.29441
302.04948
301.82982
301.63393
326.6238
321.6691
318.41564
316.00612
314.09959
312.52782
311.19581
310.04476
309.03578
308.14184
307.34339
306.62583
305.97799
305.39108
304.85812
304.3734
303.93224
303.53071
303.1655
302.83378
302.53307
302.26126
302.01644
301.79694
301.60125
326.6146
321.65367
318.39612
315.98361
314.07472
312.50104
311.16744
310.01505
309.00493
308.11001
307.31073
306.59246
305.94401
305.35661
304.82323
304.33818
303.89677
303.49506
303.12974
302.79796
302.49726
302.22551
301.98081
301.76148
301.56602
326.60474
321.63705
318.37509
315.95932
314.0479
312.47215
311.13683
309.98298
308.97163
308.07566
307.27547
306.55644
305.90735
305.3194
304.78558
304.30017
303.85849
303.45658
303.09114
302.7593
302.45862
302.18694
301.94237
301.72322
301.528
326.59414
321.61914
318.35239
315.9331
314.01892
312.44094
311.10375
309.94834
308.93565
308.03854
307.23738
306.51752
305.86772
305.27919
304.74489
304.2591
303.81712
303.41501
303.04943
302.71754
302.41686
302.14526
301.90083
301.68189
301.48692
326.58273
321.59979
318.32786
315.90475
313.98758
312.40717
311.06797
309.91085
308.89671
307.99837
307.19616
306.4754
305.82485
305.23569
304.70087
304.21468
303.77238
303.37004
303.00432
302.67237
302.37171
302.10019
301.85591
301.63719
301.4425
326.57043
321.57887
318.3013
315.87406
313.95364
312.37059
311.02921
309.87025
308.85454
307.95487
307.15152
306.42979
305.77843
305.18859
304.65321
304.16658
303.72394
303.32137
302.9555
302.62348
302.32284
302.05141
301.8073
301.58881
301.39443
326.55715
321.55623
318.27253
315.84078
313.91684
312.33093
310.98717
309.82621
308.80881
307.90769
307.10311
306.38034
305.7281
305.13753
304.60156
304.11445
303.67146
303.26862
302.9026
302.57052
302.2699
301.99857
301.75464
301.53641
301.34235
326.54279
321.53167
318.24131
315.80466
313.87689
312.28787
310.94153
309.77841
308.75917
307.85648
307.05057
306.32668
305.67349
305.08213
304.54553
304.05791
303.61453
303.21143
302.84524
302.51309
302.2125
301.9413
301.69757
301.47961
301.28591
326.52725
321.50502
318.20739
315.7654
313.83346
312.24106
310.89193
309.72645
308.70522
307.80084
306.99349
306.26839
305.61418
305.02198
304.48469
303.99654
303.55276
303.14937
302.78301
302.4508
302.15025
301.87918
301.63567
301.41802
301.22471
326.51038
321.47603
318.17048
315.72268
313.7862
312.19013
310.83794
309.66991
308.64653
307.74032
306.93142
306.20501
305.54972
304.95662
304.4186
303.92988
303.48567
303.08199
302.71547
302.3832
302.0827
301.81177
301.56851
301.3512
301.1583
326.49207
321.44448
318.13028
315.67614
313.7347
312.13463
310.77914
309.60834
308.58261
307.67443
306.86387
306.13606
305.4796
304.88555
304.34676
303.85744
303.41279
303.00881
302.64211
302.3098
302.00936
301.73861
301.49562
301.27868
301.08624
326.47214
321.41008
318.08643
315.62536
313.67852
312.07409
310.715
309.5412
308.51295
307.60264
306.79029
306.06098
305.40328
304.80821
304.26862
303.77867
303.33357
302.92928
302.56242
302.23008
301.92973
301.65918
301.4165
301.19997
301.00804
326.45042
321.37252
318.03853
315.56988
313.61715
312.00796
310.64497
309.46791
308.43693
307.52433
306.71007
305.97917
305.32015
304.72402
304.18359
303.693
303.24743
302.84285
302.47585
302.14349
301.84326
301.57295
301.33062
301.11453
300.92315
326.42671
321.33143
317.98611
315.50916
313.54999
311.93563
310.56839
309.38781
308.35389
307.43884
306.62253
305.88995
305.22955
304.63232
304.09102
303.59978
303.15376
302.7489
302.38178
302.04945
301.74937
301.47934
301.2374
301.02182
300.83104
326.40075
321.28639
317.92862
315.44259
313.47638
311.85638
310.48453
309.30014
308.26308
307.34541
306.52694
305.79258
305.13075
304.53239
303.99022
303.49834
303.05188
302.64678
302.27957
301.94731
301.64744
301.37775
301.13626
300.92123
300.73112
326.37228
321.2369
317.86545
315.36945
313.39554
311.76939
310.39254
309.20406
308.16361
307.24317
306.42243
305.68623
305.02294
304.42344
303.88041
303.38792
302.94108
302.53578
302.16855
301.83642
301.53683
301.26753
301.02656
300.81216
300.62278
326.34094
321.18235
317.79583
315.28887
313.30652
311.67368
310.29143
309.09855
308.05452
307.13116
306.30806
305.56999
304.90523
304.30461
303.76077
303.26774
302.82058
302.41516
302.048
301.71609
301.41685
301.14804
300.90767
300.69397
300.50539
326.30632
321.12203
317.71883
315.19979
313.20821
311.56808
310.18001
308.98244
307.93463
307.00825
306.18276
305.44281
304.77663
304.17496
303.6304
303.13693
302.68957
302.28415
301.91716
301.58559
301.28682
301.01859
300.77892
300.56601
300.37831
326.26788
321.055
317.6333
315.10093
313.09922
311.45119
310.05687
308.85435
307.80262
306.87316
306.04528
305.30354
304.63604
304.03346
303.48834
302.99458
302.54717
302.14192
301.77527
301.44417
301.14601
300.8785
300.63963
300.42763
300.24091
326.22495
320.98005
317.53773
314.99061
312.97781
311.32124
309.92029
308.7126
307.65689
306.72438
305.89425
305.15087
304.48226
303.87899
303.33353
302.83972
302.39251
301.98763
301.62152
301.2911
300.99372
300.72708
300.48916
300.27817
300.09252
326.17657
320.89557
317.43014
314.86665
312.84173
311.17601
309.76811
308.55517
307.49554
306.56019
305.72805
304.98334
304.31395
303.71034
303.16488
302.67136
302.22464
301.82043
301.45512
301.12561
300.82923
300.56365
300.32684
300.11701
299.93255
326.12142
320.79926
317.30773
314.72606
312.68797
311.01259
309.59761
308.37956
307.31633
306.37854
305.54487
304.79935
304.12969
303.52623
302.98125
302.48844
302.04263
301.63947
301.2753
300.947
300.65187
300.38757
300.15207
299.94354
299.7604
326.05744
320.68768
317.16644
314.56461
312.51243
310.82718
309.40536
308.18272
307.11657
306.1771
305.3427
304.59713
303.92794
303.32533
302.78146
302.28996
301.84558
301.44393
301.08131
300.75458
300.46101
300.19826
299.96428
299.75724
299.57555
325.98119
320.55519
316.9999
314.376
312.30932
310.61465
309.18696
307.96091
306.89311
305.95325
305.11932
304.37484
303.70716
303.10632
302.5644
302.07494
301.63264
301.23306
300.87249
300.54775
300.25611
299.99521
299.76299
299.55764
299.37755
325.88601
320.39161
316.79747
314.15056
312.07039
310.36822
308.9369
307.70974
306.64246
305.70418
304.87249
304.13065
303.46583
302.86796
302.32902
301.84251
301.40306
301.00624
300.64829
300.32603
300.03672
299.77801
299.54783
299.34438
299.16605
325.75551
320.17578
316.54014
313.87306
311.78403
310.07923
308.64875
307.4244
306.36099
305.42712
304.60007
303.8629
303.20267
302.60923
302.07451
301.59199
301.1563
300.76298
300.40829
300.08905
299.80253
299.54638
299.31853
299.1172
298.9408
325.53267
319.85759
316.19332
313.52092
311.43556
309.73799
308.31602
307.10043
306.04558
305.11985
304.30044
303.57039
302.91675
302.3294
301.8003
301.32294
300.89199
300.50301
300.15227
299.83663
299.55338
299.30017
299.07497
298.87601
298.70169
)
;

boundaryField
{
    rock_inlet
    {
        type            externalWallHeatFluxTemperature;
        mode            coefficient;
        kappaMethod     solidThermo;
        h               constant 10;
        Ta              uniform 283.15;
        qr              none;
        refValue        uniform 283.15;
        refGradient     uniform 0;
        valueFraction   nonuniform List<scalar> 
25
(
0.25
0.25
0.25
0.25
0.25
0.25
0.25
0.25
0.25
0.25
0.25
0.25
0.25
0.25
0.25
0.25
0.25
0.25
0.25
0.25
0.25
0.25
0.25
0.25
0.25
)
;
        value           nonuniform List<scalar> 
25
(
307.00148
298.68413
294.37379
291.8033
290.12726
288.96385
288.1179
287.48048
286.98651
286.59501
286.27901
286.02012
285.8054
285.62554
285.47363
285.3445
285.23417
285.13953
285.05812
284.98791
284.92724
284.87463
284.82869
284.78797
284.75069
)
;
    }
    rock_outlet
    {
        type            externalWallHeatFluxTemperature;
        mode            coefficient;
        kappaMethod     solidThermo;
        h               constant 0.2;
        Ta              uniform 279.15;
        qr              none;
        refValue        uniform 279.15;
        refGradient     uniform 0;
        valueFraction   nonuniform List<scalar> 
25
(
0.0066225166
0.0066225166
0.0066225166
0.0066225166
0.0066225166
0.0066225166
0.0066225166
0.0066225166
0.0066225166
0.0066225166
0.0066225166
0.0066225166
0.0066225166
0.0066225166
0.0066225166
0.0066225166
0.0066225166
0.0066225166
0.0066225166
0.0066225166
0.0066225166
0.0066225166
0.0066225166
0.0066225166
0.0066225166
)
;
        value           nonuniform List<scalar> 
25
(
325.2255
319.588
315.948
313.29329
311.22174
309.53542
308.12287
306.91533
305.86746
304.94786
304.13388
303.40867
302.75935
302.1759
301.6503
301.1761
300.748
300.3616
300.01319
299.69964
299.41826
299.16672
298.94302
298.74537
298.57221
)
;
    }
    rock_outer
    {
        type            externalWallHeatFluxTemperature;
        mode            coefficient;
        kappaMethod     solidThermo;
        h               constant 0.2;
        Ta              uniform 279.15;
        qr              none;
        refValue        uniform 279.15;
        refGradient     uniform 0;
        valueFraction   nonuniform List<scalar> 
100
(
0.003954211
0.003954211
0.003954211
0.003954211
0.003954211
0.003954211
0.003954211
0.003954211
0.003954211
0.003954211
0.003954211
0.003954211
0.003954211
0.003954211
0.003954211
0.003954211
0.003954211
0.003954211
0.003954211
0.003954211
0.003954211
0.003954211
0.003954211
0.003954211
0.003954211
0.003954211
0.003954211
0.003954211
0.003954211
0.003954211
0.003954211
0.003954211
0.003954211
0.003954211
0.003954211
0.003954211
0.003954211
0.003954211
0.003954211
0.003954211
0.003954211
0.003954211
0.003954211
0.003954211
0.003954211
0.003954211
0.003954211
0.003954211
0.003954211
0.003954211
0.003954211
0.003954211
0.003954211
0.003954211
0.003954211
0.003954211
0.003954211
0.003954211
0.003954211
0.003954211
0.003954211
0.003954211
0.003954211
0.003954211
0.003954211
0.003954211
0.003954211
0.003954211
0.003954211
0.003954211
0.003954211
0.003954211
0.003954211
0.003954211
0.003954211
0.003954211
0.003954211
0.003954211
0.003954211
0.003954211
0.003954211
0.003954211
0.003954211
0.003954211
0.003954211
0.003954211
0.003954211
0.003954211
0.003954211
0.003954211
0.003954211
0.003954211
0.003954211
0.003954211
0.003954211
0.003954211
0.003954211
0.003954211
0.003954211
0.003954211
)
;
        value           nonuniform List<scalar> 
100
(
285.25999
286.32735
287.38093
288.40903
289.40307
290.35673
291.26547
292.12629
292.93752
293.6986
294.40981
295.07213
295.68706
296.25646
296.78245
297.26728
297.71331
298.12288
298.49835
298.84199
299.15601
299.44252
299.70353
299.94095
300.15658
300.35211
300.52912
300.68908
300.83338
300.9633
301.08003
301.18469
301.27828
301.36176
301.43601
301.50184
301.55998
301.61112
301.6559
301.69488
301.7286
301.75754
301.78213
301.80279
301.81988
301.83372
301.84463
301.85286
301.85866
301.86226
301.86383
301.86356
301.86158
301.85804
301.85304
301.84668
301.83903
301.83016
301.8201
301.80888
301.79653
301.78305
301.76841
301.75259
301.73555
301.71723
301.69755
301.67644
301.65378
301.62945
301.60332
301.57524
301.54502
301.51247
301.47738
301.43951
301.3986
301.35435
301.30647
301.2546
301.19838
301.13742
301.07128
300.9995
300.9216
300.83706