/*--------------------------------*- C++ -*----------------------------------*\
| =========                 |                                                 |
| \\      /  F ield         | OpenFOAM: The Open Source CFD Toolbox           |
|  \\    /   O peration     | Version:  2506                                  |
|   \\  /    A nd           | Website:  www.openfoam.com                      |
|    \\/     M anipulation  |                                                 |
\*---------------------------------------------------------------------------*/
FoamFile
{
    version     2.0;
    format      ascii;
    arch        "LSB;label=32;scalar=64";
    class       volScalarField;
    location    "4000/water";
    object      alphat;
}
// * * * * * * * * * * * * * * * * * * * * * * * * * * * * * * * * * * * * * //

dimensions      [1 -1 -1 0 0 0 0];

internalField   nonuniform List<scalar> 
1000
(
0.038690245
0.038689577
0.038688046
0.038679676
0.038634252
0.038395956
0.037190881
0.031863289
0.019099264
0.016301307
0.036437656
0.036436968
0.036430539
0.036397696
0.036243742
0.035561449
0.032798674
0.024476363
0.014644259
0.017654592
0.034756095
0.034752687
0.034735392
0.034658264
0.034338315
0.033096041
0.028914315
0.020078498
0.014287366
0.017671293
0.033455039
0.033447371
0.03341324
0.033276591
0.032760734
0.03094012
0.025769959
0.018272104
0.015952079
0.01730153
0.032418332
0.032405139
0.032350677
0.032150525
0.031437435
0.029070414
0.023556276
0.018636068
0.018861695
0.016925716
0.031571667
0.031552637
0.031479594
0.031226153
0.030328087
0.02748521
0.02255508
0.020803733
0.022278918
0.016666256
0.030866454
0.030843487
0.030761488
0.030477912
0.029401979
0.026292002
0.023061665
0.024243822
0.025541367
0.016525213
0.03027085
0.030249444
0.030178143
0.029894435
0.028644158
0.025787182
0.025138289
0.028280491
0.028305023
0.016463213
0.029764733
0.029755537
0.02972566
0.0294686
0.028106993
0.026357005
0.028508293
0.032334562
0.03051927
0.016442692
0.029337064
0.029357533
0.029409778
0.029196742
0.027980991
0.028237242
0.032681182
0.036080697
0.032267633
0.01644071
0.028984755
0.029060649
0.029241375
0.029099645
0.02858348
0.031374918
0.037164627
0.03941367
0.03365923
0.016446405
0.028712551
0.028878722
0.02923322
0.029270486
0.030215303
0.035478473
0.041608675
0.042341636
0.034787814
0.016455611
0.028533648
0.028833118
0.029403507
0.029913157
0.033002862
0.040161428
0.045828112
0.044910614
0.035723442
0.016467074
0.028470747
0.02895102
0.029795845
0.031304106
0.036852375
0.04507556
0.049751613
0.047172353
0.036515418
0.016480528
0.028557147
0.029264142
0.030516342
0.033676219
0.041512264
0.049977169
0.053365775
0.049174038
0.037197818
0.016495913
0.028837308
0.029812455
0.031757774
0.037114391
0.046676475
0.054726064
0.056681743
0.050955485
0.037793723
0.016513134
0.02936665
0.030660674
0.033764689
0.041531278
0.052071044
0.059252788
0.0597195
0.052547762
0.038312918
0.016531933
0.030212258
0.03192809
0.036741756
0.046714528
0.057495156
0.063527118
0.062500601
0.053971473
0.038771711
0.016552021
0.031460274
0.033807883
0.040768921
0.052403094
0.062820305
0.067538689
0.065043764
0.055249896
0.039180764
0.0165732
0.033236968
0.036537304
0.045775169
0.058353582
0.067969799
0.071286958
0.067367522
0.056402435
0.039547845
0.016595307
0.035734832
0.040316239
0.051570864
0.064374791
0.072897571
0.07477267
0.069492274
0.057443842
0.039878897
0.016618163
0.039205861
0.045224831
0.057909379
0.07033043
0.077571504
0.078005703
0.071434849
0.058385974
0.04017823
0.016641575
0.043888182
0.0511901
0.064545333
0.076123513
0.081973398
0.080996966
0.073208848
0.059238112
0.040448945
0.016665346
0.04989235
0.058009271
0.071267535
0.081682626
0.086094367
0.083754895
0.07482484
0.060007187
0.040693166
0.016689273
0.05712043
0.065404256
0.077905594
0.086957344
0.089927669
0.086284976
0.076290223
0.060697958
0.040912176
0.016713148
0.065268313
0.073076765
0.084332771
0.091910062
0.093464929
0.088589268
0.077609256
0.061313188
0.041106514
0.01673675
0.07390713
0.08075456
0.090454383
0.096507569
0.096695867
0.090666558
0.078783355
0.061853887
0.041276082
0.016759841
0.082593427
0.088207852
0.096194081
0.10072094
0.099609292
0.092513264
0.079811744
0.062319712
0.041420298
0.016782159
0.090954613
0.095254822
0.10149086
0.10452676
0.10219507
0.094125022
0.08069252
0.062709555
0.041538339
0.016803423
0.098726888
0.1017624
0.10629916
0.10790901
0.10444648
0.095498677
0.081424022
0.063022332
0.041629444
0.016823346
0.10575401
0.10764426
0.11058985
0.11086069
0.10636234
0.096634216
0.082006242
0.063257808
0.041693256
0.016841656
0.1119662
0.11285603
0.11435064
0.11338465
0.10794834
0.097536195
0.082441984
0.063417314
0.041730114
0.016858116
0.11735466
0.11738821
0.11758522
0.11549345
0.10921732
0.098214366
0.082737498
0.063504184
0.041741227
0.016872551
0.1219497
0.12125809
0.12031125
0.11720818
0.11018866
0.098683499
0.082902537
0.063523836
0.041728698
0.016884858
0.12580449
0.12450178
0.12255747
0.1185568
0.11088698
0.09896255
0.082949897
0.06348353
0.04169541
0.016895013
0.12898408
0.12716743
0.12436061
0.11957215
0.1113406
0.099073489
0.082894626
0.063391903
0.041644802
0.016903071
0.13155831
0.12930978
0.12576243
0.12028999
0.1115799
0.099040002
0.082753097
0.063258385
0.041580615
0.01690915
0.13359737
0.13098619
0.12680716
0.12074729
0.11163589
0.098886288
0.082542086
0.063092626
0.041506629
0.016913416
0.13516912
0.13225384
0.12753944
0.12098085
0.11153905
0.098636036
0.08227798
0.062903978
0.041426446
0.016916075
0.13633753
0.1331678
0.12800286
0.12102613
0.11131843
0.098311628
0.081976141
0.062701096
0.041343323
0.016917345
0.13716181
0.1337799
0.12823879
0.12091653
0.11100093
0.097933563
0.081650449
0.06249165
0.041260065
0.016917454
0.13769593
0.13413791
0.12828571
0.1206828
0.11061096
0.097520101
0.081313026
0.062282163
0.041178967
0.01691662
0.13798853
0.13428527
0.12817873
0.12035271
0.11017016
0.097087071
0.080974108
0.062077954
0.041101811
0.016915046
0.13808294
0.13426088
0.1279494
0.11995095
0.1096973
0.096647849
0.08064204
0.061883159
0.041029883
0.016912919
0.13801742
0.13409924
0.12762568
0.11949909
0.1092084
0.096213389
0.080323279
0.061700546
0.040962954
0.016910384
0.13782541
0.13383058
0.12723204
0.11901568
0.10871673
0.095792333
0.080022407
0.061531167
0.040902146
0.016907569
0.13753595
0.13348118
0.1267896
0.1185164
0.10823306
0.095391092
0.079741936
0.061377083
0.040847922
0.016904598
0.13717402
0.13307361
0.12631638
0.11801423
0.10776572
0.095013783
0.079484962
0.061239076
0.040800436
0.016901575
0.13676095
0.1326271
0.12582748
0.11751956
0.1073206
0.094664677
0.079252924
0.061117361
0.040759605
0.016898582
0.13631471
0.13215775
0.12533513
0.11704031
0.1069034
0.094346185
0.079046366
0.061011703
0.040725161
0.016895685
0.13585019
0.13167868
0.12484941
0.11658384
0.10651785
0.094059541
0.078865136
0.060921511
0.040696707
0.016892931
0.1353797
0.13120108
0.1243791
0.11615546
0.10616626
0.093805039
0.078708519
0.060845922
0.040673766
0.016890356
0.13491365
0.13073429
0.12393098
0.11575889
0.10584981
0.093582212
0.07857537
0.060783889
0.040655814
0.016887982
0.13446053
0.13028572
0.12351012
0.11539651
0.10556871
0.09338998
0.078464227
0.060734243
0.040642305
0.016885823
0.13402703
0.12986108
0.12312011
0.11506958
0.10532237
0.093226802
0.078373406
0.060695752
0.040632697
0.016883884
0.13361826
0.12946456
0.12276329
0.11477838
0.1051096
0.093090793
0.078301092
0.060667168
0.040626464
0.016882165
0.13323794
0.12909904
0.1224409
0.11452242
0.10492871
0.092979837
0.078245406
0.06064726
0.040623106
0.016880661
0.13288854
0.12876629
0.12215329
0.1143006
0.10477767
0.092891682
0.078204464
0.060634845
0.040622157
0.016879363
0.13257153
0.12846713
0.12190004
0.11411133
0.10465421
0.092824016
0.078176427
0.060628804
0.04062319
0.01687826
0.13228747
0.12820159
0.12168017
0.11395263
0.10455591
0.092774534
0.078159529
0.060628095
0.040625819
0.01687734
0.13203624
0.12796906
0.1214922
0.11382232
0.10448028
0.092740989
0.078152109
0.060631769
0.0406297
0.016876587
0.13181711
0.12776841
0.12133432
0.11371802
0.10442485
0.092721222
0.078152623
0.060638963
0.04063453
0.016875987
0.13162885
0.12759809
0.12120443
0.11363725
0.10438715
0.092713187
0.078159644
0.060648904
0.040640043
0.016875525
0.13146987
0.12745624
0.12110025
0.1135775
0.10436481
0.092714955
0.078171868
0.060660899
0.040646007
0.016875186
0.13133824
0.12734071
0.12101933
0.11353625
0.10435554
0.092724727
0.078188106
0.060674333
0.040652219
0.016874955
0.13123179
0.12724919
0.12095919
0.11351102
0.10435717
0.092740849
0.078207287
0.060688661
0.040658503
0.016874817
0.13114822
0.12717927
0.12091733
0.11349945
0.10436768
0.092761824
0.078228471
0.060703416
0.040664712
0.016874758
0.13108515
0.12712852
0.12089134
0.1134993
0.10438525
0.092786338
0.078250853
0.060718214
0.040670729
0.016874764
0.13104024
0.12709458
0.12087893
0.11350856
0.10440827
0.092813265
0.078273768
0.060732747
0.040676466
0.016874823
0.13101123
0.12707519
0.12087798
0.11352539
0.10443533
0.092841657
0.07829668
0.060746784
0.040681864
0.016874926
0.13099595
0.12706824
0.12088652
0.11354816
0.10446521
0.092870716
0.078319155
0.06076015
0.040686886
0.016875063
0.13099237
0.12707174
0.12090277
0.1135754
0.10449684
0.092899765
0.078340835
0.060772695
0.040691454
0.016875225
0.13099856
0.12708382
0.12092505
0.11360577
0.10452928
0.092928215
0.078361409
0.060784266
0.040695551
0.016875404
0.13101268
0.12710272
0.12095184
0.11363809
0.10456168
0.092955554
0.078380593
0.060794781
0.040699194
0.016875593
0.13103302
0.12712681
0.12098175
0.1136713
0.10459334
0.092981347
0.078398199
0.060804223
0.040702392
0.016875787
0.13105799
0.12715463
0.12101354
0.11370449
0.10462366
0.093005277
0.078414149
0.060812575
0.040705156
0.016875979
0.13108621
0.12718488
0.12104618
0.11373691
0.1046522
0.093027194
0.078428397
0.060819855
0.040707506
0.016876167
0.13111648
0.12721647
0.12107879
0.11376801
0.10467872
0.093047014
0.078440963
0.06082611
0.040709469
0.016876347
0.13114779
0.12724848
0.12111072
0.11379743
0.10470306
0.093064737
0.078451913
0.060831412
0.040711081
0.016876517
0.13117935
0.12728025
0.1211415
0.11382493
0.10472518
0.093080418
0.078461347
0.060835845
0.040712383
0.016876676
0.13121053
0.12731122
0.12117076
0.11385035
0.10474507
0.093094142
0.078469373
0.060839493
0.040713413
0.016876824
0.13124082
0.12734096
0.12119824
0.11387356
0.10476274
0.093105998
0.078476094
0.060842434
0.040714205
0.01687696
0.13126978
0.12736909
0.12122367
0.11389449
0.10477822
0.093116071
0.078481604
0.060844733
0.040714786
0.016877083
0.13129702
0.1273953
0.12124688
0.11391308
0.10479155
0.093124447
0.078485986
0.060846447
0.040715178
0.016877194
0.13132221
0.12741932
0.12126773
0.11392931
0.1048028
0.093131222
0.078489326
0.060847629
0.040715398
0.016877291
0.13134513
0.12744098
0.12128614
0.11394322
0.10481208
0.093136512
0.078491721
0.060848336
0.040715465
0.016877374
0.13136564
0.12746019
0.12130213
0.11395491
0.10481951
0.09314046
0.07849328
0.060848632
0.040715401
0.016877443
0.13138369
0.12747696
0.12131578
0.11396453
0.10482528
0.093143231
0.078494128
0.060848588
0.040715232
0.0168775
0.13139937
0.1274914
0.12132725
0.11397228
0.1048296
0.093145003
0.078494391
0.060848276
0.040714984
0.016877546
0.1314128
0.12750365
0.12133674
0.11397836
0.10483267
0.093145944
0.07849419
0.060847764
0.040714683
0.016877583
0.13142417
0.12751389
0.12134443
0.11398299
0.10483467
0.093146208
0.078493628
0.060847107
0.040714349
0.016877611
0.13143364
0.12752232
0.12135051
0.11398634
0.10483577
0.093145916
0.078492786
0.060846351
0.040713999
0.016877632
0.13144137
0.12752908
0.12135516
0.11398857
0.1048361
0.093145166
0.078491725
0.060845523
0.040713641
0.016877647
0.1314475
0.12753432
0.12135849
0.1139898
0.10483577
0.093144033
0.07849049
0.060844646
0.04071328
0.016877657
0.13145214
0.12753816
0.12136064
0.11399016
0.10483486
0.093142583
0.07848912
0.060843733
0.040712919
0.016877661
0.13145541
0.12754072
0.12136175
0.11398975
0.10483347
0.093140883
0.07848765
0.060842801
0.040712559
0.01687766
0.13145747
0.12754216
0.12136194
0.11398872
0.10483171
0.093139001
0.078486124
0.060841868
0.040712207
0.016877655
0.13145846
0.12754262
0.12136137
0.11398718
0.10482967
0.093137012
0.078484583
0.060840954
0.040711866
0.016877647
0.13145858
0.1275423
0.12136022
0.11398528
0.10482747
0.093134991
0.078483073
0.06084008
0.040711545
0.016877636
0.13145804
0.12754139
0.12135865
0.11398317
0.10482521
0.093133
0.078481628
0.060839259
0.040711246
0.016877624
)
;

boundaryField
{
    water_inlet
    {
        type            calculated;
        value           uniform 0.041850807;
    }
    water_outlet
    {
        type            calculated;
        value           nonuniform List<scalar> 10(0.13145804 0.12754139 0.12135865 0.11398317 0.10482521 0.093133 0.078481628 0.060839259 0.040711246 0.016877624);
    }
    water_wedge1
    {
        type            wedge;
    }
    water_wedge2
    {
        type            wedge;
    }
    water_to_rock
    {
        type            compressible::alphatWallFunction;
        value           nonuniform List<scalar> 
100
(
0.0020384971
0.0022594581
0.0022621707
0.0022020356
0.0021407407
0.0020983176
0.0020752198
0.002065058
0.002061693
0.0020613679
0.002062302
0.0020638117
0.002065691
0.0020678961
0.0020704176
0.00207324
0.0020763208
0.0020796122
0.0020830818
0.0020867024
0.0020904449
0.0020942779
0.0020981689
0.0021020849
0.0021059917
0.0021098531
0.00211363
0.0021172797
0.0021207563
0.0021240131
0.0021270058
0.0021296961
0.0021320552
0.0021340665
0.0021357262
0.0021370427
0.0021380355
0.0021387321
0.0021391661
0.0021393735
0.0021393913
0.0021392552
0.0021389984
0.002138651
0.002138237
0.0021377772
0.0021372917
0.0021367976
0.0021363086
0.0021358352
0.0021353854
0.0021349648
0.002134577
0.0021342242
0.0021339074
0.0021336265
0.0021333806
0.0021331685
0.0021329882
0.0021328377
0.0021327148
0.0021326169
0.0021325415
0.0021324862
0.0021324485
0.0021324257
0.0021324159
0.0021324167
0.0021324265
0.0021324435
0.0021324661
0.0021324928
0.0021325222
0.002132553
0.0021325844
0.0021326156
0.0021326461
0.0021326755
0.0021327034
0.0021327297
0.0021327541
0.0021327764
0.0021327965
0.0021328144
0.0021328299
0.0021328432
0.0021328544
0.0021328636
0.0021328712
0.0021328773
0.0021328821
0.0021328856
0.0021328881
0.0021328894
0.0021328899
0.0021328897
0.0021328888
0.0021328875
0.0021328859
0.0021328842
)
;
    }
}


// ************************************************************************* //
