/*--------------------------------*- C++ -*----------------------------------*\
| =========                 |                                                 |
| \\      /  F ield         | OpenFOAM: The Open Source CFD Toolbox           |
|  \\    /   O peration     | Version:  2506                                  |
|   \\  /    A nd           | Website:  www.openfoam.com                      |
|    \\/     M anipulation  |                                                 |
\*---------------------------------------------------------------------------*/
FoamFile
{
    version     2.0;
    format      ascii;
    arch        "LSB;label=32;scalar=64";
    class       volScalarField;
    location    "4000/water";
    object      epsilon;
}
// * * * * * * * * * * * * * * * * * * * * * * * * * * * * * * * * * * * * * //

dimensions      [0 2 -3 0 0 0 0];

internalField   nonuniform List<scalar> 
1000
(
7.2399316e-05
7.2397808e-05
7.2397502e-05
7.2398682e-05
7.2424146e-05
7.2686938e-05
7.4736184e-05
8.8973295e-05
0.00019794853
0.0013048048
4.7739543e-05
4.7745807e-05
4.7746167e-05
4.7748745e-05
4.7810065e-05
4.8371229e-05
5.2145896e-05
7.5319315e-05
0.00023607336
0.0016574915
3.3261229e-05
3.326441e-05
3.3263962e-05
3.3272039e-05
3.3396639e-05
3.4348945e-05
3.9973169e-05
7.1502236e-05
0.00026550033
0.0016622
2.4212884e-05
2.4213778e-05
2.421353e-05
2.4236018e-05
2.4468828e-05
2.5979962e-05
3.4086685e-05
7.6375209e-05
0.00030233577
0.0015600258
1.8263229e-05
1.8263302e-05
1.8265922e-05
1.8318446e-05
1.873072e-05
2.1090701e-05
3.2935471e-05
9.0422646e-05
0.0003505343
0.0014605592
1.4183053e-05
1.4183388e-05
1.4193787e-05
1.4301413e-05
1.5003316e-05
1.8678134e-05
3.6167844e-05
0.00011337661
0.00040230389
0.0013944153
1.1285033e-05
1.1287109e-05
1.1313191e-05
1.1514088e-05
1.2672053e-05
1.8360644e-05
4.3854099e-05
0.00014255053
0.00044702313
0.001359313
9.1651308e-06
9.1712238e-06
9.2251473e-06
9.5765183e-06
1.1437675e-05
2.0107218e-05
5.5828203e-05
0.00017322852
0.00047957525
0.0013440706
7.5754963e-06
7.5890768e-06
7.6892454e-06
8.2761051e-06
1.119822e-05
2.4041221e-05
7.1186874e-05
0.00020099
0.00050080673
0.00133905
6.3585386e-06
6.3848727e-06
6.5589459e-06
7.5064244e-06
1.1984531e-05
3.0236088e-05
8.827721e-05
0.00022355874
0.00051392983
0.0013385656
5.4111025e-06
5.4581715e-06
5.7474942e-06
7.2369334e-06
1.3906687e-05
3.8515433e-05
0.00010524303
0.00024078279
0.00052197882
0.0013399576
4.6642397e-06
4.7441301e-06
5.2100534e-06
7.4969522e-06
1.7087027e-05
4.8355586e-05
0.00012068235
0.00025359535
0.00052708061
0.0013422097
4.0714678e-06
4.2024401e-06
4.9349819e-06
8.3622726e-06
2.1575488e-05
5.8975535e-05
0.0001339306
0.00026313411
0.00053055274
0.0013450165
3.6019035e-06
3.811413e-06
4.9402447e-06
9.9351203e-06
2.7272235e-05
6.9567096e-05
0.00014492626
0.00027035427
0.00053316266
0.0013483151
3.236393e-06
3.5653597e-06
5.2715495e-06
1.2311447e-05
3.3901691e-05
7.9510689e-05
0.00015392441
0.00027595617
0.00053534058
0.0013520943
2.9656637e-06
3.4742217e-06
5.998401e-06
1.5537481e-05
4.1062717e-05
8.8460962e-05
0.00016127352
0.00028042523
0.00053731639
0.0013563334
2.790012e-06
3.5645492e-06
7.2040529e-06
1.9569941e-05
4.8330043e-05
9.6307001e-05
0.00016730372
0.00028408906
0.00053917748
0.0013609716
2.7202634e-06
3.880409e-06
8.9663675e-06
2.4261401e-05
5.5350007e-05
0.0001030838
0.00017229232
0.00028715789
0.00054093697
0.0013659393
2.7797357e-06
4.4819531e-06
1.1330775e-05
2.938303e-05
6.1887489e-05
0.00010889377
0.00017645204
0.00028975396
0.00054267271
0.0013711899
3.0065637e-06
5.4386852e-06
1.4283584e-05
3.4675036e-05
6.7820875e-05
0.00011385665
0.0001799386
0.00029198046
0.00054443458
0.001376684
3.4547891e-06
6.8148462e-06
1.7738609e-05
3.9899732e-05
7.3111876e-05
0.00011808675
0.00018285394
0.00029394161
0.00054623662
0.0013823795
4.1911529e-06
8.6475987e-06
2.1546229e-05
4.4874728e-05
7.7769182e-05
0.00012165882
0.00018531791
0.00029569747
0.0005480739
0.0013882302
5.2835939e-06
1.0924859e-05
2.5521729e-05
4.9478038e-05
8.1803673e-05
0.00012466941
0.00018741281
0.00029728397
0.0005499326
0.0013941875
6.779925e-06
1.3574411e-05
2.9480245e-05
5.3622552e-05
8.5253112e-05
0.00012719929
0.00018919517
0.00029872099
0.0005517939
0.0014002013
8.6832307e-06
1.6474048e-05
3.3249982e-05
5.7259517e-05
8.8167043e-05
0.00012930771
0.00019070228
0.00030001678
0.0005536352
0.0014062194
1.0937807e-05
1.9464209e-05
3.6694111e-05
6.0377174e-05
9.0586611e-05
0.00013103654
0.00019195677
0.0003011707
0.00055543055
0.0014121857
1.3423249e-05
2.2384314e-05
3.9726963e-05
6.2977869e-05
9.2544781e-05
0.00013241423
0.00019297026
0.00030217531
0.00055715091
0.0014180388
1.5988091e-05
2.5103496e-05
4.2303158e-05
6.5074414e-05
9.4068681e-05
0.00013345988
0.00019374683
0.00030301865
0.00055876503
0.001423711
1.848451e-05
2.7531385e-05
4.4410705e-05
6.6689257e-05
9.5183167e-05
0.00013418762
0.00019428675
0.00030368692
0.00056024123
0.0014291291
2.0793628e-05
2.9617732e-05
4.606354e-05
6.785429e-05
9.5914457e-05
0.00013461093
0.00019459028
0.00030416767
0.00056155008
0.0014342179
2.2836427e-05
3.1345685e-05
4.7294021e-05
6.860994e-05
9.6292807e-05
0.00013474626
0.0001946612
0.00030445295
0.0005626674
0.0014389054
2.4572691e-05
3.2722998e-05
4.814596e-05
6.9003206e-05
9.6353681e-05
0.00013461538
0.00019450938
0.00030454188
0.00056357706
0.0014431287
2.5993421e-05
3.3773694e-05
4.8668789e-05
6.9084977e-05
9.6137391e-05
0.0001342462
0.00019415205
0.00030444207
0.00056427279
0.0014468395
2.7111429e-05
3.4531245e-05
4.8913168e-05
6.8907214e-05
9.5687631e-05
0.00013367219
0.00019361363
0.00030416965
0.00056475869
0.0014500086
2.7952838e-05
3.5033484e-05
4.8927987e-05
6.8520484e-05
9.5049447e-05
0.00013293074
0.00019292439
0.00030374808
0.00056504845
0.0014526273
2.8550523e-05
3.5319067e-05
4.8758556e-05
6.7972096e-05
9.4267169e-05
0.00013206108
0.00019211832
0.00030320604
0.00056516336
0.0014547069
2.8939565e-05
3.5425197e-05
4.8445639e-05
6.7304887e-05
9.3382616e-05
0.00013110209
0.00019123071
0.00030257487
0.00056512984
0.0014562764
2.9154368e-05
3.5386269e-05
4.8025084e-05
6.655657e-05
9.2433774e-05
0.00013009039
0.00019029591
0.00030188605
0.00056497665
0.0014573785
2.9226984e-05
3.523317e-05
4.7527828e-05
6.5759534e-05
9.1453954e-05
0.00012905894
0.00018934546
0.00030116912
0.00056473251
0.0014580651
2.9186274e-05
3.4993025e-05
4.6980115e-05
6.4940942e-05
9.0471401e-05
0.00012803614
0.00018840686
0.00030045015
0.00056442422
0.0014583933
2.9057586e-05
3.4689212e-05
4.6403853e-05
6.4123041e-05
8.9509262e-05
0.00012704537
0.00018750276
0.00029975078
0.00056407541
0.0014584215
2.8862761e-05
3.4341558e-05
4.581702e-05
6.3323599e-05
8.8585814e-05
0.000126105
0.00018665084
0.00029908793
0.00056370593
0.0014582061
2.8620327e-05
3.3966621e-05
4.5234102e-05
6.2556383e-05
8.7714865e-05
0.00012522862
0.00018586391
0.00029847391
0.00056333171
0.0014577999
2.8345774e-05
3.357802e-05
4.4666523e-05
6.1831675e-05
8.6906253e-05
0.00012442552
0.00018515032
0.00029791672
0.00056296477
0.0014572502
2.805188e-05
3.3186777e-05
4.4123054e-05
6.1156754e-05
8.6166366e-05
0.00012370116
0.00018451451
0.00029742042
0.00056260936
0.0014565953
2.7749041e-05
3.2801648e-05
4.3610192e-05
6.0536375e-05
8.5498722e-05
0.00012305797
0.00018395787
0.00029698509
0.00056226357
0.001455868
2.7445585e-05
3.2429438e-05
4.3132521e-05
5.9973209e-05
8.4904519e-05
0.00012249583
0.00018347862
0.00029660458
0.00056194028
0.0014551003
2.7148068e-05
3.2075291e-05
4.2693031e-05
5.9468244e-05
8.4383071e-05
0.00012201232
0.00018307005
0.00029628028
0.00056164623
0.0014543194
2.686154e-05
3.1742955e-05
4.2293405e-05
5.9021121e-05
8.3932069e-05
0.00012160121
0.00018272937
0.00029601094
0.00056138434
0.0014535468
2.6589791e-05
3.1435038e-05
4.1934329e-05
5.8630256e-05
8.3546405e-05
0.00012125848
0.00018245252
0.00029579336
0.00056115524
0.0014527992
2.6335592e-05
3.1153221e-05
4.1615285e-05
5.8292253e-05
8.3222203e-05
0.00012097929
0.00018223431
0.0002956232
0.00056095808
0.0014520892
2.6100741e-05
3.0898064e-05
4.1334773e-05
5.8004134e-05
8.295503e-05
0.00012075817
0.00018206895
0.00029549557
0.00056079115
0.0014514254
2.5886133e-05
3.0669455e-05
4.1091111e-05
5.7762556e-05
8.2740083e-05
0.00012058935
0.0001819504
0.00029540532
0.00056065221
0.0014508136
2.5692122e-05
3.0466871e-05
4.0882306e-05
5.7563913e-05
8.2572354e-05
0.0001204669
0.00018187262
0.00029534739
0.0005605388
0.0014502573
2.5518636e-05
3.0289446e-05
4.070611e-05
5.7404436e-05
8.2446774e-05
0.00012038498
0.00018182977
0.00029531692
0.00056044834
0.0014497577
2.5365255e-05
3.0136037e-05
4.0560099e-05
5.7280283e-05
8.2358329e-05
0.00012033794
0.0001818163
0.00029530937
0.00056037831
0.0014493148
2.5231285e-05
3.000528e-05
4.0441727e-05
5.7187619e-05
8.2302152e-05
0.00012032043
0.00018182708
0.00029532057
0.00056032625
0.0014489273
2.5115814e-05
2.9895654e-05
4.0348392e-05
5.7122681e-05
8.2273598e-05
0.00012032746
0.00018185742
0.00029534677
0.00056028987
0.0014485929
2.5017763e-05
2.9805523e-05
4.0277483e-05
5.7081834e-05
8.2268297e-05
0.00012035443
0.00018190308
0.00029538461
0.00056026699
0.0014483088
2.4935929e-05
2.9733183e-05
4.0226426e-05
5.7061615e-05
8.2282193e-05
0.00012039717
0.00018196031
0.00029543116
0.00056025562
0.0014480718
2.4869029e-05
2.9676901e-05
4.0192718e-05
5.7058768e-05
8.2311569e-05
0.00012045196
0.00018202581
0.00029548385
0.00056025389
0.0014478781
2.4815725e-05
2.9634944e-05
4.0173964e-05
5.7070265e-05
8.2353057e-05
0.00012051549
0.00018209672
0.00029554047
0.00056026008
0.001447724
2.4774663e-05
2.9605614e-05
4.0167895e-05
5.7093329e-05
8.2403644e-05
0.00012058488
0.00018217058
0.00029559911
0.0005602726
0.0014476054
2.4744493e-05
2.9587262e-05
4.0172389e-05
5.7125438e-05
8.2460669e-05
0.00012065764
0.00018224534
0.0002956582
0.00056029002
0.0014475184
2.4723893e-05
2.9578319e-05
4.0185488e-05
5.7164334e-05
8.2521818e-05
0.00012073168
0.00018231929
0.00029571642
0.00056031107
0.0014474588
2.4711588e-05
2.9577304e-05
4.0205409e-05
5.7208024e-05
8.2585108e-05
0.00012080525
0.00018239106
0.00029577277
0.00056033469
0.001447423
2.4706363e-05
2.9582842e-05
4.0230543e-05
5.7254771e-05
8.2648869e-05
0.00012087695
0.00018245961
0.00029582645
0.00056036001
0.0014474073
2.4707081e-05
2.9593668e-05
4.0259463e-05
5.7303084e-05
8.2711724e-05
0.00012094565
0.00018252414
0.00029587691
0.00056038631
0.0014474087
2.4712684e-05
2.9608633e-05
4.0290914e-05
5.7351707e-05
8.2772559e-05
0.0001210105
0.00018258407
0.00029592374
0.00056041297
0.0014474241
2.4722201e-05
2.9626707e-05
4.0323813e-05
5.7399594e-05
8.2830496e-05
0.00012107088
0.00018263902
0.00029596666
0.00056043941
0.0014474509
2.4734753e-05
2.9646976e-05
4.0357231e-05
5.7445897e-05
8.2884866e-05
0.00012112635
0.00018268876
0.00029600548
0.0005604651
0.0014474866
2.474955e-05
2.9668639e-05
4.0390392e-05
5.7489947e-05
8.2935185e-05
0.00012117664
0.00018273317
0.0002960401
0.00056048938
0.0014475288
2.4765895e-05
2.9691007e-05
4.0422661e-05
5.7531236e-05
8.2981138e-05
0.00012122164
0.0001827723
0.00029607046
0.00056051145
0.0014475751
2.4783182e-05
2.9713497e-05
4.0453533e-05
5.7569406e-05
8.3022559e-05
0.00012126137
0.00018280625
0.00029609644
0.00056053126
0.0014476236
2.4800889e-05
2.9735626e-05
4.0482621e-05
5.7604231e-05
8.3059411e-05
0.00012129595
0.00018283513
0.00029611822
0.00056054912
0.0014476729
2.4818582e-05
2.9757005e-05
4.0509648e-05
5.7635597e-05
8.3091762e-05
0.00012132553
0.00018285914
0.00029613627
0.00056056522
0.0014477219
2.4835902e-05
2.9777333e-05
4.0534434e-05
5.7663491e-05
8.3119715e-05
0.00012135031
0.00018287877
0.00029615103
0.00056057969
0.0014477699
2.4852565e-05
2.9796386e-05
4.0556882e-05
5.7687931e-05
8.3143414e-05
0.00012137067
0.00018289445
0.00029616285
0.00056059265
0.0014478162
2.4868354e-05
2.9814011e-05
4.0576924e-05
5.770899e-05
8.3163142e-05
0.00012138702
0.00018290662
0.00029617206
0.00056060413
0.0014478602
2.4883098e-05
2.9830081e-05
4.0594555e-05
5.7726834e-05
8.3179209e-05
0.00012139975
0.00018291566
0.00029617895
0.00056061417
0.0014479018
2.4896668e-05
2.9844532e-05
4.0609833e-05
5.7741664e-05
8.3191942e-05
0.00012140926
0.00018292196
0.00029618378
0.00056062275
0.0014479403
2.4908984e-05
2.9857343e-05
4.0622855e-05
5.7753711e-05
8.3201675e-05
0.00012141592
0.00018292586
0.00029618679
0.00056062989
0.0014479756
2.4920008e-05
2.9868535e-05
4.063375e-05
5.7763223e-05
8.3208745e-05
0.0001214201
0.0001829277
0.00029618822
0.00056063566
0.0014480073
2.4929737e-05
2.9878163e-05
4.0642673e-05
5.7770459e-05
8.3213486e-05
0.00012142217
0.00018292782
0.00029618832
0.00056064015
0.0014480352
2.4938199e-05
2.9886305e-05
4.0649791e-05
5.7775679e-05
8.3216223e-05
0.00012142247
0.00018292653
0.00029618733
0.00056064354
0.0014480595
2.4945446e-05
2.989306e-05
4.0655286e-05
5.7779144e-05
8.3217267e-05
0.00012142132
0.00018292412
0.0002961855
0.00056064599
0.0014480803
2.4951547e-05
2.9898538e-05
4.0659337e-05
5.7781103e-05
8.3216908e-05
0.00012141901
0.00018292086
0.00029618304
0.00056064769
0.0014480978
2.4956583e-05
2.9902858e-05
4.0662126e-05
5.7781791e-05
8.3215413e-05
0.00012141582
0.00018291698
0.00029618014
0.00056064877
0.0014481124
2.4960644e-05
2.9906143e-05
4.0663823e-05
5.7781427e-05
8.3213021e-05
0.00012141196
0.00018291268
0.00029617693
0.00056064933
0.0014481244
2.4963822e-05
2.9908511e-05
4.0664593e-05
5.7780208e-05
8.3209943e-05
0.00012140764
0.00018290812
0.00029617354
0.00056064943
0.0014481341
2.4966213e-05
2.9910081e-05
4.0664586e-05
5.7778312e-05
8.3206364e-05
0.00012140302
0.00018290342
0.00029617004
0.0005606491
0.0014481417
2.4967909e-05
2.9910962e-05
4.0663942e-05
5.77759e-05
8.3202444e-05
0.00012139825
0.00018289871
0.00029616651
0.00056064839
0.0014481473
2.4968999e-05
2.9911262e-05
4.0662788e-05
5.7773112e-05
8.3198324e-05
0.00012139344
0.00018289406
0.000296163
0.00056064735
0.0014481511
2.496957e-05
2.9911077e-05
4.066124e-05
5.7770074e-05
8.3194124e-05
0.00012138871
0.00018288957
0.00029615958
0.00056064606
0.0014481532
2.4969705e-05
2.99105e-05
4.0659402e-05
5.7766894e-05
8.3189946e-05
0.00012138414
0.0001828853
0.00029615632
0.0005606446
0.0014481539
2.4969481e-05
2.9909616e-05
4.0657366e-05
5.7763668e-05
8.3185878e-05
0.00012137979
0.0001828813
0.00029615327
0.00056064307
0.0014481534
2.496897e-05
2.99085e-05
4.0655213e-05
5.7760472e-05
8.3181986e-05
0.00012137574
0.00018287763
0.00029615047
0.00056064156
0.001448152
2.4968238e-05
2.990722e-05
4.0653011e-05
5.7757372e-05
8.3178325e-05
0.000121372
0.0001828743
0.00029614795
0.00056064012
0.00144815
2.4967341e-05
2.9905836e-05
4.0650819e-05
5.7754418e-05
8.3174932e-05
0.00012136861
0.00018287133
0.00029614572
0.00056063877
0.0014481476
2.4966333e-05
2.9904401e-05
4.064869e-05
5.7751658e-05
8.3171842e-05
0.00012136558
0.00018286871
0.00029614374
0.00056063747
0.001448145
)
;

boundaryField
{
    water_inlet
    {
        type            turbulentMixingLengthDissipationRateInlet;
        mixingLength    0.005;
        phi             phi;
        k               k;
        value           uniform 0.00011791765;
    }
    water_outlet
    {
        type            inletOutlet;
        inletValue      uniform 0.0001;
        value           nonuniform List<scalar> 10(2.4966333e-05 2.9904401e-05 4.064869e-05 5.7751658e-05 8.3171842e-05 0.00012136558 0.00018286871 0.00029614374 0.00056063747 0.001448145);
    }
    water_wedge1
    {
        type            wedge;
    }
    water_wedge2
    {
        type            wedge;
    }
    water_to_rock
    {
        type            epsilonWallFunction;
        blending        stepwise;
        value           nonuniform List<scalar> 
100
(
0.0013048048
0.0016574915
0.0016622
0.0015600258
0.0014605592
0.0013944153
0.001359313
0.0013440706
0.00133905
0.0013385656
0.0013399576
0.0013422097
0.0013450165
0.0013483151
0.0013520943
0.0013563334
0.0013609716
0.0013659393
0.0013711899
0.001376684
0.0013823795
0.0013882302
0.0013941875
0.0014002013
0.0014062194
0.0014121857
0.0014180388
0.001423711
0.0014291291
0.0014342179
0.0014389054
0.0014431287
0.0014468395
0.0014500086
0.0014526273
0.0014547069
0.0014562764
0.0014573785
0.0014580651
0.0014583933
0.0014584215
0.0014582061
0.0014577999
0.0014572502
0.0014565953
0.001455868
0.0014551003
0.0014543194
0.0014535468
0.0014527992
0.0014520892
0.0014514254
0.0014508136
0.0014502573
0.0014497577
0.0014493148
0.0014489273
0.0014485929
0.0014483088
0.0014480718
0.0014478781
0.001447724
0.0014476054
0.0014475184
0.0014474588
0.001447423
0.0014474073
0.0014474087
0.0014474241
0.0014474509
0.0014474866
0.0014475288
0.0014475751
0.0014476236
0.0014476729
0.0014477219
0.0014477699
0.0014478162
0.0014478602
0.0014479018
0.0014479403
0.0014479756
0.0014480073
0.0014480352
0.0014480595
0.0014480803
0.0014480978
0.0014481124
0.0014481244
0.0014481341
0.0014481417
0.0014481473
0.0014481511
0.0014481532
0.0014481539
0.0014481534
0.001448152
0.00144815
0.0014481476
0.001448145
)
;
    }
}


// ************************************************************************* //
