/*--------------------------------*- C++ -*----------------------------------*\
| =========                 |                                                 |
| \\      /  F ield         | OpenFOAM: The Open Source CFD Toolbox           |
|  \\    /   O peration     | Version:  2506                                  |
|   \\  /    A nd           | Website:  www.openfoam.com                      |
|    \\/     M anipulation  |                                                 |
\*---------------------------------------------------------------------------*/
FoamFile
{
    version     2.0;
    format      ascii;
    arch        "LSB;label=32;scalar=64";
    class       volScalarField;
    location    "4000/water";
    object      nut;
}
// * * * * * * * * * * * * * * * * * * * * * * * * * * * * * * * * * * * * * //

dimensions      [0 2 -1 0 0 0 0];

internalField   nonuniform List<scalar> 
1000
(
3.8760013e-05
3.8759344e-05
3.875781e-05
3.8749425e-05
3.8703919e-05
3.8465194e-05
3.7257946e-05
3.1920746e-05
1.9133704e-05
1.6330702e-05
3.6503362e-05
3.6502673e-05
3.6496233e-05
3.646333e-05
3.6309099e-05
3.5625575e-05
3.2857818e-05
2.45205e-05
1.4670666e-05
1.7686427e-05
3.4818769e-05
3.4815355e-05
3.4798028e-05
3.4720761e-05
3.4400236e-05
3.3155722e-05
2.8966455e-05
2.0114704e-05
1.431313e-05
1.7703159e-05
3.3515366e-05
3.3507685e-05
3.3473492e-05
3.3336596e-05
3.2819809e-05
3.0995912e-05
2.5816429e-05
1.8305053e-05
1.5980844e-05
1.7332729e-05
3.247679e-05
3.2463573e-05
3.2409014e-05
3.2208501e-05
3.1494124e-05
2.9122835e-05
2.3598754e-05
1.8669673e-05
1.8895707e-05
1.6956237e-05
3.1628598e-05
3.1609534e-05
3.1536359e-05
3.1282461e-05
3.0382776e-05
2.7534773e-05
2.2595752e-05
2.0841247e-05
2.2319093e-05
1.669631e-05
3.0922114e-05
3.0899105e-05
3.0816959e-05
3.0532871e-05
2.9454998e-05
2.6339413e-05
2.3103251e-05
2.428754e-05
2.5587425e-05
1.6555012e-05
3.0325436e-05
3.0303991e-05
3.0232562e-05
2.9948342e-05
2.8695811e-05
2.5833682e-05
2.5183619e-05
2.8331487e-05
2.8356064e-05
1.64929e-05
2.9818406e-05
2.9809194e-05
2.9779263e-05
2.9521739e-05
2.8157677e-05
2.6404533e-05
2.85597e-05
3.2392869e-05
3.0574303e-05
1.6472343e-05
2.9389966e-05
2.9410472e-05
2.9462811e-05
2.9249391e-05
2.8031448e-05
2.828816e-05
3.2740114e-05
3.614576e-05
3.2325819e-05
1.6470357e-05
2.9037021e-05
2.9113052e-05
2.9294105e-05
2.9152119e-05
2.8635023e-05
3.1431495e-05
3.7231644e-05
3.9484742e-05
3.3719925e-05
1.6476062e-05
2.8764327e-05
2.8930797e-05
2.9285935e-05
2.9323268e-05
3.0269789e-05
3.5542449e-05
4.1683706e-05
4.2417989e-05
3.4850545e-05
1.6485285e-05
2.8585101e-05
2.8885112e-05
2.9456529e-05
2.9967098e-05
3.3062374e-05
4.0233849e-05
4.5910751e-05
4.4991599e-05
3.578786e-05
1.6496769e-05
2.8522087e-05
2.9003226e-05
2.9849574e-05
3.1360555e-05
3.6918829e-05
4.5156842e-05
4.9841327e-05
4.7257416e-05
3.6581264e-05
1.6510246e-05
2.8608643e-05
2.9316912e-05
3.0571371e-05
3.3736945e-05
4.158712e-05
5.006729e-05
5.3462006e-05
4.9262711e-05
3.7264895e-05
1.6525659e-05
2.8889308e-05
2.9866215e-05
3.1815041e-05
3.7181318e-05
4.6760644e-05
5.4824748e-05
5.6783954e-05
5.104737e-05
3.7861874e-05
1.6542911e-05
2.9419606e-05
3.0715963e-05
3.3825575e-05
4.1606169e-05
5.2164941e-05
5.9359635e-05
5.9827189e-05
5.2642518e-05
3.8382005e-05
1.6561744e-05
3.0266738e-05
3.1985664e-05
3.6808011e-05
4.6798765e-05
5.7598834e-05
6.3641673e-05
6.2613305e-05
5.4068797e-05
3.8841626e-05
1.6581868e-05
3.1517005e-05
3.3868847e-05
4.0842437e-05
5.2497589e-05
6.2933585e-05
6.7660478e-05
6.5161054e-05
5.5349525e-05
3.9251417e-05
1.6603086e-05
3.3296903e-05
3.660319e-05
4.5857713e-05
5.8458808e-05
6.8092365e-05
7.1415506e-05
6.7489002e-05
5.6504142e-05
3.961916e-05
1.6625232e-05
3.579927e-05
4.0388939e-05
5.1663858e-05
6.4490875e-05
7.3029023e-05
7.4907504e-05
6.9617586e-05
5.7547427e-05
3.9950809e-05
1.6648129e-05
3.9276558e-05
4.5306383e-05
5.8013803e-05
7.0457253e-05
7.7711384e-05
7.8146366e-05
7.1563664e-05
5.8491259e-05
4.0250682e-05
1.6671584e-05
4.3967324e-05
5.1282408e-05
6.4661724e-05
7.6260783e-05
8.2121216e-05
8.1143024e-05
7.3340861e-05
5.9344933e-05
4.0521885e-05
1.6695398e-05
4.9982318e-05
5.8113876e-05
7.1396048e-05
8.182992e-05
8.6249616e-05
8.3905925e-05
7.4959768e-05
6.0115395e-05
4.0766546e-05
1.6719368e-05
5.7223433e-05
6.5522196e-05
7.8046077e-05
8.7114149e-05
9.0089831e-05
8.6440569e-05
7.6427793e-05
6.0807411e-05
4.0985951e-05
1.6743286e-05
6.5386008e-05
7.320854e-05
8.4484843e-05
9.2075798e-05
9.3633469e-05
8.8749016e-05
7.7749205e-05
6.142375e-05
4.118064e-05
1.6766931e-05
7.4040403e-05
8.090018e-05
9.0617495e-05
9.6681596e-05
9.6870233e-05
9.0830052e-05
7.892542e-05
6.1965425e-05
4.1350512e-05
1.6790063e-05
8.2742363e-05
8.8366913e-05
9.6367542e-05
0.00010090256
9.9788913e-05
9.2680088e-05
7.9955664e-05
6.2432089e-05
4.1494989e-05
1.6812421e-05
9.1118626e-05
9.5426589e-05
0.00010167387
0.00010471524
0.00010237935
9.4294753e-05
8.0838029e-05
6.2822636e-05
4.1613242e-05
1.6833723e-05
9.8904917e-05
0.00010194591
0.00010649085
0.0001081036
0.00010463482
9.5670885e-05
8.1570849e-05
6.3135977e-05
4.1704512e-05
1.6853683e-05
0.00010594471
0.00010783837
0.00011078928
0.0001110606
0.00010655414
9.6808471e-05
8.2154119e-05
6.3371877e-05
4.176844e-05
1.6872026e-05
0.0001121681
0.00011305954
0.00011455684
0.00011358912
0.000108143
9.7712076e-05
8.2590647e-05
6.3531671e-05
4.1805364e-05
1.6888516e-05
0.00011756628
0.00011759989
0.00011779725
0.00011570171
0.00010941427
9.8391471e-05
8.2886694e-05
6.3618698e-05
4.1816496e-05
1.6902976e-05
0.0001221696
0.00012147675
0.0001205282
0.00011741953
0.00011038736
9.8861449e-05
8.3052031e-05
6.3638385e-05
4.1803945e-05
1.6915305e-05
0.00012603135
0.00012472629
0.00012277847
0.00011877059
0.00011108694
9.9141004e-05
8.3099476e-05
6.3598007e-05
4.1770597e-05
1.6925479e-05
0.00012921667
0.00012739674
0.00012458487
0.00011978777
0.00011154138
9.9252143e-05
8.3044106e-05
6.3506214e-05
4.1719898e-05
1.6933552e-05
0.00013179555
0.00012954295
0.00012598922
0.0001205069
0.0001117811
9.9218595e-05
8.2902321e-05
6.3372455e-05
4.1655595e-05
1.6939641e-05
0.00013383828
0.00013122239
0.00012703582
0.00012096503
0.00011183719
9.9064604e-05
8.2690929e-05
6.3206397e-05
4.1581475e-05
1.6943916e-05
0.00013541286
0.00013249232
0.00012776943
0.00012119901
0.00011174018
9.8813901e-05
8.2426347e-05
6.301741e-05
4.1501148e-05
1.6946578e-05
0.00013658338
0.00013340794
0.00012823368
0.00012124437
0.00011151916
9.8488908e-05
8.2123964e-05
6.2814162e-05
4.1417876e-05
1.6947851e-05
0.00013740915
0.00013402113
0.00012847004
0.00012113457
0.00011120109
9.8110162e-05
8.1797685e-05
6.2604338e-05
4.1334467e-05
1.694796e-05
0.00013794423
0.0001343798
0.00012851704
0.00012090042
0.00011081042
9.7695953e-05
8.1459654e-05
6.2394473e-05
4.1253223e-05
1.6947124e-05
0.00013823736
0.00013452741
0.00012840987
0.00012056973
0.00011036882
9.7262143e-05
8.1120124e-05
6.2189896e-05
4.1175927e-05
1.6945548e-05
0.00013833194
0.00013450298
0.00012818012
0.00012016725
0.00010989512
9.6822129e-05
8.0787458e-05
6.1994749e-05
4.110387e-05
1.6943417e-05
0.0001382663
0.00013434105
0.00012785582
0.00011971458
0.00010940533
9.6386885e-05
8.0468122e-05
6.1811807e-05
4.103682e-05
1.6940878e-05
0.00013807394
0.00013407191
0.00012746147
0.0001192303
0.00010891278
9.596507e-05
8.0166707e-05
6.1642123e-05
4.0975903e-05
1.6938058e-05
0.00013778396
0.00013372188
0.00012701823
0.00011873012
0.00010842824
9.5563105e-05
7.988573e-05
6.1487761e-05
4.092158e-05
1.6935081e-05
0.00013742138
0.00013331357
0.00012654416
0.00011822704
0.00010796005
9.5185116e-05
7.9628293e-05
6.1349505e-05
4.0874009e-05
1.6932052e-05
0.00013700756
0.00013286626
0.00012605437
0.00011773148
0.00010751412
9.4835381e-05
7.9395836e-05
6.1227571e-05
4.0833105e-05
1.6929054e-05
0.00013656052
0.00013239606
0.00012556114
0.00011725136
0.00010709618
9.4516314e-05
7.9188906e-05
6.1121722e-05
4.0798598e-05
1.6926152e-05
0.00013609516
0.00013191612
0.00012507454
0.00011679407
0.00010670993
9.4229153e-05
7.9007349e-05
6.1031367e-05
4.0770093e-05
1.6923394e-05
0.00013562382
0.00013143767
0.00012460339
0.00011636492
0.0001063577
9.3974193e-05
7.8850449e-05
6.0955643e-05
4.0747111e-05
1.6920814e-05
0.00013515693
0.00013097003
0.00012415446
0.00011596763
0.00010604068
9.3750963e-05
7.8717061e-05
6.0893498e-05
4.0729126e-05
1.6918435e-05
0.00013470299
0.00013052066
0.00012373283
0.0001156046
0.00010575907
9.3558386e-05
7.8605717e-05
6.0843762e-05
4.0715593e-05
1.6916272e-05
0.00013426871
0.00013009525
0.00012334213
0.00011527707
0.00010551229
9.3394913e-05
7.8514733e-05
6.0805201e-05
4.0705968e-05
1.691433e-05
0.00013385921
0.00012969801
0.00012298466
0.00011498535
0.00010529914
9.3258659e-05
7.8442288e-05
6.0776566e-05
4.0699723e-05
1.6912608e-05
0.0001334782
0.00012933184
0.00012266169
0.00011472894
0.00010511792
9.3147503e-05
7.8386501e-05
6.0756622e-05
4.0696359e-05
1.6911101e-05
0.00013312817
0.00012899849
0.00012237356
0.00011450672
0.00010496661
9.3059188e-05
7.8345486e-05
6.0744185e-05
4.0695409e-05
1.6909801e-05
0.00013281059
0.00012869879
0.00012211986
0.0001143171
0.00010484293
9.29914e-05
7.8317398e-05
6.0738132e-05
4.0696444e-05
1.6908696e-05
0.00013252602
0.00012843277
0.00012189959
0.00011415812
0.00010474445
9.2941829e-05
7.830047e-05
6.0737423e-05
4.0699078e-05
1.6907774e-05
0.00013227433
0.00012819982
0.00012171128
0.00011402757
0.00010466869
9.2908223e-05
7.8293037e-05
6.0741103e-05
4.0702966e-05
1.6907019e-05
0.0001320548
0.0001279988
0.00012155312
0.00011392308
0.00010461315
9.2888421e-05
7.8293551e-05
6.074831e-05
4.0707804e-05
1.6906418e-05
0.00013186621
0.00012782818
0.000121423
0.00011384217
0.00010457539
9.2880371e-05
7.8300585e-05
6.0758269e-05
4.0713327e-05
1.6905956e-05
0.00013170694
0.00012768607
0.00012131862
0.00011378231
0.00010455301
9.2882142e-05
7.8312831e-05
6.0770286e-05
4.0719301e-05
1.6905616e-05
0.00013157507
0.00012757034
0.00012123756
0.00011374098
0.00010454372
9.2891933e-05
7.8329098e-05
6.0783744e-05
4.0725525e-05
1.6905385e-05
0.00013146843
0.00012747865
0.00012117731
0.00011371571
0.00010454535
9.2908083e-05
7.8348314e-05
6.0798097e-05
4.073182e-05
1.6905247e-05
0.00013138471
0.0001274086
0.00012113538
0.00011370411
0.00010455588
9.2929096e-05
7.8369536e-05
6.081288e-05
4.0738041e-05
1.6905187e-05
0.00013132153
0.00012735776
0.00012110934
0.00011370397
0.00010457348
9.2953655e-05
7.8391959e-05
6.0827704e-05
4.0744068e-05
1.6905193e-05
0.00013127654
0.00012732376
0.00012109691
0.00011371324
0.00010459654
9.298063e-05
7.8414915e-05
6.0842263e-05
4.0749815e-05
1.6905253e-05
0.00013124747
0.00012730434
0.00012109595
0.0001137301
0.00010462365
9.3009073e-05
7.8437868e-05
6.0856326e-05
4.0755224e-05
1.6905356e-05
0.00013123217
0.00012729738
0.00012110451
0.00011375291
0.00010465359
9.3038185e-05
7.8460384e-05
6.0869715e-05
4.0760255e-05
1.6905493e-05
0.00013122858
0.00012730088
0.00012112078
0.0001137802
0.00010468527
9.3067286e-05
7.8482103e-05
6.0882283e-05
4.076483e-05
1.6905655e-05
0.00013123478
0.00012731298
0.00012114311
0.00011381063
0.00010471777
9.3095787e-05
7.8502714e-05
6.0893875e-05
4.0768935e-05
1.6905835e-05
0.00013124893
0.00012733191
0.00012116995
0.00011384301
0.00010475023
9.3123176e-05
7.8521932e-05
6.0904409e-05
4.0772585e-05
1.6906024e-05
0.0001312693
0.00012735605
0.00012119991
0.00011387628
0.00010478195
9.3149015e-05
7.8539571e-05
6.0913868e-05
4.0775788e-05
1.6906218e-05
0.00013129432
0.00012738392
0.00012123176
0.00011390953
0.00010481232
9.3172988e-05
7.8555549e-05
6.0922235e-05
4.0778557e-05
1.6906411e-05
0.00013132259
0.00012741422
0.00012126446
0.000113942
0.00010484091
9.3194945e-05
7.8569823e-05
6.0929528e-05
4.0780911e-05
1.6906599e-05
0.00013135291
0.00012744587
0.00012129712
0.00011397316
0.00010486748
9.32148e-05
7.8582411e-05
6.0935795e-05
4.0782878e-05
1.6906779e-05
0.00013138428
0.00012747794
0.00012132911
0.00011400263
0.00010489187
9.3232555e-05
7.8593381e-05
6.0941106e-05
4.0784493e-05
1.6906949e-05
0.0001314159
0.00012750976
0.00012135994
0.00011403018
0.00010491403
9.3248265e-05
7.8602832e-05
6.0945547e-05
4.0785797e-05
1.6907109e-05
0.00013144714
0.00012754079
0.00012138927
0.00011405565
0.00010493395
9.3262014e-05
7.8610872e-05
6.0949202e-05
4.0786829e-05
1.6907257e-05
0.00013147748
0.00012757059
0.00012141679
0.0001140789
0.00010495165
9.3273891e-05
7.8617606e-05
6.0952148e-05
4.0787623e-05
1.6907393e-05
0.00013150649
0.00012759877
0.00012144227
0.00011409987
0.00010496716
9.3283982e-05
7.8623125e-05
6.0954451e-05
4.0788205e-05
1.6907517e-05
0.00013153378
0.00012762503
0.00012146552
0.00011411849
0.00010498052
9.3292374e-05
7.8627515e-05
6.0956168e-05
4.0788597e-05
1.6907628e-05
0.00013155902
0.00012764909
0.0001214864
0.00011413476
0.00010499179
9.3299161e-05
7.8630862e-05
6.0957352e-05
4.0788818e-05
1.6907725e-05
0.00013158198
0.00012767079
0.00012150485
0.00011414869
0.00010500108
9.330446e-05
7.863326e-05
6.0958061e-05
4.0788885e-05
1.6907808e-05
0.00013160252
0.00012769003
0.00012152086
0.0001141604
0.00010500852
9.3308415e-05
7.8634823e-05
6.0958358e-05
4.0788821e-05
1.6907877e-05
0.00013162061
0.00012770684
0.00012153454
0.00011417004
0.00010501431
9.3311192e-05
7.8635672e-05
6.0958313e-05
4.0788651e-05
1.6907935e-05
0.00013163631
0.0001277213
0.00012154604
0.0001141778
0.00010501863
9.3312966e-05
7.8635936e-05
6.0958001e-05
4.0788403e-05
1.6907981e-05
0.00013164977
0.00012773357
0.00012155554
0.00011418389
0.00010502171
9.3313909e-05
7.8635734e-05
6.0957487e-05
4.0788101e-05
1.6908017e-05
0.00013166116
0.00012774383
0.00012156324
0.00011418852
0.00010502371
9.3314173e-05
7.8635171e-05
6.095683e-05
4.0787767e-05
1.6908046e-05
0.00013167065
0.00012775227
0.00012156934
0.00011419188
0.00010502482
9.3313881e-05
7.8634328e-05
6.0956071e-05
4.0787416e-05
1.6908067e-05
0.00013167839
0.00012775905
0.00012157399
0.00011419412
0.00010502515
9.3313129e-05
7.8633265e-05
6.0955243e-05
4.0787058e-05
1.6908082e-05
0.00013168453
0.0001277643
0.00012157733
0.00011419535
0.00010502481
9.3311994e-05
7.8632028e-05
6.0954363e-05
4.0786696e-05
1.6908091e-05
0.00013168918
0.00012776814
0.00012157949
0.00011419571
0.0001050239
9.3310542e-05
7.8630655e-05
6.0953449e-05
4.0786334e-05
1.6908095e-05
0.00013169246
0.00012777071
0.00012158059
0.00011419531
0.00010502251
9.3308839e-05
7.8629183e-05
6.0952516e-05
4.0785974e-05
1.6908095e-05
0.00013169452
0.00012777214
0.00012158078
0.00011419427
0.00010502075
9.3306953e-05
7.8627653e-05
6.0951581e-05
4.0785621e-05
1.690809e-05
0.00013169551
0.00012777261
0.00012158022
0.00011419273
0.00010501871
9.3304961e-05
7.862611e-05
6.0950665e-05
4.0785279e-05
1.6908081e-05
0.00013169563
0.00012777229
0.00012157906
0.00011419083
0.0001050165
9.3302936e-05
7.8624598e-05
6.0949789e-05
4.0784958e-05
1.6908071e-05
0.00013169509
0.00012777138
0.00012157749
0.0001141887
0.00010501424
9.3300942e-05
7.8623149e-05
6.0948967e-05
4.0784658e-05
1.6908059e-05
)
;

boundaryField
{
    water_inlet
    {
        type            calculated;
        value           uniform 4.1926275e-05;
    }
    water_outlet
    {
        type            calculated;
        value           nonuniform List<scalar> 10(0.00013169509 0.00012777138 0.00012157749 0.0001141887 0.00010501424 9.3300942e-05 7.8623149e-05 6.0948967e-05 4.0784658e-05 1.6908059e-05);
    }
    water_wedge1
    {
        type            wedge;
    }
    water_wedge2
    {
        type            wedge;
    }
    water_to_rock
    {
        type            nutkWallFunction;
        blending        stepwise;
        value           nonuniform List<scalar> 
100
(
1.7358471e-06
1.9240026e-06
1.9263124e-06
1.8751054e-06
1.8229109e-06
1.7867862e-06
1.7671177e-06
1.7584645e-06
1.7555992e-06
1.7553223e-06
1.7561177e-06
1.7574033e-06
1.7590035e-06
1.7608812e-06
1.7630284e-06
1.7654317e-06
1.7680552e-06
1.7708579e-06
1.7738124e-06
1.7768954e-06
1.7800823e-06
1.7833462e-06
1.7866596e-06
1.7899942e-06
1.7933209e-06
1.796609e-06
1.7998252e-06
1.802933e-06
1.8058935e-06
1.8086668e-06
1.8112151e-06
1.813506e-06
1.8155149e-06
1.8172276e-06
1.8186408e-06
1.8197619e-06
1.8206072e-06
1.8212005e-06
1.82157e-06
1.8217466e-06
1.8217617e-06
1.8216458e-06
1.8214272e-06
1.8211314e-06
1.8207789e-06
1.8203873e-06
1.8199739e-06
1.8195532e-06
1.8191367e-06
1.8187337e-06
1.8183507e-06
1.8179925e-06
1.8176622e-06
1.8173618e-06
1.8170921e-06
1.8168528e-06
1.8166435e-06
1.8164628e-06
1.8163093e-06
1.8161812e-06
1.8160765e-06
1.8159931e-06
1.815929e-06
1.8158819e-06
1.8158497e-06
1.8158304e-06
1.815822e-06
1.8158227e-06
1.815831e-06
1.8158455e-06
1.8158647e-06
1.8158875e-06
1.8159125e-06
1.8159387e-06
1.8159654e-06
1.815992e-06
1.816018e-06
1.816043e-06
1.8160668e-06
1.8160892e-06
1.8161099e-06
1.816129e-06
1.8161461e-06
1.8161613e-06
1.8161745e-06
1.8161858e-06
1.8161954e-06
1.8162033e-06
1.8162097e-06
1.8162149e-06
1.816219e-06
1.816222e-06
1.816224e-06
1.8162252e-06
1.8162257e-06
1.8162254e-06
1.8162247e-06
1.8162236e-06
1.8162223e-06
1.8162208e-06
)
;
    }
}


// ************************************************************************* //
