/*--------------------------------*- C++ -*----------------------------------*\
| =========                 |                                                 |
| \\      /  F ield         | OpenFOAM: The Open Source CFD Toolbox           |
|  \\    /   O peration     | Version:  2506                                  |
|   \\  /    A nd           | Website:  www.openfoam.com                      |
|    \\/     M anipulation  |                                                 |
\*---------------------------------------------------------------------------*/
FoamFile
{
    version     2.0;
    format      ascii;
    arch        "LSB;label=32;scalar=64";
    class       surfaceScalarField;
    location    "4000/water";
    object      phi;
}
// * * * * * * * * * * * * * * * * * * * * * * * * * * * * * * * * * * * * * //

dimensions      [1 0 -1 0 0 0 0];

oriented        oriented;

internalField   nonuniform List<scalar> 
1890
(
-4.1736246e-05
0.0022168351
-0.00015753622
0.0059586937
-0.00032930669
0.0087985477
-0.00054203243
0.010900937
-0.00078239503
0.012402155
-0.0010351826
0.013412336
-0.0012746193
0.014013996
-0.0014359745
0.014245356
-0.001284859
0.0140006
0.012745539
-3.1455821e-05
0.0022482909
-0.00011269722
0.0060399351
-0.00023219387
0.0089180443
-0.00037999425
0.011048737
-0.0005459426
0.012568103
-0.00071649908
0.013582893
-0.00086674522
0.014164242
-0.00093361971
0.01431223
-0.00073394527
0.013800926
0.012011594
-2.9138827e-05
0.0022774298
-0.00010672996
0.0061175262
-0.00022105544
0.0090323698
-0.00036160333
0.011189285
-0.00051700151
0.012723501
-0.00067116246
0.013737054
-0.00079396198
0.014287042
-0.00081139801
0.014329666
-0.0005672995
0.013556827
0.011444294
-2.7339934e-05
0.0023047697
-0.00010102597
0.0061912122
-0.00020924237
0.0091405862
-0.00034097897
0.011321022
-0.00048374668
0.012866269
-0.00061911486
0.013872422
-0.00071088176
0.014378809
-0.00067659919
0.014295384
-0.00042026124
0.013300489
0.011024033
-2.5625224e-05
0.0023303949
-9.4386121e-05
0.0062599731
-0.00019506686
0.0092412669
-0.00031669853
0.011442653
-0.00044589486
0.012995465
-0.00056132383
0.013987851
-0.00061882773
0.014436313
-0.00053651365
0.01421307
-0.00029565597
0.013059632
0.010728377
-2.4159473e-05
0.0023545544
-8.8799429e-05
0.0063246131
-0.00018306034
0.0093355279
-0.00029574151
0.011555335
-0.00041210872
0.013111833
-0.00050662344
0.014082366
-0.00052703785
0.014456727
-0.00040878676
0.014094819
-0.00020043446
0.01285128
0.010527943
-2.2965462e-05
0.0023775199
-8.4333394e-05
0.0063859811
-0.00017335327
0.0094245478
-0.00027826845
0.01166025
-0.00038232688
0.013215891
-0.00045437915
0.014154418
-0.00043820617
0.014440554
-0.00030321711
0.01395983
-0.00013378873
0.012681851
0.010394154
-2.2023833e-05
0.0023995437
-8.0769751e-05
0.006444727
-0.0001654057
0.0095091837
-0.00026327194
0.011758116
-0.0003547269
0.013307346
-0.00040244371
0.014202135
-0.0003554588
0.014393569
-0.00022236881
0.01382674
-8.9855057e-05
0.012549338
0.010304299
-2.1260566e-05
0.0024208043
-7.7812603e-05
0.006501279
-0.00015855234
0.0095899235
-0.00024948537
0.011849049
-0.0003271225
0.013384983
-0.00034954613
0.014224559
-0.00028212918
0.014326152
-0.0001630022
0.013707613
-6.1426016e-05
0.012447761
0.010242873
-2.0607157e-05
0.0024414115
-7.5216673e-05
0.0065558886
-0.00015223239
0.0096669392
-0.00023577775
0.011932595
-0.00029784644
0.013447052
-0.00029644809
0.01422316
-0.00022023923
0.014249944
-0.00011980528
0.013607179
-4.2689417e-05
0.012370646
0.010200183
-2.001828e-05
0.0024614297
-7.2804685e-05
0.006608675
-0.00014600128
0.0097401358
-0.00022120563
0.012007799
-0.00026613504
0.013491981
-0.00024531956
0.014202345
-0.00016974782
0.014174372
-8.7951116e-05
0.013525382
-2.9805683e-05
0.0123125
0.010170378
-1.9463542e-05
0.0024808933
-7.0441408e-05
0.0066596528
-0.00013947744
0.0098091718
-0.00020502173
0.012073343
-0.00023228061
0.01351924
-0.00019838438
0.014168448
-0.00012919664
0.014105184
-6.3917679e-05
0.013460103
-2.0485399e-05
0.012269068
0.010149892
-1.8918759e-05
0.002499812
-6.8008145e-05
0.0067087422
-0.0001322987
0.0098734623
-0.0001867555
0.0121278
-0.00019748131
0.013529966
-0.00015697957
0.014127947
-9.6699604e-05
0.014044904
-4.5354181e-05
0.013408758
-1.3426166e-05
0.01223714
0.010136466
-1.8360423e-05
0.0025181724
-6.5381895e-05
0.0067557637
-0.00012410703
0.0099321874
-0.00016633454
0.012170027
-0.00016333298
0.013526964
-0.00012140683
0.014086021
-7.0530293e-05
0.013994027
-3.0719807e-05
0.013368947
-7.8894836e-06
0.012214309
0.010128577
-1.7761457e-05
0.0025359339
-6.2419765e-05
0.006800422
-0.00011457713
0.0099843448
-0.00014416295
0.012199613
-0.00013124071
0.013514042
-9.1274113e-05
0.014046054
-4.9296959e-05
0.01395205
-1.8986844e-05
0.013338637
-3.4329051e-06
0.012198755
0.010125144
-1.7087946e-05
0.0025530218
-5.8952632e-05
0.0068422866
-0.00010349067
0.010028883
-0.00012105337
0.012217176
-0.0001020844
0.013495073
-6.5900455e-05
0.01400987
-3.1933252e-05
0.013918083
-9.4517446e-06
0.013316155
2.863326e-07
0.012189017
0.01012543
-1.6296485e-05
0.0025693183
-5.4793356e-05
0.0068807835
-9.0832596e-05
0.010064922
-9.7999434e-05
0.012224343
-7.6210797e-05
0.013473284
-4.4572745e-05
0.013978232
-1.7627656e-05
0.013891138
-1.5575141e-06
0.013300085
3.3715962e-06
0.012184088
0.010128802
-1.5331777e-05
0.0025846501
-4.9762065e-05
0.0069152138
-7.685288e-05
0.010092013
-7.5898906e-05
0.012223389
-5.3589198e-05
0.013450975
-2.6634604e-05
0.013951277
-5.7252483e-06
0.013870229
4.9982118e-06
0.013289362
5.849701e-06
0.012183237
0.010134651
-1.4126756e-05
0.0025987768
-4.3732804e-05
0.0069448198
-6.2044386e-05
0.010110324
-5.537965e-05
0.012216724
-3.3985842e-05
0.013429581
-1.1511511e-05
0.013928803
4.2381913e-06
0.013854479
1.0368873e-05
0.013283231
7.867468e-06
0.012185738
0.010142519
-1.2609162e-05
0.002611386
-3.669481e-05
0.0069689055
-4.7031433e-05
0.010120661
-3.6775312e-05
0.012206468
-1.7080435e-05
0.013409886
1.3285777e-06
0.013910394
1.2527436e-05
0.01384328
1.4774372e-05
0.013280984
9.5160507e-06
0.012190996
0.010152035
-1.0718628e-05
0.0026221046
-2.8800883e-05
0.0069869877
-3.2420256e-05
0.01012428
-2.0181568e-05
0.012194229
-2.4813758e-06
0.013392186
1.2171255e-05
0.013895741
1.9376006e-05
0.013836075
1.8389011e-05
0.013281971
1.0861129e-05
0.012198524
0.010162896
-8.4362553e-06
0.0026305409
-2.0369254e-05
0.0069989207
-1.868464e-05
0.010122596
-5.5179968e-06
0.012181063
1.0030654e-05
0.013376637
2.1196265e-05
0.013884576
2.5022643e-05
0.013832249
2.1343909e-05
0.01328565
1.1950508e-05
0.012207918
0.010174846
-5.818893e-06
0.0026363598
-1.1825276e-05
0.0070049271
-6.1104288e-06
0.010116881
7.2768175e-06
0.012167675
2.0570406e-05
0.013363344
2.8683942e-05
0.013876462
2.965341e-05
0.013831279
2.3737121e-05
0.013291566
1.2818506e-05
0.012218836
0.010187665
-3.0141952e-06
0.002639374
-3.5959442e-06
0.0070055089
5.1027336e-06
0.010108182
1.8190738e-05
0.012154587
2.9354077e-05
0.01335218
3.4839343e-05
0.013870977
3.3406071e-05
0.013832713
2.5640065e-05
0.013299332
1.3489558e-05
0.012230987
0.010201155
-2.341465e-07
0.0026396081
3.9069357e-06
0.0070013678
1.4740007e-05
0.010097349
2.7284765e-05
0.012142043
3.6559199e-05
0.013342906
3.981157e-05
0.013867725
3.6376691e-05
0.013836148
2.71003e-05
0.013308609
1.3978664e-05
0.012244108
0.010215133
2.2769833e-06
0.0026373311
1.030862e-05
0.0069933361
2.2681552e-05
0.010084976
3.4655676e-05
0.012130068
4.2308559e-05
0.013335253
4.3696927e-05
0.013866336
3.8621979e-05
0.013841223
2.8141787e-05
0.013319089
1.4290909e-05
0.012257959
0.010229424
4.3217433e-06
0.0026330094
1.5395186e-05
0.0069822627
2.8920747e-05
0.010071451
4.0373704e-05
0.012118616
4.6678094e-05
0.013328949
4.6546682e-05
0.013866468
4.0164553e-05
0.013847605
2.8767477e-05
0.013330486
1.4422247e-05
0.012272305
0.010243846
5.8172324e-06
0.0026271922
1.9123782e-05
0.0069689562
3.3493328e-05
0.010057081
4.4499906e-05
0.012107609
4.9716043e-05
0.013323732
4.8383426e-05
0.0138678
4.1004921e-05
0.013854983
2.8966842e-05
0.013342524
1.4363e-05
0.012286908
0.010258209
6.775567e-06
0.0026204166
2.1562127e-05
0.0069541696
3.648661e-05
0.010042157
4.7107816e-05
0.012096988
5.1466452e-05
0.013319374
4.9221631e-05
0.013870045
4.1137246e-05
0.013863068
2.8726356e-05
0.013354935
1.4103037e-05
0.012301532
0.010272312
7.2690395e-06
0.0026131476
2.2856852e-05
0.0069385818
3.804082e-05
0.010026973
4.8300385e-05
0.012086728
5.1990248e-05
0.013315684
4.9087406e-05
0.013872948
4.0565266e-05
0.01387159
2.8040393e-05
0.01336746
1.3637128e-05
0.012315935
0.01028595
7.3943436e-06
0.0026057532
2.3198219e-05
0.0069227779
3.8340141e-05
0.010011831
4.82174e-05
0.012076851
5.137918e-05
0.013312522
4.8033397e-05
0.013876294
3.9315155e-05
0.013880308
2.6920406e-05
0.013379855
1.296959e-05
0.012329886
0.010298919
7.2475277e-06
0.0025985057
2.2788585e-05
0.0069072369
3.7595908e-05
0.0099970235
4.7032077e-05
0.012067415
4.9759708e-05
0.013309795
4.6145425e-05
0.013879908
3.7442093e-05
0.013889011
2.5399736e-05
0.013391897
1.2116562e-05
0.012343169
0.010311036
6.9115073e-06
0.0025915942
2.1819688e-05
0.0068923287
3.6027553e-05
0.0099828156
4.4939951e-05
0.012058502
4.7287926e-05
0.013307447
4.3540821e-05
0.013883655
3.5030059e-05
0.013897522
2.3533652e-05
0.013403393
1.1105935e-05
0.012355597
0.010322142
6.4523952e-06
0.0025851418
2.0459658e-05
0.0068783214
3.3845986e-05
0.0099694293
4.2144544e-05
0.012050204
4.4138695e-05
0.013305452
4.0360408e-05
0.013887433
3.2185883e-05
0.013905697
2.1395078e-05
0.013414184
9.9748133e-06
0.012367017
0.010332116
5.9204687e-06
0.0025792213
1.8848065e-05
0.0068653938
3.1242058e-05
0.0099570353
3.8843914e-05
0.012042602
4.0492951e-05
0.013303803
3.6757473e-05
0.013891169
2.9030232e-05
0.013913424
1.9067964e-05
0.013424146
8.7660311e-06
0.012377319
0.010340882
5.35278e-06
0.0025738685
1.7096041e-05
0.0068536505
2.838012e-05
0.0099457512
3.5220067e-05
0.012035762
3.6525717e-05
0.013302498
3.2886079e-05
0.013894808
2.5687344e-05
0.013920623
1.6639489e-05
0.013433194
7.523725e-06
0.012386435
0.010348406
4.7760323e-06
0.0025690925
1.528921e-05
0.0068431374
2.5396002e-05
0.0099356444
3.1432317e-05
0.012029726
3.2396946e-05
0.013301533
2.8891211e-05
0.013898314
2.2275987e-05
0.013927238
1.4193148e-05
0.013441277
6.2897773e-06
0.012394338
0.010354696
4.2090442e-06
0.0025648835
1.3491556e-05
0.0068338548
2.2397786e-05
0.0099267381
2.7613983e-05
0.012024509
2.8245357e-05
0.013300902
2.4901349e-05
0.013901658
1.8902233e-05
0.013933237
1.18031e-05
0.013448376
5.100762e-06
0.01240104
0.010359797
3.6647153e-06
0.0025612187
1.174939e-05
0.0068257702
1.9468291e-05
0.0099190192
2.3871856e-05
0.012020106
2.4185309e-05
0.013300588
2.1023901e-05
0.01390482
1.5654741e-05
0.013938606
9.5304424e-06
0.0134545
3.9859488e-06
0.012406585
0.010363783
3.1515625e-06
0.0025580672
1.009497e-05
0.0068188267
1.6668449e-05
0.0099124457
2.0287661e-05
0.012016487
2.0306346e-05
0.013300569
1.734352e-05
0.013907782
1.2602733e-05
0.013943347
7.4216885e-06
0.013459681
2.9668092e-06
0.01241104
0.010366749
2.6748335e-06
0.0025553923
8.5495379e-06
0.006812952
1.4040762e-05
0.0099069545
1.6920561e-05
0.012013607
1.667433e-05
0.013300816
1.3922244e-05
0.013910534
9.7957229e-06
0.013947473
5.5085233e-06
0.013463969
2.0567735e-06
0.012414491
0.010368806
2.2374061e-06
0.0025531549
7.125921e-06
0.0068080635
1.1612821e-05
0.0099024676
1.3810455e-05
0.012011409
1.3334126e-05
0.013301292
1.0801605e-05
0.013913067
7.2652825e-06
0.01395101
3.809348e-06
0.013467425
1.2624594e-06
0.012417038
0.010370069
1.8404301e-06
0.0025513145
5.8306204e-06
0.0068040733
9.4004649e-06
0.0098988978
1.0981441e-05
0.012009828
1.0312871e-05
0.013301961
8.0056321e-06
0.013915374
5.0277805e-06
0.013953987
2.3315928e-06
0.013470121
5.8505379e-07
0.012418785
0.010370654
1.483824e-06
0.0025498307
4.6654511e-06
0.0068008917
7.4104524e-06
0.0098961528
8.4449454e-06
0.012008794
7.6231509e-06
0.013302782
5.5438311e-06
0.013917454
3.0871121e-06
0.013956444
1.0749013e-06
0.013472133
3.2195547e-08
0.012419827
0.010370686
1.1665796e-06
0.0025486641
3.6285945e-06
0.0067984297
5.642212e-06
0.0098941392
6.201794e-06
0.012008234
5.2650724e-06
0.013303719
3.4133914e-06
0.013919305
1.4381236e-06
0.013958419
4.0493213e-08
0.013473531
-4.1106255e-07
0.012420279
0.010370275
8.8706033e-07
0.002547777
2.7156976e-06
0.0067966011
4.0899184e-06
0.009892765
4.2451701e-06
0.012008079
3.2301546e-06
0.013304734
1.6045582e-06
0.013920931
7.5436375e-08
0.013959949
-7.9514303e-07
0.013474401
-7.6979003e-07
0.012420254
0.010369505
6.4324819e-07
0.0025471338
1.9208379e-06
0.0067953235
2.7444534e-06
0.0098919413
2.5636847e-06
0.01200826
1.5057323e-06
0.013305792
1.0719603e-07
0.013922329
-1.0290984e-06
0.013961085
-1.4647716e-06
0.013474837
-1.0485887e-06
0.012419837
0.010368457
4.3290299e-07
0.0025467009
1.2371052e-06
0.0067945193
1.5946539e-06
0.0098915838
1.143598e-06
0.012008711
7.8505711e-08
0.013306857
-1.1087722e-06
0.013923517
-1.9123046e-06
0.013961888
-1.9816397e-06
0.013474906
-1.2536265e-06
0.012419109
0.010367203
2.5368629e-07
0.0025464472
6.5722099e-07
0.0067941157
6.291118e-07
0.0098916119
-2.9295395e-08
0.012009369
-1.0811541e-06
0.013307909
-2.0810183e-06
0.013924516
-2.594375e-06
0.013962402
-2.360852e-06
0.013474673
-1.393066e-06
0.012418142
0.01036581
1.0334535e-07
0.0025463439
1.741617e-07
0.0067940449
-1.6565499e-07
0.0098919517
-9.8159546e-07
0.012010185
-2.0084542e-06
0.013308936
-2.8332542e-06
0.013925341
-3.0963883e-06
0.013962665
-2.6187869e-06
0.013474195
-1.4756921e-06
0.012416999
0.010364334
-2.060663e-08
0.0025463645
-2.213331e-07
0.0067942457
-8.0962121e-07
0.00989254
-1.7423444e-06
0.012011118
-2.7267214e-06
0.01330992
-3.389242e-06
0.013926004
-3.4403103e-06
0.013962716
-2.7722195e-06
0.013473527
-1.5104086e-06
0.012415737
0.010362824
-1.2119218e-07
0.0025464857
-5.4010463e-07
0.0067946646
-1.3215669e-06
0.0098933215
-2.3307098e-06
0.012012127
-3.2589241e-06
0.013310849
-3.7731103e-06
0.013926518
-3.6480406e-06
0.013962591
-2.8375435e-06
0.013472717
-1.5057081e-06
0.012414405
0.010361318
-2.0120179e-07
0.0025466869
-7.9090676e-07
0.0067952543
-1.7152092e-06
0.0098942458
-2.7660162e-06
0.012013178
-3.6279599e-06
0.013311711
-4.0084804e-06
0.013926899
-3.7406254e-06
0.013962323
-2.8301681e-06
0.013471806
-1.4693982e-06
0.012413044
0.010359849
-2.6289851e-07
0.0025469498
-9.8118004e-07
0.0067959726
-2.0041061e-06
0.0098952687
-3.0671788e-06
0.012014241
-3.855992e-06
0.013312499
-4.1178506e-06
0.01392716
-3.7377309e-06
0.013961943
-2.7642032e-06
0.013470833
-1.4084903e-06
0.012411689
0.01035844
-3.0841499e-07
0.0025472582
-1.1181089e-06
0.0067967823
-2.2013594e-06
0.009896352
-3.252334e-06
0.012015292
-3.9640131e-06
0.013313211
-4.1221889e-06
0.013927319
-3.6573314e-06
0.013961478
-2.6522658e-06
0.013469828
-1.3290919e-06
0.012410365
0.010357111
-3.3977175e-07
0.002547598
-1.2085511e-06
0.006797651
-2.3194495e-06
0.0098974629
-3.3386135e-06
0.012016311
-3.9716119e-06
0.013313844
-4.0407412e-06
0.013927388
-3.515619e-06
0.013960953
-2.5054879e-06
0.013468817
-1.236498e-06
0.012409096
0.010355875
-3.588704e-07
0.0025479568
-1.2589752e-06
0.0067985511
-2.3701013e-06
0.009898574
-3.3419677e-06
0.012017283
-3.8967773e-06
0.013314399
-3.8908879e-06
0.013927382
-3.3269267e-06
0.013960389
-2.3335066e-06
0.013467824
-1.1351806e-06
0.012407898
0.010354739
-3.67493e-07
0.0025483243
-1.2754305e-06
0.0067994591
-2.3642184e-06
0.0098996628
-3.2770798e-06
0.012018196
-3.7558418e-06
0.013314878
-3.6881365e-06
0.013927314
-3.1037935e-06
0.013959805
-2.1445743e-06
0.013466865
-1.0288852e-06
0.012406782
0.01035371
-3.6729905e-07
0.0025486916
-1.2635298e-06
0.0068003553
-2.3118434e-06
0.0099007111
-3.1573287e-06
0.012019041
-3.5634709e-06
0.013315284
-3.4461675e-06
0.013927197
-2.857053e-06
0.013959216
-1.9456687e-06
0.013465953
-9.2069633e-07
0.012405757
0.01035279
-3.5982277e-07
0.0025490514
-1.2284402e-06
0.0068012239
-2.2221531e-06
0.0099017048
-2.9947929e-06
0.012019814
-3.332708e-06
0.013315622
-3.176936e-06
0.013927041
-2.5959864e-06
0.013958635
-1.7426149e-06
0.0134651
-8.1313223e-07
0.012404828
0.010351977
-3.4647189e-07
0.0025493979
-1.174882e-06
0.0068020524
-2.1034543e-06
0.0099026334
-2.8002834e-06
0.012020511
-3.0750535e-06
0.013315896
-2.8907982e-06
0.013926857
-2.328479e-06
0.013958072
-1.5402694e-06
0.013464312
-7.0821816e-07
0.012403996
0.010351268
-3.2853189e-07
0.0025497264
-1.1071388e-06
0.006802831
-1.9632249e-06
0.0099034895
-2.5834099e-06
0.012021131
-2.8005897e-06
0.013316114
-2.5966953e-06
0.013926653
-2.0612251e-06
0.013957537
-1.3426807e-06
0.013463593
-6.0764361e-07
0.012403261
0.010350661
-3.0715335e-07
0.0025500336
-1.0290379e-06
0.0068035528
-1.8080818e-06
0.0099042685
-2.3525728e-06
0.012021675
-2.5179868e-06
0.013316279
-2.3021747e-06
0.013926437
-1.79976e-06
0.013957034
-1.1531196e-06
0.013462947
-5.1269618e-07
0.01240262
0.010350148
-2.8336511e-07
0.002550317
-9.4397172e-07
0.0068042135
-1.6438293e-06
0.0099049684
-2.1150305e-06
0.012022147
-2.2346148e-06
0.013316399
-2.0135353e-06
0.013926216
-1.5486137e-06
0.01395657
-9.7421746e-07
0.013462372
-4.2444821e-07
0.012402071
0.010349724
-2.5805714e-07
0.002550575
-8.5486502e-07
0.0068048103
-1.4754055e-06
0.0099055889
-1.8768442e-06
0.012022548
-1.9564691e-06
0.013316478
-1.7357299e-06
0.013925995
-1.3111954e-06
0.013956145
-8.0783052e-07
0.013461869
-3.435545e-07
0.012401606
0.01034938
-2.3199486e-07
0.002550807
-7.6420351e-07
0.0068053425
-1.3069332e-06
0.0099061317
-1.6429498e-06
0.012022884
-1.688271e-06
0.013316524
-1.4724755e-06
0.013925779
-1.0898744e-06
0.013955762
-6.5510029e-07
0.013461434
-2.7036056e-07
0.012401222
0.01034911
-2.058207e-07
0.0025510128
-6.7404626e-07
0.0068058107
-1.1417536e-06
0.0099065994
-1.4172127e-06
0.01202316
-1.4335371e-06
0.01331654
-1.2263295e-06
0.013925572
-8.8606305e-07
0.013955422
-5.1650848e-07
0.013461065
-2.0487824e-07
0.01240091
0.010348905
-1.8006536e-07
0.0025511929
-5.8606833e-07
0.0068062167
-9.8251379e-07
0.0099069958
-1.2025817e-06
0.01202338
-1.1947863e-06
0.013316532
-9.9891808e-07
0.013925376
-7.0041828e-07
0.013955124
-3.9201949e-07
0.013460756
-1.4686034e-07
0.012400665
0.010348758
-1.5516665e-07
0.0025513481
-5.0162237e-07
0.0068065632
-8.3129459e-07
0.0099073255
-1.0012797e-06
0.01202355
-9.7379243e-07
0.013316505
-7.9122902e-07
0.013925194
-5.3315102e-07
0.013954866
-2.8135562e-07
0.013460504
-9.5971554e-08
0.01240048
0.010348662
-1.3147742e-07
0.0025514795
-4.217819e-07
0.0068068535
-6.8970597e-07
0.0099075934
-8.1496236e-07
0.012023675
-7.7179422e-07
0.013316461
-6.0384771e-07
0.013925026
-3.842435e-07
0.013954646
-1.8417054e-07
0.013460304
-5.1899965e-08
0.012400347
0.01034861
-1.092708e-07
0.0025515888
-3.4737231e-07
0.0068070916
-5.5895271e-07
0.009907805
-6.4480971e-07
0.012023761
-5.8958367e-07
0.013316406
-4.3705035e-07
0.013924873
-2.535388e-07
0.013954462
-1.0006098e-07
0.013460151
-1.3842361e-08
0.012400261
0.010348596
-8.8758065e-08
0.0025516776
-2.7901425e-07
0.0068072818
-4.3991114e-07
0.0099079659
-4.9162666e-07
0.012023812
-4.2764617e-07
0.013316342
-2.9091098e-07
0.013924737
-1.40749e-07
0.013954312
-2.8286722e-08
0.013460038
1.8289663e-08
0.012400214
0.010348615
-7.0069877e-08
0.0025517476
-2.1709243e-07
0.0068074288
-3.330646e-07
0.0099080818
-3.557352e-07
0.012023835
-2.8594455e-07
0.013316272
-1.6497925e-07
0.013924616
-4.4953587e-08
0.013954192
3.1595349e-08
0.013459962
4.3920862e-08
0.012400202
0.010348658
-5.3276107e-08
0.0025518009
-1.6177695e-07
0.0068075373
-2.3852382e-07
0.0099081586
-2.3696056e-07
0.012023833
-1.6386835e-07
0.013316199
-5.8119055e-08
0.01392451
3.4805753e-08
0.013954099
7.9527055e-08
0.013459917
6.3363761e-08
0.012400218
0.010348722
-3.838121e-08
0.0025518393
-1.1302237e-07
0.006807612
-1.5601376e-07
0.0099082016
-1.345926e-07
0.012023812
-6.0112604e-08
0.013316125
3.1114719e-08
0.013924419
9.916038e-08
0.013954031
1.1645289e-07
0.0134599
7.7568707e-08
0.012400257
0.010348799
-2.5336325e-08
0.0025518646
-7.0603108e-08
0.0068076572
-8.4928095e-08
0.0099082159
-4.7421945e-08
0.012023775
2.6867083e-08
0.013316051
1.037406e-07
0.013924342
1.4943589e-07
0.013953986
1.4399308e-07
0.013459905
8.7463332e-08
0.012400314
0.010348887
-1.4064578e-08
0.0025518787
-3.4171857e-08
0.0068076773
-2.4406658e-08
0.0099082061
2.575938e-08
0.012023724
9.8038738e-08
0.013315978
1.6107759e-07
0.013924279
1.8755844e-07
0.013953959
1.6363598e-07
0.013459929
9.3796538e-08
0.012400383
0.010348981
-4.4483035e-09
0.0025518831
-3.2687683e-09
0.0068076762
2.6282118e-08
0.0099081766
8.5698639e-08
0.012023665
1.5455563e-07
0.013315909
2.0504649e-07
0.013924228
2.1529738e-07
0.013953949
1.7672176e-07
0.013459968
9.729421e-08
0.012400463
0.010349078
3.6013552e-09
0.0025518796
2.2374214e-08
0.0068076574
6.7560266e-08
0.0099081314
1.3324507e-07
0.012023599
1.9798934e-07
0.013315845
2.3725946e-07
0.013924189
2.3406844e-07
0.013953952
1.842588e-07
0.013460018
9.8450929e-08
0.012400549
0.010349176
1.0148175e-08
0.0025518694
4.2974335e-08
0.0068076246
1.0004977e-07
0.0099080743
1.6958176e-07
0.01202353
2.2969479e-07
0.013315785
2.590424e-07
0.01392416
2.4496175e-07
0.013953966
1.8697115e-07
0.013460076
9.7584485e-08
0.012400638
0.010349274
1.5296801e-08
0.0025518541
5.8946586e-08
0.0068075809
1.245719e-07
0.0099080087
1.9582038e-07
0.012023459
2.5091781e-07
0.013315729
2.7156498e-07
0.013924139
2.488972e-07
0.013953989
1.8543114e-07
0.013460139
9.4957357e-08
0.012400729
0.010349369
1.9173038e-08
0.0025518349
7.0730435e-08
0.0068075294
1.4192747e-07
0.0099079375
2.1303346e-07
0.012023387
2.6282632e-07
0.01331568
2.7589928e-07
0.013924126
2.4668577e-07
0.013954018
1.8011065e-07
0.013460206
9.0720966e-08
0.012400818
0.01034946
2.1921747e-08
0.002551813
7.8807363e-08
0.0068074725
1.529796e-07
0.0099078633
2.2237734e-07
0.012023318
2.6669632e-07
0.013315635
2.732371e-07
0.013924119
2.3926975e-07
0.013954052
1.716133e-07
0.013460273
8.5146482e-08
0.012400904
0.010349545
2.3691309e-08
0.0025517893
8.3674877e-08
0.0068074125
1.5862335e-07
0.0099077884
2.2505626e-07
0.012023252
2.6386895e-07
0.013315597
2.6485982e-07
0.013924118
2.2769978e-07
0.013954089
1.6063945e-07
0.01346034
7.8547643e-08
0.012400987
0.010349623
2.4632265e-08
0.0025517647
8.5844664e-08
0.0068073513
1.5978411e-07
0.0099077144
2.2232146e-07
0.012023189
2.5574795e-07
0.013315563
2.5212901e-07
0.013924122
2.1311961e-07
0.013954128
1.4798652e-07
0.013460405
7.129955e-08
0.012401063
0.010349695
2.4892978e-08
0.0025517398
8.5820156e-08
0.0068072903
1.5736757e-07
0.0099076429
2.1539443e-07
0.012023131
2.4370821e-07
0.013315535
2.3638678e-07
0.013924129
1.9667598e-07
0.013954168
1.3448629e-07
0.013460468
6.3841834e-08
0.012401134
0.010349759
2.4600591e-08
0.0025517152
8.4046848e-08
0.0068072309
1.5217816e-07
0.0099075748
2.0534751e-07
0.012023078
2.2893175e-07
0.013315511
2.1876583e-07
0.01392414
1.7931157e-07
0.013954207
1.2078545e-07
0.013460526
5.6475243e-08
0.012401198
0.010349815
2.3870992e-08
0.0025516913
8.0919397e-08
0.0068071739
1.4491033e-07
0.0099075108
1.9308319e-07
0.01202303
2.1238444e-07
0.013315492
2.0016097e-07
0.013924152
1.617533e-07
0.013954246
1.0739063e-07
0.013460581
4.9465802e-08
0.012401256
0.010349864
2.279613e-08
0.0025516685
7.6751698e-08
0.0068071199
1.361021e-07
0.0099074515
1.792709e-07
0.012022987
1.9474787e-07
0.013315476
1.811492e-07
0.013924165
1.4440882e-07
0.013954282
9.4534095e-08
0.01346063
4.2907273e-08
0.012401308
0.010349907
2.1451137e-08
0.0025516471
7.1790586e-08
0.0068070696
1.2616313e-07
0.0099073971
1.6439323e-07
0.012022948
1.7645999e-07
0.013315464
1.6205073e-07
0.01392418
1.2744563e-07
0.013954317
8.224684e-08
0.013460676
3.6763993e-08
0.012401353
0.010349944
1.9906005e-08
0.0025516272
6.6250721e-08
0.0068070232
1.1543165e-07
0.0099073479
1.4883104e-07
0.012022915
1.5785816e-07
0.013315455
1.4308076e-07
0.013924195
1.1094153e-07
0.013954349
7.0517737e-08
0.013460716
3.1020596e-08
0.012401393
0.010349975
1.821522e-08
0.002551609
6.0304172e-08
0.0068069811
1.0417598e-07
0.009907304
1.3287948e-07
0.012022886
1.3917832e-07
0.013315449
1.2437108e-07
0.013924209
9.4908531e-08
0.013954379
5.9258651e-08
0.013460752
2.5544551e-08
0.012401426
0.010350001
1.6442251e-08
0.0025515925
5.413556e-08
0.0068069434
9.2690546e-08
0.0099072655
1.1687969e-07
0.012022862
1.2074471e-07
0.013315445
1.0616688e-07
0.013924224
7.949422e-08
0.013954405
4.8539765e-08
0.013460783
2.0386829e-08
0.012401455
0.010350021
1.4638315e-08
0.0025515779
4.7910782e-08
0.0068069102
8.1247692e-08
0.0099072321
1.0116298e-07
0.012022842
1.0288272e-07
0.013315443
8.8741356e-08
0.013924238
6.4887435e-08
0.013954429
3.8457814e-08
0.013460809
1.5553641e-08
0.012401478
0.010350037
1.2857073e-08
0.002551565
4.1798817e-08
0.0068068812
7.0134198e-08
0.0099072038
8.6092516e-08
0.012022826
8.5977216e-08
0.013315444
7.2452283e-08
0.013924252
5.1384246e-08
0.01395445
2.9225369e-08
0.013460831
1.1157693e-08
0.012401496
0.010350048
1.1141611e-08
0.0025515539
3.5945252e-08
0.0068068564
5.9599898e-08
0.0099071801
7.1985075e-08
0.012022814
7.0364872e-08
0.013315445
5.7614816e-08
0.013924264
3.9251615e-08
0.013954469
2.1037291e-08
0.013460849
7.3043386e-09
0.012401509
0.010350055
9.5253874e-09
0.0025515443
3.046316e-08
0.0068068355
4.9839182e-08
0.0099071608
5.9087196e-08
0.012022804
5.6303851e-08
0.013315448
4.4470001e-08
0.013924276
2.8693826e-08
0.013954484
1.4046461e-08
0.013460864
4.0765352e-09
0.012401519
0.010350059
8.0225024e-09
0.0025515363
2.5412435e-08
0.0068068181
4.0952997e-08
0.0099071452
4.7514467e-08
0.012022798
4.3897768e-08
0.013315452
3.3094081e-08
0.013924287
1.9757833e-08
0.013954498
8.2756312e-09
0.013460876
1.480004e-09
0.012401526
0.010350061
6.6498104e-09
0.0025515297
2.0831883e-08
0.0068068039
3.3019711e-08
0.009907133
3.74018e-08
0.012022794
3.3344296e-08
0.013315456
2.373292e-08
0.013924297
1.2702698e-08
0.013954509
3.9546139e-09
0.013460884
-3.3095063e-10
0.01240153
0.01035006
3.0249535e-09
9.4497892e-09
1.4865787e-08
1.6634672e-08
1.4570984e-08
1.0054721e-08
5.0821188e-09
1.2938183e-09
-3.5409309e-10
)
;

boundaryField
{
    water_inlet
    {
        type            calculated;
        value           nonuniform List<scalar> 10(-0.0021750989 -0.0058428937 -0.0086267772 -0.010688211 -0.012161792 -0.013159549 -0.01377456 -0.014084001 -0.014151716 -0.014030398);
    }
    water_outlet
    {
        type            calculated;
        value           nonuniform List<scalar> 10(0.0025515267 0.0068067975 0.0099071276 0.012022792 0.013315458 0.013924301 0.013954514 0.013460888 0.012401532 0.01035006);
    }
    water_wedge1
    {
        type            wedge;
        value           nonuniform List<scalar> 
1000
(
-1.129638e-13
-1.4267828e-13
-1.1216046e-13
-1.0631275e-13
-9.9353925e-14
-9.338923e-14
-8.8692224e-14
-8.495699e-14
-8.1978542e-14
-7.9487393e-14
-7.7280464e-14
-7.5238838e-14
-7.3264097e-14
-7.1279541e-14
-6.9187002e-14
-6.6856106e-14
-6.4134094e-14
-6.0819285e-14
-5.6669644e-14
-5.1407499e-14
-4.4793388e-14
-3.6659177e-14
-2.708013e-14
-1.6558119e-14
-5.8610927e-15
4.0613674e-15
1.2372582e-14
1.8672311e-14
2.2895274e-14
2.5298538e-14
2.6223288e-14
2.6008966e-14
2.5028487e-14
2.3512117e-14
2.1687414e-14
1.970467e-14
1.7623982e-14
1.5586681e-14
1.3615621e-14
1.1728911e-14
9.9959784e-15
8.391437e-15
6.9277156e-15
5.6147626e-15
4.4398161e-15
3.4018863e-15
2.4995767e-15
1.7154219e-15
1.0421579e-15
4.8119018e-16
1.2570608e-17
-3.6627271e-16
-6.721576e-16
-9.0997214e-16
-1.0826159e-15
-1.2080567e-15
-1.2868114e-15
-1.3287257e-15
-1.3343007e-15
-1.3086828e-15
-1.2657693e-15
-1.2100487e-15
-1.1342265e-15
-1.0453096e-15
-9.5282208e-16
-8.6351088e-16
-7.6943803e-16
-6.7110017e-16
-5.8329286e-16
-5.0044408e-16
-4.1670144e-16
-3.3585859e-16
-2.704297e-16
-2.1054194e-16
-1.5259918e-16
-1.055144e-16
-6.363693e-17
-2.7209838e-17
1.2241719e-18
2.2583599e-17
4.4079616e-17
6.7084321e-17
7.5418684e-17
7.7174995e-17
8.2762393e-17
8.653408e-17
8.3690264e-17
8.2211002e-17
8.4598236e-17
7.821154e-17
6.9888237e-17
6.0237695e-17
5.4471523e-17
5.078886e-17
4.4077712e-17
3.5153511e-17
2.9453015e-17
3.1607299e-17
2.1069136e-17
4.5957579e-18
-6.8081262e-13
-1.033545e-12
-8.392899e-13
-7.9752849e-13
-7.4939914e-13
-7.031364e-13
-6.6536323e-13
-6.3522979e-13
-6.1093842e-13
-5.9052946e-13
-5.7244853e-13
-5.5560486e-13
-5.3912527e-13
-5.2219952e-13
-5.0397591e-13
-4.8343477e-13
-4.593457e-13
-4.3018934e-13
-3.9436707e-13
-3.5055444e-13
-2.9813815e-13
-2.3765334e-13
-1.7103522e-13
-1.0155483e-13
-3.3365467e-14
2.8950292e-14
8.1484732e-14
1.2214876e-13
1.5063372e-13
1.6797031e-13
1.7589184e-13
1.7635048e-13
1.7126878e-13
1.6227519e-13
1.5073381e-13
1.3769772e-13
1.2392946e-13
1.1003812e-13
9.644015e-14
8.3435798e-14
7.1221895e-14
5.9905203e-14
4.9554773e-14
4.0197882e-14
3.1833182e-14
2.4423334e-14
1.7935184e-14
1.2314222e-14
7.5075263e-15
3.4676439e-15
1.1330187e-16
-2.619083e-15
-4.8020653e-15
-6.503349e-15
-7.7698148e-15
-8.6575907e-15
-9.2153318e-15
-9.4966523e-15
-9.5367246e-15
-9.3782722e-15
-9.0661496e-15
-8.6209365e-15
-8.0819975e-15
-7.47749e-15
-6.83327e-15
-6.1653593e-15
-5.476614e-15
-4.8075705e-15
-4.1596031e-15
-3.538827e-15
-2.9591344e-15
-2.4115521e-15
-1.9179745e-15
-1.4748319e-15
-1.0824983e-15
-7.3740615e-16
-4.306849e-16
-1.7340927e-16
4.4130785e-17
2.2240251e-16
3.6231479e-16
4.7129999e-16
5.4713598e-16
5.9373311e-16
6.2167413e-16
6.3747728e-16
6.3550995e-16
6.1757802e-16
5.912709e-16
5.5866691e-16
5.1845124e-16
4.7450931e-16
4.3086807e-16
3.8076669e-16
3.3386075e-16
2.9110379e-16
2.4912087e-16
2.1263483e-16
1.7334663e-16
9.6461788e-17
3.1339117e-12
4.8023012e-12
3.9072341e-12
3.7113885e-12
3.4900561e-12
3.2689338e-12
3.0860173e-12
2.9387777e-12
2.817614e-12
2.7124759e-12
2.6152692e-12
2.5197154e-12
2.4205066e-12
2.3123582e-12
2.1894977e-12
2.0461184e-12
1.8774983e-12
1.6811033e-12
1.4574263e-12
1.2105491e-12
9.4809029e-13
6.8016672e-13
4.1759668e-13
1.7019621e-13
-5.3299291e-14
-2.4553679e-13
-4.0216454e-13
-5.2203916e-13
-6.0636258e-13
-6.5805943e-13
-6.8128536e-13
-6.8086661e-13
-6.6176513e-13
-6.2868531e-13
-5.8579651e-13
-5.3664418e-13
-4.8412332e-13
-4.3049004e-13
-3.7747883e-13
-3.2635825e-13