/*--------------------------------*- C++ -*----------------------------------*\
| =========                 |                                                 |
| \\      /  F ield         | OpenFOAM: The Open Source CFD Toolbox           |
|  \\    /   O peration     | Version:  2506                                  |
|   \\  /    A nd           | Website:  www.openfoam.com                      |
|    \\/     M anipulation  |                                                 |
\*---------------------------------------------------------------------------*/
FoamFile
{
    version     2.0;
    format      ascii;
    arch        "LSB;label=32;scalar=64";
    class       volScalarField;
    location    "4000/water";
    object      T;
}
// * * * * * * * * * * * * * * * * * * * * * * * * * * * * * * * * * * * * * //

dimensions      [0 0 0 1 0 0 0];

internalField   nonuniform List<scalar> 
1000
(
333.15
333.15
333.15
333.14999
333.14998
333.14991
333.14966
333.14882
333.14553
333.13086
333.15
333.15
333.14999
333.14998
333.14992
333.14971
333.14908
333.14712
333.14017
333.11776
333.15
333.15
333.14999
333.14995
333.14981
333.14941
333.14828
333.14495
333.13442
333.10791
333.15
333.14999
333.14997
333.14989
333.14966
333.149
333.14725
333.14232
333.12873
333.10033
333.14999
333.14998
333.14995
333.14982
333.14945
333.14848
333.14595
333.13923
333.12343
333.09464
333.14999
333.14997
333.14991
333.14972
333.14918
333.14781
333.14431
333.13576
333.11873
333.09052
333.14998
333.14996
333.14986
333.14958
333.14883
333.14695
333.1423
333.13211
333.11476
333.08761
333.14997
333.14993
333.1498
333.1494
333.14838
333.14585
333.13993
333.12857
333.11149
333.08556
333.14996
333.1499
333.14971
333.14918
333.14781
333.14448
333.13732
333.12531
333.10881
333.08409
333.14994
333.14986
333.1496
333.14888
333.14706
333.14282
333.13463
333.12243
333.10661
333.08302
333.14991
333.1498
333.14945
333.1485
333.14612
333.14092
333.132
333.11992
333.10479
333.08221
333.14987
333.14973
333.14926
333.148
333.14496
333.13886
333.12954
333.11774
333.10327
333.0816
333.14982
333.14963
333.14901
333.14736
333.14358
333.13675
333.12728
333.11585
333.10198
333.08112
333.14976
333.14951
333.14868
333.14655
333.14202
333.13467
333.12524
333.1142
333.10087
333.08075
333.14968
333.14934
333.14825
333.14556
333.14033
333.13267
333.12339
333.11275
333.09992
333.08046
333.14957
333.14912
333.1477
333.1444
333.13859
333.13079
333.12172
333.11146
333.09909
333.08023
333.14942
333.14882
333.147
333.14308
333.13684
333.12903
333.12021
333.11031
333.09835
333.08005
333.14922
333.14843
333.14615
333.14164
333.13513
333.1274
333.11884
333.10927
333.0977
333.07991
333.14894
333.14793
333.14513
333.14014
333.13348
333.12588
333.11758
333.10833
333.09711
333.0798
333.14858
333.14728
333.14397
333.1386
333.1319
333.12447
333.11642
333.10747
333.09659
333.07971
333.14809
333.14647
333.14268
333.13706
333.1304
333.12315
333.11536
333.10668
333.0961
333.07963
333.14744
333.1455
333.1413
333.13555
333.12897
333.12192
333.11437
333.10595
333.09565
333.07956
333.1466
333.14436
333.13987
333.13407
333.12762
333.12077
333.11345
333.10527
333.09524
333.07949
333.14556
333.14307
333.1384
333.13263
333.12633
333.11968
333.11258
333.10463
333.09484
333.07942
333.1443
333.14166
333.13692
333.13123
333.1251
333.11865
333.11176
333.10402
333.09446
333.07935
333.14285
333.14015
333.13543
333.12988
333.12393
333.11767
333.11098
333.10344
333.09409
333.07927
333.14123
333.13856
333.13395
333.12856
333.1228
333.11673
333.11023
333.10288
333.09373
333.07917
333.13951
333.13693
333.13248
333.12728
333.1217
333.11583
333.1095
333.10234
333.09338
333.07907
333.13772
333.13527
333.13102
333.12602
333.12064
333.11495
333.1088
333.1018
333.09302
333.07894
333.1359
333.13361
333.12958
333.12479
333.11961
333.11409
333.10811
333.10127
333.09265
333.07879
333.13409
333.13196
333.12816
333.12359
333.1186
333.11325
333.10743
333.10074
333.09227
333.07862
333.13232
333.13034
333.12677
333.1224
333.1176
333.11243
333.10675
333.1002
333.09189
333.07843
333.1306
333.12876
333.1254
333.12124
333.11662
333.11161
333.10607
333.09966
333.09148
333.0782
333.12893
333.12723
333.12406
333.1201
333.11566
333.11079
333.10539
333.09911
333.09106
333.07794
333.12733
333.12574
333.12276
333.11898
333.1147
333.10998
333.10471
333.09855
333.09062
333.07765
333.1258
333.12431
333.12149
333.11789
333.11376
333.10918
333.10403
333.09797
333.09015
333.07733
333.12432
333.12293
333.12026
333.11682
333.11283
333.10837
333.10334
333.09738
333.08967
333.07698
333.12291
333.1216
333.11907
333.11576
333.11191
333.10757
333.10264
333.09678
333.08916
333.0766
333.12156
333.12032
333.11791
333.11473
333.111
333.10677
333.10193
333.09617
333.08864
333.07618
333.12027
333.11909
333.11678
333.11373
333.11011
333.10597
333.10122
333.09554
333.08809
333.07574
333.11902
333.1179
333.11569
333.11274
333.10922
333.10518
333.10051
333.0949
333.08752
333.07527
333.11783
333.11675
333.11463
333.11177
333.10834
333.10438
333.09979
333.09424
333.08694
333.07477
333.11668
333.11564
333.11359
333.11082
333.10747
333.10359
333.09906
333.09358
333.08634
333.07425
333.11557
333.11457
333.11258
333.10989
333.10661
333.10279
333.09833
333.0929
333.08572
333.07371
333.11449
333.11352
333.1116
333.10897
333.10576
333.102
333.09759
333.09222
333.08509
333.07315
333.11345
333.11251
333.11064
333.10806
333.10491
333.10121
333.09685
333.09153
333.08445
333.07257
333.11244
333.11152
333.10969
333.10717
333.10408
333.10042
333.09611
333.09083
333.08379
333.07197
333.11145
333.11056
333.10877
333.1063
333.10324
333.09963
333.09536
333.09012
333.08313
333.07136
333.11049
333.10962
333.10786
333.10543
333.10242
333.09885
333.09461
333.08941
333.08246
333.07074
333.10955
333.10869
333.10697
333.10457
333.1016
333.09806
333.09386
333.08869
333.08177
333.0701
333.10863
333.10779
333.10609
333.10372
333.10078
333.09728
333.09311
333.08797
333.08109
333.06946
333.10773
333.1069
333.10522
333.10288
333.09997
333.09649
333.09235
333.08724
333.08039
333.0688
333.10684
333.10602
333.10437
333.10205
333.09917
333.09571
333.0916
333.08651
333.07969
333.06813
333.10596
333.10515
333.10352
333.10123
333.09836
333.09493
333.09084
333.08578
333.07898
333.06746
333.1051
333.1043
333.10268
333.10041
333.09756
333.09416
333.09008
333.08504
333.07827
333.06677
333.10425
333.10345
333.10185
333.09959
333.09677
333.09338
333.08932
333.0843
333.07755
333.06608
333.1034
333.10262
333.10102
333.09878
333.09597
333.0926
333.08856
333.08356
333.07683
333.06538
333.10257
333.10179
333.1002
333.09797
333.09518
333.09183
333.08781
333.08282
333.07611
333.06468
333.10174
333.10096
333.09939
333.09717
333.09439
333.09105
333.08705
333.08208
333.07538
333.06397
333.10092
333.10015
333.09858
333.09637
333.09361
333.09028
333.08628
333.08133
333.07465
333.06325
333.1001
333.09934
333.09777
333.09558
333.09282
333.0895
333.08552
333.08058
333.07391
333.06253
333.09929
333.09853
333.09697
333.09479
333.09204
333.08873
333.08476
333.07983
333.07317
333.0618
333.09849
333.09772
333.09618
333.09399
333.09126
333.08796
333.084
333.07908
333.07243
333.06107
333.09768
333.09692
333.09538
333.09321
333.09047
333.08719
333.08324
333.07833
333.07169
333.06033
333.09688
333.09613
333.09459
333.09242
333.0897
333.08642
333.08248
333.07757
333.07094
333.05959
333.09609
333.09533
333.0938
333.09163
333.08892
333.08565
333.08171
333.07682
333.07019
333.05884
333.09529
333.09454
333.09301
333.09085
333.08814
333.08487
333.08095
333.07606
333.06943
333.05808
333.0945
333.09375
333.09222
333.09007
333.08736
333.0841
333.08018
333.0753
333.06868
333.05732
333.09371
333.09296
333.09143
333.08929
333.08659
333.08333
333.07942
333.07454
333.06792
333.05656
333.09292
333.09217
333.09065
333.08851
333.08581
333.08256
333.07865
333.07377
333.06715
333.05578
333.09213
333.09139
333.08987
333.08773
333.08503
333.08179
333.07788
333.073
333.06638
333.055
333.09135
333.0906
333.08908
333.08695
333.08426
333.08102
333.07711
333.07224
333.06561
333.05422
333.09056
333.08982
333.0883
333.08617
333.08348
333.08024
333.07634
333.07146
333.06483
333.05342
333.08978
333.08903
333.08752
333.08539
333.08271
333.07947
333.07556
333.07069
333.06405
333.05262
333.089
333.08825
333.08674
333.08461
333.08193
333.07869
333.07479
333.06991
333.06326
333.05181
333.08821
333.08747
333.08596
333.08383
333.08115
333.07791
333.07401
333.06913
333.06247
333.051
333.08743
333.08669
333.08518
333.08305
333.08037
333.07714
333.07323
333.06834
333.06167
333.05017
333.08665
333.08591
333.0844
333.08227
333.07959
333.07636
333.07245
333.06755
333.06087
333.04934
333.08587
333.08513
333.08362
333.08149
333.07881
333.07557
333.07166
333.06675
333.06006
333.0485
333.08509
333.08434
333.08284
333.08071
333.07803
333.07479
333.07087
333.06596
333.05924
333.04764
333.0843
333.08356
333.08206
333.07993
333.07725
333.074
333.07008
333.06515
333.05842
333.04678
333.08352
333.08278
333.08127
333.07914
333.07646
333.07321
333.06928
333.06434
333.05759
333.0459
333.08274
333.082
333.08049
333.07836
333.07567
333.07242
333.06848
333.06353
333.05675
333.04502
333.08196
333.08121
333.0797
333.07757
333.07488
333.07162
333.06767
333.06271
333.05591
333.04412
333.08117
333.08043
333.07892
333.07678
333.07409
333.07082
333.06686
333.06188
333.05505
333.0432
333.08039
333.07964
333.07813
333.07599
333.07329
333.07002
333.06604
333.06105
333.05419
333.04227
333.0796
333.07886
333.07734
333.0752
333.07249
333.06921
333.06522
333.0602
333.05331
333.04133
333.07881
333.07807
333.07655
333.0744
333.07169
333.0684
333.0644
333.05935
333.05243
333.04037
333.07803
333.07728
333.07576
333.07361
333.07088
333.06758
333.06356
333.0585
333.05153
333.03939
333.07723
333.07649
333.07496
333.0728
333.07007
333.06676
333.06272
333.05763
333.05062
333.03839
333.07644
333.07569
333.07416
333.072
333.06926
333.06593
333.06187
333.05675
333.04969
333.03737
333.07565
333.0749
333.07336
333.07119
333.06844
333.06509
333.06101
333.05586
333.04875
333.03632
333.07485
333.0741
333.07256
333.07038
333.06761
333.06425
333.06015
333.05496
333.0478
333.03525
333.07405
333.07329
333.07175
333.06956
333.06678
333.0634
333.05927
333.05405
333.04682
333.03415
333.07325
333.07249
333.07094
333.06874
333.06595
333.06254
333.05839
333.05312
333.04582
333.03301
333.07244
333.07168
333.07012
333.06791
333.0651
333.06168
333.05749
333.05217
333.0448
333.03183
333.07163
333.07086
333.0693
333.06707
333.06425
333.0608
333.05658
333.05121
333.04376
333.03061
333.07081
333.07004
333.06847
333.06623
333.06339
333.05991
333.05565
333.05022
333.04267
333.02932
333.06999
333.06922
333.06763
333.06538
333.06252
333.05901
333.0547
333.04921
333.04155
333.02793
333.06917
333.06839
333.06679
333.06453
333.06163
333.05809
333.05373
333.04816
333.04034
333.02636
)
;

boundaryField
{
    water_inlet
    {
        type            fixedValue;
        value           uniform 333.15;
    }
    water_outlet
    {
        type            zeroGradient;
    }
    water_wedge1
    {
        type            wedge;
    }
    water_wedge2
    {
        type            wedge;
    }
    water_to_rock
    {
        type            compressible::turbulentTemperatureRadCoupledMixed;
        refValue        nonuniform List<scalar> 
100
(
315.05088
319.2976
321.14584
322.24477
323.0146
323.60507
324.08376
324.48617
324.83307
325.13757
325.40848
325.652
325.87264
326.07377
326.25801
326.4274
326.58361
326.72799
326.86168
326.98565
327.10072
327.20764
327.30703
327.39948
327.48549
327.56554
327.64004
327.70938
327.77392
327.83397
327.88984
327.9418
327.99012
328.03502
328.07672
328.11544
328.15136
328.18466
328.21551
328.24406
328.27045
328.29481
328.31727
328.33793
328.35692
328.37431
328.3902
328.40467
328.41779
328.42964
328.44027
328.44974
328.45809
328.46538
328.47164
328.47691
328.48121
328.48456
328.487
328.48854
328.48917
328.48892
328.48778
328.48576
328.48284
328.47902
328.47427
328.46859
328.46194
328.4543
328.44563
328.43589
328.42505
328.41304
328.39982
328.38532
328.36948
328.35221
328.33343
328.31305
328.29096
328.26705
328.24119
328.21325
328.18305
328.15041
328.11514
328.07698
328.03564
327.9908
327.94202
327.88879
327.8304
327.76592
327.69402
327.61266
327.5184
327.40456
327.2548
327.01208
)
;
        refGradient     uniform 0;
        valueFraction   nonuniform List<scalar> 
100
(
0.015817679
0.014384089
0.014368103
0.014731052
0.01512037
0.015402098
0.015559946
0.015630421
0.0156539
0.015656172
0.015649645
0.015639108
0.015626012
0.015610675
0.015593173
0.015573628
0.015552349
0.01552968
0.015505855
0.015481072
0.015455538
0.015429473
0.015403103
0.015376655
0.015350359
0.015324457
0.015299205
0.015274884
0.015251789
0.015230217
0.015210448
0.01519272
0.015177207
0.015164007
0.015153131
0.015144516
0.015138026
0.015133475
0.015130643
0.015129289
0.015129173
0.015130061
0.015131737
0.015134005
0.015136709
0.015139714
0.015142888
0.01514612
0.01514932
0.015152418
0.015155364
0.015158119
0.01516066
0.015162973
0.01516505
0.015166893
0.015168506
0.015169898
0.015171081
0.015172069
0.015172876
0.015173519
0.015174013
0.015174376
0.015174624
0.015174774
0.015174839
0.015174833
0.015174769
0.015174657
0.015174508
0.015174332
0.015174139
0.015173937
0.015173732
0.015173527
0.015173327
0.015173134
0.015172951
0.015172778
0.015172617
0.01517247
0.015172338
0.015172221
0.01517212
0.015172034
0.015171961
0.0151719
0.01517185
0.015171809
0.015171778
0.015171755
0.015171739
0.01517173
0.015171727
0.015171729
0.015171735
0.015171743
0.015171753
0.015171764
)
;
        source          uniform 0;
        value           nonuniform List<scalar> 
100
(
332.84488
332.91897
332.93604
332.94042
332.94223
332.94443
332.94751
332.95115
332.95493
332.95862
332.96212
332.9654
332.96848
332.97136
332.97407
332.97662
332.97902
332.98127
332.98338
332.98536
332.98722
332.98896
332.99058
332.99208
332.99348
332.99477
332.99596
332.99705
332.99803
332.99891
332.9997
333.00039
333.00098
333.00147
333.00187
333.00219
333.00242
333.00256
333.00264
333.00264
333.00257
333.00245
333.00227
333.00204
333.00176
333.00144
333.00108
333.00068
333.00025
332.99979
332.9993
332.99878
332.99824
332.99767
332.99709
332.99648
332.99585
332.9952
332.99453
332.99385
332.99314
332.99242
332.99168
332.99092
332.99014
332.98934
332.98852
332.98769
332.98683
332.98596
332.98506
332.98414
332.98319
332.98222
332.98123
332.9802
332.97915
332.97807
332.97695
332.97581
332.97462
332.9734
332.97213
332.97082
332.96946
332.96806
332.96659
332.96506
332.96347
332.96181
332.96006
332.95822
332.95628
332.95422
332.95201
332.94962
332.94698
332.94398
332.94034
332.93511
)
;
        logInterval     -1;
        writePrecision  8;
        updateHeader    1;
        writeToFile     0;
        useUserTime     1;
        kappaMethod     fluidThermo;
    }
}


// ************************************************************************* //
