/*--------------------------------*- C++ -*----------------------------------*\
| =========                 |                                                 |
| \\      /  F ield         | OpenFOAM: The Open Source CFD Toolbox           |
|  \\    /   O peration     | Version:  2506                                  |
|   \\  /    A nd           | Website:  www.openfoam.com                      |
|    \\/     M anipulation  |                                                 |
\*---------------------------------------------------------------------------*/
FoamFile
{
    version     2.0;
    format      ascii;
    arch        "LSB;label=32;scalar=64";
    class       volVectorField;
    location    "4000/water";
    object      U;
}
// * * * * * * * * * * * * * * * * * * * * * * * * * * * * * * * * * * * * * //

dimensions      [0 1 -1 0 0 0 0];

internalField   nonuniform List<vector> 
1000
(
(0.25225587 -0.00012859767 3.3733481e-18)
(0.25226258 -0.00027067836 7.9048625e-19)
(0.25227485 -0.0004145054 1.8649669e-18)
(0.25228819 -0.00055572716 6.9029424e-19)
(0.25229018 -0.0006857579 4.6411655e-19)
(0.25223998 -0.00079863172 8.3551443e-20)
(0.25200713 -0.00089615194 -1.7983543e-19)
(0.25115686 -0.0010460356 -2.5207159e-19)
(0.24780473 -0.0012820719 -5.7537061e-20)
(0.23308261 0.0010121611 -4.8399406e-19)
(0.25653043 -7.7330451e-05 2.32338e-18)
(0.25653977 -0.00018903831 1.2742268e-18)
(0.25655871 -0.00029096537 2.5185318e-18)
(0.25657276 -0.00039024488 9.2606332e-19)
(0.25654377 -0.0004817504 3.5847656e-19)
(0.25636039 -0.00055898443 1.6040364e-20)
(0.25570613 -0.00060536496 -2.9404265e-19)
(0.25355952 -0.00065441357 -4.4972443e-19)
(0.24574266 -0.00084724761 -1.8143759e-19)
(0.21968686 0.0002571881 -4.8432333e-19)
(0.26021787 -7.3909997e-05 -1.4501868e-18)
(0.26022468 -0.00018059836 6.6996745e-20)
(0.26023383 -0.00027741915 1.2981048e-18)
(0.26021807 -0.00037159746 5.6185445e-19)
(0.26010153 -0.00045735777 -2.2236238e-19)
(0.25968006 -0.00053044602 -2.6984967e-19)
(0.25840621 -0.00057093102 -2.6490471e-19)
(0.25452353 -0.00056554761 -4.5584869e-19)
(0.24186464 -0.00061987696 -3.6723879e-19)
(0.20839343 1.1252592e-05 -3.8612223e-19)
(0.26340527 -6.894599e-05 -7.5047985e-19)
(0.26340956 -0.00017058511 3.9491473e-19)
(0.26340597 -0.00026279233 8.968018e-19)
(0.2633478 -0.00035138373 5.5611735e-19)
(0.26310913 -0.00042951145 3.7456741e-20)
(0.26237282 -0.00049395006 -4.5377551e-19)
(0.26030372 -0.0005275102 -2.5734892e-19)
(0.25430845 -0.00049290001 -3.6599126e-19)
(0.23723183 -0.00045934345 -3.6119134e-19)
(0.19958845 -4.887701e-05 -3.3447065e-19)
(0.26641628 -6.4388917e-05 -1.874501e-18)
(0.26641556 -0.00015946867 1.0769701e-18)
(0.266392 -0.0002453985 8.068556e-19)
(0.26627267 -0.00032748757 8.4425058e-19)
(0.26586989 -0.00039791742 3.8932315e-19)
(0.26472853 -0.00045250635 2.3942906e-19)
(0.26164541 -0.00047360913 1.8247096e-20)
(0.25321246 -0.00041483931 -2.843586e-19)
(0.23271016 -0.00033459446 -3.6749976e-19)
(0.19329517 -5.0634487e-05 -2.8652523e-19)
(0.26927574 -6.086742e-05 1.5565072e-19)
(0.26926716 -0.00015024307 5.8906281e-19)
(0.26921481 -0.00023070414 7.3859261e-19)
(0.26901237 -0.00030702699 6.9424024e-19)
(0.26839648 -0.0003704996 3.4072545e-19)
(0.26673519 -0.00041493212 6.6669918e-19)
(0.2623679 -0.0004187185 5.7249498e-20)
(0.25136279 -0.00033835077 -1.7124344e-19)
(0.22869801 -0.00023663 -1.8909934e-19)
(0.18902127 -3.9495332e-05 -2.1770341e-19)
(0.27197991 -5.8057446e-05 2.7108572e-18)
(0.27196007 -0.00014287114 2.1863801e-18)
(0.2718683 -0.00021894804 2.0032413e-19)
(0.2715565 -0.00029030314 5.0014052e-19)
(0.27066609 -0.00034728941 3.4258123e-19)
(0.26833155 -0.00038068227 1.4103285e-19)
(0.26239853 -0.00036437208 -1.3862579e-19)
(0.24902642 -0.00026852431 -1.0074481e-19)
(0.22536097 -0.00016272711 -2.6788224e-20)
(0.18616821 -2.8773935e-05 -2.154569e-19)
(0.27455816 -5.5861812e-05 6.9721576e-19)
(0.27452281 -0.00013703202 2.3258797e-18)
(0.27437848 -0.00020952005 9.0012851e-19)
(0.27392442 -0.00027640489 7.3131502e-19)
(0.27267858 -0.00032682071 4.912636e-19)
(0.26947688 -0.00034738401 2.3095063e-19)
(0.2617847 -0.00031092643 1.571665e-19)
(0.24657381 -0.00020816833 -9.0371047e-20)
(0.22271518 -0.00011050077 -1.5830037e-19)
(0.18425835 -2.0836351e-05 -2.4003338e-19)
(0.27704027 -5.4085735e-05 1.6767973e-18)
(0.27698407 -0.00013225439 1.1394771e-18)
(0.27677058 -0.00020162579 1.6936235e-18)
(0.27613171 -0.00026417296 7.4413038e-19)
(0.27442313 -0.00030720591 5.1173122e-19)
(0.27014173 -0.00031294789 3.4808438e-19)
(0.26069 -0.00025925824 8.3044006e-20)
(0.24429833 -0.000158365 -7.0123011e-20)
(0.22067581 -7.5409033e-05 4.4078654e-20)
(0.18296196 -1.5153771e-05 -6.264677e-20)
(0.27944341 -5.2555754e-05 2.2905706e-18)
(0.27935955 -0.00012814136 1.98011e-18)
(0.27905543 -0.00019460755 6.0831298e-19)
(0.27817575 -0.0002525924 4.3824187e-19)
(0.27586797 -0.00028673455 3.7319272e-19)
(0.27032645 -0.00027659224 2.8459785e-20)
(0.25933503 -0.00021094067 -1.8559656e-19)
(0.24234216 -0.00011891259 -6.6693655e-20)
(0.21912381 -5.2172328e-05 -1.1879996e-19)
(0.18206597 -1.0946065e-05 -1.5756007e-19)
(0.28177654 -5.1166632e-05 1.1366226e-18)
(0.28165619 -0.00012441967 1.8314664e-19)
(0.2812333 -0.00018797292 -1.3870795e-19)
(0.28003901 -0.00024077441 8.253964e-19)
(0.27697398 -0.00026417616 3.1378435e-19)
(0.27008764 -0.0002388037 -7.6495869e-20)
(0.2579227 -0.00016762274 -4.4408229e-20)
(0.2407318 -8.8480731e-05 -1.5431123e-19)
(0.2179502 -3.6445236e-05 -3.2688899e-19)
(0.18143934 -7.6990767e-06 -1.7084616e-19)
(0.28404476 -4.9854755e-05 1.3975873e-18)
(0.28387625 -0.00012089419 4.3102713e-19)
(0.28329739 -0.00018132903 2.8449218e-19)
(0.28169344 -0.00022787688 9.3762665e-19)
(0.27771472 -0.00023897336 6.001065e-19)
(0.26953511 -0.00020087479 2.5644305e-19)
(0.2565914 -0.00013036411 4.1220108e-20)
(0.23943781 -6.5170115e-05 -2.0524643e-19)
(0.21706901 -2.532437e-05 -2.9860828e-19)
(0.18100322 -5.1214214e-06 -1.9563292e-19)
(0.28625049 -4.8572113e-05 5.9262991e-19)
(0.28601827 -0.00011740097 7.9980477e-19)
(0.28523426 -0.00017430194 3.7768041e-19)
(0.28310493 -0.00021314183 9.8432094e-19)
(0.27809437 -0.00021129037 6.3229099e-19)
(0.26879942 -0.0001643978 2.7573648e-19)
(0.25541094 -9.9328809e-05 3.2625228e-20)
(0.23841401 -4.7154969e-05 -1.8678479e-19)
(0.21641538 -1.7078156e-05 -3.3117315e-19)
(0.18070892 -3.0430871e-06 -2.569334e-19)
(0.28839355 -4.727103e-05 1.1721515e-18)
(0.28807682 -0.0001137759 6.9224819e-19)
(0.28702341 -0.00016646002 2.1343839e-19)
(0.28424076 -0.00019602621 4.0199046e-19)
(0.27815547 -0.00018188566 3.9516532e-19)
(0.267996 -0.0001307902 -9.5447937e-20)
(0.25440308 -7.3937504e-05 -4.0448162e-19)
(0.23761478 -3.3004009e-05 -2.2390762e-19)
(0.21594075 -1.0715979e-05 -2.3050097e-19)
(0.1805245 -1.3527161e-06 -3.0415288e-19)
(0.29047098 -4.5891519e-05 2.1409167e-18)
(0.29004195 -0.00010982928 2.8608227e-18)
(0.28863778 -0.00015729336 7.0898269e-19)
(0.28508022 -0.00017633901 -3.7146072e-19)
(0.27797081 -0.000151888 2.5228581e-19)
(0.26720626 -0.00010094779 9.723481e-21)
(0.25356402 -5.3259754e-05 -2.9682557e-19)
(0.23700055 -2.169934e-05 -1.2489552e-19)
(0.21560862 -5.6600462e-06 -2.7568599e-20)
(0.18042759 3.375886e-08 -3.5730546e-20)
(0.29247638 -4.4351583e-05 1.0958046e-18)
(0.29189831 -0.00010531355 7.2413112e-19)
(0.2900463 -0.0001462824 9.7186771e-19)
(0.28562469 -0.00015430716 1.0823448e-18)
(0.27762408 -0.00012254044 -4.9806863e-20)
(0.26647733 -7.5149064e-05 8.6893826e-21)
(0.25287924 -3.6358832e-05 1.0826296e-19)
(0.23653862 -1.2545133e-05 8.6969662e-20)
(0.21539111 -1.5280882e-06 8.7494751e-20)
(0.18040203 1.2055488e-06 2.0567443e-19)
(0.29439901 -4.2542683e-05 1.1255392e-18)
(0.29362441 -9.9894737e-05 9.2932412e-19)
(0.2912191 -0.00013303074 5.6654923e-19)
(0.28590172 -0.00013054604 9.2502631e-19)
(0.27719085 -9.4944909e-05 7.7107732e-22)
(0.26583135 -5.3199026e-05 1.9822981e-21)
(0.25233097 -2.2453186e-05 2.0598711e-19)
(0.23620235 -5.0204816e-06 5.2541369e-20)
(0.21526449 1.8975509e-06 -8.0882391e-20)
(0.18043771 2.1937288e-06 -1.5271335e-19)
(0.29622249 -4.0322294e-05 1.7663326e-18)
(0.29519259 -9.3155529e-05 7.6953004e-19)
(0.29213505 -0.00011739344 4.3887759e-19)
(0.28595988 -0.00010594403 8.9544414e-19)
(0.27672822 -6.9857727e-05 5.2434702e-19)
(0.26527516 -3.4649568e-05 3.1954743e-19)
(0.2519011 -1.0910644e-05 3.8619555e-19)
(0.23596806 1.2322909e-06 1.7388029e-19)
(0.2152169 4.7064642e-06 2.3836557e-20)
(0.18052212 2.9889936e-06 -1.1174922e-19)
(0.29792335 -3.7501345e-05 1.5668432e-18)
(0.2965707 -8.4660586e-05 9.3319442e-19)
(0.29278919 -9.9552492e-05 3.0353484e-19)
(0.28585702 -8.1496506e-05 9.6539134e-19)
(0.27627357 -4.7619562e-05 7.5728604e-19)
(0.26480713 -1.8983845e-05 4.4708887e-19)
(0.25157193 -1.2535198e-06 -1.3834055e-19)
(0.23582161 6.4211591e-06 6.0833157e-20)
(0.21523436 6.9896656e-06 7.3932813e-20)
(0.18064611 3.6207309e-06 -1.0140117e-19)
(0.29946984 -3.3841663e-05 -2.1917819e-18)
(0.29772606 -7.4080352e-05 1.6911228e-18)
(0.29319631 -8.0019904e-05 1.7782647e-19)
(0.28564804 -5.8126005e-05 -9.6269953e-19)
(0.27584861 -2.8225255e-05 2.2792417e-19)
(0.2644212 -5.6902153e-06 -9.5308684e-20)
(0.25132936 6.8564085e-06 -2.4745275e-19)
(0.23575037 1.0705071e-05 -1.631176e-19)
(0.21530524 8.8452605e-06 -7.4716609e-20)
(0.18080244 4.12367e-06 7.406992e-21)
(0.30082186 -2.9094884e-05 -4.1385602e-19)
(0.29863177 -6.1332255e-05 1.1652828e-18)
(0.29338824 -5.9567173e-05 -2.0130735e-19)
(0.28537718 -3.652258e-05 -8.7020137e-19)
(0.27546383 -1.1417272e-05 7.3318932e-20)
(0.26410764 5.6162178e-06 -1.4492105e-19)
(0.2511654 1.3623011e-05 -1.8401335e-19)
(0.23574181 1.4219342e-05 -5.3281234e-20)
(0.21542012 1.0354649e-05 -8.9400749e-20)
(0.1809852 4.5262094e-06 1.304625e-19)
(0.30193376 -2.3108731e-05 3.2066661e-18)
(0.2992734 -4.6684724e-05 9.8719616e-19)
(0.29340604 -3.9091681e-05 -1.6578098e-19)
(0.28507547 -1.7047793e-05 1.7932203e-19)
(0.27512088 3.0833817e-06 8.1604412e-19)
(0.26386444 1.5139629e-05 4.7633209e-19)
(0.25106782 1.9209116e-05 3.4728608e-20)
(0.2357854 1.7094051e-05 -5.6147199e-20)
(0.2155712 1.1580346e-05 -1.1096484e-19)
(0.18118948 4.8474987e-06 -4.7615821e-20)
(0.30276111 -1.5976914e-05 -9.5495681e-19)
(0.29965289 -3.077317e-05 4.668213e-20)
(0.29329057 -1.9436336e-05 -1.6420488e-19)
(0.28476121 1.6753275e-07 -6.0384514e-19)
(0.27482456 1.5440283e-05 2.0439085e-21)
(0.26368339 2.3070945e-05 2.4359604e-20)
(0.25102649 2.3801769e-05 4.0886545e-19)
(0.2358724 1.943378e-05 1.0694577e-19)
(0.21575199 1.2564555e-05 1.8860207e-19)
(0.18141107 5.0988104e-06 1.7375167e-19)
(0.30327135 -8.127871e-06 1.7161195e-19)
(0.29978736 -1.448613e-05 1.9362614e-18)
(0.29307479 -1.305475e-06 -2.1956866e-19)
(0.28444919 1.5039398e-05 -7.9037694e-19)
(0.27457433 2.5803836e-05 -8.9321164e-19)
(0.26355615 2.9613445e-05 -4.3395413e-19)
(0.25103262 2.7544471e-05 -1.7459009e-19)
(0.23599543 2.1311157e-05 1.4385325e-19)
(0.21595697 1.3335886e-05 2.1180632e-19)
(0.18164629 5.287347e-06 1.7939066e-19)
(0.30345397 -2.4233057e-07 -1.0107479e-18)
(0.29970265 1.1329621e-06 -2.6577277e-19)
(0.29278638 1.4662448e-05 -1.1624817e-18)
(0.28414894 2.7525933e-05 -1.0019898e-18)
(0.2743656 3.4336906e-05 -8.5117281e-19)
(0.26347497 3.4930088e-05 -5.3503843e-19)
(0.25107851 3.0536283e-05 -1.9630585e-19)
(0.2361481 2.277436e-05 1.0201454e-19)
(0.21618129 1.3912762e-05 5.0960475e-20)
(0.1818918 5.4172674e-06 1.2623741e-19)
(0.30332513 6.8809761e-06 -2.2975484e-18)
(0.29943296 1.498497e-05 -2.4719906e-18)
(0.2924469 2.7994253e-05 -2.2277071e-18)
(0.28386232 3.7677048e-05 -2.4284818e-18)
(0.27419303 4.1187563e-05 -1.4519805e-18)
(0.26343257 3.9128375e-05 -8.3196204e-19)
(0.2511573 3.2836548e-05 -5.3417105e-20)
(0.23632475 2.3849601e-05 -7.2016355e-20)
(0.21642057 1.4303163e-05 1.3048376e-19)
(0.18214445 5.4892537e-06 2.0825245e-19)
(0.30293051 1.2606871e-05 2.2034106e-18)
(0.29901532 2.625288e-05 -8.099555e-20)
(0.29206924 3.8508164e-05 -9.7388072e-19)
(0.28358876 4.5590161e-05 -4.9466686e-19)
(0.27405096 4.645246e-05 6.625366e-19)
(0.2634222 4.2267471e-05 4.3915176e-19)
(0.25126272 3.4472868e-05 1.0313041e-19)
(0.23652016 2.4544317e-05 -7.1434755e-20)
(0.21667065 1.4505468e-05 8.3328648e-20)
(0.18240107 5.5006912e-06 4.6808028e-20)
(0.30233164 1.6685945e-05 8.2529887e-20)
(0.29848533 3.4600614e-05 -7.2470358e-19)
(0.29166294 4.6231386e-05 -3.5047875e-19)
(0.28332652 5.1360347e-05 -2.7163281e-20)
(0.27393382 5.0195276e-05 5.0960444e-19)
(0.26343755 4.4378662e-05 4.1442543e-19)
(0.25138895 3.5452962e-05 3.1813026e-19)
(0.23672935 2.4853626e-05 2.554735e-19)
(0.21692739 1.4511767e-05 1.3462228e-19)
(0.18265838 5.4468958e-06 8.7675108e-20)
(0.30159324 1.9181631e-05 2.4675583e-18)
(0.29787658 4.0083663e-05 2.8640349e-18)
(0.29123635 5.1326573e-05 4.4283143e-19)
(0.28307383 5.5102458e-05 6.5041247e-19)
(0.27383648 5.2477506e-05 -5.9629213e-19)
(0.26347281 4.5486374e-05 -4.1439675e-19)
(0.25153052 3.5778551e-05 -2.648738e-19)
(0.2369475 2.4769351e-05 9.0250856e-22)
(0.2171866 1.4313032e-05 -2.3276074e-20)
(0.18291288 5.3231539e-06 3.165571e-20)
(0.30077408 2.0343385e-05 -1.1267753e-19)
(0.29721994 4.3028766e-05 1.4550219e-18)
(0.29079789 5.4062165e-05 2.3767841e-19)
(0.28282962 5.6973784e-05 6.626091e-19)
(0.27375459 5.3381334e-05 -2.1973365e-19)
(0.26352281 4.5626309e-05 -5.2728127e-19)
(0.25168237 3.5458999e-05 -4.6608498e-19)
(0.23716991 2.4289249e-05 -3.0133958e-19)
(0.21744401 1.3904372e-05 -1.9632769e-19)
(0.18316091 5.1266809e-06 -1.1762162e-19)
(0.29992225 2.0483326e-05 -3.7420929e-18)
(0.29654262 4.3897968e-05 -3.1919404e-18)
(0.29035626 5.477935e-05 -6.7692791e-19)
(0.28259385 5.7180351e-05 -2.2055337e-18)
(0.27368474 5.3022699e-05 -1.1707174e-18)
(0.26358307 4.4858699e-05 -9.2036351e-19)
(0.25183983 3.4522284e-05 -2.5784651e-19)
(0.23739211 2.3424712e-05 -1.7416175e-19)
(0.21769544 1.3289534e-05 -1.5419251e-19)
(0.18339879 4.8582638e-06 -4.8020148e-20)
(0.29907428 1.9896511e-05 1.7284467e-18)
(0.29586749 4.3178679e-05 -4.0516746e-19)
(0.28992023 5.3854071e-05 -7.9543432e-19)
(0.28236751 5.5968222e-05 -2.0628001e-19)
(0.27362456 5.1553255e-05 5.9245824e-19)
(0.26364989 4.3273753e-05 3.102844e-19)
(0.25199879 3.3020514e-05 1.3168376e-19)
(0.2376099 2.2204898e-05 -9.492757e-20)
(0.21793686 1.2483361e-05 -9.1246898e-20)
(0.18362302 4.5231249e-06 -8.0851447e-20)
(0.2982562 1.8826224e-05 -1.7741181e-19)
(0.29521267 4.1316234e-05 -4.2987789e-19)
(0.289498 5.1661282e-05 -8.8625629e-19)
(0.28215238 5.3605784e-05 -3.5664428e-19)
(0.27357257 4.9153102e-05 -4.7998192e-20)
(0.26372035 4.0989404e-05 -1.0611703e-19)
(0.25215571 3.1029626e-05 -1.0488507e-19)
(0.23781958 2.0676902e-05 -6.4337506e-20)
(0.2181647 1.1511921e-05 6.6034528e-20)
(0.1838305 4.1308801e-06 1.6620176e-20)
(0.29748548 1.7458166e-05 2.613432e-18)
(0.2945917 3.8683963e-05 3.5019913e-18)
(0.28909672 4.8547903e-05 1.1821316e-18)
(0.28195055 5.0363867e-05 4.799931e-19)
(0.273528 4.6018268e-05 -8.3062465e-19)
(0.26379223 3.8143554e-05 -4.141304e-19)
(0.25230768 2.8644437e-05 -5.2970649e-19)
(0.238018 1.8902558e-05 -8.1542467e-20)
(0.2183759 1.0410649e-05 -1.737369e-20)
(0.18401872 3.6948159e-06 -6.31995e-20)
(0.29677294 1.5927787e-05 1.3300509e-18)
(0.29401399 3.5577742e-05 3.2554517e-18)
(0.28872211 4.4816711e-05 9.1508095e-19)
(0.28176413 4.6498639e-05 4.4213777e-19)
(0.27349055 4.2346917e-05 -3.106685e-19)
(0.26386388 3.4883637e-05 -7.4944595e-21)
(0.25245241 2.5970933e-05 -5.9188446e-20)
(0.23820263 1.6953042e-05 -1.5230717e-19)
(0.21856815 9.2210686e-06 -1.5008123e-19)
(0.18418591 3.23063e-06 -1.2203928e-19)
(0.2961245 1.4331108e-05 -4.0364947e-18)
(0.29348541 3.2223022e-05 -2.2291213e-18)
(0.28837835 4.0719879e-05 -4.2257438e-19)
(0.28159491 4.2239594e-05 -1.3385136e-18)
(0.27346017 3.8327177e-05 -6.3927452e-19)
(0.26393413 3.1356017e-05 -7.7857417e-19)
(0.25258815 2.3117705e-05 -1.3040767e-19)
(0.23837164 1.4902583e-05 -2.2700196e-19)
(0.21873985 7.986863e-06 -2.1003028e-19)
(0.18433106 2.7548961e-06 2.3435339e-20)
(0.29554247 1.2734808e-05 3.6887797e-18)
(0.29300905 2.8786498e-05 -1.0673794e-19)
(0.28806808 3.6459396e-05 1.2840876e-18)
(0.28144414 3.7782969e-05 2.1571045e-18)
(0.27343685 3.4128216e-05 1.4494756e-18)
(0.26400215 2.7697117e-05 5.3145342e-19)
(0.25271369 2.0188263e-05 1.1713524e-19)
(0.23852382 1.2822594e-05 -2.7259447e-21)
(0.21889019 6.7501263e-06 -9.0601186e-20)
(0.18445398 2.2835738e-06 -8.4948565e-20)
(0.29502661 1.1184218e-05 1.6449262e-18)
(0.29258575 2.5388103e-05 1.1730865e-18)
(0.28779256 3.2191438e-05 4.153556e-19)
(0.28131251 3.3289611e-05 8.8768164e-19)
(0.2734205 2.9894821e-05 1.183831e-18)
(0.26406732 2.4027046e-05 1.0703123e-18)
(0.25282826 1.7275049e-05 5.2313105e-19)
(0.23865858 1.0776955e-05 3.456597e-19)
(0.21901906 5.548299e-06 1.976287e-19)
(0.18455518 1.8307632e-06 3.4837837e-20)
(0.29457491 9.70923e-06 4.6463544e-19)
(0.2922147 2.2111521e-05 3.4806264e-18)
(0.28755187 2.8032501e-05 5.8395854e-19)
(0.28120011 2.8885976e-05 -1.2248113e-20)
(0.27341089 2.5745095e-05 4.0271064e-19)
(0.2641292 2.044585e-05 5.6798557e-19)
(0.25293144 1.4455559e-05 1.4098853e-19)
(0.23877584 8.8188083e-06 1.6165383e-19)
(0.21912698 4.4120093e-06 1.93395e-19)
(0.18463574 1.4077673e-06 7.0364901e-20)
(0.29418418 8.3286856e-06 6.1991124e-18)
(0.29189391 1.9012963e-05 3.9141464e-18)
(0.28734517 2.4066132e-05 2.7348063e-18)
(0.28110651 2.4667298e-05 2.6603841e-18)
(0.27340761 2.1770826e-05 2.0765766e-18)
(0.26418744 1.7032407e-05 1.243859e-18)
(0.25302315 1.1790762e-05 5.2970653e-19)
(0.23887599 6.9892237e-06 2.1537325e-19)
(0.21921495 3.3642625e-06 1.287006e-19)
(0.18469722 1.0228118e-06 -7.1475123e-20)
(0.29385045 7.0534058e-06 2.0993892e-18)
(0.29162053 1.6127897e-05 1.4697353e-18)
(0.28717088 2.0349114e-05 4.1773406e-18)
(0.28103081 2.0701546e-05 2.8957574e-18)
(0.27341012 1.8039307e-05 1.9930577e-18)
(0.26424177 1.3844884e-05 1.5626676e-18)
(0.25310353 9.3249791e-06 1.0542957e-18)
(0.23895977 5.3169767e-06 6.473486e-19)
(0.21928438 2.4202492e-06 4.4882931e-19)
(0.18474147 6.809142e-07 8.5921232e-20)
(0.29356931 5.8885594e-06 1.6248378e-18)
(0.29139119 1.3476531e-05 1.2934578e-18)
(0.28702691 1.6917237e-05 2.4056445e-18)
(0.28097179 1.7034021e-05 2.3139708e-18)
(0.27341774 1.4596487e-05 1.9425416e-18)
(0.26429201 1.0922859e-05 1.7040135e-18)
(0.25317294 7.0874082e-06 1.1445045e-18)
(0.2390282 3.8197589e-06 6.3772956e-19)
(0.21933691 1.588288e-06 4.5717507e-19)
(0.18477052 3.8438352e-07 2.2141187e-19)
(0.29333613 4.8352797e-06 2.4134437e-18)
(0.2912022 1.1067897e-05 1.8972553e-18)
(0.28691083 1.3790142e-05 2.7870333e-18)
(0.28092801 1.3691748e-05 3.9695742e-18)
(0.27342971 1.1470483e-05 3.1706406e-18)
(0.264338 8.2900636e-06 1.849335e-18)
(0.2532319 5.0943364e-06 1.4014598e-18)
(0.23908247 2.5059693e-06 8.1659822e-19)
(0.21937437 8.7113526e-07 5.9517844e-19)
(0.18478647 1.3341176e-07 4.5146793e-19)
(0.29314624 3.8918966e-06 1.2451512e-18)
(0.29104974 8.9029861e-06 2.3746742e-18)
(0.28682001 1.0975274e-05 3.2850478e-18)
(0.28089784 1.0687358e-05 3.8437018e-18)
(0.27344523 8.6749195e-06 3.2883954e-18)
(0.26437968 5.9571059e-06 2.2128061e-18)
(0.25328104 3.3511595e-06 1.7158187e-18)
(0.23912392 1.3759577e-06 1.2152502e-18)
(0.21939863 2.7225296e-07 8.80684e-19)
(0.18479139 -6.937789e-08 6.2372209e-19)
(0.29299504 3.0546403e-06 1.6490939e-18)
(0.29092995 6.9766918e-06 1.1387879e-18)
(0.28675174 8.4704351e-06 2.8701788e-19)
(0.28087962 8.0216029e-06 1.1035188e-18)
(0.2734635 6.2110057e-06 2.3255303e-18)
(0.26441701 3.9231256e-06 2.3243683e-18)
(0.25332108 1.8545457e-06 1.6814303e-18)
(0.23915392 4.2931836e-07 1.2450308e-18)
(0.21941122 -2.1336881e-07 7.4745676e-19)
(0.18478764 -2.2810656e-07 6.1830025e-19)
(0.29287808 2.3183715e-06 2.0876229e-18)
(0.29083906 5.2797418e-06 2.0469748e-18)
(0.28670332 6.2665819e-06 2.9362294e-18)
(0.28087167 5.6865883e-06 1.0869551e-18)
(0.27348375 4.0709932e-06 5.680857e-19)
(0.26445004 2.1800492e-06 1.6136467e-18)
(0.25335275 5.9989687e-07 1.4814964e-18)
(0.23917355 -3.4284897e-07 1.4606777e-18)
(0.2194146 -6.0391384e-07 1.1308473e-18)
(0.18477676 -3.5375528e-07 7.7893343e-19)
(0.29279113 1.677177e-06 6.1352867e-19)
(0.29077347 3.8003355e-06 1.9056842e-18)
(0.2866721 4.3503231e-06 2.6885219e-18)
(0.28087237 3.6689762e-06 2.0738371e-18)
(0.27350524 2.2424084e-06 1.338002e-18)
(0.26447879 7.1896858e-07 1.4823748e-18)
(0.25337659 -4.2693225e-07 1.6735416e-18)
(0.23918483 -9.6336105e-07 1.5209503e-18)
(0.21941034 -9.1304512e-07 1.2629549e-18)
(0.18476022 -4.5099726e-07 8.5773246e-19)
(0.29273022 1.1247001e-06 6.2347628e-19)
(0.29072974 2.5250627e-06 2.3055318e-18)
(0.28665559 2.7054649e-06 3.0816049e-18)
(0.28088014 1.9525994e-06 3.9708416e-18)
(0.27352725 7.1223417e-07 3.1788387e-18)
(0.26450318 -4.786848e-07 2.2356426e-18)
(0.253394 -1.2535976e-06 1.780616e-18)
(0.23918903 -1.4514476e-06 1.3863396e-18)
(0.2193999 -1.1472838e-06 1.3224608e-18)
(0.18473941 -5.2142155e-07 1.0463814e-18)
(0.29269162 6.5438475e-07 1.7540108e-18)
(0.29070466 1.4398769e-06 2.8643086e-18)
(0.28665139 1.3155803e-06 2.618886e-18)
(0.28089347 5.2176523e-07 2.8754359e-18)
(0.27354904 -5.418357e-07 2.7474013e-18)
(0.2645239 -1.4441933e-06 2.0282503e-18)
(0.25340577 -1.9042798e-06 1.7437097e-18)
(0.2391873 -1.8199575e-06 1.4984524e-18)
(0.21938463 -1.3134625e-06 1.3068607e-18)
(0.18471556 -5.6744494e-07 1.074125e-18)
(0.29267191 2.6010664e-07 7.0712734e-19)
(0.29069522 5.3175695e-07 8.6061538e-19)
(0.28665722 1.6338797e-07 -3.3416975e-19)
(0.28091094 -6.490322e-07 9.8631097e-19)
(0.27357051 -1.553373e-06 1.9314707e-18)
(0.26454118 -2.2052056e-06 1.804817e-18)
(0.25341264 -2.3968305e-06 1.6824546e-18)
(0.23918074 -2.0816647e-06 1.628162e-18)
(0.21936572 -1.4198925e-06 1.1976844e-18)
(0.18468978 -5.9227238e-07 9.290503e-19)
(0.29266787 -6.4651114e-08 1.3434249e-18)
(0.29069861 -2.1518508e-07 2.380191e-18)
(0.28667109 -7.7630475e-07 3.4329313e-18)
(0.28093165 -1.5926264e-06 2.1546163e-18)
(0.27359126 -2.3510188e-06 1.4429607e-18)
(0.26455525 -2.7829365e-06 2.2723879e-18)
(0.25341533 -2.7488534e-06 1.8284784e-18)
(0.23917035 -2.2503324e-06 1.6539973e-18)
(0.21934425 -1.4753921e-06 1.6197483e-18)
(0.18466299 -5.9932145e-07 1.1259904e-18)
(0.29267665 -3.279392e-07 7.4090494e-19)
(0.2907124 -8.2023737e-07 2.4093622e-18)
(0.28669133 -1.5300452e-06 3.1312015e-18)
(0.28095458 -2.3345566e-06 2.3432259e-18)
(0.27361098 -2.9570742e-06 2.0004098e-18)
(0.26456636 -3.1982148e-06 1.8814105e-18)
(0.2534145 -2.978591e-06 1.9269579e-18)
(0.23915703 -2.3397538e-06 1.7638377e-18)
(0.21932115 -1.4885147e-06 1.5243514e-18)
(0.18463596 -5.918887e-07 1.2124933e-18)
(0.29269573 -5.3719137e-07 1.3010597e-18)
(0.29073446 -1.2999196e-06 1.5892117e-18)
(0.28671639 -2.1180726e-06 1.614473e-18)
(0.28097886 -2.8964483e-06 2.0828971e-18)
(0.27362943 -3.3936687e-06 1.5897077e-18)
(0.26457479 -3.4720368e-06 1.5989804e-18)
(0.25341079 -3.1038693e-06 1.8479161e-18)
(0.23914159 -2.3630011e-06 1.7547994e-18)
(0.2192972 -1.4671863e-06 1.4717364e-18)
(0.18460934 -5.7299814e-07 1.2003942e-18)
(0.2927229 -6.9835962e-07 1.7474754e-18)
(0.29076287 -1.6680268e-06 2.663861e-18)
(0.2867449 -2.5588531e-06 1.4413303e-18)
(0.28100375 -3.2994914e-06 1.2544552e-18)
(0.27364642 -3.6826067e-06 3.3456017e-19)
(0.26458082 -3.6246448e-06 1.3822329e-18)
(0.25340478 -3.1414881e-06 1.5475084e-18)
(0.23912471 -2.3321415e-06 1.5374751e-18)
(0.21927307 -1.4185822e-06 1.4139325e-18)
(0.18458361 -5.4535319e-07 1.242564e-18)
(0.29275617 -8.1706971e-07 3.6398048e-19)
(0.29079593 -1.9376102e-06 2.3667671e-18)
(0.28677568 -2.8701772e-06 4.1771501e-18)
(0.2810286 -3.5641733e-06 1.8893102e-18)
(0.27366186 -3.8447193e-06 1.665352e-18)
(0.26458474 -3.6750554e-06 7.3817353e-19)
(0.253397 -3.1069366e-06 1.2017506e-18)
(0.23910703 -2.2580631e-06 1.3453553e-18)
(0.21924931 -1.3490228e-06 1.2161833e-18)
(0.18455915 -5.1128292e-07 1.2030015e-18)
(0.2927938 -8.986445e-07 9.0851233e-19)
(0.29083216 -2.1210762e-06 2.0040454e-18)
(0.28680769 -3.0690388e-06 5.3663174e-18)
(0.28105291 -3.7099766e-06 2.6239391e-18)
(0.27367568 -3.8995972e-06 2.6760226e-18)
(0.26458684 -3.6408875e-06 1.9147168e-18)
(0.25338791 -3.0143109e-06 1.6018714e-18)
(0.23908904 -2.15048e-06 1.5558285e-18)
(0.21922633 -1.264031e-06 1.6581927e-18)
(0.18453625 -4.7278916e-07 1.2617842e-18)
(0.29283428 -9.4807583e-07 1.1078301e-18)
(0.29087028 -2.2301085e-06 1.0922906e-18)
(0.28684007 -3.1714501e-06 -9.4463327e-19)
(0.28107628 -3.755143e-06 1.4442863e-18)
(0.27368789 -3.8653668e-06 2.4018597e-18)
(0.26458737 -3.538187e-06 2.7737462e-18)
(0.25337794 -2.8762062e-06 1.9238992e-18)
(0.23907117 -2.0178797e-06 1.6977829e-18)
(0.21920447 -1.1683082e-06 1.6153577e-18)
(0.18451509 -4.3152637e-07 1.2541795e-18)
(0.2928763 -9.7004524e-07 2.1410276e-18)
(0.29090919 -2.2756607e-06 2.1997545e-18)
(0.28687209 -3.1923756e-06 5.0409984e-19)
(0.28109838 -3.7165854e-06 1.3471804e-18)
(0.2736985 -3.7586327e-06 1.4253513e-18)
(0.26458661 -3.3814248e-06 1.8426475e-18)
(0.25336744 -2.7037689e-06 1.8077923e-18)
(0.23905377 -1.8676148e-06 1.6658302e-18)
(0.21918399 -1.06583e-06 1.5321628e-18)
(0.1844958 -3.8885845e-07 1.2358776e-18)
(0.29291875 -9.6890391e-07 2.0332738e-18)
(0.29094798 -2.2679152e-06 2.0025326e-18)
(0.28690318 -3.145662e-06 1.7953914e-18)
(0.28111899 -3.6098184e-06 1.7734645e-18)
(0.27370757 -3.5944317e-06 7.5591731e-19)
(0.2645848 -3.1834891e-06 1.1018472e-18)
(0.25335673 -2.5067353e-06 1.6287402e-18)
(0.23903712 -1.7059665e-06 1.698439e-18)
(0.21916506 -9.5990259e-07 1.4795364e-18)
(0.18447843 -3.4588239e-07 1.2562117e-18)
(0.29296073 -9.4868409e-07 6.0954404e-19)
(0.29098588 -2.2162877e-06 1.3040378e-18)
(0.28693285 -3.0440394e-06 3.1615718e-18)
(0.28113793 -3.4489678e-06 2.1218095e-18)
(0.2737152 -3.3862734e-06 2.0765228e-18)
(0.26458216 -2.9557769e-06 8.4184147e-19)
(0.25334606 -2.2935605e-06 1.4389918e-18)
(0.23902142 -1.5382818e-06 1.4729617e-18)
(0.21914778 -8.5328129e-07 1.2031716e-18)
(0.18446299 -3.0349819e-07 1.1291317e-18)
(0.29300147 -9.1308155e-07 9.5257283e-19)
(0.29102231 -2.1294056e-06 2.9786491e-18)
(0.28696077 -2.8991023e-06 4.8408106e-18)
(0.28115513 -3.2467731e-06 2.7264531e-18)
(0.27372147 -3.1461829e-06 2.6063204e-18)
(0.26457888 -2.7082738e-06 2.3180624e-18)
(0.25333565 -2.0715266e-06 1.7444636e-18)
(0.23900682 -1.3690844e-06 1.5779222e-18)
(0.21913222 -7.4825023e-07 1.5195117e-18)
(0.18444945 -2.6244138e-07 1.2298243e-18)
(0.29304038 -8.6547297e-07 2.9718298e-18)
(0.29105678 -2.0151289e-06 1.8092285e-18)
(0.28698667 -2.7213374e-06 -6.7988406e-19)
(0.28117053 -3.0146321e-06 2.0812485e-18)
(0.27372649 -2.8847755e-06 2.6305336e-18)
(0.26457516 -2.4496672e-06 2.936492e-18)
(0.25332565 -1.846877e-06 2.0347257e-18)
(0.23899344 -1.2022118e-06 1.7822287e-18)
(0.21911839 -6.4674566e-07 1.6316365e-18)
(0.18443775 -2.2335625e-07 1.3495276e-18)
(0.29307699 -8.088781e-07 2.572106e-18)
(0.29108894 -1.8804967e-06 1.1168532e-18)
(0.28701039 -2.5200749e-06 1.275055e-20)
(0.28118414 -2.7625728e-06 1.3527266e-18)
(0.2737304 -2.6112519e-06 1.9178404e-18)
(0.26457114 -2.1873516e-06 2.4383843e-18)
(0.25331621 -1.6248238e-06 2.0407519e-18)
(0.23898132 -1.0408021e-06 1.8107901e-18)
(0.21910625 -5.5031725e-07 1.7268138e-18)
(0.1844278 -1.8675513e-07 1.3815846e-18)
(0.29311098 -7.4599405e-07 8.8804356e-19)
(0.29111855 -1.7317654e-06 1.2162535e-18)
(0.28703183 -2.3035268e-06 1.1675785e-18)
(0.28119601 -2.4992967e-06 1.1250301e-18)
(0.27373329 -2.3334553e-06 1.0001243e-18)
(0.26456696 -1.9275053e-06 1.7469475e-18)
(0.25330741 -1.4096212e-06 1.9022032e-18)
(0.23897048 -8.8735618e-07 1.813493e-18)
(0.21909576 -4.6019133e-07 1.5805557e-18)
(0.18441948 -1.5305686e-07 1.3004377e-18)
(0.29314213 -6.791448e-07 1.2185662e-19)
(0.29114547 -1.5743373e-06 2.905787e-18)
(0.28705095 -2.0787152e-06 4.175359e-18)
(0.28120619 -2.2321185e-06 2.4219248e-18)
(0.27373531 -2.0578171e-06 1.9498294e-18)
(0.26456274 -1.6750207e-06 7.4791184e-19)
(0.25329933 -1.2044785e-06 1.4654317e-18)
(0.23896092 -7.436249e-07 1.5089695e-18)
(0.21908683 -3.7712305e-07 1.2883547e-18)
(0.18441268 -1.2246308e-07 1.1780351e-18)
(0.2931703 -6.1033688e-07 1.6566758e-18)
(0.29116962 -1.4128402e-06 4.5028158e-18)
(0.28706779 -1.851563e-06 5.0044109e-18)
(0.28121478 -1.967072e-06 2.927431e-18)
(0.27373657 -1.7894828e-06 1.6896423e-18)
(0.26455857 -1.4336431e-06 1.4117489e-18)
(0.253292 -1.0116836e-06 1.4549692e-18)
(0.23895261 -6.1070449e-07 1.4821015e-18)
(0.21907936 -3.014766e-07 1.5519587e-18)
(0.18440724 -9.5009281e-08 1.2621924e-18)
(0.29319546 -5.4125179e-07 1.8329218e-18)
(0.29119101 -1.2511389e-06 4.9597804e-19)
(0.28708241 -1.6269352e-06 -8.9913625e-19)
(0.28122191 -1.708984e-06 1.9035729e-18)
(0.27373717 -1.5324057e-06 1.9223034e-18)
(0.26455454 -1.2060708e-06 1.9897244e-18)
(0.25328544 -8.32699e-07 1.8525251e-18)
(0.23894549 -4.8911304e-07 1.7705781e-18)
(0.21907323 -2.3325352e-07 1.6287391e-18)
(0.18440304 -7.0559922e-08 1.3491616e-18)
(0.29321762 -4.7329285e-07 1.1552831e-19)
(0.29120969 -1.0924348e-06 9.7226465e-19)
(0.2870949 -1.4087845e-06 1.2107693e-18)
(0.28122767 -1.4616667e-06 1.502403e-18)
(0.27373724 -1.2895764e-06 2.0939052e-18)
(0.2645507 -9.9420139e-07 2.3563758e-18)
(0.25327965 -6.6840439e-07 2.1030999e-18)
(0.23893949 -3.7900345e-07 1.842477e-18)
(0.21906835 -1.7226032e-07 1.709625e-18)
(0.18439994 -4.8915787e-08 1.3767443e-18)
(0.29323685 -4.0761997e-07 1.1526024e-18)
(0.29122575 -9.3935504e-07 1.890388e-18)
(0.28710539 -1.2002948e-06 1.4914128e-18)
(0.2812322 -1.2281086e-06 1.4700438e-18)
(0.27373685 -1.0632478e-06 1.4073965e-18)
(0.2645471 -7.9937407e-07 1.9613778e-18)
(0.25327461 -5.1933401e-07 1.9985109e-18)
(0.23893454 -2.8038008e-07 1.8640792e-18)
(0.21906457 -1.1827816e-07 1.6510292e-18)
(0.18439781 -2.9906455e-08 1.3672914e-18)
(0.29325329 -3.4517137e-07 2.487687e-18)
(0.29123934 -7.9401549e-07 1.8742763e-18)
(0.28711401 -1.0039841e-06 2.7906681e-18)
(0.28123562 -1.0106085e-06 2.4150752e-18)
(0.27373611 -8.5508393e-07 2.40753e-18)
(0.26454376 -6.2251372e-07 1.0859269e-18)
(0.25327028 -3.8580811e-07 1.6597524e-18)
(0.23893055 -1.9320767e-07 1.6326128e-18)
(0.2190618 -7.1157649e-08 1.3956116e-18)
(0.18439652 -1.3455335e-08 1.3624589e-18)