0            	    2.79150000e+02
3600            	2.79222893e+02
7200            	2.79278919e+02
10800           	2.79326462e+02
14400           	2.79369089e+02
18000           	2.79408513e+02
21600           	2.79445653e+02
25200           	2.79481058e+02
28800           	2.79515083e+02
32400           	2.79547972e+02
36000           	2.79579904e+02
39600           	2.79611012e+02
43200           	2.79641400e+02
46800           	2.79671151e+02
50400           	2.79700332e+02
54000           	2.79729000e+02
57600           	2.79757202e+02
61200           	2.79784976e+02
64800           	2.79812357e+02
68400           	2.79839375e+02
72000           	2.79866055e+02
75600           	2.79892421e+02
79200           	2.79918492e+02
82800           	2.79944286e+02
86400           	2.79969820e+02
90000           	2.79995107e+02
93600           	2.80020162e+02
97200           	2.80044996e+02
100800          	2.80069620e+02
104400          	2.80094044e+02
108000          	2.80118278e+02
111600          	2.80142328e+02
115200          	2.80166204e+02
118800          	2.80189913e+02
122400          	2.80213461e+02
126000          	2.80236855e+02
129600          	2.80260099e+02
133200          	2.80283201e+02
136800          	2.80306165e+02
140400          	2.80328995e+02
144000          	2.80351696e+02
147600          	2.80374273e+02
151200          	2.80396729e+02
154800          	2.80419068e+02
158400          	2.80441294e+02
162000          	2.80463410e+02
165600          	2.80485419e+02
169200          	2.80507324e+02
172800          	2.80529129e+02
176400          	2.80550835e+02
180000          	2.80572446e+02
183600          	2.80593963e+02
187200          	2.80615390e+02
190800          	2.80636729e+02
194400          	2.80657981e+02
198000          	2.80679150e+02
201600          	2.80700236e+02
205200          	2.80721241e+02
208800          	2.80742169e+02
212400          	2.80763019e+02
216000          	2.80783795e+02
219600          	2.80804497e+02
223200          	2.80825127e+02
226800          	2.80845687e+02
230400          	2.80866178e+02
234000          	2.80886601e+02
237600          	2.80906958e+02
241200          	2.80927250e+02
244800          	2.80947478e+02
248400          	2.80967644e+02
252000          	2.80987748e+02
255600          	2.81007793e+02
259200          	2.81027778e+02
262800          	2.81047705e+02
266400          	2.81067575e+02
270000          	2.81087388e+02
273600          	2.81107147e+02
277200          	2.81126852e+02
280800          	2.81146503e+02
284400          	2.81166101e+02
288000          	2.81185648e+02
291600          	2.81205144e+02
295200          	2.81224590e+02
298800          	2.81243987e+02
302400          	2.81263336e+02
306000          	2.81282636e+02
309600          	2.81301890e+02
313200          	2.81321097e+02
316800          	2.81340258e+02
320400          	2.81359375e+02
324000          	2.81378446e+02
327600          	2.81397474e+02
331200          	2.81416459e+02
334800          	2.81435401e+02
338400          	2.81454302e+02
342000          	2.81473160e+02
345600          	2.81491978e+02
349200          	2.81510755e+02
352800          	2.81529492e+02
356400          	2.81548190e+02
360000          	2.81566849e+02
363600          	2.81585470e+02
367200          	2.81604052e+02
370800          	2.81622597e+02
374400          	2.81641105e+02
378000          	2.81659576e+02
381600          	2.81678011e+02
385200          	2.81696410e+02
388800          	2.81714774e+02
392400          	2.81733103e+02
396000          	2.81751397e+02
399600          	2.81769657e+02
403200          	2.81787883e+02
406800          	2.81806075e+02
410400          	2.81824235e+02
414000          	2.81842361e+02
417600          	2.81860456e+02
421200          	2.81878518e+02
424800          	2.81896548e+02
428400          	2.81914547e+02
432000          	2.81932514e+02
435600          	2.81950451e+02
439200          	2.81968357e+02
442800          	2.81986233e+02
446400          	2.82004079e+02
450000          	2.82021895e+02
453600          	2.82039682e+02
457200          	2.82057440e+02
460800          	2.82075169e+02
464400          	2.82092869e+02
468000          	2.82110541e+02
471600          	2.82128185e+02
475200          	2.82145801e+02
478800          	2.82163390e+02
482400          	2.82180951e+02
486000          	2.82198485e+02
489600          	2.82215992e+02
493200          	2.82233473e+02
496800          	2.82250927e+02
500400          	2.82268355e+02
504000          	2.82285757e+02
507600          	2.82303133e+02
511200          	2.82320483e+02
514800          	2.82337808e+02
518400          	2.82355108e+02
522000          	2.82372383e+02
525600          	2.82389633e+02
529200          	2.82406859e+02
532800          	2.82424060e+02
536400          	2.82441237e+02
540000          	2.82458390e+02
543600          	2.82475519e+02
547200          	2.82492624e+02
550800          	2.82509706e+02
554400          	2.82526765e+02
558000          	2.82543800e+02
561600          	2.82560812e+02
565200          	2.82577802e+02
568800          	2.82594768e+02
572400          	2.82611713e+02
576000          	2.82628635e+02
579600          	2.82645534e+02
583200          	2.82662412e+02
586800          	2.82679267e+02
590400          	2.82696101e+02
594000          	2.82712914e+02
597600          	2.82729704e+02
601200          	2.82746474e+02
604800          	2.82763222e+02
608400          	2.82779949e+02
612000          	2.82796655e+02
615600          	2.82813340e+02
619200          	2.82830005e+02
622800          	2.82846649e+02
626400          	2.82863273e+02
630000          	2.82879876e+02
633600          	2.82896459e+02
637200          	2.82913022e+02
640800          	2.82929565e+02
644400          	2.82946089e+02
648000          	2.82962592e+02
651600          	2.82979076e+02
655200          	2.82995541e+02
658800          	2.83011986e+02
662400          	2.83028412e+02
666000          	2.83044819e+02
669600          	2.83061206e+02
673200          	2.83077575e+02
676800          	2.83093925e+02
680400          	2.83110256e+02
684000          	2.83126569e+02
687600          	2.83142863e+02
691200          	2.83159138e+02
694800          	2.83175395e+02
698400          	2.83191634e+02
702000          	2.83207855e+02
705600          	2.83224058e+02
709200          	2.83240243e+02
712800          	2.83256410e+02
716400          	2.83272559e+02
720000          	2.83288691e+02
723600          	2.83304805e+02
727200          	2.83320901e+02
730800          	2.83336980e+02
734400          	2.83353042e+02
738000          	2.83369086e+02
741600          	2.83385113e+02
745200          	2.83401124e+02
748800          	2.83417117e+02
752400          	2.83433093e+02
756000          	2.83449053e+02
759600          	2.83464995e+02
763200          	2.83480921e+02
766800          	2.83496831e+02
770400          	2.83512723e+02
774000          	2.83528600e+02
777600          	2.83544460e+02
781200          	2.83560304e+02
784800          	2.83576131e+02
788400          	2.83591943e+02
792000          	2.83607738e+02
795600          	2.83623517e+02
799200          	2.83639280e+02
802800          	2.83655028e+02
806400          	2.83670759e+02
810000          	2.83686475e+02
813600          	2.83702175e+02
817200          	2.83717860e+02
820800          	2.83733529e+02
824400          	2.83749183e+02
828000          	2.83764821e+02
831600          	2.83780444e+02
835200          	2.83796051e+02
838800          	2.83811643e+02
842400          	2.83827221e+02
846000          	2.83842783e+02
849600          	2.83858330e+02
853200          	2.83873862e+02
856800          	2.83889379e+02
860400          	2.83904881e+02
864000          	2.83920368e+02
867600          	2.83935841e+02
871200          	2.83951299e+02
874800          	2.83966742e+02
878400          	2.83982171e+02
882000          	2.83997585e+02
885600          	2.84012985e+02
889200          	2.84028370e+02
892800          	2.84043741e+02
896400          	2.84059098e+02
900000          	2.84074441e+02
903600          	2.84089769e+02
907200          	2.84105083e+02
910800          	2.84120383e+02
914400          	2.84135669e+02
918000          	2.84150941e+02
921600          	2.84166199e+02
925200          	2.84181443e+02
928800          	2.84196673e+02
932400          	2.84211890e+02
936000          	2.84227092e+02
939600          	2.84242281e+02
943200          	2.84257457e+02
946800          	2.84272618e+02
950400          	2.84287766e+02
954000          	2.84302901e+02
957600          	2.84318022e+02
961200          	2.84333130e+02
964800          	2.84348224e+02
968400          	2.84363305e+02
972000          	2.84378373e+02
975600          	2.84393427e+02
979200          	2.84408468e+02
982800          	2.84423497e+02
986400          	2.84438511e+02
990000          	2.84453513e+02
993600          	2.84468502e+02
997200          	2.84483478e+02
1.0008e+06      	2.84498441e+02
1.0044e+06      	2.84513391e+02
1.008e+06       	2.84528328e+02
1.0116e+06      	2.84543252e+02
1.0152e+06      	2.84558163e+02
1.0188e+06      	2.84573062e+02
1.0224e+06      	2.84587948e+02
1.026e+06       	2.84602821e+02
1.0296e+06      	2.84617681e+02
1.0332e+06      	2.84632529e+02
1.0368e+06      	2.84647365e+02
1.0404e+06      	2.84662188e+02
1.044e+06       	2.84676998e+02
1.0476e+06      	2.84691796e+02
1.0512e+06      	2.84706581e+02
1.0548e+06      	2.84721354e+02
1.0584e+06      	2.84736115e+02
1.062e+06       	2.84750864e+02
1.0656e+06      	2.84765600e+02
1.0692e+06      	2.84780324e+02
1.0728e+06      	2.84795035e+02
1.0764e+06      	2.84809735e+02
1.08e+06        	2.84824422e+02
1.0836e+06      	2.84839097e+02
1.0872e+06      	2.84853761e+02
1.0908e+06      	2.84868412e+02
1.0944e+06      	2.84883051e+02
1.098e+06       	2.84897678e+02
1.1016e+06      	2.84912293e+02
1.1052e+06      	2.84926896e+02
1.1088e+06      	2.84941488e+02
1.1124e+06      	2.84956067e+02
1.116e+06       	2.84970635e+02
1.1196e+06      	2.84985191e+02
1.1232e+06      	2.84999735e+02
1.1268e+06      	2.85014268e+02
1.1304e+06      	2.85028788e+02
1.134e+06       	2.85043298e+02
1.1376e+06      	2.85057795e+02
1.1412e+06      	2.85072281e+02
1.1448e+06      	2.85086755e+02
1.1484e+06      	2.85101218e+02
1.152e+06       	2.85115669e+02
1.1556e+06      	2.85130109e+02
1.1592e+06      	2.85144537e+02
1.1628e+06      	2.85158954e+02
1.1664e+06      	2.85173360e+02
1.17e+06        	2.85187754e+02
1.1736e+06      	2.85202136e+02
1.1772e+06      	2.85216508e+02
1.1808e+06      	2.85230868e+02
1.1844e+06      	2.85245217e+02
1.188e+06       	2.85259555e+02
1.1916e+06      	2.85273881e+02
1.1952e+06      	2.85288196e+02
1.1988e+06      	2.85302500e+02
1.2024e+06      	2.85316793e+02
1.206e+06       	2.85331075e+02
1.2096e+06      	2.85345346e+02
1.2132e+06      	2.85359606e+02
1.2168e+06      	2.85373854e+02
1.2204e+06      	2.85388092e+02
1.224e+06       	2.85402319e+02
1.2276e+06      	2.85416535e+02
1.2312e+06      	2.85430740e+02
1.2348e+06      	2.85444934e+02
1.2384e+06      	2.85459117e+02
1.242e+06       	2.85473289e+02
1.2456e+06      	2.85487450e+02
1.2492e+06      	2.85501601e+02
1.2528e+06      	2.85515741e+02
1.2564e+06      	2.85529870e+02
1.26e+06        	2.85543988e+02
1.2636e+06      	2.85558096e+02
1.2672e+06      	2.85572193e+02
1.2708e+06      	2.85586279e+02
1.2744e+06      	2.85600355e+02
1.278e+06       	2.85614420e+02
1.2816e+06      	2.85628474e+02
1.2852e+06      	2.85642518e+02
1.2888e+06      	2.85656551e+02
1.2924e+06      	2.85670574e+02
1.296e+06       	2.85684586e+02
1.2996e+06      	2.85698588e+02
1.3032e+06      	2.85712579e+02
1.3068e+06      	2.85726560e+02
1.3104e+06      	2.85740531e+02
1.314e+06       	2.85754491e+02
1.3176e+06      	2.85768440e+02
1.3212e+06      	2.85782380e+02
1.3248e+06      	2.85796309e+02
1.3284e+06      	2.85810227e+02
1.332e+06       	2.85824136e+02
1.3356e+06      	2.85838034e+02
1.3392e+06      	2.85851922e+02
1.3428e+06      	2.85865799e+02
1.3464e+06      	2.85879667e+02
1.35e+06        	2.85893524e+02
1.3536e+06      	2.85907371e+02
1.3572e+06      	2.85921208e+02
1.3608e+06      	2.85935035e+02
1.3644e+06      	2.85948851e+02
1.368e+06       	2.85962658e+02
1.3716e+06      	2.85976454e+02
1.3752e+06      	2.85990241e+02
1.3788e+06      	2.86004017e+02
1.3824e+06      	2.86017783e+02
1.386e+06       	2.86031540e+02
1.3896e+06      	2.86045286e+02
1.3932e+06      	2.86059023e+02
1.3968e+06      	2.86072749e+02
1.4004e+06      	2.86086465e+02
1.404e+06       	2.86100172e+02
1.4076e+06      	2.86113869e+02
1.4112e+06      	2.86127556e+02
1.4148e+06      	2.86141233e+02
1.4184e+06      	2.86154900e+02
1.422e+06       	2.86168557e+02
1.4256e+06      	2.86182205e+02
1.4292e+06      	2.86195842e+02
1.4328e+06      	2.86209470e+02
1.4364e+06      	2.86223088e+02
1.44e+06        	2.86236697e+02
1.4436e+06      	2.86250296e+02
1.4472e+06      	2.86263885e+02
1.4508e+06      	2.86277464e+02
1.4544e+06      	2.86291034e+02
1.458e+06       	2.86304594e+02
1.4616e+06      	2.86318144e+02
1.4652e+06      	2.86331685e+02
1.4688e+06      	2.86345216e+02
1.4724e+06      	2.86358738e+02
1.476e+06       	2.86372250e+02
1.4796e+06      	2.86385752e+02
1.4832e+06      	2.86399245e+02
1.4868e+06      	2.86412729e+02
1.4904e+06      	2.86426203e+02
1.494e+06       	2.86439667e+02
1.4976e+06      	2.86453122e+02
1.5012e+06      	2.86466567e+02
1.5048e+06      	2.86480004e+02
1.5084e+06      	2.86493430e+02
1.512e+06       	2.86506847e+02
1.5156e+06      	2.86520255e+02
1.5192e+06      	2.86533654e+02
1.5228e+06      	2.86547043e+02
1.5264e+06      	2.86560422e+02
1.53e+06        	2.86573793e+02
1.5336e+06      	2.86587154e+02
1.5372e+06      	2.86600505e+02
1.5408e+06      	2.86613848e+02
1.5444e+06      	2.86627181e+02
1.548e+06       	2.86640505e+02
1.5516e+06      	2.86653819e+02
1.5552e+06      	2.86667125e+02
1.5588e+06      	2.86680421e+02
1.5624e+06      	2.86693708e+02
1.566e+06       	2.86706985e+02
1.5696e+06      	2.86720254e+02
1.5732e+06      	2.86733513e+02
1.5768e+06      	2.86746763e+02
1.5804e+06      	2.86760005e+02
1.584e+06       	2.86773236e+02
1.5876e+06      	2.86786459e+02
1.5912e+06      	2.86799673e+02
1.5948e+06      	2.86812878e+02
1.5984e+06      	2.86826073e+02
1.602e+06       	2.86839260e+02
1.6056e+06      	2.86852437e+02
1.6092e+06      	2.86865606e+02
1.6128e+06      	2.86878765e+02
1.6164e+06      	2.86891915e+02
1.62e+06        	2.86905057e+02
1.6236e+06      	2.86918189e+02
1.6272e+06      	2.86931313e+02
1.6308e+06      	2.86944427e+02
1.6344e+06      	2.86957533e+02
1.638e+06       	2.86970629e+02
1.6416e+06      	2.86983717e+02
1.6452e+06      	2.86996796e+02
1.6488e+06      	2.87009865e+02
1.6524e+06      	2.87022926e+02
1.656e+06       	2.87035978e+02
1.6596e+06      	2.87049022e+02
1.6632e+06      	2.87062056e+02
1.6668e+06      	2.87075082e+02
1.6704e+06      	2.87088098e+02
1.674e+06       	2.87101106e+02
1.6776e+06      	2.87114105e+02
1.6812e+06      	2.87127096e+02
1.6848e+06      	2.87140077e+02
1.6884e+06      	2.87153050e+02
1.692e+06       	2.87166014e+02
1.6956e+06      	2.87178970e+02
1.6992e+06      	2.87191916e+02
1.7028e+06      	2.87204854e+02
1.7064e+06      	2.87217783e+02
1.71e+06        	2.87230704e+02
1.7136e+06      	2.87243615e+02
1.7172e+06      	2.87256518e+02
1.7208e+06      	2.87269413e+02
1.7244e+06      	2.87282299e+02
1.728e+06       	2.87295176e+02
1.7316e+06      	2.87308044e+02
1.7352e+06      	2.87320904e+02
1.7388e+06      	2.87333756e+02
1.7424e+06      	2.87346598e+02
1.746e+06       	2.87359432e+02
1.7496e+06      	2.87372258e+02
1.7532e+06      	2.87385075e+02
1.7568e+06      	2.87397883e+02
1.7604e+06      	2.87410683e+02
1.764e+06       	2.87423475e+02
1.7676e+06      	2.87436257e+02
1.7712e+06      	2.87449032e+02
1.7748e+06      	2.87461798e+02
1.7784e+06      	2.87474555e+02
1.782e+06       	2.87487304e+02
1.7856e+06      	2.87500044e+02
1.7892e+06      	2.87512776e+02
1.7928e+06      	2.87525500e+02
1.7964e+06      	2.87538215e+02
1.8e+06         	2.87550921e+02
1.8036e+06      	2.87563620e+02
1.8072e+06      	2.87576309e+02
1.8108e+06      	2.87588991e+02
1.8144e+06      	2.87601664e+02
1.818e+06       	2.87614329e+02
1.8216e+06      	2.87626985e+02
1.8252e+06      	2.87639633e+02
1.8288e+06      	2.87652272e+02
1.8324e+06      	2.87664904e+02
1.836e+06       	2.87677527e+02
1.8396e+06      	2.87690141e+02
1.8432e+06      	2.87702747e+02
1.8468e+06      	2.87715345e+02
1.8504e+06      	2.87727935e+02
1.854e+06       	2.87740517e+02
1.8576e+06      	2.87753090e+02
1.8612e+06      	2.87765655e+02
1.8648e+06      	2.87778211e+02
1.8684e+06      	2.87790760e+02
1.872e+06       	2.87803300e+02
1.8756e+06      	2.87815832e+02
1.8792e+06      	2.87828356e+02
1.8828e+06      	2.87840871e+02
1.8864e+06      	2.87853378e+02
1.89e+06        	2.87865878e+02
1.8936e+06      	2.87878369e+02
1.8972e+06      	2.87890851e+02
1.9008e+06      	2.87903326e+02
1.9044e+06      	2.87915793e+02
1.908e+06       	2.87928251e+02
1.9116e+06      	2.87940701e+02
1.9152e+06      	2.87953143e+02
1.9188e+06      	2.87965577e+02
1.9224e+06      	2.87978003e+02
1.926e+06       	2.87990421e+02
1.9296e+06      	2.88002831e+02
1.9332e+06      	2.88015232e+02
1.9368e+06      	2.88027626e+02
1.9404e+06      	2.88040011e+02
1.944e+06       	2.88052389e+02
1.9476e+06      	2.88064758e+02
1.9512e+06      	2.88077120e+02
1.9548e+06      	2.88089473e+02
1.9584e+06      	2.88101818e+02
1.962e+06       	2.88114156e+02
1.9656e+06      	2.88126485e+02
1.9692e+06      	2.88138806e+02
1.9728e+06      	2.88151120e+02
1.9764e+06      	2.88163425e+02
1.98e+06        	2.88175723e+02
1.9836e+06      	2.88188012e+02
1.9872e+06      	2.88200293e+02
1.9908e+06      	2.88212567e+02
1.9944e+06      	2.88224833e+02
1.998e+06       	2.88237090e+02
2.0016e+06      	2.88249340e+02
2.0052e+06      	2.88261582e+02
2.0088e+06      	2.88273816e+02
2.0124e+06      	2.88286042e+02
2.016e+06       	2.88298260e+02
2.0196e+06      	2.88310471e+02
2.0232e+06      	2.88322673e+02
2.0268e+06      	2.88334868e+02
2.0304e+06      	2.88347054e+02
2.034e+06       	2.88359233e+02
2.0376e+06      	2.88371404e+02
2.0412e+06      	2.88383568e+02
2.0448e+06      	2.88395723e+02
2.0484e+06      	2.88407870e+02
2.052e+06       	2.88420010e+02
2.0556e+06      	2.88432142e+02
2.0592e+06      	2.88444266e+02
2.0628e+06      	2.88456383e+02
2.0664e+06      	2.88468491e+02
2.07e+06        	2.88480592e+02
2.0736e+06      	2.88492685e+02
2.0772e+06      	2.88504771e+02
2.0808e+06      	2.88516848e+02
2.0844e+06      	2.88528918e+02
2.088e+06       	2.88540980e+02
2.0916e+06      	2.88553035e+02
2.0952e+06      	2.88565082e+02
2.0988e+06      	2.88577121e+02
2.1024e+06      	2.88589152e+02
2.106e+06       	2.88601176e+02
2.1096e+06      	2.88613191e+02
2.1132e+06      	2.88625200e+02
2.1168e+06      	2.88637200e+02
2.1204e+06      	2.88649193e+02
2.124e+06       	2.88661178e+02
2.1276e+06      	2.88673156e+02
2.1312e+06      	2.88685126e+02
2.1348e+06      	2.88697088e+02
2.1384e+06      	2.88709043e+02
2.142e+06       	2.88720990e+02
2.1456e+06      	2.88732930e+02
2.1492e+06      	2.88744862e+02
2.1528e+06      	2.88756786e+02
2.1564e+06      	2.88768703e+02
2.16e+06        	2.88780612e+02
2.1636e+06      	2.88792513e+02
2.1672e+06      	2.88804407e+02
2.1708e+06      	2.88816294e+02
2.1744e+06      	2.88828172e+02
2.178e+06       	2.88840044e+02
2.1816e+06      	2.88851908e+02
2.1852e+06      	2.88863764e+02
2.1888e+06      	2.88875612e+02
2.1924e+06      	2.88887454e+02
2.196e+06       	2.88899287e+02
2.1996e+06      	2.88911113e+02
2.2032e+06      	2.88922932e+02
2.2068e+06      	2.88934743e+02
2.2104e+06      	2.88946547e+02
2.214e+06       	2.88958343e+02
2.2176e+06      	2.88970132e+02
2.2212e+06      	2.88981913e+02
2.2248e+06      	2.88993687e+02
2.2284e+06      	2.89005453e+02
2.232e+06       	2.89017212e+02
2.2356e+06      	2.89028964e+02
2.2392e+06      	2.89040708e+02
2.2428e+06      	2.89052444e+02
2.2464e+06      	2.89064174e+02
2.25e+06        	2.89075895e+02
2.2536e+06      	2.89087610e+02
2.2572e+06      	2.89099317e+02
2.2608e+06      	2.89111016e+02
2.2644e+06      	2.89122709e+02
2.268e+06       	2.89134393e+02
2.2716e+06      	2.89146071e+02
2.2752e+06      	2.89157741e+02
2.2788e+06      	2.89169404e+02
2.2824e+06      	2.89181059e+02
2.286e+06       	2.89192707e+02
2.2896e+06      	2.89204348e+02
2.2932e+06      	2.89215981e+02
2.2968e+06      	2.89227607e+02
2.3004e+06      	2.89239226e+02
2.304e+06       	2.89250837e+02
2.3076e+06      	2.89262441e+02
2.3112e+06      	2.89274038e+02
2.3148e+06      	2.89285628e+02
2.3184e+06      	2.89297210e+02
2.322e+06       	2.89308785e+02
2.3256e+06      	2.89320352e+02
2.3292e+06      	2.89331913e+02
2.3328e+06      	2.89343466e+02
2.3364e+06      	2.89355012e+02
2.34e+06        	2.89366550e+02
2.3436e+06      	2.89378082e+02
2.3472e+06      	2.89389606e+02
2.3508e+06      	2.89401123e+02
2.3544e+06      	2.89412632e+02
2.358e+06       	2.89424135e+02
2.3616e+06      	2.89435630e+02
2.3652e+06      	2.89447118e+02
2.3688e+06      	2.89458599e+02
2.3724e+06      	2.89470072e+02
2.376e+06       	2.89481539e+02
2.3796e+06      	2.89492998e+02
2.3832e+06      	2.89504450e+02
2.3868e+06      	2.89515895e+02
2.3904e+06      	2.89527333e+02
2.394e+06       	2.89538763e+02
2.3976e+06      	2.89550187e+02
2.4012e+06      	2.89561603e+02
2.4048e+06      	2.89573012e+02
2.4084e+06      	2.89584414e+02
2.412e+06       	2.89595809e+02
2.4156e+06      	2.89607197e+02
2.4192e+06      	2.89618577e+02
2.4228e+06      	2.89629951e+02
2.4264e+06      	2.89641317e+02
2.43e+06        	2.89652676e+02
2.4336e+06      	2.89664028e+02
2.4372e+06      	2.89675374e+02
2.4408e+06      	2.89686712e+02
2.4444e+06      	2.89698043e+02
2.448e+06       	2.89709366e+02
2.4516e+06      	2.89720683e+02
2.4552e+06      	2.89731993e+02
2.4588e+06      	2.89743296e+02
2.4624e+06      	2.89754591e+02
2.466e+06       	2.89765880e+02
2.4696e+06      	2.89777161e+02
2.4732e+06      	2.89788436e+02
2.4768e+06      	2.89799703e+02
2.4804e+06      	2.89810964e+02
2.484e+06       	2.89822217e+02
2.4876e+06      	2.89833464e+02
2.4912e+06      	2.89844703e+02
2.4948e+06      	2.89855936e+02
2.4984e+06      	2.89867161e+02
2.502e+06       	2.89878380e+02
2.5056e+06      	2.89889591e+02
2.5092e+06      	2.89900796e+02
2.5128e+06      	2.89911993e+02
2.5164e+06      	2.89923184e+02
2.52e+06        	2.89934368e+02
2.5236e+06      	2.89945544e+02
2.5272e+06      	2.89956714e+02
2.5308e+06      	2.89967877e+02
2.5344e+06      	2.89979033e+02
2.538e+06       	2.89990182e+02
2.5416e+06      	2.90001324e+02
2.5452e+06      	2.90012459e+02
2.5488e+06      	2.90023587e+02
2.5524e+06      	2.90034708e+02
2.556e+06       	2.90045822e+02
2.5596e+06      	2.90056930e+02
2.5632e+06      	2.90068030e+02
2.5668e+06      	2.90079124e+02
2.5704e+06      	2.90090211e+02
2.574e+06       	2.90101291e+02
2.5776e+06      	2.90112364e+02
2.5812e+06      	2.90123430e+02
2.5848e+06      	2.90134489e+02
2.5884e+06      	2.90145542e+02
2.592e+06       	2.90156588e+02
2.5956e+06      	2.90167626e+02
2.5992e+06      	2.90178658e+02
2.6028e+06      	2.90189683e+02
2.6064e+06      	2.90200702e+02
2.61e+06        	2.90211713e+02
2.6136e+06      	2.90222718e+02
2.6172e+06      	2.90233716e+02
2.6208e+06      	2.90244707e+02
2.6244e+06      	2.90255691e+02
2.628e+06       	2.90266668e+02
2.6316e+06      	2.90277639e+02
2.6352e+06      	2.90288603e+02
2.6388e+06      	2.90299560e+02
2.6424e+06      	2.90310510e+02
2.646e+06       	2.90321454e+02
2.6496e+06      	2.90332391e+02
2.6532e+06      	2.90343321e+02
2.6568e+06      	2.90354244e+02
2.6604e+06      	2.90365160e+02
2.664e+06       	2.90376070e+02
2.6676e+06      	2.90386973e+02
2.6712e+06      	2.90397869e+02
2.6748e+06      	2.90408759e+02
2.6784e+06      	2.90419642e+02
2.682e+06       	2.90430518e+02
2.6856e+06      	2.90441387e+02
2.6892e+06      	2.90452250e+02
2.6928e+06      	2.90463106e+02
2.6964e+06      	2.90473955e+02
2.7e+06         	2.90484798e+02
2.7036e+06      	2.90495634e+02
2.7072e+06      	2.90506463e+02
2.7108e+06      	2.90517286e+02
2.7144e+06      	2.90528102e+02
2.718e+06       	2.90538911e+02
2.7216e+06      	2.90549713e+02
2.7252e+06      	2.90560509e+02
2.7288e+06      	2.90571298e+02
2.7324e+06      	2.90582081e+02
2.736e+06       	2.90592857e+02
2.7396e+06      	2.90603626e+02
2.7432e+06      	2.90614389e+02
2.7468e+06      	2.90625145e+02
2.7504e+06      	2.90635895e+02
2.754e+06       	2.90646637e+02
2.7576e+06      	2.90657374e+02
2.7612e+06      	2.90668103e+02
2.7648e+06      	2.90678826e+02
2.7684e+06      	2.90689543e+02
2.772e+06       	2.90700252e+02
2.7756e+06      	2.90710956e+02
2.7792e+06      	2.90721652e+02
2.7828e+06      	2.90732342e+02
2.7864e+06      	2.90743026e+02
2.79e+06        	2.90753703e+02
2.7936e+06      	2.90764373e+02
2.7972e+06      	2.90775037e+02
2.8008e+06      	2.90785694e+02
2.8044e+06      	2.90796345e+02
2.808e+06       	2.90806989e+02
2.8116e+06      	2.90817627e+02
2.8152e+06      	2.90828258e+02
2.8188e+06      	2.90838882e+02
2.8224e+06      	2.90849501e+02
2.826e+06       	2.90860112e+02
2.8296e+06      	2.90870717e+02
2.8332e+06      	2.90881316e+02
2.8368e+06      	2.90891908e+02
2.8404e+06      	2.90902493e+02
2.844e+06       	2.90913072e+02
2.8476e+06      	2.90923645e+02
2.8512e+06      	2.90934211e+02
2.8548e+06      	2.90944770e+02
2.8584e+06      	2.90955323e+02
2.862e+06       	2.90965870e+02
2.8656e+06      	2.90976410e+02
2.8692e+06      	2.90986944e+02
2.8728e+06      	2.90997471e+02
2.8764e+06      	2.91007991e+02
2.88e+06        	2.91018506e+02
2.8836e+06      	2.91029014e+02
2.8872e+06      	2.91039515e+02
2.8908e+06      	2.91050010e+02
2.8944e+06      	2.91060499e+02
2.898e+06       	2.91070981e+02
2.9016e+06      	2.91081456e+02
2.9052e+06      	2.91091926e+02
2.9088e+06      	2.91102389e+02
2.9124e+06      	2.91112845e+02
2.916e+06       	2.91123295e+02
2.9196e+06      	2.91133739e+02
2.9232e+06      	2.91144176e+02
2.9268e+06      	2.91154607e+02
2.9304e+06      	2.91165032e+02
2.934e+06       	2.91175450e+02
2.9376e+06      	2.91185862e+02
2.9412e+06      	2.91196267e+02
2.9448e+06      	2.91206666e+02
2.9484e+06      	2.91217059e+02
2.952e+06       	2.91227445e+02
2.9556e+06      	2.91237825e+02
2.9592e+06      	2.91248199e+02
2.9628e+06      	2.91258566e+02
2.9664e+06      	2.91268927e+02
2.97e+06        	2.91279281e+02
2.9736e+06      	2.91289630e+02
2.9772e+06      	2.91299972e+02
2.9808e+06      	2.91310307e+02
2.9844e+06      	2.91320637e+02
2.988e+06       	2.91330960e+02
2.9916e+06      	2.91341276e+02
2.9952e+06      	2.91351587e+02
2.9988e+06      	2.91361891e+02
3.0024e+06      	2.91372189e+02
3.006e+06       	2.91382480e+02
3.0096e+06      	2.91392766e+02
3.0132e+06      	2.91403045e+02
3.0168e+06      	2.91413317e+02
3.0204e+06      	2.91423584e+02
3.024e+06       	2.91433844e+02
3.0276e+06      	2.91444098e+02
3.0312e+06      	2.91454345e+02
3.0348e+06      	2.91464587e+02
3.0384e+06      	2.91474822e+02
3.042e+06       	2.91485051e+02
3.0456e+06      	2.91495274e+02
3.0492e+06      	2.91505490e+02
3.0528e+06      	2.91515700e+02
3.0564e+06      	2.91525904e+02
3.06e+06        	2.91536102e+02
3.0636e+06      	2.91546294e+02
3.0672e+06      	2.91556479e+02
3.0708e+06      	2.91566658e+02
3.0744e+06      	2.91576831e+02
3.078e+06       	2.91586998e+02
3.0816e+06      	2.91597158e+02
3.0852e+06      	2.91607313e+02
3.0888e+06      	2.91617461e+02
3.0924e+06      	2.91627603e+02
3.096e+06       	2.91637739e+02
3.0996e+06      	2.91647868e+02
3.1032e+06      	2.91657992e+02
3.1068e+06      	2.91668109e+02
3.1104e+06      	2.91678220e+02
3.114e+06       	2.91688325e+02
3.1176e+06      	2.91698424e+02
3.1212e+06      	2.91708517e+02
3.1248e+06      	2.91718603e+02
3.1284e+06      	2.91728684e+02
3.132e+06       	2.91738758e+02
3.1356e+06      	2.91748826e+02
3.1392e+06      	2.91758888e+02
3.1428e+06      	2.91768944e+02
3.1464e+06      	2.91778994e+02
3.15e+06        	2.91789037e+02
3.1536e+06      	2.91799075e+02
3.1572e+06      	2.91809106e+02
3.1608e+06      	2.91819132e+02
3.1644e+06      	2.91829151e+02
3.168e+06       	2.91839164e+02
3.1716e+06      	2.91849171e+02
3.1752e+06      	2.91859172e+02
3.1788e+06      	2.91869167e+02
3.1824e+06      	2.91879156e+02
3.186e+06       	2.91889139e+02
3.1896e+06      	2.91899116e+02
3.1932e+06      	2.91909086e+02
3.1968e+06      	2.91919051e+02
3.2004e+06      	2.91929010e+02
3.204e+06       	2.91938962e+02
3.2076e+06      	2.91948908e+02
3.2112e+06      	2.91958849e+02
3.2148e+06      	2.91968783e+02
3.2184e+06      	2.91978712e+02
3.222e+06       	2.91988634e+02
3.2256e+06      	2.91998550e+02
3.2292e+06      	2.92008461e+02
3.2328e+06      	2.92018365e+02
3.2364e+06      	2.92028263e+02
3.24e+06        	2.92038155e+02
3.2436e+06      	2.92048042e+02
3.2472e+06      	2.92057922e+02
3.2508e+06      	2.92067796e+02
3.2544e+06      	2.92077664e+02
3.258e+06       	2.92087527e+02
3.2616e+06      	2.92097383e+02
3.2652e+06      	2.92107233e+02
3.2688e+06      	2.92117078e+02
3.2724e+06      	2.92126916e+02
3.276e+06       	2.92136748e+02
3.2796e+06      	2.92146575e+02
3.2832e+06      	2.92156395e+02
3.2868e+06      	2.92166210e+02
3.2904e+06      	2.92176018e+02
3.294e+06       	2.92185821e+02
3.2976e+06      	2.92195618e+02
3.3012e+06      	2.92205408e+02
3.3048e+06      	2.92215193e+02
3.3084e+06      	2.92224972e+02
3.312e+06       	2.92234745e+02
3.3156e+06      	2.92244512e+02
3.3192e+06      	2.92254273e+02
3.3228e+06      	2.92264029e+02
3.3264e+06      	2.92273778e+02
3.33e+06        	2.92283521e+02
3.3336e+06      	2.92293259e+02
3.3372e+06      	2.92302990e+02
3.3408e+06      	2.92312716e+02
3.3444e+06      	2.92322436e+02
3.348e+06       	2.92332150e+02
3.3516e+06      	2.92341858e+02
3.3552e+06      	2.92351560e+02
3.3588e+06      	2.92361257e+02
3.3624e+06      	2.92370947e+02
3.366e+06       	2.92380632e+02
3.3696e+06      	2.92390310e+02