# y+ ()         
# Time          	patch           	min             	max             	average         
30000           	water_to_rock	3.62505432e+01	4.37452586e+01	4.07383465e+01
