/*--------------------------------*- C++ -*----------------------------------*\
| =========                 |                                                 |
| \\      /  F ield         | OpenFOAM: The Open Source CFD Toolbox           |
|  \\    /   O peration     | Version:  2506                                  |
|   \\  /    A nd           | Website:  www.openfoam.com                      |
|    \\/     M anipulation  |                                                 |
\*---------------------------------------------------------------------------*/
FoamFile
{
    version     2.0;
    format      ascii;
    arch        "LSB;label=32;scalar=64";
    class       volScalarField;
    location    "2000/rock";
    object      T;
}
// * * * * * * * * * * * * * * * * * * * * * * * * * * * * * * * * * * * * * //

dimensions      [0 0 0 1 0 0 0];

internalField   nonuniform List<scalar> 
2500
(
315.03486
304.00902
298.30376
294.90724
292.69665
291.16505
290.05345
289.21732
288.57042
288.05844
287.64566
287.30775
287.02761
286.7929
286.59454
286.42568
286.28109
286.15666
286.04916
285.95593
285.87478
285.80376
285.74107
285.68477
285.63254
319.27356
309.15576
303.17238
299.2626
296.54838
294.58103
293.10659
291.97138
291.07773
290.3611
289.77744
289.2958
288.89395
288.55554
288.26834
288.02305
287.81244
287.63086
287.47379
287.33759
287.21924
287.11619
287.02624
286.94742
286.87798
321.1138
312.01012
306.32008
302.39297
299.53352
297.37742
295.70907
294.39122
293.33228
292.46895
291.75634
291.16187
290.66142
290.23688
289.8744
289.56326
289.29505
289.0631
288.86206
288.6876
288.53615
288.40479
288.29108
288.193
288.10895
322.20474
313.84861
308.50423
304.70799
301.86054
299.65267
297.90095
296.48673
295.32889
294.36979
293.56738
292.89031
292.31481
291.8226
291.39943
291.03409
290.71765
290.44294
290.20418
289.99662
289.8164
289.66034
289.52583
289.41076
289.31347
322.96659
315.17007
310.13017
306.49446
303.718
301.52467
299.75267
298.29769
297.08802
296.07213
295.21182
294.47811
293.84863
293.30587
292.83597
292.42782
292.0725
291.76271
291.49253
291.25708
291.05233
290.87499
290.72235
290.59218
290.48275
323.54911
316.19181
311.40932
307.92884
305.24133
303.09191
301.33305
299.87053
298.63987
297.59468
296.70037
295.9305
295.26441
294.68574
294.18139
293.74074
293.35513
293.01744
292.7218
292.46337
292.23811
292.04268
291.87432
291.73078
291.61023
324.01988
317.02141
312.45757
309.11849
306.52188
304.42785
302.69881
301.24767
300.01526
298.95919
298.04788
297.25712
296.56793
295.96516
295.43657
294.97219
294.56378
294.20453
293.88879
293.61182
293.36968
293.15906
292.97721
292.82186
292.69115
324.41443
317.71817
313.34271
310.1305
307.6208
305.58527
303.8937
302.46424
301.24167
300.18664
299.26997
298.4693
297.7671
297.14935
296.60467
296.12371
295.69875
295.32334
294.99209
294.70046
294.44463
294.22138
294.02802
293.86229
293.72232
324.75351
318.31766
314.10683
311.00838
308.57972
306.60195
304.9507
303.54816
302.34213
301.29563
300.38135
299.57843
298.87055
298.24465
297.69013
297.19826
296.76179
296.37464
296.03172
295.72869
295.4619
295.22825
295.02512
294.85028
294.70187
325.05024
318.8427
314.77754
311.78145
309.42761
307.50517
305.89455
304.52124
303.33543
302.30198
301.3951
300.59513
299.88674
299.25769
298.69803
298.1996
297.75557
297.36022
297.00874
296.69701
296.42155
296.17938
295.96796
295.78513
295.62905
325.31345
319.30866
315.3737
312.47018
310.18523
308.31497
306.74399
305.40051
304.23667
303.21888
302.32252
301.52894
300.8236
300.19496
299.63362
299.13189
298.68334
298.28256
297.92499
297.60674
297.32447
297.07534
296.85691
296.66705
296.50399
325.54933
319.7264
315.90877
313.08936
310.86778
309.04638
307.51337
306.19932
305.05806
304.05725
303.17325
302.38823
301.68834
301.06258
300.50204
299.99941
299.54861
299.14452
298.7828
298.45974
298.17217
297.91737
297.69297
297.49693
297.3275
325.76239
320.10384
316.39259
313.64993
311.4867
309.71087
308.21385
306.9283
305.80948
304.82613
303.95546
303.18031
302.4874
301.86618
301.30816
300.80637
300.35501
299.94919
299.58479
299.25828
298.96661
298.70717
298.47769
298.27618
298.10094
325.95602
320.44692
316.83265
314.16025
312.05081
310.31737
308.85425
307.59595
306.499
305.53307
304.67611
303.91153
303.2265
302.61091
302.05658
301.55683
301.10611
300.69975
300.3338
300.00486
299.71003
299.44679
299.21295
299.00658
298.82602
326.13283
320.76024
317.2347
314.62682
312.56704
310.87301
309.44168
308.20922
307.1333
306.18443
305.34115
304.58739
303.91074
303.30141
302.75152
302.25464
301.80541
301.39936
301.03267
300.70211
300.40485
300.13848
299.90087
299.69017
299.50473
326.29488
321.04742
317.60334
315.05485
313.04095
311.38352
309.98194
308.77386
307.71799
306.78556
305.95569
305.21274
304.54464
303.9419
303.3969
302.9034
302.45625
302.0511
301.6843
301.35269
301.05358
300.78461
300.54373
300.32913
300.13922
326.44383
321.31139
317.94227
315.44855
313.47708
311.85366
310.47984
309.29468
308.2578
307.3411
306.52419
305.79182
305.13224
304.53621
303.99632
303.50652
303.0618
302.65797
302.29148
301.95927
301.65874
301.3876
301.14386
300.92575
300.73173
326.58104
321.55456
318.25457
315.81141
313.87923
312.28738
310.93947
309.77578
308.75681
307.85504
307.05055
306.32841
305.67716
305.08779
304.55308
304.06712
303.62506
303.22282
302.85694
302.52446
302.22285
301.94988
301.7036
301.48232
301.28451
326.70766
321.77895
318.54279
316.14639
314.2506
312.68808
311.36428
310.22068
309.21853
308.33088
307.53819
306.82586
306.18267
305.59981
305.07023
304.58816
304.14886
303.74836
303.3833
303.05078
302.74834
302.47381
302.22529
302.00112
301.79981
326.82465
321.98629
318.80913
316.45601
314.59394
313.05865
311.75731
310.63247
309.64609
308.77172
307.99019
307.2872
306.65173
306.07516
305.55057
305.07235
304.63584
304.23717
303.87305
303.54066
303.23759
302.96171
302.7112
302.48439
302.27986
326.93285
322.17806
319.0555
316.74244
314.91164
313.40163
312.12119
311.01384
310.04221
309.18031
308.4093
307.71514
307.08701
306.51646
305.9967
305.52223
305.08848
304.69166
304.32856
303.99641
303.69285
303.41582
303.1635
302.93429
302.72677
327.033
322.35555
319.28354
317.00761
315.2058
313.71926
312.45825
311.3672
310.40935
309.55912
308.798
308.11216
307.49099
306.92616
306.41102
305.94015
305.50909
305.11412
304.75206
304.42023
304.11631
303.83826
303.58431
303.35289
303.14261
327.12574
322.51991
319.49473
317.2532
315.47829
314.01355
312.7706
311.69472
310.74972
309.9104
309.15853
308.48051
307.86589
307.30648
306.79573
306.32831
305.89985
305.50667
305.14567
304.81421
304.50999
304.23105
303.97563
303.74218
303.52935
327.21164
322.67217
319.69039
317.48075
315.73077
314.28626
313.0601
311.99834
311.0653
310.23616
309.49296
308.82227
308.2138
307.65949
307.15289
306.68876
306.26277
305.87132
305.51136
305.18029
304.87586
304.59612
304.33935
304.10405
303.88885
327.29123
322.81324
319.87167
317.6916
315.96476
314.53903
313.32845
312.27982
311.35792
310.53827
309.80315
309.13931
308.53661
307.9871
307.48441
307.02337
306.59974
306.20995
305.851
305.52034
305.21574
304.93529
304.67729
304.44027
304.22289
327.36496
322.94396
320.03967
317.887
316.18162
314.77331
313.57721
312.54077
311.62924
310.81843
310.09083
309.4334
308.83609
308.29107
307.79204
307.33393
306.91252
306.52431
306.16634
305.83608
305.53135
305.25026
304.99114
304.75253
304.53313
327.43328
323.06508
320.19534
318.06809
316.3826
314.99045
313.80778
312.78268
311.88077
311.07818
310.3576
309.70613
309.11386
308.57303
308.07745
307.62207
307.20275
306.81604
306.45899
306.12913
305.8243
305.54264
305.28249
305.04242
304.82114
327.49656
323.1773
320.33957
318.23587
316.56883
315.19167
314.02147
313.00688
312.11393
311.31897
310.60492
309.959
309.37142
308.83451
308.34214
307.88933
307.47198
307.08666
306.73051
306.40103
306.09612
305.81393
305.55284
305.31142
305.0884
327.55516
323.28124
320.47318
318.39131
316.74137
315.37811
314.21947
313.21464
312.32999
311.54213
310.83414
310.19339
309.61018
309.07692
308.58754
308.13712
307.72161
307.33762
306.9823
306.6532
306.34822
306.06556
305.8036
305.56093
305.3363
327.60941
323.37749
320.59692
318.53527
316.90117
315.5508
314.40288
313.4071
312.53015
311.74888
311.04653
310.41057
309.83142
309.30156
308.81497
308.36679
307.953
307.57024
307.2157
306.88696
306.58194
306.29884
306.03607
305.79226
305.56614
327.6596
323.46659
320.71147
318.66856
317.04914
315.7107
314.57271
313.58532
312.71552
311.94036
311.24323
310.61174
310.03636
309.50965
309.02566
308.57956
308.16737
307.78577
307.43196
307.10356
306.7985
306.515
306.2515
306.00662
305.77913
327.70603
323.54903
320.81748
318.79192
317.18609
315.8587
314.72992
313.7503
312.88712
312.11762
311.42534
310.79798
310.22611
309.70233
309.22075
308.77659
308.36589
307.98536
307.63224
307.30416
306.99907
306.71521
306.45103
306.20516
305.9764
327.74894
323.62527
320.91554
318.90603
317.31278
315.99562
314.87536
313.90294
313.04589
312.28165
311.59386
310.97033
310.4017
309.88064
309.40131
308.95894
308.54963
308.1701
307.81762
307.48984
307.18472
306.90053
306.63573
306.38896
306.15901
327.78857
323.69574
321.00619
319.01153
317.42992
316.12223
315.00986
314.04409
313.19272
312.43334
311.74971
311.12973
310.56411
310.04557
309.56832
309.12761
308.71959
308.341
307.98911
307.66161
307.35648
307.07198
306.8066
306.55899
306.32796
327.82515
323.76083
321.08993
319.10901
317.53816
316.23923
315.13415
314.17454
313.32843
312.57354
311.89376
311.27706
310.71423
310.19803
309.72269
309.28354
308.87671
308.49898
308.14765
307.82041
307.51527
307.23049
306.96458
306.71619
306.48416
327.85888
323.8209
321.16725
319.19901
317.63811
316.34728
315.24893
314.29502
313.45376
312.70302
312.02681
311.41315
310.85289
310.33886
309.8653
309.42758
309.02185
308.64493
308.29412
307.96712
307.66196
307.37693
307.11053
306.86143
306.62847
327.88995
323.87631
321.23857
319.28205
317.73034
316.44698
315.35485
314.40621
313.56943
312.82253
312.1496
311.53875
310.98088
310.46884
309.99693
309.56053
309.15583
308.77965
308.42932
308.10255
307.79738
307.51212
307.24526
306.99551
306.76169
327.91855
323.92735
321.3043
319.3586
317.81536
316.53889
315.45251
314.50872
313.67608
312.93273
312.26283
311.65458
311.09891
310.58871
310.11832
309.68314
309.27939
308.9039
308.55401
308.22745
307.92228
307.6368
307.36953
307.11918
306.88457
327.94484
323.97433
321.36482
319.42909
317.89366
316.62355
315.54246
314.60315
313.77432
313.03424
312.36715
311.76128
311.20764
310.69914
310.23016
309.79611
309.39323
309.01837
308.66889
308.34254
308.03736
307.75168
307.48404
307.23312
306.99779
327.96898
324.01752
321.42048
319.49392
317.96569
316.70143
315.62522
314.69003
313.86472
313.12765
312.46313
311.85947
311.3077
310.80077
310.33308
309.90007
309.498
309.12373
308.77463
308.44845
308.14328
307.85742
307.58942
307.338
307.102
327.9911
324.05716
321.4716
319.55348
318.03186
316.77299
315.70127
314.76986
313.94779
313.21348
312.55134
311.94971
311.39966
310.89417
310.42768
309.99563
309.59429
309.22056
308.87181
308.54581
308.24063
307.95461
307.68629
307.4344
307.19779
328.01135
324.0935
321.51847
319.6081
318.09257
316.83864
315.77104
314.84312
314.02401
313.29225
312.63229
312.03252
311.48405
310.97989
310.51449
310.08332
309.68267
309.30944
308.96101
308.63517
308.32999
308.04382
307.77521
307.52288
307.28571
328.02984
324.12675
321.56138
319.65812
318.14816
316.89877
315.83494
314.91022
314.09384
313.36441
312.70645
312.10839
311.56137
311.05843
310.59403
310.16367
309.76365
309.39087
309.04274
308.71704
308.41186
308.12556
307.85668
307.60396
307.36628
328.04668
324.15711
321.60057
319.70383
318.19897
316.95373
315.89336
314.97156
314.15768
313.43038
312.77425
312.17776
311.63206
311.13024
310.66676
310.23715
309.8377
309.46534
309.11748
308.79192
308.48674
308.20031
307.93119
307.67811
307.43996
328.06199
324.18475
321.6363
319.74549
318.24529
317.00385
315.94664
315.02751
314.2159
313.49057
312.83611
312.24104
311.69656
311.19576
310.73312
310.30418
309.90526
309.53329
309.18568
308.86023
308.55506
308.26852
307.99917
307.74577
307.50719
328.07586
324.20986
321.66876
319.78338
318.28742
317.04943
315.9951
315.07841
314.26887
313.54531
312.89238
312.29862
311.75524
311.25537
310.7935
310.36518
309.96674
309.59511
309.24773
308.9224
308.61723
308.33059
308.06104
307.80734
307.56837
328.08838
324.23259
321.69817
319.8177
318.32561
317.09075
316.03904
315.12455
314.31691
313.59496
312.94341
312.35084
311.80846
311.30943
310.84826
310.42051
310.0225
309.6512
309.30403
308.9788
308.67363
308.38689
308.11717
307.8632
307.62388
328.09963
324.25308
321.72471
319.84869
318.36008
317.12807
316.07872
315.16624
314.3603
313.63982
312.98952
312.39801
311.85655
311.35829
310.89775
310.4705
310.07289
309.70188
309.3549
309.02976
308.7246
308.43778
308.16789
307.91368
307.67404
328.10968
324.27146
321.74853
319.87653
318.39107
317.16161
316.1144
315.20371
314.39932
313.68015
313.03099
312.44045
311.89981
311.40223
310.94226
310.51547
310.11822
309.74747
309.40066
309.07561
308.77045
308.48356
308.21353
307.9591
307.71917
328.11861
324.28784
321.76981
319.9014
318.41875
317.19159
316.14629
315.23722
314.4342
313.71622
313.06807
312.4784
311.93849
311.44154
310.98208
310.55571
310.15877
309.78826
309.4416
309.11663
308.81147
308.52452
308.25435
307.99973
307.75956
328.12647
324.30235
321.78866
319.92345
318.44332
317.21821
316.1746
315.26698
314.46519
313.74826
313.10101
312.51211
311.97286
311.47646
311.01746
310.59145
310.1948
309.8245
309.47798
309.15308
308.84793
308.56092
308.29064
308.03584
307.79544
328.13332
324.31507
321.80522
319.94284
318.46493
317.24162
316.19952
315.29317
314.49246
313.77647
313.13002
312.5418
312.00313
311.50721
311.04862
310.62294
310.22655
309.85642
309.51003
309.18519
308.88005
308.59299
308.32261
308.06766
307.82706
328.1392
324.32609
321.8196
319.9597
318.48372
317.26199
316.22121
315.31597
314.51622
313.80103
313.15528
312.56766
312.0295
311.53401
311.07577
310.65037
310.25421
309.88425
309.53796
309.21318
308.90804
308.62094
308.35047
308.0954
307.85462
328.14417
324.33549
321.8319
319.97413
318.49983
317.27946
316.23982
315.33554
314.5366
313.82212
313.17697
312.58987
312.05215
311.55703
311.09909
310.67394
310.27797
309.90815
309.56196
309.23723
308.93209
308.64496
308.37442
308.11923
307.87831
328.14826
324.34333
321.8422
319.98625
318.51336
317.29415
316.25547
315.352
314.55376
313.83988
313.19524
312.60858
312.07123
311.57642
311.11875
310.69381
310.298
309.9283
309.58219
309.2575
308.95238
308.66521
308.39461
308.13933
307.89829
328.1515
324.34968
321.85059
319.99613
318.52442
317.30616
316.26828
315.36549
314.56782
313.85443
313.21022
312.62392
312.08688
311.59233
311.13487
310.71011
310.31444
309.94484
309.5988
309.27414
308.96903
308.68184
308.41119
308.15583
307.91469
328.15393
324.35459
321.85712
320.00385
318.53308
317.31559
316.27834
315.37609
314.57888
313.86589
313.22202
312.636
312.09921
311.60487
311.14759
310.72296
310.3274
309.95789
309.6119
309.28728
308.98217
308.69497
308.42428
308.16886
307.92764
328.15557
324.3581
321.86185
320.00948
318.53942
317.3225
316.28574
315.38389
314.58703
313.87434
313.23072
312.64493
312.10832
311.61415
311.15699
310.73248
310.337
309.96755
309.62161
309.29701
308.9919
308.70469
308.43397
308.17852
307.93724
328.15643
324.36023
321.86482
320.01307
318.54349
317.32697
316.29053
315.38896
314.59234
313.87985
313.23641
312.65077
312.1143
311.62023
311.16316
310.73872
310.34331
309.9739
309.62799
309.30341
308.99831
308.7111
308.44036
308.18488
307.94356
328.15653
324.36103
321.86607
320.01466
318.54534
317.32903
316.29277
315.39135
314.59487
313.88249
313.23914
312.65359
312.11719
311.62318
311.16617
310.74177
310.34639
309.97701
309.63112
309.30655
309.00146
308.71425
308.44351
308.18802
307.94668
328.15589
324.3605
321.86562
320.01426
318.54499
317.32872
316.29249
315.39111
314.59464
313.88228
313.23896
312.65342
312.11703
311.62304
311.16604
310.74166
310.34629
309.97692
309.63104
309.30648
309.0014
308.71419
308.44345
308.18797
307.94664
328.1545
324.35866
321.86348
320.01191
318.54247
317.32606
316.28972
315.38823
314.59169
313.87926
313.23588
312.65029
312.11387
311.61984
311.16282
310.73841
310.34303
309.97366
309.62777
309.30321
308.99814
308.71094
308.44022
308.18476
307.94345
328.15237
324.35551
321.85967
320.0076
318.53777
317.32105
316.28445
315.38275
314.58602
313.87343
313.22992
312.64421
312.10769
311.61359
311.1565
310.73204
310.33662
309.96722
309.62132
309.29676
308.99169
308.70451
308.43382
308.17839
307.93713
328.1495
324.35105
321.85416
320.00133
318.5309
317.31369
316.27668
315.37464
314.57761
313.86478
313.22105
312.63517
312.09849
311.60426
311.14707
310.72253
310.32705
309.95761
309.61168
309.28712
308.98206
308.6949
308.42425
308.16887
307.92767
328.14588
324.34526
321.84695
319.99307
318.52182
317.30395
316.26639
315.36387
314.56645
313.85328
313.20926
312.62313
312.08625
311.59184
311.13451
310.70986
310.31429
309.94479
309.59883
309.27424
308.96919
308.68206
308.41146
308.15615
307.91503
328.1415
324.33812
321.838
319.9828
318.51051
317.29179
316.25353
315.35042
314.55249
313.83889
313.1945
312.60806
312.07091
311.57628
311.11876
310.69397
310.29829
309.92871
309.5827
309.2581
308.95305
308.66596
308.39541
308.14018
307.89918
328.13633
324.3296
321.82729
319.97047
318.49692
317.27717
316.23805
315.33422
314.53568
313.82155
313.17671
312.58988
312.05241
311.55751
311.09977
310.6748
310.27898
309.90931
309.56324
309.23861
308.93357
308.64652
308.37604
308.12091
307.88003
328.13037
324.31967
321.81477
319.95604
318.48099
317.26002
316.21989
315.3152
314.51593
313.80118
313.15581
312.56852
312.03067
311.53544
311.07744
310.65226
310.25628
309.88649
309.54035
309.2157
308.91067
308.62366
308.35326
308.09825
307.85752
328.12359
324.30829
321.80037
319.93943
318.46264
317.24027
316.19896
315.29328
314.49316
313.77768
313.1317
312.54389
312.00558
311.50999
311.05168
310.62625
310.23009
309.86016
309.51394
309.18925
308.88423
308.59727
308.32697
308.07209
307.83153
328.11595
324.2954
321.78404
319.92057
318.4418
317.21781
316.17516
315.26835
314.46726
313.75096
313.10426
312.51585
311.97704
311.48102
311.02236
310.59665
310.20027
309.83019
309.48387
309.15914
308.85413
308.56723
308.29704
308.0423
307.80194
328.10743
324.28093
321.7657
319.89936
318.41835
317.19254
316.14837
315.24028
314.43811
313.72087
313.07337
312.48428
311.94489
311.44839
310.98934
310.56331
310.16669
309.79644
309.45001
309.12522
308.82023
308.53339
308.26332
308.00875
307.7686
328.09798
324.26483
321.74524
319.8757
318.39219
317.16433
316.11846
315.20894
314.40555
313.68726
313.03887
312.44902
311.90899
311.41194
310.95245
310.52607
310.12917
309.75873
309.41217
309.08734
308.78235
308.49559
308.22565
307.97127
307.73136
328.08755
324.24701
321.72258
319.84948
318.36317
317.13305
316.08529
315.17417
314.36942
313.64997
313.00059
312.40989
311.86914
311.3715
310.91151
310.48474
310.08754
309.71687
309.37018
309.04529
308.74031
308.45363
308.18383
307.92967
307.69003
328.0761
324.22738
321.69759
319.82055
318.33115
317.09852
316.04867
315.13579
314.32954
313.60881
312.95833
312.36669
311.82514
311.32684
310.86631
310.4391
310.04157
309.67067
309.32383
308.99886
308.6939
308.40731
308.13768
307.88374
307.6444
328.06357
324.20583
321.67015
319.78877
318.29597
317.06058
316.00843
315.0936
314.28569
313.56355
312.91186
312.3192
311.77678
311.27775
310.81662
310.38894
309.99104
309.61987
309.27287
308.94783
308.64288
308.35639
308.08693
307.83325
307.59424
328.0499
324.18227
321.64011
319.75397
318.25744
317.01901
315.96434
315.04739
314.23767
313.51397
312.86096
312.26717
311.7238
311.22397
310.76218
310.33398
309.93568
309.56423
309.21704
308.89193
308.587
308.30061
308.03135
307.77795
307.53929
328.03501
324.15656
321.60732
319.71597
318.21536
316.97361
315.91618
314.9969
314.1852
313.45981
312.80535
312.21032
311.66592
311.16522
310.70272
310.27395
309.87521
309.50345
309.15607
308.83087
308.52596
308.23969
307.97064
307.71754
307.47928
328.01884
324.12856
321.57159
319.67455
318.16949
316.92413
315.86369
314.94187
314.128
313.40077
312.74474
312.14837
311.60283
311.10119
310.63792
310.20853
309.80932
309.43722
309.08963
308.76434
308.45945
308.17332
307.9045
307.65174
307.4139
328.00128
324.09814
321.53275
319.62951
318.1196
316.87029
315.80658
314.882
314.06579
313.33655
312.67881
312.08099
311.53422
311.03155
310.56744
310.13738
309.73767
309.3652
309.01739
308.69201
308.38715
308.10116
307.8326
307.58019
307.34282
327.98226
324.06511
321.49056
319.58059
318.0654
316.81181
315.74454
314.81696
313.9982
313.26679
312.60719
312.0078
311.4597
310.95593
310.49092
310.06014
309.65988
309.28702
308.93897
308.61349
308.30867
308.02284
307.75456
307.50255
307.26568
327.96165
324.02929
321.44479
319.52751
318.0066
316.74836
315.67723
314.7464
313.92488
313.19112
312.52952
311.92842
311.37889
310.87393
310.40795
309.9764
309.57555
309.20228
308.85398
308.5284
308.22361
307.93796
307.66999
307.41841
307.18209
327.93936
323.99049
321.39519
319.46997
317.94285
316.67958
315.60427
314.66991
313.84541
313.10911
312.44535
311.84242
311.29135
310.78511
310.31809
309.88571
309.48424
309.11054
308.76197
308.43629
308.13156
307.84611
307.57847
307.32736
307.09163
327.91525
323.94847
321.34146
319.40763
317.87379
316.60506
315.52523
314.58707
313.75935
313.02031
312.35422
311.74933
311.19661
310.689
310.22087
309.78762
309.38549
309.01133
308.66249
308.33671
308.03204
307.74681
307.47955
307.22894
306.99386
327.88917
323.90297
321.28327
319.34012
317.799
316.52437
315.43965
314.49739
313.6662
312.92421
312.25563
311.64862
311.09414
310.58508
310.11577
309.68159
309.27877
308.90413
308.55502
308.22914
307.92457
307.63959
307.37273
307.12268
306.88829
327.86096
323.85372
321.22027
319.26702
317.71801
316.43701
315.34701
314.40033
313.5654
312.82026
312.149
311.53975
310.98339
310.47279
310.00223
309.56709
309.16354
308.78842
308.43902
308.11307
307.8086
307.52391
307.2575
307.00806
306.77442
327.83045
323.80039
321.15203
319.18785
317.63032
316.34242
315.24674
314.2953
313.45636
312.70783
312.03372
311.42208
310.86373
310.3515
309.87964
309.44349
309.03921
308.66359
308.31392
307.98792
307.68359
307.39922
307.1333
306.88453
306.65171
327.79742
323.74261
321.07809
319.10207
317.53531
316.23998
315.13817
314.18161
313.33838
312.58625
311.9091
311.29493
310.73449
310.22056
309.74735
309.31017
308.90513
308.52902
308.17911
307.85308
307.54893
307.26493
306.99957
306.75152
306.51959
327.76162
323.67995
320.99791
319.00905
317.43232
316.12896
315.02055
314.05852
313.21071
312.45473
311.77438
311.15755
310.59493
310.07924
309.60464
309.16641
308.76063
308.38405
308.03392
307.70791
307.40399
307.12043
306.85568
306.60843
306.37747
327.72278
323.61191
320.91083
318.90807
317.32055
316.00853
314.89304
313.92514
313.07245
312.31241
311.6287
311.00909
310.44422
309.92673
309.45074
309.01147
308.60497
308.22797
307.87768
307.55174
307.24812
306.96506
306.70102
306.45463
306.22472
327.68054
323.53789
320.81611
318.79825
317.19906
315.87771
314.75462
313.78048
312.92262
312.15832
311.4711
310.84864
310.28147
309.76217
309.2848
308.84453
308.43738
308.06002
307.70964
307.38387
307.08064
306.79817
306.53491
306.28949
306.06071
327.63449
323.45714
320.71281
318.67854
317.06672
315.73533
314.60412
313.62335
312.76007
311.99133
311.3005
310.67514
310.10568
309.58462
309.10593
308.66475
308.25703
307.87942
307.52907
307.20356
306.90083
306.61907
306.3567
306.11235
305.8848
327.5841
323.36875
320.59977
318.54764
316.92214
315.57997
314.44011
313.45236
312.58343
311.81014
311.11568
310.48744
309.91576
309.39302
308.91315
308.47119
308.06306
307.68534
307.33517
307.01008
306.70799
306.42706
306.16571
305.92254
305.69634
327.52867
323.2715
320.47548
318.40389
316.7636
315.40987
314.26088
313.26585
312.39113
311.61327
310.91522
310.28423
309.71049
309.18628
308.70543
308.2629
307.85456
307.47695
307.12715
306.80268
306.50139
306.22146
305.96127
305.71943
305.49468
327.46728
323.16379
320.33797
318.24509
316.58882
315.22281
314.06426
313.06178
312.18128
311.39896
310.69754
310.06406
309.48855
308.96317
308.48165
308.03887
307.63062
307.2534
306.90423
306.5806
306.28034
306.0016
305.74275
305.50237
305.27921
327.39857
323.04331
320.18444
318.06827
316.39483
315.0159
313.84756
312.83768
311.95162
311.1652
310.46083
309.82532
309.24851
308.72243
308.24069
307.79808
307.39031
307.01383
306.66562
306.34313
306.04416
305.76685
305.50953
305.27079
305.04936
327.32051
322.90663
320.01083
317.86919
316.1775
314.78532
313.60733
312.59048
311.69948
310.90965
310.20306
309.56625
308.98886
308.46274
307.98138
307.5395
307.13273
306.75744
306.4106
306.0896
305.79225
305.51662
305.26106
305.02415
304.80461
327.22967
322.74812
319.81079
317.64158
315.93108
314.52597
313.33918
312.31647
311.42172
310.62971
309.92207
309.28504
308.70804
308.18278
307.70262
307.26218
306.85703
306.48351
306.13852
305.81944
305.52405
305.25042
304.99688
304.762
304.54451
327.11936
322.55759
319.57368
317.37576
315.6473
314.23107
313.03764
312.01126
311.11487
310.32257
309.61558
308.97985
308.40458
307.88134
307.40339
306.96527
306.56251
306.1914
305.84883
305.53216
305.23914
304.96785
304.71662
304.484
304.26873
326.97323
322.31392
319.2805
317.05653
315.3146
313.89198
312.69627
311.67006
310.7753
309.9855
309.28151
308.64905
308.0772
307.5574
307.08286
306.6481
306.24861
305.88067
305.54115
305.22742
304.93724
304.66866
304.42004
304.18992
303.97705
326.73426
321.967
318.8967
316.66131
314.91828
313.49903
312.3086
311.28843
310.39991
309.61628
308.91824
308.29146
307.72499
307.21027
306.74052
306.31027
305.91501
305.55105
305.21528
304.90507
304.61819
304.35273
304.10703
303.87966
303.66938
)
;

boundaryField
{
    rock_inlet
    {
        type            externalWallHeatFluxTemperature;
        mode            coefficient;
        kappaMethod     solidThermo;
        h               constant 10;
        Ta              uniform 283.15;
        qr              none;
        refValue        uniform 283.15;
        refGradient     uniform 0;
        valueFraction   nonuniform List<scalar> 
25
(
0.25
0.25
0.25
0.25
0.25
0.25
0.25
0.25
0.25
0.25
0.25
0.25
0.25
0.25
0.25
0.25
0.25
0.25
0.25
0.25
0.25
0.25
0.25
0.25
0.25
)
;
        value           nonuniform List<scalar> 
25
(
307.06364
298.79426
294.51532
291.96793
290.30999
289.16129
288.32758
287.70049
287.21532
286.83133
286.52174
286.26831
286.0582
285.88218
285.73341
285.60676
285.49832
285.405
285.32437
285.25445
285.19358
285.14032
285.0933
285.05108
285.0119
)
;
    }
    rock_outlet
    {
        type            externalWallHeatFluxTemperature;
        mode            coefficient;
        kappaMethod     solidThermo;
        h               constant 0.2;
        Ta              uniform 279.15;
        qr              none;
        refValue        uniform 279.15;
        refGradient     uniform 0;
        valueFraction   nonuniform List<scalar> 
25
(
0.0066225166
0.0066225166
0.0066225166
0.0066225166
0.0066225166
0.0066225166
0.0066225166
0.0066225166
0.0066225166
0.0066225166
0.0066225166
0.0066225166
0.0066225166
0.0066225166
0.0066225166
0.0066225166
0.0066225166
0.0066225166
0.0066225166
0.0066225166
0.0066225166
0.0066225166
0.0066225166
0.0066225166
0.0066225166
)
;
        value           nonuniform List<scalar> 
25
(
326.41913
321.68344
318.63348
316.41289
314.68141
313.27155
312.08901
311.0756
310.19296
309.41451
308.7211
308.09847
307.53575
307.02444
306.55781
306.1304
305.73776
305.37621
305.04266
304.73451
304.44953
304.18582
303.94175
303.71589
303.507
)
;
    }
    rock_outer
    {
        type            externalWallHeatFluxTemperature;
        mode            coefficient;
        kappaMethod     solidThermo;
        h               constant 0.2;
        Ta              uniform 279.15;
        qr              none;
        refValue        uniform 279.15;
        refGradient     uniform 0;
        valueFraction   nonuniform List<scalar> 
100
(
0.003954211
0.003954211
0.003954211
0.003954211
0.003954211
0.003954211
0.003954211
0.003954211
0.003954211
0.003954211
0.003954211
0.003954211
0.003954211
0.003954211
0.003954211
0.003954211
0.003954211
0.003954211
0.003954211
0.003954211
0.003954211
0.003954211
0.003954211
0.003954211
0.003954211
0.003954211
0.003954211
0.003954211
0.003954211
0.003954211
0.003954211
0.003954211
0.003954211
0.003954211
0.003954211
0.003954211
0.003954211
0.003954211
0.003954211
0.003954211
0.003954211
0.003954211
0.003954211
0.003954211
0.003954211
0.003954211
0.003954211
0.003954211
0.003954211
0.003954211
0.003954211
0.003954211
0.003954211
0.003954211
0.003954211
0.003954211
0.003954211
0.003954211
0.003954211
0.003954211
0.003954211
0.003954211
0.003954211
0.003954211
0.003954211
0.003954211
0.003954211
0.003954211
0.003954211
0.003954211
0.003954211
0.003954211
0.003954211
0.003954211
0.003954211
0.003954211
0.003954211
0.003954211
0.003954211
0.003954211
0.003954211
0.003954211
0.003954211
0.003954211
0.003954211
0.003954211
0.003954211
0.003954211
0.003954211
0.003954211
0.003954211
0.003954211
0.003954211
0.003954211
0.003954211
0.003954211
0.003954211
0.003954211
0.003954211
0.003954211
)
;
        value           nonuniform List<scalar> 
100
(
285.6069
286.84742
288.07352
289.27328
290.43794
291.56096
292.6376
293.66469
294.64038
295.56389
296.43537
297.25562
298.026
298.74822
299.42424
300.05623
300.64639
301.19698
301.71025
302.1884
302.63354
303.04774
303.43295
303.79103
304.12374
304.43275
304.71963
304.98584
305.23276
305.46168
305.67383
305.87032
306.05221
306.22049
306.37607
306.51981
306.65251
306.7749
306.88768
306.99147
307.08688
307.17446
307.2547
307.32809
307.39506
307.456
307.51129
307.56125
307.60621
307.64643
307.68217
307.71367
307.74112
307.76471
307.78461
307.80095
307.81384
307.8234
307.82971
307.83281
307.83277
307.8296
307.8233
307.81388
307.80129
307.7855
307.76643
307.744
307.71811
307.68864
307.65544
307.61835
307.57718
307.53173
307.48176
307.42703
307.36726
307.30214
307.23134
307.1545
307.07124
306.98114
306.88376
306.77861
306.66519
306.54297
306.41137