/*--------------------------------*- C++ -*----------------------------------*\
| =========                 |                                                 |
| \\      /  F ield         | OpenFOAM: The Open Source CFD Toolbox           |
|  \\    /   O peration     | Version:  2506                                  |
|   \\  /    A nd           | Website:  www.openfoam.com                      |
|    \\/     M anipulation  |                                                 |
\*---------------------------------------------------------------------------*/
FoamFile
{
    version     2.0;
    format      ascii;
    arch        "LSB;label=32;scalar=64";
    class       volScalarField;
    location    "2000/rock";
    object      T;
}
// * * * * * * * * * * * * * * * * * * * * * * * * * * * * * * * * * * * * * //

dimensions      [0 0 0 1 0 0 0];

internalField   nonuniform List<scalar> 
16000
(
317.54539
306.57579
300.61348
296.87815
294.32675
292.47998
291.08622
290.00052
289.13351
288.42711
287.84198
287.35056
286.93299
286.57461
286.26438
285.99384
285.7564
285.54686
285.36105
285.19561
285.04779
284.91534
284.79637
284.68931
284.59282
284.50578
284.42722
284.35631
284.29231
284.2346
284.18262
284.13586
284.09386
284.05621
284.0225
283.99231
283.96521
283.94069
283.91805
283.89619
320.1994
309.23954
302.86269
298.74981
295.89942
293.81896
292.2405
291.00646
290.01842
289.21182
288.54269
287.98005
287.5015
287.09046
286.73442
286.42376
286.15098
285.91015
285.69653
285.50627
285.33624
285.18385
285.04694
284.92372
284.81265
284.71244
284.62199
284.54034
284.46665
284.40019
284.34034
284.2865
284.23815
284.19482
284.15604
284.12135
284.09027
284.06225
284.0366
284.01242
321.70342
311.18566
304.7037
300.37723
297.31657
295.0535
293.32155
291.95925
290.86364
289.9662
289.21975
288.59079
288.05492
287.59402
287.19433
286.84524
286.53847
286.26744
286.02689
285.81254
285.62089
285.44906
285.29463
285.1556
285.03025
284.91714
284.81502
284.72282
284.63961
284.56457
284.49698
284.43619
284.38162
284.33274
284.28903
284.24999
284.21512
284.18385
284.15557
284.12956
322.65627
312.63444
306.20355
301.7784
298.58085
296.18158
294.32618
292.85566
291.66626
290.68774
289.87103
289.18097
288.59173
288.08398
287.64299
287.25733
286.91806
286.61803
286.35152
286.11387
285.90127
285.71055
285.53907
285.38463
285.24534
285.11961
285.00608
284.90355
284.81101
284.72755
284.65238
284.58479
284.52414
284.46984
284.42134
284.37811
284.33963
284.30535
284.27471
284.24714
323.31686
313.74375
307.43209
302.98125
299.70243
297.20603
295.25424
293.69442
292.42468
291.37478
290.49499
289.74921
289.11071
288.55929
288.07949
287.65924
287.28904
286.96129
286.66988
286.4098
286.17696
285.96796
285.77994
285.61051
285.45765
285.31962
285.19494
285.08233
284.98067
284.88898
284.8064
284.73216
284.66558
284.60601
284.55287
284.50561
284.4637
284.4266
284.3938
284.36483
323.80676
314.6179
308.4489
304.01561
300.69523
298.13285
296.10792
294.47587
293.13838
292.02649
291.09067
290.29456
289.61095
289.01912
288.50307
288.05028
287.65082
287.2967
286.98149
286.69991
286.4476
286.22095
286.01692
285.83298
285.66694
285.51695
285.38143
285.25899
285.14843
285.04871
284.95891
284.87819
284.80582
284.74113
284.6835
284.63237
284.58717
284.54741
284.51261
284.48234
324.18824
315.32482
309.30078
304.90902
301.57429
298.96986
296.89098
295.20163
293.80781
292.64269
291.65761
290.81642
290.09182
289.46283
288.91315
288.42992
288.00289
287.6238
287.28594
286.98381
286.71283
286.46921
286.24976
286.05178
285.87298
285.7114
285.56534
285.43334
285.31414
285.2066
285.10976
285.02274
284.94475
284.8751
284.81313
284.75825
284.70993
284.66764
284.63095
284.59946
324.49603
315.90929
310.02336
305.68527
302.35419
299.72552
297.60816
295.87416
294.43415
293.22382
292.1958
291.31455
290.55295
289.89001
289.30928
288.79771
288.34484
287.94221
287.58289
287.26119
286.97237
286.71249
286.4782
286.2667
286.07558
285.90277
285.74651
285.60524
285.47764
285.36252
285.25884
285.16569
285.08226
285.00779
284.94162
284.88315
284.83182
284.78713
284.74864
284.71599
324.75098
316.40152
310.64344
306.36412
303.04822
300.4083
298.26463
296.49653
295.01911
293.77074
292.70561
291.789
290.99422
290.30043
289.69118
289.15336
288.67637
288.25162
287.87203
287.53177
287.22596
286.95053
286.70203
286.47753
286.27454
286.0909
285.92477
285.77454
285.6388
285.51632
285.40602
285.30694
285.21821
285.13909
285.06887
285.00693
284.95272
284.90573
284.86553
284.83175
324.96646
316.82249
311.18119
306.96173
303.66808
301.02619
298.86565
297.07208
295.56475
294.28467
293.18768
292.24008
291.4157
290.69402
290.05871
289.49667
288.99726
288.55181
288.15314
287.79533
287.47339
287.18314
286.92104
286.68409
286.46969
286.27563
286.09999
285.94109
285.79749
285.66789
285.55118
285.44635
285.35252
285.26889
285.19476
285.12949
285.0725
285.0233
284.98146
284.9466
325.15149
317.18716
311.65199
307.49118
304.22386
301.58652
299.41632
297.60426
296.07332
294.76704
293.64291
292.66828
291.81765
291.07087
290.41184
289.82755
289.30737
288.84261
288.42606
288.05169
287.71447
287.41014
287.13509
286.88622
286.66089
286.45682
286.27202
286.10478
285.95358
285.81711
285.69421
285.58383
285.48506
285.39709
285.31918
285.25069
285.19104
285.13972
285.09629
285.06038
325.31243
317.50646
312.06761
307.96306
304.72417
302.09585
299.92144
298.09647
296.54719
295.21946
294.07234
293.07427
292.20045
291.43119
290.75066
290.14598
289.60664
289.12394
288.69065
288.30073
287.94908
287.63141
287.34403
287.08379
286.84801
286.63434
286.44075
286.26548
286.10698
285.96389
285.835
285.71927
285.61574
285.52357
285.44203
285.37045
285.30823
285.25487
285.20991
285.17299
325.45389
317.78861
312.43723
308.38596
305.1763
302.55999
300.38544
298.55198
296.98872
295.64358
294.47712
293.45882
292.56461
291.77529
291.07533
290.45206
289.89508
289.39574
288.94685
288.54235
288.17712
287.84682
287.54774
287.2767
287.03094
286.80809
286.60608
286.4231
286.25758
286.10811
285.97347
285.85258
285.74446
285.64826
285.56321
285.48865
285.42396
285.36863
285.3222
285.28429
325.57935
318.03987
312.76808
308.7669
305.58642
302.98404
300.81235
298.9739
297.40022
296.0411
294.85847
293.8228
292.91073
292.10356
291.3861
290.74592
290.17275
289.65805
289.19464
288.7765
288.39851
288.05631
287.74616
287.46484
287.20958
286.97797
286.7679
286.57755
286.40528
286.24969
286.10953
285.98367
285.87113
285.77105
285.68263
285.60519
285.53813
285.48091
285.43306
285.39419
325.69146
318.26513
313.06593
309.11164
305.95975
303.37245
301.20581
299.36507
297.7839
296.4137
295.21764
294.1671
293.23945
292.41645
291.68328
291.02776
290.43978
289.9109
289.43404
289.00318
288.61323
288.25982
287.9392
287.64815
287.38387
287.14391
286.92615
286.72873
286.55002
286.38856
286.24308
286.11246
285.99568
285.89186
285.8002
285.72
285.65065
285.5916
285.54238
285.50259
325.79231
318.46827
313.33544
309.42492
306.30072
303.72908
301.56905
299.72815
298.14186
296.763
295.55585
294.49268
293.55146
292.71448
291.96724
291.29784
290.69633
290.15442
289.66509
289.22239
288.82125
288.45732
288.12684
287.82658
287.55374
287.30584
287.08076
286.8766
286.69171
286.52464
286.37407
286.23887
286.11802
286.01061
285.91584
285.83299
285.76144
285.70063
285.65009
285.6094
325.88355
318.65241
313.58041
309.71071
306.61309
304.05733
301.90499
300.06555
298.47604
297.09055
295.87434
294.80046
293.84749
292.99817
292.23837
291.55643
290.94261
290.38874
289.8879
289.4342
289.02261
288.64881
288.30905
288.0001
287.71915
287.46372
287.23167
287.02109
286.83031
286.65786
286.50243
286.36285
286.23809
286.12724
286.02948
285.94408
285.87042
285.80792
285.7561
285.71453
325.96652
318.82008
313.80398
309.97232
306.90008
304.36013
302.21619
300.37945
298.78828
297.39783
296.17429
295.09138
294.12826
293.26809
292.4971
291.80386
291.17885
290.61402
290.10256
289.63866
289.21735
288.83431
288.48584
288.1687
287.88008
287.61751
287.37884
287.16215
286.96576
286.78818
286.62809
286.48432
286.35583
286.24168
286.14105
286.05321
285.97752
285.91339
285.86034
285.81793
326.0423
318.97336
314.00874
310.21256
307.16445
304.64004
302.50497
300.67185
299.08024
297.68624
296.45682
295.36635
294.39449
293.52481
292.74386
292.04047
291.40529
290.83045
290.30922
289.83589
289.40552
289.01385
288.65721
288.33237
288.03652
287.7672
287.52225
287.29975
287.09802
286.91555
286.75102
286.60325
286.47118
286.35387
286.2505
286.16032
286.08267
286.01698
285.96274
285.91951
326.11178
319.114
314.19689
310.43379
307.40858
304.89933
302.77335
300.94454
299.35347
297.95708
296.72303
295.62626
294.64689
293.7689
292.97911
292.26661
291.62223
291.03824
290.50804
290.02598
289.58721
289.1875
288.8232
288.49112
288.18846
287.91277
287.66187
287.43386
287.22705
287.03993
286.87117
286.71958
286.58409
286.46377
286.35777
286.26534
286.18582
286.11863
286.06325
286.01922
326.17573
319.24343
314.37028
310.63806
307.63452
305.13995
303.02315
301.19915
299.60938
298.21156
296.97393
295.87195
294.88618
294.00092
293.20331
292.48264
291.82994
291.23762
290.69919
290.20909
289.76252
289.35532
288.98387
288.645
288.33593
288.05422
287.7977
287.56448
287.35285
287.16131
286.98852
286.83328
286.69453
286.57133
286.46282
286.36824
286.28693
286.21829
286.16181
286.11701
326.23475
319.3629
314.53049
310.8271
307.84405
305.36364
303.256
301.43714
299.84929
298.4508
297.21048
296.10424
295.11302
294.22145
293.41692
292.68894
292.02873
291.42882
290.88285
290.38533
289.93155
289.51739
289.13926
288.79403
288.47894
288.19156
287.92974
287.69158
287.47538
287.27964
287.10302
286.94432
286.80247
286.67651
286.5656
286.46897
286.38594
286.31592
286.25837
286.21284
326.28937
319.47345
314.67886
311.00243
308.03874
305.57193
303.47333
301.65983
300.07436
298.67586
297.43359
296.3239
295.32807
294.43102
293.62038
292.88589
292.2189
291.6121
291.05922
290.55489
290.09443
289.6738
289.28944
288.93827
288.61753
288.32482
288.058
287.81517
287.59465
287.39493
287.21467
287.05268
286.90787
286.77929
286.66609
286.56749
286.48283
286.41148
286.35291
286.30665
326.34005
319.57597
314.81657
311.16535
308.21995
305.76616
303.67643
301.86843
300.2857
298.88768
297.64411
296.53166
295.53195
294.63016
293.81415
293.07384
292.40075
291.78769
291.22851
290.71791
290.25129
289.82466
289.43451
289.07777
288.75175
288.45403
288.1825
287.93527
287.71066
287.50717
287.32346
287.15833
287.01071
286.87964
286.76425
286.66378
286.57755
286.50493
286.44538
286.39843
326.38716
319.67125
314.94462
311.31702
308.38888
305.94756
303.86647
302.06401
300.48428
299.08718
297.84281
296.72821
295.72525
294.81938
293.99865
293.25317
292.57459
291.95586
291.39093
290.87457
290.40226
289.97007
289.57454
289.21262
288.88164
288.57922
288.30326
288.05188
287.82341
287.61635
287.42937
287.26127
287.11098
286.97754
286.86007
286.75782
286.67008
286.59624
286.53576
286.48814
326.43104
319.75996
315.06391
311.45844
308.5466
306.11717
304.04447
302.24755
300.67102
299.27516
298.03045
296.9142
295.90856
294.99918
294.17431
293.42423
292.74072
292.11686
291.54668
291.02504
290.5475
290.11016
289.70962
289.34287
289.00726
288.70044
288.42031
288.16503
287.93291
287.72249
287.53241
287.3615
287.20868
287.07297
286.95353
286.84957
286.7604
286.6854
286.62401
286.57575
326.47197
319.84268
315.1752
311.5905
308.69404
306.27595
304.21138
302.41995
300.84674
299.4524
298.2077
297.09024
296.0824
295.17002
294.34154
293.58737
292.89945
292.27094
291.69598
291.16951
290.68715
290.24505
289.83987
289.46862
289.12868
288.81773
288.5337
288.27474
288.0392
287.82559
287.63259
287.45901
287.30378
287.16594
287.04462
286.93904
286.8485
286.77239
286.71014
286.66125
326.51021
319.91994
315.27918
311.71398
308.83205
306.42476
304.36803
302.58201
301.0122
299.61958
298.37521
297.25691
296.24728
295.33235
294.50072
293.74294
293.05106
292.41835
291.83904
291.30815
290.82136
290.37487
289.96537
289.58994
289.24597
288.93117
288.64347
288.38106
288.14228
287.92567
287.72991
287.55381
287.39631
287.25643
287.13332
287.0262
286.93437
286.85719
286.79411
286.74463
326.54597
319.99218
315.37646
311.82958
308.96138
306.56437
304.51518
302.73447
301.1681
299.77736
298.53356
297.41474
296.40369
295.48661
294.65224
293.89126
293.19584
292.55934
291.97608
291.44115
290.95028
290.49974
290.08626
289.70693
289.3592
289.04079
288.74967
288.48401
288.2422
288.02276
287.8244
287.64592
287.48625
287.34445
287.21965
287.11106
287.01799
286.9398
286.87593
286.82587
326.57945
320.05982
315.46758
311.93792
309.08269
306.69546
304.65353
302.878
301.31508
299.92634
298.68331
297.56424
296.55208
295.63319
294.79645
294.03265
293.33407
292.69416
292.10731
291.56869
291.07408
290.6198
290.20262
289.81969
289.46846
289.14668
288.85235
288.58365
288.33898
288.11689
287.91606
287.73533
287.57363
287.43001
287.3036
287.19362
287.09937
287.02022
286.95559
286.90497
326.61083
320.12322
315.55301
312.03957
309.1966
306.81866
304.78369
303.0132
301.45372
300.06706
298.82497
297.70587
296.69288
295.77249
294.9337
294.16742
293.46602
292.82303
292.23293
291.69094
291.1929
290.73518
290.31459
289.9283
289.57382
289.2489
288.95157
288.68002
288.43267
288.20808
288.00494
287.82209
287.65846
287.51312
287.38518
287.27388
287.17851
287.09843
287.03308
286.98193
326.64027
320.1827
315.63319
312.13502
309.30363
306.93454
304.90624
303.14065
301.58456
300.20004
298.95902
297.84009
296.8265
295.90487
295.06433
294.29587
293.59195
292.9462
292.35315
291.80808
291.3069
290.84601
290.42227
290.03288
289.67537
289.34753
289.04739
288.77318
288.52331
288.29637
288.09105
287.9062
287.74076
287.59378
287.4644
287.35185
287.25542
287.17446
287.10842
287.05676
326.66792
320.23856
315.70851
312.22473
309.4043
307.04361
305.0217
303.26084
301.7081
300.32576
299.08591
297.96729
296.95331
296.03068
295.18864
294.41827
293.71212
293.06389
292.46817
291.9203
291.41624
290.95244
290.52578
290.13352
289.77319
289.44263
289.13987
288.86317
288.61095
288.38179
288.17443
287.98769
287.82054
287.67202
287.54128
287.42754
287.3301
287.24831
287.18161
287.12946
326.69388
320.29105
315.77932
312.3091
309.49904
307.14634
305.13053
303.37424
301.82479
300.44464
299.20604
298.08788
297.07367
296.15025
295.30694
294.5349
293.82677
293.17631
292.57817
292.02776
291.52106
291.05458
290.62524
290.23032
289.86738
289.53428
289.22908
288.95005
288.69562
288.4644
288.25511
288.0666
287.89783
287.74786
287.61583
287.50097
287.40257
287.31999
287.25265
287.20003
326.7183
320.34042
315.84593
312.38851
309.58826
307.24314
305.23318
303.4813
301.93506
300.55709
299.31981
298.20222
297.18793
296.26389
295.4195
294.64602
293.93614
293.28368
292.68336
292.13063
291.62152
291.15259
290.72077
290.32338
289.95803
289.62257
289.31509
289.03388
288.77739
288.54423
288.33313
288.14295
287.97267
287.82133
287.68808
287.57216
287.47285
287.38951
287.32158
287.2685
326.74127
320.38687
315.90864
312.4633
309.67233
307.33442
305.33004
303.58241
302.0393
300.6635
299.42758
298.31064
297.2964
296.3719
295.52662
294.75188
294.04045
293.3862
292.78391
292.22907
291.71777
291.24657
290.81248
290.41282
290.04522
289.70757
289.39797
289.11473
288.85631
288.62133
288.40854
288.21679
288.04507
287.89244
287.75805
287.64112
287.54095
287.4569
287.38839
287.33489
326.76289
320.43062
315.96771
312.53378
309.75159
307.42053
305.42148
303.67794
302.13786
300.76422
299.52967
298.41346
297.39938
296.47456
295.62853
294.85271
294.13991
293.48407
292.88
292.32325
291.80994
291.33668
290.90048
290.49872
290.12904
289.78936
289.47779
289.19266
288.93243
288.69575
288.48137
288.28815
288.11509
287.96124
287.82576
287.70788
287.6069
287.52217
287.45312
287.3992
326.78325
320.47184
316.02338
312.60022
309.82635
307.5018
305.50783
303.76821
302.23109
300.85956
299.62642
298.51098
297.49715
296.57212
295.7255
294.94875
294.23475
293.57748
292.97181
292.41333
291.89818
291.42302
290.9849
290.5812
290.2096
289.86803
289.55462
289.26772
289.00581
288.76754
288.55167
288.35707
288.18274
288.02775
287.89125
287.77247
287.67072
287.58535
287.51577
287.46146
326.80243
320.51069
316.07586
312.6629
309.8969
307.57853
305.58941
303.85356
302.31929
300.94984
299.7181
298.60349
297.58999
296.66484
295.81774
295.0402
294.32515
293.66661
293.05951
292.49945
291.98263
291.50574
291.06584
290.66035
290.28697
289.94365
289.62854
289.33999
289.07651
288.83675
288.61948
288.42359
288.24808
288.09201
287.95455
287.83492
287.73244
287.64646
287.57639
287.5217
326.82051
320.54732
316.12537
312.72203
309.96349
307.65099
305.6665
303.93426
302.40275
301.03533
299.805
298.69125
297.67813
296.75296
295.90549
295.12728
294.4113
293.75165
293.14325
292.58176
292.06343
291.58494
291.14341
290.73628
290.36125
290.0163
289.69961
289.40954
289.14459
288.90344
288.68486
288.48776
288.31113
288.15405
288.01568
287.89526
287.79209
287.70553
287.63499
287.57994
326.83756
320.58188
316.17209
312.77785
310.02638
307.71945
305.73937
304.01059
302.48174
301.1163
299.88736
298.7745
297.76181
296.8367
295.98895
295.21018
294.4934
293.83275
293.22319
292.66042
292.1407
291.66076
291.21773
290.80907
290.43253
290.08608
289.76792
289.47642
289.21011
288.96766
288.74786
288.54962
288.37195
288.21391
288.07469
287.95352
287.8497
287.7626
287.69161
287.63621
326.85363
320.61449
316.21619
312.83055
310.08578
307.78415
305.80827
304.0828
302.55652
301.19301
299.96544
298.85347
297.84127
296.91627
296.06832
295.28909
294.57162
293.91008
293.29948
292.73555
292.21457
291.7333
291.2889
290.87885
290.5009
290.15306
289.83353
289.5407
289.27312
289.02946
288.80852
288.60922
288.43056
288.27164
288.13162
288.00974
287.90531
287.81768
287.74627
287.69054
326.8688
320.64527
316.25782
312.88033
310.14189
307.84529
305.87342
304.15112
302.62731
301.26567
300.03946
298.92839
297.9167
296.99188
296.1438
295.36418
294.64612
293.9838
293.37227
292.80729
292.28517
291.80269
291.35703
290.94568
290.56644
290.21731
289.89652
289.60246
289.33369
289.0889
288.8669
288.66661
288.48703
288.32727
288.18649
288.06395
287.95893
287.87082
287.79901
287.74296
326.88311
320.67433
316.29714
312.92735
310.19493
307.9031
305.93504
304.21577
302.69433
301.33451
300.10963
298.99947
297.98832
297.0637
296.21557
295.43564
294.71707
294.05406
293.4417
292.87577
292.35261
291.86903
291.42221
291.00968
290.62925
290.27893
289.95696
289.66176
289.39189
289.14605
288.92305
288.72183
288.54139
288.38084
288.23936
288.11618
288.01062
287.92204
287.84985
287.79351
326.89661
320.70177
316.33428
312.97178
310.24505
307.95775
305.99332
304.27694
302.75779
301.39972
300.17614
299.06689
298.05629
297.13194
296.28379
295.50363
294.78462
294.12101
293.50791
292.94113
292.41702
291.93243
291.48455
291.07094
290.6894
290.33798
290.01493
289.71867
289.44777
289.20095
288.97702
288.77493
288.59368
288.4324
288.29025
288.16649
288.06042
287.9714
287.89884
287.84221
326.90936
320.72769
316.36937
313.01376
310.29242
308.00943
306.04845
304.33484
302.81788
301.46151
300.2392
299.13084
298.12082
297.19674
296.34863
295.56829
294.84891
294.18478
293.57102
293.00347
292.47851
291.993
291.54415
291.12954
290.74699
290.39455
290.07049
289.77324
289.50139
289.25366
289.02887
288.82596
288.64397
288.48199
288.33922
288.2149
288.10834
288.01891
287.94602
287.88911
326.92139
320.75217
316.40252
313.05344
310.33721
308.0583
306.10061
304.38964
302.87477
301.52004
300.29897
299.1915
298.18205
297.25829
296.41025
295.62978
294.91009
294.2455
293.63116
293.06292
292.53719
292.05083
291.60111
291.18558
290.80209
290.44871
290.12372
289.82556
289.55283
289.30424
289.07864
288.87498
288.69228
288.52966
288.3863
288.26146
288.15445
288.06462
287.9914
287.93424
326.93274
320.77529
316.43384
313.09094
310.37955
308.10451
306.14995
304.4415
302.92864
301.57549
300.35562
299.24902
298.24015
297.31672
296.46879
295.68823
294.9683
294.30331
293.68845
293.11959
292.59316
292.10604
291.65551
291.23913
290.85478
290.50054
290.17469
289.87568
289.60213
289.35275
289.1264
288.92203
288.73867
288.57544
288.43154
288.30621
288.19876
288.10857
288.03505
287.97764
326.94346
320.79713
316.46344
313.12638
310.41958
308.14822
306.19662
304.49058
302.97964
301.62801
300.4093
299.30356
298.29528
297.37219
296.5244
295.74379
295.02365
294.35832
293.74301
293.1736
292.64653
292.15872
291.70744
291.2903
290.90516
290.55011
290.22347
289.92368
289.64935
289.39924
289.17219
288.96716
288.78319
288.61939
288.47497
288.34918
288.24134
288.1508
288.07698
288.01934
326.95358
320.81777
316.4914
313.15987
310.45742
308.18955
306.24078
304.53702
303.02793
301.67775
300.46017
299.35527
298.34757
297.42484
296.57721
295.79659
295.07628
294.41066
293.79494
293.22503
292.6974
292.20896
291.75701
291.33915
290.95328
290.5975
290.27012
289.9696
289.69457
289.44378
289.21607
289.01043
288.82588
288.66156
288.51666
288.39043
288.28221
288.19134
288.11725
288.05939
326.96313
320.83726
316.51783
313.19153
310.49319
308.22862
306.28254
304.58096
303.07363
301.72486
300.50837
299.40428
298.39716
297.47479
296.62734
295.84674
295.1263
294.46043
293.84436
293.27401
292.74587
292.25685
291.80428
291.38578
290.99924
290.64278
290.31472
290.01353
289.73784
289.48641
289.2581
289.05188
288.86679
288.70198
288.55663
288.43
288.32142
288.23024
288.15589
288.09781
326.97215
320.85567
316.54279
313.22144
310.527
308.26557
306.32204
304.62254
303.11689
301.76946
300.55402
299.45072
298.44418
297.52218
296.67492
295.89436
295.17383
294.50775
293.89137
293.32063
292.79202
292.30249
291.84935
291.43026
291.0431
290.68602
290.35732
290.05551
289.77921
289.52719
289.29832
289.09156
288.90598
288.7407
288.59493
288.46792
288.359
288.26754
288.19294
288.13466
326.98065
320.87305
316.56637
313.24971
310.55896
308.3005
306.35939
304.66187
303.15782
301.81168
300.59725
299.49473
298.48874
297.56712
296.72007
295.93957
295.21898
294.55272
293.93607
293.36498
292.83595
292.34595
291.8923
291.47266
291.08494
290.72728
290.398
290.09561
289.81875
289.56618
289.33679
289.12953
288.94348
288.77777
288.6316
288.50424
288.39501
288.30327
288.22844
288.16998
326.98867
320.88947
316.58865
313.27642
310.58916
308.33352
306.39471
304.69906
303.19655
301.85164
300.63819
299.53641
298.53097
297.60972
296.76289
295.98247
295.26184
294.59543
293.97855
293.40715
292.87774
292.38731
291.9332
291.51306
291.12482
290.76663
290.43682
290.1339
289.85652
289.60344
289.37355
289.16584
288.97935
288.81324
288.6667
288.53901
288.42948
288.33748
288.26244
288.20379
326.99624
320.90497
316.60969
313.30164
310.61769
308.36472
306.42809
304.73423
303.23318
301.88944
300.67693
299.57588
298.57098
297.6501
296.80349
296.02316
295.30251
294.63599
294.0189
293.44723
292.91749
292.42667
291.97214
291.55154
291.16283
290.80414
290.47384
290.17043
289.89256
289.63901
289.40867
289.20053
289.01364
288.84714
288.70026
288.57226
288.46245
288.37021
288.29496
288.23614
327.00338
320.9196
316.62955
313.32547
310.64464
308.39421
306.45964
304.76748
303.26782
301.92521
300.71359
299.61324
298.60886
297.68835
296.84197
296.06175
295.3411
294.67449
294.05723
293.4853
292.95527
292.4641
292.00918
291.58817
291.19901
290.83988
290.50912
290.20526
289.92694
289.67295
289.44219
289.23365
289.04638
288.87954
288.73233
288.60403
288.49397
288.4015
288.32605
288.26707
327.0101
320.9334
316.6483
313.34796
310.67009
308.42205
306.48945
304.7989
303.30056
301.95903
300.74827
299.6486
298.64473
297.72458
296.87843
296.09833
295.37769
294.71101
294.0936
293.52146
292.99115
292.49967
292.04439
291.623
291.23345
290.87391
290.54273
290.23844
289.95971
289.70532
289.47417
289.26524
289.07763
288.91046
288.76295
288.63438
288.52407
288.43139
288.35576
288.29663
327.01644
320.94642
316.66599
313.36919
310.69412
308.44835
306.5176
304.82859
303.3315
301.991
300.78107
299.68204
298.67866
297.75887
296.91295
296.13298
295.41237
294.74563
294.1281
293.55577
293.02522
292.53346
292.07786
291.65612
291.2662
290.90628
290.57471
290.27004
289.99092
289.73615
289.50464
289.29537
289.10743
288.93995
288.79217
288.66334
288.5528
288.45992
288.38412
288.32484
327.02241
320.9587
316.68268
313.38922
310.7168
308.47317
306.54419
304.85662
303.36073
302.02121
300.81207
299.71366
298.71076
297.79132
296.94563
296.16579
295.44523
294.77845
294.1608
293.58831
293.05755
292.56553
292.10964
291.68759
291.29733
290.93706
290.60513
290.3001
290.02063
289.76551
289.53366
289.32407
289.13582
288.96806
288.82002
288.69095
288.5802
288.48713
288.41117
288.35175
327.02803
320.97028
316.69842
313.40812
310.73819
308.49659
306.56928
304.88309
303.38834
302.04974
300.84136
299.74355
298.74111
297.82201
296.97655
296.19684
295.47633
294.80953
294.1918
293.61916
293.08821
292.59595
292.1398
291.71746
291.3269
290.9663
290.63405
290.32868
290.04888
289.79345
289.56128
289.3514
289.16286
288.99484
288.84655
288.71726
288.60631
288.51306
288.43694
288.3774
327.03332
320.98119
316.71326
313.42594
310.75837
308.51869
306.59295
304.90806
303.41439
302.07668
300.86902
299.77178
298.76979
297.85102
297.00579
296.22622
295.50577
294.83896
294.22115
293.64839
293.11726
292.6248
292.16841
291.7458
291.35496
290.99407
290.66151
290.35584
290.07574
289.82
289.58755
289.37738
289.18859
289.02032
288.8718
288.7423
288.63116
288.53775
288.46149
288.40183
327.03829
320.99146
316.72724
313.44273
310.77739
308.53952
306.61527
304.93162
303.43897
302.10211
300.89513
299.79844
298.79688
297.87842
297.03342
296.25399
295.53361
294.86679
294.24893
293.67606
293.14478
292.65213
292.19552
291.77267
291.38157
291.02041
290.68758
290.38162
290.10124
289.84523
289.61251
289.40208
289.21304
289.04454
288.89581
288.76612
288.6548
288.56124
288.48484
288.42506
327.04297
321.00113
316.74041
313.45855
310.79531
308.55915
306.63631
304.95383
303.46215
302.12609
300.91976
299.8236
298.82245
297.9043
297.05952
296.28023
295.55992
294.89311
294.2752
293.70223
293.17082
292.678
292.2212
291.79813
291.40679
291.04538
290.71229
290.40608
290.12543
289.86917
289.6362
289.42553
289.23627
289.06755
288.91862
288.78875
288.67727
288.58356
288.50704
288.44715
327.04736
321.01023
316.7528
313.47344
310.81219
308.57764
306.65613
304.97476
303.484
302.14869
300.94299
299.84733
298.84657
297.92872
297.08416
296.30501
295.58477
294.91798
294.30003
293.72698
293.19545
292.70248
292.24549
291.82223
291.43067
291.06903
290.73571
290.42926
290.14837
289.89187
289.65867
289.44778
289.2583
289.08939
288.94028
288.81024
288.69861
288.60476
288.52812
288.46813
327.05148
321.01879
316.76446
313.48745
310.82807
308.59505
306.6748
304.99447
303.50458
302.16999
300.96487
299.8697
298.86931
297.95175
297.1074
296.32839
295.60822
294.94145
294.32348
293.75036
293.21872
292.72562
292.26847
291.84502
291.45327
291.09142
290.75788
290.45121
290.1701
289.91338
289.67997
289.46887
289.2792
289.1101
288.96081
288.83062
288.71884
288.62487
288.54812
288.48804
327.05535
321.02683
316.77542
313.50063
310.84301
308.61142
306.69236
305.01302
303.52395
302.19004
300.98549
299.89076
298.89074
297.97346
297.12931
296.35044
295.63034
294.9636
294.34561
293.77243
293.2407
292.74747
292.29018
291.86656
291.47463
291.11259
290.77885
290.47197
290.19066
289.93374
289.70013
289.48884
289.29898
289.12972
288.98027
288.84993
288.73802
288.64393
288.56707
288.5069
327.05897
321.03438
316.78572
313.51302
310.85706
308.62681
306.70887
305.03046
303.54217
302.20891
301.00488
299.91059
298.91091
297.9939
297.14994
296.3712
295.65119
294.98448
294.36647
293.79325
293.26143
292.76809
292.31067
291.8869
291.4948
291.13259
290.79866
290.4916
290.2101
289.95299
289.71919
289.50773
289.31771
289.14828
288.99868
288.8682
288.75617
288.66197
288.58502
288.52476
327.06236
321.04146
316.79538
313.52465
310.87025
308.64128
306.72439
305.04685
303.55929
302.22664
301.02312
299.92924
298.92989
298.01313
297.16937
296.39076
295.67083
295.00414
294.38613
293.81286
293.28098
292.78754
292.32999
291.90609
291.51384
291.15146
290.81737
290.51013
290.22846
289.97117
289.73721
289.52558
289.3354
289.16582
289.01609
288.88548
288.77334
288.67903
288.60199
288.54166
327.06554
321.0481
316.80445
313.53556
310.88263
308.65485
306.73895
305.06225
303.57538
302.2433
301.04026
299.94677
298.94773
298.03121
297.18763
296.40915
295.68929
295.02265
294.40463
293.83133
293.29938
292.80585
292.3482
291.92417
291.53178
291.16925
290.835
290.52761
290.24577
289.98833
289.75421
289.54243
289.3521
289.18239
289.03253
288.9018
288.78955
288.69515
288.61802
288.55762
327.0685
321.05432
316.81295
313.54579
310.89424
308.66759
306.75262
305.07669
303.59048
302.25894
301.05635
299.96322
298.96448
298.0482
297.20479
296.42643
295.70665
295.04005
294.42203
293.8487
293.31669
292.82309
292.36533
291.94119
291.54867
291.18601
290.85162
290.54407
290.26209
290.0045
289.77023
289.55832
289.36785
289.19801
289.04803
288.9172
288.80484
288.71035
288.63315
288.57267
327.07126
321.06014
316.82091
313.55537
310.90511
308.67952
306.76543
305.09024
303.60463
302.27361
301.07144
299.97866
298.9802
298.06413
297.22089
296.44265
295.72295
295.05639
294.43837
293.86502
293.33296
292.83928
292.38144
291.9572
291.56456
291.20177
290.86725
290.55957
290.27745
290.01972
289.78532
289.57327
289.38268
289.21273
289.06263
288.9317
288.81925
288.72468
288.6474
288.58686
327.07384
321.06558
316.82835
313.56434
310.9153
308.6907
306.77742
305.10292
303.61789
302.28735
301.08558
299.99313
298.99493
298.07908
297.23599
296.45787
295.73824
295.07171
294.45371
293.88033
293.34823
292.85449
292.39657
291.97223
291.57948
291.21658
290.88194
290.57413
290.29188
290.03403
289.79951
289.58734
289.39663
289.22657
289.07637
288.94534
288.83281
288.73816
288.66081
288.60021
327.07624
321.07066
316.83531
313.57273
310.92481
308.70114
306.78864
305.11478
303.63029
302.3002
301.09881
300.00667
299.00872
298.09307
297.25013
296.47212
295.75256
295.08607
294.46808
293.89469
293.36255
292.86875
292.41075
291.98632
291.59348
291.23047
290.89572
290.5878
290.30544
290.04746
289.81282
289.60055
289.40973
289.23956
289.08927
288.95816
288.84554
288.75082
288.67341
288.61276
327.07847
321.07539
316.8418
313.58055
310.93371
308.7109
306.79912
305.12587
303.64188
302.31222
301.11118
300.01933
299.02162
298.10615
297.26336
296.48545
295.76597
295.09951
294.48153
293.90813
293.37595
292.8821