# Wall heat-flux
# Time          	patch           	min             	max             	integral        
6.3072e+07      	water_to_rock	-1.09292792e+03	-2.01970924e+02	-4.43519403e+01
