/*--------------------------------*- C++ -*----------------------------------*\
| =========                 |                                                 |
| \\      /  F ield         | OpenFOAM: The Open Source CFD Toolbox           |
|  \\    /   O peration     | Version:  2506                                  |
|   \\  /    A nd           | Website:  www.openfoam.com                      |
|    \\/     M anipulation  |                                                 |
\*---------------------------------------------------------------------------*/
FoamFile
{
    version     2.0;
    format      ascii;
    arch        "LSB;label=32;scalar=64";
    class       volScalarField;
    location    "3000/rock";
    object      T;
}
// * * * * * * * * * * * * * * * * * * * * * * * * * * * * * * * * * * * * * //

dimensions      [0 0 0 1 0 0 0];

internalField   nonuniform List<scalar> 
2500
(
315.04845
304.03309
298.33469
294.94323
292.7366
291.20821
290.09928
289.26542
288.62044
288.1101
287.69873
287.36201
287.08288
286.84901
286.65134
286.48303
286.33885
286.21471
286.10738
286.01422
285.93303
285.86188
285.79894
285.74232
285.68968
319.29394
309.19187
303.21878
299.31658
296.60829
294.64577
293.17534
292.04352
291.15275
290.43859
289.85703
289.37718
288.97684
288.63969
288.35353
288.10905
287.89906
287.71792
287.56112
287.42502
287.3066
287.20334
287.11304
287.03373
286.96368
321.14096
312.05825
306.38192
302.4649
299.61336
297.46369
295.80069
294.48735
293.43225
292.57221
291.8624
291.27031
290.77188
290.34902
289.98792
289.67786
289.41048
289.17911
288.97842
288.80409
288.65256
288.52092
288.40674
288.30801
288.22313
322.23869
313.90873
308.58147
304.79783
301.96026
299.76041
298.01537
296.60679
295.45374
294.49874
293.69983
293.02574
292.45276
291.96264
291.54119
291.17721
290.8618
290.58782
290.34949
290.14209
289.96177
289.80536
289.67027
289.55439
289.45606
323.0073
315.24214
310.22276
306.60215
303.83752
301.6538
299.88981
298.44158
297.23767
296.22669
295.37057
294.64043
294.01397
293.47373
293.00588
292.59937
292.24527
291.93636
291.6667
291.43144
291.22657
291.04881
290.89546
290.76432
290.65365
323.59655
316.27579
311.5172
308.0543
305.38058
303.24236
301.49281
300.03817
298.81421
297.77473
296.88532
296.1196
295.45702
294.88129
294.37933
293.94058
293.55641
293.21973
292.9247
292.66649
292.44109
292.24517
292.07599
291.93131
291.80932
324.07403
317.11723
312.58066
309.26164
306.68075
304.5995
302.88109
301.43893
300.21416
299.16462
298.25888
297.47287
296.78769
296.18826
295.6624
295.20018
294.79342
294.43533
294.12028
293.84356
293.60125
293.39007
293.20729
293.05064
292.91828
324.47525
317.82577
313.48092
310.29124
307.79919
305.77801
304.09838
302.679
301.465
300.4173
299.50689
298.71155
298.01385
297.39985
296.85823
296.3797
295.95659
295.58248
295.252
294.96065
294.70464
294.48076
294.28635
294.11916
293.97734
324.82095
318.43697
314.26008
311.18659
308.7775
306.81564
305.17762
303.78626
302.58974
301.55136
300.64402
299.84701
299.14411
298.52237
297.97125
297.48207
297.04764
296.66194
296.31987
296.01716
295.75017
295.51582
295.31152
295.13506
294.9846
325.12426
318.97363
314.9457
311.97702
309.64465
307.73966
306.14357
304.78252
303.60713
302.58261
301.68334
300.88985
300.18693
299.56244
299.00651
298.51104
298.06925
297.67548
297.32494
297.01356
296.73787
296.49494
296.28224
296.09763
295.9393
325.39399
319.45112
315.55668
312.68297
310.42137
308.57011
307.01493
305.68478
304.53229
303.52421
302.63613
301.84959
301.15021
300.52653
299.96925
299.47074
299.02462
298.62556
298.26901
297.95114
297.66863
297.41867
297.19883
297.00705
296.84154
325.63634
319.8803
316.10642
313.31922
311.12287
309.32198
307.80604
306.5064
305.3774
304.38706
303.51201
302.73461
302.04115
301.42074
300.86458
300.36543
299.91727
299.51502
299.15441
298.83175
298.54393
298.28823
298.06232
297.86419
297.69211
325.85581
320.26907
316.6048
313.89671
311.76056
310.00675
308.52805
307.25796
306.1523
305.1802
304.31914
303.55217
302.86615
302.25069
301.69737
301.19931
300.75078
300.34695
299.98374
299.65766
299.36571
299.10531
298.8742
298.67045
298.49237
326.05579
320.62336
317.05926
314.42377
312.34326
310.63333
309.18977
307.94798
306.86508
305.91117
305.06446
304.30861
303.63095
303.0215
302.47219
301.97642
301.52873
301.12448
300.7598
300.43133
300.1362
299.87193
299.63635
299.42759
299.244
326.23889
320.94778
317.47556
314.90692
312.87787
311.20882
309.79829
308.58337
307.5224
306.58628
305.75391
305.00943
304.34061
303.7378
303.19325
302.7006
302.25458
301.85078
301.48545
301.15537
300.8578
300.59033
300.35089
300.13763
299.94897
326.40715
321.24592
317.85828
315.35132
313.36995
311.73897
310.35939
309.16989
308.12983
307.21091
306.39258
305.65944
304.99963
304.40381
303.86445
303.37543
302.93167
302.52891
302.16353
301.83245
301.533
301.26287
301.02005
300.80275
300.60943
326.56223
321.52073
318.21113
315.76119
313.82403
312.2285
310.87789
309.71231
308.69211
307.78965
306.98491
306.26289
305.61205
305.02331
304.48937
304.00429
303.56316
303.16184
302.79685
302.4652
302.16431
301.89195
301.64615
301.42521
301.22758
326.7055
321.7746
318.53716
316.14003
314.2439
312.68137
311.35784
310.21474
309.21329
308.32649
307.53479
306.82354
306.18148
305.59976
305.0713
304.59032
304.15202
303.75242
303.38812
303.05622
302.75423
302.47997
302.23155
302.00728
301.80568
326.83809
322.00955
318.83893
316.49076
314.63275
313.10094
311.80271
310.68068
309.69689
308.82493
308.04564
307.34471
306.71115
306.13631
305.61328
305.13642
304.70107
304.30334
303.93993
303.60802
303.30518
303.0293
302.77853
302.55123
302.34596
326.96097
322.22729
319.11862
316.8159
314.99332
313.49012
312.21549
311.11319
310.146
309.28803
308.52051
307.82943
307.20402
306.63583
306.1181
305.64531
305.21293
304.81715
304.45476
304.12301
303.81952
303.54224
303.28936
303.05929
302.85061
327.07497
322.42929
319.37814
317.11762
315.32798
313.85143
312.59883
311.51498
310.56336
309.71854
308.96214
308.2804
307.66276
307.10095
306.58833
306.11952
305.69008
305.29627
304.93497
304.60348
304.2995
304.021
303.76622
303.5336
303.32176
327.18082
322.61686
319.61912
317.39783
315.63883
314.1871
312.95504
311.88844
310.95139
310.11893
309.37299
308.70007
308.08981
307.53407
307.02636
306.56139
306.1348
305.74296
305.38278
305.05164
304.74726
304.46769
304.21118
303.97622
303.76145
327.27917
322.79113
319.84303
317.65822
315.92773
314.49911
313.28621
312.23571
311.31229
310.49142
309.75531
309.0907
308.4874
307.93742
307.43438
306.97309
306.54926
306.15934
305.80029
305.46953
305.16486
304.88433
304.62625
304.38913
304.17164
327.37059
322.95313
320.05118
317.90029
316.19634
314.78924
313.59421
312.55873
311.64806
310.83803
310.11114
309.45434
308.8576
308.31306
307.81445
307.35665
306.93547
306.5474
306.18946
305.85912
305.55421
305.27283
305.01332
304.7742
304.55417
327.45559
323.10376
320.24474
318.12541
316.44615
315.05911
313.88072
312.85926
311.96049
311.16059
310.44235
309.79287
309.2023
308.66288
308.16845
307.71397
307.29531
306.909
306.55214
306.22224
305.91715
305.635
305.37416
305.1332
304.91082
327.53464
323.24385
320.42477
318.3348
316.67854
315.31016
314.14728
313.13889
312.25123
311.46081
310.75064
310.10802
309.52323
308.98864
308.49814
308.04679
307.63051
307.2459
306.89008
306.56061
306.25537
305.97252
305.71047
305.4678
305.24323
327.60816
323.37416
320.59223
318.5296
316.89473
315.54373
314.39531
313.3991
312.5218
311.74022
311.0376
310.40141
309.82203
309.29195
308.80515
308.35675
307.94272
307.55971
307.20489
306.87584
306.57048
306.28701
306.02384
305.77958
305.55298
327.67653
323.49538
320.74801
318.71081
317.09585
315.76105
314.62608
313.64123
312.77359
312.00027
311.30469
310.67449
310.10018
309.57433
309.091
308.64536
308.23345
307.85196
307.49808
307.16945
306.86399
306.57995
306.31574
306.07001
305.84152
327.74012
323.60812
320.89292
318.87938
317.28296
315.96322
314.84079
313.86652
313.00789
312.24226
311.55325
310.92866
310.35908
309.83719
309.3571
308.91406
308.50414
308.12407
307.77109
307.44285
307.13732
306.85274
306.58759
306.34049
306.11024
327.79924
323.71297
321.0277
319.03618
317.45701
316.1513
315.04054
314.07612
313.22587
312.46741
311.78454
311.16517
310.60001
310.08181
309.60476
309.16415
308.75609
308.37736
308.02523
307.69736
307.39177
307.10671
306.84067
306.5923
306.36042
327.8542
323.81047
321.15304
319.182
317.61888
316.32622
315.22632
314.27108
313.42864
312.67686
311.9997
311.3852
310.82417
310.30942
309.8352
309.39686
308.99055
308.61307
308.26173
307.93423
307.62859
307.34308
307.07622
306.82668
306.59328
327.90527
323.90111
321.26956
319.31758
317.76939
316.48887
315.39909
314.45238
313.61721
312.87165
312.19982
311.58985
311.03267
310.52113
310.04956
309.61333
309.20865
308.83235
308.48176
308.1546
307.84891
307.563
307.29538
307.04474
306.80993
327.95271
323.98534
321.37787
319.44361
317.90931
316.64008
315.55969
314.62093
313.79253
313.05276
312.38588
311.78014
311.22653
310.71799
310.24889
309.81464
309.41148
309.03628
308.68639
308.35955
308.05382
307.76753
307.4992
307.24755
307.01142
327.99675
324.06358
321.4785
319.56071
318.03932
316.78059
315.70895
314.77757
313.95546
313.22108
312.55881
311.95701
311.40673
310.90098
310.43417
310.00177
309.60003
309.22585
308.87661
308.55007
308.24432
307.95768
307.6887
307.4361
307.19876
328.03762
324.13623
321.57195
319.66947
318.16008
316.91111
315.84759
314.92308
314.10683
313.37745
312.71947
312.12132
311.57415
311.071
310.60633
310.17564
309.77523
309.402
309.05337
308.72712
308.42133
308.13437
307.86479
307.61132
307.37283
328.07552
324.20366
321.6587
319.77044
318.27219
317.03229
315.97632
315.05819
314.24738
313.52265
312.86866
312.27391
311.72962
311.22888
310.7662
310.33711
309.93793
309.5656
309.21753
308.89154
308.58574
308.29848
308.02833
307.77405
307.53452
328.11065
324.26619
321.73917
319.86411
318.37622
317.14474
316.09578
315.18357
314.37781
313.65741
313.00711
312.41553
311.87391
311.37542
310.91459
310.48698
310.08894
309.71744
309.36991
309.04416
308.73834
308.4508
308.18014
307.9251
307.68459
328.14317
324.32415
321.81377
319.95097
318.47267
317.24901
316.20656
315.29984
314.49877
313.78238
313.13552
312.54687
312.00774
311.51133
311.05222
310.62599
310.22901
309.85828
309.51124
309.18573
308.87989
308.5921
308.32095
308.06522
307.8238
328.17327
324.37783
321.88288
320.03144
318.56204
317.34562
316.3092
315.40759
314.61086
313.89819
313.25452
312.66859
312.13177
311.63729
311.17977
310.75482
310.35884
309.98882
309.64224
309.31695
309.01108
308.72306
308.45147
308.19509
307.95284
328.20108
324.42749
321.94684
320.10592
318.64478
317.43507
316.40424
315.50735
314.71465
314.00543
313.36471
312.7813
312.24661
311.75393
311.29789
310.87413
310.47906
310.10971
309.76355
309.43846
309.13258
308.84434
308.57234
308.31536
308.07233
328.22676
324.47339
322.00597
320.17479
318.72129
317.51779
316.49213
315.59962
314.81064
314.10461
313.46663
312.88555
312.35285
311.86183
311.40715
310.98449
310.59027
310.22153
309.87577
309.55086
309.24498
308.95654
308.68416
308.42663
308.18287
328.25043
324.51575
322.06058
320.2384
318.79195
317.5942
316.57333
315.68485
314.89933
314.19625
313.5608
312.98188
312.45101
311.96152
311.50811
311.08646
310.69303
310.32486
309.97947
309.65473
309.34884
309.06021
308.78748
308.52944
308.28502
328.27222
324.55481
322.11093
320.29707
318.85714
317.66468
316.64823
315.76349
314.98115
314.2808
313.64768
313.07075
312.54157
312.0535
311.60126
311.18055
310.78785
310.42021
310.07515
309.75057
309.44467
309.15587
308.88282
308.62431
308.37928
328.29224
324.59074
322.15728
320.35108
318.91716
317.7296
316.71722
315.83592
315.05651
314.35867
313.7277
313.15262
312.625
312.13824
311.68708
311.26723
310.8752
310.50804
310.1633
309.83887
309.53296
309.24401
308.97066
308.71171
308.46612
328.31059
324.62374
322.19986
320.40072
318.97233
317.78927
316.78064
315.9025
315.1258
314.43027
313.80129
313.22789
312.70171
312.21615
311.76598
311.34694
310.95552
310.58881
310.24436
309.92007
309.61415
309.32505
309.05143
308.79208
308.54597
328.32738
324.65398
322.2389
320.44624
319.02293
317.844
316.83881
315.96358
315.18936
314.49596
313.86879
313.29695
312.77208
312.28763
311.83838
311.42007
311.02921
310.66292
310.31873
309.99456
309.68864
309.39942
309.12554
308.86583
308.61925
328.3427
324.68161
322.27459
320.48787
319.06921
317.89406
316.89202
316.01946
315.24751
314.55605
313.93056
313.36014
312.83648
312.35305
311.90462
311.48699
311.09665
310.73073
310.38679
310.06274
309.75681
309.46747
309.19336
308.93332
308.6863
328.35661
324.70677
322.30712
320.52581
319.1114
317.93971
316.94055
316.07043
315.30055
314.61087
313.9869
313.41778
312.89523
312.41272
311.96506
311.54803
311.15818
310.7926
310.44888
310.12494
309.81901
309.52956
309.25524
308.9949
308.74748
328.3692
324.7296
322.33665
320.56028
319.14973
317.98119
316.98465
316.11674
315.34875
314.66069
314.0381
313.47017
312.94862
312.46695
312.01999
311.60352
311.2141
310.84884
310.50532
310.18148
309.87554
309.58599
309.31149
309.05087
308.80309
328.38054
324.75022
322.36333
320.59143
319.18439
318.01869
317.02453
316.15863
315.39235
314.70576
314.08442
313.51757
312.99693
312.51602
312.06969
311.65373
311.2647
310.89973
310.55639
310.23264
309.9267
309.63706
309.36239
309.10152
308.85341
328.39068
324.76872
322.38731
320.61944
319.21555
318.05243
317.0604
316.19631
315.43157
314.7463
314.1261
313.56022
313.0404
312.56018
312.11442
311.69892
311.31024
310.94553
310.60236
310.27868
309.97275
309.68303
309.4082
309.1471
308.89871
328.39969
324.78522
322.40871
320.64444
319.24338
318.08256
317.09245
316.22998
315.46663
314.78254
314.16336
313.59834
313.07925
312.59966
312.1544
311.73931
311.35096
310.98647
310.64345
310.31985
310.01391
309.72412
309.44916
309.18786
308.93921
328.4076
324.79979
322.42763
320.66657
319.26803
318.10925
317.12085
316.25982
315.49769
314.81466
314.19638
313.63213
313.1137
312.63465
312.18985
311.77512
311.38705
311.02277
310.67988
310.35635
310.05041
309.76056
309.48548
309.224
308.97511
328.41448
324.81251
322.44419
320.68595
319.28962
318.13264
317.14573
316.28597
315.52493
314.84282
314.22533
313.66176
313.1439
312.66534
312.22094
311.80653
311.41871
311.05461
310.71184
310.38837
310.08243
309.79253
309.51734
309.2557
309.00661
328.42034
324.82346
322.45847
320.70267
319.30826
318.15284
317.16724
316.30858
315.54847
314.86717
314.25037
313.68739
313.17003
312.69189
312.24783
311.83371
311.4461
311.08216
310.7395
310.41607
310.11014
309.82019
309.54491
309.28314
309.03387
328.42524
324.8327
322.47054
320.71683
319.32406
318.16998
317.18548
316.32776
315.56845
314.88784
314.27162
313.70915
313.19222
312.71444
312.27068
311.85679
311.46937
311.10557
310.76299
310.43961
310.13368
309.84369
309.56833
309.30645
309.05703
328.4292
324.84026
322.48047
320.72851
319.3371
318.18412
317.20056
316.34362
315.58498
314.90493
314.28921
313.72715
313.21058
312.7331
312.28959
311.8759
311.48864
311.12495
310.78244
310.4591
310.15317
309.86315
309.58773
309.32575
309.07621
328.43224
324.84621
322.48832
320.73776
319.34745
318.19537
317.21255
316.35624
315.59814
314.91855
314.30323
313.74151
313.22522
312.74798
312.30467
311.89115
311.504
311.14041
310.79797
310.47465
310.16873
309.87868
309.60321
309.34116
309.09152
328.43438
324.85057
322.49413
320.74464
319.35516
318.20377
317.22152
316.36569
315.608
314.92877
314.31374
313.75228
313.23622
312.75916
312.316
311.9026
311.51556
311.15203
310.80964
310.48635
310.18043
309.89037
309.61486
309.35275
309.10304
328.43564
324.85337
322.49794
320.74919
319.3603
318.20938
317.22752
316.37202
315.61462
314.93563
314.32082
313.75954
313.24363
312.7667
312.32365
311.91034
311.52336
311.15989
310.81753
310.49426
310.18834
309.89827
309.62274
309.3606
309.11084
328.43603
324.85463
322.49977
320.75144
319.36288
318.21222
317.23059
316.37529
315.61804
314.9392
314.3245
313.76333
313.2475
312.77065
312.32766
311.9144
311.52747
311.16402
310.82168
310.49843
310.19251
309.90244
309.62689
309.36474
309.11495
328.43555
324.85436
322.49964
320.75141
319.36292
318.21233
317.23075
316.37549
315.61829
314.93948
314.32482
313.76367
313.24787
312.77103
312.32806
311.91482
311.52789
311.16446
310.82213
310.49888
310.19297
309.9029
309.62736
309.3652
309.11541
328.43421
324.85257
322.49754
320.74909
319.36044
318.20971
317.22802
316.37266
315.61538
314.93649
314.32177
313.76057
313.24473
312.76786
312.32486
311.91159
311.52466
311.16121
310.81888
310.49563
310.18973
309.89966
309.62414
309.362
309.11223
328.43201
324.84925
322.49349
320.7445
319.35542
318.20435
317.22237
316.36677
315.60928
314.93023
314.31535
313.75403
313.23808
312.76112
312.31805
311.90473
311.51775
311.15427
310.81192
310.48867
310.18277
309.89272
309.61722
309.35512
309.1054
328.42894
324.84438
322.48745
320.7376
319.34785
318.19623
317.21379
316.35781
315.59999
314.92066
314.30555
313.74401
313.22789
312.75079
312.30761
311.89419
311.50714
311.14361
310.80123
310.47797
310.17207
309.88205
309.60659
309.34454
309.09489
328.42499
324.83796
322.47942
320.72838
319.3377
318.18532
317.20225
316.34574
315.58747
314.90774
314.2923
313.73049
313.21413
312.73683
312.29348
311.87993
311.49278
311.12919
310.78676
310.46348
310.15759
309.8676
309.59219
309.33022
309.08066
328.42014
324.82996
322.46935
320.71679
319.32491
318.17157
317.1877
316.3305
315.57165
314.89143
314.27556
313.71339
313.19673
312.71917
312.27561
311.8619
311.47462
311.11093
310.76845
310.44514
310.13927
309.84931
309.57397
309.31209
309.06265
328.41437
324.82033
322.4572
320.70278
319.30945
318.15492
317.17006
316.31203
315.55247
314.87164
314.25526
313.69264
313.1756
312.69774
312.25392
311.84
311.45256
311.08876
310.74621
310.42288
310.11701
309.8271
309.55183
309.29006
309.04077
328.40767
324.80904
322.44291
320.68628
319.29122
318.13528
317.14925
316.29024
315.52984
314.84829
314.23129
313.66814
313.15066
312.67242
312.2283
311.81414
311.42651
311.06258
310.71995
310.39658
310.09071
309.80086
309.52568
309.26405
309.01492
328.39999
324.79604
322.42642
320.66723
319.27015
318.11258
317.12519
316.26502
315.50364
314.82126
314.20354
313.63979
313.12179
312.64312
312.19864
311.78419
311.39635
311.03227
310.68953
310.36612
310.06027
309.77047
309.4954
309.23392
308.98499
328.39131
324.78126
322.40765
320.64552
319.24615
318.0867
317.09775
316.23627
315.47377
314.79043
314.17189
313.60744
313.08885
312.60968
312.1648
311.75002
311.36193
310.99767
310.65482
310.33136
310.02552
309.73579
309.46084
309.19953
308.95083
328.38159
324.76464
322.38651
320.62106
319.21908
318.05752
317.06681
316.20384
315.44007
314.75565
314.13618
313.57094
313.05168
312.57195
312.12661
311.71147
311.32309
310.95863
310.61566
310.29214
309.98631
309.69665
309.42185
309.16073
308.91228
328.37078
324.74609
322.36291
320.59373
319.18884
318.0249
317.03222
316.16758
315.40239
314.71675
314.09624
313.53011
313.0101
312.52975
312.08389
311.66834
311.27965
310.91496
310.57185
310.24826
309.94245
309.65288
309.37823
309.11733
308.86916
328.35884
324.72554
322.33672
320.5634
319.15526
317.98868
316.9938
316.12731
315.36054
314.67354
314.05188
313.48477
312.96393
312.48288
312.03645
311.62044
311.2314
310.86646
310.52319
310.19953
309.89373
309.60426
309.32978
309.06912
308.82127
328.3457
324.70288
322.30783
320.52992
319.11818
317.94869
316.95137
316.08283
315.31431
314.62583
314.00289
313.43469
312.91292
312.43111
311.98405
311.56753
311.17811
310.81288
310.46944
310.14571
309.83993
309.55056
309.27626
309.01588
308.76837
328.3313
324.678
322.27608
320.49313
319.07743
317.90472
316.90473
316.03393
315.26349
314.57336
313.94902
313.37962
312.85685
312.37419
311.92643
311.50936
311.11951
310.75399
310.41035
310.08654
309.78078
309.49152
309.21744
308.95735
308.71023
328.31558
324.65077
322.24133
320.45283
319.03281
317.85657
316.85364
315.98036
315.20782
314.51589
313.89001
313.3193
312.79542
312.31184
311.86332
311.44565
311.05534
310.68948
310.34564
310.02174
309.716
309.42687
309.15302
308.89326
308.64655
328.29847
324.62107
322.2034
320.40885
318.98407
317.80398
316.79785
315.92187
315.14703
314.45313
313.82557
313.25344
312.72835
312.24376
311.79442
311.37609
310.98528
310.61906
310.275
309.95101
309.64529
309.3563
309.0827
308.82329
308.57704
328.27986
324.58874
322.16209
320.36094
318.93099
317.7467
316.73708
315.85815
315.0808
314.38477
313.75539
313.1817
312.65531
312.16962
311.71939
311.30035
310.90899
310.54239
310.19809
309.87399
309.56831
309.27948
309.00615
308.74713
308.50138
328.25967
324.55362
322.1172
320.30886
318.87329
317.68443
316.67101
315.78888
315.00881
314.31046
313.6791
313.10373
312.57592
312.08906
311.63786
311.21805
310.82611
310.45909
310.11454
309.79034
309.48469
309.19603
308.923
308.66441
308.4192
328.2378
324.51552
322.06848
320.25234
318.81067
317.61685
316.59931
315.71371
314.93069
314.22983
313.59633
313.01915
312.4898
312.00167
311.54943
311.1288
310.73623
310.36877
310.02395
309.69964
309.39404
309.10557
308.83287
308.57474
308.33012
328.21414
324.47425
322.01569
320.19108
318.74278
317.54359
316.52159
315.63224
314.84604
314.14246
313.50665
312.92751
312.39652
311.90702
311.45367
311.03216
310.63892
310.271
309.92589
309.60148
309.29593
309.00768
308.73534
308.47771
308.23372
328.18854
324.42957
321.95853
320.12475
318.66928
317.46427
316.43745
315.54404
314.7544
314.0479
313.40961
312.82836
312.29561
311.80465
311.35011
310.92766
310.53372
310.1653
309.8199
309.49538
309.18991
308.90189
308.62995
308.37287
308.12957
328.16088
324.38123
321.89667
320.05296
318.58974
317.37844
316.34641
315.44863
314.65528
313.94564
313.30468
312.72119
312.18655
311.69403
311.23823
310.81479
310.42011
310.05118
309.70548
309.38086
309.07548
308.78773
308.51622
308.25973
308.01718
328.13099
324.32895
321.82976
319.97531
318.5037
317.28561
316.24796
315.34547
314.54815
313.83513
313.19132
312.60542
312.06878
311.57461
311.11748
310.693
310.29754
309.92809
309.58209
309.25739
308.95211
308.66467
308.39364
308.1378
307.89605
328.09868
324.2724
321.75739
319.89132
318.41064
317.18523
316.14153
315.23397
314.43238
313.71576
313.06891
312.48046
311.94169
311.44578
310.98726
310.56169
310.16544
309.79545
309.44916
309.12439
308.81926
308.53215
308.26166
308.00652
307.76565
328.06375
324.21123
321.67907
319.80044
318.30998
317.07667
316.02646
315.11346
314.3073
313.58684
312.93675
312.3456
311.8046
311.30687
310.8469
310.42022
310.02315
309.65263
309.30607
308.98126
308.67632
308.38961
308.1197
307.86533
307.62541
328.02596
324.145
321.59429
319.70206
318.20103
316.95921
315.902
314.98318
314.17215
313.4476
312.7941
312.20011
311.65678
311.15715
310.69569
310.26789
309.87001
309.49898
309.15218
308.82738
308.52267
308.23641
307.96716
307.71364
307.47474
327.98502
324.07321
321.50238
319.59545
318.083
316.83202
315.7673
314.84227
314.02606
313.29719
312.6401
312.04315
311.4974
310.99585
310.53288
310.10395
309.70529
309.33379
308.98679
308.66206
308.35766
308.07193
307.8034
307.55081
307.31302
327.94059
323.99526
321.4026
319.47974
317.95497
316.69412
315.62137
314.68972
313.86803
313.13462
312.47379
311.87379
311.32558
310.82208
310.35762
309.9276
309.52822
309.15631
308.8092
308.48462
308.18061
307.89549
307.62779
307.37622
307.13963
327.89224
323.91041
321.29402
319.35388
317.81579
316.54436
315.46302
314.52435
313.6969
312.95878
312.2941
311.69099
311.14032
310.6349
310.16901
309.73798
309.33797
308.96575
308.61864
308.29432
307.99082
307.70643
307.43966
307.18921
306.95393
327.83945
323.81774
321.17547
319.21657
317.6641
316.3813
315.29084
314.34478
313.51134
312.76837
312.0998
311.4936
310.94052
310.43329
309.96609
309.53419
309.13368
308.76131
308.41434
308.09043
307.78757
307.50404
307.23833
306.98912
306.75525
327.78154
323.71606
321.04546
319.06615
317.49815
316.20321
315.10311
314.14935
313.30976
312.56191
311.8895
311.28032
310.725
310.21613
309.74782
309.31525
308.91446
308.54214
308.19551
307.87219
307.57016
307.28765
307.02315
306.77531
306.54299
327.71755
323.60373
320.90201
318.90044
317.3157
316.00784
314.89767
313.93602
313.09028
312.33765
311.6616
311.0497
310.49241
309.98222
309.5131
309.08017
308.67939
308.3074
307.96137
307.63888
307.33788
307.05659
306.79347
306.54717
306.31651
327.64617
323.47847
320.74233
318.71645
317.11374
315.79232
314.67183
313.70233
312.85064
312.09358
311.4143
310.80013
310.24134
309.73028
309.2608
308.82793
308.42755
308.05624
307.71113
307.38977
307.09007
306.81023
306.54869
306.30409
306.07524
327.56533
323.33684
320.56235
318.50995
316.88819
315.55284
314.42214
313.4452
312.58818
311.82738
311.14558
310.52986
309.97028
309.459
308.98977
308.55751
308.15804
307.78787
307.44409
307.12421
306.82612
306.548
306.28827
306.04557
305.81869
327.47162
323.17322
320.35573
318.27469
316.63326
315.2843
314.14423
313.16094
312.29976
311.53642
310.85327
310.23708
309.67768
309.16707
308.69889
308.26796
307.87002
307.50156
307.15959
306.84162
306.5455
306.26941
306.01175
305.77114
305.5464
327.35836
322.97742
320.11183
318.00097
316.34071
314.97992
313.83261
312.84516
311.98191
311.21792
310.53512
309.91996
309.36206
308.85329
308.38716
307.95843
307.5628
307.19668
306.85709
306.54151
306.24778
305.97406
305.71875
305.48048
305.25805
327.20918
322.72832
319.81167
317.6736
315.99897
314.63106
313.48087
312.49308
311.63101
310.86915
310.18903
309.57687
309.02215
308.51663
308.05377
307.62827
307.23581
306.87279
306.53622
306.22357
305.93267
305.6617
305.40905
305.17335
304.95342
326.96707
322.37581
319.42067
317.27001
315.59336
314.22806
313.08253
312.10025
311.24397
310.48789
309.81339
309.20664
308.65706
308.15643
307.69819
307.27707
306.88875
306.52964
306.19677
305.88762
305.60004
305.33221
305.08254
304.84968
304.63243
)
;

boundaryField
{
    rock_inlet
    {
        type            externalWallHeatFluxTemperature;
        mode            coefficient;
        kappaMethod     solidThermo;
        h               constant 10;
        Ta              uniform 283.15;
        qr              none;
        refValue        uniform 283.15;
        refGradient     uniform 0;
        valueFraction   nonuniform List<scalar> 
25
(
0.25
0.25
0.25
0.25
0.25
0.25
0.25
0.25
0.25
0.25
0.25
0.25
0.25
0.25
0.25
0.25
0.25
0.25
0.25
0.25
0.25
0.25
0.25
0.25
0.25
)
;
        value           nonuniform List<scalar> 
25
(
307.07384
298.81232
294.53852
291.99492
290.33995
289.19366
288.36196
287.73657
287.25283
286.87008
286.56155
286.30901
286.09966
285.92426
285.77601
285.64977
285.54164
285.44853
285.36804
285.29817
285.23727
285.18391
285.13671
285.09424
285.05476
)
;
    }
    rock_outlet
    {
        type            externalWallHeatFluxTemperature;
        mode            coefficient;
        kappaMethod     solidThermo;
        h               constant 0.2;
        Ta              uniform 279.15;
        qr              none;
        refValue        uniform 279.15;
        refGradient     uniform 0;
        valueFraction   nonuniform List<scalar> 
25
(
0.0066225166
0.0066225166
0.0066225166
0.0066225166
0.0066225166
0.0066225166
0.0066225166
0.0066225166
0.0066225166
0.0066225166
0.0066225166
0.0066225166
0.0066225166
0.0066225166
0.0066225166
0.0066225166
0.0066225166
0.0066225166
0.0066225166
0.0066225166
0.0066225166
0.0066225166
0.0066225166
0.0066225166
0.0066225166
)
;
        value           nonuniform List<scalar> 
25
(
326.6504
322.08955
319.15398
317.01756
315.35201
313.99576
312.85781
311.88203
311.03143
310.28035
309.61032
309.00759
308.46165
307.96434
307.50913
307.0908
306.70505
306.34832
306.01765
305.71055
305.42488
305.15882
304.9108
304.67948
304.46367
)
;
    }
    rock_outer
    {
        type            externalWallHeatFluxTemperature;
        mode            coefficient;
        kappaMethod     solidThermo;
        h               constant 0.2;
        Ta              uniform 279.15;
        qr              none;
        refValue        uniform 279.15;
        refGradient     uniform 0;
        valueFraction   nonuniform List<scalar> 
100
(
0.003954211
0.003954211
0.003954211
0.003954211
0.003954211
0.003954211
0.003954211
0.003954211
0.003954211
0.003954211
0.003954211
0.003954211
0.003954211
0.003954211
0.003954211
0.003954211
0.003954211
0.003954211
0.003954211
0.003954211
0.003954211
0.003954211
0.003954211
0.003954211
0.003954211
0.003954211
0.003954211
0.003954211
0.003954211
0.003954211
0.003954211
0.003954211
0.003954211
0.003954211
0.003954211
0.003954211
0.003954211
0.003954211
0.003954211
0.003954211
0.003954211
0.003954211
0.003954211
0.003954211
0.003954211
0.003954211
0.003954211
0.003954211
0.003954211
0.003954211
0.003954211
0.003954211
0.003954211
0.003954211
0.003954211
0.003954211
0.003954211
0.003954211
0.003954211
0.003954211
0.003954211
0.003954211
0.003954211
0.003954211
0.003954211
0.003954211
0.003954211
0.003954211
0.003954211
0.003954211
0.003954211
0.003954211
0.003954211
0.003954211
0.003954211
0.003954211
0.003954211
0.003954211
0.003954211
0.003954211
0.003954211
0.003954211
0.003954211
0.003954211
0.003954211
0.003954211
0.003954211
0.003954211
0.003954211
0.003954211
0.003954211
0.003954211
0.003954211
0.003954211
0.003954211
0.003954211
0.003954211
0.003954211
0.003954211
0.003954211
)
;
        value           nonuniform List<scalar> 
100
(
285.66382
286.93278
288.18725
289.41531
290.60816
291.75926
292.86384
293.91871
294.92199
295.87291
296.77158
297.6188
298.41588
299.16454
299.86673
300.52457
301.14028
301.71609
302.25423
302.75689
303.22618
303.66413
304.07269
304.45372
304.80896
305.14006
305.44858
305.73598
306.00364
306.25283
306.48476
306.70055
306.90125
307.08784
307.26124
307.42228
307.57176
307.71042
307.83894
307.95796
308.06807
308.16982
308.2637
308.3502
308.42974
308.50272
308.56951
308.63045
308.68584
308.73596
308.78108
308.82141
308.85718
308.88855
308.9157
308.93877
308.95788
308.97313
308.9846
308.99236
308.99646
308.99692
308.99375
308.98695
308.97648
308.96231
308.94437
308.92258
308.89683
308.86702
308.83299
308.7946
308.75165
308.70394
308.65126
308.59334
308.52991
308.46068
308.38532
308.30346
308.21473
308.11872
308.01498
307.90303
307.78238
307.6525