/*--------------------------------*- C++ -*----------------------------------*\
| =========                 |                                                 |
| \\      /  F ield         | OpenFOAM: The Open Source CFD Toolbox           |
|  \\    /   O peration     | Version:  2506                                  |
|   \\  /    A nd           | Website:  www.openfoam.com                      |
|    \\/     M anipulation  |                                                 |
\*---------------------------------------------------------------------------*/
FoamFile
{
    version     2.0;
    format      ascii;
    arch        "LSB;label=32;scalar=64";
    class       volScalarField;
    location    "4000/water";
    object      alphat;
}
// * * * * * * * * * * * * * * * * * * * * * * * * * * * * * * * * * * * * * //

dimensions      [1 -1 -1 0 0 0 0];

internalField   nonuniform List<scalar> 
2600
(
0.040489031
0.04048893
0.040488932
0.040488969
0.04048893
0.040488424
0.040485257
0.04046703
0.040362559
0.039762099
0.036475623
0.024118064
0.014862723
0.039376404
0.039376463
0.039376584
0.03937667
0.03937627
0.039373342
0.039357935
0.03928206
0.038918252
0.037247647
0.030707814
0.017504579
0.016810247
0.03845331
0.038453299
0.038453385
0.038453188
0.038451259
0.038441479
0.038397507
0.038208927
0.037432867
0.034484227
0.025768479
0.01464355
0.017680736
0.037674097
0.037673994
0.037673876
0.037672833
0.03766736
0.037643826
0.037549741
0.037190974
0.035896577
0.031717985
0.022022178
0.013507107
0.017935556
0.037006829
0.037006634
0.03700605
0.037003229
0.036991211
0.03694503
0.036777672
0.036201229
0.034343725
0.029136321
0.019390213
0.01332192
0.01787019
0.036428097
0.036427705
0.036426239
0.036420305
0.036397905
0.036319194
0.03605724
0.035231095
0.03281421
0.026833154
0.017684561
0.01376901
0.017658004
0.035920433
0.035919673
0.03591673
0.035905979
0.035868817
0.035747845
0.035374204
0.034281783
0.031338745
0.024847734
0.016751764
0.014701365
0.017395975
0.035470606
0.03546924
0.035464057
0.035446499
0.035390052
0.035218253
0.034721129
0.033357857
0.029935921
0.02320089
0.016491475
0.016024754
0.017137191
0.035068412
0.03506614
0.035057811
0.035031314
0.034951338
0.034722033
0.034094772
0.032463227
0.028616047
0.021918168
0.016839593
0.01764423
0.016909598
0.034705855
0.034702323
0.034689851
0.034652315
0.034545228
0.034254009
0.03349406
0.031599319
0.027389013
0.021039007
0.017742707
0.01944683
0.016725717
0.034376582
0.0343714
0.034353768
0.03430331
0.034166516
0.033811296
0.032918607
0.030765036
0.026274288
0.020612421
0.019134169
0.021310298
0.0165878
0.034075484
0.034068256
0.034044512
0.033979658
0.033811775
0.033392551
0.032367695
0.029958513
0.025310237
0.020682514
0.02092045
0.023125093
0.01649134
0.03379842
0.033788771
0.033758129
0.033677993
0.033478994
0.032997353
0.031839672
0.029180919
0.024557973
0.021270679
0.022983308
0.024813263
0.016428198
0.033542011
0.033529635
0.033491576
0.033396025
0.033167279
0.032625685
0.031331905
0.02844226
0.024095308
0.02236241
0.02519592
0.026333969
0.016389375
0.033303501
0.033288203
0.033242589
0.033132389
0.0328766
0.032277488
0.030841496
0.027768047
0.024001078
0.023903802
0.027443847
0.027676786
0.016366908
0.033080659
0.033062404
0.03300959
0.032886524
0.032607559
0.031952311
0.030367144
0.027204004
0.02433601
0.025808536
0.029640409
0.028850257
0.01635471
0.032871707
0.032850677
0.032791627
0.032658586
0.032361164
0.031649138
0.029912405
0.026815113
0.025128026
0.027972561
0.031731261
0.029871995
0.016348606
0.032675278
0.032651931
0.032588332
0.032449362
0.032138606
0.031366538
0.029490156
0.026676983
0.02636662
0.030291378
0.033689748
0.030762439
0.016345973
0.032490392
0.032465523
0.0323999
0.032260198
0.031941021
0.031103392
0.02912715
0.026861559
0.028006318
0.032674378
0.035508202
0.031541613
0.016345289
0.03231644
0.032291251
0.032227075
0.032092906
0.0317693
0.030860474
0.028866522
0.027422392
0.02997661
0.035052626
0.037189756
0.032227633
0.016345749
0.032153193
0.032129365
0.032071151
0.03194966
0.031623986
0.030643052
0.028765901
0.028384666
0.032194873
0.037379728
0.038742713
0.03283612
0.016346971
0.032000817
0.031980587
0.031933965
0.031832869
0.031505423
0.030464306
0.028890209
0.029742269
0.034578895
0.039628039
0.040177388
0.03338011
0.016348812
0.031859898
0.031846136
0.031817892
0.031745018
0.031414332
0.030348688
0.029300795
0.031461309
0.037056244
0.041783221
0.041504536
0.033870256
0.016351246
0.031731488
0.031727775
0.031725824
0.031688525
0.031353059
0.030333689
0.030044463
0.033487924
0.039569151
0.043839375
0.042734578
0.034315152
0.016354289
0.031617156
0.031627852
0.031661123
0.031665646
0.031327616
0.030468391
0.031145811
0.035757862
0.042075207
0.045795594
0.043877213
0.034721702
0.016357969
0.031519059
0.031549348
0.031627545
0.031678558
0.031350386
0.030808116
0.032604584
0.038205563
0.044545298
0.047653852
0.044941234
0.035095454
0.016362308
0.03144002
0.031495925
0.031629136
0.031729781
0.031442847
0.031406233
0.034397782
0.040771061
0.046960465
0.04941777
0.045934484
0.035440886
0.01636731
0.031383622
0.031471952
0.031670108
0.031823119
0.03163718
0.032305488
0.03648515
0.043403917
0.049308924
0.051091864
0.046863895
0.035761637
0.016372969
0.03135431
0.031482518
0.031754744
0.031965285
0.031975485
0.033531428
0.038816233
0.046064361
0.051583769
0.052681066
0.047735561
0.036060692
0.016379266
0.031357497
0.031533412
0.031887427
0.032168112
0.032505946
0.035089409
0.041337345
0.04872249
0.053781403
0.054190403
0.048554837
0.036340517
0.016386174
0.03139966
0.031631057
0.032072921
0.032450915
0.033276475
0.036965351
0.043997168
0.051356523
0.055900493
0.055624809
0.04932644
0.036603249
0.016393659
0.031488426
0.031782428
0.03231711
0.032842099
0.034327511
0.039129415
0.046750332
0.053950901
0.057941208
0.056988872
0.050054079
0.036848497
0.016401672
0.031632621
0.031994973
0.032628308
0.033378944
0.035685988
0.0415413
0.049558966
0.056494684
0.059904719
0.058286905
0.050741228
0.037078062
0.016410157
0.031842264
0.03227662
0.033019162
0.034104839
0.037361928
0.044155836
0.052392715
0.058980326
0.061792816
0.059522758
0.051390027
0.037293993
0.016419061
0.032128529
0.032636021
0.033508771
0.03506418
0.03934811
0.046927806
0.05522786
0.061402783
0.063607643
0.060699937
0.052002677
0.037497696
0.016428334
0.032503669
0.033083203
0.034124296
0.036296098
0.041622402
0.049815358
0.058046135
0.063758861
0.065351546
0.061821638
0.05258258
0.037690193
0.016437945
0.032981
0.033630795
0.034901056
0.037828731
0.044151814
0.052781868
0.060833584
0.066046678
0.0670267
0.0628895
0.053132468
0.03787253
0.016447871
0.033575092
0.034295802
0.035880362
0.039675446
0.046897152
0.055796502
0.063579598
0.06826533
0.068635567
0.063907354
0.053654301
0.038045473
0.016458088
0.034302366
0.035101601
0.037105064
0.041833716
0.049817342
0.05883393
0.06627615
0.07041439
0.070179106
0.064878396
0.054149993
0.038209783
0.016468569
0.035182275
0.03607935
0.038613757
0.044286499
0.052872731
0.061873593
0.068917172
0.072494022
0.071660186
0.065805208
0.054621163
0.038366084
0.016479288
0.036239038
0.037267807
0.04043515
0.04700543
0.056027171
0.064898911
0.071498022
0.074503816
0.07308148
0.066690098
0.055069325
0.038514917
0.016490218
0.037503413
0.038710784
0.04258404
0.049954858
0.059248933
0.06789646
0.074015179
0.076444639
0.074445474
0.067535117
0.055495818
0.038656742
0.016501334
0.039013495
0.040452263
0.045059713
0.053095828
0.062510843
0.070855331
0.076465321
0.078317608
0.075754303
0.068342165
0.055901825
0.038791953
0.01651261
0.040813297
0.042530153
0.047846804
0.056389294
0.065789805
0.073766504
0.078846462
0.080124249
0.077009865
0.069112937
0.056288384
0.038920881
0.016524019
0.042948305
0.044970312
0.050918046
0.059798373
0.069066316
0.076621964
0.081156912
0.08186579
0.078213922
0.06984894
0.056656393
0.039043804
0.016535536
0.045458358
0.047782276
0.054237933
0.063289378
0.072323482
0.0794152
0.083396337
0.083543323
0.079368015
0.070551488
0.057006627
0.039160948
0.016547136
0.048369467
0.05095754
0.057766443
0.066832226
0.075546545
0.082140735
0.085564126
0.085157802
0.08047348
0.071221706
0.057339733
0.039272496
0.016558794
0.051686888
0.054470384
0.061462091
0.070399907
0.078721978
0.084794901
0.087659686
0.086709984
0.081531426
0.07186053
0.057656246
0.039378584
0.016570485
0.055391449
0.058280518
0.065283653
0.073967528
0.081839597
0.087374097
0.089682316
0.088200389
0.082542723
0.072468712
0.057956585
0.039479307
0.016582185
0.059440009
0.062336478
0.069190782
0.077513991
0.08489056
0.089874869
0.091631137
0.089629275
0.083507998
0.073046817
0.05824106
0.039574723
0.016593867
0.063769449
0.066579704
0.073146283
0.081021462
0.087866725
0.092293797
0.093505041
0.090996614
0.08442762
0.073595222
0.05850987
0.039664845
0.016605507
0.068304141
0.070949114
0.077116109
0.084473703
0.090760475
0.094627425
0.095302667
0.092302086
0.085301702
0.074114117
0.058763111
0.039749649
0.016617076
0.07296394
0.075384325
0.081068518
0.087855769
0.093564614
0.096872241
0.097022405
0.093545081
0.086130107
0.074603514
0.059000771
0.039829073
0.016628545
0.077671198
0.079828344
0.084974028
0.091153813
0.096272318
0.0990247
0.098662427
0.094724725
0.086912461
0.07506325
0.05922274
0.039903018
0.016639885
0.082355833
0.084229566
0.088805523
0.094354991
0.098877149
0.10108129
0.10022076
0.095839932
0.087648191
0.07549301
0.059428818
0.03997135
0.016651062
0.086958196
0.08854307
0.092538477
0.097447488
0.10137312
0.10303863
0.10169536
0.096889472
0.088336561
0.075892351
0.059618728
0.040033909
0.016662041
0.091430078
0.09273126
0.096151237
0.10042061
0.10375477
0.10489358
0.10308425
0.097872057
0.088976742
0.076260745
0.059792139
0.040090515
0.016672786
0.095734362
0.09676393
0.099625273
0.10326491
0.10601733
0.10664339
0.10438564
0.098786449
0.089567883
0.076597617
0.059948688
0.040140975
0.016683256
0.099843903
0.1006179
0.10294533
0.10597236
0.10815676
0.10828578
0.10559801
0.09963156
0.090109187
0.07690241
0.060088013
0.040185102
0.016693412
0.10374007
0.10427639
0.10609945
0.10853646
0.11016992
0.10981911
0.10672029
0.10040656
0.090600004
0.077174634
0.060209788
0.040222725
0.016703211
0.10741122
0.10772815
0.10907889
0.1109523
0.1120546
0.11124238
0.10775187
0.10111096
0.0910399
0.077413929
0.060313755
0.040253705
0.016712613
0.11085132
0.11096668
0.11187788
0.11321659
0.11380959
0.11255534
0.10869276
0.10174471
0.091428731
0.077620117
0.060399761
0.040277951
0.016721578
0.11405869
0.11398936
0.11449339
0.11532764
0.11543467
0.11375847
0.10954352
0.1023082
0.091766692
0.077793245
0.060467784
0.04029543
0.01673007
0.11703506
0.11679669
0.11692474
0.11728523
0.11693059
0.11485303
0.11030536
0.10280235
0.092054352
0.077933616
0.060517958
0.040306179
0.016738054
0.11978468
0.11939169
0.11917332
0.11909054
0.11829904
0.11584096
0.11098007
0.10322855
0.092292673
0.078041813
0.060550587
0.040310313
0.016745502
0.12231371
0.12177927
0.1212422
0.12074596
0.11954253
0.11672486
0.11157001
0.10358869
0.092483002
0.0781187
0.06056615
0.040308023
0.016752392
0.12462973
0.12396584
0.12313585
0.12225494
0.12066437
0.11750794
0.11207805
0.1038851
0.092627055
0.078165416
0.0605653
0.04029958
0.016758707
0.12674129
0.12595888
0.12485987
0.12362185
0.12166849
0.11819391
0.11250752
0.10412051
0.09272689
0.078183362
0.060548856
0.040285329
0.016764436
0.12865763
0.12776667
0.1264207
0.12485179
0.12255939
0.11878693
0.11286211
0.10429799
0.092784859
0.078174164
0.060517785
0.040265679
0.016769576
0.13038842
0.12939801
0.12782544
0.12595045
0.12334204
0.11929151
0.11314582
0.1044209
0.092803564
0.078139649
0.060473181
0.040241093
0.016774131
0.13194361
0.13086205
0.12908164
0.12692396
0.12402175
0.11971244
0.11336291
0.10449281
0.092785802
0.078081799
0.060416241
0.04021208
0.01677811
0.13333321
0.13216813
0.13019718
0.1277788
0.12460409
0.12005469
0.11351777
0.10451745
0.092734512
0.078002711
0.060348233
0.040179177
0.016781528
0.13456724
0.13332562
0.13118007
0.12852165
0.1250948
0.12032337
0.11361492
0.10449863
0.092652721
0.077904556
0.060270475
0.040142937
0.016784407
0.1356556
0.13434385
0.13203842
0.12915928
0.12549973
0.12052364
0.1136589
0.10444023
0.092543494
0.077789536
0.060184299
0.040103918
0.01678677
0.13660798
0.13523202
0.13278027
0.12969852
0.12582473
0.12066066
0.11365424
0.10434607
0.092409887
0.077659849
0.060091033
0.040062668
0.016788647
0.13743385
0.13599912
0.13341359
0.13014614
0.12607562
0.12073953
0.1136054
0.10421994
0.092254909
0.077517655
0.059991973
0.040019718
0.016790068
0.13814235
0.13665388
0.13394615
0.13050881
0.12625813
0.12076526
0.11351675
0.10406552
0.092081487
0.077365048
0.059888368
0.039975572
0.016791065
0.13874232
0.13720474
0.13438553
0.13079304
0.12637788
0.12074273
0.11339252
0.10388637
0.091892438
0.077204034
0.059781403
0.039930701
0.016791672
0.13924224
0.13765984
0.13473904
0.13100518
0.1264403
0.12067666
0.11323679
0.10368593
0.091690452
0.077036515
0.059672192
0.039885539
0.016791922
0.13965022
0.13802696
0.13501373
0.13115133
0.12645067
0.1205716
0.11305346
0.10346742
0.091478073
0.076864274
0.059561764
0.039840482
0.016791851
0.13997402
0.13831354
0.13521637
0.13123739
0.12641404
0.1204319
0.11284626
0.10323394
0.091257689
0.076688971
0.059451064
0.039795882
0.016791491
0.14022099
0.13852668
0.13535339
0.13126899
0.12633524
0.12026171
0.11261869
0.10298837
0.091031524
0.076512132
0.059340947
0.039752054
0.016790874
0.14039811
0.13867309
0.13543095
0.1312515
0.1262189
0.12006497
0.11237407
0.10273341
0.090801634
0.076335147
0.059232176
0.039709269
0.016790033
0.14051197
0.13875913
0.13545485
0.13119001
0.12606939
0.11984538
0.11211552
0.10247157
0.090569901
0.076159271
0.059125426
0.039667759
0.016788996
0.14056881
0.13879081
0.1354306
0.13108937
0.12589083
0.11960645
0.11184592
0.10220515
0.090338036
0.075985622
0.059021283
0.039627716
0.016787792
0.14057446
0.13877376
0.13536338
0.13095411
0.12568711
0.11935142
0.11156795
0.10193627
0.09010757
0.075815168
0.058920196
0.039589084
0.016786447
0.1405344
0.13871328
0.13525805
0.1307885
0.12546188
0.11908334
0.11128408
0.10166682
0.089879861
0.075648737
0.058822524
0.039551816
0.016784982
0.14045374
0.1386143
0.13511915
0.13059654
0.12521851
0.11880501
0.11099655
0.10139852
0.089656078
0.075486964
0.05872829
0.039516201
0.016783416
0.14033726
0.13848145
0.13495093
0.13038194
0.12496016
0.11851901
0.11070742
0.10113288
0.089437243
0.075330426
0.058637829
0.039482363
0.016781768
0.1401894
0.138319
0.13475733
0.13014818
0.12468974
0.11822771
0.11041851
0.10087122
0.089224139
0.075179244
0.058551572
0.039450393
0.016780059
0.14001427
0.13813095
0.13454202
0.12989846
0.12440994
0.11793327
0.11013146
0.10061468
0.08901739
0.075034104
0.05846966
0.039420337
0.016778308
0.1398157
0.13792099
0.13430839
0.12963574
0.12412323
0.11763764
0.10984773
0.10036423
0.088817532
0.074895462
0.058392216
0.039392227
0.016776532
0.13959722
0.13769253
0.1340596
0.12936276
0.12383186
0.11734258
0.10956855
0.10012051
0.08862536
0.074763561
0.058319317
0.039366074
0.016774746
0.13936209
0.13744872
0.13379852
0.12908203
0.12353788
0.11704963
0.10929495
0.09988448
0.08844134
0.074638577
0.058251001
0.039341867
0.016772963
0.13911332
0.13719248
0.13352783
0.12879584
0.12324313
0.11676014
0.10902793
0.099656916
0.088265818
0.074520629
0.058187267
0.039319582
0.016771195
0.13885367
0.13692646
0.13324995
0.12850626
0.12294922
0.11647527
0.10876857
0.09943838
0.088099054
0.074409777
0.058128082
0.039299181
0.016769452
0.13858568
0.1366531
0.13296708
0.12821511
0.12265757
0.11619636
0.10851768
0.099229317
0.087941224
0.074306029
0.058073384
0.039280612
0.016767743
0.13831162
0.13637458
0.13268115
0.12792405
0.1223697
0.11592446
0.10827592
0.099030068
0.08779243
0.074209342
0.058023083
0.039263814
0.016766077
0.13803354
0.13609283
0.13239399
0.12763475
0.1220869
0.11566048
0.10804385
0.098840878
0.087652703
0.074119628
0.057977066
0.03924872
0.016764458
0.13775328
0.1358097
0.13210731
0.12734867
0.12181031
0.11540519
0.10782188
0.098661902
0.087522009
0.074036759
0.057935198
0.039235255
0.016762893
0.13747259
0.13552687
0.13182265
0.1270671
0.12154089
0.11515921
0.10761035
0.098493217
0.087400259
0.073960573
0.05789733
0.039223339
0.016761386
0.13719301
0.13524585
0.1315414
0.12679118
0.12127949
0.11492307
0.10740947
0.098334824
0.087287312
0.073890878
0.057863298
0.03921289
0.016759941
0.13691597
0.13496801
0.13126478
0.12652192
0.1210268
0.11469718
0.1072194
0.098186662
0.087182988
0.073827456
0.057832928
0.039203822
0.016758559
0.13664274
0.13469457
0.13099388
0.12626018
0.12078343
0.11448184
0.10704019
0.098048613
0.087087066
0.073770074
0.05780604
0.039196052
0.016757243
0.13637445
0.13442661
0.13072963
0.12600669
0.12054985
0.11427727
0.10687184
0.097920512
0.086999301
0.073718484
0.057782451
0.039189495
0.016755994
0.13611209
0.13416506
0.13047287
0.12576208
0.12032645
0.11408363
0.1067143
0.097802153
0.086919422
0.073672426
0.057761978
0.03918407
0.016754812
0.13585654
0.13391077
0.1302243
0.12552688
0.12011353
0.11390097
0.10656743
0.097693293
0.086847137
0.073631638
0.057744437
0.039179696
0.016753698
0.13560855
0.13366444
0.12998452
0.1253015
0.11991129
0.11372931
0.10643107
0.097593658
0.086782142
0.073595848
0.057729644
0.039176296
0.016752651
0.13536879
0.13342668
0.12975403
0.12508628
0.11971987
0.11356858
0.10630501
0.09750295
0.086724118
0.073564785
0.05771742
0.039173794
0.016751671
0.1351378
0.13319799
0.12953323
0.12488147
0.11953934
0.11341866
0.10618901
0.097420846
0.086672736
0.073538174
0.057707586
0.039172115
0.016750758
0.13491602
0.13297879
0.12932244
0.12468723
0.1193697
0.11327941
0.10608278
0.097347002
0.086627658
0.073515741
0.057699968
0.03917119
0.01674991
0.13470383
0.1327694
0.1291219
0.12450368
0.11921087
0.1131506
0.10598601
0.09728106
0.086588543
0.073497213
0.057694393
0.039170949
0.016749125
0.1345015
0.13257006
0.12893177
0.12433083
0.11906276
0.113032
0.10589835
0.097222649
0.086555047
0.073482321
0.057690695
0.039171325
0.016748403
0.13430923
0.13238096
0.12875213
0.12416866
0.11892519
0.11292332
0.10581946
0.097171392
0.086526824
0.073470801
0.057688713
0.039172257
0.01674774
0.13412716
0.13220218
0.12858302
0.12401709
0.11879797
0.11282425
0.10574896
0.097126906
0.086503536
0.073462394
0.057688291
0.039173684
0.016747135
0.13395536
0.13203377
0.1284244
0.12387599
0.11868084
0.11273446
0.10568647
0.097088808
0.086484849
0.073456852
0.057689283
0.03917555
0.016746587
0.13379383
0.13187571
0.1282762
0.12374519
0.11857355
0.11265361
0.10563159
0.097056717
0.086470436
0.073453938
0.057691549
0.039177804
0.016746091
0.13364254
0.13172793
0.12813828
0.12362447
0.11847578
0.11258131
0.10558394
0.097030257
0.08645998
0.07345342
0.057694958
0.039180397
0.016745648
0.13350138
0.13159031
0.12801048
0.12351359
0.11838721
0.11251719
0.10554311
0.097009054
0.086453171
0.073455078
0.057699383
0.039183284
0.016745253
0.13337021
0.13146269
0.12789258
0.12341226
0.1183075
0.11246086
0.1055087
0.096992738
0.086449708
0.0734587
0.057704706
0.039186421
0.016744906
0.13324884
0.13134485
0.12778432
0.12332017
0.11823628
0.11241191
0.10548031
0.096980945
0.086449296
0.073464081
0.057710811
0.039189767
0.016744603
0.13313704
0.13123655
0.12768543
0.12323698
0.11817315
0.11236993
0.10545753
0.096973313
0.086451645
0.07347102
0.057717589
0.039193283
0.016744342
0.13303454
0.13113752
0.12759558
0.12316234
0.11811772
0.1123345
0.10543996
0.096969485
0.086456474
0.073479324
0.057724933
0.039196931
0.016744121
0.13294105
0.13104743
0.12751444
0.12309585
0.11806956
0.11230519
0.10542719
0.096969114
0.086463512
0.07348881
0.057732741
0.039200674
0.016743936
0.13285624
0.13096595
0.12744163
0.12303712
0.11802827
0.11228159
0.10541884
0.096971861
0.086472496
0.073499299
0.057740918
0.039204478
0.016743786
0.13277978
0.13089273
0.12737678
0.12298575
0.11799341
0.11226328
0.10541452
0.096977407
0.086483181
0.073510629
0.057749376
0.039208314
0.016743668
0.13271132
0.13082741
0.12731952
0.12294134
0.11796459
0.11224986
0.10541388
0.096985448
0.08649534
0.073522652
0.057758037
0.039212155
0.016743578
0.1326505
0.13076963
0.12726947
0.12290349
0.1179414
0.11224096
0.10541656
0.096995707
0.086508766
0.073535233
0.057766834
0.039215979
0.016743515
0.13259698
0.13071904
0.12722625
0.12287183
0.11792347
0.11223621
0.10542227
0.097007927
0.086523273
0.073548257
0.057775708
0.03921977
0.016743476
0.13255041
0.13067528
0.12718951
0.12284599
0.11791042
0.11223528
0.1054307
0.097021876
0.086538696
0.073561623
0.057784613
0.039223513
0.01674346
0.13251047
0.13063801
0.12715889
0.1228256
0.11790193
0.11223785
0.10544158
0.09703734
0.086554885
0.073575243
0.057793509
0.0392272
0.016743465
0.1324768
0.13060689
0.12713404
0.12281032
0.11789764
0.11224361
0.10545466
0.097054121
0.086571703
0.073589036
0.057802361
0.039230822
0.016743489
0.13244906
0.13058156
0.12711461
0.1227998
0.11789723
0.11225227
0.10546969
0.097072026
0.086589019
0.073602928
0.057811134
0.03923437
0.016743532
0.1324269
0.13056167
0.12710024
0.12279369
0.11790036
0.11226353
0.10548641
0.097090868
0.086606703
0.07361684
0.057819796
0.039237834
0.01674359
0.13240994
0.13054684
0.12709056
0.12279162
0.1179067
0.11227709
0.10550459
0.097110454
0.086624623
0.073630695
0.057828307
0.039241202
0.016743665
0.1323978
0.1305367
0.12708519
0.12279323
0.1179159
0.11229265
0.10552396
0.097130591
0.086642642
0.07364441
0.057836628
0.039244461
0.016743752
0.13239007
0.13053083
0.12708372
0.12279813
0.11792762
0.11230991
0.10554429
0.097151087
0.086660626
0.073657899
0.057844715
0.039247595
0.016743851
0.13238635
0.13052884
0.12708577
0.12280596
0.11794152
0.11232856
0.10556532
0.097171751
0.086678441
0.073671079
0.05785252
0.039250568
0.01674396
0.13238622
0.13053031
0.12709094
0.12281634
0.11795725
0.11234832
0.10558681
0.097192408
0.086695963
0.073683874
0.057860005
0.039253363
0.016744075
0.13238928
0.13053487
0.12709886
0.12282892
0.11797451
0.11236893
0.10560857
0.097212902
0.086713086
0.073696216
0.057867119
0.039255984
0.016744194
0.13239519
0.13054213
0.12710918
0.12284338
0.11799302
0.11239014
0.10563041
0.097233103
0.086729727
0.073708057
0.057873844
0.039258433
0.016744316
0.1324036
0.1305518
0.12712158
0.12285944
0.11801253
0.11241178
0.10565218
0.097252914
0.086745825
0.073719356
0.057880191
0.039260713
0.01674444
0.13241424
0.13056357
0.12713581
0.12287686
0.11803285
0.11243369
0.10567378
0.09727227
0.08676135
0.073730111
0.057886169
0.039262831
0.016744563
0.13242687
0.13057723
0.12715165
0.12289546
0.11805382
0.11245575
0.10569514
0.09729113
0.086776273
0.073740351
0.057891793
0.0392648
0.016744687
0.13244129
0.13059257
0.1271689
0.12291506
0.11807531
0.11247786
0.1057162
0.097309468
0.086790618
0.073750092
0.057897083
0.039266631
0.01674481
0.13245734
0.13060943
0.12718742
0.12293553
0.11809722
0.11249997
0.10573692
0.097327271
0.086804406
0.073759358
0.057902062
0.039268337
0.016744934
0.13247486
0.13062765
0.12720704
0.12295674
0.11811945
0.112522
0.10575726
0.097344548
0.086817649
0.07376817
0.05790675
0.039269931
0.016745057
0.13249369
0.13064708
0.12722764
0.12297857
0.11814188
0.11254386
0.10577717
0.097361286
0.086830352
0.073776544
0.057911166
0.039271421
0.016745181
0.13251365
0.13066754
0.12724905
0.12300087
0.11816441
0.11256548
0.10579663
0.097377459
0.086842508
0.073784485
0.057915316
0.039272812
0.016745305
0.13253455
0.13068885
0.12727108
0.12302346
0.11818688
0.11258677
0.10581555
0.097393026
0.086854098
0.073791988
0.057919204
0.039274105
0.016745429
0.13255616
0.13071078
0.12729352
0.12304618
0.11820917
0.1126076
0.10583387
0.097407932
0.086865087
0.073799035
0.05792282
0.039275298
0.016745552
0.13257824
0.13073309
0.12731616
0.12306884
0.11823111
0.11262787
0.10585147
0.097422115
0.086875436
0.073805604
0.057926155
0.039276386
0.016745674
0.13260053
0.13075555
0.12733878
0.12309123
0.11825256
0.11264744
0.10586829
0.097435509
0.086885104
0.073811668
0.057929193
0.039277362
0.016745793
0.13262277
0.13077791
0.12736116
0.12311319
0.11827335
0.1126662
0.10588422
0.097448058
0.086894053
0.073817207
0.057931923
0.039278222
0.016745908
0.13264477
0.13079997
0.12738313
0.12313455
0.11829336
0.11268406
0.10589921
0.097459722
0.08690226
0.073822208
0.057934339
0.039278962
0.016746018
0.13266633
0.13082156
0.12740451
0.12315519
0.11831251
0.11270095
0.10591323
0.097470483
0.086909721
0.073826672
0.057936443
0.039279584
0.016746122
0.13268732
0.13084255
0.1274252
0.12317501
0.11833072
0.11271684
0.10592625
0.097480349
0.086916453
0.073830616
0.057938247
0.039280092
0.016746218
0.13270766
0.13086286
0.12744514
0.12319397
0.11834798
0.11273174
0.10593831
0.097489354
0.086922491
0.073834073
0.057939773
0.039280497
0.016746308
0.13272734
0.13088247
0.12746431
0.12321208
0.11836432
0.11274568
0.10594945
0.097497557
0.086927891
0.073837086
0.05794105
0.039280813
0.01674639
0.13274636
0.13090139
0.12748274
0.12322936
0.11837977
0.11275873
0.10595975
0.097505029
0.08693272
0.073839711
0.057942114
0.039281053
0.016746467
0.13276477
0.13091966
0.12750045
0.12324588
0.1183944
0.11277096
0.10596929
0.097511852
0.08693705
0.073842002
0.057943001
0.039281235
0.016746538
0.13278263
0.13093735
0.12751752
0.12326169
0.1184083
0.11278246
0.10597816
0.097518102
0.086940947
0.073844013
0.057943744
0.039281373
0.016746604
0.13279998
0.13095449
0.127534
0.12327685
0.11842151
0.11279328
0.10598641
0.097523846
0.08694447
0.073845789
0.057944373
0.039281478
0.016746667
0.13281687
0.13097113
0.12754992
0.1232914
0.11843408
0.11280349
0.1059941
0.097529133
0.086947662
0.073847361
0.057944907
0.039281558
0.016746727
0.13283328
0.13098727
0.12756529
0.12330535
0.11844604
0.11281309
0.10600126
0.097533991
0.086950546
0.073848748
0.057945357
0.039281618
0.016746785
0.13284919
0.13100288
0.12758008
0.12331869
0.11845737
0.11282211
0.1060079
0.097538426
0.08695313
0.073849955
0.057945726
0.039281657
0.016746841
0.1328645
0.13101788
0.12759424
0.12333137
0.11846805
0.1128305
0.106014
0.097542428
0.086955403
0.073850973
0.057946007
0.039281671
0.016746895
0.13287913
0.13103218
0.12760768
0.12334332
0.11847801
0.11283823
0.10601952
0.097545971
0.086957346
0.073851788
0.05794619
0.039281656
0.016746947
0.13289295
0.13104568
0.12762031
0.12335446
0.1184872
0.11284525
0.10602443
0.097549026
0.086958937
0.073852381
0.057946261
0.039281603
0.016746995
0.13290585
0.13105827
0.12763203
0.12336472
0.11849555
0.11285152
0.10602869
0.097551566
0.086960154
0.073852737
0.05794621
0.039281507
0.016747039
0.13291772
0.13106985
0.12764277
0.12337404
0.11850302
0.112857
0.10603229
0.097553575
0.086960984
0.073852844
0.057946029
0.039281365
0.016747078
0.1329285
0.13108035
0.12765247
0.12338236
0.11850958
0.11286167
0.10603521
0.097555053
0.086961429
0.073852703
0.057945715
0.039281175
0.016747111
0.13293816
0.13108976
0.12766111
0.1233897
0.11851524
0.11286556
0.10603748
0.097556019
0.086961506
0.073852326
0.057945277
0.039280939
0.016747139
0.13294673
0.1310981
0.12766873
0.12339607
0.11852003
0.1128687
0.10603914
0.097556515
0.086961249
0.073851739
0.057944728
0.039280664
0.016747161
0.13295427
0.13110542
0.12767538
0.12340156
0.11852404
0.11287117
0.10604025
0.097556602
0.086960708
0.073850977
0.057944092
0.039280359
0.016747177
0.13296091
0.13111185
0.12768117
0.12340625
0.11852735
0.11287306
0.10604091
0.097556353
0.086959944
0.073850085
0.057943393
0.039280036
0.016747189
0.13296678
0.13111751
0.12768622
0.12341028
0.11853008
0.11287448
0.10604121
0.097555853
0.086959024
0.073849112
0.057942664
0.039279707
0.016747196
0.13297204
0.13112256
0.12769069
0.12341377
0.11853236
0.11287554
0.10604124
0.097555183
0.086958012
0.073848104
0.057941933
0.039279384
0.016747201
0.13297685
0.13112715
0.1276947
0.12341684
0.11853428
0.11287633
0.1060411
0.097554417
0.086956968
0.073847105
0.057941224
0.039279079
0.016747203
0.13298132
0.13113139
0.12769837
0.12341961
0.11853596
0.11287695
0.10604085
0.097553613
0.086955936
0.073846145
0.057940558
0.039278798
0.016747206
0.13298557
0.13113538
0.12770179
0.12342216
0.11853746
0.11287745
0.10604055
0.097552809
0.086954943
0.073845243
0.057939944
0.039278546
0.016747208
0.13298963
0.13113918
0.12770501
0.12342451
0.11853882
0.11287785
0.10604022
0.09755202
0.086953998
0.073844402
0.057939384
0.039278322
0.016747211
0.1329935
0.13114279
0.12770804
0.1234267
0.11854003
0.11287817
0.10603984
0.097551236
0.086953091
0.073843612
0.057938869
0.039278121
0.016747215
0.13299716
0.13114617
0.12771085
0.12342867
0.11854108
0.11287836
0.1060394
0.097550431
0.086952197
0.073842854
0.057938386
0.039277937
0.01674722
0.13300051
0.13114926
0.12771337
0.12343039
0.11854191
0.1128784
0.10603885
0.097549569
0.086951282
0.073842098
0.057937913
0.03927776
0.016747225
0.13300348
0.13115198
0.12771554
0.12343179
0.11854248
0.11287822
0.10603815
0.097548606
0.08695031
0.073841316
0.057937434
0.03927758
0.016747229
0.13300596
0.13115423
0.12771728
0.12343281
0.11854271
0.11287779
0.10603726
0.097547508
0.086949251
0.073840484
0.057936928
0.03927739
0.016747231
0.13300788
0.13115595
0.12771853
0.12343339
0.11854259
0.11287706
0.10603614
0.09754625
0.086948084
0.073839586
0.057936387
0.039277184
0.016747231
0.13300918
0.13115708
0.12771924
0.12343351
0.11854207
0.11287603
0.1060348
0.097544828
0.086946806
0.073838616
0.057935806
0.039276961
0.016747229
0.13300985
0.13115761
0.12771941
0.12343316
0.11854118
0.1128747
0.10603323
0.097543254
0.086945427
0.073837584
0.057935189
0.039276719
0.016747223
0.13300992
0.13115758
0.12771908
0.12343239
0.11853995
0.11287312
0.10603149
0.097541561
0.086943974
0.073836509
0.057934546
0.039276464
0.016747214
0.13300945
0.13115703
0.12771829
0.12343124
0.11853843
0.11287134
0.10602962
0.097539793
0.086942485
0.073835418
0.057933896
0.039276208
0.016747203
0.13300853
0.13115605
0.12771713
0.12342979
0.1185367
0.11286942
0.10602768
0.097538003
0.086941002
0.073834344
0.057933263
0.039275962
0.01674719
0.13300727
0.13115476
0.12771569
0.12342814
0.11853484
0.11286744
0.10602573
0.097536241
0.086939565
0.073833317
0.057932667
0.039275735
0.016747176
0.1330058
0.13115325
0.12771408
0.12342637
0.11853292
0.11286546
0.10602382
0.097534548
0.086938207