/*--------------------------------*- C++ -*----------------------------------*\
| =========                 |                                                 |
| \\      /  F ield         | OpenFOAM: The Open Source CFD Toolbox           |
|  \\    /   O peration     | Version:  2506                                  |
|   \\  /    A nd           | Website:  www.openfoam.com                      |
|    \\/     M anipulation  |                                                 |
\*---------------------------------------------------------------------------*/
FoamFile
{
    version     2.0;
    format      ascii;
    arch        "LSB;label=32;scalar=64";
    class       volScalarField;
    location    "4000/water";
    object      epsilon;
}
// * * * * * * * * * * * * * * * * * * * * * * * * * * * * * * * * * * * * * //

dimensions      [0 2 -3 0 0 0 0];

internalField   nonuniform List<scalar> 
2600
(
8.8079773e-05
8.8079245e-05
8.8079271e-05
8.807949e-05
8.8079744e-05
8.8080245e-05
8.8082926e-05
8.8104349e-05
8.8272771e-05
8.9512908e-05
9.8428186e-05
0.00017145296
0.0010138716
6.7789348e-05
6.7791881e-05
6.7793339e-05
6.7794963e-05
6.7796901e-05
6.7799886e-05
6.7810178e-05
6.7875511e-05
6.8312468e-05
7.1039872e-05
8.7857083e-05
0.00021159534
0.0014669324
5.3500886e-05
5.3503148e-05
5.3504846e-05
5.3506859e-05
5.3509287e-05
5.3513643e-05
5.3532992e-05
5.3656306e-05
5.4399641e-05
5.8506995e-05
8.1500797e-05
0.00023956052
0.0017068244
4.3127504e-05
4.3128883e-05
4.3130503e-05
4.3132598e-05
4.3135149e-05
4.3140834e-05
4.3171684e-05
4.3362646e-05
4.4413342e-05
4.9710824e-05
7.7552644e-05
0.00025818579
0.0017816909
3.539909e-05
3.5400132e-05
3.5401605e-05
3.5403513e-05
3.5405834e-05
3.5412916e-05
3.5457613e-05
3.5722605e-05
3.7073304e-05
4.3450503e-05
7.5629285e-05
0.00027290618
0.0017622817
2.9510599e-05
2.9511446e-05
2.95127e-05
2.9514227e-05
2.9516143e-05
2.9525119e-05
2.9586798e-05
2.9933924e-05
3.159515e-05
3.9095388e-05
7.5939385e-05
0.00028837858
0.0017002497
2.4935213e-05
2.4935877e-05
2.4936847e-05
2.4937875e-05
2.4939416e-05
2.4951342e-05
2.503458e-05
2.5477125e-05
2.7489448e-05
3.6318413e-05
7.8818158e-05
0.0003073199
0.0016256765
2.1318423e-05
2.1318913e-05
2.1319549e-05
2.132003e-05
2.1321464e-05
2.1338095e-05
2.144948e-05
2.2008273e-05
2.4447975e-05
3.4968795e-05
8.4593389e-05
0.00033066897
0.0015541994
1.8415642e-05
1.8415958e-05
1.8416233e-05
1.8416208e-05
1.8418091e-05
1.8442025e-05
1.8590687e-05
1.9295945e-05
2.2279378e-05
3.5010665e-05
9.3512814e-05
0.00035786641
0.0014930959
1.6054297e-05
1.6054439e-05
1.6054351e-05
1.6053968e-05
1.6057197e-05
1.6092028e-05
1.6290179e-05
1.7183376e-05
2.0872546e-05
3.6486908e-05
0.00010564207
0.00038720676
0.0014449141
1.411016e-05
1.4110129e-05
1.4109712e-05
1.4109249e-05
1.4115119e-05
1.4165612e-05
1.4429188e-05
1.5565379e-05
2.0175367e-05
3.9486471e-05
0.00012074249
0.00041640751
0.0014094648
1.249217e-05
1.2491978e-05
1.249131e-05
1.24912e-05
1.2501471e-05
1.2573786e-05
1.2923263e-05
1.4374121e-05
2.0181311e-05
4.4103574e-05
0.00013819401
0.0004433175
0.0013850187
1.1132483e-05
1.1132152e-05
1.1131368e-05
1.1132227e-05
1.1149209e-05
1.1251189e-05
1.1712642e-05
1.3570321e-05
2.0918928e-05
5.0386672e-05
0.00015703479
0.00046647967
0.0013691707
9.9797899e-06
9.9793621e-06
9.9786681e-06
9.9813266e-06
1.0007987e-05
1.0149541e-05
1.0756002e-05
1.3137755e-05
2.2440689e-05
5.8285038e-05
0.00017613324
0.00048532286
0.0013594869
8.994766e-06
8.994305e-06
8.9939894e-06
8.9995396e-06
9.0396464e-06
9.2332357e-06
1.0026406e-05
1.3079617e-05
2.4808572e-05
6.7609618e-05
0.00019442665
0.00050000486
0.0013539038
8.1468971e-06
8.1464947e-06
8.1469469e-06
8.1567947e-06
8.2150975e-06
8.4763588e-06
9.5087285e-06
1.3415553e-05
2.807526e-05
7.8026841e-05
0.0002111215
0.00051110137
0.0013508788
7.4122408e-06
7.412023e-06
7.4137548e-06
7.4296903e-06
7.5121568e-06
7.8606834e-06
9.1980663e-06
1.4178291e-05
3.2262331e-05
8.9094588e-05
0.00022578146
0.00051932558
0.0013493668
6.7718206e-06
6.7719549e-06
6.7756276e-06
6.7999151e-06
6.9140283e-06
7.3743439e-06
9.0987625e-06
1.5408888e-05
3.7339829e-05
0.00010033156
0.00023829849
0.00052535583
0.0013487149
6.2104575e-06
6.2111621e-06
6.2176208e-06
6.2531142e-06
6.4082476e-06
7.0110033e-06
9.2236697e-06
1.7149875e-05
4.3213605e-05
0.00011129559
0.0002487951
0.00052976262
0.0013485457
5.7159095e-06
5.7174657e-06
5.7277834e-06
5.7780724e-06
5.9859581e-06
6.7693776e-06
9.5932706e-06
1.9436233e-05
4.9726067e-05
0.00012164394
0.00025751549
0.00053299526
0.0013486594
5.2782322e-06
5.2809984e-06
5.2965329e-06
5.3661281e-06
5.6414368e-06
6.6530083e-06
1.0234238e-05
2.228513e-05
5.6672016e-05
0.00013115952
0.00026474159
0.0005353945
0.0013489619
4.889296e-06
4.893728e-06
4.9161934e-06
5.0107595e-06
5.3718124e-06
6.6701645e-06
1.1177042e-05
2.5686553e-05
6.3825678e-05
0.00013974422
0.00027074337
0.00053721257
0.0013494179
4.5424222e-06
4.549097e-06
4.5806559e-06
4.707302e-06
5.1769356e-06
6.8337316e-06
1.2452335e-05
2.9597477e-05
7.097079e-05
0.00014739148
0.0002757568
0.0005386328
0.0013500205
4.2321037e-06
4.2417515e-06
4.2851315e-06
4.4527719e-06
5.0593678e-06
7.1609028e-06
1.4086152e-05
3.394183e-05
7.7925113e-05
0.00015415333
0.00027997823
0.00053978641
0.0013507744
3.9537926e-06
3.9673375e-06
4.0259782e-06
4.2457763e-06
5.0244498e-06
7.6724685e-06
1.6094424e-05
3.8616919e-05
8.4553951e-05
0.00016011197
0.00028356674
0.00054076616
0.0013516866
3.7037376e-06
3.7223496e-06
3.8005873e-06
4.0864974e-06
5.0804009e-06
8.3914976e-06
1.8477844e-05
4.3504911e-05
9.077206e-05
0.00016536002
0.00028664926
0.00054163685
0.0013527623
3.4788613e-06
3.504022e-06
3.6073203e-06
3.9767408e-06
5.2383695e-06
9.3412706e-06
2.1218352e-05
4.8486363e-05
9.6537094e-05
0.00016998886
0.00028932618
0.00054244334
0.0013540034
3.2766694e-06
3.3102566e-06
3.4454921e-06
3.9200366e-06
5.5123349e-06
1.0542478e-05
2.4278371e-05
5.3452376e-05
0.00010183911
0.00017408281
0.00029167656
0.00054321637
0.0013554084
3.0951868e-06
3.1395803e-06
3.315394e-06
3.9217755e-06
5.9187331e-06
1.2009945e-05
2.7603266e-05
5.8312862e-05
0.0001066899
0.00017771679
0.00029376257
0.00054397675
0.0013569729
2.9329181e-06
2.991133e-06
3.2183574e-06
3.9893517e-06
6.47568e-06
1.3749403e-05
3.112658e-05
6.3000084e-05
0.00011111418
0.0001809559
0.00029563313
0.00054473837
0.0013586903
2.7888292e-06
2.8646819e-06
3.1568532e-06
4.132263e-06
7.2016967e-06
1.5755029e-05
3.4776807e-05
6.7468124e-05
0.00011514328
0.00018385585
0.00029732665
0.00054550992
0.0013605531
2.6623516e-06
2.7606641e-06
3.1346228e-06
4.362102e-06
8.1139275e-06
1.8008404e-05
3.8484156e-05
7.1689805e-05
0.00011881108
0.00018646428
0.00029887505
0.00054629402
0.0013625491
2.5534088e-06
2.680258e-06
3.1568304e-06
4.6923496e-06
9.2259799e-06
2.0479254e-05
4.21859e-05
7.5652556e-05
0.00012215122
0.00018882083
0.00030030031
0.00054708344
0.001364665
2.4624667e-06
2.6254826e-06
3.2302146e-06
5.1378783e-06
1.0545685e-05
2.3127918e-05
4.5829652e-05
7.9354439e-05
0.00012519597
0.00019095973
0.00030162122
0.00054787012
0.0013668874
2.3906118e-06
2.5993266e-06
3.3632045e-06
5.714089e-06
1.2073206e-05
2.5908984e-05
4.9374527e-05
8.2800767e-05
0.00012797521
0.0001929092
0.00030285018
0.00054865287
0.0013692048
2.3396576e-06
2.6059009e-06
3.565945e-06
6.4356564e-06
1.379994e-05
2.8775319e-05
5.2790668e-05
8.6001443e-05
0.00013051585
0.00019469159
0.00030399376
0.00054944272
0.0013716092
2.3122834e-06
2.6506068e-06
3.8501617e-06
7.3149529e-06
1.5708513e-05
3.1681692e-05
5.6057926e-05
8.8969441e-05
0.00013284315
0.00019632773
0.00030505437
0.00055025018
0.0013740956
2.312204e-06
2.740297e-06
4.2287854e-06
8.3603378e-06
1.7773921e-05
3.4587408e-05
5.9163894e-05
9.1718484e-05
0.000134977
0.0001978295
0.00030604752
0.00055107622
0.0013766577
2.3443664e-06
2.8833942e-06
4.7152658e-06
9.5746042e-06
1.9965609e-05
3.7457895e-05
6.2102575e-05
9.4263946e-05
0.00013693775
0.00019920349
0.00030698675
0.00055192215
0.0013792894
2.4151613e-06
3.0899099e-06
5.3225442e-06
1.0953904e-05
2.2249993e-05
4.026506e-05
6.4872078e-05
9.6618923e-05
0.00013873802
0.00020046565
0.00030788006
0.00055278755
0.0013819844
2.5326205e-06
3.3712891e-06
6.0617306e-06
1.2487421e-05
2.4593018e-05
4.2987257e-05
6.7474461e-05
9.8797812e-05
0.00014038632
0.00020163083
0.00030873381
0.00055367121
0.0013847362
2.7065544e-06
3.7399969e-06
6.9406287e-06
1.4157863e-05
2.6962172e-05
4.5608169e-05
6.9912764e-05
0.00010081055
0.00014189657
0.00020271013
0.00030955281
0.00055457137
0.0013875385
2.9485501e-06
4.208776e-06
7.9623501e-06
1.5942734e-05
2.9328091e-05
4.8116704e-05
7.2192972e-05
0.0001026631
0.00014328329
0.00020371266
0.00031034058
0.00055548595
0.0013903847
3.2717205e-06
4.7895533e-06
9.1242819e-06
1.7815986e-05
3.1665e-05
5.0504532e-05
7.4318479e-05
0.00010436656
0.00014455809
0.0002046458
0.0003110997
0.00055641259
0.0013932686
3.6900856e-06
5.4920727e-06
1.0417683e-05
1.9750012e-05
3.3951699e-05
5.2768183e-05
7.6289668e-05
0.00010593299
0.00014573089
0.00020551555
0.00031183196
0.00055734877
0.0013961839
4.2174846e-06
6.3224278e-06
1.1827951e-05
2.171714e-05
3.6170246e-05
5.4901159e-05
7.8113757e-05
0.00010737249
0.00014680993
0.00020632674
0.00031253851
0.00055829181
0.0013991243
4.866026e-06
7.2817745e-06
1.3335593e-05
2.3691123e-05
3.8306687e-05
5.6898167e-05
7.9798304e-05
0.00010869389
0.00014780214
0.00020708321
0.00031321993
0.0005592389
0.0014020836
5.6442494e-06
8.3655566e-06
1.4917866e-05
2.564878e-05
4.0344257e-05
5.8760206e-05
8.1350099e-05
0.00010990478
0.00014871321
0.00020778792
0.00031387635
0.00056018712
0.0014050556
6.5553595e-06
9.56346e-06
1.6550686e-05
2.7565321e-05
4.2272541e-05
6.0488808e-05
8.2775228e-05
0.00011101156
0.00014954783
0.00020844308
0.00031450744
0.0005611334
0.0014080338
7.5961539e-06
1.0860442e-05
1.8207369e-05
2.9419102e-05
4.4084529e-05
6.2085814e-05
8.4079033e-05
0.0001120196
0.00015030968
0.00020905022
0.00031511248
0.00056207453
0.0014110119
8.756316e-06
1.2235551e-05
1.9861232e-05
3.1193216e-05
4.5774965e-05
6.355318e-05
8.5266111e-05
0.00011293328
0.00015100165
0.00020961023
0.00031569038
0.00056300711
0.0014139831
1.0017523e-05
1.3664335e-05
2.1488449e-05
3.2873859e-05
4.7340054e-05
6.4892867e-05
8.6340347e-05
0.00011375612
0.0001516258
0.00021012347
0.00031623966
0.00056392755
0.0014169405
1.1355902e-05
1.5121212e-05
2.3068172e-05
3.4450179e-05
4.8777289e-05
6.6106812e-05
8.7304985e-05
0.00011449085
0.00015218355
0.00021058975
0.00031675852
0.00056483204
0.0014198766
1.2744266e-05
1.6581082e-05
2.4582903e-05
3.5914123e-05
5.0085355e-05
6.7196971e-05
8.8162738e-05
0.00011513953
0.00015267569
0.00021100843
0.00031724483
0.00056571654
0.0014227834
1.4154483e-05
1.8020638e-05
2.6018604e-05
3.7260265e-05
5.1264092e-05
6.8165414e-05
8.8915932e-05
0.0001157037
0.00015310253
0.00021137849
0.00031769616
0.00056657676
0.0014256524
1.5559582e-05
1.9419302e-05
2.7364607e-05
3.8485598e-05
5.231449e-05
6.901445e-05
8.9566665e-05
0.0001161845
0.00015346401
0.00021169859
0.00031810989
0.00056740824
0.0014284744
1.693534e-05
2.0759787e-05
2.8613378e-05
3.9589303e-05
5.323867e-05
6.9746757e-05
9.0116988e-05
0.00011658289
0.00015375983
0.00021196724
0.00031848323
0.00056820634
0.0014312396
1.826127e-05
2.2028326e-05
2.9760206e-05
4.0572478e-05
5.4039842e-05
7.0365496e-05
9.0569077e-05
0.00011689975
0.00015398961
0.00021218284
0.00031881337
0.00056896639
0.0014339377
1.9521048e-05
2.3214636e-05
3.0802835e-05
4.1437841e-05
5.4722227e-05
7.0874391e-05
9.092539e-05
0.00011713613
0.00015415307
0.0002123439
0.00031909758
0.00056968378
0.0014365579
2.0702516e-05
2.4311688e-05
3.1741086e-05
4.2189435e-05
5.5290937e-05
7.1277772e-05
9.1188789e-05
0.00011729336
0.00015425015
0.00021244915
0.0003193334
0.0005703541
0.0014390892
2.179737e-05
2.5315354e-05
3.257649e-05
4.2832332e-05
5.5751828e-05
7.1580558e-05
9.1362624e-05
0.00011737319
0.00015428119
0.00021249773
0.00031951873
0.0005709733
0.0014415207
2.2800694e-05
2.6223984e-05
3.3311942e-05
4.3372362e-05
5.6111337e-05
7.1788219e-05
9.1450777e-05
0.00011737786
0.00015424703
0.00021248926
0.00031965201
0.00057153788
0.0014438419
2.3710404e-05
2.7037978e-05
3.3951389e-05
4.3815874e-05
5.6376316e-05
7.1906692e-05
9.1457657e-05
0.00011731022
0.00015414911
0.00021242401
0.00031973234
0.00057204499
0.0014460426
2.4526703e-05
2.7759362e-05
3.4499556e-05
4.416953e-05
5.6553871e-05
7.1942284e-05
9.1388171e-05
0.00011717368
0.00015398952
0.00021230292
0.00031975955
0.00057249258
0.001448114
2.5251563e-05
2.8391405e-05
3.4961708e-05
4.4440132e-05
5.6651214e-05
7.1901561e-05
9.1247658e-05
0.00011697222
0.000153771
0.00021212769
0.00031973429
0.00057287949
0.0014500481
2.5888279e-05
2.8938288e-05
3.5343457e-05
4.4634487e-05
5.6675547e-05
7.1791237e-05
9.1041806e-05
0.00011671034
0.00015349695
0.00021190077
0.00031965801
0.00057320546
0.0014518387
2.6441084e-05
2.9404818e-05
3.5650593e-05
4.4759305e-05
5.663395e-05
7.161807e-05
9.0776557e-05
0.000116393
0.00015317137
0.00021162527
0.00031953296
0.00057347119
0.001453481
2.6914836e-05
2.9796198e-05
3.5888959e-05
4.4821108e-05
5.6533306e-05
7.1388768e-05
9.0458015e-05
0.00011602548
0.00015279874
0.00021130498
0.00031936213
0.00057367827
0.001454972
2.7314772e-05
3.0117838e-05
3.6064346e-05
4.4826184e-05
5.6380237e-05
7.1109905e-05
9.0092343e-05
0.00011561335
0.00015238399
0.00021094419
0.00031914912
0.00057382908
0.0014563107
2.7646312e-05
3.0375211e-05
3.6182416e-05
4.4780537e-05
5.6181059e-05
7.0787856e-05
8.9685677e-05
0.00011516232
0.00015193233
0.00021054763
0.0003188981
0.00057392674
0.0014574976
2.7914912e-05
3.0573746e-05
3.6248644e-05
4.4689864e-05
5.5941753e-05
7.0428741e-05
8.9244045e-05
0.00011467815
0.00015144919
0.00021012033
0.0003186136
0.00057397493
0.001458535
2.8125956e-05
3.071874e-05
3.6268274e-05
4.4559536e-05
5.5667946e-05
7.0038379e-05
8.8773296e-05
0.00011416656
0.00015094005
0.00020966749
0.00031830042
0.00057397777
0.0014594268
2.8284675e-05
3.0815302e-05
3.6246294e-05
4.4394595e-05
5.5364899e-05
6.9622265e-05
8.8279041e-05
0.00011363314
0.00015041037
0.00020919437
0.00031796348
0.00057393967
0.0014601781
2.8396093e-05
3.0868314e-05
3.6187415e-05
4.4199747e-05
5.5037505e-05
6.9185541e-05
8.7766603e-05
0.00011308327
0.00014986552
0.00020870617
0.00031760771
0.00057386521
0.0014607951
2.8464993e-05
3.08824e-05
3.6096063e-05
4.397937e-05
5.4690296e-05
6.8732989e-05
8.7240988e-05
0.0001125221
0.00014931062
0.00020820791
0.00031723791
0.00057375901
0.0014612852
2.849589e-05
3.0861918e-05
3.5976376e-05
4.3737517e-05
5.4327442e-05
6.8269021e-05
8.670685e-05
0.00011195444
0.00014875055
0.00020770441
0.00031685871
0.0005736256
0.0014616563
2.8493024e-05
3.0810945e-05
3.5832205e-05
4.3477926e-05
5.3952768e-05
6.7797683e-05
8.616848e-05
0.00011138476
0.00014818985
0.00020720015
0.00031647444
0.00057346938
0.0014619166
2.8460353e-05
3.0733283e-05
3.5667119e-05
4.3204034e-05
5.3569762e-05
6.7322659e-05
8.5629797e-05
0.00011081717
0.00014763271
0.00020669927
0.0003160891
0.00057329453
0.0014620751
2.8401557e-05
3.0632456e-05
3.5484413e-05
4.2918986e-05
5.3181589e-05
6.6847277e-05
8.5094343e-05
0.00011025538
0.00014708292
0.0002062055
0.00031570632
0.00057310493
0.0014621405
2.8320042e-05
3.0511726e-05
3.5287117e-05
4.2625649e-05
5.2791108e-05
6.6374526e-05
8.4565292e-05
0.00010970271
0.00014654385
0.00020572217
0.00031532934
0.00057290419
0.0014621217
2.8218951e-05
3.0374092e-05
3.5078007e-05
4.2326626e-05
5.2400885e-05
6.5907063e-05
8.4045452e-05
0.00010916211
0.00014601849
0.0002052522
0.00031496099
0.00057269556
0.0014620275
2.8101171e-05
3.0222309e-05
3.4859618e-05
4.2024268e-05
5.2013209e-05
6.5447237e-05
8.3537285e-05
0.00010863612
0.0001455094
0.00020479806
0.00031460368
0.00057248198
0.0014618663
2.7969349e-05
3.0058894e-05
3.4634253e-05
4.1720692e-05
5.1630111e-05
6.4997098e-05
8.3042918e-05
0.00010812693
0.00014501875
0.00020436183
0.00031425943
0.00057226604
0.0014616466
2.78259e-05
2.9886141e-05
3.4404e-05
4.1417791e-05
5.1253374e-05
6.4558418e-05
8.2564159e-05
0.00010763638
0.00014454832
0.00020394519
0.00031392989
0.00057204996
0.0014613759
2.7673026e-05
2.9706135e-05
3.417074e-05
4.1117248e-05
5.0884557e-05
6.4132711e-05
8.2102522e-05
0.00010716595
0.00014409955
0.00020354945
0.00031361632
0.00057183564
0.0014610618
2.751272e-05
2.9520758e-05
3.3936162e-05
4.0820553e-05
5.0525003e-05
6.3721247e-05
8.1659242e-05
0.00010671684
0.00014367353
0.00020317559
0.00031331976
0.00057162443
0.0014607107
2.7346788e-05
2.9331712e-05
3.3701776e-05
4.0529011e-05
5.017586e-05
6.3325073e-05
8.1235297e-05
0.00010628995
0.00014327104
0.00020282424
0.00031304071
0.00057141641
0.0014603283
2.7176855e-05
2.9140519e-05
3.3468921e-05
4.0243759e-05
4.9838094e-05
6.294503e-05
8.0831434e-05
0.00010588593
0.00014289263
0.0002024959
0.00031277957
0.00057120935
0.0014599197
2.7004381e-05
2.8948544e-05
3.3238782e-05
3.9965779e-05
4.9512502e-05
6.2581772e-05
8.0448185e-05
0.00010550518
0.00014253851
0.00020219046
0.00031253541
0.00057100481
0.0014594898
2.6830671e-05
2.8756998e-05
3.3012399e-05
3.9695905e-05
4.9199729e-05
6.2235785e-05
8.0085906e-05
0.00010514795
0.00014220888
0.00020190804
0.00031230619
0.00057080586
0.001459044
2.6656887e-05
2.8566956e-05
3.2790676e-05
3.9434843e-05
4.8900283e-05
6.1907407e-05
7.9744781e-05
0.00010481425
0.00014190346
0.00020164702
0.00031209282
0.00057061405
0.0014585872
2.6484057e-05
2.8379361e-05
3.2574396e-05
3.9183172e-05
4.8614546e-05
6.1596832e-05
7.9424826e-05
0.0001045039
0.00014162172
0.00020140641
0.00031189579
0.00057043053
0.0014581239
2.6313089e-05
2.8195039e-05
3.2364226e-05
3.8941368e-05
4.8342791e-05
6.1304152e-05
7.9125978e-05
0.00010421667
0.00014136221
0.00020118621
0.0003117152
0.00057025608
0.001457658
2.6144779e-05
2.8014708e-05
3.2160734e-05
3.8709804e-05
4.808519e-05
6.1029343e-05
7.8847989e-05
0.00010395152
0.00014112445
0.00020098611
0.00031155092
0.0005700912
0.0014571931
2.5979817e-05
2.7838986e-05
3.1964391e-05
3.8488764e-05
4.7841823e-05
6.0772275e-05
7.8590332e-05
0.00010370763
0.00014090796
0.00020080561
0.00031140258
0.00056993616
0.0014567323
2.5818803e-05
2.76684e-05
3.1775584e-05
3.8278455e-05
4.7612703e-05
6.0532701e-05
7.8352147e-05
0.00010348448
0.00014071213
0.00020064409
0.00031126969
0.00056979107
0.0014562782
2.5662249e-05
2.7503397e-05
3.159463e-05
3.8079031e-05
4.7397753e-05
6.0309952e-05
7.8132952e-05
0.00010328145
0.00014053626
0.0002005008
0.00031115166
0.00056965589
0.0014558332
2.5510596e-05
2.7344358e-05
3.1421797e-05
3.7890531e-05
4.719657e-05
6.0103637e-05
7.7932198e-05
0.00010309787
0.00014037954
0.00020037493
0.0003110478
0.00056953048
0.0014553992
2.5364225e-05
2.7191602e-05
3.125721e-05
3.7712808e-05
4.7008895e-05
5.9913322e-05
7.7749285e-05
0.00010293297
0.00014024112
0.00020026559
0.00031095739
0.00056941463
0.001454978
2.5223414e-05
2.7045319e-05
3.1100913e-05
3.7545747e-05
4.6834436e-05
5.9738534e-05
7.7583566e-05
0.00010278597
0.0001401201
0.00020017186
0.00031087964
0.00056930805
0.0014545707
2.5088366e-05
2.6905645e-05
3.0952915e-05
3.7389203e-05
4.6672869e-05
5.9578763e-05
7.7434357e-05
0.00010265603
0.00014001555
0.0002000928
0.00031081377
0.0005692104
0.0014541785
2.495923e-05
2.6772668e-05
3.081319e-05
3.7242993e-05
4.6523837e-05
5.9433472e-05
7.7300946e-05
0.00010254228
0.0001399265
0.00020002746
0.00031075897
0.00056912134
0.0014538023
2.483611e-05
2.6646438e-05
3.0681675e-05
3.7106909e-05
4.6386957e-05
5.9302096e-05
7.7182597e-05
0.00010244386
0.000139852
0.00019997489
0.00031071447
0.0005690405
0.0014534427
2.4719072e-05
2.6526967e-05
3.0558278e-05
3.6980711e-05
4.6261822e-05
5.9184051e-05
7.707856e-05
0.00010235988
0.00013979109
0.00019993414
0.00031067948
0.00056896748
0.0014531002
2.4608143e-05
2.6414235e-05
3.0442877e-05
3.6864138e-05
4.6148003e-05
5.9078735e-05
7.6988073e-05
0.00010228945
0.00013974282
0.0001999043
0.00031065324
0.00056890192
0.0014527752
2.4503322e-05
2.6308192e-05
3.0335324e-05
3.6756905e-05
4.6045056e-05
5.8985538e-05
7.6910369e-05
0.00010223168
0.00013970625
0.00019988446
0.00031063503
0.00056884341
0.0014524677
2.4404576e-05
2.6208761e-05
3.0235447e-05
3.6658708e-05
4.5952523e-05
5.8903839e-05
7.6844685e-05
0.00010218571
0.00013968047
0.00019987376
0.00031062414
0.00056879159
0.0014521779
2.4311849e-05
2.611584e-05
3.0143054e-05
3.6569229e-05
4.5869933e-05
5.8833014e-05
7.6790258e-05
0.00010215067
0.00013966457
0.00019987135
0.0003106199
0.00056874607
0.0014519057
2.422506e-05
2.6029307e-05
3.0057935e-05
3.6488134e-05
4.5796811e-05
5.877244e-05
7.6746336e-05
0.00010212573
0.0001396577
0.00019987644
0.00031062164
0.00056870648
0.0014516511
2.4144107e-05
2.594902e-05
2.9979862e-05
3.6415078e-05
4.5732673e-05
5.8721496e-05
7.6712177e-05
0.00010211007
0.00013965902
0.00019988824
0.00031062876
0.00056867243
0.0014514136
2.4068872e-05
2.587482e-05
2.9908596e-05
3.6349709e-05
4.5677035e-05
5.8679564e-05
7.6687056e-05
0.00010210288
0.00013966773
0.00019990603
0.00031064067
0.00056864357
0.0014511932
2.3999217e-05
2.5806533e-05
2.9843885e-05
3.6291666e-05
4.5629413e-05
5.8646038e-05
7.6670264e-05
0.00010210341
0.00013968307
0.0001999291
0.00031065682
0.00056861954
0.0014509892
2.3934992e-05
2.5743972e-05
2.9785467e-05
3.6240585e-05
4.5589324e-05
5.8620321e-05
7.6661112e-05
0.00010211092
0.0001397043
0.00019995681
0.00031067669
0.00056859999
0.0014508014
2.3876033e-05
2.568694e-05
2.9733074e-05
3.6196099e-05
4.5556292e-05
5.8601829e-05
7.6658934e-05
0.0001021247
0.00013973073
0.00019998854
0.00031069979
0.0005685846
0.0014506292
2.3822166e-05
2.5635229e-05
2.9686431e-05
3.6157843e-05
4.5529844e-05
5.8589992e-05
7.6663087e-05
0.00010214407
0.00013976171
0.00020002371
0.00031072566
0.00056857304
0.0014504721
2.3773207e-05
2.5588625e-05
2.9645259e-05
3.6125449e-05
4.5509519e-05
5.8584258e-05
7.6672954e-05
0.0001021684
0.00013979662
0.00020006179
0.0003107539
0.00056856503
0.0014503296
2.3728966e-05
2.5546907e-05
2.9609278e-05
3.6098554e-05
4.5494862e-05
5.8584091e-05
7.6687943e-05
0.00010219707
0.00013983488
0.00020010226
0.00031078412
0.00056856028
0.0014502011
2.3689244e-05
2.550985e-05
2.9578203e-05
3.60768e-05
4.5485432e-05
5.8588976e-05
7.670749e-05
0.00010222952
0.00013987597
0.00020014468
0.00031081594
0.0005685585
0.001450086
2.365384e-05
2.5477224e-05
2.9551755e-05
3.6059832e-05
4.5480797e-05
5.8598416e-05
7.6731057e-05
0.00010226519
0.00013991936
0.0002001886
0.00031084903
0.00056855943
0.0014499837
2.3622548e-05
2.54488e-05
2.952965e-05
3.6047304e-05
4.5480542e-05
5.8611934e-05
7.6758134e-05
0.00010230358
0.00013996459
0.00020023364
0.00031088308
0.0005685628
0.0014498935
2.3595159e-05
2.5424346e-05
2.9511612e-05
3.6038876e-05
4.5484262e-05
5.8629075e-05
7.6788238e-05
0.00010234421
0.00014001123
0.00020027941
0.0003109178
0.00056856835
0.0014498149
2.3571465e-05
2.540363e-05
2.9497365e-05
3.6034218e-05
4.5491571e-05
5.8649407e-05
7.6820915e-05
0.00010238665
0.00014005887
0.00020032559
0.00031095291
0.00056857583
0.0014497471
2.3551254e-05
2.5386424e-05
2.948664e-05
3.6033008e-05
4.5502094e-05
5.8672518e-05
7.6855739e-05
0.00010243046
0.00014010714
0.00020037186
0.00031098817
0.00056858498
0.0014496895
2.3534319e-05
2.5372499e-05
2.9479173e-05
3.6034936e-05
4.5515478e-05
5.8698019e-05
7.689231e-05
0.00010247529
0.0001401557
0.00020041796
0.00031102336
0.0005685956
0.0014496413
2.3520453e-05
2.5361632e-05
2.9474706e-05
3.6039702e-05
4.5531381e-05
5.8725545e-05
7.6930259e-05
0.00010252077
0.00014020426
0.00020046364
0.00031105828
0.00056860746
0.001449602
2.350945e-05
2.5353602e-05
2.9472989e-05
3.604702e-05
4.5549484e-05
5.8754753e-05
7.6969241e-05
0.00010256658
0.00014025253
0.00020050868
0.00031109279
0.00056862041
0.0014495708
2.3501111e-05
2.5348195e-05
2.9473779e-05
3.6056613e-05
4.5569481e-05
5.8785323e-05
7.7008942e-05
0.00010261245
0.00014030028
0.00020055289
0.00031112672
0.00056863428
0.0014495472
2.3495238e-05
2.5345201e-05
2.9476844e-05
3.6068221e-05
4.5591087e-05
5.8816957e-05
7.7049072e-05
0.0001026581
0.00014034729
0.00020059612
0.00031115997
0.00056864896
0.0014495306
2.3491639e-05
2.5344417e-05
2.9481957e-05
3.6081594e-05
4.5614033e-05
5.8849381e-05
7.7089366e-05
0.0001027033
0.00014039337
0.00020063823
0.00031119245
0.00056866433
0.0014495206
2.3490127e-05
2.5345645e-05
2.9488905e-05
3.6096496e-05
4.5638068e-05
5.8882339e-05
7.7129585e-05
0.00010274785
0.00014043836
0.0002006791
0.00031122406
0.0005686803
0.0014495166
2.349052e-05
2.5348696e-05
2.949748e-05
3.6112702e-05
4.5662956e-05
5.8915598e-05
7.7169511e-05
0.00010279156
0.0001404821
0.00020071862
0.00031125472
0.00056869675
0.0014495184
2.3492643e-05
2.5353386e-05
2.9507487e-05
3.6130004e-05
4.5688479e-05
5.8948943e-05
7.7208946e-05
0.00010283425
0.00014052448
0.0002007567
0.00031128437
0.00056871357
0.0014495253
2.3496326e-05
2.535954e-05
2.9518737e-05
3.6148202e-05
4.5714434e-05
5.8982177e-05
7.7247712e-05
0.00010287579
0.00014056538
0.00020079327
0.00031131292
0.00056873063
0.0014495371
2.3501406e-05
2.5366989e-05
2.9531054e-05
3.6167112e-05
4.5740634e-05
5.901512e-05
7.728565e-05
0.00010291604
0.00014060471
0.00020082824
0.0003113403
0.00056874777
0.001449553
2.3507726e-05
2.5375573e-05
2.9544269e-05
3.6186559e-05
4.5766906e-05
5.9047611e-05
7.732262e-05
0.0001029549
0.00014064237
0.00020086156
0.00031136644
0.00056876485
0.0014495727
2.3515136e-05
2.5385137e-05
2.9558224e-05
3.6206383e-05
4.5793093e-05
5.9079505e-05
7.7358496e-05
0.00010299225
0.00014067831
0.00020089317
0.00031139127
0.00056878171
0.0014495955
2.3523495e-05
2.5395539e-05
2.9572772e-05
3.6226435e-05
4.5819052e-05
5.9110673e-05
7.7393174e-05
0.00010302804
0.00014071246
0.00020092304
0.00031141474
0.0005687982
0.0014496209
2.3532668e-05
2.540664e-05
2.9587775e-05
3.624658e-05
4.5844655e-05
5.9141002e-05
7.7426564e-05
0.00010306218
0.0001407448
0.00020095115
0.00031143685
0.00056881424
0.0014496483
2.3542528e-05
2.5418315e-05
2.9603104e-05
3.6266692e-05
4.5869787e-05
5.9170396e-05
7.7458594e-05
0.00010309465
0.00014077531
0.00020097751
0.00031145756
0.00056882962
0.0014496773
2.3552956e-05
2.5430443e-05
2.9618643e-05
3.6286661e-05
4.5894348e-05
5.9198775e-05
7.7489208e-05
0.00010312541
0.00014080399
0.00020100214
0.00031147691
0.0005688441
0.0014497073
2.3563843e-05
2.5442915e-05
2.9634285e-05
3.6306387e-05
4.5918253e-05
5.9226071e-05
7.7518366e-05
0.00010315446
0.00014083086
0.00020102506
0.00031149487
0.00056885773
0.001449738
2.3575084e-05
2.545563e-05
2.9649931e-05
3.632578e-05
4.5941428e-05
5.9252234e-05
7.7546044e-05
0.00010318179
0.00014085595
0.00020104634
0.00031151138
0.00056887067
0.0014497694
2.3586585e-05
2.5468494e-05
2.9665495e-05
3.6344763e-05
4.5963811e-05
5.9277224e-05
7.7572228e-05
0.00010320742
0.00014087929
0.00020106598
0.00031152651
0.00056888306
0.0014498012
2.3598258e-05
2.5481422e-05
2.9680897e-05
3.6363269e-05
4.5985352e-05
5.9301011e-05
7.7596916e-05
0.00010323138
0.00014090094
0.00020108394
0.0003115404
0.000568895
0.0014498334
2.3610023e-05
2.5494336e-05
2.9696066e-05
3.6381238e-05
4.6006008e-05
5.9323579e-05
7.7620115e-05
0.0001032537
0.00014092087
0.00020110032
0.00031155314
0.00056890656
0.0014498661
2.3621805e-05
2.5507167e-05
2.971094e-05
3.639862e-05
4.6025748e-05
5.9344914e-05
7.7641833e-05
0.00010327439
0.0001409391
0.0002011152
0.00031156482
0.00056891775
0.001449899
2.3633538e-05
2.5519849e-05
2.9725461e-05
3.6415372e-05
4.6044545e-05
5.9365016e-05
7.7662095e-05
0.00010329343
0.0001409557
0.00020112866
0.00031157549
0.0005689286
0.0014499323
2.3645159e-05
2.5532325e-05
2.9739582e-05
3.6431458e-05
4.6062384e-05
5.9383887e-05
7.7680881e-05
0.00010331087
0.00014097074
0.00020114075
0.00031158516
0.00056893905
0.0014499657
2.3656612e-05
2.5544542e-05
2.9753258e-05
3.6446849e-05
4.6079254e-05
5.9401515e-05
7.7698206e-05
0.00010332677
0.00014098427
0.00020115153
0.00031159388
0.00056894905
0.0014499989
2.3667846e-05
2.5556456e-05
2.9766454e-05
3.6461524e-05
4.6095138e-05
5.9417897e-05
7.7714102e-05
0.00010334115
0.00014099636
0.00020116105
0.00031160163
0.00056895853
0.0014500319
2.3678819e-05
2.5568026e-05
2.977914e-05
3.6475458e-05
4.6110022e-05
5.9433047e-05
7.7728609e-05
0.0001033541
0.00014100705
0.00020116935
0.00031160844
0.0005689674
0.0014500642
2.3689492e-05
2.5579219e-05
2.9791285e-05
3.6488631e-05
4.6123907e-05
5.9446991e-05
7.7741766e-05
0.00010336564
0.00014101641
0.00020117648
0.00031161432
0.00056897559
0.0014500956
2.369983e-05
2.5590001e-05
2.9802865e-05
3.6501034e-05
4.6136804e-05
5.9459756e-05
7.7753623e-05
0.00010337586
0.00014102451
0.00020118251
0.0003116193
0.00056898308
0.0014501257
2.3709801e-05
2.5600344e-05
2.9813862e-05
3.6512662e-05
4.6148726e-05
5.9471377e-05
7.7764231e-05
0.0001033848
0.00014103141
0.00020118749
0.00031162343
0.00056898984
0.0014501545
2.3719381e-05
2.5610228e-05
2.9824263e-05
3.652352e-05
4.6159696e-05
5.9481894e-05
7.7773646e-05
0.00010339255
0.0001410372
0.0002011915
0.00031162677
0.00056899591
0.0014501817
2.3728548e-05
2.5619637e-05
2.9834064e-05
3.6533616e-05
4.6169738e-05
5.9491352e-05
7.778193e-05
0.00010339918
0.00014104194
0.00020119462
0.00031162939
0.00056900134
0.0014502073
2.373729e-05
2.5628561e-05
2.9843264e-05
3.6542964e-05
4.6178885e-05
5.9499797e-05
7.7789146e-05
0.00010340475
0.00014104573
0.00020119695
0.00031163138
0.0005690062
0.0014502314
2.3745594e-05
2.5636994e-05
2.9851867e-05
3.655158e-05
4.6187169e-05
5.9507282e-05
7.7795359e-05
0.00010340935
0.00014104865
0.00020119855
0.00031163284
0.00056901061
0.001450254
2.3753456e-05
2.5644933e-05
2.985988e-05
3.6559487e-05
4.6194628e-05
5.9513858e-05
7.7800635e-05
0.00010341305
0.00014105077
0.00020119952
0.00031163383
0.00056901466
0.0014502753
2.3760871e-05
2.5652382e-05
2.9867314e-05
3.6566708e-05
4.6201298e-05
5.9519577e-05
7.7805038e-05
0.00010341593
0.00014105218
0.00020119994
0.00031163444
0.00056901842
0.0014502955
2.3767841e-05
2.5659344e-05
2.9874183e-05
3.6573267e-05
4.620722e-05
5.952449e-05
7.7808631e-05
0.00010341804
0.00014105293
0.00020119985
0.00031163473
0.00056902196
0.0014503147
2.3774367e-05
2.5665825e-05
2.98805e-05
3.657919e-05
4.6212429e-05
5.9528648e-05
7.7811471e-05
0.00010341947
0.0001410531
0.00020119932
0.00031163472
0.00056902532
0.0014503332