/*--------------------------------*- C++ -*----------------------------------*\
| =========                 |                                                 |
| \\      /  F ield         | OpenFOAM: The Open Source CFD Toolbox           |
|  \\    /   O peration     | Version:  2506                                  |
|   \\  /    A nd           | Website:  www.openfoam.com                      |
|    \\/     M anipulation  |                                                 |
\*---------------------------------------------------------------------------*/
FoamFile
{
    version     2.0;
    format      ascii;
    arch        "LSB;label=32;scalar=64";
    class       volScalarField;
    location    "4000/water";
    object      nut;
}
// * * * * * * * * * * * * * * * * * * * * * * * * * * * * * * * * * * * * * //

dimensions      [0 2 -1 0 0 0 0];

internalField   nonuniform List<scalar> 
2600
(
4.0562043e-05
4.0561942e-05
4.0561944e-05
4.0561981e-05
4.0561942e-05
4.0561434e-05
4.0558261e-05
4.0540002e-05
4.0435343e-05
3.98338e-05
3.6541397e-05
2.4161555e-05
1.4889524e-05
3.944741e-05
3.9447468e-05
3.944759e-05
3.9447676e-05
3.9447275e-05
3.9444342e-05
3.9428907e-05
3.9352895e-05
3.8988431e-05
3.7314814e-05
3.0763187e-05
1.7536144e-05
1.684056e-05
3.852265e-05
3.852264e-05
3.8522725e-05
3.8522528e-05
3.8520597e-05
3.8510798e-05
3.8466747e-05
3.8277827e-05
3.7500368e-05
3.454641e-05
2.5814945e-05
1.4669956e-05
1.7712619e-05
3.7742032e-05
3.774193e-05
3.7741811e-05
3.7740766e-05
3.7735283e-05
3.7711707e-05
3.7617453e-05
3.7258039e-05
3.5961308e-05
3.177518e-05
2.2061889e-05
1.3531464e-05
1.7967898e-05
3.7073562e-05
3.7073366e-05
3.7072781e-05
3.7069955e-05
3.7057916e-05
3.7011651e-05
3.6843992e-05
3.6266509e-05
3.4405655e-05
2.9188861e-05
1.9425178e-05
1.3345943e-05
1.7902414e-05
3.6493786e-05
3.6493393e-05
3.6491924e-05
3.648598e-05
3.646354e-05
3.6384687e-05
3.612226e-05
3.5294625e-05
3.2873382e-05
2.6881541e-05
1.771645e-05
1.3793839e-05
1.7689846e-05
3.5985207e-05
3.5984445e-05
3.5981496e-05
3.5970726e-05
3.5933497e-05
3.5812307e-05
3.5437992e-05
3.4343601e-05
3.1395257e-05
2.4892541e-05
1.6781972e-05
1.4727875e-05
1.7427344e-05
3.5534568e-05
3.55332e-05
3.5528007e-05
3.5510417e-05
3.5453869e-05
3.5281761e-05
3.478374e-05
3.3418009e-05
2.9989903e-05
2.3242727e-05
1.6521213e-05
1.605365e-05
1.7168093e-05
3.5131649e-05
3.5129373e-05
3.5121029e-05
3.5094485e-05
3.5014364e-05
3.4784646e-05
3.4156253e-05
3.2521766e-05
2.8667649e-05
2.1957692e-05
1.6869959e-05
1.7676047e-05
1.694009e-05
3.4768438e-05
3.47649e-05
3.4752406e-05
3.4714802e-05
3.4607522e-05
3.4315777e-05
3.3554458e-05
3.16563e-05
2.7438403e-05
2.1076946e-05
1.7774701e-05
1.9481897e-05
1.6755877e-05
3.4438571e-05
3.443338e-05
3.4415717e-05
3.4365168e-05
3.4228127e-05
3.3872266e-05
3.2977968e-05
3.0820513e-05
2.6321667e-05
2.0649591e-05
1.9168673e-05
2.1348725e-05
1.6617712e-05
3.4136931e-05
3.4129689e-05
3.4105903e-05
3.4040932e-05
3.3872746e-05
3.3452766e-05
3.2426062e-05
3.0012536e-05
2.5355877e-05
2.0719809e-05
2.0958175e-05
2.3166793e-05
1.6521078e-05
3.3859367e-05
3.3849701e-05
3.3819003e-05
3.3738723e-05
3.3539365e-05
3.3056856e-05
3.1897087e-05
2.923354e-05
2.4602257e-05
2.1309035e-05
2.3024752e-05
2.4858007e-05
1.6457822e-05
3.3602495e-05
3.3590098e-05
3.355197e-05
3.3456247e-05
3.3227088e-05
3.2684517e-05
3.1388405e-05
2.8493549e-05
2.4138757e-05
2.2402735e-05
2.5241354e-05
2.6381455e-05
1.6418929e-05
3.3363555e-05
3.334823e-05
3.3302533e-05
3.3192135e-05
3.2935885e-05
3.2335692e-05
3.0897111e-05
2.7818119e-05
2.4044358e-05
2.3946906e-05
2.7493335e-05
2.7726694e-05
1.6396422e-05
3.3140311e-05
3.3122024e-05
3.3069114e-05
3.2945826e-05
3.2666358e-05
3.2009929e-05
3.0421904e-05
2.725306e-05
2.4379894e-05
2.5855075e-05
2.9693858e-05
2.8902281e-05
1.6384202e-05
3.2930983e-05
3.2909915e-05
3.2850758e-05
3.2717477e-05
3.2419519e-05
3.1706209e-05
2.9966345e-05
2.6863467e-05
2.5173338e-05
2.8023002e-05
3.1788481e-05
2.9925862e-05
1.6378087e-05
3.27342e-05
3.2710811e-05
3.2647097e-05
3.2507877e-05
3.219656e-05
3.1423099e-05
2.9543334e-05
2.6725089e-05
2.6414165e-05
3.0346001e-05
3.3750499e-05
3.0817911e-05
1.6375449e-05
3.254898e-05
3.2524066e-05
3.2458325e-05
3.2318371e-05
3.1998619e-05
3.1159479e-05
2.9179673e-05
2.6909997e-05
2.805682e-05
3.2733298e-05
3.5572232e-05
3.159849e-05
1.6374764e-05
3.2374714e-05
3.234948e-05
3.2285189e-05
3.2150777e-05
3.1826588e-05
3.0916123e-05
2.8918575e-05
2.7471841e-05
3.0030665e-05
3.5115834e-05
3.7256818e-05
3.2285747e-05
1.6375224e-05
3.2211173e-05
3.2187303e-05
3.2128983e-05
3.2007273e-05
3.1681012e-05
3.0698309e-05
2.8817773e-05
2.8435851e-05
3.2252929e-05
3.7447133e-05
3.8812576e-05
3.2895331e-05
1.6376448e-05
3.2058522e-05
3.2038256e-05
3.199155e-05
3.1890271e-05
3.1562235e-05
3.051924e-05
2.8942305e-05
2.9795901e-05
3.464125e-05
3.9699498e-05
4.0249838e-05
3.3440303e-05
1.6378293e-05
3.1917349e-05
3.1903563e-05
3.1875268e-05
3.1802262e-05
3.147098e-05
3.0403414e-05
2.9353632e-05
3.1518042e-05
3.7123065e-05
4.1858567e-05
4.1579379e-05
3.3931333e-05
1.6380731e-05
3.1788707e-05
3.1784988e-05
3.1783034e-05
3.1745667e-05
3.1409596e-05
3.0388388e-05
3.0098641e-05
3.3548311e-05
3.9640504e-05
4.3918428e-05
4.2811639e-05
3.4377031e-05
1.638378e-05
3.167417e-05
3.1684884e-05
3.1718215e-05
3.1722747e-05
3.1384107e-05
3.0523333e-05
3.1201975e-05
3.5822342e-05
4.2151079e-05
4.5878174e-05
4.3956334e-05
3.4784314e-05
1.6387467e-05
3.1575896e-05
3.1606239e-05
3.1684577e-05
3.1735683e-05
3.1406919e-05
3.0863671e-05
3.2663378e-05
3.8274457e-05
4.4625624e-05
4.7739784e-05
4.5022274e-05
3.5158739e-05
1.6391813e-05
3.1496714e-05
3.155272e-05
3.1686171e-05
3.1786997e-05
3.1499546e-05
3.1462866e-05
3.445981e-05
4.0844581e-05
4.7045146e-05
4.9506882e-05
4.6017315e-05
3.5504794e-05
1.6396824e-05
3.1440215e-05
3.1528703e-05
3.1727217e-05
3.1880504e-05
3.1694229e-05
3.2363743e-05
3.6550942e-05
4.3482185e-05
4.939784e-05
5.1183996e-05
4.6948402e-05
3.5826124e-05
1.6402494e-05
3.141085e-05
3.1539289e-05
3.1812006e-05
3.2022926e-05
3.2033144e-05
3.3591894e-05
3.8886229e-05
4.6147426e-05
5.1676787e-05
5.2776063e-05
4.782164e-05
3.6125718e-05
1.6408802e-05
3.1414042e-05
3.1590274e-05
3.1944928e-05
3.2226119e-05
3.2564562e-05
3.5152684e-05
4.1411886e-05
4.8810349e-05
5.3878385e-05
5.4288122e-05
4.8642393e-05
3.6406048e-05
1.6415722e-05
3.1456281e-05
3.1688095e-05
3.2130757e-05
3.2509432e-05
3.333648e-05
3.7032009e-05
4.4076506e-05
5.1449131e-05
5.6001296e-05
5.5725115e-05
4.9415388e-05
3.6669254e-05
1.642322e-05
3.1545208e-05
3.183974e-05
3.2375386e-05
3.2901322e-05
3.4389412e-05
3.9199975e-05
4.6834634e-05
5.4048188e-05
5.804569e-05
5.7091637e-05
5.0144339e-05
3.6914943e-05
1.6431248e-05
3.1689662e-05
3.2052668e-05
3.2687145e-05
3.3439134e-05
3.5750339e-05
4.1616209e-05
4.9648333e-05
5.6596558e-05
6.0012742e-05
5.8392011e-05
5.0832727e-05
3.7144923e-05
1.6439749e-05
3.1899683e-05
3.2334823e-05
3.3078703e-05
3.4166338e-05
3.7429301e-05
4.4235459e-05
5.2487192e-05
5.9086683e-05
6.1904244e-05
5.9630092e-05
5.1482696e-05
3.7361244e-05
1.6448668e-05
3.2186465e-05
3.2694872e-05
3.3569195e-05
3.5127409e-05
3.9419064e-05
4.7012428e-05
5.5327449e-05
6.1513507e-05
6.3722343e-05
6.0809394e-05
5.2096451e-05
3.7565313e-05
1.6457958e-05
3.2562281e-05
3.3142861e-05
3.418583e-05
3.6361549e-05
4.1697458e-05
4.9905187e-05
5.8150806e-05
6.3873834e-05
6.5469391e-05
6.1933118e-05
5.26774e-05
3.7758158e-05
1.6467586e-05
3.3040473e-05
3.3691439e-05
3.4963992e-05
3.7896945e-05
4.423143e-05
5.2877047e-05
6.0943282e-05
6.6165777e-05
6.7147566e-05
6.3002905e-05
5.3228279e-05
3.7940823e-05
1.6477531e-05
3.3635637e-05
3.4357646e-05
3.5945064e-05
3.974699e-05
4.6981719e-05
5.5897117e-05
6.3694247e-05
6.8388429e-05
6.8759334e-05
6.4022594e-05
5.3751053e-05
3.8114078e-05
1.6487766e-05
3.4364221e-05
3.5164898e-05
3.7171974e-05
4.1909153e-05
4.9907175e-05
5.8940022e-05
6.6395662e-05
7.0541365e-05
7.0305656e-05
6.4995388e-05
5.4247639e-05
3.8278684e-05
1.6498266e-05
3.5245717e-05
3.614441e-05
3.8683387e-05
4.4366359e-05
5.2968073e-05
6.1985166e-05
6.9041447e-05
7.2624747e-05
7.1789407e-05
6.5923871e-05
5.4719659e-05
3.8435268e-05
1.6509004e-05
3.6304386e-05
3.733501e-05
4.0508065e-05
4.7090193e-05
5.6128202e-05
6.501594e-05
7.1626951e-05
7.4638165e-05
7.3213263e-05
6.6810356e-05
5.5168629e-05
3.8584369e-05
1.6519954e-05
3.7571041e-05
3.8780589e-05
4.2660829e-05
5.0044939e-05
5.9355774e-05
6.8018894e-05
7.4148646e-05
7.6582487e-05
7.4579717e-05
6.7656899e-05
5.5595891e-05
3.8726449e-05
1.653109e-05
3.9083846e-05
4.0525208e-05
4.5140966e-05
5.3191572e-05
6.2623565e-05
7.0983101e-05
7.6603207e-05
7.8458834e-05
7.5890906e-05
6.8465403e-05
5.600263e-05
3.8861904e-05
1.6542386e-05
4.0886893e-05
4.2606845e-05
4.7933084e-05
5.6490978e-05
6.590844e-05
7.3899523e-05
7.8988642e-05
8.0268733e-05
7.7148733e-05
6.9237564e-05
5.6389885e-05
3.8991065e-05
1.6553816e-05
4.3025751e-05
4.5051405e-05
5.1009864e-05
5.9906204e-05
6.919086e-05
7.6760132e-05
8.1303258e-05
8.2013415e-05
7.8354961e-05
6.9974895e-05
5.6758559e-05
3.9114209e-05
1.6565353e-05
4.554033e-05
4.7868439e-05
5.4335737e-05
6.3403504e-05
7.2453899e-05
7.9558405e-05
8.3546721e-05
8.3693972e-05
7.9511135e-05
7.067871e-05
5.7109424e-05
3.9231565e-05
1.6576974e-05
4.8456689e-05
5.1049429e-05
5.787061e-05
6.6952741e-05
7.5682774e-05
8.2288855e-05
8.5718419e-05
8.5311363e-05
8.0618594e-05
7.1350136e-05
5.7443131e-05
3.9343314e-05
1.6588653e-05
5.1780092e-05
5.4568608e-05
6.1572923e-05
7.0526855e-05
7.8863933e-05
8.4947807e-05
8.7817758e-05
8.6866343e-05
8.1678447e-05
7.1990112e-05
5.7760215e-05
3.9449593e-05
1.6600366e-05
5.5491334e-05
5.8385613e-05
6.5401375e-05
7.4100909e-05
8.1987173e-05
8.7531654e-05
8.9844035e-05
8.8359436e-05
8.2691568e-05
7.2599391e-05
5.8061095e-05
3.9550498e-05
1.6612086e-05
5.9547194e-05
6.2448886e-05
6.931555e-05
7.7653768e-05
8.5043639e-05
9.0036935e-05
9.179637e-05
8.9790898e-05
8.3658584e-05
7.3178538e-05
5.8346082e-05
3.9646086e-05
1.662379e-05
6.3884441e-05
6.6699763e-05
7.3278183e-05
8.1167564e-05
8.802517e-05
9.2460225e-05
9.3673653e-05
9.1160704e-05
8.4579864e-05
7.3727932e-05
5.8615378e-05
3.973637e-05
1.663545e-05
6.842731e-05
7.1077053e-05
7.7255168e-05
8.462603e-05
9.0924139e-05
9.4798062e-05
9.5474521e-05
9.246853e-05
8.5455522e-05
7.4247763e-05
5.8869076e-05
3.9821327e-05
1.664704e-05
7.3095512e-05
7.5520262e-05
8.1214704e-05
8.8014195e-05
9.3733334e-05
9.7046926e-05
9.719736e-05
9.3713765e-05
8.628542e-05
7.4738042e-05
5.9107164e-05
3.9900895e-05
1.6658531e-05
7.7811259e-05
7.9972294e-05
8.5127257e-05
9.1318185e-05
9.6445921e-05
9.9203266e-05
9.884034e-05
9.4895537e-05
8.7069186e-05
7.5198607e-05
5.9329533e-05
3.9974973e-05
1.6669891e-05
8.250434e-05
8.4381452e-05
8.8965661e-05
9.4525136e-05
9.9055449e-05
0.00010126356
0.00010040148
9.6012755e-05
8.7806242e-05
7.5629142e-05
5.9535983e-05
4.0043428e-05
1.6681088e-05
8.7115003e-05
8.8702735e-05
9.2705346e-05
9.7623209e-05
0.00010155592
0.00010322443
0.00010187874
9.7064187e-05
8.8495853e-05
7.6029204e-05
5.9726235e-05
4.01061e-05
1.6692087e-05
9.1594949e-05
9.2898477e-05
9.6324621e-05
0.00010060169
0.00010394187
0.00010508273
0.00010327014
9.8048545e-05
8.9137189e-05
7.6398262e-05
5.9899959e-05
4.0162808e-05
1.6702851e-05
9.5906995e-05
9.6938419e-05
9.9804921e-05
0.00010345112
0.0001062085
0.00010683569
0.00010457387
9.8964585e-05
8.9729396e-05
7.6735742e-05
6.005679e-05
4.0213359e-05
1.671334e-05
0.00010002395
0.00010079934
0.00010313096
0.00010616346
0.00010835179
0.00010848105
0.00010578843
9.981122e-05
9.0271676e-05
7.7041084e-05
6.0196366e-05
4.0257565e-05
1.6723514e-05
0.00010392714
0.00010446442
0.00010629077
0.00010873218
0.00011036858
0.00011001714
0.00010691273
0.00010058762
9.0763378e-05
7.7313799e-05
6.0318361e-05
4.0295256e-05
1.6733331e-05
0.00010760491
0.00010792241
0.00010927558
0.00011115237
0.00011225666
0.00011144298
0.00010794618
0.00010129329
9.1204067e-05
7.7553526e-05
6.0422515e-05
4.0326292e-05
1.674275e-05
0.00011105121
0.00011116678
0.00011207962
0.00011342075
0.00011401482
0.0001127583
0.00010888876
0.00010192818
9.1593599e-05
7.7760085e-05
6.0508676e-05
4.0350582e-05
1.6751731e-05
0.00011426437
0.00011419491
0.00011469985
0.0001155356
0.00011564282
0.00011396361
0.00010974105
0.00010249269
9.193217e-05
7.7933525e-05
6.0576822e-05
4.0368092e-05
1.6760238e-05
0.0001172461
0.0001170073
0.00011713559
0.00011749673
0.00011714144
0.00011506014
0.00011050426
0.00010298773
9.2220349e-05
7.8074149e-05
6.0627087e-05
4.0378861e-05
1.6768237e-05
0.00012000068
0.00011960698
0.00011938822
0.00011930529
0.00011851236
0.00011604985
0.00011118019
0.0001034147
9.2459099e-05
7.8182541e-05
6.0659775e-05
4.0383002e-05
1.6775699e-05
0.00012253428
0.00012199887
0.00012146083
0.00012096369
0.0001197581
0.00011693535
0.0001117712
0.00010377549
9.2649771e-05
7.8259567e-05
6.0675365e-05
4.0380708e-05
1.6782601e-05
0.00012485447
0.00012418938
0.0001233579
0.0001224754
0.00012088196
0.00011771984
0.00011228016
0.00010407243
9.2794085e-05
7.8306368e-05
6.0674514e-05
4.0372251e-05
1.6788927e-05
0.00012696984
0.00012618602
0.00012508503
0.00012384478
0.00012188788
0.00011840705
0.0001127104
0.00010430826
9.28941e-05
7.8324346e-05
6.065804e-05
4.0357974e-05
1.6794666e-05
0.00012888963
0.00012799706
0.00012664867
0.00012507693
0.00012278039
0.00011900114
0.00011306562
0.00010448606
9.2952173e-05
7.8315132e-05
6.0626913e-05
4.0338287e-05
1.6799816e-05
0.00013062354
0.00012963135
0.00012805594
0.00012617757
0.00012356446
0.00011950663
0.00011334985
0.00010460919
9.2970912e-05
7.8280554e-05
6.0582229e-05
4.0313657e-05
1.6804379e-05
0.00013218153
0.00013109803
0.00012931441
0.00012715284
0.00012424539
0.00011992831
0.00011356733
0.00010468123
9.2953117e-05
7.82226e-05
6.0525186e-05
4.0284592e-05
1.6808365e-05
0.00013357364
0.00013240646
0.00013043195
0.00012800922
0.00012482878
0.00012027118
0.00011372247
0.00010470592
9.2901735e-05
7.8143369e-05
6.0457056e-05
4.025163e-05
1.6811789e-05
0.0001348099
0.00013356604
0.00013141662
0.0001287534
0.00012532038
0.00012054034
0.0001138198
0.00010468707
9.2819796e-05
7.8045037e-05
6.0379158e-05
4.0215325e-05
1.6814673e-05
0.00013590022
0.00013458611
0.00013227651
0.00012939219
0.00012572604
0.00012074097
0.00011386386
0.00010462856
9.2710372e-05
7.792981e-05
6.0292827e-05
4.0176235e-05
1.6817041e-05
0.00013685432
0.00013547588
0.00013301971
0.0001299324
0.00012605162
0.00012087824
0.00011385919
0.00010453423
9.2576525e-05
7.7799889e-05
6.0199392e-05
4.0134911e-05
1.6818921e-05
0.00013768167
0.00013624436
0.00013365417
0.00013038083
0.00012630296
0.00012095725
0.00011381026
0.00010440787
9.2421268e-05
7.7657438e-05
6.0100153e-05
4.0091884e-05
1.6820344e-05
0.00013839145
0.0001369003
0.00013418769
0.00013074415
0.0001264858
0.00012098303
0.00011372145
0.00010425317
9.2247533e-05
7.7504556e-05
5.9996361e-05
4.0047658e-05
1.6821343e-05
0.0001389925
0.00013745215
0.00013462786
0.0001310289
0.00012660577
0.00012096046
0.000113597
0.00010407371
9.2058143e-05
7.7343252e-05
5.9889204e-05
4.0002706e-05
1.6821951e-05
0.00013949332
0.00013790807
0.000134982
0.00013124141
0.00012666831
0.00012089427
0.00011344099
0.0001038729
9.1855793e-05
7.7175431e-05
5.9779796e-05
3.9957463e-05
1.6822202e-05
0.00013990205
0.00013827585
0.00013525719
0.00013138783
0.00012667869
0.00012078902
0.00011325733
0.000103654
9.164303e-05
7.700288e-05
5.9669169e-05
3.9912324e-05
1.6822131e-05
0.00014022643
0.00013856296
0.00013546019
0.00013147405
0.00012664199
0.00012064907
0.00011304975
0.00010342009
9.1422249e-05
7.682726e-05
5.9558269e-05
3.9867644e-05
1.682177e-05
0.00014047384
0.00013877648
0.00013559747
0.0001315057
0.00012656306
0.00012047857
0.00011282176
0.00010317408
9.1195676e-05
7.6650102e-05
5.9447953e-05
3.9823737e-05
1.6821152e-05
0.00014065128
0.00013892315
0.00013567516
0.00013148818
0.00012644651
0.00012028147
0.00011257671
0.00010291867
9.0965371e-05
7.6472798e-05
5.9338986e-05
3.9780874e-05
1.6820309e-05
0.00014076535
0.00013900935
0.00013569911
0.00013142658
0.00012629672
0.00012006149
0.00011231769
0.00010265635
9.0733221e-05
7.6296605e-05
5.9232044e-05
3.9739289e-05
1.6819271e-05
0.00014082229
0.00013904108
0.00013567482
0.00013132575
0.00012611784
0.00011982213
0.0001120476
0.00010238946
9.0500937e-05
7.6122643e-05
5.9127713e-05
3.9699174e-05
1.6818065e-05
0.00014082795
0.000139024
0.00013560748
0.00013119025
0.00012591376
0.00011956664
0.00011176914
0.00010212008
9.0270056e-05
7.5951882e-05
5.9026444e-05
3.9660473e-05
1.6816717e-05
0.00014078782
0.00013896341
0.00013550195
0.00013102434
0.00012568812
0.00011929807
0.00011148475
0.00010185015
9.0041936e-05
7.578515e-05
5.8928596e-05
3.9623138e-05
1.6815249e-05
0.00014070702
0.00013886426
0.0001353628
0.00013083203
0.00012544431
0.00011901924
0.00011119671
0.00010158136
8.981775e-05
7.5623085e-05
5.8834191e-05
3.9587458e-05
1.681368e-05
0.00014059033
0.00013873116
0.00013519428
0.00013061705
0.00012518549
0.00011873273
0.00011090705
0.00010131525
8.959852e-05
7.5466266e-05
5.8743567e-05
3.955356e-05
1.6812029e-05
0.0001404422
0.00013856842
0.00013500033
0.00013038287
0.00012491459
0.0001184409
0.00011061762
0.00010105312
8.9385032e-05
7.531481e-05
5.8657155e-05
3.9521532e-05
1.6810318e-05
0.00014026675
0.00013838004
0.00013478463
0.0001301327
0.00012463428
0.00011814593
0.00011033005
0.00010079612
8.917791e-05
7.5169409e-05
5.8575095e-05
3.9491422e-05
1.6808564e-05
0.00014006782
0.00013816969
0.00013455058
0.00012986951
0.00012434706
0.00011784977
0.00011004581
0.00010054521
8.8977692e-05
7.5030517e-05
5.8497512e-05
3.9463261e-05
1.6806785e-05
0.00013984895
0.00013794082
0.00013430134
0.00012959603
0.00012405516
0.00011755418
0.00010976613
0.00010030106
8.8785174e-05
7.4898378e-05
5.8424481e-05
3.943706e-05
1.6804995e-05
0.00013961339
0.00013769658
0.00013403979
0.0001293148
0.00012376065
0.0001172607
0.00010949203
0.0001000646
8.8600821e-05
7.4773169e-05
5.8356042e-05
3.941281e-05
1.6803209e-05
0.00013936417
0.00013743987
0.00013376861
0.00012902809
0.00012346537
0.00011697068
0.00010922453
9.9836622e-05
8.8424983e-05
7.4655008e-05
5.8292193e-05
3.9390485e-05
1.6801437e-05
0.00013910406
0.00013717337
0.00013349023
0.00012873799
0.00012317093
0.0001166853
0.00010896471
9.9617692e-05
8.8257918e-05
7.4543956e-05
5.8232901e-05
3.9370047e-05
1.6799691e-05
0.00013883558
0.00013689952
0.00013320685
0.00012844632
0.00012287875
0.00011640589
0.00010871336
9.9408252e-05
8.8099804e-05
7.4440021e-05
5.8178104e-05
3.9351444e-05
1.679798e-05
0.00013856103
0.0001366205
0.00013292041
0.00012815473
0.00012259036
0.0001161335
0.00010847117
9.9208643e-05
8.7950742e-05
7.4343159e-05
5.8127713e-05
3.9334617e-05
1.679631e-05
0.00013828244
0.00013633824
0.00013263273
0.00012786491
0.00012230706
0.00011586905
0.00010823868
9.9019112e-05
8.7810762e-05
7.4253283e-05
5.8081613e-05
3.9319496e-05
1.6794689e-05
0.00013800169
0.0001360546
0.00013234553
0.00012757831
0.00012202996
0.00011561329
0.00010801631
9.8839814e-05
8.7679833e-05
7.4170266e-05
5.803967e-05
3.9306006e-05
1.6793121e-05
0.00013772048
0.00013577126
0.00013206036
0.00012729623
0.00012176006
0.00011536687
0.00010780439
9.8670824e-05
8.7557863e-05
7.4093942e-05
5.8001734e-05
3.9294069e-05
1.6791611e-05
0.0001374404
0.00013548973
0.0001317786
0.00012701982
0.00012149818
0.00011513031
0.00010760316
9.8512146e-05
8.7444713e-05
7.4024121e-05
5.796764e-05
3.92836e-05
1.6790163e-05
0.00013716287
0.00013521139
0.00013150148
0.00012675007
0.00012124504
0.000114904
0.00010741274
9.8363716e-05
8.73402e-05
7.3960585e-05
5.7937215e-05
3.9274516e-05
1.6788779e-05
0.00013688914
0.00013493746
0.00013123009
0.00012648786
0.00012100123
0.00011468828
0.00010723321
9.8225419e-05
8.7244106e-05
7.39031e-05
5.7910278e-05
3.9266732e-05
1.678746e-05
0.00013662036
0.00013466901
0.00013096537
0.00012623391
0.00012076723
0.00011448334
0.00010706456
9.8097087e-05
8.7156182e-05
7.3851416e-05
5.7886647e-05
3.9260163e-05
1.6786209e-05
0.00013635753
0.000134407
0.00013070814
0.00012598886
0.00012054343
0.00011428935
0.00010690673
9.7978514e-05
8.7076159e-05
7.3805276e-05
5.7866137e-05
3.9254728e-05
1.6785025e-05
0.00013610152
0.00013415224
0.00013045912
0.00012575323
0.00012033012
0.00011410637
0.00010675959
9.7869458e-05
8.7003744e-05
7.3764414e-05
5.7848564e-05
3.9250347e-05
1.6783909e-05
0.00013585309
0.00013390547
0.00013021891
0.00012552745
0.00012012752
0.00011393439
0.00010662299
9.7769644e-05
8.6938632e-05
7.3728559e-05
5.7833745e-05
3.924694e-05
1.678286e-05
0.00013561289
0.00013366728
0.000129988
0.00012531184
0.00011993576
0.00011377337
0.00010649671
9.7678772e-05
8.6880503e-05
7.369744e-05
5.7821499e-05
3.9244434e-05
1.6781879e-05
0.00013538148
0.00013343818
0.00012976681
0.00012510666
0.0001197549
0.00011362319
0.0001063805
9.7596519e-05
8.6829028e-05
7.3670781e-05
5.7811647e-05
3.9242752e-05
1.6780964e-05
0.00013515931
0.00013321858
0.00012955564
0.00012491207
0.00011958495
0.00011348368
0.00010627407
9.7522542e-05
8.6783869e-05
7.3648308e-05
5.7804015e-05
3.9241825e-05
1.6780114e-05
0.00013494673
0.00013300881
0.00012935474
0.00012472819
0.00011942584
0.00011335464
0.00010617712
9.7456481e-05
8.6744684e-05
7.3629747e-05
5.7798431e-05
3.9241584e-05
1.6779328e-05
0.00013474404
0.00013280912
0.00012916427
0.00012455503
0.00011927746
0.00011323583
0.00010608931
9.7397966e-05
8.6711127e-05
7.3614828e-05
5.7794726e-05
3.9241961e-05
1.6778604e-05
0.00013455142
0.00013261967
0.0001289843
0.00012439257
0.00011913964
0.00011312695
0.00010601028
9.7346616e-05
8.6682853e-05
7.3603286e-05
5.779274e-05
3.9242894e-05
1.677794e-05
0.00013436903
0.00013244057
0.00012881489
0.00012424073
0.00011901219
0.0001130277
0.00010593965
9.730205e-05
8.6659523e-05
7.3594865e-05
5.7792317e-05
3.9244323e-05
1.6777335e-05
0.00013419692
0.00013227186
0.00012865598
0.00012409937
0.00011889485
0.00011293775
0.00010587705
9.7263883e-05
8.6640802e-05
7.3589313e-05
5.7793311e-05
3.9246193e-05
1.6776785e-05
0.0001340351
0.00013211351
0.00012850752
0.00012396833
0.00011878736
0.00011285675
0.00010582207
9.7231734e-05
8.6626363e-05
7.3586393e-05
5.7795581e-05
3.9248451e-05
1.6776289e-05
0.00013388353
0.00013196547
0.00012836935
0.0001238474
0.00011868942
0.00011278432
0.00010577433
9.7205226e-05
8.6615889e-05
7.3585874e-05
5.7798996e-05
3.9251049e-05
1.6775844e-05
0.00013374211
0.0001318276
0.00012824132
0.00012373631
0.0001186007
0.00011272009
0.00010573343
9.7183985e-05
8.6609068e-05
7.3587536e-05
5.7803429e-05
3.9253941e-05
1.6775449e-05
0.00013361071
0.00013169975
0.0001281232
0.0001236348
0.00011852084
0.00011266365
0.00010569896
9.716764e-05
8.6605598e-05
7.3591164e-05
5.7808762e-05
3.9257084e-05
1.6775101e-05
0.00013348912
0.0001315817
0.00012801475
0.00012354254
0.00011844949
0.00011261462
0.00010567051
9.7155825e-05
8.6605185e-05
7.3596555e-05
5.7814878e-05
3.9260436e-05
1.6774798e-05
0.00013337711
0.00013147321
0.00012791568
0.00012345921
0.00011838625
0.00011257256
0.00010564769
9.7148179e-05
8.6607538e-05
7.3603506e-05
5.7821668e-05
3.9263958e-05
1.6774536e-05
0.00013327443
0.00013137399
0.00012782567
0.00012338443
0.00011833071
0.00011253707
0.00010563009
9.7144345e-05
8.6612376e-05
7.3611826e-05
5.7829025e-05
3.9267613e-05
1.6774315e-05
0.00013318078
0.00013128374
0.00012774438
0.00012331782
0.00011828247
0.00011250771
0.0001056173
9.7143973e-05
8.6619427e-05
7.3621328e-05
5.7836847e-05
3.9271362e-05
1.677413e-05
0.00013309582
0.00013120211
0.00012767144
0.00012325898
0.0001182411
0.00011248406
0.00010560894
9.7146725e-05
8.6628427e-05
7.3631836e-05
5.7845039e-05
3.9275174e-05
1.677398e-05
0.00013301922
0.00013112876
0.00012760647
0.00012320752
0.00011820618
0.00011246572
0.00010560461
9.7152281e-05
8.6639132e-05
7.3643187e-05
5.7853512e-05
3.9279016e-05
1.6773861e-05
0.00013295063
0.00013106332
0.00012754911
0.00012316303
0.00011817731
0.00011245228
0.00010560396
9.7160337e-05
8.6651313e-05
7.3655231e-05
5.7862189e-05
3.9282864e-05
1.6773771e-05
0.0001328897
0.00013100544
0.00012749897
0.00012312512
0.00011815408
0.00011244336
0.00010560666
9.7170614e-05
8.6664763e-05
7.3667835e-05
5.7871002e-05
3.9286695e-05
1.6773708e-05
0.00013283608
0.00013095476
0.00012745567
0.0001230934
0.00011813611
0.0001124386
0.00010561237
9.7182856e-05
8.6679296e-05
7.3680883e-05
5.7879892e-05
3.9290492e-05
1.6773669e-05
0.00013278943
0.00013091092
0.00012741887
0.00012306751
0.00011812305
0.00011243767
0.00010562082
9.719683e-05
8.6694747e-05
7.3694273e-05
5.7888813e-05
3.9294243e-05
1.6773653e-05
0.00013274941
0.00013087358
0.00012738819
0.00012304709
0.00011811453
0.00011244024
0.00010563172
9.7212322e-05
8.6710965e-05
7.3707917e-05
5.7897725e-05
3.9297937e-05
1.6773658e-05
0.00013271568
0.0001308424
0.0001273633
0.00012303178
0.00011811024
0.00011244601
0.00010564482
9.7229133e-05
8.6727813e-05
7.3721736e-05
5.7906593e-05
3.9301565e-05
1.6773682e-05
0.0001326879
0.00013081703
0.00012734383
0.00012302124
0.00011810982
0.00011245469
0.00010565988
9.7247071e-05
8.674516e-05
7.3735652e-05
5.7915382e-05
3.9305119e-05
1.6773724e-05
0.00013266569
0.0001307971
0.00012732944
0.00012301511
0.00011811296
0.00011246597
0.00010567663
9.7265946e-05
8.6762876e-05
7.374959e-05
5.7924059e-05
3.9308589e-05
1.6773783e-05
0.00013264871
0.00013078225
0.00012731974
0.00012301304
0.00011811931
0.00011247956
0.00010569484
9.7285568e-05
8.6780828e-05
7.376347e-05
5.7932586e-05
3.9311963e-05
1.6773858e-05
0.00013263655
0.00013077209
0.00012731435
0.00012301465
0.00011812853
0.00011249514
0.00010571425
9.7305742e-05
8.679888e-05
7.3777209e-05
5.7940922e-05
3.9315228e-05
1.6773945e-05
0.0001326288
0.00013076621
0.00012731288
0.00012301957
0.00011814028
0.00011251243
0.00010573461
9.7326274e-05
8.6816896e-05
7.3790722e-05
5.7949023e-05
3.9318368e-05
1.6774045e-05
0.00013262507
0.00013076422
0.00012731494
0.00012302741
0.00011815419
0.00011253112
0.00010575568
9.7346976e-05
8.6834743e-05
7.3803926e-05
5.7956843e-05
3.9321346e-05
1.6774153e-05
0.00013262494
0.00013076569
0.00012732012
0.00012303781
0.00011816996
0.00011255091
0.00010577721
9.736767e-05
8.6852297e-05
7.3816744e-05
5.796434e-05
3.9324146e-05
1.6774268e-05
0.00013262801
0.00013077025
0.00012732805
0.00012305041
0.00011818725
0.00011257155
0.00010579901
9.73882e-05
8.6869451e-05
7.3829108e-05
5.7971468e-05
3.9326772e-05
1.6774388e-05
0.00013263393
0.00013077753
0.00012733839
0.00012306489
0.00011820579
0.00011259281
0.00010582088
9.7408438e-05
8.6886122e-05
7.3840971e-05
5.7978205e-05
3.9329225e-05
1.677451e-05
0.00013264236
0.00013078721
0.00012735081
0.00012308099
0.00011822534
0.00011261449
0.0001058427
9.7428285e-05
8.6902249e-05
7.385229e-05
5.7984563e-05
3.9331509e-05
1.6774634e-05
0.00013265301
0.00013079901
0.00012736507
0.00012309844
0.00011824569
0.00011263643
0.00010586434
9.7447676e-05
8.6917802e-05
7.3863065e-05
5.7990552e-05
3.9333632e-05
1.6774758e-05
0.00013266567
0.00013081269
0.00012738093
0.00012311707
0.0001182667
0.00011265853
0.00010588574
9.746657e-05
8.6932752e-05
7.3873323e-05
5.7996186e-05
3.9335604e-05
1.6774882e-05
0.00013268012
0.00013082806
0.00012739822
0.0001231367
0.00011828823
0.00011268069
0.00010590683
9.7484941e-05
8.6947122e-05
7.3883082e-05
5.8001486e-05
3.9337438e-05
1.6775005e-05
0.0001326962
0.00013084495
0.00012741677
0.00012315721
0.00011831018
0.00011270284
0.00010592759
9.7502776e-05
8.6960936e-05
7.3892364e-05
5.8006473e-05
3.9339148e-05
1.6775129e-05
0.00013271375
0.00013086321
0.00012743643
0.00012317846
0.00011833245
0.00011272491
0.00010594796
9.7520084e-05
8.6974203e-05
7.3901192e-05
5.8011171e-05
3.9340744e-05
1.6775253e-05
0.00013273261
0.00013088267
0.00012745707
0.00012320033
0.00011835492
0.00011274681
0.00010596792
9.7536852e-05
8.6986929e-05
7.3909581e-05
5.8015594e-05
3.9342237e-05
1.6775376e-05
0.00013275261
0.00013090317
0.00012747851
0.00012322267
0.00011837748
0.00011276847
0.00010598741
9.7553054e-05
8.6999107e-05
7.3917537e-05
5.8019752e-05
3.934363e-05
1.6775501e-05
0.00013277354
0.00013092451
0.00012750058
0.00012324531
0.0001184
0.00011278979
0.00010600636
9.7568649e-05
8.7010717e-05
7.3925053e-05
5.8023646e-05
3.9344926e-05
1.6775625e-05
0.0001327952
0.00013094648
0.00012752306
0.00012326807
0.00011842233
0.00011281066
0.00010602471
9.7583583e-05
8.7021726e-05
7.3932113e-05
5.8027269e-05
3.9346121e-05
1.6775749e-05
0.00013281731
0.00013096884
0.00012754574
0.00012329076
0.00011844431
0.00011283097
0.00010604235
9.7597791e-05
8.7032094e-05
7.3938693e-05
5.803061e-05
3.9347211e-05
1.6775871e-05
0.00013283964
0.00013099133
0.0001275684
0.0001233132
0.00011846579
0.00011285057
0.00010605919
9.7611209e-05
8.7041779e-05
7.3944769e-05
5.8033653e-05
3.9348189e-05
1.677599e-05
0.00013286193
0.00013101374
0.00012759083
0.0001233352
0.00011848662
0.00011286937
0.00010607516
9.7623781e-05
8.7050744e-05
7.3950318e-05
5.8036389e-05
3.934905e-05
1.6776105e-05
0.00013288396
0.00013103584
0.00012761283
0.0001233566
0.00011850668
0.00011288726
0.00010609018
9.7635466e-05
8.7058966e-05
7.3955327e-05
5.8038809e-05
3.9349792e-05
1.6776215e-05
0.00013290556
0.00013105747
0.00012763425
0.00012337727
0.00011852585
0.00011290418
0.00010610421
9.7646246e-05
8.7066441e-05
7.39598e-05
5.8040917e-05
3.9350414e-05
1.6776319e-05
0.00013292658
0.00013107849
0.00012765498
0.00012339712
0.0001185441
0.0001129201
0.00010611726
9.765613e-05
8.7073184e-05
7.3963751e-05
5.8042724e-05
3.9350924e-05
1.6776416e-05
0.00013294697
0.00013109884
0.00012767496
0.00012341612
0.00011856139
0.00011293502
0.00010612934
9.7665151e-05
8.7079233e-05
7.3967214e-05
5.8044253e-05
3.935133e-05
1.6776505e-05
0.00013296668
0.00013111848
0.00012769416
0.00012343426
0.00011857776
0.00011294899
0.0001061405
9.7673369e-05
8.7084643e-05
7.3970233e-05
5.8045532e-05
3.9351646e-05
1.6776588e-05
0.00013298573
0.00013113743
0.00012771262
0.00012345158
0.00011859323
0.00011296206
0.00010615082
9.7680855e-05
8.7089481e-05
7.3972862e-05
5.8046598e-05
3.9351887e-05
1.6776665e-05
0.00013300418
0.00013115574
0.00012773037
0.00012346812
0.0001186079
0.00011297432
0.00010616038
9.768769e-05
8.7093818e-05
7.3975158e-05
5.8047486e-05
3.9352069e-05
1.6776736e-05
0.00013302207