/*--------------------------------*- C++ -*----------------------------------*\
| =========                 |                                                 |
| \\      /  F ield         | OpenFOAM: The Open Source CFD Toolbox           |
|  \\    /   O peration     | Version:  2506                                  |
|   \\  /    A nd           | Website:  www.openfoam.com                      |
|    \\/     M anipulation  |                                                 |
\*---------------------------------------------------------------------------*/
FoamFile
{
    version     2.0;
    format      ascii;
    arch        "LSB;label=32;scalar=64";
    class       surfaceScalarField;
    location    "4000/water";
    object      phi;
}
// * * * * * * * * * * * * * * * * * * * * * * * * * * * * * * * * * * * * * //

dimensions      [1 0 -1 0 0 0 0];

oriented        oriented;

internalField   nonuniform List<scalar> 
4987
(
-6.9167736e-06
0.00085760419
-2.7656569e-05
0.0024926737
-6.1431121e-05
0.0040117068
-0.0001075903
0.0054211695
-0.00016565319
0.0067272392
-0.00023525167
0.0079357375
-0.00031606519
0.0090521266
-0.00040763483
0.010081416
-0.00050867084
0.011027654
-0.00061447105
0.011892066
-0.00070641237
0.012665127
-0.00069017742
0.01327532
0.013255156
-6.4252097e-06
0.00086402939
-2.4701717e-05
0.0025109502
-5.3973207e-05
0.0040409782
-9.3433184e-05
0.0054606295
-0.00014227852
0.0067760845
-0.00019970621
0.0079931652
-0.00026484255
0.0091172629
-0.00033648012
0.010153054
-0.00041221923
0.011103393
-0.00048568429
0.011965531
-0.00053558126
0.012715024
-0.00047144624
0.013211185
0.01278371
-6.1639689e-06
0.00087019336
-2.380905e-05
0.0025285953
-5.2164898e-05
0.0040693341
-9.0528703e-05
0.0054989933
-0.00013822172
0.0068237776
-0.00019455674
0.0080495002
-0.00025870612
0.0091814123
-0.00032929751
0.010223645
-0.00040329175
0.011177387
-0.00047276141
0.012035
-0.00051220841
0.012754471
-0.00042242592
0.013121403
0.012361284
-6.1054146e-06
0.00087629878
-2.3924376e-05
0.0025464143
-5.2620538e-05
0.0040980303
-9.1395558e-05
0.0055377683
-0.00013947504
0.006871857
-0.00019604176
0.0081060669
-0.00026004543
0.009245416
-0.00032969289
0.010293293
-0.00040116834
0.011248863
-0.00046497904
0.012098811
-0.00049117541
0.012780667
-0.00037835998
0.013008587
0.011982924
-5.9919784e-06
0.00088229076
-2.3432324e-05
0.0025638546
-5.1502782e-05
0.0041261007
-8.9417765e-05
0.0055756833
-0.0001363976
0.0069188369
-0.00019157934
0.0081612487
-0.00025377584
0.0093076125
-0.0003208868
0.010360404
-0.00038849227
0.011316468
-0.0004456482
0.012155967
-0.00045837524
0.012793394
-0.00033102689
0.012881239
0.011651897
-5.8197985e-06
0.00088811056
-2.2720415e-05
0.0025807553
-4.9911333e-05
0.0041532916
-8.6629801e-05
0.0056124017
-0.00013209822
0.0069643053
-0.00018540983
0.0082145603
-0.00024524284
0.0093674455
-0.00030921061
0.010424371
-0.00037232044
0.011379578
-0.00042207813
0.012205725
-0.00042081904
0.012792135
-0.00028517408
0.012745594
0.011366723
-5.6148952e-06
0.00089372545
-2.1923414e-05
0.0025970638
-4.8158186e-05
0.0041795264
-8.35701e-05
0.0056478136
-0.00012737381
0.007008109
-0.00017860877
0.0082657952
-0.00023581604
0.0094246528
-0.00029633568
0.010484891
-0.0003545854
0.011437828
-0.00039630862
0.012247448
-0.00038067559
0.012776502
-0.00024201049
0.012606929
0.011124713
-5.4046947e-06
0.00089913014
-2.1106786e-05
0.0026127659
-4.6361915e-05
0.0042047815
-8.0433154e-05
0.0056818849
-0.00012252438
0.0070502002
-0.00017161842
0.0083148893
-0.0002261212
0.0094791555
-0.00028309872
0.010541869
-0.00033629459
0.011491024
-0.00036936757
0.012280521
-0.00033930313
0.012746438
-0.00020218079
0.012469807
0.010922532
-5.2040372e-06
0.00090433418
-2.0322449e-05
0.0026278843
-4.4632487e-05
0.0042290916
-7.7407183e-05
0.0057146596
-0.000117836
0.007090629
-0.00016484161
0.0083618949
-0.00021669175
0.0095310057
-0.00027015443
0.010595331
-0.00031814583
0.011539015
-0.00034189245
0.012304267
-0.00029797663
0.012702522
-0.0001662914
0.012338121
0.010756241
-5.0193754e-06
0.00090935356
-1.9599432e-05
0.0026424643
-4.3036007e-05
0.0042525281
-7.4608171e-05
0.0057462317
-0.00011348606
0.0071295069
-0.00015852683
0.0084069356
-0.0002078498
0.0095803287
-0.00025787593
0.010645357
-0.00030047882
0.011581618
-0.00031421626
0.012318005
-0.00025799659
0.012646302
-0.00013488814
0.012215013
0.010621352
-4.8544121e-06
0.00091420797
-1.8953518e-05
0.0026565634
-4.1607992e-05
0.0042751826
-7.2098328e-05
0.0057767221
-0.00010956978
0.0071669784
-0.00015280648
0.0084501723
-0.00019976083
0.009627283
-0.00024643025
0.010692027
-0.00028338283
0.01161857
-0.00028657101
0.012321193
-0.00022065197
0.012580383
-0.00010831398
0.012102675
0.010513039
-4.7104907e-06
0.00091891846
-1.838964e-05
0.0026702426
-4.0359025e-05
0.004297152
-6.9895773e-05
0.0058062588
-0.00010611414
0.0072031967
-0.00014771517
0.0084917734
-0.00019245611
0.0096720239
-0.00023580475
0.010735375
-0.00026674607
0.011649512
-0.00025920371
0.012313651
-0.00018698909
0.012508168
-8.6549234e-05
0.012002235
0.010426489
-4.5864894e-06
0.00092350495
-1.7903118e-05
0.0026835592
-3.9278552e-05
0.0043185274
-6.7981782e-05
0.0058349621
-0.00010308929
0.0072383042
-0.0001432058
0.0085318899
-0.00018585427
0.0097146724
-0.00022583645
0.010775358
-0.0002503233
0.011673999
-0.00023244679
0.012295774
-0.00015760689
0.012433329
-6.9195206e-05
0.011913823
0.010357294
-4.47971e-06
0.00092798466
-1.7483378e-05
0.0026965629
-3.8343221e-05
0.0043393873
-6.6315361e-05
0.0058629342
-0.00010043089
0.0072724198
-0.00013918123
0.0085706402
-0.00017980338
0.0097552946
-0.00021627053
0.010811825
-0.0002338457
0.011691574
-0.00020673154
0.01226866
-0.0001326094
0.012359206
-5.5603111e-05
0.011836817
0.010301691
-4.3869483e-06
0.00093237161
-1.7117943e-05
0.0027092939
-3.7525518e-05
0.0043597948
-6.4848148e-05
0.0058902568
-9.8062773e-05
0.0073056344
-0.00013552609
0.0086081035
-0.00017412332
0.0097938918
-0.00020682319
0.010844525
-0.00021713162
0.011701882
-0.00018252415
0.012234053
-0.0001117049
0.012288387
-4.5044655e-05
0.011770157
0.010256646
-4.3051909e-06
0.0009366768
-1.6795059e-05
0.0027217838
-3.6799451e-05
0.0043797992
-6.3534223e-05
0.0059169916
-9.5911854e-05
0.007338012
-0.0001321276
0.0086443193
-0.00016863371
0.0098303979
-0.0001972305
0.010873121
-0.00020015793
0.01170481
-0.0001602209
0.012194115
-9.4372483e-05
0.012222539
-3.6838818e-05
0.011712623
0.010219807
-4.2319149e-06
0.00094090871
-1.6504851e-05
0.0027340567
-3.6143084e-05
0.0043994375
-6.2334437e-05
0.005943183
-9.3914665e-05
0.0073695922
-0.00012888455
0.0086792892
-0.00016316714
0.0098646805
-0.00018728235
0.010897237
-0.00018307195
0.011700599
-0.00014006424
0.012151108
-8.0017929e-05
0.012162492
-3.041251e-05
0.011663018
0.010189395
-4.1651418e-06
0.00094507386
-1.6239539e-05
0.0027461311
-3.5538992e-05
0.0044187369
-6.1217189e-05
0.0059688612
-9.2018424e-05
0.0074003935
-0.00012570858
0.0087129793
-0.00015757395
0.0098965459
-0.00017684648
0.010916509
-0.00016614712
0.0116899
-0.0001221172
0.012107078
-6.8078241e-05
0.012108453
-2.5313025e-05
0.011620253
0.010164082
-4.1033745e-06
0.00094917723
-1.5993201e-05
0.0027580209
-3.4973725e-05
0.0044377174
-6.0157433e-05
0.0059940449
-9.0179432e-05
0.0074304155
-0.00012252186
0.0087453218
-0.00015172469
0.0099257487
-0.0001658846
0.010930669
-0.00014970629
0.011673722
-0.00010629217
0.012063664
-5.8071522e-05
0.012060233
-2.119692e-05
0.011583378
0.010142885
-4.045497e-06
0.00095322273
-1.5761374e-05
0.0027697368
-3.4436919e-05
0.004456393
-5.9135102e-05
0.0060187431
-8.8360527e-05
0.0074596409
-0.00011925379
0.008776215
-0.00014551369
0.0099520086
-0.00015445694
0.010939612
-0.00013404494
0.01165331
-9.2406389e-05
0.012022025
-4.9608156e-05
0.012017435
-1.7811014e-05
0.011551581
0.010125074
-3.9906705e-06
0.0009572134
-1.5540649e-05
0.0027812868
-3.3920384e-05
0.0044747727
-5.8133471e-05
0.0060429561
-8.6528477e-05
0.0074880359
-0.00011583835
0.0088055249
-0.00013886507
0.0099750353
-0.00014270997
0.010943457
-0.00011937991
0.01162998
-8.023623e-05
0.011982881
-4.2382125e-05
0.01197958
-1.4972586e-05
0.011524171
0.010110101
-3.938246e-06
0.00096115164
-1.5328322e-05
0.0027926768
-3.3417324e-05
0.0044928617
-5.7137748e-05
0.0060666766
-8.4651726e-05
0.0075155499
-0.00011221299
0.0088330861
-0.00013174064
0.009994563
-0.00013084741
0.010942564
-0.00010583199
0.011604964
-6.9555656e-05
0.011946605
-3.6155818e-05
0.011946181
-1.255151e-05
0.011500567
0.01009755
-3.8876948e-06
0.00096503934
-1.512212e-05
0.0028039113
-3.2921708e-05
0.0045106613
-5.6133919e-05
0.0060898888
-8.2698664e-05
0.0075421146
-0.00010831969
0.0088587072
-0.00012414735
0.010010391
-0.00011909198
0.010937509
-9.3435698e-05
0.011579308
-6.0156888e-05
0.011913326
-3.0745122e-05
0.011916769
-1.04555e-05
0.011480277
0.010087094
-3.8385568e-06
0.00096887789
-1.4919992e-05
0.0028149927
-3.2427783e-05
0.0045281691
-5.5107849e-05
0.0061125688
-8.0636493e-05
0.0075676433
-0.00010410814
0.0088821788
-0.00011614034
0.010022423
-0.00010764918
0.010929017
-8.2162716e-05
0.011553821
-5.1858103e-05
0.011883022
-2.6007008e-05
0.011890918
-8.618751e-06
0.011462889
0.010078476
-3.7904019e-06
0.0009726683
-1.4719951e-05
0.0028259223
-3.1929704e-05
0.0045453789
-5.4044565e-05
0.0061346837
-7.8430837e-05
0.0075920295
-9.9540735e-05
0.0089032887
-0.00010781835
0.0100307
-9.6682481e-05
0.010917882
-7.1946844e-05
0.011529086
-4.4503958e-05
0.011855579
-2.1829744e-05
0.011868244
-6.993704e-06
0.011448053
0.010071482
-3.7428e-06
0.0009764111
-1.4519945e-05
0.0028366994
-3.1421227e-05
0.0045622801
-5.2927708e-05
0.0061561902
-7.6046256e-05
0.0076151481
-9.4598625e-05
0.0089218411
-9.9310962e-05
0.010035413
-8.6303356e-05
0.010904874
-6.2703776e-05
0.011505486
-3.7963129e-05
0.011830838
-1.8125323e-05
0.011848406
-5.545287e-06
0.011435473
0.010065937
-3.6952977e-06
0.00098010639
-1.4317762e-05
0.0028473219
-3.0895462e-05
0.0045788578
-5.1739148e-05
0.0061770339
-7.34478e-05
0.0076368567
-8.9287316e-05
0.0089376806
-9.0760482e-05
0.010036886
-7.6573762e-05
0.010890687
-5.434402e-05
0.011483256
-3.2125049e-05
0.011808619
-1.4823681e-05
0.011831104
-4.2469951e-06
0.011424896
0.01006169
-3.6473963e-06
0.00098375379
-1.4110936e-05
0.0028577854
-3.0344641e-05
0.0045950915
-5.0458784e-05
0.006197148
-7.0603634e-05
0.0076570016
-8.3639732e-05
0.0089507167
-8.2303597e-05
0.01003555
-6.75158e-05
0.010875899
-4.6780163e-05
0.011462521
-2.6896728e-05
0.011788736
-1.1868356e-05
0.011816076
-3.0782561e-06
0.011416106
0.010058611
-3.5985288e-06
0.00098735232
-1.3896642e-05
0.0028680835
-2.9759896e-05
0.0046109548
-4.9064619e-05
0.0062164527
-6.7488584e-05
0.0076754255
-7.7715072e-05
0.0089609432
-7.4057338e-05
0.010031892
-5.912331e-05
0.010860965
-3.9930396e-05
0.011443328
-2.2199856e-05
0.011771005
-9.2132822e-06
0.011803089
-2.0226598e-06
0.011408916
0.010056589
-3.5480256e-06
0.00099090035
-1.3671564e-05
0.0028782071
-2.9130949e-05
0.0046264142
-4.753311e-05
0.0062348549
-6.4087909e-05
0.0076919803
-7.1592544e-05
0.0089684478
-6.6111088e-05
0.010026411
-5.1371379e-05
0.010846226
-3.3718971e-05
0.011425676
-1.7967095e-05
0.011755253
-6.8191907e-06
0.011791942
-1.0665718e-06
0.011403163
0.010055522
-3.4950998e-06
0.00099439544
-1.343182e-05
0.0028881438
-2.8446031e-05
0.0046414284
-4.5840365e-05
0.0062522492
-6.0401302e-05
0.0077065413
-6.5362289e-05
0.0089734088
-5.8525782e-05
0.010019574
-4.422438e-05
0.010831924
-2.8076925e-05
0.011409528
-1.414003e-05
0.011741316
-4.6491658e-06
0.011782451
-1.6922586e-07
0.011398683
0.010055353
-3.4388796e-06
0.00099783432
-1.3173132e-05
0.002897878
-2.7692439e-05
0.0046559477
-4.3964995e-05
0.0062685218
-5.6447129e-05
0.0077190234
-5.9117561e-05
0.0089760792
-5.1340494e-05
0.010011797
-3.7645562e-05
0.010818229
-2.2947467e-05
0.01139483
-1.0674764e-05
0.011729044
-2.6810951e-06
0.011774457
6.6544887e-07
0.011395337
0.010056018
-3.378315e-06
0.0010012126
-1.2890439e-05
0.0029073902
-2.6855996e-05
0.0046699133
-4.1889313e-05
0.0062835551
-5.226084e-05
0.0077293949
-5.2943433e-05
0.0089767618
-4.4574257e-05
0.010003428
-3.1595998e-05
0.010805251
-1.8279612e-05
0.011381514
-7.5311738e-06
0.011718295
-8.830225e-07
0.011767809
1.4049918e-06
0.011393049
0.010057423
-3.3120984e-06
0.0010045247
-1.2577618e-05
0.0029166557
-2.5921008e-05
0.0046832566
-3.9601336e-05
0.0062972354
-4.7891275e-05
0.0077376849
-4.6909588e-05
0.0089757802
-3.822929e-05
0.0099947476
-2.6033929e-05
0.010793056
-1.402427e-05
0.011369504
-4.6695368e-06
0.011708941
7.74665e-07
0.011762365
2.0667339e-06
0.011391757
0.01005949
-3.2386928e-06
0.0010077634
-1.2227714e-05
0.0029256447
-2.4871688e-05
0.0046959006
-3.7098721e-05
0.0063094625
-4.3397669e-05
0.0077439838
-4.1070819e-05
0.0089734533
-3.2299149e-05
0.0099859759
-2.0920733e-05
0.010781677
-1.0139951e-05
0.011358723
-2.0591305e-06
0.01170086
2.2779997e-06
0.011758028
2.663878e-06
0.011391371
0.010062154
-3.1562772e-06
0.0010109197
-1.1832823e-05
0.0029343212
-2.369304e-05
0.0047077608
-3.4390258e-05
0.0063201597
-3.8842821e-05
0.0077484364
-3.5466335e-05
0.0089700768
-2.6770494e-05
0.0099772801
-1.6218819e-05
0.010771126
-6.5853497e-06
0.01134909
3.4751294e-07
0.011693927
3.6322484e-06
0.011754743
3.2023328e-06
0.011391801
0.010065356
-3.062712e-06
0.0010139824
-1.1384179e-05
0.0029426427
-2.2372405e-05
0.0047187491
-3.1496506e-05
0.0063292838
-3.4287364e-05
0.0077512272
-3.0121874e-05
0.0089659113
-2.162595e-05
0.0099687841
-1.1894074e-05
0.010761394
-3.3303426e-06
0.011340526
2.551073e-06
0.011688046
4.861657e-06
0.011752432
3.6898342e-06
0.011392972
0.010069046
-2.955534e-06
0.001016938
-1.0872489e-05
0.0029505597
-2.0901464e-05
0.004728778
-2.8448951e-05
0.0063368313
-2.9785806e-05
0.0077525641
-2.5052617e-05
0.0089611781
-1.6845491e-05
0.009960577
-7.9112454e-06
0.01075246
-3.2675541e-07
0.011332941
4.5433792e-06
0.011683175
5.9753452e-06
0.011751
4.1313156e-06
0.011394816
0.010073178
-2.8319479e-06
0.0010197699
-1.0288359e-05
0.0029580161
-1.9277899e-05
0.0047377676
-2.5286908e-05
0.0063428403
-2.5383507e-05
0.0077526607
-2.0265016e-05
0.0089560596
-1.240798e-05
0.00995272
-4.2418994e-06
0.010744293
2.438009e-06
0.011326262
6.3569909e-06
0.011679256
6.9857643e-06
0.011750371
4.5313212e-06
0.011397271
0.010077709
-2.6889073e-06
0.0010224588
-9.6232128e-06
0.0029649504
-1.7507133e-05
0.0047456515
-2.2054219e-05
0.0063473874
-2.1116482e-05
0.0077517229
-1.5759135e-05
0.0089507023
-8.2896876e-06
0.0099452505
-8.4672318e-07
0.01073685
4.9536672e-06
0.011320461
8.0064796e-06
0.011676204
7.9030706e-06
0.011750475
4.893988e-06
0.01140028
0.010082603
-2.5232508e-06
0.0010249821
-8.8703663e-06
0.0029712975
-1.5602916e-05
0.004752384
-1.879523e-05
0.0063505797
-1.7011669e-05
0.0077499394
-1.1530739e-05
0.0089452214
-4.4700373e-06
0.0099381898
2.2909429e-06
0.01073009
7.2494903e-06
0.011315503
9.5068673e-06
0.011673946
8.735428e-06
0.011751246
5.222328e-06
0.011403793
0.010087825
-2.3319752e-06
0.001027314
-8.0264269e-06
0.002976992
-1.3587013e-05
0.0047579446
-1.5551707e-05
0.0063525444
-1.3087803e-05
0.0077474755
-7.57006e-06
0.0089397036
-9.1687525e-07
0.0099315367
5.165326e-06
0.010724007
9.344843e-06
0.011311323
1.0871945e-05
0.011672419
9.4906007e-06
0.011752628
5.5193405e-06
0.011407764
0.010093344
-2.112655e-06
0.0010294267
-7.0926629e-06
0.002981972
-1.1487684e-05
0.0047623397
-1.2360769e-05
0.0063534175
-9.3574562e-06
0.0077444722
-3.8681057e-06
0.0089342143
2.3811807e-06
0.0099252874
7.7971111e-06
0.010718591
1.125631e-05
0.011307864
1.2113239e-05
0.011671562
1.0174988e-05
0.011754566
5.7874239e-06
0.011412152
0.010099132
-1.8640277e-06
0.0010312907
-6.0761535e-06
0.0029861841
-9.3374818e-06
0.004765601
-9.2535984e-06
0.0063533336
-5.8255935e-06
0.0077410442
-4.0088506e-07
0.0089287896
5.4171394e-06
0.0099194693
1.020607e-05
0.010713802
1.2999119e-05
0.011305071
1.3241021e-05
0.01167132
1.0794268e-05
0.011757013
6.0287174e-06
0.011416917
0.010105161
-1.5866528e-06
0.0010328774
-4.9902407e-06
0.0029895877
-7.1706339e-06
0.0047677814
-6.2552774e-06
0.0063524182
-2.4927428e-06
0.0077372816
2.8316805e-06
0.0089234651
8.2067921e-06
0.0099140942
1.240894e-05
0.0107096
1.4586636e-05
0.011302893
1.4264263e-05
0.011671643
1.135336e-05
0.011759924
6.2450669e-06
0.011422026
0.010111406
-1.2835182e-06
0.0010341609
-3.8541852e-06
0.0029921583
-5.0207825e-06
0.004768948
-3.3849458e-06
0.0063507824
6.4622606e-07
0.0077332505
5.8153838e-06
0.008918296
1.0765937e-05
0.0099091437
1.4420846e-05
0.010705945
1.6030833e-05
0.011301283
1.5191006e-05
0.011672482
1.1856704e-05
0.011763258
6.4381619e-06
0.011427444
0.010117844
-9.6035053e-07
0.0010351212
-2.6918228e-06
0.0029938898
-2.9183382e-06
0.0047691745
-6.5059912e-07
0.0063485147
3.5782678e-06
0.0077290216
8.5629393e-06
0.0089133113
1.3108591e-05
0.009904598
1.6254546e-05
0.010702799
1.7341541e-05
0.011300196
1.6027696e-05
0.011673796
1.2307728e-05
0.011766978
6.6092248e-06
0.011433143
0.010124453
-6.253524e-07
0.0010357466
-1.5291153e-06
0.0029947936
-8.87357e-07
0.0047685327
1.9291126e-06
0.0063456982
6.2873382e-06
0.0077246634
1.1084092e-05
0.0089085146
1.5247521e-05
0.0099004346
1.7921741e-05
0.010700125
1.852777e-05
0.01129959
1.6780266e-05
0.011675544
1.2709643e-05
0.011771048
6.7594523e-06
0.011439093
0.010131213
-2.8821752e-07
0.0010360348
-3.9067271e-07
0.002994896
1.0457223e-06
0.0047670963
4.3266907e-06
0.0063424172
8.7771432e-06
0.0077202129
1.3387482e-05
0.0089039042
1.7193158e-05
0.0098966289
1.9431865e-05
0.010697887
1.959665e-05
0.011299425
1.7453278e-05
0.011677687
1.3064798e-05
0.011775437
6.8896369e-06
0.011445268
0.010138102
4.0782845e-08
0.001035994
6.9666419e-07
0.0029942402
2.8486091e-06
0.0047649444
6.5296273e-06
0.0063387362
1.1049543e-05
0.007715693
1.5480329e-05
0.0088994734
1.8954095e-05
0.0098931552
2.0792582e-05
0.010696048
2.0553873e-05
0.011299664
1.8050265e-05
0.011680191
1.3374908e-05
0.011780112
7.000287e-06
0.011451643
0.010145102
3.5067605e-07
0.0010356434
1.7048738e-06
0.002992886
4.4971026e-06
0.0047621522
8.5308063e-06
0.0063347025
1.310575e-05
0.007711118
1.7368048e-05
0.0088952111
2.0536777e-05
0.0098899864
2.2009521e-05
0.010694575
2.1403445e-05
0.01130027
1.8573524e-05
0.011683021
1.3640916e-05
0.011785045
7.0915684e-06
0.011458192
0.010152194
6.3199537e-07
0.0010350114
2.613804e-06
0.0029909041
5.977211e-06
0.0047587888
1.0324533e-05
0.0063303552
1.4946313e-05
0.0077064963
1.90543e-05
0.0088911032
2.1945561e-05
0.0098870952
2.3086325e-05
0.010693435
2.2147717e-05
0.011301209
1.9024106e-05
0.011686144
1.3862955e-05
0.011790206
7.1632549e-06
0.011464892
0.010159357
8.7876467e-07
0.0010341326
3.4113884e-06
0.0029883715
7.2795612e-06
0.0047549206
1.1906928e-05
0.0063257278
1.6571523e-05
0.0077018317
2.0541378e-05
0.0088871333
2.3183025e-05
0.0098844535
2.4024877e-05
0.010692593
2.2787522e-05
0.011302446
1.9401922e-05
0.01168953
1.4040421e-05
0.011795568
7.2147847e-06
0.011471717
0.010166572
1.0879032e-06
0.0010330447
4.0915587e-06
0.0029853679
8.3995186e-06
0.0047506126
1.3276268e-05
0.0063208511
1.798185e-05
0.0076971261
2.1830635e-05
0.0088832845
2.4250344e-05
0.0098820338
2.4825591e-05
0.010692017
2.3322401e-05
0.011303949
1.9705866e-05
0.011693146
1.4172032e-05
0.011801101
7.2452585e-06
0.011478644
0.010173817
1.2588968e-06
0.0010317858
4.6536649e-06
0.0029819731
9.3370938e-06
0.0047459292
1.4433344e-05
0.0063157548
1.9178464e-05
0.007692381
2.2923002e-05
0.00887954
2.5147714e-05
0.0098798091
2.5487739e-05
0.010691677
2.3750822e-05
0.011305686
1.9933982e-05
0.011696963
1.4255943e-05
0.011806779
7.2535285e-06
0.011485647
0.010181071
1.3932143e-06
0.0010303926
5.1015168e-06
0.0029782648
1.0096601e-05
0.0047409341
1.5381722e-05
0.0063104697
2.0163787e-05
0.0076875989
2.3819601e-05
0.0088758842
2.5874932e-05
0.0098777538
2.600994e-05
0.010691542
2.4070574e-05
0.011307626
2.0083734e-05
0.01170095
1.4289909e-05
0.011812573
7.238246e-06
0.011492698
0.010188309
1.4936553e-06
0.0010288989
5.4422397e-06
0.0029743162
1.0686067e-05
0.0047356903
1.6127813e-05
0.0063050279
2.0941935e-05
0.0076827848
2.4522326e-05
0.0088723038
2.6431961e-05
0.0098758441
2.6390654e-05
0.010691584
2.4279157e-05
0.011309737
2.0152315e-05
0.011705077
1.4271499e-05
0.011818454
7.1979935e-06
0.011499772
0.010195507
1.563764e-06
0.0010273352
5.6851362e-06
0.0029701948
1.1116463e-05
0.004730259
1.6680745e-05
0.0062994637
2.1519033e-05
0.0076779465
2.5034352e-05
0.0088687884
2.6819501e-05
0.009874059
2.6628725e-05
0.010691774
2.4374262e-05
0.011311992
2.0137008e-05
0.011709314
1.4198349e-05
0.011824393
7.1313995e-06
0.011506839
0.010202638
1.6073728e-06
0.0010257278
5.8406802e-06
0.0029659615
1.1400862e-05
0.0047246988
1.7052027e-05
0.0062938125
2.1903314e-05
0.0076730952
2.5360502e-05
0.0088653313
2.7039463e-05
0.00987238
2.6723862e-05
0.01069209
2.43542e-05
0.011314361
2.0035555e-05
0.011713633
1.4068418e-05
0.01183036
7.0372806e-06
0.01151387
0.010209676
1.6282851e-06
0.0010240995
5.9197129e-06
0.0029616701
1.1553609e-05
0.0047190649
1.7255074e-05
0.006288111
2.2105043e-05
0.0076682452
2.5507449e-05
0.0088619289
2.7095316e-05
0.0098707922
2.6677055e-05
0.010692508
2.4218308e-05
0.01131682
1.9846495e-05
0.011718005
1.3880244e-05
0.011836326
6.9147718e-06
0.011520835
0.010216591
1.6300798e-06
0.0010224694
5.9328585e-06
0.0029573673
1.1589584e-05
0.0047134082
1.7304664e-05
0.0062823959
2.2136285e-05
0.0076634136
2.5483747e-05
0.0088585814
2.6992306e-05
0.0098692836
2.6490869e-05
0.01069301
2.396727e-05
0.011319344
1.956946e-05
0.011722403
1.3633162e-05
0.011842262
6.7634466e-06
0.011527705
0.010223354
1.6160076e-06
0.0010208534
5.8901366e-06
0.0029530932
1.1523593e-05
0.0047077747
1.7216373e-05
0.0062767032
2.2010557e-05
0.0076586194
2.5299717e-05
0.0088552922
2.6737508e-05
0.0098678458
2.6169614e-05
0.010693578
2.3603334e-05
0.01132191
1.9205387e-05
0.0117268
1.3327479e-05
0.01184814
6.5834081e-06
0.011534449
0.010229937
1.5889498e-06
0.0010192645
5.8007395e-06
0.0029488814
1.1369916e-05
0.0047022055
1.700606e-05
0.006271067
2.1742419e-05
0.0076538831
2.4967211e-05
0.0088520674
2.6339753e-05
0.0098664733
2.5719391e-05
0.010694198
2.3130422e-05
0.011324499
1.8756655e-05
0.011731174
1.2964576e-05
0.011853932
6.3753489e-06
0.011541038
0.010236313
1.5514177e-06
0.001017713
5.6729287e-06
0.0029447599
1.1141991e-05
0.0046967365
1.6689423e-05
0.0062655196
2.1347054e-05
0.0076492255
2.4499302e-05
0.0088489152
2.5809446e-05
0.0098651631
2.5148008e-05
0.010694859
2.2554133e-05
0.011327093
1.8227122e-05
0.011735501
1.2546965e-05
0.011859613
6.1405747e-06
0.011547445
0.010242453
1.5055733e-06
0.0010162075
5.5140165e-06
0.0029407515
1.0852219e-05
0.0046913983
1.6281646e-05
0.0062600902
2.083987e-05
0.0076446672
2.3909926e-05
0.0088458451
2.5158295e-05
0.0098639147
2.4464807e-05
0.010695553
2.1881624e-05
0.011329676
1.7622056e-05
0.011739761
1.2078246e-05
0.011865156
5.8809971e-06
0.011553642
0.010248334
1.4532622e-06
0.0010147542
5.330401e-06
0.0029368743
1.0511872e-05
0.0046862168
1.5797139e-05
0.0062548049
2.0236146e-05
0.0076402282
2.3213539e-05
0.0088428677
2.4399015e-05
0.0098627293
2.3680431e-05
0.010696272
2.1121462e-05
0.011332235
1.6948039e-05
0.011743934
1.1563033e-05
0.011870541
5.5990632e-06
0.011559606
0.010253933
1.3960498e-06
0.0010133582
5.1276286e-06
0.0029331427
1.0131065e-05
0.0046812133
1.5249351e-05
0.0062496866
1.9550728e-05
0.0076359268
2.2424749e-05
0.0088399937
2.3544965e-05
0.0098616091
2.2806496e-05
0.01069701
2.0283328e-05
0.011334758
1.621273e-05
0.011748005
1.1006802e-05
0.011875747
5.2977162e-06
0.011565315
0.010259231
1.3352576e-06
0.0010120229
4.9104748e-06
0.0029295675
9.7187822e-06
0.004676405
1.465067e-05
0.0062447547
1.8797807e-05
0.0076317797
2.1558031e-05
0.0088372335
2.2609845e-05
0.0098605572
2.1855308e-05
0.010697765
1.9377778e-05
0.011337236
1.5424661e-05
0.011751958
1.0415719e-05
0.011880756
4.9802506e-06
0.01157075
0.010264211
1.2719966e-06
0.0010107509
4.6830262e-06
0.0029261565
9.2829301e-06
0.0046718051
1.4012364e-05
0.0062400253
1.7990728e-05
0.0076278013
2.062744e-05
0.0088345968
2.1607362e-05
0.0098595773
2.0839508e-05
0.010698532
1.8415895e-05
0.011339659
1.4592942e-05
0.011755781
9.7964263e-06
0.011885553
4.6502291e-06
0.011575897
0.010268862
1.2071977e-06
0.0010095437
4.4487622e-06
0.0029229149
8.8304169e-06
0.0046674235
1.3344578e-05
0.0062355111
1.7141879e-05
0.007624004
1.9646408e-05
0.0088320923
2.0550963e-05
0.0098586728
1.9771785e-05
0.010699312
1.7409014e-05
0.011342022
1.3726999e-05
0.011759463
9.1558228e-06
0.011890124
4.3113333e-06
0.011580741
0.010273173
1.1416379e-06
0.0010084021
4.2106302e-06
0.0029198459
8.3672323e-06
0.0046632669
1.2656353e-05
0.006231222
1.6262615e-05
0.0076203978
1.8627571e-05
0.0088297273
1.9453591e-05
0.0098578467
1.8664589e-05
0.010700101
1.6368422e-05
0.011344318
1.28363e-05
0.011762995
8.5008565e-06
0.011894459
3.9672558e-06
0.011585275
0.01027714
1.0759635e-06
0.0010073261
3.9711144e-06
0.0029169508
7.8985344e-06
0.0046593395
1.1955673e-05
0.0062271649
1.5363219e-05
0.0076169902
1.758264e-05
0.0088275079
1.8327491e-05
0.0098571019
1.7529894e-05
0.010700898
1.530509e-05
0.011346543
1.1930112e-05
0.01176637
7.8383227e-06
0.011898551
3.6215871e-06
0.011589492
0.010280762
1.0107095e-06
0.0010063154
3.732298e-06
0.0029142292
7.4287364e-06
0.004655643
1.1249531e-05
0.0062233441
1.4452908e-05
0.0076137869
1.6522342e-05
0.0088254384
1.7184078e-05
0.0098564402
1.6379016e-05
0.010701703
1.4229493e-05
0.011348692
1.1017299e-05
0.011769582
7.1747e-06
0.011902394
3.2777116e-06
0.011593388
0.010284039
9.4631655e-07
0.0010053691
3.4959173e-06
0.0029116796
6.9615855e-06
0.0046521774
1.0543994e-05
0.0062197617
1.3539853e-05
0.007610791
1.5456365e-05
0.0088235219
1.6033823e-05
0.0098558627
1.5222456e-05
0.010702515
1.3151404e-05
0.011350763
1.0106151e-05
0.011772627
6.516017e-06
0.011905984
2.9387502e-06
0.011596966
0.010286978
8.8314513e-07
0.0010044859
3.2634095e-06
0.0029092993
6.5002417e-06
0.0046489405
9.8442837e-06
0.0062164176
1.2631228e-05
0.0076080041
1.4393366e-05
0.0088217598
1.4886216e-05
0.0098553698
1.4069819e-05
0.010703331
1.2079808e-05
0.011352753
9.204272e-06
0.011775503
5.8677564e-06
0.01190932
2.6074947e-06
0.011600226
0.010289586
8.2148773e-07
0.0010036644
3.0359551e-06
0.0029070849
6.0473469e-06
0.0046459291
9.1548529e-06
0.0062133101
1.1733265e-05
0.0076054256
1.3340986e-05
0.0088201521
1.3749735e-05
0.0098549611
1.2929753e-05
0.010704151
1.1022816e-05
0.01135466
8.3185029e-06
0.011778207
5.2347996e-06
0.011912404
2.2863829e-06
0.011603174
0.010291872
7.6157882e-07
0.0010029029
2.8145131e-06
0.0029050319
5.6050879e-06
0.0046431386
8.4794609e-06
0.0062104357
1.085132e-05
0.0076030538
1.230589e-05
0.0088186975
1.2631853e-05
0.0098546351
1.1809928e-05
0.010704973
9.9876182e-06
0.011356483
7.4548772e-06
0.01178074
4.6213986e-06
0.011915238
1.9775025e-06
0.011605818
0.01029385
7.0360396e-07
0.0010021993
2.5998534e-06
0.0029031357
5.1752559e-06
0.0046405632
7.8212491e-06
0.0062077897
9.989952e-06
0.0076008851
1.1293829e-05
0.0088173936
1.153908e-05
0.0098543899
1.0717053e-05
0.010705795
8.9805037e-06
0.011358219
6.6186209e-06
0.011783102
4.031166e-06
0.011917825
1.6825653e-06
0.011608167
0.010295532
6.4770641e-07
0.0010015516
2.3925814e-06
0.0029013908
4.7592923e-06
0.0046381964
7.1828006e-06
0.0062053662
9.1529734e-06
0.0075989149
1.0309677e-05
0.0088162369
1.047698e-05
0.0098542226
9.6568766e-06
0.010706615
8.0068332e-06
0.011359869
5.814145e-06
0.011785295
3.4670936e-06
0.011920172
1.4029562e-06
0.011610231
0.010296935
5.9399364e-07
0.0010009576
2.1931624e-06
0.0028997916
4.3583365e-06
0.0046360313
6.5662082e-06
0.0062031584
8.3435338e-06
0.0075971376
9.3575166e-06
0.0088152229
9.4502434e-06
0.0098541298
8.6342487e-06
0.010707431
7.0711033e-06
0.011361432
5.0450825e-06
0.011787321
2.9315729e-06
0.011922286
1.1397199e-06
0.011612023
0.010298075
5.4254252e-07
0.001000415
2.0019408e-06
0.0028983322
3.973263e-06
0.0046340599
5.9731261e-06
0.0062011585
7.5641752e-06
0.0075955465
8.4406839e-06
0.0088143464
8.462729e-06
0.0098541078
7.6531505e-06
0.010708241
6.1769617e-06
0.011362909
4.3143168e-06
0.011789183
2.4264187e-06
0.011924174
8.9359285e-07
0.011613556
0.010298968
4.9340349e-07
0.00099992162
1.8191552e-06
0.0028970065
3.6047132e-06
0.0046322744
5.4048166e-06
0.0061993584
6.8168885e-06
0.0075941345
7.5618293e-06
0.0088136015
7.5175129e-06
0.0098541521
6.7167394e-06
0.010709041
5.3272473e-06
0.011364298
3.6240148e-06
0.011790887
1.9529159e-06
0.011925845
6.6504357e-07
0.011614844
0.010299633
4.4660523e-07
0.00099947501
1.6449572e-06
0.0028958081
3.2531326e-06
0.0046306662
4.8622087e-06
0.0061977493
6.1031878e-06
0.0075928935
6.7230052e-06
0.0088129817
6.6169893e-06
0.0098542581
5.8274449e-06
0.010709831
4.5240936e-06
0.011365601
2.9757075e-06
0.011792435
1.5118586e-06
0.011927308
4.5426017e-07
0.011615901
0.010300088
4.0215861e-07
0.00099907285
1.4794259e-06
0.0028947309
2.9188023e-06
0.0046292268
4.3459463e-06
0.0061963222
5.4241758e-06
0.0075918153
5.9257383e-06
0.0088124801
5.7629444e-06
0.0098544209
4.9870619e-06
0.010710607
3.769015e-06
0.01136682
2.3704285e-06
0.011793833
1.1037361e-06
0.011928575
2.6136632e-07
0.011616744
0.010300349
3.6006018e-07
0.00099871279
1.3225823e-06
0.0028937683
2.6018705e-06
0.0046279475
3.8564423e-06
0.0061950676
4.7806178e-06
0.0075908911
5.1711296e-06
0.0088120896
4.9566823e-06
0.0098546354
4.1968865e-06
0.010711367
3.0630896e-06
0.011367953
1.8088877e-06
0.011795088
7.2909988e-07
0.011929655
8.8853311e-08
0.011617384
0.010300438
3.2028895e-07
0.0009983925
1.1743746e-06
0.0028929142
2.3023168e-06
0.0046268196
3.39381e-06
0.0061939761
4.1728304e-06
0.0075901121
4.4596767e-06
0.0088118028
4.1987646e-06
0.0098548963
3.4573663e-06
0.010712108
2.4064675e-06
0.011369004
1.290894e-06
0.011796203
3.8765837e-07
0.011930558
-6.2331268e-08
0.011617834
0.010300376
2.8280877e-07
0.0009981097
1.034688e-06
0.0028921624
2.0199756e-06
0.0046258343
2.9579036e-06
0.0061930382
3.6007365e-06
0.0075894692
3.7913505e-06
0.0088116121
3.4891116e-06
0.0098551985
2.768238e-06
0.010712829
1.7986618e-06
0.011369974
8.1608671e-07
0.011797186
8.1435708e-08
0.011931293