/*--------------------------------*- C++ -*----------------------------------*\
| =========                 |                                                 |
| \\      /  F ield         | OpenFOAM: The Open Source CFD Toolbox           |
|  \\    /   O peration     | Version:  2506                                  |
|   \\  /    A nd           | Website:  www.openfoam.com                      |
|    \\/     M anipulation  |                                                 |
\*---------------------------------------------------------------------------*/
FoamFile
{
    version     2.0;
    format      ascii;
    arch        "LSB;label=32;scalar=64";
    class       volScalarField;
    location    "4000/water";
    object      T;
}
// * * * * * * * * * * * * * * * * * * * * * * * * * * * * * * * * * * * * * //

dimensions      [0 0 0 1 0 0 0];

internalField   nonuniform List<scalar> 
2600
(
333.15
333.15
333.15
333.15
333.15
333.15
333.15
333.14999
333.14998
333.14991
333.14959
333.14803
333.13782
333.15
333.15
333.15
333.15
333.15
333.15
333.14999
333.14998
333.14992
333.14971
333.14893
333.14549
333.12876
333.15
333.15
333.15
333.15
333.15
333.15
333.14999
333.14995
333.14982
333.14942
333.14806
333.14257
333.12145
333.15
333.15
333.15
333.15
333.15
333.14999
333.14997
333.1499
333.14969
333.14905
333.14703
333.13946
333.11526
333.15
333.15
333.15
333.15
333.14999
333.14998
333.14994
333.14983
333.14951
333.14861
333.14584
333.13625
333.10989
333.15
333.15
333.15
333.15
333.14999
333.14997
333.14991
333.14974
333.14929
333.14809
333.14452
333.13303
333.10519
333.15
333.15
333.15
333.14999
333.14998
333.14995
333.14987
333.14963
333.14904
333.1475
333.14304
333.12985
333.10108
333.15
333.15
333.15
333.14999
333.14998
333.14993
333.14981
333.1495
333.14875
333.14684
333.14142
333.12677
333.09752
333.15
333.15
333.15
333.14999
333.14996
333.1499
333.14974
333.14935
333.14842
333.14608
333.13965
333.12382
333.09446
333.15
333.15
333.14999
333.14998
333.14995
333.14987
333.14966
333.14918
333.14805
333.14521
333.13774
333.12105
333.09188
333.15
333.15
333.14999
333.14997
333.14993
333.14983
333.14957
333.14898
333.14762
333.14422
333.13572
333.11849
333.08972
333.15
333.14999
333.14999
333.14996
333.14991
333.14978
333.14946
333.14876
333.14712
333.14309
333.13363
333.11616
333.08793
333.14999
333.14999
333.14998
333.14995
333.14988
333.14972
333.14934
333.1485
333.14655
333.14183
333.13153
333.11405
333.08646
333.14999
333.14999
333.14998
333.14994
333.14985
333.14965
333.1492
333.1482
333.14589
333.14045
333.12946
333.11216
333.08524
333.14999
333.14999
333.14997
333.14992
333.14982
333.14957
333.14904
333.14786
333.14513
333.13896
333.12748
333.11047
333.08422
333.14999
333.14998
333.14996
333.1499
333.14977
333.14948
333.14885
333.14746
333.14426
333.1374
333.12561
333.10896
333.08337
333.14999
333.14998
333.14995
333.14988
333.14973
333.14938
333.14864
333.14699
333.14328
333.1358
333.12387
333.1076
333.08265
333.14998
333.14997
333.14994
333.14985
333.14967
333.14927
333.14839
333.14646
333.14221
333.1342
333.12225
333.10638
333.08203
333.14998
333.14996
333.14992
333.14982
333.1496
333.14913
333.1481
333.14584
333.14105
333.13264
333.12076
333.10528
333.0815
333.14997
333.14995
333.1499
333.14979
333.14953
333.14897
333.14777
333.14514
333.13982
333.13113
333.11939
333.10429
333.08103
333.14996
333.14994
333.14988
333.14974
333.14944
333.14879
333.14738
333.14435
333.13856
333.12969
333.11812
333.10338
333.08063
333.14995
333.14993
333.14986
333.1497
333.14934
333.14858
333.14694
333.14349
333.13729
333.12832
333.11695
333.10256
333.08027
333.14994
333.14991
333.14983
333.14964
333.14923
333.14834
333.14642
333.14255
333.13602
333.12702
333.11587
333.1018
333.07995
333.14993
333.1499
333.1498
333.14957
333.14909
333.14805
333.14584
333.14156
333.13477
333.1258
333.11486
333.1011
333.07967
333.14992
333.14988
333.14976
333.1495
333.14893
333.14772
333.14519
333.14053
333.13355
333.12465
333.11393
333.10046
333.07942
333.1499
333.14985
333.14972
333.14941
333.14875
333.14734
333.14448
333.13948
333.13237
333.12357
333.11306
333.09987
333.07919
333.14988
333.14983
333.14967
333.14931
333.14854
333.14691
333.1437
333.13842
333.13124
333.12255
333.11225
333.09931
333.07899
333.14986
333.1498
333.14961
333.14919
333.14829
333.14642
333.14288
333.13736
333.13015
333.12158
333.11148
333.0988
333.0788
333.14984
333.14976
333.14954
333.14905
333.14801
333.14587
333.14201
333.13631
333.12911
333.12067
333.11077
333.09832
333.07864
333.14981
333.14971
333.14946
333.14889
333.14768
333.14526
333.14111
333.13528
333.12812
333.11981
333.1101
333.09787
333.07849
333.14977
333.14966
333.14937
333.1487
333.1473
333.1446
333.1402
333.13427
333.12717
333.119
333.10946
333.09745
333.07835
333.14973
333.14961
333.14926
333.14848
333.14688
333.14389
333.13928
333.1333
333.12626
333.11822
333.10886
333.09705
333.07823
333.14968
333.14954
333.14913
333.14823
333.1464
333.14314
333.13836
333.13235
333.12539
333.11749
333.10829
333.09667
333.07812
333.14963
333.14945
333.14898
333.14793
333.14587
333.14236
333.13744
333.13143
333.12456
333.11679
333.10775
333.09632
333.07801
333.14956
333.14936
333.1488
333.1476
333.14529
333.14156
333.13654
333.13055
333.12376
333.11612
333.10724
333.09598
333.07792
333.14948
333.14924
333.14859
333.14721
333.14466
333.14074
333.13565
333.12969
333.12299
333.11548
333.10675
333.09566
333.07783
333.14939
333.14911
333.14835
333.14678
333.144
333.13991
333.13478
333.12886
333.12226
333.11487
333.10628
333.09535
333.07775
333.14928
333.14895
333.14807
333.1463
333.1433
333.13908
333.13392
333.12806
333.12156
333.11429
333.10584
333.09506
333.07767
333.14915
333.14877
333.14775
333.14577
333.14257
333.13825
333.13309
333.12728
333.12088
333.11373
333.10541
333.09479
333.0776
333.14899
333.14855
333.14739
333.1452
333.14182
333.13743
333.13228
333.12654
333.12023
333.11319
333.105
333.09452
333.07753
333.14881
333.14829
333.14697
333.14459
333.14106
333.13661
333.13148
333.12581
333.1196
333.11267
333.1046
333.09426
333.07746
333.14858
333.14799
333.14651
333.14393
333.14029
333.1358
333.13071
333.12511
333.11899
333.11217
333.10422
333.09401
333.0774
333.14832
333.14765
333.146
333.14325
333.13951
333.13501
333.12995
333.12443
333.1184
333.11169
333.10385
333.09377
333.07734
333.14801
333.14725
333.14544
333.14254
333.13873
333.13423
333.12922
333.12377
333.11784
333.11123
333.10349
333.09354
333.07727
333.14765
333.14679
333.14483
333.14181
333.13794
333.13346
333.1285
333.12313
333.11729
333.11078
333.10315
333.09331
333.07721
333.14722
333.14628
333.14419
333.14107
333.13717
333.1327
333.1278
333.12251
333.11675
333.11034
333.10281
333.09309
333.07715
333.14674
333.14571
333.1435
333.14031
333.13639
333.13196
333.12712
333.12191
333.11624
333.10991
333.10249
333.09287
333.07708
333.14618
333.14509
333.14278
333.13954
333.13562
333.13123
333.12645
333.12132
333.11573
333.1095
333.10217
333.09266
333.07702
333.14555
333.14441
333.14203
333.13876
333.13485
333.13051
333.1258
333.12074
333.11524
333.1091
333.10186
333.09245
333.07695
333.14486
333.14368
333.14126
333.13797
333.1341
333.1298
333.12517
333.12018
333.11477
333.1087
333.10155
333.09225
333.07689
333.14411
333.1429
333.14046
333.13718
333.13335
333.12911
333.12455
333.11964
333.1143
333.10832
333.10125
333.09204
333.07682
333.14329
333.14208
333.13964
333.13639
333.1326
333.12843
333.12393
333.1191
333.11384
333.10794
333.10096
333.09184
333.07674
333.14243
333.14122
333.1388
333.13559
333.13186
333.12776
333.12334
333.11858
333.11339
333.10757
333.10067
333.09164
333.07667
333.14153
333.14033
333.13796
333.1348
333.13113
333.1271
333.12275
333.11806
333.11295
333.1072
333.10038
333.09144
333.07658
333.14059
333.13942
333.1371
333.134
333.13041
333.12644
333.12217
333.11756
333.11252
333.10684
333.10009
333.09124
333.0765
333.13963
333.1385
333.13623
333.13321
333.12969
333.1258
333.12159
333.11706
333.11209
333.10649
333.09981
333.09104
333.07641
333.13865
333.13756
333.13536
333.13242
333.12897
333.12516
333.12103
333.11657
333.11167
333.10614
333.09953
333.09084
333.07632
333.13767
333.13661
333.13449
333.13162
333.12826
333.12453
333.12047
333.11608
333.11125
333.10579
333.09925
333.09064
333.07622
333.13668
333.13567
333.13361
333.13084
333.12755
333.1239
333.11992
333.1156
333.11084
333.10544
333.09898
333.09043
333.07612
333.1357
333.13472
333.13274
333.13005
333.12685
333.12328
333.11937
333.11512
333.11043
333.1051
333.0987
333.09023
333.07601
333.13472
333.13378
333.13188
333.12927
333.12616
333.12266
333.11883
333.11465
333.11002
333.10475
333.09842
333.09002
333.07589
333.13375
333.13285
333.13102
333.1285
333.12547
333.12205
333.11829
333.11418
333.10962
333.10441
333.09814
333.08981
333.07577
333.13279
333.13193
333.13017
333.12773
333.12478
333.12145
333.11776
333.11371
333.10922
333.10407
333.09786
333.08959
333.07564
333.13185
333.13103
333.12933
333.12697
333.12411
333.12084
333.11723
333.11325
333.10881
333.10373
333.09757
333.08937
333.0755
333.13092
333.13014
333.1285
333.12622
333.12343
333.12025
333.1167
333.11279
333.10841
333.10338
333.09729
333.08914
333.07536
333.13002
333.12926
333.12769
333.12548
333.12277
333.11966
333.11618
333.11233
333.10801
333.10304
333.097
333.08891
333.0752
333.12913
333.1284
333.12688
333.12474
333.12211
333.11907
333.11566
333.11187
333.10761
333.10269
333.0967
333.08867
333.07504
333.12825
333.12755
333.12609
333.12402
333.12146
333.11849
333.11514
333.11141
333.10721
333.10234
333.09641
333.08843
333.07487
333.1274
333.12673
333.12532
333.12331
333.12081
333.11791
333.11463
333.11096
333.10681
333.10199
333.09611
333.08819
333.07469
333.12657
333.12592
333.12455
333.12261
333.12018
333.11734
333.11412
333.1105
333.10641
333.10164
333.0958
333.08793
333.07451
333.12575
333.12512
333.1238
333.12192
333.11955
333.11677
333.11361
333.11005
333.106
333.10129
333.0955
333.08767
333.07431
333.12495
333.12435
333.12307
333.12124
333.11893
333.11621
333.1131
333.1096
333.1056
333.10093
333.09518
333.08741
333.0741
333.12417
333.12359
333.12235
333.12057
333.11831
333.11565
333.1126
333.10914
333.1052
333.10057
333.09487
333.08713
333.07389
333.12341
333.12284
333.12164
333.11991
333.11771
333.1151
333.1121
333.10869
333.10479
333.10021
333.09455
333.08686
333.07367
333.12267
333.12212
333.12095
333.11926
333.11711
333.11455
333.11161
333.10824
333.10438
333.09984
333.09422
333.08657
333.07344
333.12194
333.1214
333.12027
333.11862
333.11652
333.11401
333.11111
333.10779
333.10398
333.09947
333.09389
333.08628
333.0732
333.12123
333.12071
333.1196
333.118
333.11594
333.11348
333.11062
333.10735
333.10357
333.0991
333.09355
333.08598
333.07295
333.12053
333.12002
333.11895
333.11738
333.11537
333.11295
333.11013
333.1069
333.10316
333.09873
333.09322
333.08568
333.07269
333.11985
333.11936
333.11831
333.11677
333.1148
333.11242
333.10965
333.10645
333.10275
333.09835
333.09287
333.08537
333.07243
333.11918
333.1187
333.11768
333.11617
333.11424
333.1119
333.10917
333.10601
333.10234
333.09797
333.09253
333.08506
333.07215
333.11853
333.11806
333.11706
333.11559
333.11369
333.11139
333.10869
333.10556
333.10193
333.09759
333.09217
333.08474
333.07187
333.11789
333.11743
333.11645
333.11501
333.11314
333.11087
333.10821
333.10512
333.10151
333.09721
333.09182
333.08441
333.07159
333.11726
333.11681
333.11585
333.11444
333.1126
333.11037
333.10774
333.10468
333.1011
333.09682
333.09146
333.08408
333.07129
333.11665
333.11621
333.11526
333.11387
333.11207
333.10987
333.10727
333.10423
333.10069
333.09644
333.0911
333.08375
333.07099
333.11604
333.11561
333.11469
333.11332
333.11154
333.10937
333.1068
333.10379
333.10027
333.09605
333.09073
333.08341
333.07069
333.11545
333.11502
333.11412
333.11277
333.11102
333.10887
333.10633
333.10335
333.09986
333.09565
333.09036
333.08306
333.07037
333.11487
333.11445
333.11356
333.11223
333.1105
333.10838
333.10586
333.10291
333.09944
333.09526
333.08999
333.08271
333.07006
333.11429
333.11388
333.113
333.1117
333.10999
333.1079
333.1054
333.10247
333.09902
333.09486
333.08962
333.08236
333.06973
333.11373
333.11333
333.11246
333.11117
333.10949
333.10741
333.10494
333.10204
333.09861
333.09447
333.08924
333.082
333.0694
333.11317
333.11278
333.11192
333.11065
333.10899
333.10693
333.10448
333.1016
333.09819
333.09407
333.08886
333.08164
333.06907
333.11263
333.11224
333.11139
333.11014
333.10849
333.10646
333.10403
333.10116
333.09777
333.09367
333.08848
333.08128
333.06873
333.11209
333.1117
333.11087
333.10963
333.108
333.10599
333.10357
333.10072
333.09735
333.09327
333.08809
333.08091
333.06839
333.11156
333.11118
333.11035
333.10913
333.10751
333.10552
333.10312
333.10029
333.09693
333.09286
333.0877
333.08054
333.06804
333.11103
333.11066
333.10984
333.10863
333.10703
333.10505
333.10267
333.09985
333.09651
333.09246
333.08731
333.08017
333.06769
333.11051
333.11014
333.10934
333.10814
333.10655
333.10458
333.10222
333.09942
333.09609
333.09205
333.08692
333.0798
333.06734
333.11
333.10963
333.10884
333.10765
333.10608
333.10412
333.10177
333.09898
333.09567
333.09164
333.08653
333.07942
333.06698
333.1095
333.10913
333.10834
333.10716
333.1056
333.10366
333.10132
333.09855
333.09525
333.09124
333.08613
333.07904
333.06662
333.109
333.10864
333.10785
333.10668
333.10513
333.1032
333.10088
333.09812
333.09483
333.09083
333.08574
333.07866
333.06626
333.1085
333.10814
333.10737
333.10621
333.10467
333.10275
333.10044
333.09768
333.09441
333.09042
333.08534
333.07827
333.06589
333.10801
333.10766
333.10689
333.10573
333.1042
333.10229
333.09999
333.09725
333.09398
333.09001
333.08494
333.07789
333.06552
333.10753
333.10717
333.10641
333.10526
333.10374
333.10184
333.09955
333.09682
333.09356
333.0896
333.08454
333.0775
333.06515
333.10705
333.10669
333.10593
333.1048
333.10328
333.10139
333.09911
333.09639
333.09314
333.08918
333.08414
333.07711
333.06477
333.10657
333.10622
333.10546
333.10433
333.10283
333.10094
333.09867
333.09596
333.09272
333.08877
333.08374
333.07672
333.06439
333.10609
333.10575
333.105
333.10387
333.10237
333.1005
333.09823
333.09553
333.0923
333.08836
333.08333
333.07632
333.06401
333.10562
333.10528
333.10453
333.10341
333.10192
333.10005
333.09779
333.0951
333.09188
333.08794
333.08293
333.07593
333.06363
333.10516
333.10481
333.10407
333.10295
333.10147
333.09961
333.09736
333.09467
333.09145
333.08753
333.08252
333.07553
333.06325
333.10469
333.10435
333.10361
333.1025
333.10102
333.09916
333.09692
333.09424
333.09103
333.08711
333.08212
333.07514
333.06286
333.10423
333.10389
333.10316
333.10205
333.10057
333.09872
333.09648
333.09381
333.09061
333.0867
333.08171
333.07474
333.06248
333.10377
333.10344
333.1027
333.1016
333.10013
333.09828
333.09605
333.09338
333.09019
333.08628
333.0813
333.07434
333.06209
333.10332
333.10298
333.10225
333.10115
333.09968
333.09784
333.09561
333.09295
333.08976
333.08587
333.08089
333.07394
333.0617
333.10287
333.10253
333.1018
333.1007
333.09924
333.0974
333.09518
333.09252
333.08934
333.08545
333.08048
333.07354
333.0613
333.10241
333.10208
333.10135
333.10026
333.0988
333.09697
333.09475
333.0921
333.08892
333.08504
333.08007
333.07313
333.06091
333.10196
333.10163
333.1009
333.09981
333.09836
333.09653
333.09432
333.09167
333.0885
333.08462
333.07966
333.07273
333.06052
333.10152
333.10118
333.10046
333.09937
333.09792
333.09609
333.09388
333.09124
333.08807
333.0842
333.07925
333.07232
333.06012
333.10107
333.10074
333.10002
333.09893
333.09748
333.09566
333.09345
333.09081
333.08765
333.08378
333.07884
333.07192
333.05972
333.10063
333.10029
333.09957
333.09849
333.09704
333.09522
333.09302
333.09039
333.08723
333.08337
333.07843
333.07151
333.05932
333.10018
333.09985
333.09913
333.09805
333.0966
333.09479
333.09259
333.08996
333.08681
333.08295
333.07802
333.07111
333.05892
333.09974
333.09941
333.09869
333.09761
333.09617
333.09436
333.09216
333.08953
333.08638
333.08253
333.0776
333.0707
333.05852
333.0993
333.09897
333.09825
333.09717
333.09573
333.09392
333.09173
333.08911
333.08596
333.08211
333.07719
333.07029
333.05811
333.09886
333.09853
333.09781
333.09674
333.0953
333.09349
333.0913
333.08868
333.08554
333.0817
333.07678
333.06988
333.05771
333.09842
333.09809
333.09738
333.0963
333.09486
333.09306
333.09087
333.08826
333.08512
333.08128
333.07636
333.06947
333.0573
333.09798
333.09765
333.09694
333.09586
333.09443
333.09263
333.09044
333.08783
333.08469
333.08086
333.07595
333.06906
333.0569
333.09755
333.09722
333.09651
333.09543
333.094
333.0922
333.09002
333.0874
333.08427
333.08044
333.07553
333.06865
333.05649
333.09711
333.09678
333.09607
333.095
333.09356
333.09177
333.08959
333.08698
333.08385
333.08002
333.07512
333.06824
333.05608
333.09668
333.09635
333.09564
333.09456
333.09313
333.09134
333.08916
333.08655
333.08343
333.0796
333.0747
333.06783
333.05567
333.09624
333.09591
333.0952
333.09413
333.0927
333.09091
333.08873
333.08613
333.08301
333.07918
333.07428
333.06741
333.05526
333.09581
333.09548
333.09477
333.0937
333.09227
333.09048
333.0883
333.0857
333.08258
333.07876
333.07387
333.067
333.05485
333.09537
333.09505
333.09434
333.09327
333.09184
333.09005
333.08788
333.08528
333.08216
333.07834
333.07345
333.06658
333.05443
333.09494
333.09461
333.0939
333.09283
333.09141
333.08962
333.08745
333.08485
333.08174
333.07792
333.07303
333.06617
333.05402
333.09451
333.09418
333.09347
333.0924
333.09098
333.08919
333.08702
333.08443
333.08132
333.0775
333.07262
333.06575
333.0536
333.09408
333.09375
333.09304
333.09197
333.09055
333.08876
333.0866
333.084
333.08089
333.07708
333.0722
333.06534
333.05318
333.09364
333.09332
333.09261
333.09154
333.09012
333.08834
333.08617
333.08358
333.08047
333.07666
333.07178
333.06492
333.05277
333.09321
333.09289
333.09218
333.09111
333.08969
333.08791
333.08574
333.08315
333.08005
333.07624
333.07136
333.0645
333.05235
333.09278
333.09245
333.09175
333.09068
333.08926
333.08748
333.08532
333.08273
333.07962
333.07582
333.07094
333.06408
333.05192
333.09235
333.09202
333.09132
333.09025
333.08883
333.08705
333.08489
333.0823
333.0792
333.0754
333.07052
333.06366
333.0515
333.09192
333.09159
333.09089
333.08982
333.0884
333.08662
333.08446
333.08188
333.07878
333.07498
333.0701
333.06324
333.05108
333.09149
333.09116
333.09046
333.08939
333.08797
333.0862
333.08404
333.08146
333.07835
333.07456
333.06968
333.06282
333.05065
333.09106
333.09073
333.09003
333.08896
333.08755
333.08577
333.08361
333.08103
333.07793
333.07413
333.06926
333.0624
333.05023
333.09063
333.0903
333.0896
333.08854
333.08712
333.08534
333.08319
333.08061
333.07751
333.07371
333.06883
333.06198
333.0498
333.0902
333.08987
333.08917
333.08811
333.08669
333.08491
333.08276
333.08018
333.07708
333.07329
333.06841
333.06155
333.04937
333.08977
333.08944
333.08874
333.08768
333.08626
333.08449
333.08233
333.07976
333.07666
333.07286
333.06799
333.06113
333.04894
333.08934
333.08901
333.08831
333.08725
333.08583
333.08406
333.08191
333.07933
333.07624
333.07244
333.06756
333.0607
333.04851
333.08891
333.08858
333.08788
333.08682
333.08541
333.08363
333.08148
333.0789
333.07581
333.07202
333.06714
333.06028
333.04808
333.08848
333.08816
333.08745
333.08639
333.08498
333.08321
333.08105
333.07848
333.07539
333.07159
333.06672
333.05985
333.04764
333.08805
333.08773
333.08702
333.08596
333.08455
333.08278
333.08063
333.07805
333.07496
333.07117
333.06629
333.05942
333.04721
333.08762
333.0873
333.08659
333.08553
333.08412
333.08235
333.0802
333.07763
333.07453
333.07074
333.06586
333.05899
333.04677
333.08719
333.08687
333.08617
333.08511
333.08369
333.08192
333.07977
333.0772
333.07411
333.07031
333.06544
333.05856
333.04633
333.08676
333.08644
333.08574
333.08468
333.08327
333.0815
333.07935
333.07677
333.07368
333.06989
333.06501
333.05813
333.04589
333.08633
333.08601
333.08531
333.08425
333.08284
333.08107
333.07892
333.07635
333.07326
333.06946
333.06458
333.05769
333.04545
333.08591
333.08558
333.08488
333.08382
333.08241
333.08064
333.07849
333.07592
333.07283
333.06903
333.06415
333.05726
333.045
333.08548
333.08515
333.08445
333.08339
333.08198
333.08021
333.07807
333.07549
333.0724
333.0686
333.06372
333.05683
333.04455
333.08505
333.08472
333.08402
333.08296
333.08155
333.07979
333.07764
333.07507
333.07197
333.06818
333.06329
333.05639
333.04411
333.08462
333.0843
333.08359
333.08254
333.08113
333.07936
333.07721
333.07464
333.07155
333.06775
333.06285
333.05595
333.04366
333.08419
333.08387
333.08316
333.08211
333.0807
333.07893
333.07678
333.07421
333.07112
333.06732
333.06242
333.05551
333.0432
333.08376
333.08344
333.08274
333.08168
333.08027
333.0785
333.07636
333.07378
333.07069
333.06688
333.06199
333.05507
333.04275
333.08333
333.08301
333.08231
333.08125
333.07984
333.07807
333.07593
333.07335
333.07026
333.06645
333.06155
333.05463
333.04229
333.0829
333.08258
333.08188
333.08082
333.07941
333.07765
333.0755
333.07292
333.06983
333.06602
333.06112
333.05419
333.04184
333.08247
333.08215
333.08145
333.08039
333.07898
333.07722
333.07507
333.07249
333.0694
333.06559
333.06068
333.05374
333.04137
333.08204
333.08172
333.08102
333.07996
333.07856
333.07679
333.07464
333.07206
333.06896
333.06515
333.06024
333.0533
333.04091
333.08162
333.08129
333.08059
333.07953
333.07813
333.07636
333.07421
333.07163
333.06853
333.06472
333.0598
333.05285
333.04045
333.08119
333.08086
333.08016
333.07911
333.0777
333.07593
333.07378
333.0712
333.0681
333.06428
333.05936
333.0524
333.03998
333.08076
333.08043
333.07973
333.07868
333.07727
333.0755
333.07335
333.07077
333.06766
333.06384
333.05892
333.05195
333.03951
333.08033
333.08
333.0793
333.07825
333.07684
333.07507
333.07292
333.07034
333.06723
333.06341
333.05847
333.0515
333.03903
333.0799
333.07957
333.07887
333.07782
333.07641
333.07464
333.07249
333.0699
333.06679
333.06297
333.05803
333.05104
333.03856
333.07947
333.07914
333.07844
333.07739
333.07598
333.07421
333.07205
333.06947
333.06636
333.06253
333.05758
333.05059
333.03808
333.07904
333.07871
333.07801
333.07696
333.07555
333.07377
333.07162
333.06904
333.06592
333.06209
333.05714
333.05013
333.0376
333.07861
333.07828
333.07758
333.07653
333.07511
333.07334
333.07119
333.0686
333.06548
333.06164
333.05669
333.04967
333.03711
333.07818
333.07785
333.07715
333.0761
333.07468
333.07291
333.07075
333.06816
333.06504
333.0612
333.05624
333.04921
333.03663
333.07775
333.07742
333.07672
333.07566
333.07425
333.07248
333.07032
333.06773
333.0646
333.06076
333.05579
333.04874
333.03613
333.07732
333.07699
333.07629
333.07523
333.07382
333.07204
333.06988
333.06729
333.06416
333.06031
333.05533
333.04828
333.03564
333.07689
333.07656
333.07586
333.0748
333.07339
333.07161
333.06945
333.06685
333.06372
333.05986
333.05488
333.04781
333.03514
333.07645
333.07613
333.07543
333.07437
333.07295
333.07118
333.06901
333.06641
333.06328
333.05941
333.05442
333.04734
333.03464
333.07602
333.0757
333.075
333.07394
333.07252
333.07074
333.06858
333.06597
333.06283
333.05896
333.05396
333.04686
333.03414
333.07559
333.07527
333.07456
333.0735
333.07209
333.0703
333.06814
333.06553
333.06239
333.05851
333.0535
333.04639
333.03363
333.07516
333.07484
333.07413
333.07307
333.07165
333.06987
333.0677
333.06509
333.06194
333.05806
333.05304
333.04591
333.03311
333.07473
333.0744
333.0737
333.07264
333.07122
333.06943
333.06726
333.06465
333.0615
333.05761
333.05257
333.04542
333.03259
333.07429
333.07397
333.07326
333.0722
333.07078
333.06899
333.06682
333.0642
333.06105
333.05715
333.05211
333.04494
333.03207
333.07386
333.07354
333.07283
333.07177
333.07034
333.06856
333.06638
333.06376
333.0606
333.05669
333.05164
333.04445
333.03155
333.07343
333.0731
333.0724
333.07133
333.06991
333.06812
333.06594
333.06331
333.06014
333.05623
333.05116
333.04396
333.03101
333.07299
333.07267
333.07196
333.07089
333.06947
333.06768
333.06549
333.06286
333.05969
333.05577
333.05069
333.04347
333.03048
333.07256
333.07223
333.07152
333.07046
333.06903
333.06724
333.06505
333.06242
333.05924
333.05531
333.05021
333.04297
333.02994
333.07212
333.0718
333.07109
333.07002
333.06859
333.06679
333.0646
333.06197
333.05878
333.05484
333.04974
333.04247
333.02939
333.07169
333.07136
333.07065
333.06958
333.06815
333.06635
333.06416
333.06151
333.05832
333.05437
333.04925
333.04196
333.02883
333.07125
333.07092
333.07021
333.06914
333.06771
333.06591
333.06371
333.06106
333.05786
333.0539
333.04877
333.04146
333.02828
333.07082
333.07049
333.06978
333.0687
333.06727
333.06546
333.06326
333.06061
333.0574
333.05343
333.04828
333.04094
333.02771
333.07038
333.07005
333.06934
333.06826
333.06683
333.06502
333.06281
333.06015
333.05694
333.05296
333.04779
333.04043
333.02714
333.06994
333.06961
333.0689
333.06782
333.06638
333.06457
333.06236
333.05969
333.05647
333.05248
333.0473
333.0399
333.02656
333.0695
333.06917
333.06846
333.06738
333.06594
333.06412
333.06191
333.05924
333.056
333.052
333.0468
333.03938
333.02597
333.06906
333.06873
333.06802
333.06694
333.06549
333.06367
333.06145
333.05877
333.05553
333.05152
333.0463
333.03885
333.02537
333.06862
333.06829
333.06757
333.06649
333.06504
333.06322
333.061
333.05831
333.05506
333.05103
333.04579
333.03831
333.02476
333.06818
333.06785
333.06713
333.06605
333.0646
333.06277
333.06054
333.05785
333.05459
333.05054
333.04529
333.03777
333.02415
333.06774
333.06741
333.06669
333.0656
333.06415
333.06232
333.06008
333.05738
333.05411
333.05005
333.04477
333.03722
333.02352
333.0673
333.06696
333.06624
333.06515
333.0637
333.06186
333.05962
333.05691
333.05363
333.04956
333.04425
333.03666
333.02288
333.06685
333.06652
333.0658
333.06471
333.06324
333.0614
333.05915
333.05644
333.05315
333.04906
333.04373
333.0361
333.02223
333.06641
333.06607
333.06535
333.06426
333.06279
333.06095
333.05869
333.05597
333.05266
333.04855
333.0432
333.03552
333.02155
333.06596
333.06563
333.0649
333.06381
333.06234
333.06049
333.05822
333.05549
333.05217
333.04805
333.04267
333.03494
333.02087
333.06551
333.06518
333.06445
333.06335
333.06188
333.06002
333.05775
333.05501
333.05168
333.04754
333.04212
333.03435
333.02015
333.06507
333.06473
333.064
333.0629
333.06142
333.05956
333.05728
333.05453
333.05118
333.04702
333.04157
333.03374
333.0194
333.06462
333.06428
333.06355
333.06244
333.06096
333.05909
333.05681
333.05404
333.05068
333.04649
333.04101
333.03311
333.01861
333.06417
333.06383
333.0631
333.06199
333.0605
333.05863
333.05633
333.05355
333.05018
333.04596
333.04044
333.03246
333.01772
)
;

boundaryField
{
    water_inlet
    {
        type            fixedValue;
        value           uniform 333.15;
    }
    water_outlet
    {
        type            zeroGradient;
    }
    water_wedge1
    {
        type            wedge;
    }
    water_wedge2
    {
        type            wedge;
    }
    water_to_rock
    {
        type            compressible::turbulentTemperatureRadCoupledMixed;
        refValue        nonuniform List<scalar> 
200
(
315.48712
319.1002
320.90231
321.99511
322.75114
323.32015
323.77275
324.14687
324.46492
324.74116
324.98513
325.20348
325.40099
325.5812
325.74682
325.89995
326.04225
326.17508
326.29952
326.41651
326.52681
326.63106
326.72982
326.82356
326.9127
326.99757
327.0785
327.15577
327.2296
327.30023
327.36784
327.43261
327.49469
327.55424
327.61138
327.66622
327.71889
327.76949
327.81811
327.86483
327.90974
327.95293
327.99445
328.03438
328.07279
328.10973
328.14526
328.17944
328.21232
328.24395
328.27437
328.30364
328.33178
328.35885
328.38489
328.40993
328.434
328.45715
328.4794
328.50079
328.52135
328.5411
328.56008
328.57831
328.59582
328.61263
328.62877
328.64426
328.65912
328.67338
328.68706
328.70017
328.71274
328.72478
328.73632
328.74737
328.75795
328.76807
328.77776
328.78702
328.79586
328.80432
328.81239
328.8201
328.82744
328.83445
328.84112
328.84747
328.85351
328.85925
328.8647
328.86986
328.87476
328.87939
328.88377
328.8879
328.89179
328.89545
328.89888
328.90209
328.90509
328.90788
328.91047
328.91287
328.91507
328.91708
328.91891
328.92056
328.92204
328.92334
328.92448
328.92545
328.92626
328.92691
328.9274
328.92773
328.92791
328.92794
328.92781
328.92754
328.92711
328.92654
328.92582
328.92495
328.92393
328.92276
328.92144
328.91997
328.91835
328.91658
328.91465
328.91256
328.91032
328.90792
328.90536
328.90263
328.89973
328.89666
328.89341
328.88999
328.88639
328.88259
328.87861
328.87443
328.87005
328.86546
328.86066
328.85564
328.8504
328.84492
328.83921
328.83325
328.82703
328.82056
328.81381
328.80679
328.79947
328.79185
328.78393
328.77568
328.76711
328.75818
328.7489
328.73925
328.72921
328.71877
328.70791
328.69662
328.68488
328.67266
328.65996
328.64673
328.63297
328.61865
328.60373
328.58819
328.572
328.55511
328.53749
328.5191
328.49989
328.47979
328.45875
328.43669
328.41354
328.38919
328.36353
328.33642
328.30769
328.27714
328.24449
328.20942
328.17145
328.12996
328.08399
328.03208
327.97169
327.89783
327.79895
327.64269
)
;
        refGradient     uniform 0;
        valueFraction   nonuniform List<scalar> 
200
(
0.021313587
0.018349032
0.017286587
0.016999676
0.017072311
0.017312679
0.017619574
0.017934173
0.018220835
0.018459614
0.01864309
0.018773723
0.018860286
0.018913928
0.018945118
0.018962099
0.018970608
0.018974281
0.018975235
0.018974594
0.018972889
0.01897032
0.018966927
0.018962686
0.018957559
0.018951519
0.01894456
0.018936694
0.018927949
0.018918366
0.018907994
0.018896903
0.018885173
0.018872882
0.018860098
0.018846868
0.018833224
0.018819204
0.018804843
0.018790181
0.018775253
0.018760098
0.018744752
0.018729251
0.018713631
0.018697926
0.018682171
0.018666398
0.018650643
0.018634938
0.018619319
0.018603823
0.018588486
0.018573349
0.018558454
0.018543848
0.018529578
0.018515694
0.018502248
0.018489294
0.018476882
0.018465064
0.018453885
0.018443386
0.018433604
0.018424565
0.018416289
0.018408788
0.018402063
0.018396108
0.018390909
0.018386445
0.018382687
0.018379603
0.018377154
0.018375302
0.018374002
0.018373211
0.018372885
0.018372979
0.018373449
0.018374253
0.01837535