/*--------------------------------*- C++ -*----------------------------------*\
| =========                 |                                                 |
| \\      /  F ield         | OpenFOAM: The Open Source CFD Toolbox           |
|  \\    /   O peration     | Version:  2506                                  |
|   \\  /    A nd           | Website:  www.openfoam.com                      |
|    \\/     M anipulation  |                                                 |
\*---------------------------------------------------------------------------*/
FoamFile
{
    version     2.0;
    format      ascii;
    arch        "LSB;label=32;scalar=64";
    class       volVectorField;
    location    "4000/water";
    object      U;
}
// * * * * * * * * * * * * * * * * * * * * * * * * * * * * * * * * * * * * * //

dimensions      [0 1 -1 0 0 0 0];

internalField   nonuniform List<vector> 
2600
(
(0.2509291 -6.6886033e-05 9.1190499e-19)
(0.25093316 -0.00014739222 -3.1418235e-18)
(0.25094167 -0.00023143146 -6.4357848e-19)
(0.2509543 -0.00031980044 -9.2180103e-19)
(0.25097092 -0.0004082391 -1.8456455e-19)
(0.25099124 -0.00049673666 7.7051347e-20)
(0.25101467 -0.0005856609 -2.5324349e-21)
(0.25103908 -0.00067482201 -4.5206317e-21)
(0.25105541 -0.00075972197 1.7771461e-19)
(0.25102652 -0.00083857781 -3.8936573e-20)
(0.25079811 -0.00098580402 -4.1246459e-20)
(0.24954942 -0.001485464 -7.4140707e-20)
(0.2411817 0.0014904344 -4.3253951e-19)
(0.25290631 -5.2391824e-05 1.268551e-18)
(0.25291356 -0.00012867936 -3.3116499e-18)
(0.25292967 -0.00020232594 -1.470496e-18)
(0.25295369 -0.00027812692 -8.1567055e-19)
(0.25298503 -0.00035187867 -3.4303142e-19)
(0.25302278 -0.00042368282 -1.5531021e-19)
(0.25306456 -0.0004936843 -1.2617726e-19)
(0.25310219 -0.00056251339 1.7077808e-19)
(0.25310631 -0.00062550536 2.6905875e-19)
(0.25297401 -0.00066089399 -1.7390463e-19)
(0.25231856 -0.00068576655 -1.9079957e-19)
(0.24919071 -0.0011507908 -2.5493604e-19)
(0.23317376 0.00055016191 -4.5237299e-19)
(0.25485703 -5.0201261e-05 -3.1116776e-19)
(0.25486389 -0.00012463928 -1.0338941e-18)
(0.2548791 -0.00019574884 -2.2219553e-18)
(0.2549016 -0.00026956178 -8.5393786e-20)
(0.25493052 -0.00034177627 -6.0946237e-20)
(0.25496396 -0.00041257844 -2.4284749e-19)
(0.25499618 -0.00048173979 1.5565424e-20)
(0.25500857 -0.00054996705 6.066282e-19)
(0.25494172 -0.00061637669 3.490548e-19)
(0.2546073 -0.0006602417 -1.1408493e-19)
(0.25332071 -0.00063871076 -2.0232005e-19)
(0.2478214 -0.00092597142 -3.7094004e-19)
(0.22526486 0.00012340436 -4.4351451e-19)
(0.25664521 -4.9743849e-05 1.9014354e-18)
(0.25665224 -0.00012488064 1.1675199e-18)
(0.2566674 -0.00019721364 -1.3376181e-19)
(0.2566896 -0.0002720698 -4.9510529e-20)
(0.25671747 -0.00034495172 -1.185614e-19)
(0.25674738 -0.00041609227 -6.9108454e-20)
(0.25676826 -0.0004848948 -2.5617723e-21)
(0.25674667 -0.00055096518 4.8313134e-20)
(0.25658539 -0.00061444887 -1.6002606e-19)
(0.2559957 -0.0006636637 1.3143559e-20)
(0.2539403 -0.00063277351 -8.6058385e-20)
(0.24583249 -0.00077044467 -3.3590818e-19)
(0.21800982 -5.9385922e-05 -4.9552584e-19)
(0.25841323 -4.8556775e-05 1.6355507e-18)
(0.2584204 -0.00012219546 1.3473838e-18)
(0.25843571 -0.00019301892 8.8895897e-19)
(0.25845781 -0.00026625064 -4.5987259e-19)
(0.25848442 -0.00033744492 -2.3747502e-19)
(0.25850914 -0.00040689654 7.5268975e-20)
(0.25851346 -0.00047389151 2.8679459e-20)
(0.25844542 -0.00053705871 -3.1044476e-19)
(0.25816424 -0.00059536594 -4.3800724e-20)
(0.25726648 -0.00064373127 9.1760158e-20)
(0.25431322 -0.0006144232 -1.2163771e-19)
(0.24352458 -0.00065114415 -1.8374284e-19)
(0.21163262 -0.00012321892 -4.1633386e-19)
(0.26015467 -4.709344e-05 1.3456891e-18)
(0.26016187 -0.0001185153 1.3582753e-18)
(0.26017704 -0.0001870764 9.4423938e-19)
(0.2601984 -0.00025799462 3.4290655e-19)
(0.26022227 -0.00032687702 6.4862941e-20)
(0.26023853 -0.00039398781 -7.2362273e-20)
(0.26021927 -0.00045855461 1.4625478e-19)
(0.26009115 -0.00051865148 4.541668e-20)
(0.25966515 -0.00057157394 4.1972281e-20)
(0.2584067 -0.0006148087 3.7848033e-20)
(0.25443266 -0.00058544056 -1.252706e-19)
(0.24102793 -0.0005571206 4.1255126e-20)
(0.20612335 -0.00013293671 -2.8858132e-19)
(0.26183846 -4.5390267e-05 4.5069708e-19)
(0.26184561 -0.00011435405 1.6684454e-18)
(0.26186042 -0.00018050108 1.1636449e-18)
(0.26188043 -0.00024892327 8.9348403e-19)
(0.26190008 -0.00031528561 2.4869369e-19)
(0.26190445 -0.00037977027 -8.1514651e-20)
(0.26185458 -0.00044151446 -9.6872689e-20)
(0.2616533 -0.00049832849 -1.818136e-19)
(0.26105826 -0.00054618084 -2.8620043e-19)
(0.25938354 -0.00058222647 -1.0776007e-19)
(0.25426994 -0.00054801504 -3.6734437e-20)
(0.23842933 -0.00047868139 -3.9130861e-20)
(0.20141646 -0.00011963306 -3.2870491e-19)
(0.26345768 -4.3664882e-05 -2.8652671e-18)
(0.26346469 -0.00011008558 -6.2813058e-19)
(0.26347885 -0.00017377013 -2.4360903e-19)
(0.26349678 -0.00023963045 5.643091e-20)
(0.26351051 -0.00030340684 -8.2860403e-20)
(0.26349932 -0.00036518044 8.6149767e-20)
(0.26341166 -0.00042394823 -1.0502794e-19)
(0.2631242 -0.00047735794 -2.4783432e-19)
(0.26233468 -0.00052050214 1.2023941e-19)
(0.26018092 -0.00054846095 -2.9134703e-20)
(0.25381559 -0.00050481858 2.4293328e-20)
(0.23581666 -0.00040978299 8.7006921e-20)
(0.19745226 -9.8494616e-05 -2.7870387e-19)
(0.26501552 -4.2046877e-05 2.4966984e-18)
(0.26502225 -0.00010599907 8.8129275e-19)
(0.26503542 -0.0001673021 8.4020409e-19)
(0.26505044 -0.00023067618 8.2999274e-19)
(0.26505633 -0.00029193976 1.9857988e-20)
(0.26502564 -0.00035106733 2.7235366e-20)
(0.26489279 -0.0004068816 1.8437203e-20)
(0.26450568 -0.00045685739 -4.7824928e-21)
(0.26349313 -0.00049549056 -2.2091576e-19)
(0.26078727 -0.00051473411 -5.1216121e-20)
(0.25307513 -0.00045847926 1.5536999e-21)
(0.23327192 -0.00034737981 1.8521685e-19)
(0.19416843 -7.6932879e-05 -1.5094282e-19)
(0.2665165 -4.057706e-05 1.1001992e-18)
(0.26652283 -0.00010224007 4.7803235e-19)
(0.26653459 -0.00016134012 8.640069e-19)
(0.26654572 -0.0002224043 5.9741608e-19)
(0.26654166 -0.00028132047 2.5962265e-19)
(0.26648729 -0.00033795568 4.9973373e-20)
(0.26630156 -0.0003909415 -6.7307848e-20)
(0.26580019 -0.00043752442 2.3547293e-21)
(0.26453091 -0.00047164498 -2.8361619e-19)
(0.26118849 -0.00048140525 -5.8682384e-20)
(0.25206937 -0.00041120617 -7.6755125e-20)
(0.23086314 -0.00029047959 -1.9797958e-19)
(0.19149027 -5.8333256e-05 -2.6946736e-19)
(0.26796591 -3.9276698e-05 -2.5669223e-18)
(0.26797166 -9.8886215e-05 -9.836576e-19)
(0.26798155 -0.00015601486 -1.5176336e-20)
(0.26798768 -0.00021499986 8.0432926e-19)
(0.26797137 -0.00027178437 1.8750918e-19)
(0.26788889 -0.00032612646 -6.5160197e-20)
(0.26764202 -0.00037645613 -7.5423799e-20)
(0.26700984 -0.00041972353 -1.5850999e-19)
(0.26544297 -0.00044912486 -2.1656009e-19)
(0.26137042 -0.00044842588 -1.3569947e-19)
(0.25083979 -0.00036475941 -8.626903e-20)
(0.22864123 -0.00023936528 -4.3118236e-19)
(0.18933265 -4.3854024e-05 -2.0231194e-19)
(0.26936985 -3.8151201e-05 -4.7585777e-20)
(0.26937484 -9.5961771e-05 -5.0088058e-19)
(0.26938229 -0.00015136516 -2.1560274e-19)
(0.2693822 -0.00020851724 8.5778758e-19)
(0.26935114 -0.00026339986 3.8389095e-19)
(0.26923575 -0.00031565718 1.1978342e-19)
(0.26891866 -0.00036350366 -5.8358037e-20)
(0.26813622 -0.00040351927 -1.7986749e-19)
(0.26622207 -0.00042777198 -7.8725455e-20)
(0.26132397 -0.00041560855 -1.0146133e-19)
(0.24944814 -0.00032041762 -1.2290778e-19)
(0.22663743 -0.00019477817 -3.4923168e-19)
(0.18760708 -3.3365973e-05 -2.0401793e-19)
(0.27073452 -3.7186892e-05 1.1740461e-18)
(0.27073851 -9.3441595e-05 -1.4009077e-20)
(0.27074291 -0.00014735094 -2.1841862e-19)
(0.27073523 -0.00020290124 4.9716728e-19)
(0.27068668 -0.00025609589 3.9096186e-19)
(0.27053315 -0.00030645578 2.1698154e-19)
(0.27013553 -0.00035195662 -6.6476395e-20)
(0.26917943 -0.00038871662 -1.4551628e-19)
(0.26685881 -0.00040716162 -2.1246598e-20)
(0.26105041 -0.00038281109 -1.1238327e-19)
(0.24796793 -0.00027903903 -2.622798e-19)
(0.2248628 -0.00015723519 -4.0555767e-19)
(0.18622942 -2.608962e-05 -2.118987e-19)
(0.27206549 -3.6358598e-05 1.5300284e-19)
(0.27206822 -9.1270025e-05 3.6459098e-19)
(0.27206885 -0.00014388431 1.5761396e-19)
(0.27205207 -0.00019803069 5.5964368e-19)
(0.27198302 -0.00024971698 -3.1868088e-19)
(0.27178551 -0.0002983267 1.6089874e-19)
(0.27129541 -0.00034156267 4.0129582e-19)
(0.27013718 -0.00037494839 5.8371716e-20)
(0.26734241 -0.00038673535 -4.5287983e-20)
(0.2605654 -0.00035005845 -1.2655317e-19)
(0.24647172 -0.00024119444 -2.8453885e-19)
(0.22331131 -0.00012666963 -3.9843479e-19)
(0.18512583 -2.107637e-05 -4.0920377e-19)
(0.27336737 -3.5638788e-05 -9.47624e-19)
(0.27336856 -8.938186e-05 4.0627399e-19)
(0.27336463 -0.00014086217 1.0715813e-18)
(0.27333706 -0.00019376295 -2.6907865e-20)
(0.27324415 -0.00024407934 -2.1772345e-19)
(0.27299604 -0.00029103799 -6.9850794e-20)
(0.27239931 -0.00033202383 3.1928716e-19)
(0.27100443 -0.00036176734 1.806098e-19)
(0.26766283 -0.00036596046 1.9172358e-19)
(0.25989992 -0.00031757793 -9.6206412e-20)
(0.24502002 -0.00020725745 -3.8145254e-19)
(0.22196569 -0.00010242448 -1.0670298e-19)
(0.18423545 -1.7507118e-05 -2.4371784e-19)
(0.27464382 -3.5002894e-05 8.6255905e-19)
(0.27464313 -8.7716018e-05 5.7377947e-19)
(0.27463375 -0.00013818758 1.2002311e-18)
(0.2745935 -0.00018996324 6.324769e-19)
(0.27447297 -0.00023900779 6.6365176e-19)
(0.27416661 -0.00028436529 -1.3667433e-20)
(0.27344636 -0.00032304577 -1.8866977e-19)
(0.27177364 -0.00034871442 3.0527633e-20)
(0.26781391 -0.00034445792 -2.0342515e-19)
(0.25909705 -0.00028576382 -2.0027637e-19)
(0.2436552 -0.00017740821 -3.3917748e-19)
(0.22080343 -8.347306e-05 -2.9984802e-19)
(0.18351045 -1.4804615e-05 1.4796678e-20)
(0.27589768 -3.4431104e-05 2.2639568e-18)
(0.27589473 -8.6221417e-05 4.4733532e-19)
(0.27587888 -0.00013577913 -8.7531075e-20)
(0.27582384 -0.00018651757 1.3443132e-19)
(0.27567139 -0.00023435206 4.9601472e-19)
(0.27529788 -0.00027811161 3.4934962e-20)
(0.27443375 -0.00031435606 -1.3935043e-19)
(0.27243556 -0.00033536392 -8.4964745e-20)
(0.26779662 -0.00032206948 -1.9784376e-19)
(0.25820551 -0.00025510598 -1.4573645e-19)
(0.24240122 -0.00015160162 -1.0953618e-19)
(0.21980119 -6.8691002e-05 -3.4747298e-19)
(0.18291435 -1.2618553e-05 -3.0212851e-19)
(0.27713109 -3.3908296e-05 1.257743e-18)
(0.27712546 -8.4858001e-05 4.7472968e-19)
(0.27710201 -0.00013357264 -5.637655e-19)
(0.27702977 -0.00018333501 -1.3644616e-19)
(0.27684047 -0.00022998947 2.0829971e-19)
(0.2763893 -0.00027211088 -1.4584751e-19)
(0.27535691 -0.00030570399 -1.3275536e-19)
(0.2729805 -0.00032135787 -1.9689223e-19)
(0.26762111 -0.00029886295 -1.7062623e-19)
(0.25727242 -0.00022610441 -1.4834019e-19)
(0.24126718 -0.00012956885 -5.7917362e-20)
(0.21893722 -5.7057434e-05 -2.1626914e-19)
(0.18241982 -1.0759083e-05 -2.5309853e-19)
(0.27834572 -3.3423243e-05 -1.7288435e-19)
(0.27833694 -8.3595438e-05 3.0215242e-19)
(0.2783046 -0.00013151911 1.4753667e-19)
(0.27821241 -0.00018034488 8.7132436e-19)
(0.27798052 -0.00022582105 -2.4927951e-19)
(0.27743925 -0.00026622306 4.5568138e-20)
(0.27620962 -0.00029685485 1.3548251e-19)
(0.27340008 -0.00030643644 -1.0558908e-19)
(0.26730692 -0.00027509383 -2.1126447e-19)
(0.25633756 -0.0001991843 -1.3218018e-19)
(0.24025214 -0.0001108758 -2.3090687e-20)
(0.21819234 -4.7749366e-05 -1.2659855e-19)
(0.18200662 -9.1303522e-06 -3.6852134e-19)
(0.27954284 -3.2967675e-05 -1.8743835e-18)
(0.27953036 -8.2411064e-05 -5.1059448e-19)
(0.27948767 -0.00012958149 1.0189607e-18)
(0.27937237 -0.00017749197 1.9856316e-19)
(0.27909121 -0.00022176546 -1.0567225e-19)
(0.27844503 -0.00026032527 8.9596335e-20)
(0.27698441 -0.00028758731 8.7080937e-20)
(0.27368915 -0.00029046172 -4.9409695e-20)
(0.26688073 -0.00025114512 7.8987445e-20)
(0.25543062 -0.00017462896 2.2943982e-19)
(0.2393495 -9.5013854e-05 -2.8607225e-21)
(0.21755 -4.0152308e-05 4.4134397e-20)
(0.18165972 -7.683957e-06 -1.2670024e-19)
(0.28072346 -3.253541e-05 -1.6251166e-18)
(0.28070667 -8.1287793e-05 -7.6946551e-19)
(0.28065194 -0.00012773124 2.9409223e-19)
(0.28050986 -0.0001747318 -2.0024571e-20)
(0.28017156 -0.00021775303 1.9325672e-19)
(0.27940289 -0.00025430188 2.1546765e-19)
(0.27767312 -0.00027769789 1.9102729e-19)
(0.27384765 -0.00027342827 3.4291919e-19)
(0.26637281 -0.00022746053 4.6826114e-20)
(0.2545711 -0.0001525485 -2.8936106e-19)
(0.23855012 -8.148403e-05 -3.9407663e-19)
(0.21699614 -3.3827434e-05 -8.8634525e-20)
(0.18136794 -6.3925383e-06 1.5954568e-19)
(0.28188837 -3.2121656e-05 1.2504975e-18)
(0.28186655 -8.0212343e-05 1.9949306e-18)
(0.28179785 -0.00012594549 -2.4559246e-19)
(0.28162471 -0.00017202641 -2.4425224e-20)
(0.28121999 -0.00021372065 3.5914713e-19)
(0.28030804 -0.00024803603 4.7125871e-19)
(0.27826773 -0.00026701328 3.7096821e-19)
(0.27388156 -0.00025545692 4.2895442e-19)
(0.26581311 -0.00020447967 8.1984289e-20)
(0.25377001 -0.00013289057 -6.0404655e-19)
(0.23784411 -6.9849921e-05 -3.4943214e-19)
(0.21651887 -2.8467154e-05 -1.5264592e-19)
(0.18112283 -5.2370927e-06 -6.7104634e-20)
(0.28303819 -3.1722486e-05 -2.8855244e-19)
(0.28301052 -7.9173849e-05 9.1039621e-19)
(0.28292559 -0.00012420469 -1.7912812e-20)
(0.28271638 -0.00016934096 -5.7684419e-19)
(0.2822343 -0.00020960734 5.511969e-19)
(0.28115476 -0.00024140493 3.4927357e-19)
(0.27876144 -0.00025540747 1.348262e-21)
(0.27380292 -0.00023677356 3.0267568e-19)
(0.26522808 -0.00018258167 1.0772853e-19)
(0.25303215 -0.00011548282 2.5687452e-20)
(0.23722187 -5.9756961e-05 1.0690322e-19)
(0.21610816 -2.3855673e-05 -6.2178594e-20)
(0.18091788 -4.2018429e-06 6.7606967e-20)
(0.28417339 -3.1334452e-05 1.3275088e-18)
(0.28413893 -7.8162818e-05 -7.2887928e-19)
(0.28403512 -0.00012249081 1.4024574e-19)
(0.28378396 -0.00016664114 3.6090823e-19)
(0.28321158 -0.0002053501 -1.1747993e-19)
(0.28193659 -0.00023428041 2.5319457e-19)
(0.27914984 -0.00024281874 4.1906875e-19)
(0.27362851 -0.00021767781 4.8379659e-19)
(0.26463906 -0.00016204558 1.3341947e-19)
(0.25235823 -0.00010008753 -1.6179302e-19)
(0.23667446 -5.0928432e-05 -4.4167027e-19)
(0.21575559 -1.9839552e-05 -1.8899866e-19)
(0.18074793 -3.2726365e-06 1.0310415e-20)
(0.28529433 -3.0954305e-05 1.1540607e-18)
(0.28525196 -7.7170336e-05 7.2297195e-19)
(0.28512619 -0.000120786 1.1758439e-18)
(0.28482614 -0.00016389138 7.4663348e-19)
(0.28414822 -0.00020087986 1.6696701e-19)
(0.28264669 -0.00022653515 1.7252894e-19)
(0.27943202 -0.00022926076 4.4760622e-19)
(0.27337791 -0.00019850622 9.271754e-20)
(0.26406181 -0.0001430334 1.5707744e-19)
(0.25174654 -8.6449679e-05 2.5703754e-19)
(0.23619383 -4.3151081e-05 -3.3671795e-19)
(0.21545404 -1.6307481e-05 -1.6030457e-19)
(0.18060883 -2.4367066e-06 -8.2574562e-20)
(0.28640123 -3.0578784e-05 -1.1534048e-18)
(0.28634965 -7.6187464e-05 4.641671e-19)
(0.28619826 -0.00011907139 8.6712633e-19)
(0.28584114 -0.00016105348 2.6881877e-19)
(0.28503985 -0.00019611847 7.2425394e-19)
(0.2832784 -0.00021805401 3.0045567e-19)
(0.27961117 -0.00021482471 1.093869e-19)
(0.27307114 -0.00017959427 2.9528467e-19)
(0.26350715 -0.00012559657 2.9095638e-20)
(0.25119402 -7.4328966e-05 3.6272598e-19)
(0.23577276 -3.6259371e-05 2.3618889e-19)
(0.21519748 -1.3176836e-05 1.1235868e-19)
(0.18049716 -1.6827576e-06 1.0766911e-19)
(0.28749419 -3.0204451e-05 3.8131075e-18)
(0.28743185 -7.520472e-05 2.746647e-18)
(0.28725056 -0.00011732616 4.1465736e-19)
(0.28682673 -0.00015808531 -3.5130167e-20)
(0.28588145 -0.00019097762 3.0168241e-19)
(0.28382593 -0.00020874813 3.7208122e-19)
(0.27969464 -0.00019967158 1.4499011e-19)
(0.27272685 -0.00016124193 2.3614217e-19)
(0.26298189 -0.00010969946 1.0453197e-19)
(0.25069697 -6.3515018e-05 -2.4877699e-19)
(0.23540492 -3.0122541e-05 1.7546955e-19)
(0.21498079 -1.0384801e-05 1.2955538e-19)
(0.18041 -1.0010018e-06 2.3527619e-20)
(0.28857317 -2.9827535e-05 3.6841953e-18)
(0.28849825 -7.4211613e-05 2.941206e-18)
(0.28828196 -0.00011552671 5.2862761e-19)
(0.28778008 -0.00015493915 -3.1972347e-19)
(0.28666738 -0.00018536089 2.3705293e-19)
(0.28428521 -0.00019856896 1.7655944e-19)
(0.27969326 -0.00018401637 1.1103809e-19)
(0.27236107 -0.00014368791 1.9654312e-19)
(0.26248991 -9.5249865e-05 9.0539217e-20)
(0.25025143 -5.3830553e-05 3.9137436e-20)
(0.23508472 -2.4635271e-05 2.1999816e-19)
(0.21479959 -7.8824879e-06 3.8996297e-20)
(0.18034487 -3.8307853e-07 5.1697768e-20)
(0.28963798 -2.944375e-05 5.9399051e-19)
(0.28954832 -7.3196105e-05 1.1039654e-18)
(0.28929102 -0.00011364593 3.5621354e-19)
(0.2886978 -0.00015155982 7.9864097e-19)
(0.28739174 -0.00017916927 1.3615618e-19)
(0.28465455 -0.00018751865 9.7770937e-20)
(0.27962017 -0.00016810641 6.2961001e-19)
(0.2719867 -0.00012709648 5.8053604e-19)
(0.26203302 -8.2127518e-05 -3.3444925e-20)
(0.24985346 -4.512813e-05 -2.2093103e-19)
(0.23480728 -1.9711264e-05 -3.4371578e-19)
(0.21465012 -5.6309904e-06 -3.0575203e-20)
(0.18029962 1.7812927e-07 -1.9431659e-20)
(0.29068824 -2.9047997e-05 2.1994358e-19)
(0.29058125 -7.2143821e-05 5.503232e-19)
(0.29027586 -0.00011165221 8.9764734e-19)
(0.28957586 -0.00014788248 1.0211887e-18)
(0.28804865 -0.00017230926 2.9803329e-19)
(0.28493523 -0.00017565385 1.5436383e-19)
(0.2794894 -0.00015219579 3.9671207e-19)
(0.2716136 -0.00011155661 -1.7404571e-20)
(0.26161163 -7.0203562e-05 2.2660668e-19)
(0.24949925 -3.7283208e-05 1.0304751e-19)
(0.23456828 -1.5277061e-05 -2.6697746e-19)
(0.21452909 -3.5978746e-06 -4.7800906e-20)
(0.18027234 6.8891646e-07 -1.5244704e-20)
(0.29172336 -2.863428e-05 -7.438117e-19)
(0.291596 -7.1037635e-05 -1.1467101e-18)
(0.29123415 -0.00010950892 1.2859233e-19)
(0.29040962 -0.00014383257 5.8384169e-20)
(0.28863287 -0.00016470429 5.0489468e-19)
(0.28513156 -0.00016308395 4.2101006e-19)
(0.27931466 -0.00013652206 -5.1639103e-20)
(0.27124896 -9.7093557e-05 1.0989237e-19)
(0.26122524 -5.9353649e-05 3.3401757e-19)
(0.24918522 -3.0190177e-05 4.7838907e-19)
(0.23436395 -1.1270301e-05 2.695289e-19)
(0.2144337 -1.7305516e-06 -4.3489837e-20)
(0.18026136 1.1761551e-06 1.4812102e-19)
(0.29274252 -2.8196034e-05 -7.1290026e-19)
(0.29259116 -6.985846e-05 7.9019496e-19)
(0.29216305 -0.00010717577 -2.7926861e-19)
(0.29119393 -0.00013933085 9.8861368e-20)
(0.28914031 -0.00015631032 2.0222183e-19)
(0.28525057 -0.00014996782 3.6706438e-19)
(0.27910837 -0.00012129298 3.5144677e-20)
(0.2708978 -8.3692847e-05 2.958112e-19)
(0.26087272 -4.9471605e-05 1.267013e-19)
(0.24890802 -2.3766776e-05 2.2362857e-20)
(0.23419085 -7.6476596e-06 2.7355528e-19)
(0.21436056 -1.6260034e-08 -2.9057904e-20)
(0.18026627 1.6403954e-06 -6.3723481e-20)
(0.2937446 -2.77251e-05 5.3970333e-19)
(0.29356496 -6.8583191e-05 2.4323328e-18)
(0.29305914 -0.00010460504 4.0552797e-20)
(0.29192334 -0.00013429446 -1.064502e-20)
(0.28956868 -0.00014712078 3.8021322e-19)
(0.2853013 -0.00013649479 2.4361286e-19)
(0.27888121 -0.00010666837 1.0899016e-19)
(0.27056351 -7.1310476e-05 3.7667022e-19)
(0.26055265 -4.0462895e-05 2.4955898e-19)
(0.24866458 -1.7940257e-05 1.3742524e-19)
(0.23404606 -4.3539087e-06 3.1050562e-19)
(0.21430781 1.5374047e-06 1.3265599e-19)
(0.18028522 2.0563871e-06 2.4250454e-21)
(0.29472815 -2.7211026e-05 1.9124971e-18)
(0.29451518 -6.7183247e-05 3.2216671e-19)
(0.29391842 -0.00010173906 8.6937486e-19)
(0.29259237 -0.00012864185 6.1975909e-19)
(0.28991788 -0.00013716949 -9.6005419e-20)
(0.28529395 -0.00012286452 4.2816434e-19)
(0.27864192 -9.2752926e-05 9.7560792e-19)
(0.27024822 -5.9882443e-05 9.5142473e-19)
(0.26026336 -3.2238665e-05 2.3796457e-19)
(0.24845204 -1.264238e-05 -3.8625341e-19)
(0.23392646 -1.3358846e-06 -2.6807676e-19)
(0.21427448 2.9561745e-06 1.5436029e-19)
(0.18031663 2.4263107e-06 6.5061465e-20)
(0.29569132 -2.6641404e-05 1.2923219e-18)
(0.2954391 -6.562555e-05 -2.6697036e-19)
(0.29473631 -9.8512689e-05 1.8217985e-18)
(0.29319592 -0.0001223057 7.8738901e-19)
(0.29019018 -0.00012653597 -9.533627e-20)
(0.2852389 -0.00010927516 3.6103057e-19)
(0.27839743 -7.9607266e-05 6.5875943e-19)
(0.26995312 -4.9342229e-05 1.5362851e-19)
(0.26000309 -2.4722181e-05 3.1026522e-19)
(0.24826773 -7.815096e-06 3.3002107e-19)
(0.23382956 1.4151454e-06 1.3126296e-20)
(0.21425921 4.2390779e-06 -2.8400537e-20)
(0.18035932 2.7544334e-06 2.4403028e-20)
(0.29663173 -2.6001182e-05 -2.0917126e-18)
(0.29633339 -6.3871159e-05 -9.1539838e-19)
(0.29550768 -9.48539e-05 1.0076357e-18)
(0.29372976 -0.0001152412 1.2110015e-19)
(0.29039012 -0.00011533898 6.9721842e-19)
(0.28514604 -9.5905389e-05 2.2488154e-20)
(0.27815305 -6.7254144e-05 -2.2592496e-19)
(0.26967872 -3.9623337e-05 -1.2311251e-19)
(0.25977003 -1.784186e-05 4.6780164e-19)
(0.24810923 -3.3839717e-06 9.7822191e-19)
(0.23375398 3.931202e-06 5.4717707e-19)
(0.21425996 5.390608e-06 2.0657532e-20)
(0.18041214 3.0443393e-06 1.052889e-19)
(0.29754645 -2.5272391e-05 4.0557601e-19)
(0.29719411 -6.1874454e-05 7.9481036e-19)
(0.29622706 -9.0687767e-05 -1.7159905e-19)
(0.29419101 -0.0001074348 3.7177928e-19)
(0.290524 -0.00010372738 6.800516e-19)
(0.28502427 -8.2903376e-05 6.3213104e-22)
(0.27791277 -5.5688945e-05 -2.2779396e-19)
(0.26942499 -3.0662241e-05 -5.4149695e-20)
(0.25956226 -1.1539689e-05 4.2660672e-20)
(0.24797362 6.7588902e-07 1.7490966e-19)
(0.23369893 6.2277139e-06 2.3889288e-19)
(0.21427538 6.4296328e-06 1.3654015e-19)
(0.18047413 3.3030858e-06 -2.3056088e-20)
(0.29843186 -2.4434089e-05 3.3756335e-18)
(0.29801658 -5.9582982e-05 2.5306467e-18)
(0.29688883 -8.5943402e-05 3.8432427e-19)
(0.29457851 -9.8910855e-05 4.6692633e-19)
(0.29059935 -9.1868441e-05 7.2677362e-19)
(0.28488126 -7.0382632e-05 1.3335547e-19)
(0.27767954 -4.489069e-05 -1.5539442e-19)
(0.26919163 -2.2395852e-05 2.3203189e-20)
(0.25937815 -5.7364249e-06 6.8289412e-20)
(0.24785972 4.3904766e-06 3.9227232e-20)
(0.2336621 8.3015905e-06 1.455352e-19)
(0.21430404 7.3666941e-06 2.6355697e-19)
(0.18054443 3.5354637e-06 9.7881461e-20)
(0.29928359 -2.3462153e-05 2.2447517e-18)
(0.29879547 -5.6937594e-05 1.4326632e-18)
(0.29748763 -8.0561628e-05 1.0733613e-18)
(0.29489309 -8.9732438e-05 7.7315991e-19)
(0.29062422 -7.9932349e-05 5.8306596e-20)
(0.28472341 -5.8420111e-05 2.7147533e-19)
(0.27745536 -3.4827539e-05 8.2976693e-19)
(0.26897782 -1.4770414e-05 7.5835212e-19)
(0.25921519 -3.9180487e-07 2.5695769e-19)
(0.24776702 7.7920392e-06 -4.8290803e-19)
(0.23364198 1.0181097e-05 -3.6065299e-19)
(0.21434474 8.2147595e-06 1.9676813e-19)
(0.18062225 3.744996e-06 1.4115059e-19)
(0.30009637 -2.232973e-05 -3.5557526e-19)
(0.29952479 -5.38755e-05 1.64359e-18)
(0.29801875 -7.4505261e-05 4.3990425e-19)
(0.29513749 -7.9999959e-05 4.104492e-19)
(0.29060659 -6.8080588e-05 -1.2467358e-19)
(0.28455591 -4.7062487e-05 5.2237597e-19)
(0.27724164 -2.5459232e-05 9.2069611e-19)
(0.2687829 -7.7156765e-06 3.4889072e-19)
(0.25907248 4.515385e-06 1.9878193e-19)
(0.24769347 1.0881377e-05 -2.0483651e-19)
(0.23363709 1.1884858e-05 -2.8870696e-19)
(0.21439637 8.9837396e-06 -1.4052525e-19)
(0.1807069 3.9343465e-06 -9.2549637e-20)
(0.30086402 -2.1007838e-05 -1.0493707e-19)
(0.30019808 -5.0335143e-05 1.2396265e-18)
(0.29847859 -6.7767507e-05 1.0149718e-18)
(0.29531608 -6.984363e-05 -8.9420585e-19)
(0.29055391 -5.6454431e-05 6.7852655e-19)
(0.28438287 -3.633203e-05 4.3939794e-19)
(0.27703906 -1.6748269e-05 -3.6853371e-20)
(0.2686053 -1.187532e-06 -3.6726801e-19)
(0.25894976 9.0213315e-06 1.2148511e-19)
(0.24763751 1.3689791e-05 4.115184e-19)
(0.23364609 1.3431085e-05 2.9608318e-19)
(0.21445793 9.6806796e-06 -3.6565723e-19)
(0.18079772 4.105019e-06 -1.8613732e-19)
(0.30157943 -1.9467192e-05 1.3093724e-18)
(0.30080863 -4.6264344e-05 6.7546672e-19)
(0.29886499 -6.0378835e-05 1.1847161e-18)
(0.29543444 -5.9413962e-05 6.646435e-20)
(0.29047287 -4.5169374e-05 8.7819934e-19)
(0.28420752 -2.6229159e-05 1.5404806e-19)
(0.27684812 -8.6362755e-06 -2.9883377e-19)
(0.26844451 4.8386395e-06 -1.7878345e-19)
(0.25884557 1.3135762e-05 1.7049157e-21)
(0.2475977 1.6244092e-05 1.9940339e-19)
(0.23366777 1.4835352e-05 2.8525072e-19)
(0.21452852 1.0311983e-05 -1.3342366e-19)
(0.18089414 4.25853e-06 -1.2333068e-19)
(0.30223466 -1.7681571e-05 1.5124306e-18)
(0.3013499 -4.1630433e-05 1.0182784e-18)
(0.29917751 -5.2409546e-05 8.5713716e-19)
(0.29549883 -4.886943e-05 1.3372919e-18)
(0.29036918 -3.4313659e-05 9.0555351e-19)
(0.28403214 -1.674752e-05 6.3372907e-19)
(0.27666826 -1.0891133e-06 6.8631347e-19)
(0.26830088 1.0390972e-05 3.3892117e-19)
(0.25875851 1.688848e-05 -1.3657488e-20)
(0.24757272 1.856818e-05 -3.0189453e-19)
(0.23370102 1.6110019e-05 1.0606245e-19)
(0.21460732 1.088276e-05 7.2621477e-20)
(0.18099561 4.3960737e-06 -6.3997208e-20)
(0.30282117 -1.5633392e-05 -3.7286851e-19)
(0.30181594 -3.643149e-05 1.0358175e-18)
(0.29941741 -4.3968562e-05 6.074493e-19)
(0.29551566 -3.8365473e-05 9.1545759e-19)
(0.2902477 -2.3945229e-05 4.0958795e-19)
(0.28385859 -7.8477304e-06 5.3886809e-19)
(0.27649982 5.9141189e-06 8.2349538e-19)
(0.26817344 1.5479809e-05 1.8937135e-19)
(0.25868728 2.0310836e-05 -1.0126947e-21)
(0.24756135 2.0682631e-05 5.330872e-20)
(0.23374484 1.7265698e-05 7.5136473e-20)
(0.21469357 1.1397584e-05 2.933757e-20)
(0.18110164 4.5187589e-06 -7.186664e-20)
(0.30333026 -1.3320789e-05 -6.6910798e-19)
(0.30220189 -3.070559e-05 3.010756e-18)
(0.29958744 -3.5196378e-05 4.7458086e-19)
(0.29549103 -2.8043651e-05 8.2675909e-19)
(0.29011218 -1.4099846e-05 6.9119217e-20)
(0.28368733 4.8516764e-07 1.7090802e-19)
(0.276344 1.2388894e-05 -8.8534422e-20)
(0.26806119 2.0135121e-05 1.7354979e-20)
(0.2586307 2.3431346e-05 2.7220536e-19)
(0.24756246 2.2604561e-05 5.2006967e-19)
(0.23379832 1.8311468e-05 1.3249906e-19)
(0.21478659 1.1860463e-05 2.5954574e-19)
(0.18121176 4.6275471e-06 5.72415e-20)
(0.30375374 -1.0764901e-05 2.6576524e-18)
(0.30250438 -2.4536352e-05 3.4145736e-18)
(0.29969147 -2.6255593e-05 2.443616e-18)
(0.29543051 -1.8024197e-05 -9.8024441e-20)
(0.28996562 -4.7858116e-06 7.1825697e-20)
(0.28352015 8.243121e-06 3.7503482e-19)
(0.27620025 1.8335885e-05 -1.6243743e-19)
(0.26796311 2.4389468e-05 -5.7750327e-20)
(0.25858763 2.6274657e-05 1.1025963e-19)
(0.24757502 2.4348911e-05 9.337734e-20)
(0.2338606 1.9255533e-05 1.1238861e-19)
(0.21488574 1.2275083e-05 1.7467572e-20)
(0.18132555 4.7233411e-06 7.4571771e-20)
(0.30408466 -8.0145696e-06 1.059002e-18)
(0.30272186 -1.8051784e-05 6.163791e-19)
(0.29973407 -1.7315878e-05 1.7613354e-18)
(0.29533886 -8.3895763e-06 9.7913671e-20)
(0.28980995 3.9789694e-06 5.719804e-20)
(0.28335875 1.5424507e-05 2.4529873e-20)
(0.27606809 2.378474e-05 -4.6117238e-20)
(0.26787825 2.8272287e-05 1.4400949e-19)
(0.25855702 2.8860169e-05 5.0190556e-20)
(0.24759809 2.5927617e-05 1.7919038e-19)
(0.23393092 2.0104413e-05 2.9271406e-19)
(0.21499042 1.2644232e-05 -2.1246564e-21)
(0.1814426 4.8067239e-06 3.9121169e-20)
(0.30431819 -5.1449355e-06 -1.4125385e-18)
(0.30285461 -1.1412625e-05 -4.0130974e-19)
(0.29971994 -8.5331465e-06 8.567769e-20)
(0.29521955 7.8209977e-07 9.9318314e-19)
(0.28964857 1.2143097e-05 1.9539349e-19)
(0.28320331 2.2022634e-05 1.5241745e-20)
(0.27594691 2.8765133e-05 8.1351602e-19)
(0.26780566 3.1808704e-05 3.7486825e-19)
(0.25853789 3.120518e-05 4.6021824e-21)
(0.24763076 2.7351718e-05 -8.8522306e-20)
(0.23400854 2.0864202e-05 7.2614719e-20)
(0.2151001 1.2970552e-05 6.5692883e-20)
(0.18156252 4.8782861e-06 3.6522789e-20)
(0.30445222 -2.2472223e-06 8.4009622e-19)
(0.30290466 -4.7892186e-06 1.7472098e-18)
(0.2996534 -5.7423239e-08 8.908651e-19)
(0.29507686 9.3868932e-06 1.2234487e-18)
(0.28948321 1.967057e-05 5.4665872e-19)
(0.28305386 2.8057815e-05 4.5049087e-19)
(0.27583605 3.3302688e-05 6.7670973e-19)
(0.26774441 3.5018198e-05 4.0696135e-19)
(0.25852929 3.3323437e-05 2.0449497e-19)
(0.24767222 2.862991e-05 9.0162523e-20)
(0.23409279 2.153949e-05 -2.0939554e-19)
(0.21521426 1.3255892e-05 -1.9549114e-20)
(0.18168496 4.9383563e-06 -9.5073372e-21)
(0.30448759 5.8144364e-07 8.2572883e-19)
(0.30287533 1.6332184e-06 2.58265e-18)
(0.29953939 7.9404112e-06 -1.2399509e-19)
(0.29491435 1.733427e-05 9.5827226e-19)
(0.28931491 2.6550409e-05 7.0373486e-19)
(0.28291026 3.3548738e-05 7.5676825e-19)
(0.2757348 3.7416537e-05 -2.8076222e-20)
(0.26769361 3.7916283e-05 1.6314931e-19)
(0.25853035 3.5226118e-05 4.2493741e-19)
(0.24772169 2.9769078e-05 4.3224262e-19)
(0.23418305 2.2133731e-05 1.850131e-20)
(0.2153324 1.3501524e-05 1.8588411e-19)
(0.18180955 4.9870831e-06 -1.2708725e-20)
(0.30442824 3.2381532e-06 -1.118219e-18)
(0.30277199 7.6570119e-06 1.9225419e-18)
(0.29938292 1.5304036e-05 2.3651399e-18)
(0.29473444 2.4565404e-05 -4.9395912e-19)
(0.28914434 3.2781727e-05 4.1652051e-19)
(0.28277222 3.8508152e-05 4.3369752e-19)
(0.27564244 4.1120473e-05 -2.411235e-19)
(0.26765239 4.0514607e-05 -1.8731356e-19)
(0.25854021 3.6921374e-05 -7.6346806e-20)
(0.24777843 3.0773908e-05 6.9385724e-20)
(0.23427872 2.2649003e-05 7.3818468e-20)
(0.21545406 1.3708016e-05 9.1639825e-21)
(0.18193595 5.0243928e-06 2.0034181e-20)
(0.30428147 5.6356046e-06 2.2163037e-19)
(0.30260141 1.3122413e-05 3.3804858e-18)
(0.29918843 2.193046e-05 3.3948274e-18)
(0.29453912 3.1047563e-05 8.4833191e-19)
(0.28897192 3.8362728e-05 7.5299623e-19)
(0.28263933 4.2943589e-05 1.5641557e-20)
(0.2755582 4.4423879e-05 -3.6011648e-19)
(0.26761989 4.2821021e-05 1.2182046e-19)
(0.25855808 3.8414284e-05 1.5056474e-19)
(0.24784174 3.1646875e-05 4.9029141e-20)
(0.23437921 2.3085977e-05 -3.9750152e-21)
(0.21557877 1.3875179e-05 2.2160843e-21)
(0.18206381 5.0499558e-06 2.3540049e-20)
(0.30405678 7.7205573e-06 2.8450127e-18)
(0.30237113 1.7926743e-05 2.9576851e-18)
(0.29896016 2.7756859e-05 1.8625798e-18)
(0.29433004 3.6759567e-05 1.289294e-18)
(0.28879784 4.3291052e-05 6.6642854e-19)
(0.2825111 4.6859665e-05 5.0596653e-19)
(0.2754813 4.7332658e-05 1.4753598e-19)
(0.26759529 4.4839998e-05 1.258546e-19)
(0.25858316 3.9707149e-05 1.7301387e-19)
(0.24791094 3.2388444e-05 1.605399e-19)
(0.23448396 2.3444036e-05 1.0362454e-19)
(0.21570609 1.4002136e-05 -9.4216882e-20)
(0.18219278 5.0632204e-06 -4.6592658e-20)
(0.30376497 9.4677053e-06 3.8877303e-18)
(0.30208913 2.2015514e-05 2.0428454e-18)
(0.29870222 3.2751974e-05 3.353742e-19)
(0.29410866 4.1691511e-05 3.6482282e-19)
(0.2886222 4.7566382e-05 6.5059448e-19)
(0.28238699 5.0259555e-05 8.4658566e-19)