/*--------------------------------*- C++ -*----------------------------------*\
| =========                 |                                                 |
| \\      /  F ield         | OpenFOAM: The Open Source CFD Toolbox           |
|  \\    /   O peration     | Version:  2506                                  |
|   \\  /    A nd           | Website:  www.openfoam.com                      |
|    \\/     M anipulation  |                                                 |
\*---------------------------------------------------------------------------*/
FoamFile
{
    version     2.0;
    format      ascii;
    arch        "LSB;label=32;scalar=64";
    class       volScalarField;
    location    "4000/water";
    object      alphat;
}
// * * * * * * * * * * * * * * * * * * * * * * * * * * * * * * * * * * * * * //

dimensions      [1 -1 -1 0 0 0 0];

internalField   nonuniform List<scalar> 
6000
(
0.041292847
0.041292824
0.041292831
0.041292856
0.041292889
0.041292932
0.041292983
0.041293016
0.041292808
0.041290571
0.041271537
0.041111294
0.0397723
0.030564074
0.013464793
0.040788543
0.040788537
0.040788576
0.040788654
0.040788758
0.040788888
0.04078902
0.040788972
0.040787494
0.040776037
0.040696382
0.040161217
0.036863805
0.023766469
0.015141611
0.04033569
0.040335696
0.040335761
0.040335884
0.040336044
0.040336229
0.04033633
0.040335685
0.040330323
0.040296649
0.040097616
0.038983223
0.033614213
0.0194951
0.016360294
0.039926215
0.039926219
0.039926301
0.039926459
0.03992666
0.039926848
0.039926701
0.039924457
0.039910659
0.039835636
0.039448738
0.037597438
0.030384627
0.016783058
0.017196555
0.039553796
0.039553808
0.039553906
0.039554093
0.039554312
0.039554413
0.039553622
0.0395481
0.039519187
0.039379112
0.038737841
0.036066498
0.027427863
0.015063192
0.01773179
0.039213273
0.039213296
0.039213408
0.039213613
0.039213809
0.039213657
0.039211571
0.039200298
0.039147643
0.038916647
0.037965398
0.034462847
0.024852826
0.013984463
0.018040007
0.038900366
0.038900399
0.038900521
0.038900723
0.038900826
0.038900159
0.038895819
0.03887551
0.038788999
0.038441492
0.037140256
0.032849727
0.022675913
0.013336844
0.018183117
0.038611532
0.038611573
0.038611697
0.038611866
0.038611765
0.038610199
0.038602307
0.038568928
0.038437606
0.037950377
0.036275872
0.031274836
0.020870828
0.012994967
0.018210197
0.038343817
0.038343862
0.038343975
0.038344065
0.038343601
0.038340605
0.038327517
0.03827644
0.038089201
0.037442856
0.03538704
0.029770034
0.019396999
0.012882914
0.018158676
0.038094736
0.03809478
0.038094862
0.038094803
0.038093753
0.038088644
0.038068396
0.037994592
0.037740813
0.036920505
0.03448763
0.028354169
0.018213448
0.012953916
0.018056304
0.037862183
0.037862216
0.037862238
0.037861935
0.037860009
0.037851941
0.037822294
0.037720559
0.037390607
0.036386134
0.033589398
0.02703684
0.017284481
0.013178532
0.017923231
0.03764436
0.037644371
0.037644291
0.037643618
0.037640447
0.037628426
0.037586933
0.037452106
0.037037684
0.035843147
0.032701562
0.025821837
0.016581272
0.013537499
0.017773886
0.037439726
0.037439699
0.03743946
0.037438254
0.037433393
0.037416287
0.037360374
0.037187532
0.036681868
0.035295042
0.031830871
0.02470985
0.016081614
0.014017191
0.017618497
0.037246949
0.037246861
0.037246392
0.037244452
0.037237378
0.037213943
0.037140989
0.036925609
0.0363235
0.034745073
0.030981931
0.023700436
0.015768976
0.014606606
0.017464261
0.037064871
0.037064693
0.037063903
0.037060987
0.037051109
0.037020016
0.036927437
0.036665512
0.035963258
0.03419604
0.030157673
0.022793377
0.015631332
0.015295285
0.017316197
0.03689248
0.036892177
0.036890955
0.036886782
0.036873442
0.036833316
0.036718634
0.03640675
0.035602004
0.033650187
0.029359858
0.021989539
0.015659917
0.016071914
0.01717775
0.036728885
0.036728414
0.036726628
0.036720878
0.03670337
0.036652818
0.036513731
0.036149096
0.035240656
0.033109157
0.028589603
0.021291346
0.015847992
0.016923492
0.017051196
0.036573301
0.03657261
0.036570106
0.036562424
0.036540005
0.036477653
0.03631208
0.035892529
0.034880099
0.032574024
0.027847913
0.02070292
0.016189617
0.01783505
0.016937916
0.036425028
0.036424056
0.036420663
0.036410663
0.036382564
0.036307092
0.036113215
0.03563717
0.034521109
0.032045349
0.027136212
0.020229919
0.016678486
0.018789895
0.016838558
0.036283441
0.03628212
0.036277645
0.036264917
0.036230367
0.036140535
0.03591682
0.035383242
0.034164308
0.031523285
0.026456862
0.019879123
0.017306891
0.019770317
0.016753165
0.036147982
0.036146234
0.036140468
0.036124584
0.036082821
0.035977497
0.035722708
0.035131018
0.033810124
0.031007717
0.025813646
0.019657797
0.018064912
0.0207586
0.016681265
0.036018143
0.036015885
0.036008605
0.035989127
0.035939416
0.035817597
0.035530799
0.034880794
0.033458783
0.030498445
0.025212142
0.019572905
0.018939949
0.021738147
0.016621966
0.03589347
0.03589061
0.035881581
0.035858069
0.035799718
0.035660549
0.035341095
0.034632853
0.033110301
0.029995409
0.024659951
0.019630248
0.019916664
0.02269449
0.016574063
0.035773545
0.035769987
0.035758968
0.035730991
0.035663366
0.035506152
0.035153669
0.034387441
0.032764498
0.029498968
0.024166686
0.019833637
0.020977366
0.023616003
0.016536152
0.035657992
0.035653635
0.035640383
0.035607524
0.035530063
0.035354279
0.034968643
0.03414475
0.03242103
0.029010211
0.023743688
0.020184173
0.022102784
0.024494228
0.016506745
0.035546464
0.035541207
0.035525479
0.035487349
0.035399574
0.035204869
0.034786172
0.033904896
0.032079439
0.028531301
0.023403466
0.020679733
0.023273104
0.025323802
0.016484372
0.035438647
0.035432386
0.035413948
0.035370193
0.035271718
0.035057919
0.034606436
0.03366791
0.03173923
0.028065807
0.023158914
0.021314705
0.0244691
0.026102089
0.016467662
0.035334251
0.035326887
0.035305516
0.035255823
0.03514637
0.034913479
0.03442962
0.033433727
0.031399978
0.02761899
0.023022388
0.022080016
0.025673169
0.026828633
0.016455398
0.035233012
0.035224448
0.035199939
0.03514405
0.035023453
0.034771643
0.034255909
0.033202186
0.031061475
0.027197981
0.023004769
0.022963452
0.026870127
0.027504567
0.016446543
0.035134691
0.035124836
0.035097009
0.035034724
0.034902936
0.03463254
0.03408547
0.032973033
0.030723902
0.0268118
0.023114633
0.023950249
0.02804767
0.028132079
0.016440248
0.035039067
0.03502784
0.034996542
0.034927732
0.034784832
0.034496333
0.033918446
0.032745938
0.030388046
0.026471167
0.023357596
0.025023883
0.02919649
0.028713982
0.016435834
0.034945943
0.034933275
0.034898386
0.034822996
0.034669194
0.034363211
0.033754944
0.032520522
0.030055535
0.026188099
0.023735914
0.026166982
0.030310098
0.029253407
0.016432778
0.034855141
0.034840974
0.034802418
0.034720475
0.034556112
0.034233382
0.033595029
0.032296402
0.029729078
0.025975302
0.024248333
0.027362249
0.031384438
0.029753593
0.016430685
0.034766502
0.034750797
0.03470854
0.034620164
0.034445715
0.034107066
0.033438713
0.032073259
0.029412693
0.025845434
0.024890189
0.028593297
0.032417398
0.030217765
0.016429265
0.034679887
0.034662624
0.034616684
0.034522088
0.034338162
0.033984492
0.033285952
0.031850929
0.029111866
0.025810314
0.02565373
0.029845305
0.033408314
0.030649045
0.016428312
0.034595176
0.034576356
0.034526808
0.034426308
0.034233647
0.033865888
0.033136649
0.03162952
0.028833633
0.025880169
0.026528618
0.031105457
0.034357529
0.031050409
0.016427682
0.034512269
0.034491917
0.034438897
0.034332917
0.034132389
0.033751478
0.032990657
0.031409556
0.028586515
0.026063009
0.027502553
0.032363143
0.035266041
0.031424647
0.01642728
0.034431083
0.034409252
0.034352965
0.034242042
0.034034637
0.033641469
0.032847794
0.031192142
0.028380315
0.026364175
0.028561978
0.033609947
0.036135248
0.031774346
0.016427047
0.034351558
0.034328331
0.034269052
0.034153841
0.033940664
0.03353605
0.032707869
0.03097915
0.028225759
0.02678609
0.029692787
0.034839472
0.036966769
0.032101874
0.01642695
0.034273652
0.034249145
0.03418723
0.034068505
0.03385076
0.033435384
0.03257072
0.030773393
0.028133998
0.02732822
0.030880992
0.036047066
0.037762343
0.032409381
0.016426974
0.034197344
0.03417171
0.034107598
0.033986257
0.033765237
0.033339598
0.032436276
0.030578782
0.028116033
0.027987224
0.032113284
0.037229502
0.038523754
0.032698798
0.016427117
0.034122637
0.034096065
0.034030285
0.033907355
0.033684417
0.033248788
0.032304627
0.030400436
0.028182108
0.02875725
0.03337746
0.038384662
0.039252794
0.032971855
0.016427382
0.034049553
0.034022276
0.033955452
0.033832084
0.033608631
0.033163013
0.032176131
0.030244715
0.028341141
0.029630359
0.034662707
0.039511265
0.039951227
0.033230086
0.016427779
0.03397814
0.033950437
0.033883292
0.033760766
0.033538214
0.0330823
0.032051524
0.030119155
0.028600249
0.030597023
0.035959728
0.040608641
0.040620777
0.033474856
0.016428318
0.033908471
0.033880668
0.033814033
0.033693749
0.033473498
0.033006662
0.031932062
0.030032292
0.028964398
0.031646654
0.037260745
0.041676559
0.0412631
0.033707373
0.01642901
0.033840644
0.033813121
0.033747936
0.033631414
0.033414804
0.032936115
0.031819662
0.029993371
0.029436214
0.032768132
0.038559407
0.042715109
0.04187978
0.033928706
0.016429865
0.033774787
0.03374798
0.033685299
0.033574167
0.033362441
0.032870717
0.031717045
0.030011964
0.030015937
0.033950286
0.03985063
0.043724613
0.042472315
0.034139802
0.016430892
0.033711057
0.03368546
0.033626458
0.033522441
0.033316699
0.032810615
0.031627855
0.030097522
0.030701527
0.035182304
0.041130417
0.044705565
0.043042115
0.034341503
0.016432097
0.033649643
0.033625814
0.033571787
0.033476689
0.033277845
0.032756113
0.031556736
0.030258907
0.031488882
0.036454048
0.042395666
0.045658588
0.043590499
0.034534553
0.016433487
0.03359077
0.033569333
0.033521698
0.033437387
0.03324612
0.032707757
0.031509359
0.030503942
0.032372149
0.03775627
0.043643998
0.046584397
0.044118701
0.034719619
0.016435064
0.033534699
0.033516348
0.033476647
0.033405019
0.033221753
0.032666434
0.031492361
0.030839031
0.033344092
0.039080739
0.044873614
0.047483772
0.044627866
0.03489729
0.016436831
0.033481731
0.033467235
0.033437127
0.033380083
0.033204962
0.032633492
0.0315132
0.03126887
0.034396497
0.040420268
0.046083178
0.048357535
0.045119061
0.035068097
0.016438788
0.033432211
0.033422413
0.033403675
0.033363076
0.033195978
0.032610857
0.031579926
0.031796269
0.035520559
0.041768694
0.04727172
0.049206533
0.045593279
0.035232515
0.016440933
0.033386531
0.033382352
0.033376864
0.033354497
0.033195078
0.032601151
0.031700874
0.032422095
0.03670726
0.043120792
0.048438566
0.050031617
0.046051439
0.035390969
0.016443266
0.033345134
0.033347573
0.033357309
0.033354836
0.033202628
0.032607793
0.03188431
0.033145322
0.03794768
0.044472185
0.049583285
0.050833635
0.046494399
0.035543845
0.016445782
0.033308518
0.033318652
0.033345661
0.033364571
0.033219143
0.032635062
0.032138044
0.033963182
0.039233255
0.045819225
0.050705642
0.051613423
0.046922953
0.03569149
0.016448478
0.033277237
0.03329622
0.033342601
0.033384174
0.033245363
0.03268811
0.032469072
0.034871385
0.040555971
0.047158895
0.051805562
0.052371797
0.047337841
0.035834219
0.016451351
0.033251914
0.033280969
0.033348844
0.033414106
0.033282344
0.032772916
0.032883247
0.035864401
0.041908474
0.048488703
0.052883102
0.053109548
0.04773975
0.03597232
0.016454394
0.033233235
0.033273651
0.033365128
0.033454835
0.033331562
0.032896164
0.033385033
0.03693576
0.043284142
0.049806606
0.05393842
0.053827443
0.048129319
0.036106053
0.016457603
0.033221962
0.033275082
0.03339221
0.03350685
0.033395015
0.033065048
0.033977333
0.038078364
0.044677086
0.051110935
0.054971757
0.054526219
0.048507144
0.036235658
0.016460974
0.033218934
0.033286139
0.033430863
0.033570695
0.033475329
0.033287018
0.034661418
0.039284776
0.04608213
0.052400341
0.055983417
0.055206586
0.048873782
0.036361356
0.016464499
0.033225073
0.033307762
0.03348187
0.033647007
0.033575842
0.033569479
0.035436947
0.040547489
0.04749476
0.053673743
0.056973753
0.055869225
0.049229755
0.036483354
0.016468174
0.033241386
0.033340955
0.03354602
0.033736576
0.033700656
0.033919472
0.036302061
0.041859132
0.048911065
0.054930289
0.057943147
0.056514766
0.049575441
0.036601082
0.01647199
0.033268972
0.03338678
0.033624111
0.033840418
0.033854646
0.034343355
0.03725355
0.043212651
0.050327667
0.056169319
0.058892004
0.057143804
0.04991124
0.036714878
0.016475942
0.033309024
0.033446355
0.033716952
0.033959857
0.034043414
0.03484653
0.038287068
0.044601417
0.051741661
0.057390334
0.059820741
0.057756908
0.050237554
0.036825044
0.016480019
0.033362829
0.033520852
0.033825374
0.034096624
0.034273175
0.035433209
0.039397365
0.046019306
0.053150552
0.058592972
0.060729786
0.058354631
0.050554794
0.03693185
0.016484214
0.033431775
0.03361149
0.033950255
0.034252949
0.034550583
0.036106263
0.040578548
0.047460729
0.054552204
0.059776986
0.061619568
0.058937449
0.05086292
0.037035579
0.016488518
0.033517343
0.033719532
0.034092546
0.034431659
0.034882507
0.036867142
0.041824312
0.04892064
0.055944798
0.06094222
0.06249051
0.059505806
0.051162147
0.037136395
0.016492923
0.033621114
0.033846281
0.034253321
0.034636244
0.035275756
0.037715872
0.043128168
0.050394517
0.057326784
0.062088598
0.063343029
0.060060157
0.051452977
0.037234382
0.016497425
0.033744757
0.033993078
0.034433832
0.0348709
0.035736803
0.038651126
0.044483628
0.051878327
0.05869685
0.063216106
0.064177545
0.060600967
0.051735846
0.037329651
0.016502019
0.033890034
0.034161308
0.034635588
0.035140527
0.036271494
0.039670348
0.045884358
0.053368496
0.06005389
0.064324786
0.064994464
0.061128566
0.052011158
0.037422329
0.0165067
0.034058787
0.034352404
0.034860438
0.035450665
0.036884806
0.040769928
0.047324296
0.05486186
0.06139698
0.065414718
0.065794135
0.061642941
0.0522793
0.03751256
0.016511467
0.034252937
0.034567872
0.035110661
0.035807385
0.037580637
0.041945399
0.048797726
0.056355629
0.062725347
0.066486009
0.066576922
0.062144661
0.052540478
0.037600451
0.016516317
0.034474481
0.034809313
0.035389063
0.036217108
0.038361663
0.043191644
0.050299328
0.057847346
0.064038348
0.067538796
0.067343206
0.062634238
0.052794913
0.037686086
0.016521247
0.03472549
0.035078475
0.035699049
0.036686385
0.039229267
0.044503108
0.051824196
0.05933485
0.065335454
0.068573244
0.068093388
0.063112131
0.053042832
0.037769544
0.016526253
0.035008112
0.035377301
0.036044682
0.037221642
0.040183528
0.045873985
0.053367844
0.06081625
0.066616238
0.069589495
0.068827364
0.063578802
0.053284486
0.037850921
0.016531331
0.035324591
0.03570801
0.036430696
0.037828909
0.041223283
0.047298388
0.054926193
0.062289886
0.067880346
0.070587704
0.069545614
0.064034561
0.053520084
0.037930305
0.016536479
0.035677289
0.036073178
0.036862465
0.038513563
0.042346232
0.048770485
0.056495547
0.063754303
0.069127486
0.071568058
0.070248609
0.064479705
0.053749812
0.038007769
0.016541693
0.036068726
0.036475826
0.037345907
0.039280101
0.04354909
0.050284611
0.05807257
0.065208225
0.070357433
0.072530784
0.070936785
0.064914532
0.053973848
0.038083379
0.016546969
0.036501634
0.03691951
0.037887345
0.040131955
0.044827761
0.051835342
0.059654262
0.066650549
0.071570001
0.073475727
0.071610523
0.065339339
0.054192382
0.038157196
0.016552305
0.036979031
0.037408393
0.038493294
0.041071371
0.046177522
0.053417551
0.061237923
0.068080297
0.072765018
0.07440319
0.072270172
0.065754389
0.05440559
0.03822928
0.016557696
0.037504295
0.03794728
0.039170229
0.042099351
0.047593208
0.055026436
0.062821124
0.069496602
0.07394237
0.075313497
0.072916049
0.066159929
0.054613631
0.038299687
0.01656314
0.038081252
0.03854162
0.039924314
0.04321566
0.049069378
0.05665753
0.064401689
0.070898711
0.075101917
0.076206929
0.073548453
0.066556202
0.054816653
0.038368467
0.016568632
0.03871425
0.039197446
0.040761141
0.04441889
0.050600473
0.058306708
0.065977668
0.072285956
0.076243448
0.077083733
0.074167658
0.066943449
0.055014795
0.038435663
0.01657417
0.039408208
0.039921245
0.041685488
0.045706568
0.052180932
0.059970167
0.067547292
0.073657714
0.077366985
0.077944213
0.074773928
0.067321893
0.055208192
0.038501319
0.016579751
0.040168621
0.040719776
0.04270111
0.047075302
0.053805295
0.061644408
0.069108963
0.075013455
0.078472617
0.078788626
0.075367515
0.067691741
0.055396966
0.038565474
0.01658537
0.041001507
0.041599821
0.043810599
0.048520946
0.055468282
0.063326244
0.070661277
0.076352576
0.079560273
0.079617173
0.07594867
0.068053189
0.055581232
0.038628162
0.016591025
0.041913284
0.042567904
0.045015288
0.050038772
0.057164841
0.065012739
0.07220289
0.077674614
0.080630145
0.080430058
0.076517628
0.068406424
0.055761098
0.038689416
0.016596712
0.042910562
0.04362998
0.046315238
0.051623632
0.058890167
0.066701184
0.073732584
0.078979259
0.081682366
0.081227482
0.077074608
0.068751621
0.055936663
0.038749265
0.016602429
0.043999868
0.044791138
0.047709266
0.053270117
0.060639751
0.068389145
0.075249219
0.080266039
0.082716985
0.082009642
0.077619813
0.069088939
0.056108019
0.038807736
0.016608172
0.045187307
0.046055328
0.049195036
0.054972683
0.062409344
0.070074305
0.076751696
0.081534859
0.083734061
0.082776719
0.078153439
0.06941853
0.056275251
0.038864853
0.016613937
0.046478197
0.047425137
0.050769177
0.05672576
0.064194957
0.07175452
0.078239076
0.082785594
0.084733664
0.083528883
0.078675664
0.069740533
0.056438436
0.038920636
0.016619723
0.047876696
0.04890163
0.05242743
0.058523854
0.065992909
0.073427821
0.079710335
0.084018021
0.085715856
0.084266287
0.079186652
0.070055075
0.056597646
0.038975106
0.016625525
0.049385466
0.05048426
0.054164798
0.060361564
0.067799654
0.075092252
0.081164987
0.085231958
0.086680688
0.084989073
0.079686556
0.070362274
0.056752944
0.039028277
0.016631341
0.051005405
0.052170856
0.055975707
0.062233693
0.069611932
0.076745861
0.082602407
0.08642723
0.0876282
0.085697367
0.080175512
0.070662235
0.056904388
0.039080164
0.016637167
0.052735465
0.053957669
0.057854115
0.064135145
0.07142652
0.078387258
0.084021987
0.087603661
0.08855842
0.086391279
0.08065364
0.070955054
0.057052029
0.039130778
0.016643001
0.054572595
0.055839498
0.059793677
0.06606104
0.073240187
0.080015151
0.085423152
0.088761071
0.089471361
0.0870709
0.08112105
0.071240814
0.057195912
0.039180129
0.016648839
0.056511774
0.057809817
0.061787742
0.068006457
0.075050363
0.081628281
0.086805343
0.089899273
0.090367018
0.087736306
0.081577833
0.071519589
0.057336075
0.039228224
0.016654679
0.058546169
0.059860972
0.063829442
0.069966606
0.076854676
0.08322545
0.088168015
0.091018067
0.09124537
0.088387554
0.082024064
0.071791439
0.057472551
0.039275067
0.016660517
0.060667318
0.061984252
0.065911637
0.071937323
0.078650874
0.084805512
0.08951063
0.09211724
0.092106374
0.089024681
0.082459805
0.072056416
0.057605364
0.039320661
0.01666635
0.062865331
0.064170263
0.068027497
0.073914601
0.080436805
0.086367361
0.090832649
0.093196566
0.092949969
0.089647704
0.082885101
0.07231456
0.057734533
0.039365005
0.016672175
0.065129354
0.066409211
0.070170243
0.07589457
0.082210411
0.087909923
0.092133533
0.094255799
0.093776069
0.090256621
0.08329998
0.072565897
0.057860073
0.039408097
0.016677989
0.067447953
0.06869109
0.072333181
0.077873488
0.083969712
0.089432155
0.093412739
0.095294675
0.094584569
0.090851408
0.083704453
0.072810446
0.057981988
0.039449932
0.016683788
0.069809466
0.071005878
0.074509739
0.079847729
0.085712793
0.090933033
0.094669719
0.096312911
0.095375339
0.091432021
0.084098515
0.07304821
0.058100279
0.039490504
0.01668957
0.072202315
0.073343719
0.076693509
0.081813777
0.087437799
0.092411555
0.095903917
0.097310205
0.096148228
0.091998395
0.084482145
0.073279184
0.058214938
0.039529801
0.01669533
0.074615266
0.07569508
0.078878279
0.083768221
0.089142928
0.093866733
0.097114772
0.09828624
0.096903062
0.092550444
0.084855305
0.073503348
0.058325953
0.039567813
0.016701065
0.077037642
0.078050881
0.081058077
0.085707754
0.090826424
0.095297599
0.09830172
0.099240678
0.097639649
0.093088064
0.08521794
0.073720675
0.058433303
0.039604525
0.016706771
0.079459466
0.080402591
0.083227205
0.087629183
0.092486582
0.0967032
0.099464193
0.10017317
0.098357776
0.093611131
0.085569981
0.073931122
0.058536963
0.039639919
0.016712444
0.081871565
0.082742303
0.085380273
0.089529433
0.094121744
0.098082603
0.10060163
0.10108337
0.099057217
0.094119504
0.085911343
0.07413464
0.058636899
0.039673977
0.016718081
0.084265631
0.085062781
0.08751223
0.091405561
0.095730304
0.099434896
0.10171346
0.10197089
0.099737731
0.094613028
0.08624193
0.074331167
0.058733075
0.039706676
0.016723677
0.086634229
0.087357482
0.089618387
0.093254767
0.097310714
0.1007592
0.10279914
0.10283538
0.10039907
0.095091536
0.086561631
0.074520632
0.058825445
0.039737993
0.016729227
0.088970798
0.089620563
0.091694438
0.095074409
0.098861491
0.10205465
0.10385814
0.10367647
0.10104097
0.095554851
0.086870326
0.074702958
0.058913961
0.039767903
0.016734728
0.091269616
0.091846862
0.093736468
0.096862011
0.10038122
0.10332045
0.10488993
0.10449381
0.10166319
0.096002789
0.08716789
0.07487806
0.05899857
0.039796378
0.016740174
0.09352575
0.094031878
0.095740956
0.098615284
0.10186858
0.10455581
0.10589403
0.10528704
0.10226546
0.096435164
0.087454187
0.075045846
0.059079215
0.039823388
0.016745561
0.095735009
0.096171737
0.097704777
0.10033212
0.10332232
0.10576001
0.10686997
0.10605585
0.10284754
0.09685179
0.087729083
0.075206224
0.059155837
0.039848905
0.016750882
0.097893877
0.098263148
0.099625193
0.10201063
0.10474129
0.10693238
0.10781735
0.10679994
0.10340921
0.097252488
0.087992443
0.075359095
0.059228375
0.039872898
0.016756134
0.099999455
0.10030336
0.10149984
0.1036491
0.10612445
0.10807231
0.10873576
0.10751902
0.10395024
0.097637085
0.088244132
0.075504366
0.059296767
0.039895335
0.01676131
0.1020494
0.10229012
0.1033267
0.10524604
0.10747086
0.10917926
0.10962487
0.10821286
0.10447045
0.098005422
0.088484026
0.075641943
0.059360953
0.039916188
0.016766405
0.10404186
0.10422163
0.10510411
0.10680015
0.10877969
0.11025274
0.1104844
0.10888126
0.10496966
0.098357359
0.088712006
0.075771736
0.059420874
0.039935426
0.016771414
0.10597543
0.10609648
0.1068307
0.10831033
0.11005022
0.11129234
0.11131411
0.10952405
0.10544774
0.098692772
0.088927968
0.075893663
0.059476474
0.039953022
0.01677633
0.10784908
0.10791364
0.10850542
0.1097757
0.11128187
0.11229774
0.11211381
0.1101411
0.10590459
0.099011565
0.089131823
0.076007652
0.059527703
0.03996895
0.016781148
0.10966215
0.1096724
0.11012747
0.11119552
0.11247415
0.11326868
0.11288338
0.11073236
0.10634014
0.099313665
0.0893235
0.07611364
0.059574517
0.039983187
0.016785862
0.11141426
0.11137232
0.1116963
0.11256927
0.11362669
0.11420496
0.11362276
0.11129778
0.10675436
0.099599031
0.089502947
0.076211579
0.059616879
0.039995714
0.016790467
0.11310529
0.11301324
0.11321159
0.11389657
0.11473924
0.1151065
0.11433192
0.11183739
0.10714726
0.099867651
0.089670136
0.076301434
0.05965476
0.040006516
0.016794956
0.11473536
0.11459521
0.11467322
0.11517722
0.11581165
0.11597326
0.11501093
0.11235126
0.10751889
0.10011955
0.089825064
0.076383189
0.059688144
0.040015581
0.016799326
0.11630478
0.11611847
0.11608124
0.11641114
0.11684387
0.11680528
0.11565989
0.1128395
0.10786936
0.10035478
0.089967753
0.076456844
0.059717022
0.040022903
0.01680357
0.11781404
0.11758342
0.11743587
0.11759842
0.11783598
0.11760268
0.11627895
0.11330229
0.10819879
0.10057343
0.090098253
0.076522419
0.059741398
0.040028483
0.016807684
0.11926376
0.11899064
0.1187375
0.11873925
0.11878811
0.11836564
0.11686834
0.11373984
0.10850736
0.10077564
0.090216641
0.076579954
0.059761291
0.040032323
0.016811663
0.1206547
0.12034081
0.1199866
0.11983393
0.11970051
0.11909442
0.11742833
0.1141524
0.10879529
0.10096156
0.090323022
0.076629509
0.059776729
0.040034437
0.016815502
0.12198773
0.12163472
0.12118379
0.12088289
0.12057351
0.11978933
0.11795924
0.11454028
0.10906284
0.10113138
0.090417529
0.076671166
0.059787757
0.040034841
0.016819199
0.12326381
0.12287327
0.12232978
0.12188662
0.12140749
0.12045075
0.11846144
0.11490382
0.1093103
0.10128534
0.090500325
0.076705028
0.05979443
0.040033557
0.01682275
0.12448397
0.12405742
0.12342535
0.12284573
0.12220294
0.12107911
0.11893534
0.11524342
0.109538
0.1014237
0.090571597
0.076731216
0.059796818
0.040030616
0.016826151
0.12564931
0.12518823
0.12447138
0.12376087
0.12296039
0.12167488
0.11938139
0.11555948
0.1097463
0.10154675
0.09063156
0.076749874
0.059795005
0.040026054
0.016829401
0.12676098
0.12626677
0.1254688
0.12463277
0.12368043
0.12223859
0.1198001
0.11585246
0.10993561
0.1016548
0.090680453
0.076761165
0.059789086
0.040019911
0.016832497
0.12782019
0.12729421
0.12641858
0.12546223
0.1243637
0.12277082
0.12019199
0.11612285
0.11010634
0.10174822
0.090718538
0.076765268
0.059779169
0.040012234
0.016835438
0.12882817
0.12827171
0.12732177
0.12625009
0.1250109
0.12327217
0.12055762
0.11637116
0.11025895
0.10182736
0.090746099
0.076762383
0.059765374
0.040003075
0.016838222
0.1297862
0.1292005
0.12817943
0.12699722
0.12562277
0.1237433
0.12089758
0.11659794
0.11039391
0.10189262
0.090763441
0.076752722
0.059747831
0.039992492
0.01684085
0.13069554
0.13008181
0.12899267
0.12770455
0.12620006
0.12418486
0.1212125
0.11680374
0.11051171
0.10194441
0.090770886
0.076736516
0.05972668
0.039980546
0.016843322
0.13155752
0.1309169
0.12976262
0.12837304
0.12674358
0.12459758
0.121503
0.11698915
0.11061288
0.10198317
0.090768773
0.076714005
0.059702069
0.039967302
0.016845638
0.13237344
0.13170705
0.13049041
0.12900365
0.12725417
0.12498217
0.12176975
0.11715476
0.11069793
0.10200935
0.090757453
0.076685444
0.059674155
0.039952828
0.016847799
0.13314463
0.13245352
0.13117723
0.1295974
0.12773267
0.12533938
0.12201342
0.11730119
0.11076742
0.10202339
0.090737292
0.076651096
0.059643102
0.039937197
0.016849806
0.13387241
0.13315761
0.13182423
0.13015529
0.12817995
0.12566997
0.1222347
0.11742906
0.11082189
0.10202578
0.090708664
0.076611233
0.059609078
0.039920482
0.016851662
0.1345581
0.1338206
0.1324326
0.13067836
0.12859689
0.12597473
0.12243429
0.117539
0.11086192
0.102017
0.090671953
0.076566135
0.059572256
0.039902758
0.016853369
0.13520303
0.13444378
0.13300353
0.13116764
0.1289844
0.12625443
0.1226129
0.11763167
0.11088806
0.10199752
0.090627547
0.076516085
0.059532814
0.039884103
0.01685493
0.13580851
0.13502841
0.13353818
0.13162416
0.12934337
0.12650987
0.12277125
0.11770769
0.11090089
0.10196783
0.090575842
0.076461372
0.05949093
0.039864594
0.016856347
0.13637583
0.13557577
0.13403774
0.13204899
0.12967471
0.12674185
0.12291004
0.11776772
0.11090099
0.10192844
0.090517233
0.076402287
0.059446785
0.039844309
0.016857625
0.1369063
0.13608712
0.13450338
0.13244315
0.12997933
0.12695117
0.12302999
0.11781241
0.11088893
0.10187983
0.090452117
0.076339122
0.059400561
0.039823326
0.016858766
0.13740118
0.1365637
0.13493626
0.13280769
0.13025814
0.12713864
0.12313184
0.1178424
0.11086529
0.10182249
0.090380893
0.076272167
0.059352437
0.039801721
0.016859774
0.13786174
0.13700674
0.13533754
0.13314364
0.13051205
0.12730505
0.12321628
0.11785834
0.11083063
0.10175691
0.090303954
0.076201712
0.059302593
0.03977957
0.016860655
0.13828921
0.13741746
0.13570834
0.13345202
0.13074196
0.1274512
0.12328404
0.11786086
0.11078552
0.10168359
0.090221693
0.076128044
0.059251206
0.039756948
0.016861411
0.13868483
0.13779705
0.1360498
0.13373385
0.13094876
0.12757788
0.12333582
0.1178506
0.11073053
0.10160299
0.090134497
0.076051448
0.059198448
0.039733928
0.016862048
0.13904981
0.13814669
0.13636302
0.13399012
0.13113335
0.12768588
0.12337231
0.11782818
0.1106662
0.10151559
0.090042746
0.0759722
0.059144492
0.039710581
0.016862571
0.13938531
0.13846753
0.13664909
0.13422184
0.13129659
0.12777596
0.12339421
0.11779422
0.11059309
0.10142186
0.089946816
0.075890574
0.059089502
0.039686974
0.016862983
0.13969251
0.13876072
0.13690909
0.13442996
0.13143936
0.1278489
0.1234022
0.11774933
0.11051171
0.10132225
0.089847074
0.075806836
0.059033641
0.039663173
0.016863289
0.13997254
0.13902737
0.13714407
0.13461546
0.13156251
0.12790545
0.12339696
0.1176941
0.11042261
0.10121721
0.089743877
0.075721247
0.058977065
0.039639243
0.016863495
0.14022651
0.13926856
0.13735505
0.13477927
0.13166688
0.12794636
0.12337913
0.11762913
0.11032629
0.10110717
0.089637575
0.075634057
0.058919923
0.039615242
0.016863605
0.14045553
0.13948537
0.13754305
0.13492232
0.13175328
0.12797235
0.12334937
0.11755498
0.11022326
0.10099257
0.089528507
0.07554551
0.058862362
0.039591229
0.016863624
0.14066064
0.13967885
0.13770906
0.13504551
0.13182253
0.12798413
0.12330832
0.11747222
0.11011401
0.10087381
0.089417001
0.075455842
0.05880452
0.039567257
0.016863557
0.1408429
0.13985
0.13785405
0.13514973
0.13187543
0.12798242
0.12325658
0.11738139
0.10999901
0.1007513
0.089303377
0.075365278
0.05874653
0.039543379
0.016863408
0.14100332
0.13999982
0.13797896
0.13523585
0.13191274
0.1279679
0.12319478
0.11728303
0.10987874
0.10062542
0.089187941
0.075274036
0.058688517
0.039519641
0.016863182
0.14114289
0.14012929
0.1380847
0.1353047
0.13193524
0.12794123
0.1231235
0.11717767
0.10975363
0.10049656
0.089070989
0.075182323
0.058630601
0.039496089
0.016862884
0.14126258
0.14023935
0.13817219
0.13535713
0.13194365
0.12790309
0.12304333
0.1170658
0.10962413
0.10036508
0.088952804
0.075090336
0.058572894
0.039472766
0.016862519
0.14136331
0.14033093
0.1382423
0.13539393
0.1319387
0.1278541
0.12295482
0.11694792
0.10949066
0.10023132
0.088833658
0.074998265
0.058515504
0.039449709
0.01686209
0.14144601
0.1404049
0.13829587
0.13541589
0.1319211
0.12779489
0.12285852
0.11682451
0.10935363
0.10009564
0.088713813
0.074906288
0.05845853
0.039426954
0.016861602
0.14151156
0.14046216
0.13833374
0.13542378
0.13189154
0.12772607
0.12275497
0.11669604
0.10921343
0.09995834
0.088593515
0.074814574
0.058402064
0.039404535
0.016861059
0.14156083
0.14050353
0.13835671
0.13541833
0.13185067
0.12764822
0.12264468
0.11656294
0.10907045
0.099819744
0.088473002
0.074723283
0.058346193
0.03938248
0.016860465
0.14159464