/*--------------------------------*- C++ -*----------------------------------*\
| =========                 |                                                 |
| \\      /  F ield         | OpenFOAM: The Open Source CFD Toolbox           |
|  \\    /   O peration     | Version:  2506                                  |
|   \\  /    A nd           | Website:  www.openfoam.com                      |
|    \\/     M anipulation  |                                                 |
\*---------------------------------------------------------------------------*/
FoamFile
{
    version     2.0;
    format      ascii;
    arch        "LSB;label=32;scalar=64";
    class       volScalarField;
    location    "4000/water";
    object      k;
}
// * * * * * * * * * * * * * * * * * * * * * * * * * * * * * * * * * * * * * //

dimensions      [0 2 -2 0 0 0 0];

internalField   nonuniform List<scalar> 
6000
(
0.0002144485
0.00021444827
0.00021444833
0.00021444852
0.00021444878
0.00021444911
0.00021444953
0.00021445001
0.00021445038
0.00021444961
0.00021444477
0.00021444847
0.00021482328
0.00022098609
0.00033298785
0.00019735372
0.00019735408
0.00019735481
0.00019735601
0.00019735759
0.00019735962
0.00019736212
0.0001973649
0.00019736678
0.00019736231
0.00019733424
0.0001972933
0.00019808165
0.00021190706
0.00042108833
0.00018260526
0.00018260625
0.00018260756
0.00018260957
0.0001826122
0.00018261554
0.00018261945
0.00018262311
0.00018262253
0.00018260174
0.00018251429
0.00018235696
0.00018354965
0.00020571076
0.0004915993
0.00016977104
0.00016977195
0.00016977358
0.00016977617
0.00016977959
0.00016978384
0.00016978847
0.00016979119
0.00016978242
0.00016972799
0.0001695392
0.00016920344
0.00017083025
0.00020141509
0.00054314021
0.00015851703
0.00015851791
0.00015851979
0.00015852287
0.0001585269
0.00015853173
0.00015853623
0.00015853548
0.0001585108
0.00015840225
0.00015807228
0.00015752308
0.00015966967
0.00019844232
0.00057747636
0.00014858047
0.00014858142
0.00014858351
0.00014858695
0.00014859139
0.00014859636
0.00014859955
0.0001485919
0.00014854197
0.00014835849
0.00014785779
0.00014709963
0.00014993181
0.00019659445
0.00059772639
0.00013975169
0.00013975271
0.00013975496
0.00013975864
0.00013976325
0.00013976781
0.00013976817
0.00013974945
0.00013966425
0.0001393877
0.00013870223
0.00013778194
0.00014154644
0.00019585229
0.00060724748
0.00013186192
0.00013186298
0.00013186534
0.00013186914
0.00013187366
0.00013187713
0.00013187282
0.00013183836
0.00013170812
0.00013132527
0.00013045854
0.00012946164
0.00013447268
0.00019626303
0.00060905754
0.00012477404
0.00012477514
0.00012477755
0.00012478136
0.00012478548
0.00012478703
0.00012477592
0.00012472085
0.00012453699
0.00012404097
0.00012301362
0.00012205827
0.00012868159
0.00019789321
0.0006056161
0.00011837572
0.00011837682
0.00011837924
0.0001183829
0.00011838626
0.00011838492
0.00011836468
0.00011828424
0.00011804014
0.00011743108
0.00011627928
0.00011550993
0.00012414935
0.00020080676
0.00059880682
0.0001125741
0.0001125752
0.00011257756
0.00011258091
0.00011258305
0.00011257774
0.00011254594
0.00011243584
0.00011212738
0.0001114124
0.00011018555
0.00010976786
0.00012085593
0.00020505367
0.00059001308
0.00010729189
0.00010729297
0.0001072952
0.00010729803
0.00010729845
0.00010728799
0.00010724223
0.00010709893
0.00010672477
0.00010591759
0.00010467621
0.00010479348
0.00011878602
0.00021066301
0.00058022149
0.0001024643
0.00010246533
0.00010246733
0.00010246942
0.00010246756
0.00010245071
0.00010238875
0.00010220964
0.0001017714
0.00010089174
9.9705638e-05
0.000100557
0.00011793046
0.00021763683
0.00057012062
9.8036637e-05
9.8037572e-05
9.8039255e-05
9.8040328e-05
9.8035582e-05
9.8011091e-05
9.7930966e-05
9.7714594e-05
9.7216801e-05
9.6289669e-05
9.5236719e-05
9.703687e-05
0.00011828673
0.00022594366
0.0005601824
9.3962451e-05
9.3963259e-05
9.3964497e-05
9.3964262e-05
9.3955981e-05
9.3922652e-05
9.3822751e-05
9.3568903e-05
9.3018884e-05
9.2074025e-05
9.1239503e-05
9.4219615e-05
0.00011985802
0.00023551194
0.0005507241
9.0202076e-05
9.020271e-05
9.0203366e-05
9.0201504e-05
9.0189027e-05
9.0145749e-05
9.0024925e-05
8.9734681e-05
8.9142411e-05
8.8213812e-05
8.7690325e-05
9.20998e-05
0.00012265037
0.00024622465
0.00054195294
8.6721448e-05
8.6721856e-05
8.6721776e-05
8.6717945e-05
8.6700619e-05
8.664642e-05
8.6504047e-05
8.61798e-05
8.5557736e-05
8.4683334e-05
8.4571272e-05
9.0679902e-05
0.00012666793
0.00025791693
0.00053399692
8.3491166e-05
8.3491287e-05
8.3490304e-05
8.3484151e-05
8.3461349e-05
8.3395437e-05
8.3231463e-05
8.2876915e-05
8.2239851e-05
8.1461425e-05
8.1869885e-05
8.9969913e-05
0.00013190642
0.00027037857
0.00052692519
8.0485733e-05
8.0485502e-05
8.0483437e-05
8.0474603e-05
8.0445747e-05
8.0367548e-05
8.018253e-05
7.9802669e-05
7.9167636e-05
7.8530889e-05
7.9578989e-05
8.9986538e-05
0.00013834557
0.00028336255
0.00052076146
7.7682937e-05
7.7682283e-05
7.767895e-05
7.7667083e-05
7.7631664e-05
7.7540855e-05
7.7335982e-05
7.6937064e-05
7.6323276e-05
7.5878109e-05
7.7696612e-05
9.0751816e-05
0.00014594134
0.00029659939
0.00051549302
7.5063349e-05
7.5062196e-05
7.5057404e-05
7.5042167e-05
7.4999765e-05
7.4896302e-05
7.4673418e-05
7.4262946e-05
7.369182e-05
7.3492783e-05
7.6225917e-05
9.229105e-05
0.00015461944
0.000309816
0.00051107779
7.2609902e-05
7.2608172e-05
7.260173e-05
7.2582813e-05
7.2533118e-05
7.2417256e-05
7.2178869e-05
7.1765596e-05
7.1260831e-05
7.1367745e-05
7.5175079e-05
9.4629939e-05
0.00016427135
0.00032275576
0.00050745065
7.0307551e-05
7.0305165e-05
7.0296888e-05
7.0274015e-05
7.0216842e-05
7.0089161e-05
6.9838457e-05
6.94324e-05
6.9020131e-05
6.949887e-05
7.4557053e-05
9.7790946e-05
0.00017475428
0.00033519669
0.00050453
6.8142984e-05
6.8139863e-05
6.8129574e-05
6.8102519e-05
6.8037823e-05
6.7899244e-05
6.7640104e-05
6.7252585e-05
6.6961603e-05
6.7885016e-05
7.4389159e-05
0.00010178904
0.0001858954
0.00034696444
0.00050222457
6.6104382e-05
6.6100451e-05
6.608799e-05
6.6056581e-05
6.5984475e-05
6.5836276e-05
6.5573296e-05
6.5217006e-05
6.5079053e-05
6.6528011e-05
7.4692423e-05
0.00010662718
0.00019750037
0.00035793856
0.00050043991
6.418122e-05
6.4176406e-05
6.4161633e-05
6.4125766e-05
6.4046535e-05
6.3890369e-05
6.3628889e-05
6.3317981e-05
6.3368113e-05
6.5432644e-05
7.5490605e-05
0.00011229203
0.00020936498
0.00036805173
0.00049908424
6.2364094e-05
6.2358333e-05
6.2341135e-05
6.230078e-05
6.2214894e-05
6.2052808e-05
6.1798947e-05
6.1549161e-05
6.182618e-05
6.4606648e-05
7.680889e-05
0.00011875054
0.00022128816
0.00037728353
0.00049807291
6.064458e-05
6.0637817e-05
6.0618111e-05
6.0573325e-05
6.0481451e-05
6.031591e-05
6.0076617e-05
5.9905429e-05
6.045239e-05
6.4060643e-05
7.8672185e-05
0.00012594803
0.00023308444
0.00038565069
0.00049733132
5.9015114e-05
5.9007302e-05
5.8985044e-05
5.8935977e-05
5.8838997e-05
5.8672904e-05
5.8456016e-05
5.8382826e-05
5.9247606e-05
6.380802e-05
8.1103078e-05
0.00013380821
0.00024459408
0.00039319634
0.00049679626
5.746888e-05
5.745999e-05
5.7435175e-05
5.7382083e-05
5.7281105e-05
5.7117831e-05
5.6932149e-05
5.6978499e-05
5.8214438e-05
6.3864707e-05
8.4119509e-05
0.00014223536
0.00025568959
0.00039997992
0.00049641599
5.599973e-05
5.5989745e-05
5.596242e-05
5.590567e-05
5.5802046e-05
5.5645466e-05
5.5500841e-05
5.5690668e-05
5.7357258e-05
6.4248809e-05
8.7732329e-05
0.0001511185
0.00026627829
0.00040606902
0.00049614946
5.4602101e-05
5.4591025e-05
5.4561286e-05
5.4501369e-05
5.4396714e-05
5.4251246e-05
5.4158685e-05
5.4518612e-05
5.6682234e-05
6.4980079e-05
9.194294e-05
0.00016033717
0.00027630116
0.00041153335
0.00049596497
5.3270953e-05
5.3258808e-05
5.3226813e-05
5.3164353e-05
5.3060564e-05
5.2931212e-05
5.2903001e-05
5.3462663e-05
5.6197343e-05
6.607918e-05
9.6741325e-05
0.00016976801
0.000285729
0.00041644085
0.00049583865
5.2001708e-05
5.198854e-05
5.1954511e-05
5.1890276e-05
5.1789556e-05
5.1681971e-05
5.1731808e-05
5.2524225e-05
5.5912363e-05
6.7566765e-05
0.00010210471
0.00017929137
0.00029455685
0.00042085544
0.00049575298
5.0790203e-05
5.0776083e-05
5.0740313e-05
5.067523e-05
5.0580113e-05
5.050065e-05
5.0643813e-05
5.1705789e-05
5.5838828e-05
6.9462329e-05
0.00010799714
0.00018879709
0.00030279789
0.00042483586
0.00049569544
4.9632648e-05
4.9617675e-05
4.9580534e-05
4.9515698e-05
4.942908e-05
4.9384875e-05
4.9638394e-05
5.1010966e-05
5.5989918e-05
7.178292e-05
0.00011437
0.00019818901
0.00031047772
0.00042843533
0.0004956574
4.8525586e-05
4.8509888e-05
4.8471831e-05
4.8408525e-05
4.8333699e-05
4.8332748e-05
4.8715611e-05
5.0444524e-05
5.6380276e-05
7.4541726e-05
0.0001211637
0.00020738764
0.00031762941
0.00043170149
0.00049563313
4.7465859e-05
4.74496e-05
4.7411173e-05
4.7350883e-05
4.7291577e-05
4.7342831e-05
4.7876207e-05
5.0012417e-05
5.702572e-05
7.7746678e-05
0.00012831013
0.00021633121
0.00032428982
0.00043467667
0.00049561908
4.6450583e-05
4.6433963e-05
4.6395814e-05
4.6340247e-05
4.6300671e-05
4.641414e-05
4.7121628e-05
4.9721817e-05
5.7942848e-05
8.1399166e-05
0.00013573578
0.00022497509
0.00033049682
0.00043739817
0.00049561324
4.5477121e-05
4.5460379e-05
4.5423267e-05
4.5374375e-05
4.5359268e-05
4.5546142e-05
4.6454049e-05
4.9581126e-05
5.9148509e-05
8.5493018e-05
0.00014336522
0.00023329015
0.00033628764
0.00043989867
0.00049561471
4.4543061e-05
4.4526479e-05
4.4491284e-05
4.4451289e-05
4.446598e-05
4.4738756e-05
4.5876394e-05
4.9599966e-05
6.065916e-05
9.0013882e-05
0.00015112441
0.00024126036
0.00034169779
0.00044220662
0.00049562332
4.3646195e-05
4.3630105e-05
4.359784e-05
4.3569259e-05
4.3619731e-05
4.3992365e-05
4.5392377e-05
4.9789138e-05
6.2490101e-05
9.493909e-05
0.0001589437
0.0002488802
0.00034676053
0.00044434668
0.00049563933
4.2784505e-05
4.2769292e-05
4.2741115e-05
4.2726796e-05
4.2819756e-05
4.3307822e-05
4.5006531e-05
5.0160523e-05
6.4654627e-05
0.00010023808
0.00016676014
0.00025615208
0.00035150661
0.00044634014
0.00049566327
4.1956147e-05
4.1942252e-05
4.1919486e-05
4.1922641e-05
4.2065604e-05
4.2686474e-05
4.4724243e-05
5.0726937e-05
6.7163137e-05
0.00010587334
0.00017451901
0.00026308403
0.00035596427
0.00044820531
0.00049569579
4.1159436e-05
4.1147367e-05
4.1131511e-05
4.1155759e-05
4.1357137e-05
4.2130176e-05
4.4551789e-05
5.1501908e-05
7.0022258e-05
0.00011180181
0.00018217461
0.0002696879
0.00036015925
0.00044995792
0.00049573755
4.039284e-05
4.0383173e-05
4.0375928e-05
4.0425336e-05
4.0694538e-05
4.1641323e-05
4.4496352e-05
5.249937e-05
7.3234066e-05
0.00011797662
0.00018969027
0.00027597786
0.0003641149
0.00045161147
0.00049578915
3.9654963e-05
3.9648355e-05
3.9651641e-05
3.9730781e-05
4.0078323e-05
4.1222873e-05
4.4566032e-05
5.3733286e-05
7.6795471e-05
0.00012434897
0.00019703788
0.00028196939
0.00036785236
0.00045317755
0.00049585112
3.8944544e-05
3.8941738e-05
3.8957721e-05
3.9071722e-05
3.9509355e-05
4.0878379e-05
4.4769831e-05
5.5217173e-05
8.0697844e-05
0.00013087002
0.00020419699
0.00028767849
0.00037139067
0.00045466609
0.00049592389
3.8260447e-05
3.8262283e-05
3.8293404e-05
3.8448018e-05
3.8988856e-05
4.0612024e-05
4.5117614e-05
5.6963571e-05
8.4926934e-05
0.00013749257
0.00021115369
0.00029312118
0.00037474695
0.00045608565
0.00049600779
3.7601653e-05
3.7609082e-05
3.7658086e-05
3.7859757e-05
3.851843e-05
4.0428653e-05
4.562003e-05
5.8983448e-05
8.9463098e-05
0.00014417247
0.00021789951
0.0002983132
0.00037793661
0.00045744357
0.00049610301
3.6967262e-05
3.6981351e-05
3.7051327e-05
3.7307273e-05
3.8100084e-05
4.03338e-05
4.6288382e-05
6.1285586e-05
9.4281851e-05
0.00015086966
0.0002244303
0.00030326972
0.00038097347
0.0004587462
0.00049620968
3.6356483e-05
3.6378439e-05
3.6472854e-05
3.6791149e-05
3.7736253e-05
4.0333719e-05
4.7134451e-05
6.3875992e-05
9.9354674e-05
0.00015754882
0.00023074528
0.00030800525
0.00038386992
0.00045999904
0.00049632782
3.5768637e-05
3.5799814e-05
3.5922562e-05
3.6312237e-05
3.7429828e-05
4.0435398e-05
4.8170261e-05
6.6757359e-05
0.00010465003
0.00016417962
0.0002368462
0.00031253356
0.0003866371
0.00046120683
0.00049645738
3.5203153e-05
3.5245078e-05
3.5400526e-05
3.587167e-05
3.7184185e-05
4.0646561e-05
4.9407778e-05
6.992865e-05
0.00011013449
0.00017073674
0.00024273673
0.0003168676
0.00038928504
0.00046237372
0.00049659825
3.4659571e-05
3.4713957e-05
3.4907005e-05
3.5470884e-05
3.7003216e-05
4.0975654e-05
5.0858554e-05
7.3384827e-05
0.00011577387
0.0001771995
0.00024842186
0.00032101951
0.00039182274
0.00046350331
0.00049675024
3.4137541e-05
3.4206315e-05
3.4442453e-05
3.5111632e-05
3.6891359e-05
4.1431807e-05
5.2533325e-05
7.7116767e-05
0.00012153433
0.00018355156
0.00025390757
0.00032500062
0.00039425831
0.00046459877
0.00049691315
3.3636827e-05
3.3722154e-05
3.4007531e-05
3.4796015e-05
3.6853631e-05
4.2024758e-05
5.4441566e-05
8.1111389e-05
0.00012738327
0.0001897803
0.00025920045
0.00032882148
0.00039659908
0.00046566289
0.00049708671
3.3157312e-05
3.3261621e-05
3.3603121e-05
3.4526502e-05
3.689565e-05
4.2764744e-05
5.6591036e-05
8.5351969e-05
0.00013329012
0.00019587638
0.0002643075
0.00033249189
0.00039885166
0.00046669809
0.00049727064
3.2699001e-05
3.2825019e-05
3.3230344e-05
3.4305957e-05
3.702366e-05
4.3662351e-05
5.8987342e-05
8.9818641e-05
0.00013922684
0.00020183314
0.00026923591
0.00033602092
0.00040102205
0.00046770657
0.00049746465
3.2262029e-05
3.2412818e-05
3.2890574e-05
3.413767e-05
3.7244542e-05
4.4728314e-05
6.1633537e-05
9.448903e-05
0.00014516825
0.00020764625
0.00027399294
0.000339417
0.00040311568
0.00046869022
0.00049766841
3.1846672e-05
3.2025663e-05
3.2585463e-05
3.4025389e-05
3.7565809e-05
4.5973271e-05
6.4529809e-05
9.9338979e-05
0.00015109219
0.00021331317
0.00027858579
0.00034268791
0.00040513748
0.00046965076
0.00049788159
3.1453353e-05
3.1664391e-05
3.231696e-05
3.3973344e-05
3.7995594e-05
4.740747e-05
6.7673262e-05
0.0001043433
0.00015697949
0.0002188329
0.00028302152
0.00034584086
0.00040709192
0.00047058968
0.00049810386
3.1082656e-05
3.133005e-05
3.2087341e-05
3.3986285e-05
3.85426e-05
4.9040446e-05
7.1057844e-05
0.00010947653
0.00016281381
0.00022420565
0.00028730704
0.0003488826
0.00040898323
0.00047150443
0.00049833477
3.0735342e-05
3.1023912e-05
3.1899227e-05
3.4069502e-05
3.9216037e-05
5.0880663e-05
7.4674406e-05
0.00011471354
0.0001685815
0.00022943258
0.00029144901
0.00035181925
0.00041081466
0.00047239506
0.0004985739
3.0412362e-05
3.0747498e-05
3.1755625e-05
3.4228854e-05
4.0025514e-05
5.2935155e-05
7.8510895e-05
0.00012003018
0.00017427128
0.00023451559
0.00029545377
0.0003546564
0.0004125891
0.00047326294
0.0004988207
3.0114877e-05
3.0502598e-05
3.1659946e-05
3.4470785e-05
4.0980896e-05
5.5209169e-05
8.2552685e-05
0.00012540361
0.000179874
0.00023945714
0.00029932738
0.00035739917
0.00041430936
0.00047410988
0.00049907467
2.9844281e-05
3.02913e-05
3.1616046e-05
3.4802326e-05
4.209213e-05
5.7705854e-05
8.6783008e-05
0.00013081271
0.00018538239
0.00024426014
0.00030307571
0.00036005263
0.00041597749
0.00047493647
0.0004993353
2.9602222e-05
3.0116017e-05
3.1628256e-05
3.5231091e-05
4.336902e-05
6.0426005e-05
9.1183455e-05
0.00013623818
0.00019079077
0.00024892782
0.00030670431
0.00036262126
0.00041759498
0.00047574361
0.00049960216
2.9390631e-05
2.9979517e-05
3.1701408e-05
3.5765249e-05
4.482097e-05
6.3367892e-05
9.5734509e-05
0.00014166269
0.00019609489
0.00025346363
0.00031021839
0.00036510888
0.00041916376
0.00047653273
0.00049987494
2.9211752e-05
2.9884956e-05
3.1840874e-05
3.6413476e-05
4.6456698e-05
6.652718e-05
0.00010041608
0.00014707088
0.00020129164
0.00025787112
0.00031362279
0.000367519
0.00042068622
0.00047730509
0.00050015336
2.9068173e-05
2.9835914e-05
3.2052584e-05
3.7184875e-05
4.828393e-05
6.9896965e-05
0.00010520798
0.00015244922
0.00020637892
0.00026215392
0.00031692217
0.00036985501
0.0004221644
0.00047806212
0.00050043717
2.8962864e-05
2.9836431e-05
3.2343049e-05
3.8088866e-05
5.0309087e-05
7.3467912e-05
0.00011009039
0.00015778599
0.00021135552
0.00026631583
0.00032012125
0.00037211981
0.00042359911
0.00047880559
0.00050072626
2.8899218e-05
2.9891047e-05
3.2719369e-05
3.9135042e-05
5.2536989e-05
7.7228491e-05
0.0001150442
0.00016307114
0.0002162209
0.00027036051
0.0003232239
0.00037431559
0.00042499294
0.00047953644
0.00050102046
2.8881088e-05
3.0004838e-05
3.3189233e-05
4.0332985e-05
5.4970586e-05
8.1165294e-05
0.00012005127
0.00016829606
0.00022097508
0.0002742915
0.00032623365
0.0003764451
0.00042634816
0.00048025521
0.00050131959
2.8912838e-05
3.0183453e-05
3.3760894e-05
4.1692047e-05
5.7610752e-05
8.526341e-05
0.00012509467
0.00017345353
0.00022561853
0.00027811218
0.0003291539
0.00037851121
0.00042766685
0.00048096233
0.00050162344
2.8999385e-05
3.0433149e-05
3.4443126e-05
4.3221101e-05
6.0456134e-05
8.950683e-05
0.00013015874
0.00017853753
0.00023015225
0.00028182646
0.00033198842
0.00038051454
0.00042895137
0.0004816585
0.00050193178
2.9146247e-05
3.076082e-05
3.5245155e-05
4.4928268e-05
6.3503098e-05
9.3878854e-05
0.0001352292
0.00018354313
0.00023457746
0.00028543744
0.00033473926
0.00038245833
0.0004302034
0.00048234436
0.00050224443
2.9359593e-05
3.1174014e-05
3.6176557e-05
4.6820622e-05
6.6745751e-05
9.8362477e-05
0.00014029314
0.0001884663
0.0002388955
0.00028894795
0.00033740911
0.0003843455
0.00043142429
0.00048302038
0.00050256119
2.9646284e-05
3.1680942e-05
3.7247116e-05
4.8903912e-05
7.0176059e-05
0.00010294074
0.00014533895
0.00019330376
0.0002431078
0.00029236073
0.00034000083
0.00038617868
0.00043261525
0.00048368689
0.00050288185
3.0013913e-05
3.2290471e-05
3.8466652e-05
5.1182288e-05
7.3784042e-05
0.00010759703
0.00015035633
0.00019805314
0.00024721656
0.00029567951
0.00034251496
0.00038796053
0.0004337776
0.00048434421
0.00050320621
3.0470836e-05
3.3012085e-05
3.9844806e-05
5.3658073e-05
7.7558029e-05
0.00011231533
0.00015533616
0.00020271255
0.00025122335
0.00029890573
0.00034495508
0.00038969319
0.00043491256
0.00048499265
0.00050353407
3.1026187e-05
3.385583e-05
4.1390792e-05
5.6331584e-05
8.1484968e-05
0.00011708036
0.00016027041
0.00020728049
0.0002551296
0.00030204158
0.00034732434
0.0003913785
0.00043602117
0.00048563248
0.00050386521
3.1689881e-05
3.4832214e-05
4.3113125e-05
5.9201021e-05
8.555075e-05
0.00012187775
0.00016515208
0.00021175605
0.00025893729
0.00030508876
0.00034962562
0.00039301822
0.00043710434
0.00048626389
0.00050419944
3.2472581e-05
3.5952071e-05
4.5019323e-05
6.226243e-05
8.9740548e-05
0.00012669411
0.00016997513
0.00021613885
0.00026264853
0.00030804845
0.00035186157
0.00039461409
0.00043816292
0.00048688706
0.00050453656
3.338564e-05
3.7226381e-05
4.7115619e-05
6.5509752e-05
9.4039129e-05
0.00013151703
0.00017473426
0.00022042828
0.00026626393
0.00031092399
0.00035403446
0.00039616767
0.00043919771
0.00048750214
0.00050487636
3.4440993e-05
3.8666042e-05
4.9406677e-05
6.893494e-05
9.8431138e-05
0.00013633508
0.00017942478
0.00022462384
0.00026978482
0.00031371831
0.00035614639
0.00039768037
0.00044020941
0.00048810925
0.00050521865
3.5651003e-05
4.0281597e-05
5.1895346e-05
7.2528149e-05
0.00010290138
0.00014113794
0.00018404321
0.00022872689
0.00027321049
0.00031643405
0.0003581994
0.0003991535
0.00044119865
0.00048870847
0.00050556322
3.7028245e-05
4.2082917e-05
5.4582458e-05
7.6277974e-05
0.00010743498
0.00014591614
0.00018858599
0.00023273621
0.00027654358
0.00031907357
0.00036019538
0.00040058827
0.00044216604
0.00048929989
0.0005059099
3.8585217e-05
4.4078864e-05
5.7466697e-05
8.017172e-05
0.00011201757
0.00015066097
0.00019304979
0.0002366513
0.00027978654
0.00032163901
0.00036213606
0.00040198578
0.00044311207
0.00048988353
0.00050625847
4.0333995e-05
4.6276921e-05
6.0544538e-05
8.4195709e-05
0.00011663546
0.00015536504
0.00019743346
0.00024047007
0.00028294153
0.00032413245
0.00036402301
0.00040334703
0.00044403722
0.00049045944
0.00050660876
4.2285812e-05
4.8682848e-05
6.3810263e-05
8.8335558e-05
0.00012127563
0.00016002116
0.00020173347
0.0002441936
0.00028601047
0.00032655584
0.00036585773
0.00040467295
0.00044494191
0.00049102761
0.00050696056
4.4450598e-05
5.1300337e-05
6.725605e-05
9.2576436e-05
0.00012592572
0.00016462282
0.00020594659
0.00024782321
0.00028899518
0.00032891093
0.00036764154
0.00040596437
0.0004458265
0.00049158803
0.0005073137
4.6836476e-05
5.4130741e-05
7.0872155e-05
9.6903419e-05
0.00013057456
0.00016916551
0.00021006869
0.00025135994
0.00029189741
0.00033119938
0.00036937568
0.00040722205
0.0004466913
0.00049214067
0.00050766798
4.9449275e-05
5.717284e-05
7.4647092e-05
0.00010130151
0.00013521104
0.00017364213
0.00021409925
0.00025480477
0.00029471874
0.00033342269
0.00037106129
0.00040844665
0.00044753659
0.00049268548
0.00050802321
5.2292063e-05
6.0422734e-05
7.8567974e-05
0.00010575628
0.00013982634
0.00017804513
0.00021803752
0.00025815864
0.00029746068
0.00033558224
0.00037269937
0.00040963878
0.00044836259
0.00049322238
0.00050837922
5.5364769e-05
6.3873776e-05
8.2620668e-05
0.00011025324
0.00014440996
0.0001823698
0.00022188281
0.00026142245
0.00030012458
0.00033767929
0.00037429085
0.00041079897
0.00044916948
0.0004937513
0.00050873581
5.8663923e-05
6.7516704e-05
8.6790419e-05
0.00011477972
0.00014895019
0.0001866125
0.00022563448
0.00026459703
0.00030271168
0.00033971498
0.00037583654
0.00041192768
0.00044995742
0.00049427212
0.0005090928
6.2182538e-05
7.1339773e-05
9.1061813e-05
0.00011932101
0.00015343813
0.00019076984
0.00022929199
0.00026768312
0.00030522309
0.00034169031
0.00037733716
0.00041302529
0.0004507265
0.00049478473
0.00050945
6.5910217e-05
7.5329207e-05
9.5419608e-05
0.00012386173
0.00015786617
0.0001948387
0.00023285482
0.00027068137
0.0003076598
0.00034360617
0.00037879333
0.00041409214
0.00045147677
0.00049528897
0.00050980721
6.9833703e-05
7.9469717e-05
9.9845322e-05
0.00012838915
0.00016222727
0.00019881622
0.00023632247
0.00027359236
0.00031002267
0.00034546333
0.00038020558
0.00041512848
0.00045220826
0.00049578469
0.00051016426
7.3936184e-05
8.3742452e-05
0.00010432176
0.00013289128
0.00016651493
0.00020269975
0.00023969445
0.00027641655
0.00031231243
0.00034726246
0.00038157435
0.0004161345
0.00045292094
0.00049627171
0.00051052094
7.8197604e-05
8.8127418e-05
0.00010883201
0.00013735688
0.00017072318
0.00020648686
0.00024297027
0.00027915432
0.00031452971
0.0003490041
0.00038289999
0.00041711032
0.00045361474
0.00049674982
0.00051087706
8.2595734e-05
9.2603759e-05
0.00011335961
0.00014177544
0.00017484651
0.00021017527
0.0002461494
0.00028180592
0.00031667499
0.00035068868
0.00038418275
0.000418056
0.00045428958
0.0004972188
0.0005112324
8.710684e-05
9.7150181e-05
0.00011788866
0.00014613718
0.00017887989
0.00021376288
0.00024923133
0.00028437153
0.00031874864
0.00035231652
0.00038542279
0.00041897155
0.00045494528
0.00049767841
0.00051158678
9.1706344e-05
0.00010174536
0.00012240396
0.00015043307
0.00018281869
0.00021724777
0.00025221551
0.00028685124
0.00032075093
0.00035388783
0.00038662021
0.00041985689
0.00045558167
0.00049812839
0.00051193996
9.6369455e-05
0.0001063683
0.00012689106
0.00015465475
0.00018665873
0.00022062814
0.00025510141
0.00028924504
0.00032268201
0.00035540273
0.00038777499
0.00042071189
0.00045619851
0.00049856843
0.00051229173
0.00010107173
0.0001109987
0.0001313364
0.00015879457
0.00019039625
0.00022390238
0.00025788849
0.00029155287
0.00032454193
0.00035686124
0.00038888705
0.00042153637
0.00045679554
0.00049899823
0.00051264185
0.00010578957
0.00011561718
0.0001357273
0.00016284558
0.00019402786
0.00022706906
0.00026057624
0.00029377459
0.00032633067
0.00035826328
0.00038995625
0.00042233008
0.00045737243
0.00049941746
0.00051299009
0.00011050059
0.00012020554
0.00014005208
0.0001668015
0.00019755059
0.0002301269
0.00026316419
0.00029591004
0.00032804813
0.00035960872
0.00039098233
0.0004230927
0.00045792884
0.00049982574
0.0005133362
0.00011518394
0.00012474693
0.00014430004
0.00017065673
0.00020096188
0.00023307483
0.00026565191
0.00029795903
0.00032969412
0.00036089733
0.00039196502
0.00042382389
0.00045846437
0.0005002227
0.0005136799
0.00011982048
0.00012922596
0.00014846154
0.0001744063
0.00020425953
0.00023591199
0.00026803905
0.00029992134
0.00033126845
0.00036212883
0.00039290395
0.00042452323
0.0004589786
0.00050060793
0.00051402094
0.00012439295
0.00013362873
0.00015252793
0.00017804591
0.00020744175
0.00023863772
0.00027032537
0.0003017968
0.00033277088
0.00036330291
0.00039379874
0.00042519028
0.00045947107
0.00050098101
0.00051435902
0.000128886
0.00013794295
0.00015649163
0.00018157188
0.00021050713
0.00024125158
0.00027251071
0.00030358526
0.00033420117
0.0003644192
0.00039464895
0.00042582457
0.00045994129
0.00050134149
0.00051469385
0.00013328617
0.00014215782
0.00016034604
0.00018498113
0.00021345463
0.00024375338
0.00027459506
0.00030528663
0.00033555907
0.00036547735
0.00039545411
0.00042642557
0.00046038877
0.00050168892
0.00051502513
0.00013758188
0.00014626408
0.00016408556
0.00018827119
0.00021628357
0.00024614314
0.00027657854
0.00030690089
0.00033684438
0.00036647698
0.00039621375
0.00042699278
0.00046081298
0.00050202282
0.00051535252
0.00014176332
0.0001502539
0.00016770553
0.00019144013
0.00021899364
0.00024842113
0.00027846144
0.00030842812
0.00033805694
0.00036741774
0.00039692741
0.00042752565
0.00046121339
0.00050234272
0.00051567571
0.00014582237
0.00015412081
0.00017120218
0.00019448657
0.00022158487
0.00025058786
0.0002802442
0.00030986851
0.00033919667
0.00036829934
0.00039759462
0.00042802367
0.00046158948
0.00050264814
0.00051599436
0.00014975244
0.00015785962
0.00017457258
0.00019740966
0.00022405759
0.00025264406
0.00028192745
0.00031122235
0.00034026354
0.00036912149
0.00039821496
0.00042848632
0.00046194071
0.00050293861
0.00051630811
0.00015354838
0.0001614663
0.00017781461
0.000200209
0.00022641248
0.0002545907
0.00028351198
0.00031249011
0.00034125766
0.00036988401
0.00039878805
0.00042891313
0.00046226659
0.00050321367
0.00051661662
0.00015720633
0.00016493788
0.00018092685
0.00020288463
0.00022865047
0.00025642896
0.00028499876
0.00031367237
0.00034217921
0.00037058679
0.00039931355
0.00042930364
0.00046256664
0.00050347286
0.00051691953
0.00016072358
0.00016827239
0.00018390856
0.00020543704
0.00023077278
0.00025816022
0.00028638894
0.00031476987
0.00034302853
0.00037122981
0.00039979122
0.00042965748
0.00046284043
0.00050371576
0.00051721648
0.00016409844
0.0001714687
0.0001867596
0.00020786706
0.00023278088
0.00025978608
0.00028768386
0.0003157835
0.00034380606
0.00037181315
0.00040022089
0.00042997432
0.00046308756
0.00050394198
0.00051750712
0.00016733015
0.00017452645
0.00018948036
0.00021017588
0.00023467646
0.00026130828
0.000288885
0.00031671431
0.0003445124
0.00037233702
0.00040060248
0.00043025391
0.0004633077
0.00050415116
0.00051779109
0.00017041872
0.00017744597
0.00019207174
0.00021236501
0.0002364614
0.00026272877
0.000289994
0.0003175635
0.00034514827
0.00037280176
0.00040093602
0.00043049608
0.00046350058
0.000504343
0.00051806804
0.00017336488
0.00018022817
0.00019453505
0.0002144362
0.00023813781
0.00026404962
0.00029101267
0.00031833242
0.00034571457
0.00037320783
0.00040122167
0.00043070078
0.00046366601
0.00050451723
0.00051833765
0.00017616991
0.00018287449
0.00019687199
0.0002163915
0.00023970792
0.00026527306
0.00029194293
0.00031902258
0.0003462123
0.00037355582
0.00040145968
0.00043086802
0.00046380386
0.00050467364
0.00051859958
0.00017883564
0.00018538678
0.00019908456
0.00021823312
0.00024117412
0.00026640143
0.00029278685
0.00031963559
0.00034664263
0.00037384648
0.00040165044
0.00043099795
0.00046391412
0.00050481209
0.00051885354
0.00018136429
0.0001877673
0.00020117508
0.00021996349
0.00024253893
0.00026743717
0.00029354661
0.00032017322
0.00034700686
0.00037408066
0.00040179448
0.00043109082
0.00046399685
0.0005049325
0.00051909922
0.00018375846
0.0001900186
0.00020314607
0.00022158519
0.00024380497
0.00026838283
0.00029422448
0.00032063735
0.00034730642
0.00037425938
0.00040189244
0.000431147
0.0004640522
0.00050503486
0.00051933637
0.00018602105
0.00019214351
0.00020500029
0.00022310094
0.00024497495
0.00026924102
0.00029482283
0.00032102996
0.00034754287
0.00037438377
0.00040194508
0.00043116697
0.00046408043
0.00050511921
0.00051956475
0.00018815517
0.00019414506
0.00020674062
0.00022451355
0.00024605166
0.00027001442
0.0002953441
0.00032135316
0.00034771789
0.0003744551
0.00040195333
0.00043115134
0.00046408189
0.0005051857
0.00051978414
0.00019016416
0.00019602647
0.00020837012
0.00022582595
0.00024703794
0.00027070577
0.00029579079
0.0003216091
0.00034783324
0.00037447474
0.00040191818
0.0004311008
0.00046405704
0.00050523452
0.00051999435
0.00019205149
0.00019779107
0.00020989193
0.00022704113
0.00024793667
0.00027131782
0.00029616548
0.00032180005
0.00034789082
0.0003744442
0.00040184078
0.00043101619
0.00046400641
0.00050526592
0.00052019522
0.00019382073
0.00019944232
0.00021130926
0.00022816212
0.00024875079
0.00027185339
0.00029647076
0.00032192831
0.00034789258
0.00037436507
0.00040172238
0.00043089843
0.00046393064
0.00050528026
0.00052038662
0.00019547556
0.00020098374
0.00021262542
0.000229192
0.00024948322
0.00027231528
0.00029670928
0.00032199627
0.00034784058
0.00037423905
0.00040156432
0.00043074854
0.00046383046
0.00050527793
0.00052056847
0.0001970197
0.0002024189
0.00021384373
0.00023013387
0.00025013692
0.00027270633
0.00029688368
0.00032200633
0.00034773691
0.00037406789
0.00040136804
0.00043056765
0.00046370666
0.00050525939
0.00052074069
0.00019845689
0.00020375139
0.00021496753
0.00023099085
0.00025071484
0.00027302935
0.00029699663
0.00032196095
0.00034758375
0.00037385347
0.00040113507
0.00043035696
0.00046356013
0.00050522516
0.00052090326
0.0001997909
0.00020498484
0.00021600017
0.00023176604
0.00025121991
0.00027328717
0.00029705081
0.00032186258
0.00034738331
0.00037359768
0.00040086699
0.00043011775
0.00046339181
0.0005051758
0.00052105618
0.00020102547
0.00020612284
0.00021694501
0.00023246255
0.00025165507
0.00027348257
0.00029704889
0.00032171372
0.00034713783
0.00037330249
0.00040056548
0.00042985135
0.00046320271
0.00050511195
0.00052119946
0.00020216435
0.00020716898
0.00021780538
0.00023308346
0.00025202321
0.00027361834
0.0002969935
0.00032151686
0.00034684958
0.00037296992