/*--------------------------------*- C++ -*----------------------------------*\
| =========                 |                                                 |
| \\      /  F ield         | OpenFOAM: The Open Source CFD Toolbox           |
|  \\    /   O peration     | Version:  2506                                  |
|   \\  /    A nd           | Website:  www.openfoam.com                      |
|    \\/     M anipulation  |                                                 |
\*---------------------------------------------------------------------------*/
FoamFile
{
    version     2.0;
    format      ascii;
    arch        "LSB;label=32;scalar=64";
    class       volScalarField;
    location    "4000/water";
    object      nut;
}
// * * * * * * * * * * * * * * * * * * * * * * * * * * * * * * * * * * * * * //

dimensions      [0 2 -1 0 0 0 0];

internalField   nonuniform List<scalar> 
6000
(
4.1367308e-05
4.1367285e-05
4.1367292e-05
4.1367317e-05
4.136735e-05
4.1367394e-05
4.1367445e-05
4.1367477e-05
4.1367269e-05
4.1365028e-05
4.1345959e-05
4.1185428e-05
3.984402e-05
3.0619188e-05
1.3489073e-05
4.0862094e-05
4.0862089e-05
4.0862128e-05
4.0862206e-05
4.086231e-05
4.0862441e-05
4.0862573e-05
4.0862525e-05
4.0861044e-05
4.0849566e-05
4.0769767e-05
4.0233638e-05
3.6930279e-05
2.3809326e-05
1.5168915e-05
4.0408426e-05
4.0408431e-05
4.0408496e-05
4.0408619e-05
4.040878e-05
4.0408965e-05
4.0409066e-05
4.0408421e-05
4.0403049e-05
4.0369314e-05
4.0169922e-05
3.9053519e-05
3.3674827e-05
1.9530254e-05
1.6389796e-05
3.9998212e-05
3.9998216e-05
3.9998298e-05
3.9998456e-05
3.9998657e-05
3.9998846e-05
3.9998699e-05
3.999645e-05
3.9982628e-05
3.9907469e-05
3.9519874e-05
3.7665236e-05
3.0439418e-05
1.6813321e-05
1.7227565e-05
3.9625122e-05
3.9625133e-05
3.9625231e-05
3.9625419e-05
3.9625638e-05
3.9625739e-05
3.9624947e-05
3.9619415e-05
3.959045e-05
3.9450123e-05
3.8807695e-05
3.6131535e-05
2.7477322e-05
1.5090355e-05
1.7763765e-05
3.9283984e-05
3.9284007e-05
3.9284119e-05
3.9284324e-05
3.9284521e-05
3.9284369e-05
3.9282279e-05
3.9270986e-05
3.9218236e-05
3.8986823e-05
3.8033859e-05
3.4524992e-05
2.4897642e-05
1.400968e-05
1.8072537e-05
3.8970512e-05
3.8970546e-05
3.8970668e-05
3.8970871e-05
3.8970973e-05
3.8970306e-05
3.8965958e-05
3.8945612e-05
3.8858945e-05
3.8510812e-05
3.7207229e-05
3.2908964e-05
2.2716803e-05
1.3360893e-05
1.8215906e-05
3.8681158e-05
3.8681199e-05
3.8681323e-05
3.8681493e-05
3.8681392e-05
3.8679823e-05
3.8671916e-05
3.8638477e-05
3.8506919e-05
3.801881e-05
3.6341286e-05
3.1331233e-05
2.0908463e-05
1.30184e-05
1.8243034e-05
3.841296e-05
3.8413006e-05
3.8413119e-05
3.8413209e-05
3.8412743e-05
3.8409742e-05
3.8396631e-05
3.8345462e-05
3.8157885e-05
3.7510375e-05
3.5450851e-05
2.9823717e-05
1.9431977e-05
1.2906145e-05
1.8191421e-05
3.816343e-05
3.8163474e-05
3.8163556e-05
3.8163497e-05
3.8162446e-05
3.8157327e-05
3.8137042e-05
3.8063106e-05
3.7808869e-05
3.6987081e-05
3.454982e-05
2.8405299e-05
1.8246291e-05
1.2977275e-05
1.8088864e-05
3.7930457e-05
3.7930491e-05
3.7930513e-05
3.793021e-05
3.7928279e-05
3.7920197e-05
3.7890497e-05
3.7788579e-05
3.7458031e-05
3.6451747e-05
3.3649968e-05
2.7085594e-05
1.7315649e-05
1.3202296e-05
1.7955551e-05
3.7712242e-05
3.7712253e-05
3.7712173e-05
3.7711499e-05
3.7708322e-05
3.7696279e-05
3.7654711e-05
3.7519641e-05
3.7104472e-05
3.5907781e-05
3.2760531e-05
2.58684e-05
1.6611172e-05
1.3561911e-05
1.7805936e-05
3.7507239e-05
3.7507212e-05
3.7506973e-05
3.7505765e-05
3.7500895e-05
3.7483757e-05
3.7427744e-05
3.725459e-05
3.6748014e-05
3.5358688e-05
3.188827e-05
2.4754408e-05
1.6110613e-05
1.4042468e-05
1.7650267e-05
3.7314115e-05
3.7314026e-05
3.7313557e-05
3.7311613e-05
3.7304527e-05
3.7281048e-05
3.7207963e-05
3.6992195e-05
3.6389e-05
3.4807726e-05
3.1037799e-05
2.3743174e-05
1.5797412e-05
1.4632945e-05
1.7495753e-05
3.7131708e-05
3.713153e-05
3.7130739e-05
3.7127817e-05
3.7117921e-05
3.7086772e-05
3.6994026e-05
3.6731629e-05
3.6028109e-05
3.4257704e-05
3.0212055e-05
2.2834479e-05
1.5659519e-05
1.5322866e-05
1.7347422e-05
3.6959006e-05
3.6958703e-05
3.6957478e-05
3.6953298e-05
3.6939934e-05
3.6899735e-05
3.6784847e-05
3.64724e-05
3.5666203e-05
3.3710866e-05
2.9412801e-05
2.2029191e-05
1.5688155e-05
1.6100896e-05
1.7208725e-05
3.6795116e-05
3.6794645e-05
3.6792855e-05
3.6787094e-05
3.6769555e-05
3.6718912e-05
3.6579574e-05
3.6214282e-05
3.5304204e-05
3.3168861e-05
2.8641157e-05
2.132974e-05
1.587657e-05
1.695401e-05
1.7081944e-05
3.6639251e-05
3.6638559e-05
3.6636051e-05
3.6628355e-05
3.6605895e-05
3.6543431e-05
3.637756e-05
3.5957252e-05
3.4942996e-05
3.2632763e-05
2.789813e-05
2.0740252e-05
1.6218811e-05
1.7867211e-05
1.6968459e-05
3.6490711e-05
3.6489738e-05
3.6486338e-05
3.6476321e-05
3.6448171e-05
3.6372563e-05
3.6178336e-05
3.5701433e-05
3.458336e-05
3.2103134e-05
2.7185145e-05
2.0266398e-05
1.6708562e-05
1.8823777e-05
1.6868922e-05
3.6348869e-05
3.6347546e-05
3.6343063e-05
3.6330312e-05
3.62957e-05
3.6205706e-05
3.5981587e-05
3.5447046e-05
3.4225914e-05
3.1580129e-05
2.6504571e-05
1.991497e-05
1.7338099e-05
1.9805967e-05
1.6783375e-05
3.6213165e-05
3.6211415e-05
3.6205638e-05
3.6189726e-05
3.6147887e-05
3.6042373e-05
3.5787125e-05
3.5194368e-05
3.3871092e-05
3.1063631e-05
2.5860194e-05
1.9693245e-05
1.8097487e-05
2.0796033e-05
1.6711346e-05
3.6083093e-05
3.6080831e-05
3.6073537e-05
3.6054024e-05
3.6004223e-05
3.5882185e-05
3.5594869e-05
3.4943693e-05
3.3519118e-05
3.0553441e-05
2.5257605e-05
1.96082e-05
1.8974102e-05
2.1777346e-05
1.6651939e-05
3.5958194e-05
3.5955329e-05
3.5946284e-05
3.592273e-05
3.5864274e-05
3.5724854e-05
3.5404824e-05
3.4695304e-05
3.3170007e-05
3.0049498e-05
2.4704419e-05
1.9665646e-05
1.9952579e-05
2.2735414e-05
1.660395e-05
3.5838054e-05
3.5834489e-05
3.582345e-05
3.5795422e-05
3.5727676e-05
3.5570179e-05
3.521706e-05
3.444945e-05
3.2823581e-05
2.9552162e-05
2.4210265e-05
1.9869402e-05
2.1015193e-05
2.3658589e-05
1.6565971e-05
3.5722292e-05
3.5717927e-05
3.5704651e-05
3.5671733e-05
3.5594133e-05
3.5418031e-05
3.50317e-05
3.4206321e-05
3.2479493e-05
2.9062524e-05
2.3786503e-05
2.022057e-05
2.2142641e-05
2.4538397e-05
1.6536511e-05
3.5610563e-05
3.5605296e-05
3.558954e-05
3.5551342e-05
3.5463408e-05
3.5268352e-05
3.48489e-05
3.3966035e-05
3.2137286e-05
2.858275e-05
2.3445668e-05
2.0717024e-05
2.3315071e-05
2.5369467e-05
1.6514097e-05
3.5502551e-05
3.549628e-05
3.5477808e-05
3.5433974e-05
3.5335321e-05
3.5121137e-05
3.466884e-05
3.3728621e-05
3.1796463e-05
2.8116417e-05
2.3200675e-05
2.1353141e-05
2.4513224e-05
2.6149157e-05
1.6497357e-05
3.5397967e-05
3.539059e-05
3.536918e-05
3.5319398e-05
3.5209747e-05
3.4976437e-05
3.4491706e-05
3.3494016e-05
3.14566e-05
2.7668794e-05
2.3063903e-05
2.2119832e-05
2.5719464e-05
2.6877011e-05
1.6485071e-05
3.5296546e-05
3.5287966e-05
3.5263414e-05
3.5207424e-05
3.5086609e-05
3.4834344e-05
3.4317681e-05
3.3262058e-05
3.1117487e-05
2.7247026e-05
2.3046253e-05
2.3004861e-05
2.6918581e-05
2.7554165e-05
1.6476201e-05
3.5198047e-05
3.5188175e-05
3.5160297e-05
3.5097901e-05
3.4965875e-05
3.4694991e-05
3.4146934e-05
3.3032492e-05
3.0779305e-05
2.6860148e-05
2.3156314e-05
2.3993437e-05
2.8098246e-05
2.8182808e-05
1.6469894e-05
3.5102251e-05
3.5091004e-05
3.5059649e-05
3.4990715e-05
3.4847558e-05
3.4558539e-05
3.3979609e-05
3.2804987e-05
3.0442843e-05
2.6518901e-05
2.3399716e-05
2.5069007e-05
2.9249138e-05
2.8765761e-05
1.6465472e-05
3.5008959e-05
3.4996268e-05
3.4961317e-05
3.488579e-05
3.4731711e-05
3.4425177e-05
3.3815813e-05
3.2579164e-05
3.0109732e-05
2.6235323e-05
2.3778716e-05
2.6214167e-05
3.0364755e-05
2.9306158e-05
1.646241e-05
3.4917993e-05
3.4903801e-05
3.4865175e-05
3.4783085e-05
3.4618425e-05
3.4295113e-05
3.3655609e-05
3.235464e-05
2.9782687e-05
2.6022142e-05
2.4292059e-05
2.741159e-05
3.1441032e-05
2.9807246e-05
1.6460313e-05
3.4829195e-05
3.4813462e-05
3.4771128e-05
3.4682592e-05
3.4507829e-05
3.416857e-05
3.3499011e-05
3.2131095e-05
2.9465731e-05
2.589204e-05
2.4935072e-05
2.8644858e-05
3.2475854e-05
3.0272255e-05
1.6458891e-05
3.4742423e-05
3.4725129e-05
3.4679107e-05
3.4584339e-05
3.4400083e-05
3.4045774e-05
3.3345975e-05
3.1908364e-05
2.9164362e-05
2.5856856e-05
2.569999e-05
2.9899123e-05
3.3468557e-05
3.0704313e-05
1.6457936e-05
3.465756e-05
3.4638706e-05
3.4589068e-05
3.4488387e-05
3.4295378e-05
3.3926957e-05
3.3196403e-05
3.1686556e-05
2.8885627e-05
2.5926837e-05
2.6576456e-05
3.1161548e-05
3.4419484e-05
3.1106401e-05
1.6457305e-05
3.4574503e-05
3.4554114e-05
3.4500999e-05
3.4394828e-05
3.4193938e-05
3.381234e-05
3.3050148e-05
3.1466195e-05
2.8638063e-05
2.6110007e-05
2.7552147e-05
3.2421502e-05
3.5329635e-05
3.1481314e-05
1.6456902e-05
3.4493171e-05
3.4471301e-05
3.4414911e-05
3.4303789e-05
3.409601e-05
3.3702133e-05
3.2907027e-05
3.1248389e-05
2.8431492e-05
2.6411716e-05
2.8613482e-05
3.3670554e-05
3.6200408e-05
3.1831643e-05
1.6456669e-05
3.4413502e-05
3.4390234e-05
3.4330848e-05
3.4215429e-05
3.4001867e-05
3.3596524e-05
3.2766849e-05
3.1035014e-05
2.8276657e-05
2.6834391e-05
2.9746331e-05
3.4902296e-05
3.7033429e-05
3.2159762e-05
1.6456572e-05
3.4335456e-05
3.4310905e-05
3.4248878e-05
3.4129939e-05
3.3911801e-05
3.3495676e-05
3.2629453e-05
3.0828885e-05
2.818473e-05
2.73775e-05
3.0936678e-05
3.6112068e-05
3.7830438e-05
3.2467823e-05
1.6456596e-05
3.4259011e-05
3.423333e-05
3.4169102e-05
3.4047543e-05
3.3826124e-05
3.3399718e-05
3.2494766e-05
3.0633923e-05
2.8166733e-05
2.8037692e-05
3.2171192e-05
3.7296636e-05
3.8593222e-05
3.2757762e-05
1.6456739e-05
3.4184168e-05
3.4157548e-05
3.409165e-05
3.3968498e-05
3.3745158e-05
3.3308744e-05
3.2362881e-05
3.0455255e-05
2.8232927e-05
2.8809107e-05
3.3437648e-05
3.8453879e-05
3.9323576e-05
3.3031311e-05
1.6457005e-05
3.4110952e-05
3.4083626e-05
3.4016682e-05
3.3893092e-05
3.3669236e-05
3.3222814e-05
3.2234152e-05
3.0299254e-05
2.8392247e-05
2.968379e-05
3.4725213e-05
3.9582514e-05
4.0023269e-05
3.3290008e-05
1.6457402e-05
3.4039411e-05
3.4011658e-05
3.3944392e-05
3.3821645e-05
3.3598692e-05
3.3141955e-05
3.2109321e-05
3.0173468e-05
2.8651822e-05
3.0652197e-05
3.6024572e-05
4.0681868e-05
4.0694026e-05
3.353522e-05
1.6457942e-05
3.3969616e-05
3.3941763e-05
3.3875008e-05
3.3754507e-05
3.3533859e-05
3.3066181e-05
3.1989643e-05
3.0086448e-05
2.9016628e-05
3.170372e-05
3.7327935e-05
4.1751712e-05
4.1337508e-05
3.3768156e-05
1.6458635e-05
3.3901667e-05
3.3874095e-05
3.3808792e-05
3.369206e-05
3.3475059e-05
3.2995507e-05
3.1877041e-05
3.0047456e-05
2.9489294e-05
3.2827221e-05
3.8628939e-05
4.2792135e-05
4.19553e-05
3.3989888e-05
1.6459492e-05
3.3835691e-05
3.3808835e-05
3.3746042e-05
3.3634709e-05
3.3422602e-05
3.2929991e-05
3.1774239e-05
3.0066083e-05
3.0070063e-05
3.4011507e-05
3.9922491e-05
4.3803459e-05
4.2548903e-05
3.4201365e-05
1.6460521e-05
3.3771846e-05
3.3746203e-05
3.3687095e-05
3.358289e-05
3.3376778e-05
3.2869781e-05
3.1684887e-05
3.0151796e-05
3.0756889e-05
3.5245747e-05
4.1204586e-05
4.4786181e-05
4.311973e-05
3.4403429e-05
1.6461728e-05
3.3710322e-05
3.3686449e-05
3.3632325e-05
3.3537056e-05
3.3337853e-05
3.2815181e-05
3.161364e-05
3.0313472e-05
3.1545664e-05
3.6519783e-05
4.2472115e-05
4.5740922e-05
4.3669104e-05
3.4596828e-05
1.6463121e-05
3.3651343e-05
3.3629867e-05
3.3582146e-05
3.3497683e-05
3.3306071e-05
3.2766737e-05
3.1566178e-05
3.0558948e-05
3.2430524e-05
3.7824354e-05
4.3722698e-05
4.66684e-05
4.4198257e-05
3.4782227e-05
1.6464701e-05
3.359517e-05
3.3576787e-05
3.3537014e-05
3.3465257e-05
3.328166e-05
3.272534e-05
3.1549149e-05
3.0894642e-05
3.340422e-05
3.9151211e-05
4.4954533e-05
4.7569397e-05
4.4708341e-05
3.4960218e-05
1.6466471e-05
3.3542106e-05
3.3527584e-05
3.3497423e-05
3.3440275e-05
3.3264838e-05
3.2692338e-05
3.1570026e-05
3.1325256e-05
3.4458522e-05
4.0493156e-05
4.6166278e-05
4.8444736e-05
4.5200422e-05
3.5131334e-05
1.6468431e-05
3.3492497e-05
3.3482682e-05
3.346391e-05
3.3423238e-05
3.3255838e-05
3.2669662e-05
3.1636872e-05
3.1853606e-05
3.5584612e-05
4.1844013e-05
4.7356962e-05
4.9295264e-05
4.5675495e-05
3.5296048e-05
1.647058e-05
3.3446735e-05
3.3442548e-05
3.3437051e-05
3.3414644e-05
3.3254937e-05
3.2659939e-05
3.1758039e-05
3.248056e-05
3.6773453e-05
4.3198549e-05
4.8525912e-05
5.0121836e-05
4.6134481e-05
3.5454788e-05
1.6472917e-05
3.3405264e-05
3.3407707e-05
3.3417461e-05
3.3414983e-05
3.32625e-05
3.2666593e-05
3.1941805e-05
3.3205091e-05
3.8016109e-05
4.4552379e-05
4.9672695e-05
5.0925301e-05
4.657824e-05
3.5607939e-05
1.6475438e-05
3.3368581e-05
3.3378733e-05
3.3405791e-05
3.3424736e-05
3.3279045e-05
3.2693911e-05
3.2195997e-05
3.4024426e-05
3.9304002e-05
4.5901849e-05
5.0797076e-05
5.1706495e-05
4.7007567e-05
3.5755851e-05
1.6478139e-05
3.3337244e-05
3.3356261e-05
3.3402726e-05
3.3444373e-05
3.3305312e-05
3.2747055e-05
3.2527621e-05
3.4934267e-05
4.0629103e-05
4.7243934e-05
5.189898e-05
5.2466236e-05
4.7423203e-05
3.5898837e-05
1.6481016e-05
3.3311875e-05
3.3340983e-05
3.3408981e-05
3.347436e-05
3.334236e-05
3.2832014e-05
3.2942544e-05
3.5929073e-05
4.1984046e-05
4.857614e-05
5.2978463e-05
5.3205318e-05
4.7825836e-05
3.6037187e-05
1.6484065e-05
3.3293162e-05
3.3333652e-05
3.3425294e-05
3.3515162e-05
3.3391667e-05
3.2955484e-05
3.3445235e-05
3.7002364e-05
4.3362194e-05
4.9896419e-05
5.4035684e-05
5.3924507e-05
4.8216108e-05
3.6171161e-05
1.6487281e-05
3.3281869e-05
3.3335085e-05
3.3452425e-05
3.3567271e-05
3.3455234e-05
3.3124673e-05
3.4038602e-05
3.8147028e-05
4.475765e-05
5.1203101e-05
5.5070885e-05
5.4624543e-05
4.8594615e-05
3.6301e-05
1.6490657e-05
3.3278836e-05
3.3346162e-05
3.3491147e-05
3.3631231e-05
3.3535693e-05
3.3347043e-05
3.4723921e-05
3.9355617e-05
4.6165227e-05
5.2494832e-05
5.6084369e-05
5.5306137e-05
4.8961914e-05
3.6426924e-05
1.6494188e-05
3.3284986e-05
3.3367824e-05
3.3542246e-05
3.370768e-05
3.3636387e-05
3.3630013e-05
3.5500849e-05
4.0620606e-05
4.7580405e-05
5.377053e-05
5.707649e-05
5.5969971e-05
4.9318528e-05
3.6549142e-05
1.649787e-05
3.3301328e-05
3.3401077e-05
3.3606512e-05
3.3797411e-05
3.3761426e-05
3.3980637e-05
3.6367522e-05
4.1934615e-05
4.8999263e-05
5.5029342e-05
5.8047633e-05
5.6616676e-05
4.9664838e-05
3.6667083e-05
1.6501693e-05
3.3328964e-05
3.3446984e-05
3.3684744e-05
3.390144e-05
3.3915695e-05
3.4405285e-05
3.7320728e-05
4.3290574e-05
5.041842e-05
5.6270606e-05
5.8998201e-05
5.7246848e-05
5.0001242e-05
3.6781084e-05
1.6505652e-05
3.3369088e-05
3.3506667e-05
3.3777752e-05
3.4021095e-05
3.4104803e-05
3.4909367e-05
3.8356109e-05
4.4681845e-05
5.1834964e-05
5.7493823e-05
5.9928612e-05
5.7861058e-05
5.0328144e-05
3.6891449e-05
1.6509737e-05
3.3422991e-05
3.3581298e-05
3.388637e-05
3.4158108e-05
3.4334978e-05
3.5497104e-05
3.9468409e-05
4.610229e-05
5.3246395e-05
5.869863e-05
6.0839297e-05
5.8459858e-05
5.0645956e-05
3.6998447e-05
1.6513939e-05
3.3492061e-05
3.36721e-05
3.4011476e-05
3.4314716e-05
3.4612886e-05
3.6171372e-05
4.0651721e-05
4.7546313e-05
5.4650575e-05
5.9884778e-05
6.1730683e-05
5.9043728e-05
5.0954638e-05
3.7102364e-05
1.6518251e-05
3.3577783e-05
3.3780337e-05
3.4154024e-05
3.4493748e-05
3.4945408e-05
3.6933623e-05
4.1899732e-05
4.9008856e-05
5.604568e-05
6.1052114e-05
6.2603195e-05
5.9613109e-05
5.1254405e-05
3.7203361e-05
1.6522664e-05
3.3681741e-05
3.3907314e-05
3.4315088e-05
3.4698702e-05
3.5339367e-05
3.7783883e-05
4.3205939e-05
5.048539e-05
5.7430158e-05
6.2200559e-05
6.3457252e-05
6.0168461e-05
5.154576e-05
3.7301525e-05
1.6527174e-05
3.3805607e-05
3.4054376e-05
3.4495925e-05
3.4933781e-05
3.5801245e-05
3.8720823e-05
4.4563842e-05
5.1971877e-05
5.8802694e-05
6.33301e-05
6.4293273e-05
6.0710246e-05
5.1829139e-05
3.7396966e-05
1.6531776e-05
3.3951146e-05
3.4222909e-05
3.4698045e-05
3.5203894e-05
3.6336901e-05
3.9741883e-05
4.5967099e-05
5.3464732e-05
6.0162182e-05
6.4440779e-05
6.5111665e-05
6.1238796e-05
5.2104947e-05
3.748981e-05
1.6536466e-05
3.4120203e-05
3.441435e-05
3.49233e-05
3.5514591e-05
3.6951319e-05
4.0843447e-05
4.7409634e-05
5.4960789e-05
6.1507694e-05
6.5532676e-05
6.5912778e-05
6.1754098e-05
5.2373573e-05
3.7580205e-05
1.6541241e-05
3.4314704e-05
3.4630206e-05
3.5173974e-05
3.5871955e-05
3.7648404e-05
4.2021037e-05
4.8885721e-05
5.6457252e-05
6.2838456e-05
6.66059e-05
6.6696976e-05
6.2256723e-05
5.2635222e-05
3.7668254e-05
1.65461e-05
3.4536647e-05
3.4872083e-05
3.5452878e-05
3.6282417e-05
3.8430839e-05
4.3269529e-05
5.039003e-05
5.7951659e-05
6.4153825e-05
6.7660585e-05
6.7464642e-05
6.2747183e-05
5.2890115e-05
3.7754043e-05
1.6551039e-05
3.4788108e-05
3.514173e-05
3.5763423e-05
3.675254e-05
3.9300007e-05
4.4583358e-05
5.1917647e-05
5.9441846e-05
6.545327e-05
6.8696898e-05
6.8216177e-05
6.3225938e-05
5.3138481e-05
3.7837652e-05
1.6556054e-05
3.507124e-05
3.5441095e-05
3.6109679e-05
3.7288762e-05
4.0255989e-05
4.5956707e-05
5.3464079e-05
6.0925917e-05
6.6736364e-05
6.9714982e-05
6.8951477e-05
6.3693451e-05
5.3380571e-05
3.7919176e-05
1.6561141e-05
3.538829e-05
3.57724e-05
3.649639e-05
3.7897123e-05
4.1297619e-05
4.7383678e-05
5.5025238e-05
6.240221e-05
6.8002751e-05
7.0714991e-05
6.9671022e-05
6.4150031e-05
5.3616594e-05
3.7998702e-05
1.6566298e-05
3.5741624e-05
3.6138226e-05
3.6928937e-05
3.8583013e-05
4.2422593e-05
4.885843e-05
5.6597422e-05
6.3869267e-05
6.925214e-05
7.1697113e-05
7.0375285e-05
6.4595978e-05
5.3846736e-05
3.8076307e-05
1.6571522e-05
3.6133767e-05
3.6541601e-05
3.7413251e-05
3.9350933e-05
4.362762e-05
5.0375286e-05
5.8177289e-05
6.5325811e-05
7.0484304e-05
7.2661574e-05
7.1064702e-05
6.5031589e-05
5.4071176e-05
3.8152052e-05
1.6576808e-05
3.6567456e-05
3.6986085e-05
3.7955665e-05
4.0204323e-05
4.4908596e-05
5.1928814e-05
5.9761833e-05
6.6770737e-05
7.1699059e-05
7.3608222e-05
7.1739654e-05
6.5457162e-05
5.4290104e-05
3.8226002e-05
1.6582153e-05
3.7045713e-05
3.7475849e-05
3.8562707e-05
4.1145433e-05
4.6260791e-05
5.3513876e-05
6.134835e-05
6.8203063e-05
7.2896231e-05
7.4537357e-05
7.2400493e-05
6.587296e-05
5.4503696e-05
3.8298217e-05
1.6587554e-05
3.7571924e-05
3.8015708e-05
3.9240862e-05
4.2175266e-05
4.767903e-05
5.5125662e-05
6.2934406e-05
6.9621922e-05
7.4075706e-05
7.5449306e-05
7.3047535e-05
6.6279232e-05
5.4712113e-05
3.8368751e-05
1.6593007e-05
3.8149922e-05
3.861112e-05
3.9996307e-05
4.3293588e-05
4.9157863e-05
5.6759698e-05
6.4517821e-05
7.1026559e-05
7.5237344e-05
7.6344349e-05
7.3681079e-05
6.6676219e-05
5.4915501e-05
3.8437654e-05
1.659851e-05
3.8784062e-05
3.9268128e-05
4.0834644e-05
4.4498988e-05
5.0691718e-05
5.8411849e-05
6.6096641e-05
7.2416305e-05
7.6380934e-05
7.7222734e-05
7.4301401e-05
6.7064164e-05
5.5114e-05
3.8504972e-05
1.6604058e-05
3.9479271e-05
3.9993232e-05
4.1760657e-05
4.5788988e-05
5.2275027e-05
6.0078308e-05
6.7669097e-05
7.3790537e-05
7.7506497e-05
7.8084766e-05
7.4908764e-05
6.7443291e-05
5.5307746e-05
3.8570747e-05
1.6609648e-05
4.0241055e-05
4.0793203e-05
4.2778111e-05
4.716019e-05
5.3902319e-05
6.1755568e-05
6.9233584e-05
7.5148722e-05
7.8614122e-05
7.8930701e-05
7.5503421e-05
6.7813805e-05
5.549686e-05
3.8635017e-05
1.6615278e-05
4.1075443e-05
4.1674836e-05
4.38896e-05
4.8608442e-05
5.5568305e-05
6.3440437e-05
7.0788697e-05
7.6490258e-05
7.970374e-05
7.9760742e-05
7.6085624e-05
6.8175906e-05
5.5681459e-05
3.8697818e-05
1.6620943e-05
4.1988864e-05
4.2644665e-05
4.5096462e-05
5.0129005e-05
5.7267923e-05
6.5129973e-05
7.233309e-05
7.7814681e-05
8.0775541e-05
8.0575093e-05
7.6655608e-05
6.8529778e-05
5.5861649e-05
3.8759183e-05
1.662664e-05
4.298794e-05
4.3708656e-05
4.6398756e-05
5.1716722e-05
5.899636e-05
6.6821462e-05
7.3865542e-05
7.9121678e-05
8.1829659e-05
8.1373955e-05
7.7213592e-05
6.8875597e-05
5.603753e-05
3.881914e-05
1.6632367e-05
4.407921e-05
4.4871908e-05
4.7795298e-05
5.3366176e-05
6.0749099e-05
6.8512467e-05
7.5384912e-05
8.0410778e-05
8.2866144e-05
8.2157525e-05
7.7759781e-05
6.9213523e-05
5.6209195e-05
3.8877716e-05
1.663812e-05
4.5268791e-05
4.6138377e-05
4.9283747e-05
5.5071812e-05
6.2521883e-05
7.0200666e-05
7.6890099e-05
8.1681887e-05
8.3885054e-05
8.2925986e-05
7.8294369e-05
6.9543708e-05
5.6376729e-05
3.8934936e-05
1.6643896e-05
4.6562008e-05
4.7510656e-05
5.0860726e-05
5.6828051e-05
6.4310716e-05
7.1883911e-05
7.838016e-05
8.2934877e-05
8.488646e-05
8.3679506e-05
7.8817535e-05
6.9866292e-05
5.6540208e-05
3.899082e-05
1.6649692e-05
4.7963029e-05
4.8989811e-05
5.252197e-05
5.8629387e-05
6.611191e-05
7.3560229e-05
7.9854072e-05
8.4169526e-05
8.5870423e-05
8.441824e-05
7.9329445e-05
7.0181401e-05
5.6699705e-05
3.9045387e-05
1.6655505e-05
4.947452e-05
5.0575295e-05
5.4262471e-05
6.0470411e-05
6.7921913e-05
7.5227661e-05
8.1311347e-05
8.5385652e-05
8.6836994e-05
8.514233e-05
7.9830251e-05
7.0489154e-05
5.6855283e-05
3.9098654e-05
1.6661331e-05
5.109738e-05
5.2264932e-05
5.6076645e-05
6.2345915e-05
6.973746e-05
7.6884252e-05
8.2751359e-05
8.6583079e-05
8.7786215e-05
8.5851901e-05
8.0320088e-05
7.0789657e-05
5.7007001e-05
3.9150635e-05
1.6667168e-05
5.283056e-05
5.4054968e-05
5.795844e-05
6.4250797e-05
7.1555319e-05
7.8528609e-05
8.4173499e-05
8.7761632e-05
8.8718112e-05
8.6547063e-05
8.0799079e-05
7.1083004e-05
5.7154908e-05
3.9201341e-05
1.6673012e-05
5.4671003e-05
5.594019e-05
5.99015e-05
6.6180164e-05
7.3372257e-05
8.0159438e-05
8.5577191e-05
8.8921129e-05
8.9632699e-05
8.722791e-05
8.1267331e-05
7.1369279e-05
5.7299051e-05
3.9250781e-05
1.6678861e-05
5.6613678e-05
5.7914062e-05
6.189916e-05
6.812909e-05
7.5185697e-05
8.1775477e-05
8.6961874e-05
9.0061383e-05
9.0529972e-05
8.7894516e-05
8.1724937e-05
7.1648556e-05
5.7439466e-05
3.9298962e-05
1.6684711e-05
5.8651742e-05
5.9968916e-05
6.3944542e-05
7.0092773e-05
7.6993264e-05
8.3375526e-05
8.8327004e-05
9.1182194e-05
9.1409907e-05
8.8546938e-05
8.2171974e-05
7.1920897e-05
5.7576188e-05
3.934589e-05
1.669056e-05
6.0776717e-05
6.2096025e-05
6.6030491e-05
7.2067044e-05
7.87927e-05
8.4958438e-05
8.9672039e-05
9.228335e-05
9.2272465e-05
8.9185214e-05
8.2608501e-05
7.2186352e-05
5.770924e-05
3.9391566e-05
1.6696404e-05
6.2978693e-05
6.4285978e-05
6.8150168e-05
7.4047887e-05
8.0581852e-05
8.6523102e-05
9.0996442e-05
9.3364623e-05
9.311758e-05
8.9809361e-05
8.3034563e-05
7.2444961e-05
5.7838643e-05
3.943599e-05
1.6702239e-05
6.5246799e-05
6.6528964e-05
7.0296778e-05
7.6031426e-05
8.2358657e-05
8.8068446e-05
9.2299672e-05
9.4425766e-05
9.3945171e-05
9.0419376e-05
8.345019e-05
7.2696752e-05
5.7964409e-05
3.9479159e-05
1.6708063e-05
6.7569579e-05
6.8814957e-05
7.2463615e-05
7.8013913e-05
8.412113e-05
8.9593423e-05
9.3581185e-05
9.5466515e-05
9.4755128e-05
9.1015235e-05
8.3855392e-05
7.2941741e-05
5.8086544e-05
3.952107e-05
1.6713873e-05
6.993535e-05
7.1133919e-05
7.4644099e-05
7.9991714e-05
8.5867354e-05
9.1097008e-05
9.4840432e-05
9.6486587e-05
9.5547324e-05
9.1596896e-05
8.4250165e-05
7.3179934e-05
5.8205048e-05
3.9561715e-05
1.6719665e-05
7.2332513e-05
7.3475975e-05
7.6831806e-05
8.1961308e-05
8.7595471e-05
9.2578195e-05
9.6076855e-05
9.748568e-05
9.6321606e-05
9.2164291e-05
8.4634487e-05
7.3411324e-05
5.8319914e-05
3.9601083e-05
1.6725435e-05
7.4749816e-05
7.5831577e-05
7.9020516e-05
8.3919275e-05
8.9303674e-05
9.4035998e-05
9.7289894e-05
9.8463474e-05
9.7077802e-05
9.2717336e-05
8.500832e-05
7.3635893e-05
5.8431129e-05
3.9639164e-05
1.6731181e-05
7.717656e-05
7.8191626e-05
8.1204245e-05
8.5862306e-05
9.0990206e-05
9.5469444e-05
9.8478982e-05
9.9419634e-05
9.7815717e-05
9.3255925e-05
8.5371609e-05
7.3853611e-05
5.8538673e-05
3.9675941e-05
1.6736897e-05
7.960275e-05
8.0547577e-05
8.3377284e-05
8.77872e-05
9.2653358e-05
9.687758e-05
9.9643552e-05
0.00010035381
9.8535139e-05
9.3779934e-05
8.5724284e-05
7.4064438e-05
5.8642519e-05
3.97114e-05
1.6742581e-05
8.20192e-05
8.2891507e-05
8.5534234e-05
8.9690877e-05
9.4291468e-05
9.825947e-05
0.00010078304
0.00010126564
9.9235842e-05
9.4289224e-05
8.6066263e-05
7.4268323e-05
5.8742636e-05
3.9745519e-05
1.6748228e-05
8.4417582e-05
8.521617e-05
8.7670036e-05
9.1570388e-05
9.5902929e-05
9.9614202e-05
0.00010189687
0.00010215477
9.9917582e-05
9.4783639e-05
8.6397445e-05
7.4465204e-05
5.8838985e-05
3.9778277e-05
1.6753834e-05
8.6790452e-05
8.7515009e-05
8.9779991e-05
9.3422929e-05
9.7486189e-05
0.00010094089
0.00010298451
0.00010302082
0.00010058011
9.526301e-05
8.6717723e-05
7.4655011e-05
5.8931521e-05
3.9809651e-05
1.6759394e-05
8.9131235e-05
8.9782171e-05
9.1859786e-05
9.5245851e-05
9.9039763e-05
0.00010223868
0.00010404542
0.00010386343
0.00010122317
9.572716e-05
8.7026975e-05
7.4837666e-05
5.9020197e-05
3.9839614e-05
1.6764905e-05
9.1434197e-05
9.2012484e-05
9.3905498e-05
9.7036677e-05
0.00010056224
0.00010350676
0.00010507907
0.00010468224
0.00010184651
9.6175906e-05
8.7325075e-05
7.5013083e-05
5.9104959e-05
3.986814e-05
1.6770361e-05
9.36944e-05
9.4201441e-05
9.59136e-05
9.8793111e-05
0.00010205228
0.00010474435
0.00010608498
0.0001054769
0.00010244987
9.660906e-05
8.7611889e-05
7.5181172e-05
5.9185749e-05
3.98952e-05
1.6775757e-05
9.5907643e-05
9.6345158e-05
9.7880963e-05
0.00010051305
0.00010350864
0.00010595072
0.00010706269
0.0001062471
0.000103033
9.7026438e-05
8.7887281e-05
7.5341839e-05
5.9262509e-05
3.9920762e-05
1.6781088e-05
9.8070404e-05
9.844034e-05
9.9804842e-05
0.00010219458
0.00010493017
0.0001071252
0.00010801177
0.00010699252
0.00010359568
9.7427858e-05
8.8151115e-05
7.5494986e-05
5.9335178e-05
3.9944798e-05
1.6786349e-05
0.00010017978
0.00010048423
0.00010168287
0.00010383601
0.00010631582
0.00010826719
0.00010893184
0.0001077129
0.00010413769
9.7813148e-05
8.8403258e-05
7.5640519e-05
5.9403694e-05
3.9967276e-05
1.6791535e-05
0.00010223342
0.00010247458
0.00010351302
0.00010543582
0.00010766465
0.00010937613
0.00010982255
0.000108408
0.00010465883
9.818215e-05
8.8643584e-05
7.5778344e-05
5.9467995e-05
3.9988166e-05
1.6796639e-05
0.00010422947
0.00010440957
0.00010529363
0.00010699273
0.00010897584
0.00011045155
0.00011068363
0.0001090776
0.00010515894
9.8534721e-05
8.8871975e-05
7.5908371e-05
5.9528024e-05
4.0007439e-05
1.6801657e-05
0.00010616653
0.0001062878
0.00010702334
0.00010850564
0.00011024867
0.00011149303
0.00011151484
0.00010972155
0.00010563789
9.887074e-05
8.9088327e-05
7.6030518e-05
5.9583724e-05
4.0025067e-05
1.6806581e-05
0.00010804356
0.00010810823
0.00010870108
0.00010997365
0.00011148254
0.00011250024
0.00011231598
0.00011033972
0.00010609556
9.9190107e-05
8.929255e-05
7.6144713e-05
5.9635046e-05
4.0041023e-05
1.6811408e-05
0.0001098599
0.00010987016
0.00011032606
0.00011139603
0.00011267697
0.00011347293
0.00011308694
0.00011093204
0.00010653189
9.9492752e-05
8.9484572e-05
7.6250892e-05
5.9681944e-05
4.0055287e-05
1.6816131e-05
0.00011161517
0.00011157315
0.00011189772
0.00011277226
0.00011383159
0.0001144109
0.00011382765
0.00011149848
0.00010694686
9.9778633e-05
8.9664343e-05
7.6349007e-05
5.9724383e-05
4.0067836e-05
1.6820744e-05
0.00011330925
0.00011321703
0.00011341574
0.00011410195
0.00011494614
0.00011531407
0.00011453809
0.00011203906
0.00010734047
0.00010004774
8.9831834e-05
7.6439025e-05
5.9762333e-05
4.0078658e-05
1.6825242e-05
0.00011494226
0.00011480185
0.00011488
0.00011538491
0.00011602048
0.00011618239
0.00011521832
0.00011255386
0.00010771278
0.00010030009
8.9987041e-05
7.6520927e-05
5.9795776e-05
4.0087739e-05
1.6829619e-05
0.00011651451
0.00011632786
0.00011629056
0.00011662106
0.00011705457
0.00011701591
0.00011586845
0.00011304298
0.00010806387
0.00010053574
9.0129987e-05
7.6594714e-05
5.9824706e-05
4.0095075e-05
1.6833871e-05
0.00011802649
0.00011779546
0.00011764764
0.00011781048
0.00011804846
0.00011781474
0.00011648863
0.0001135066
0.0001083939
0.00010075479
9.0260722e-05
7.6660407e-05
5.9849127e-05
4.0100664e-05
1.6837992e-05
0.00011947882
0.00011920521
0.00011895161
0.00011895336
0.00011900231
0.00011857908
0.00011707908
0.00011394494
0.00010870302
0.00010095736
9.0379323e-05
7.6718046e-05
5.9869055e-05
4.0104512e-05
1.6841978e-05
0.00012087227
0.00012055781
0.00012020297
0.00012005002
0.00011991636
0.00011930918
0.00011764008
0.00011435824
0.00010899147
0.00010114361
9.0485896e-05
7.6767691e-05
5.9884522e-05
4.0106629e-05
1.6845825e-05
0.00012220771
0.00012185406
0.00012140232
0.00012110087
0.00012079093
0.00012000534
0.00011817195
0.00011474682
0.0001092595
0.00010131375
9.0580574e-05
7.6809423e-05
5.9895569e-05
4.0107033e-05
1.6849529e-05
0.00012348609
0.00012309484
0.00012255037
0.00012210642
0.00012162642
0.00012066795
0.00011867505
0.00011511102
0.00010950741
0.00010146798
9.0663519e-05
7.6843346e-05
5.9902254e-05
4.0105748e-05
1.6853086e-05
0.00012470844
0.00012428113
0.00012364792
0.00012306725
0.00012242331
0.00012129744
0.00011914981
0.00011545123
0.00010973552
0.00010160659
9.073492e-05
7.6869581e-05
5.9904646e-05
4.0102801e-05
1.6856493e-05
0.00012587588
0.00012541397
0.00012469583
0.00012398404
0.00012318212
0.00012189429
0.00011959667
0.00011576786
0.0001099442
0.00010172986
9.0794991e-05
7.6888273e-05
5.990283e-05
4.0098231e-05
1.6859748e-05
0.00012698956
0.00012649446
0.00012569505
0.00012485752
0.00012390346
0.00012245902
0.00012001613
0.00011606137
0.00011013385
0.00010183811
9.0843972e-05
7.6899584e-05
5.98969e-05
4.0092076e-05
1.686285e-05
0.00012805068
0.00012752375
0.00012664654
0.00012568847
0.00012458796
0.00012299221
0.00012040872
0.00011633225
0.00011030489
0.00010193169
9.0882126e-05
7.6903695e-05
5.9886966e-05
4.0084386e-05
1.6865796e-05
0.00012906048
0.00012850302
0.00012755136
0.00012647775
0.00012523633
0.00012349446
0.00012077501
0.00011658101
0.00011045777
0.00010201098
9.0909737e-05
7.6900804e-05
5.9873146e-05
4.0075211e-05
1.6868586e-05
0.00013002023
0.00012943348
0.00012841057
0.00012722623
0.00012584929
0.00012396644
0.00012111559
0.0001168082
0.00011059298
0.00010207635
9.092711e-05
7.6891126e-05
5.9855571e-05
4.0064609e-05
1.6871219e-05
0.00013093122
0.00013031638
0.00012922528
0.00012793484
0.00012642763
0.0001244088
0.00012143107
0.00011701437
0.00011071099
0.00010212824
9.0934569e-05
7.6874891e-05
5.9834382e-05
4.0052641e-05
1.6873695e-05
0.00013179475
0.00013115298
0.00012999661
0.00012860453
0.00012697213
0.00012482226
0.0001217221
0.00011720011
0.00011081234
0.00010216707
9.0932451e-05
7.685234e-05
5.9809727e-05
4.0039373e-05
1.6876015e-05
0.00013261214
0.00013194455
0.00013072572
0.00012923628
0.00012748364
0.00012520754
0.00012198933
0.00011736602
0.00011089755
0.0001021933