/*--------------------------------*- C++ -*----------------------------------*\
| =========                 |                                                 |
| \\      /  F ield         | OpenFOAM: The Open Source CFD Toolbox           |
|  \\    /   O peration     | Version:  2506                                  |
|   \\  /    A nd           | Website:  www.openfoam.com                      |
|    \\/     M anipulation  |                                                 |
\*---------------------------------------------------------------------------*/
FoamFile
{
    version     2.0;
    format      ascii;
    arch        "LSB;label=32;scalar=64";
    class       volScalarField;
    location    "4000/water";
    object      T;
}
// * * * * * * * * * * * * * * * * * * * * * * * * * * * * * * * * * * * * * //

dimensions      [0 0 0 1 0 0 0];

internalField   nonuniform List<scalar> 
6000
(
333.15
333.15
333.15
333.15
333.15
333.15
333.15
333.15
333.15
333.15
333.15
333.14998
333.14989
333.14924
333.14251
333.15
333.15
333.15
333.15
333.15
333.15
333.15
333.15
333.15
333.15
333.14999
333.14994
333.14968
333.14815
333.13656
333.15
333.15
333.15
333.15
333.15
333.15
333.15
333.15
333.15
333.14999
333.14997
333.14987
333.14939
333.14686
333.13156
333.15
333.15
333.15
333.15
333.15
333.15
333.15
333.15
333.15
333.14999
333.14994
333.14976
333.14902
333.14543
333.12717
333.15
333.15
333.15
333.15
333.15
333.15
333.15
333.15
333.14999
333.14997
333.1499
333.14963
333.14859
333.1439
333.12322
333.15
333.15
333.15
333.15
333.15
333.15
333.15
333.15
333.14999
333.14996
333.14985
333.14947
333.14811
333.14229
333.11961
333.15
333.15
333.15
333.15
333.15
333.15
333.15
333.14999
333.14998
333.14993
333.14978
333.14928
333.14758
333.14062
333.11628
333.15
333.15
333.15
333.15
333.15
333.15
333.15
333.14999
333.14997
333.14991
333.1497
333.14908
333.147
333.13892
333.11318
333.15
333.15
333.15
333.15
333.15
333.15
333.15
333.14999
333.14996
333.14987
333.14961
333.14885
333.14639
333.1372
333.11028
333.15
333.15
333.15
333.15
333.15
333.15
333.14999
333.14998
333.14994
333.14983
333.14951
333.1486
333.14573
333.13546
333.10756
333.15
333.15
333.15
333.15
333.15
333.15
333.14999
333.14997
333.14992
333.14978
333.1494
333.14834
333.14503
333.13372
333.10501
333.15
333.15
333.15
333.15
333.15
333.15
333.14999
333.14997
333.1499
333.14973
333.14928
333.14805
333.14429
333.13198
333.10261
333.15
333.15
333.15
333.15
333.15
333.14999
333.14998
333.14996
333.14988
333.14967
333.14914
333.14774
333.14351
333.13025
333.10035
333.15
333.15
333.15
333.15
333.15
333.14999
333.14998
333.14994
333.14985
333.1496
333.149
333.14741
333.14269
333.12854
333.09824
333.15
333.15
333.15
333.15
333.15
333.14999
333.14997
333.14993
333.14982
333.14953
333.14884
333.14706
333.14182
333.12686
333.09626
333.15
333.15
333.15
333.15
333.15
333.14999
333.14997
333.14991
333.14978
333.14946
333.14868
333.14668
333.14091
333.1252
333.09441
333.15
333.15
333.15
333.15
333.14999
333.14998
333.14996
333.1499
333.14974
333.14937
333.1485
333.14628
333.13995
333.12359
333.0927
333.15
333.15
333.15
333.15
333.14999
333.14998
333.14995
333.14987
333.1497
333.14928
333.14831
333.14585
333.13895
333.12202
333.09111
333.15
333.15
333.15
333.15
333.14999
333.14998
333.14994
333.14985
333.14965
333.14919
333.14811
333.14538
333.1379
333.12049
333.08965
333.15
333.15
333.15
333.14999
333.14999
333.14997
333.14993
333.14983
333.1496
333.14908
333.14789
333.14488
333.13682
333.11902
333.0883
333.15
333.15
333.15
333.14999
333.14999
333.14997
333.14992
333.1498
333.14954
333.14897
333.14766
333.14434
333.1357
333.1176
333.08706
333.15
333.15
333.15
333.14999
333.14998
333.14996
333.1499
333.14977
333.14948
333.14885
333.14741
333.14376
333.13455
333.11625
333.08593
333.15
333.15
333.15
333.14999
333.14998
333.14995
333.14989
333.14974
333.14942
333.14873
333.14713
333.14314
333.13339
333.11495
333.08489
333.15
333.15
333.14999
333.14999
333.14998
333.14994
333.14987
333.1497
333.14935
333.14859
333.14684
333.14247
333.13221
333.11372
333.08394
333.15
333.15
333.14999
333.14999
333.14997
333.14993
333.14985
333.14967
333.14928
333.14844
333.14652
333.14176
333.13103
333.11255
333.08307
333.15
333.15
333.14999
333.14998
333.14997
333.14992
333.14983
333.14963
333.1492
333.14828
333.14617
333.14101
333.12986
333.11144
333.08228
333.15
333.15
333.14999
333.14998
333.14996
333.14991
333.14981
333.14958
333.14912
333.14811
333.1458
333.14023
333.12871
333.11039
333.08154
333.15
333.14999
333.14999
333.14998
333.14995
333.1499
333.14978
333.14954
333.14903
333.14793
333.14539
333.1394
333.12757
333.10939
333.08086
333.15
333.14999
333.14999
333.14998
333.14995
333.14989
333.14976
333.14949
333.14893
333.14773
333.14495
333.13855
333.12646
333.10845
333.08023
333.14999
333.14999
333.14999
333.14997
333.14994
333.14987
333.14973
333.14943
333.14882
333.14751
333.14448
333.13767
333.12539
333.10755
333.07965
333.14999
333.14999
333.14998
333.14997
333.14993
333.14986
333.1497
333.14937
333.14871
333.14727
333.14397
333.13677
333.12435
333.1067
333.0791
333.14999
333.14999
333.14998
333.14996
333.14992
333.14984
333.14967
333.14931
333.14859
333.14702
333.14342
333.13586
333.12334
333.10589
333.07859
333.14999
333.14999
333.14998
333.14996
333.14991
333.14982
333.14963
333.14925
333.14846
333.14674
333.14284
333.13494
333.12237
333.10512
333.07811
333.14999
333.14999
333.14998
333.14995
333.1499
333.1498
333.14959
333.14917
333.14831
333.14643
333.14223
333.13403
333.12144
333.10439
333.07766
333.14999
333.14998
333.14997
333.14995
333.14989
333.14978
333.14955
333.1491
333.14816
333.1461
333.14159
333.13312
333.12054
333.10369
333.07723
333.14999
333.14998
333.14997
333.14994
333.14988
333.14976
333.14951
333.14901
333.14799
333.14575
333.14092
333.13222
333.11968
333.10302
333.07682
333.14999
333.14998
333.14997
333.14993
333.14987
333.14973
333.14946
333.14892
333.1478
333.14536
333.14023
333.13134
333.11885
333.10238
333.07643
333.14998
333.14998
333.14996
333.14993
333.14985
333.1497
333.14941
333.14882
333.1476
333.14495
333.13952
333.13047
333.11806
333.10177
333.07606
333.14998
333.14997
333.14996
333.14992
333.14984
333.14967
333.14936
333.14872
333.14739
333.14451
333.1388
333.12963
333.11729
333.10118
333.0757
333.14998
333.14997
333.14995
333.14991
333.14982
333.14964
333.1493
333.1486
333.14715
333.14404
333.13806
333.1288
333.11655
333.10062
333.07535
333.14998
333.14997
333.14995
333.1499
333.1498
333.14961
333.14923
333.14848
333.1469
333.14355
333.13733
333.12799
333.11584
333.10008
333.07502
333.14997
333.14996
333.14994
333.14989
333.14978
333.14957
333.14917
333.14834
333.14662
333.14303
333.13658
333.12721
333.11516
333.09955
333.0747
333.14997
333.14996
333.14993
333.14987
333.14976
333.14953
333.14909
333.1482
333.14632
333.14249
333.13585
333.12644
333.1145
333.09905
333.07439
333.14997
333.14996
333.14993
333.14986
333.14974
333.14949
333.14901
333.14804
333.146
333.14193
333.13511
333.1257
333.11386
333.09856
333.07409
333.14996
333.14995
333.14992
333.14985
333.14971
333.14945
333.14892
333.14786
333.14565
333.14135
333.13438
333.12498
333.11324
333.09809
333.0738
333.14996
333.14994
333.14991
333.14983
333.14969
333.1494
333.14883
333.14767
333.14529
333.14076
333.13366
333.12428
333.11265
333.09763
333.07351
333.14995
333.14994
333.1499
333.14982
333.14966
333.14934
333.14873
333.14747
333.1449
333.14015
333.13296
333.1236
333.11207
333.09719
333.07323
333.14995
333.14993
333.14989
333.1498
333.14963
333.14929
333.14861
333.14725
333.14448
333.13954
333.13226
333.12294
333.11151
333.09676
333.07296
333.14994
333.14993
333.14988
333.14978
333.14959
333.14922
333.14849
333.14701
333.14405
333.13892
333.13157
333.1223
333.11097
333.09634
333.0727
333.14994
333.14992
333.14987
333.14976
333.14956
333.14915
333.14836
333.14675
333.1436
333.1383
333.1309
333.12167
333.11044
333.09594
333.07244
333.14993
333.14991
333.14985
333.14974
333.14952
333.14908
333.14822
333.14647
333.14313
333.13768
333.13024
333.12106
333.10993
333.09554
333.07219
333.14992
333.1499
333.14984
333.14972
333.14947
333.149
333.14806
333.14617
333.14264
333.13705
333.12959
333.12047
333.10943
333.09516
333.07195
333.14992
333.14989
333.14983
333.14969
333.14943
333.14891
333.14789
333.14586
333.14214
333.13643
333.12896
333.11989
333.10895
333.09478
333.0717
333.14991
333.14988
333.14981
333.14966
333.14938
333.14882
333.14771
333.14552
333.14163
333.13582
333.12834
333.11933
333.10848
333.09442
333.07147
333.1499
333.14987
333.14979
333.14963
333.14932
333.14872
333.14751
333.14517
333.14111
333.13521
333.12773
333.11878
333.10802
333.09406
333.07123
333.14989
333.14986
333.14977
333.1496
333.14926
333.1486
333.1473
333.1448
333.14058
333.1346
333.12713
333.11825
333.10757
333.09371
333.07101
333.14988
333.14984
333.14975
333.14956
333.1492
333.14848
333.14707
333.14441
333.14004
333.134
333.12655
333.11773
333.10713
333.09337
333.07078
333.14987
333.14983
333.14973
333.14953
333.14913
333.14835
333.14682
333.144
333.1395
333.13341
333.12598
333.11722
333.10671
333.09303
333.07056
333.14986
333.14981
333.14971
333.14948
333.14905
333.14821
333.14656
333.14358
333.13896
333.13283
333.12542
333.11672
333.10629
333.09271
333.07034
333.14984
333.1498
333.14968
333.14944
333.14897
333.14805
333.14628
333.14315
333.13841
333.13225
333.12487
333.11624
333.10588
333.09238
333.07013
333.14983
333.14978
333.14965
333.14939
333.14888
333.14789
333.14598
333.1427
333.13787
333.13169
333.12434
333.11576
333.10548
333.09207
333.06992
333.14981
333.14976
333.14962
333.14934
333.14878
333.14771
333.14567
333.14224
333.13733
333.13113
333.12381
333.11529
333.10509
333.09176
333.06971
333.1498
333.14974
333.14959
333.14928
333.14868
333.14751
333.14534
333.14178
333.13679
333.13058
333.1233
333.11484
333.1047
333.09146
333.0695
333.14978
333.14971
333.14955
333.14922
333.14856
333.1473
333.145
333.14131
333.13625
333.13004
333.12279
333.11439
333.10433
333.09116
333.0693
333.14976
333.14969
333.14951
333.14915
333.14844
333.14708
333.14464
333.14083
333.13571
333.1295
333.12229
333.11395
333.10396
333.09086
333.0691
333.14974
333.14966
333.14947
333.14907
333.1483
333.14684
333.14426
333.14034
333.13518
333.12898
333.12181
333.11353
333.1036
333.09057
333.0689
333.14971
333.14963
333.14942
333.14899
333.14815
333.14658
333.14387
333.13986
333.13466
333.12846
333.12133
333.11311
333.10324
333.09029
333.0687
333.14969
333.1496
333.14937
333.1489
333.148
333.14631
333.14348
333.13937
333.13413
333.12795
333.12086
333.11269
333.10289
333.09001
333.06851
333.14966
333.14956
333.14931
333.1488
333.14782
333.14602
333.14307
333.13888
333.13362
333.12745
333.1204
333.11229
333.10255
333.08973
333.06832
333.14963
333.14952
333.14925
333.1487
333.14764
333.14572
333.14265
333.13838
333.13311
333.12696
333.11995
333.11189
333.10221
333.08946
333.06812
333.14959
333.14948
333.14918
333.14858
333.14744
333.14541
333.14222
333.13789
333.1326
333.12647
333.11951
333.1115
333.10187
333.08919
333.06794
333.14956
333.14943
333.14911
333.14846
333.14723
333.14508
333.14179
333.1374
333.1321
333.126
333.11907
333.11111
333.10155
333.08892
333.06775
333.14952
333.14938
333.14903
333.14833
333.147
333.14474
333.14135
333.13691
333.1316
333.12553
333.11864
333.11073
333.10122
333.08866
333.06756
333.14947
333.14933
333.14894
333.14818
333.14676
333.14438
333.1409
333.13642
333.13112
333.12506
333.11822
333.11036
333.10091
333.0884
333.06737
333.14942
333.14926
333.14885
333.14802
333.1465
333.14401
333.14045
333.13594
333.13063
333.1246
333.1178
333.10999
333.10059
333.08815
333.06719
333.14937
333.1492
333.14875
333.14785
333.14623
333.14363
333.14
333.13546
333.13015
333.12415
333.11739
333.10963
333.10028
333.0879
333.06701
333.14931
333.14912
333.14863
333.14767
333.14595
333.14325
333.13954
333.13498
333.12968
333.12371
333.11699
333.10927
333.09998
333.08765
333.06682
333.14925
333.14904
333.14851
333.14747
333.14565
333.14285
333.13909
333.1345
333.12922
333.12327
333.11659
333.10892
333.09968
333.0874
333.06664
333.14918
333.14896
333.14838
333.14726
333.14534
333.14245
333.13863
333.13403
333.12876
333.12284
333.1162
333.10858
333.09938
333.08715
333.06646
333.1491
333.14886
333.14823
333.14703
333.14501
333.14203
333.13817
333.13356
333.1283
333.12242
333.11581
333.10823
333.09909
333.08691
333.06628
333.14902
333.14875
333.14808
333.14679
333.14467
333.14162
333.13771
333.13309
333.12785
333.122
333.11543
333.1079
333.0988
333.08667
333.0661
333.14893
333.14864
333.14791
333.14654
333.14432
333.14119
333.13725
333.13263
333.1274
333.12158
333.11506
333.10757
333.09851
333.08643
333.06592
333.14883
333.14851
333.14772
333.14627
333.14396
333.14077
333.13679
333.13217
333.12696
333.12117
333.11469
333.10724
333.09823
333.08619
333.06574
333.14871
333.14837
333.14753
333.14598
333.14359
333.14034
333.13634
333.13171
333.12653
333.12077
333.11432
333.10691
333.09794
333.08596
333.06557
333.14859
333.14822
333.14731
333.14569
333.14321
333.1399
333.13588
333.13126
333.1261
333.12037
333.11396
333.10659
333.09767
333.08573
333.06539
333.14846
333.14806
333.14709
333.14537
333.14282
333.13946
333.13543
333.13081
333.12567
333.11997
333.1136
333.10627
333.09739
333.08549
333.06521
333.14831
333.14788
333.14684
333.14505
333.14242
333.13902
333.13498
333.13037
333.12525
333.11958
333.11325
333.10596
333.09712
333.08526
333.06503
333.14814
333.14769
333.14658
333.14471
333.14202
333.13858
333.13452
333.12993
333.12483
333.1192
333.1129
333.10565
333.09685
333.08504
333.06486
333.14797
333.14748
333.14631
333.14436
333.14161
333.13814
333.13408
333.12949
333.12442
333.11882
333.11255
333.10534
333.09658
333.08481
333.06468
333.14777
333.14725
333.14602
333.144
333.14119
333.1377
333.13363
333.12906
333.12401
333.11844
333.11221
333.10504
333.09631
333.08458
333.0645
333.14756
333.14701
333.14571
333.14362
333.14077
333.13725
333.13318
333.12863
333.12361
333.11807
333.11188
333.10474
333.09605
333.08436
333.06433
333.14733
333.14675
333.14539
333.14324
333.14034
333.13681
333.13274
333.12821
333.12321
333.1177
333.11154
333.10444
333.09579
333.08414
333.06415
333.14708
333.14647
333.14505
333.14285
333.13991
333.13636
333.1323
333.12778
333.12281
333.11734
333.11121
333.10414
333.09553
333.08391
333.06397
333.14681
333.14617
333.1447
333.14244
333.13948
333.13592
333.13186
333.12736
333.12242
333.11698
333.11088
333.10385
333.09527
333.08369
333.0638
333.14652
333.14585
333.14433
333.14203
333.13904
333.13547
333.13143
333.12695
333.12203
333.11662
333.11056
333.10356
333.09501
333.08347
333.06362
333.14621
333.14551
333.14395
333.14161
333.1386
333.13503
333.13099
333.12654
333.12165
333.11627
333.11024
333.10327
333.09476
333.08325
333.06344
333.14588
333.14515
333.14356
333.14118
333.13815
333.13458
333.13056
333.12613
333.12127
333.11591
333.10992
333.10298
333.09451
333.08303
333.06326
333.14552
333.14478
333.14315
333.14075
333.1377
333.13414
333.13014
333.12572
333.12089
333.11557
333.1096
333.1027
333.09425
333.08281
333.06309
333.14515
333.14438
333.14273
333.1403
333.13726
333.1337
333.12971
333.12532
333.12052
333.11522
333.10929
333.10242
333.094
333.0826
333.06291
333.14475
333.14397
333.14229
333.13986
333.1368
333.13326
333.12929
333.12492
333.12014
333.11488
333.10898
333.10214
333.09375
333.08238
333.06273
333.14433
333.14355
333.14185
333.1394
333.13635
333.13281
333.12886
333.12452
333.11977
333.11454
333.10867
333.10186
333.0935
333.08216
333.06255
333.1439
333.1431
333.14139
333.13894
333.1359
333.13237
333.12844
333.12413
333.11941
333.1142
333.10836
333.10158
333.09326
333.08194
333.06237
333.14344
333.14264
333.14093
333.13848
333.13544
333.13193
333.12803
333.12374
333.11904
333.11387
333.10805
333.10131
333.09301
333.08173
333.06219
333.14297
333.14217
333.14045
333.13801
333.13498
333.1315
333.12761
333.12335
333.11868
333.11354
333.10775
333.10103
333.09277
333.08151
333.06201
333.14248
333.14168
333.13997
333.13753
333.13452
333.13106
333.1272
333.12296
333.11832
333.11321
333.10745
333.10076
333.09252
333.0813
333.06183
333.14198
333.14118
333.13948
333.13706
333.13406
333.13062
333.12678
333.12258
333.11797
333.11288
333.10715
333.10049
333.09228
333.08108
333.06165
333.14146
333.14067
333.13898
333.13657
333.1336
333.13018
333.12637
333.12219
333.11761
333.11255
333.10685
333.10022
333.09203
333.08087
333.06147
333.14094
333.14015
333.13847
333.13609
333.13314
333.12975
333.12596
333.12181
333.11726
333.11223
333.10656
333.09995
333.09179
333.08065
333.06128
333.1404
333.13962
333.13796
333.1356
333.13268
333.12931
333.12556
333.12143
333.11691
333.1119
333.10626
333.09968
333.09155
333.08044
333.0611
333.13985
333.13908
333.13745
333.13511
333.13221
333.12887
333.12515
333.12105
333.11656
333.11158
333.10597
333.09941
333.09131
333.08022
333.06091
333.1393
333.13854
333.13692
333.13461
333.13175
333.12844
333.12474
333.12068
333.11621
333.11126
333.10567
333.09914
333.09107
333.08
333.06073
333.13874
333.13799
333.1364
333.13411
333.13128
333.128
333.12434
333.1203
333.11586
333.11094
333.10538
333.09888
333.09083
333.07979
333.06054
333.13817
333.13744
333.13587
333.13362
333.13081
333.12757
333.12393
333.11993
333.11552
333.11063
333.10509
333.09861
333.09059
333.07957
333.06035
333.1376
333.13688
333.13533
333.13311
333.13035
333.12713
333.12353
333.11956
333.11518
333.11031
333.1048
333.09835
333.09034
333.07936
333.06017
333.13703
333.13632
333.1348
333.13261
333.12988
333.1267
333.12313
333.11918
333.11483
333.10999
333.10451
333.09808
333.0901
333.07914
333.05998
333.13645
333.13576
333.13426
333.13211
333.12941
333.12627
333.12273
333.11881
333.11449
333.10968
333.10422
333.09782
333.08986
333.07892
333.05979
333.13588
333.13519
333.13373
333.13161
333.12894
333.12583
333.12233
333.11844
333.11415
333.10937
333.10394
333.09756
333.08962
333.0787
333.05959
333.1353
333.13463
333.13319
333.1311
333.12848
333.1254
333.12193
333.11807
333.11381
333.10905
333.10365
333.09729
333.08938
333.07848
333.0594
333.13472
333.13406
333.13265
333.1306
333.12801
333.12497
333.12153
333.11771
333.11347
333.10874
333.10336
333.09703
333.08914
333.07827
333.05921
333.13414
333.1335
333.13211
333.13009
333.12754
333.12454
333.12113
333.11734
333.11313
333.10843
333.10307
333.09676
333.0889
333.07805
333.05901
333.13357
333.13294
333.13157
333.12959
333.12707
333.1241
333.12073
333.11697
333.11279
333.10812
333.10279
333.0965
333.08866
333.07782
333.05881
333.13299
333.13237
333.13104
333.12909
333.12661
333.12367
333.12034
333.11661
333.11246
333.10781
333.1025
333.09624
333.08842
333.0776
333.05861
333.13242
333.13181
333.1305
333.12859
333.12614
333.12324
333.11994
333.11624
333.11212
333.1075
333.10221
333.09597
333.08817
333.07738
333.05841
333.13185
333.13126
333.12997
333.12808
333.12568
333.12281
333.11954
333.11588
333.11178
333.10719
333.10193
333.09571
333.08793
333.07716
333.05821
333.13128
333.1307
333.12944
333.12759
333.12521
333.12238
333.11915
333.11551
333.11145
333.10688
333.10164
333.09544
333.08768
333.07693
333.05801
333.13072
333.13015
333.12891
333.12709
333.12475
333.12196
333.11875
333.11515
333.11111
333.10657
333.10135
333.09518
333.08744
333.0767
333.0578
333.13016
333.1296
333.12838
333.12659
333.12429
333.12153
333.11836
333.11478
333.11078
333.10626
333.10107
333.09491
333.08719
333.07648
333.05759
333.1296
333.12905
333.12786
333.1261
333.12383
333.1211
333.11797
333.11442
333.11044
333.10595
333.10078
333.09465
333.08695
333.07625
333.05738
333.12905
333.12851
333.12734
333.12561
333.12337
333.12068
333.11757
333.11406
333.1101
333.10564
333.10049
333.09438
333.0867
333.07602
333.05717
333.1285
333.12797
333.12682
333.12512
333.12291
333.12026
333.11718
333.11369
333.10977
333.10533
333.10021
333.09411
333.08645
333.07579
333.05696
333.12796
333.12744
333.12631
333.12463
333.12246
333.11983
333.11679
333.11333
333.10943
333.10502
333.09992
333.09385
333.0862
333.07555
333.05674
333.12742
333.12691
333.1258
333.12415
333.122
333.11941
333.1164
333.11297
333.1091
333.1047
333.09963
333.09358
333.08595
333.07532
333.05653
333.12688
333.12638
333.12529
333.12367
333.12155
333.11899
333.11601
333.11261
333.10877
333.10439
333.09934
333.09331
333.0857
333.07508
333.05631
333.12635
333.12586
333.12479
333.12319
333.1211
333.11857
333.11562
333.11225
333.10843
333.10408
333.09905
333.09304
333.08544
333.07484
333.05608
333.12582
333.12534
333.12429
333.12271
333.12066
333.11816
333.11523
333.11189
333.1081
333.10377
333.09876
333.09277
333.08519
333.0746
333.05586
333.1253
333.12483
333.12379
333.12224
333.12021
333.11774
333.11485
333.11153
333.10776
333.10346
333.09847
333.09249
333.08493
333.07436
333.05563
333.12478
333.12432
333.1233
333.12177
333.11977
333.11733
333.11446
333.11117
333.10743
333.10315
333.09818
333.09222
333.08468
333.07412
333.0554
333.12427
333.12381
333.12281
333.1213
333.11933
333.11691
333.11408
333.11081
333.10709
333.10284
333.09789
333.09195
333.08442
333.07387
333.05517
333.12376
333.12331
333.12232
333.12084
333.11889
333.1165
333.11369
333.11046
333.10676
333.10253
333.09759
333.09167
333.08416
333.07363
333.05494
333.12326
333.12281
333.12184
333.12038
333.11846
333.11609
333.11331
333.1101
333.10643
333.10221
333.0973
333.0914
333.08389
333.07338
333.0547
333.12276
333.12232
333.12136
333.11992
333.11802
333.11569
333.11293
333.10974
333.10609
333.1019
333.09701
333.09112
333.08363
333.07313
333.05446
333.12226
333.12183
333.12089
333.11947
333.11759
333.11528
333.11255
333.10939
333.10576
333.10159
333.09671
333.09084
333.08337
333.07287
333.05422
333.12177
333.12135
333.12042
333.11902
333.11717
333.11488
333.11217
333.10903
333.10543
333.10127
333.09642
333.09056
333.0831
333.07262
333.05398
333.12129
333.12087
333.11995
333.11857
333.11674
333.11448
333.11179
333.10868
333.10509
333.10096
333.09612
333.09028
333.08283
333.07236
333.05374
333.12081
333.1204
333.11949
333.11813
333.11632
333.11408
333.11142
333.10832
333.10476
333.10065
333.09583
333.09
333.08257
333.07211
333.05349
333.12033
333.11993
333.11903
333.11769
333.1159
333.11368
333.11104
333.10797
333.10443
333.10033
333.09553
333.08972
333.08229
333.07185
333.05324
333.11986
333.11946
333.11858
333.11725
333.11548
333.11328
333.11067
333.10762
333.1041
333.10002
333.09523
333.08943
333.08202
333.07158
333.05298
333.11939
333.119
333.11813
333.11681
333.11506
333.11289
333.11029
333.10726
333.10376
333.0997
333.09493
333.08915
333.08175
333.07132
333.05273
333.11893
333.11854
333.11768
333.11638
333.11465
333.1125
333.10992
333.10691
333.10343
333.09939
333.09463
333.08886
333.08147
333.07105
333.05247
333.11847
333.11809
333.11724
333.11595
333.11424
333.1121
333.10955
333.10656
333.1031
333.09908
333.09433
333.08857
333.0812
333.07079
333.05221
333.11802
333.11764
333.1168
333.11553
333.11383
333.11172
333.10918
333.10621
333.10277
333.09876
333.09403
333.08828
333.08092
333.07052
333.05195
333.11756
333.11719
333.11636
333.1151
333.11343
333.11133
333.10881
333.10586
333.10244
333.09844
333.09373
333.088
333.08064
333.07024
333.05168
333.11712
333.11675
333.11593
333.11468
333.11302
333.11094
333.10845
333.10552
333.1021
333.09813
333.09343
333.0877
333.08036
333.06997
333.05142
333.11668
333.11631
333.1155
333.11427
333.11262
333.11056
333.10808
333.10517
333.10177
333.09781
333.09312
333.08741
333.08008
333.0697
333.05115
333.11624
333.11587
333.11507
333.11385
333.11222
333.11018
333.10772
333.10482
333.10144
333.0975
333.09282
333.08712
333.07979
333.06942
333.05088
333.1158
333.11544
333.11465
333.11344
333.11183
333.1098
333.10736
333.10448
333.10111
333.09718
333.09252
333.08683
333.07951
333.06914
333.0506
333.11537
333.11501
333.11423
333.11304
333.11143
333.10942
333.10699
333.10413
333.10078
333.09686
333.09221
333.08653
333.07922
333.06886
333.05033
333.11494
333.11459
333.11381
333.11263
333.11104
333.10905
333.10663
333.10378
333.10045
333.09655
333.09191
333.08624
333.07893
333.06858
333.05005
333.11452
333.11417
333.1134
333.11223
333.11065
333.10867
333.10627
333.10344
333.10012
333.09623
333.0916
333.08594
333.07864
333.06829
333.04977
333.1141
333.11375
333.11299
333.11183
333.11027
333.1083
333.10592
333.1031
333.09979
333.09591
333.09129
333.08564
333.07835
333.06801
333.04949
333.11368
333.11334
333.11258
333.11143
333.10988
333.10793
333.10556
333.10275
333.09946
333.09559
333.09099
333.08534
333.07806
333.06772
333.04921
333.11327
333.11293
333.11218
333.11104
333.1095
333.10756
333.1052
333.10241
333.09913
333.09528
333.09068
333.08504
333.07776
333.06743
333.04892
333.11285
333.11252
333.11178
333.11064
333.10912
333.10719
333.10485
333.10207
333.0988
333.09496
333.09037
333.08474
333.07747
333.06714
333.04863
333.11245
333.11211
333.11138
333.11026
333.10874
333.10682
333.1045
333.10173
333.09847
333.09464
333.09006
333.08444
333.07717
333.06685
333.04834
333.11204
333.11171
333.11098
333.10987
333.10836
333.10646
333.10414
333.10139
333.09815
333.09432
333.08975
333.08414
333.07688
333.06655
333.04805
333.11164
333.11131
333.11059
333.10948
333.10799
333.1061
333.10379
333.10105
333.09782
333.094
333.08944
333.08383
333.07658
333.06626
333.04776
333.11124
333.11092
333.1102
333.1091
333.10762
333.10573
333.10344
333.10071
333.09749
333.09368
333.08913
333.08353
333.07628
333.06596
333.04747
333.11085
333.11052
333.10981
333.10872
333.10724
333.10537
333.10309
333.10037
333.09716
333.09336
333.08882
333.08322
333.07598
333.06566
333.04717
333.11045
333.11013
333.10943
333.10834
333.10688
333.10502
333.10275
333.10004
333.09683
333.09304
333.0885
333.08291
333.07567
333.06536
333.04687
333.11006
333.10975
333.10904
333.10797
333.10651
333.10466
333.1024
333.0997
333.0965
333.09272
333.08819
333.08261
333.07537
333.06506
333.04657
333.10968
333.10936
333.10866
333.10759
333.10614
333.1043
333.10205
333.09936
333.09618
333.0924
333.08788
333.0823
333.07507
333.06476
333.04627
333.10929
333.10898
333.10829
333.10722
333.10578
333.10395
333.10171
333.09902
333.09585
333.09208
333.08756
333.08199
333.07476
333.06446
333.04597
333.10891
333.1086
333.10791
333.10685
333.10542
333.10359
333.10136
333.09869
333.09552
333.09176
333.08725
333.08168
333.07445
333.06415
333.04567
333.10853
333.10822
333.10754
333.10648
333.10506
333.10324
333.10102
333.09835
333.09519
333.09144
333.08693
333.08137
333.07415
333.06385
333.04536
333.10815
333.10784
333.10716
333.10612
333.1047
333.10289
333.10068
333.09802
333.09487
333.09112
333.08662
333.08106
333.07384
333.06354
333.04506
333.10778
333.10747
333.10679
333.10575
333.10434
333.10254
333.10033
333.09768
333.09454
333.0908
333.0863
333.08075
333.07353
333.06323
333.04475
333.1074
333.1071
333.10643
333.10539
333.10398
333.10219
333.09999
333.09735
333.09421
333.09048
333.08599
333.08043
333.07322
333.06292
333.04444
333.10703
333.10673
333.10606
333.10503
333.10363
333.10184
333.09965
333.09702
333.09388
333.09016
333.08567
333.08012
333.0729
333.06261
333.04413
333.10666
333.10636
333.1057
333.10467
333.10328
333.1015
333.09931
333.09668
333.09356
333.08984
333.08535
333.0798
333.07259
333.0623
333.04382
333.1063
333.106
333.10533
333.10431
333.10292
333.10115
333.09897
333.09635
333.09323
333.08951
333.08503
333.07949
333.07228
333.06199
333.04351
333.10593
333.10563
333.10497
333.10396
333.10257
333.10081
333.09864
333.09602
333.0929
333.08919
333.08471
333.07917
333.07197
333.06168
333.0432
333.10557
333.10527
333.10462
333.1036
333.10223
333.10046
333.0983
333.09569
333.09258
333.08887
333.0844
333.07886
333.07165
333.06136
333.04288
333.10521
333.10491
333.10426
333.10325
333.10188
333.10012
333.09796
333.09536
333.09225
333.08855
333.08408
333.07854
333.07134
333.06105
333.04257
333.10485
333.10455
333.1039
333.1029
333.10153
333.09978
333.09762
333.09503
333.09192
333.08822
333.08376
333.07822
333.07102
333.06073
333.04225
333.10449
333.1042
333.10355
333.10255
333.10118
333.09944
333.09729
333.09469
333.0916
333.0879
333.08344
333.0779
333.0707
333.06042
333.04194
333.10413
333.10384
333.1032
333.1022
333.10084
333.0991
333.09695
333.09436
333.09127
333.08758
333.08312
333.07759
333.07039
333.0601
333.04162
333.10378
333.10349
333.10285
333.10185
333.1005
333.09876
333.09662
333.09403
333.09094
333.08725
333.0828
333.07727
333.07007
333.05978
333.0413
333.10343
333.10314
333.1025
333.10151
333.10015
333.09842
333.09628
333.0937
333.09062
333.08693
333.08247
333.07695
333.06975
333.05946
333.04099
333.10308
333.10279
333.10215
333.10116
333.09981
333.09808
333.09595
333.09337
333.09029
333.08661
333.08215
333.07663
333.06943
333.05915
333.04067
333.10273
333.10244
333.1018
333.10082
333.09947
333.09775
333.09562
333.09304
333.08997
333.08628
333.08183
333.07631
333.06911
333.05883
333.04035
333.10238
333.10209
333.10146
333.10047
333.09913
333.09741
333.09528
333.09271
333.08964
333.08596
333.08151
333.07599
333.06879
333.05851
333.04002
333.10203
333.10175
333.10111
333.10013
333.09879
333.09708
333.09495
333.09239
333.08931
333.08564
333.08119
333.07566
333.06847
333.05818
333.0397
333.10169
333.1014
333.10077
333.09979
333.09845
333.09674
333.09462
333.09206
333.08899
333.08531
333.08086
333.07534
333.06815
333.05786
333.03938
333.10134
333.10106
333.10043
333.09945
333.09812
333.09641
333.09429
333.09173
333.08866
333.08499
333.08054
333.07502
333.06782
333.05754
333.03906
333.101
333.10071
333.10008
333.09911
333.09778
333.09607
333.09396
333.0914
333.08833
333.08466
333.08022
333.0747
333.0675
333.05722
333.03874
333.10066
333.10037
333.09974
333.09877
333.09744
333.09574
333.09363
333.09107
333.08801
333.08434
333.07989
333.07437
333.06718
333.0569
333.03841
333.10031
333.10003
333.0994
333.09844
333.09711
333.09541
333.0933
333.09074
333.08768
333.08401
333.07957
333.07405
333.06686
333.05657
333.03809
333.09997
333.09969
333.09907
333.0981
333.09678
333.09507
333.09297
333.09041
333.08735
333.08369
333.07924
333.07373
333.06653
333.05625
333.03776
333.09963
333.09935
333.09873
333.09776
333.09644
333.09474
333.09264
333.09009
333.08703
333.08336
333.07892
333.0734
333.06621
333.05592
333.03744
333.0993