/*--------------------------------*- C++ -*----------------------------------*\
| =========                 |                                                 |
| \\      /  F ield         | OpenFOAM: The Open Source CFD Toolbox           |
|  \\    /   O peration     | Version:  2506                                  |
|   \\  /    A nd           | Website:  www.openfoam.com                      |
|    \\/     M anipulation  |                                                 |
\*---------------------------------------------------------------------------*/
FoamFile
{
    version     2.0;
    format      ascii;
    arch        "LSB;label=32;scalar=64";
    class       volVectorField;
    location    "4000/water";
    object      U;
}
// * * * * * * * * * * * * * * * * * * * * * * * * * * * * * * * * * * * * * //

dimensions      [0 1 -1 0 0 0 0];

internalField   nonuniform List<vector> 
6000
(
(0.25028648 -3.4193492e-05 5.0385861e-20)
(0.25028875 -7.4648812e-05 -4.78465e-18)
(0.25029344 -0.00011804414 4.505555e-19)
(0.25030059 -0.00016540046 -6.5426995e-20)
(0.25031046 -0.00021487336 -4.5003692e-19)
(0.25032332 -0.00026685039 5.5513466e-20)
(0.25033948 -0.00032192175 7.1138967e-20)
(0.25035939 -0.00038078672 2.9515514e-20)
(0.25038356 -0.00044434477 -3.7634155e-19)
(0.25041254 -0.00051362452 2.1496735e-19)
(0.25044587 -0.00058677559 2.9963576e-19)
(0.25047643 -0.00065822056 9.6836557e-20)
(0.25046276 -0.00078466513 -4.3146728e-20)
(0.25013031 -0.0015987837 3.8464877e-20)
(0.24584996 0.0019968142 1.7020561e-19)
(0.25104035 -3.7261304e-05 2.5957728e-18)
(0.25104514 -8.9895979e-05 -3.5309453e-18)
(0.2510558 -0.00014352114 5.4176162e-21)
(0.25107219 -0.00020025424 -2.9905127e-19)
(0.2510947 -0.0002571822 2.7315411e-19)
(0.25112368 -0.00031440571 8.566168e-21)
(0.25115965 -0.00037188242 1.897623e-20)
(0.25120324 -0.00042947839 1.9620134e-19)
(0.2512551 -0.00048709454 -4.885722e-19)
(0.25131538 -0.00054561245 2.4630768e-19)
(0.25138039 -0.00060405492 3.4489467e-19)
(0.25142587 -0.00063755821 9.6540534e-20)
(0.25133175 -0.00059164843 -1.1678137e-19)
(0.25037931 -0.0014370973 -2.4682567e-20)
(0.24194277 0.00099520264 1.3060414e-19)
(0.25195051 -3.6589029e-05 -7.5595097e-19)
(0.25195563 -9.0250613e-05 2.2402729e-18)
(0.25196731 -0.00014313025 1.1311388e-18)
(0.25198528 -0.00019912655 -1.6739765e-18)
(0.25200977 -0.00025508716 8.9096721e-20)
(0.25204101 -0.0003112558 -1.0490636e-18)
(0.25207932 -0.00036762123 -1.1932648e-18)
(0.25212505 -0.00042413945 -5.2610131e-19)
(0.25217823 -0.00048056787 -6.0036314e-19)
(0.25223708 -0.0005377572 -4.5238041e-20)
(0.25229114 -0.00060007155 -2.9099294e-19)
(0.25229033 -0.00065419843 -3.7885617e-19)
(0.25200573 -0.00054460881 -4.4499871e-19)
(0.25014357 -0.0012195308 -2.1710403e-19)
(0.23758495 0.00043820543 -7.2253629e-20)
(0.25283353 -3.7446604e-05 -2.020896e-18)
(0.25283867 -9.3611088e-05 -3.7665623e-19)
(0.25285018 -0.00014906892 6.6037356e-19)
(0.25286783 -0.00020791578 -6.9139378e-19)
(0.25289182 -0.00026672308 3.3248819e-20)
(0.25292238 -0.00032582165 -7.2828074e-19)
(0.25295982 -0.00038519269 -8.7856244e-19)
(0.25300432 -0.00044485276 -8.9222244e-19)
(0.25305525 -0.00050441426 -3.6707939e-19)
(0.25310809 -0.00056332944 4.3879421e-19)
(0.25314261 -0.00062607506 -1.7184314e-19)
(0.25307635 -0.00069910336 -4.4685843e-19)
(0.25255493 -0.0005845712 -4.1940015e-19)
(0.24963188 -0.001063787 -1.3163286e-19)
(0.23320285 0.0001058672 -1.2601729e-19)
(0.25372643 -3.8342944e-05 8.8381731e-18)
(0.2537317 -9.6368691e-05 1.8588371e-18)
(0.25374347 -0.00015372841 7.0301878e-19)
(0.25376156 -0.00021453144 1.6643209e-18)
(0.25378616 -0.00027516439 4.1070424e-19)
(0.25381749 -0.00033599427 4.7282036e-19)
(0.25385581 -0.00039694563 2.852495e-19)
(0.25390101 -0.00045805575 -1.0528115e-19)
(0.25395133 -0.00051907431 -4.9671217e-20)
(0.25399821 -0.00057855465 3.0987809e-19)
(0.25400834 -0.00063773998 1.4898503e-19)
(0.25386022 -0.0007177221 -1.006817e-19)
(0.25305737 -0.00062191547 -1.3652013e-19)
(0.24895451 -0.00093835859 -1.5319545e-20)
(0.22897365 -8.3792337e-05 6.3342295e-20)
(0.25464474 -3.8661619e-05 3.1749909e-18)
(0.25465014 -9.7320118e-05 2.5957979e-19)
(0.2546622 -0.00015516462 1.7891474e-18)
(0.25468073 -0.00021648308 1.0461463e-18)
(0.2547059 -0.00027758564 -4.1058386e-19)
(0.25473792 -0.000338881 3.0185078e-19)
(0.25477689 -0.00040025681 7.5569093e-20)
(0.25482222 -0.000461728 7.3735492e-21)
(0.25487049 -0.00052322808 -1.3458932e-19)
(0.2549078 -0.000583188 7.8911549e-20)
(0.25488519 -0.00063896641 1.6065187e-19)
(0.25463685 -0.00071821651 -3.1374625e-20)
(0.25350729 -0.0006469875 -3.86449e-20)
(0.248129 -0.00083894719 -7.9740563e-20)
(0.2249409 -0.00018589273 1.3121211e-19)
(0.25557031 -3.8595293e-05 -2.288496e-18)
(0.25557581 -9.7309346e-05 -2.5386319e-18)
(0.25558805 -0.00015511982 8.5666399e-23)
(0.25560682 -0.00021642526 3.0863327e-19)
(0.2556323 -0.00027749359 -1.0591357e-18)
(0.25566463 -0.00033876345 1.1863121e-19)
(0.25570371 -0.00040009734 1.4464958e-19)
(0.25574825 -0.00046144626 -1.3240699e-19)
(0.25579256 -0.00052279714 2.2438729e-20)
(0.25581623 -0.0005828814 -7.3380406e-20)
(0.25575267 -0.00063600478 7.5764655e-20)
(0.25538743 -0.00071016267 1.0889699e-19)
(0.25388915 -0.00066107344 -1.7092606e-20)
(0.24716598 -0.00076077854 -1.0172139e-20)
(0.22112141 -0.00023459296 1.2883946e-19)
(0.25649134 -3.8297106e-05 2.0522144e-18)
(0.25649692 -9.6712128e-05 1.0638832e-18)
(0.25650928 -0.00015419069 9.7374678e-19)
(0.25652824 -0.00021515485 1.0296649e-18)
(0.25655393 -0.00027585718 -3.4077458e-19)
(0.25658641 -0.0003367553 3.4600887e-19)
(0.25662528 -0.00039769653 4.7948805e-19)
(0.2566683 -0.00045856441 9.2643203e-20)
(0.25670691 -0.00051927104 -1.2976663e-19)
(0.25671305 -0.00057893859 -4.5772574e-19)
(0.25660095 -0.00063003278 -1.9539806e-19)
(0.25610359 -0.00069722485 9.0342304e-20)
(0.25419746 -0.00066519719 -1.3072441e-19)
(0.24608527 -0.00069788903 5.8889522e-20)
(0.21752738 -0.00025081848 6.9062675e-20)
(0.25740382 -3.7852859e-05 -2.108218e-18)
(0.25740947 -9.5689493e-05 -1.5246037e-18)
(0.25742193 -0.00015257331 5.1854411e-19)
(0.25744104 -0.00021291358 9.7308519e-19)
(0.25746687 -0.00027297291 1.149642e-18)
(0.25749936 -0.0003332193 4.0383148e-19)
(0.2575377 -0.00039348924 4.8440015e-19)
(0.2575784 -0.00045361301 3.9184085e-19)
(0.25760945 -0.00051335259 2.2351825e-19)
(0.25759421 -0.00057212213 2.5573716e-19)
(0.25742635 -0.00062159363 8.0679232e-21)
(0.25678237 -0.00068144217 5.3760376e-20)
(0.25443121 -0.00066103685 -9.1387461e-20)
(0.24490935 -0.00064561644 1.2783392e-20)
(0.21416513 -0.00024776584 -9.8607314e-20)
(0.25830515 -3.7308638e-05 2.1119265e-18)
(0.25831084 -9.4372768e-05 -5.1509882e-19)
(0.25832339 -0.00015047649 -8.1827428e-19)
(0.2583426 -0.00020999612 9.4272696e-20)
(0.25836849 -0.00026922145 -3.0111687e-19)
(0.25840083 -0.00032862339 1.2456396e-19)
(0.25843826 -0.00038802594 1.4227211e-19)
(0.25847573 -0.00044722018 3.1099977e-19)
(0.25849727 -0.00050579279 5.1759373e-19)
(0.25845683 -0.00056328987 2.380925e-19)
(0.25822634 -0.00061131675 2.4924688e-19)
(0.25742154 -0.00066417743 8.4039104e-20)
(0.2545896 -0.00065044234 4.5399357e-20)
(0.24365871 -0.00060064453 1.0717611e-20)
(0.21103455 -0.00023378679 -1.2232514e-19)
(0.259193 -3.669388e-05 7.6202379e-18)
(0.25919873 -9.2857459e-05 6.637957e-18)
(0.25921134 -0.00014806165 -8.1236395e-19)
(0.25923061 -0.00020663289 6.5340241e-20)
(0.25925648 -0.0002648995 5.0243169e-19)
(0.25928848 -0.00032332972 3.4276205e-19)
(0.25932457 -0.00038173097 -1.5541404e-20)
(0.25935785 -0.00043986308 3.2172258e-19)
(0.25936788 -0.00049714489 3.1174832e-19)
(0.25929853 -0.00055310431 -5.5010889e-20)
(0.2589988 -0.00059970361 1.8740899e-19)
(0.25801896 -0.00064623361 5.577649e-20)
(0.25467145 -0.00063499349 1.1462003e-19)
(0.24235144 -0.00056062195 -2.836539e-20)
(0.20813123 -0.0002141088 4.3535191e-20)
(0.26006576 -3.6034054e-05 3.7851069e-18)
(0.26007152 -9.1214284e-05 4.8443704e-18)
(0.26008417 -0.00014544281 1.9109425e-19)
(0.26010346 -0.00020298347 8.0155075e-19)
(0.26012923 -0.00026021093 1.1242432e-18)
(0.2601607 -0.00031758689 2.8948678e-19)
(0.26019497 -0.00037489796 5.2321393e-20)
(0.26022303 -0.0004318747 1.5947546e-19)
(0.26021952 -0.00048779066 -3.3660962e-20)
(0.26011767 -0.00054204301 1.2666857e-19)
(0.25974224 -0.00058714002 6.4576894e-20)
(0.25857279 -0.00062806077 7.2207756e-20)
(0.25467557 -0.00061594005 5.0630582e-20)
(0.24100379 -0.00052390611 -7.7284422e-20)
(0.20544863 -0.00019196316 -5.6704889e-21)
(0.2609225 -3.5349632e-05 4.0158881e-18)
(0.26092828 -8.9497286e-05 3.4327349e-18)
(0.26094096 -0.00014270541 3.8973645e-19)
(0.26096023 -0.00019916671 9.1414075e-19)
(0.2609858 -0.00025530722 7.5831592e-19)
(0.2610165 -0.00031157921 2.1905795e-19)
(0.26104844 -0.00036774517 2.7130211e-19)
(0.2610702 -0.00042350433 -1.1034013e-19)
(0.26105114 -0.00047801113 -6.7355049e-20)
(0.26091327 -0.00053046085 -5.3032918e-20)
(0.2604557 -0.00057393662 8.1038021e-20)
(0.2590814 -0.00060990566 5.7696046e-20)
(0.2546009 -0.00059424331 2.4148084e-20)
(0.23963056 -0.00048937354 1.3538425e-20)
(0.20297926 -0.00016931833 -4.260793e-20)
(0.26176274 -3.4655538e-05 2.1320417e-18)
(0.26176854 -8.7746855e-05 2.3693201e-18)
(0.26178122 -0.00013991377 -1.427406e-18)
(0.26180042 -0.00019527246 3.9520333e-19)
(0.26182568 -0.00025030306 4.9357383e-19)
(0.26185536 -0.00030544608 4.0585892e-19)
(0.26188442 -0.00036043768 3.2531581e-19)
(0.26189878 -0.00041494196 9.9631326e-20)
(0.26186213 -0.00046801762 1.7250061e-19)
(0.2616848 -0.00051862213 -2.1233395e-19)
(0.26113855 -0.00056034346 2.1540138e-19)
(0.25954316 -0.00059189152 6.9679115e-20)
(0.25444651 -0.0005706321 -4.459541e-20)
(0.23824529 -0.00045627776 -2.4485215e-20)
(0.20071509 -0.00014735259 4.5302766e-20)
(0.26258633 -3.396306e-05 7.1429315e-19)
(0.26259213 -8.5993781e-05 -4.3859691e-19)
(0.26260479 -0.00013711719 1.7332015e-18)
(0.26262388 -0.00019136968 3.2197989e-19)
(0.2626487 -0.00024528655 -8.0338227e-19)
(0.26267708 -0.00029929459 4.669708e-19)
(0.26270267 -0.00035310243 3.0425755e-19)
(0.26270848 -0.00040633486 2.2355307e-19)
(0.26265224 -0.00045797299 2.9707273e-20)
(0.26243199 -0.00050672605 7.9466335e-21)
(0.26179026 -0.00054656345 3.3244018e-19)
(0.25995633 -0.0005740675 1.6274156e-19)
(0.25421177 -0.00054566294 6.1638643e-20)
(0.23686046 -0.00042415213 -9.4386079e-20)
(0.19864765 -0.0001267576 9.0321825e-21)
(0.26339335 -3.32814e-05 2.5808322e-18)
(0.26339915 -8.4262741e-05 3.6308634e-18)
(0.26341177 -0.0001343551 2.1519247e-18)
(0.26343068 -0.0001875135 8.2534439e-19)
(0.26345493 -0.00024032822 1.3716015e-18)
(0.26348171 -0.00029321054 6.4829899e-19)
(0.2635032 -0.00034584107 3.1653035e-19)
(0.2634993 -0.00039780175 7.2451551e-20)
(0.26342146 -0.00044800829 -1.3412066e-19)
(0.26315482 -0.00049492779 4.1533614e-20)
(0.26241041 -0.00053276478 6.2850794e-20)
(0.26031893 -0.00055643964 1.1514905e-19)
(0.2538966 -0.000519773 1.6471665e-19)
(0.23548766 -0.00039274464 -4.5106258e-21)
(0.19676807 -0.00010792878 3.4753226e-20)
(0.26418413 -3.2618312e-05 4.293309e-18)
(0.26418991 -8.2574226e-05 3.478225e-18)
(0.26420246 -0.00013166021 1.1806223e-18)
(0.26422112 -0.0001837496 1.3276991e-18)
(0.26424465 -0.00023548648 1.292493e-18)
(0.2642695 -0.00028726512 8.2688712e-19)
(0.26428624 -0.00033873796 4.9315868e-19)
(0.26427145 -0.00038944152 2.1710455e-19)
(0.26416998 -0.0004382328 -1.4866857e-19)
(0.26385341 -0.00048335173 -1.3607132e-19)
(0.26299854 -0.00051908846 -5.0559155e-20)
(0.26062878 -0.00053898815 1.1569963e-20)
(0.25350187 -0.00049331965 7.2989421e-20)
(0.2341376 -0.00036197184 7.1809758e-20)
(0.19506692 -9.1079355e-05 1.6034986e-20)
(0.26495914 -3.1980324e-05 3.6677353e-18)
(0.2649649 -8.0945389e-05 4.4218094e-18)
(0.26497734 -0.00012905989 1.7309401e-18)
(0.26499568 -0.00018011622 9.8425424e-19)
(0.26501831 -0.00023081031 1.0461423e-18)
(0.26504088 -0.00028151806 8.298571e-19)
(0.2650522 -0.00033186392 5.1882411e-19)
(0.2650253 -0.00038133727 5.0096208e-19)
(0.26489816 -0.00042873842 -3.2160123e-20)
(0.26452796 -0.00047209828 7.2642829e-21)
(0.26355413 -0.00050565096 3.9232749e-20)
(0.2608835 -0.00052167636 1.0126745e-19)
(0.25302971 -0.00046660631 1.1853583e-20)
(0.23282016 -0.00033188327 6.9915362e-20)
(0.19353413 -7.6303786e-05 6.6232228e-21)
(0.26571903 -3.1372764e-05 3.2682163e-18)
(0.26572475 -7.9390278e-05 2.9984371e-18)
(0.26573705 -0.00012657658 6.3006747e-19)
(0.26575498 -0.00017664472 3.2262035e-19)
(0.26577653 -0.00022633987 8.4955055e-19)
(0.26579644 -0.0002760185 2.571308e-19)
(0.26580163 -0.0003252772 2.2035993e-19)
(0.26576141 -0.00037355728 3.2912412e-19)
(0.26560652 -0.00041960061 3.6535016e-19)
(0.26517878 -0.00046124612 1.7318552e-19)
(0.26407657 -0.00049254343 9.9933746e-20)
(0.26108058 -0.00050445572 2.3622468e-19)
(0.25248384 -0.00043989699 1.5688108e-20)
(0.23154421 -0.00030262987 7.6405897e-20)
(0.19215888 -6.3609731e-05 2.4898191e-20)
(0.26646455 -3.0799673e-05 7.5546742e-18)
(0.26647021 -7.7919711e-05 1.2650096e-18)
(0.26648233 -0.00012422759 4.1739931e-18)
(0.26649975 -0.0001733593 1.6193817e-18)
(0.26652002 -0.00022210618 -6.9063972e-19)
(0.26653688 -0.0002708044 1.157691e-18)
(0.26653522 -0.00031902283 1.1795839e-18)
(0.26648042 -0.00036615421 9.4191145e-19)
(0.26629564 -0.00041087723 1.0130614e-18)
(0.26580617 -0.00045085191 -6.772833e-20)
(0.26456508 -0.00047982866 5.0347719e-19)
(0.26121753 -0.00048726982 4.8923079e-19)
(0.25186982 -0.00041342264 2.9090334e-19)
(0.23031742 -0.00027443217 2.6430018e-19)
(0.1909297 -5.2932834e-05 2.0662638e-19)
(0.26719653 -3.0263687e-05 2.5195778e-18)
(0.26720212 -7.6541023e-05 8.4405385e-19)
(0.26721401 -0.00012202465 3.5963876e-18)
(0.26723083 -0.00017027641 1.8769156e-18)
(0.2672496 -0.00021813033 3.0399778e-19)
(0.26726299 -0.00026590165 1.1811803e-18)
(0.26725373 -0.0003131315 1.085514e-18)
(0.26718309 -0.00035916374 8.957296e-19)
(0.26696618 -0.00040260692 8.0265936e-19)
(0.26641044 -0.00044094906 4.1944933e-20)
(0.26501868 -0.00046753759 3.711244e-19)
(0.26129202 -0.00047005901 3.4827439e-19)
(0.25119506 -0.00038738325 2.7175796e-19)
(0.2291461 -0.00024754677 2.4078119e-19)
(0.18983455 -4.41451e-05 2.8650704e-19)
(0.26791589 -2.9765992e-05 -9.6283303e-19)
(0.26792138 -7.5257932e-05 1.7858778e-19)
(0.26793299 -0.00011997376 1.6926349e-18)
(0.26794908 -0.00016740448 6.5669728e-19)
(0.26796613 -0.00021442312 1.3175792e-18)
(0.26797562 -0.00026132351 7.9329153e-20)
(0.267958 -0.00030761887 2.6353651e-19)
(0.26787018 -0.00035260382 2.4860661e-19)
(0.2676188 -0.00039480805 1.177522e-19)
(0.2669918 -0.00043154706 1.0551847e-19)
(0.26543617 -0.00045566687 1.3155502e-19)
(0.2613021 -0.00045276643 1.1494009e-19)
(0.2504687 -0.00036194908 1.6496512e-19)
(0.22803501 -0.00022223217 1.4740701e-19)
(0.18886112 -3.7064087e-05 7.2941627e-20)
(0.26862352 -2.9306383e-05 7.3993959e-18)
(0.2686289 -7.4070661e-05 2.4287102e-18)
(0.26864017 -0.00011807532 2.6571902e-18)
(0.26865542 -0.00016474412 2.0785281e-18)
(0.26867049 -0.00021098533 1.7461888e-18)
(0.26867563 -0.000257071 1.3904913e-18)
(0.26864885 -0.00030248606 1.504134e-18)
(0.26854251 -0.00034647515 1.265207e-18)
(0.26825414 -0.00038747924 6.2469637e-19)
(0.26755035 -0.00042263245 -1.0360911e-19)
(0.2658161 -0.00044417905 4.2092454e-19)
(0.26124652 -0.00043534493 4.5966704e-19)
(0.24970133 -0.00033726333 4.5608685e-19)
(0.22698727 -0.00019871676 4.304302e-19)
(0.18799711 -3.1466399e-05 1.7142306e-19)
(0.26932033 -2.8883461e-05 3.9507994e-18)
(0.26932558 -7.2976356e-05 -2.1164831e-19)
(0.26933645 -0.00011632481 9.6270956e-19)
(0.26935072 -0.00016228909 2.4089132e-18)
(0.26936357 -0.0002078089 1.8366777e-18)
(0.26936389 -0.00025313433 1.4089e-18)
(0.26932713 -0.0002977213 1.2360552e-18)
(0.26920083 -0.00034076321 1.2380439e-18)
(0.2688728 -0.00038060158 6.10643e-19)
(0.26808605 -0.00041417146 2.3630434e-19)
(0.26615679 -0.00043300583 2.8721138e-19)
(0.26112496 -0.00041776402 4.3638793e-19)
(0.24890441 -0.00031344658 3.964138e-19)
(0.22600436 -0.00017717261 2.8059368e-19)
(0.18723056 -2.7105587e-05 3.2008218e-19)
(0.27000719 -2.849491e-05 2.0330425e-18)
(0.27001228 -7.1969743e-05 2.847593e-18)
(0.27002267 -0.00011471384 3.6266867e-18)
(0.27003583 -0.00016002771 2.6494297e-18)
(0.27004618 -0.00020487885 8.1058553e-19)
(0.27004119 -0.00024949516 1.2761509e-18)
(0.2699936 -0.00029330262 1.1815794e-18)
(0.26984584 -0.00033544136 1.0292761e-18)
(0.26947524 -0.00037414208 4.7289634e-19)
(0.2685986 -0.00040611399 1.8326169e-19)
(0.26645635 -0.00042205446 2.3735094e-19)
(0.2609383 -0.00040001524 3.4426117e-19)
(0.24808975 -0.00029060213 4.3746544e-19)
(0.22508629 -0.00015769827 3.6140875e-19)
(0.18655015 -2.373213e-05 2.7413596e-19)
(0.27068489 -2.8137825e-05 6.7321923e-18)
(0.2706898 -7.1043906e-05 4.6924478e-18)
(0.27069965 -0.00011323138 5.1911216e-18)
(0.27071153 -0.00015794462 3.8260946e-18)
(0.2707191 -0.00020217545 1.3882843e-18)
(0.27070829 -0.00024612933 2.2300603e-18)
(0.27064898 -0.00028920108 2.0762026e-18)
(0.27047818 -0.00033047455 1.3120766e-18)
(0.27006181 -0.00036805783 9.1499339e-19)
(0.26908753 -0.00039839812 6.7586756e-20)
(0.26671278 -0.00041121648 4.3621608e-19)
(0.26068881 -0.00038211516 5.6608937e-19)
(0.24726882 -0.00026882041 7.0687902e-19)
(0.22423175 -0.00014031231 7.4364712e-19)
(0.18594537 -2.1112148e-05 3.9762077e-19)
(0.27135418 -2.7809011e-05 -8.7867472e-21)
(0.27135887 -7.0191041e-05 3.3725993e-18)
(0.2713681 -0.00011186497 2.1994154e-18)
(0.27137855 -0.00015602247 2.1687043e-18)
(0.27138303 -0.00019967637 2.8569805e-18)
(0.27136587 -0.00024300948 1.7049995e-18)
(0.27129391 -0.00028538386 1.1338319e-18)
(0.27109836 -0.000325823 5.368031e-19)
(0.27063272 -0.00036230005 5.0442534e-19)
(0.26955206 -0.00039095432 2.3144566e-19)
(0.26692403 -0.00040037784 2.1487346e-19)
(0.26038022 -0.00036410564 4.3416833e-19)
(0.24645221 -0.00024818088 4.0943054e-19)
(0.22343841 -0.00012495718 3.6302442e-19)
(0.18540672 -1.9041831e-05 3.1377089e-19)
(0.27201571 -2.7505235e-05 3.1660993e-18)
(0.27202015 -6.9403099e-05 3.4648845e-18)
(0.27202866 -0.00011060176 2.5472968e-18)
(0.27203751 -0.00015424331 2.6244529e-18)
(0.2720386 -0.00019735858 2.620425e-18)
(0.27201452 -0.00024010733 1.8362448e-18)
(0.27192892 -0.00028181693 1.1756587e-18)
(0.2717068 -0.00032144525 8.4221446e-19)
(0.27118802 -0.00035681747 7.779108e-19)
(0.2699912 -0.00038370884 2.7085783e-19)
(0.26708822 -0.000389429 3.3609394e-19)
(0.26001771 -0.00034605163 4.1996757e-19)
(0.24564917 -0.00022875086 3.6620924e-19)
(0.22270325 -0.00011151162 4.0847088e-19)
(0.18492573 -1.7355845e-05 2.0915454e-19)
(0.27267005 -2.7223403e-05 3.1579882e-18)
(0.27267421 -6.8672269e-05 4.1718934e-19)
(0.27268192 -0.00010942927 1.7043457e-18)
(0.27268898 -0.00015258973 2.9602072e-18)
(0.27268634 -0.00019519966 2.2985227e-18)
(0.27265476 -0.00023739527 1.6063758e-18)
(0.27255447 -0.00027846699 1.1420094e-18)
(0.2723038 -0.00031730047 1.0708385e-18)
(0.27172757 -0.00035155884 8.101618e-19)
(0.27040369 -0.00037658611 7.1689135e-19)
(0.26720375 -0.00037827411 4.2459862e-19)
(0.25960771 -0.00032803713 3.2809316e-19)
(0.24486735 -0.00021058184 4.6105772e-19)
(0.22202277 -9.9808141e-05 3.1367642e-19)
(0.18449494 -1.5929485e-05 1.9277135e-19)
(0.27331772 -2.6960666e-05 1.6933331e-18)
(0.27332155 -6.7991274e-05 4.1648932e-18)
(0.27332837 -0.00010833587 3.2904869e-18)
(0.27333345 -0.00015104547 2.5399103e-18)
(0.27332673 -0.00019317869 1.2649432e-18)
(0.27328702 -0.00023484751 1.7982105e-18)
(0.27317093 -0.0002753027 1.1683079e-18)
(0.27288957 -0.00031334989 1.0853297e-18)
(0.27225107 -0.00034647442 7.4261877e-19)
(0.27078808 -0.00036951039 7.5513022e-19)
(0.26726952 -0.00036683813 4.6780652e-19)
(0.25915765 -0.0003101602 3.8517093e-19)
(0.24411266 -0.00019370464 4.9414471e-19)
(0.22139331 -8.9652404e-05 2.1998092e-19)
(0.1841079 -1.4675691e-05 2.6725545e-19)
(0.27395916 -2.6714475e-05 7.8801023e-18)
(0.27396262 -6.7353542e-05 4.9202161e-18)
(0.27396843 -0.00010731104 4.5634919e-18)
(0.27397134 -0.00014959583 3.4052056e-18)
(0.27396016 -0.00019127671 1.6594518e-18)
(0.27391168 -0.00023244055 2.4762794e-18)
(0.2737786 -0.00027229533 1.88628e-18)
(0.27346419 -0.00030955757 1.4558797e-18)
(0.27275806 -0.00034151676 1.2377967e-18)
(0.27114274 -0.00036240704 3.7266346e-19)
(0.26728512 -0.00035507155 6.955903e-19)
(0.25867552 -0.00029252748 6.8918548e-19)
(0.24338933 -0.00017812521 6.7904501e-19)
(0.22081116 -8.0841193e-05 5.9587227e-19)
(0.18375901 -1.3538668e-05 4.7629977e-19)
(0.27459475 -2.6482589e-05 2.3520413e-18)
(0.2745978 -6.675326e-05 4.1412989e-18)
(0.27460249 -0.0001063455 2.5032662e-18)
(0.274603 -0.0001482278 2.3181198e-18)
(0.27458699 -0.00018947691 2.8615497e-18)
(0.27452902 -0.00023015345 1.3711111e-18)
(0.27437767 -0.00026941895 1.2548767e-18)
(0.27402763 -0.00030589064 8.5408892e-19)
(0.27324789 -0.00033664079 8.0137559e-19)
(0.27146593 -0.0003552038 3.4804862e-19)
(0.26725094 -0.00034295249 3.2445591e-19)
(0.25816956 -0.00027524859 3.6738757e-19)
(0.24270004 -0.00016382254 3.2309643e-19)
(0.22027275 -7.3177111e-05 3.0910509e-19)
(0.18344349 -1.2486089e-05 3.0877319e-19)
(0.27522481 -2.6263072e-05 8.8649136e-19)
(0.27522741 -6.6185367e-05 3.9318765e-18)
(0.27523087 -0.00010543114 2.8360883e-18)
(0.27522875 -0.00014693 2.7017923e-18)
(0.27520748 -0.00018776456 3.0534413e-18)
(0.2751393 -0.00022796774 1.3627861e-18)
(0.27496829 -0.00026665041 1.2872745e-18)
(0.27457978 -0.00030231921 1.0728602e-18)
(0.27371976 -0.0003318036 7.7907559e-19)
(0.27175586 -0.00034783257 4.1627848e-19)
(0.26716832 -0.00033048644 2.6203083e-19)
(0.25764777 -0.0002584306 3.824215e-19)
(0.24204621 -0.0001507494 3.576742e-19)
(0.21977469 -6.6478885e-05 3.6575909e-19)
(0.18315725 -1.1501422e-05 2.6748504e-19)
(0.27584964 -2.6054261e-05 4.9155447e-19)
(0.27585173 -6.5645512e-05 1.5466681e-18)
(0.27585383 -0.00010456099 1.3789963e-18)
(0.27584885 -0.00014569263 1.9091091e-18)
(0.27582189 -0.00018612688 2.3468599e-18)
(0.2757427 -0.00022586725 1.5747726e-18)
(0.27555053 -0.00026396905 1.2979958e-18)
(0.27512041 -0.00029881615 9.0843937e-19)
(0.27417268 -0.00032696405 6.6919523e-19)
(0.27201082 -0.00034023144 8.4283683e-19)
(0.26703956 -0.00031770398 3.1302219e-19)
(0.25711762 -0.00024217267 4.2843291e-19)
(0.24142819 -0.00013883591 3.3283143e-19)
(0.21931381 -6.0587303e-05 2.7856324e-19)
(0.18289682 -1.057747e-05 2.5484915e-19)
(0.27646948 -2.5854749e-05 2.9759582e-18)
(0.27647102 -6.5129981e-05 5.0101449e-18)
(0.27647162 -0.00010372909 4.0860161e-18)
(0.27646352 -0.0001445073 2.1684012e-18)
(0.2764304 -0.00018455289 1.344442e-18)
(0.27633935 -0.00022383791 1.6727276e-18)
(0.27612438 -0.00026135648 1.2118552e-18)
(0.27564919 -0.00029535665 6.5089096e-19)
(0.27460555 -0.00032208226 4.4030219e-19)
(0.27222923 -0.0003323472 8.7464881e-19)
(0.26686787 -0.00030465719 4.5183472e-19)
(0.25658579 -0.00022656125 5.78893e-19)
(0.2408456 -0.00012799525 4.8565459e-19)
(0.21888719 -5.5367364e-05 2.2151022e-19)
(0.18265925 -9.7115793e-06 2.9141679e-19)
(0.27708455 -2.5663344e-05 7.0320716e-18)
(0.27708548 -6.4635631e-05 4.9852577e-18)
(0.27708444 -0.0001029304 5.4762251e-18)
(0.27707295 -0.00014336686 3.6304588e-18)
(0.27703318 -0.00018303314 1.9383701e-18)
(0.27692935 -0.00022186743 2.3373455e-18)
(0.2766898 -0.00025879623 1.8580688e-18)
(0.27616569 -0.00029191777 1.5151193e-18)
(0.27501711 -0.00031711915 8.2169015e-19)
(0.27240981 -0.00032413773 5.6215387e-19)
(0.26665728 -0.00029141517 8.3985644e-19)
(0.256058 -0.00021166603 9.0282408e-19)
(0.24029748 -0.00011813046 8.0310099e-19)
(0.21849214 -5.0707639e-05 5.8801345e-19)
(0.18244204 -8.9025318e-06 4.5892391e-19)
(0.27769504 -2.5479044e-05 3.5100418e-20)
(0.27769529 -6.4159806e-05 4.4721459e-18)
(0.27769247 -0.00010216064 2.8764924e-18)
(0.27767729 -0.00014226521 2.2690923e-18)
(0.27763035 -0.0001815595 2.3902279e-18)
(0.27751275 -0.00021994503 1.5203339e-18)
(0.27724666 -0.00025627339 1.2889468e-18)
(0.27666938 -0.00028847796 9.1672805e-19)
(0.275406 -0.00031203633 7.5892831e-19)
(0.27255164 -0.0003155742 4.1763767e-19)
(0.26641246 -0.00027805925 4.1129319e-19)
(0.25553894 -0.0001975371 4.2739573e-19)
(0.23978254 -0.00010914112 2.5138263e-19)
(0.21812621 -4.6517857e-05 2.6855866e-19)
(0.18224308 -8.1488526e-06 2.2794158e-19)
(0.27830111 -2.5301005e-05 4.1878598e-18)
(0.27830062 -6.3700269e-05 3.8861264e-18)
(0.27829586 -0.0001014162 3.5719373e-18)
(0.2782767 -0.00014119716 2.4822599e-18)
(0.278222 -0.00018012493 2.0770045e-18)
(0.27808956 -0.00021806116 1.4841247e-18)
(0.2777948 -0.00025377436 1.1340015e-18)
(0.27715962 -0.0002850166 8.1909051e-19)
(0.27577079 -0.00030679609 8.9693662e-19)
(0.27265429 -0.00030664248 4.2986697e-19)
(0.26613848 -0.00026467812 4.894516e-19)
(0.2550323 -0.00018420367 6.5142469e-19)
(0.23929925 -0.00010092915 6.1557448e-19)
(0.21778713 -4.272564e-05 4.7509812e-19)
(0.18206056 -7.4481404e-06 2.7340101e-19)
(0.27890291 -2.5128516e-05 3.3450273e-18)
(0.27890162 -6.3255127e-05 1.7897809e-18)
(0.27889474 -0.00010069401 1.7389786e-18)
(0.27887126 -0.00014015826 2.6725275e-18)
(0.27880821 -0.00017872332 2.4882693e-18)
(0.27865976 -0.00021620724 1.6336341e-18)
(0.27833397 -0.00025128651 1.3720801e-18)
(0.27763569 -0.00028151345 1.0079523e-18)
(0.27611001 -0.00030136188 8.4184116e-19)
(0.2727179 -0.00029734385 7.884305e-19)
(0.26584062 -0.00025136316 6.9312109e-19)
(0.25454084 -0.00017167438 6.6941783e-19)
(0.23884602 -9.3403151e-05 5.9493737e-19)
(0.21747286 -3.9273081e-05 4.8221143e-19)
(0.18189296 -6.7970295e-06 3.5915858e-19)
(0.27950056 -2.4960972e-05 -1.0886785e-18)
(0.2794984 -6.2822774e-05 4.3785429e-18)
(0.27948922 -9.9991432e-05 1.9101591e-18)
(0.27946108 -0.00013914466 1.8079029e-18)
(0.279389 -0.00017734922 2.6015236e-18)
(0.27922329 -0.00021437542 1.151623e-18)
(0.27886389 -0.00024879793 9.283735e-19)
(0.27809674 -0.00027794828 6.5260467e-19)
(0.27642222 -0.0002956992 3.7277106e-19)
(0.27274323 -0.00028769473 6.8921049e-19)
(0.2655241 -0.00023820405 3.00362e-19)
(0.25406651 -0.00015993911 9.6272166e-20)
(0.23842119 -8.6481041e-05 -3.551401e-20)
(0.21718151 -3.6113604e-05 2.6883075e-20)
(0.18173897 -6.1914698e-06 1.4710009e-19)
(0.28009418 -2.4797856e-05 1.3168817e-18)
(0.28009107 -6.2401834e-05 3.6469125e-18)
(0.28007941 -9.9306213e-05 3.800911e-18)
(0.28004623 -0.00013815299 1.8415382e-18)
(0.27996442 -0.00017599777 2.1397337e-18)
(0.27978006 -0.00021255837 1.4443794e-18)
(0.2793842 -0.00024629715 9.5156275e-19)
(0.27854186 -0.00027430051 5.0605117e-19)
(0.27670605 -0.00028977675 2.712743e-19)
(0.27273166 -0.00027772559 6.7027338e-19)
(0.26519392 -0.0002252849 2.6537364e-19)
(0.25361059 -0.00014897205 1.0607664e-19)
(0.23802316 -8.0091219e-05 1.9184662e-19)
(0.21691137 -3.320933e-05 1.0600527e-19)
(0.18159747 -5.6270933e-06 1.0478519e-19)
(0.28068388 -2.4638721e-05 4.3015333e-19)
(0.28067974 -6.1991114e-05 3.6518434e-18)
(0.28066539 -9.8636369e-05 2.8877137e-18)
(0.28062676 -0.00013718022 1.8937424e-18)
(0.28053445 -0.00017466447 1.7694103e-18)
(0.28032993 -0.00021074911 1.3806342e-18)
(0.27989449 -0.00024377295 9.0488102e-19)
(0.27897002 -0.0002705489 3.3785016e-19)
(0.27696025 -0.00028356785 3.2298866e-19)
(0.27268518 -0.00026747914 4.827267e-19)
(0.26485469 -0.00021268091 2.7359849e-19)
(0.25317379 -0.00013873547 -4.3844128e-21)
(0.23765034 -7.4172502e-05 2.7412909e-20)
(0.2166609 -3.052902e-05 1.5928901e-19)
(0.18146749 -5.0995601e-06 1.2946827e-19)
(0.28126974 -2.4483172e-05 4.178521e-18)
(0.28126449 -6.1589566e-05 6.3952723e-18)
(0.28124722 -9.7980135e-05 2.6222693e-18)
(0.28120271 -0.00013622364 7.6040121e-19)
(0.28109907 -0.00017334514 6.0866851e-19)
(0.28087275 -0.00020894082 1.3140936e-20)
(0.28039427 -0.00024121406 -2.0725898e-19)
(0.27938014 -0.0002666715 1.5712548e-19)
(0.27718382 -0.0002770519 5.1695164e-20)
(0.27260633 -0.0002570081 1.3855075e-19)
(0.26451052 -0.00020045585 -2.6514795e-19)
(0.25275643 -0.00012918376 -6.2919843e-19)
(0.23730122 -6.8673261e-05 -4.9187887e-19)
(0.21642866 -2.8046548e-05 -1.6357902e-19)
(0.18134818 -4.6048061e-06 1.584735e-20)
(0.28185185 -2.4330856e-05 3.5813204e-18)
(0.28184539 -6.119625e-05 4.5546045e-18)
(0.28182498 -9.7335907e-05 2.8123513e-18)
(0.28177412 -0.00013528067 1.2008621e-18)
(0.28165823 -0.00017203573 7.3344677e-19)
(0.2814083 -0.00020712676 -1.3335185e-19)
(0.28088299 -0.00023860899 -4.1745765e-19)
(0.27977106 -0.0002626457 2.1267398e-20)
(0.27737601 -0.00027021573 -5.2349745e-20)
(0.27249806 -0.00024637256 6.8881074e-20)
(0.26416497 -0.00018866039 -2.0226745e-19)
(0.2523585 -0.00012026721 -3.9004675e-19)
(0.23697438 -6.3550112e-05 -1.810773e-19)
(0.21621337 -2.5739805e-05 -2.5002913e-19)
(0.18123881 -4.139198e-06 -6.3627499e-20)
(0.28243029 -2.4181448e-05 2.3697672e-18)
(0.28242252 -6.0810308e-05 4.3427073e-18)
(0.28239871 -9.6702198e-05 3.8314627e-18)
(0.28234099 -0.00013434892 2.741418e-18)
(0.28221186 -0.00017073227 2.0203483e-18)
(0.28193636 -0.00020530013 1.132375e-18)
(0.28136003 -0.00023594579 6.5114459e-19)
(0.2801416 -0.00025844846 4.131253e-19)
(0.27753642 -0.00026305461 2.4128358e-19)
(0.27236366 -0.00023563724 5.7365775e-20)
(0.26382105 -0.00017733134 1.6844813e-19)
(0.25197976 -0.00011193518 2.5547768e-19)
(0.23666845 -5.8766478e-05 2.3143584e-19)
(0.21601387 -2.358991e-05 4.9179624e-20)
(0.1811387 -3.6995923e-06 5.1960967e-20)
(0.28300512 -2.4034648e-05 3.352412e-18)
(0.28299594 -6.0430938e-05 3.3211907e-18)
(0.28296845 -9.6077596e-05 3.9710667e-18)
(0.28290332 -0.00013342601 2.346416e-18)
(0.28275987 -0.00016943078 1.8770612e-18)
(0.28245663 -0.00020345398 1.1637394e-18)
(0.28182471 -0.00023321186 1.0472156e-18)
(0.28049056 -0.0002540569 5.304161e-19)
(0.27766504 -0.00025557284 5.2642146e-19)
(0.27220658 -0.00022486879 6.4199968e-19)
(0.26348123 -0.0001664919 1.0730225e-19)
(0.25161982 -0.00010413862 3.8820995e-20)
(0.23638216 -5.4291221e-05 -5.5852272e-20)
(0.21582908 -2.1580651e-05 6.5558511e-21)
(0.18104728 -3.2833377e-06 6.5842527e-20)
(0.2835764 -2.3890167e-05 4.2469951e-18)
(0.28356569 -6.0057379e-05 2.9236754e-18)
(0.28353424 -9.5460739e-05 3.4824999e-18)
(0.2834611 -0.00013250962 2.095129e-18)
(0.28330215 -0.00016812719 1.7805527e-18)
(0.28296879 -0.00020158114 1.3722546e-18)