/*--------------------------------*- C++ -*----------------------------------*\
| =========                 |                                                 |
| \\      /  F ield         | OpenFOAM: The Open Source CFD Toolbox           |
|  \\    /   O peration     | Version:  2506                                  |
|   \\  /    A nd           | Website:  www.openfoam.com                      |
|    \\/     M anipulation  |                                                 |
\*---------------------------------------------------------------------------*/
FoamFile
{
    version     2.0;
    format      ascii;
    arch        "LSB;label=32;scalar=64";
    class       volScalarField;
    location    "24000/water";
    object      alphat;
}
// * * * * * * * * * * * * * * * * * * * * * * * * * * * * * * * * * * * * * //

dimensions      [1 -1 -1 0 0 0 0];

internalField   nonuniform List<scalar> 
1000
(
0.038690245
0.038689577
0.038688046
0.038679676
0.038634252
0.038395956
0.037190881
0.031863289
0.019099264
0.016301307
0.036437656
0.036436968
0.036430539
0.036397696
0.036243742
0.035561448
0.032798674
0.024476363
0.014644259
0.017654592
0.034756095
0.034752687
0.034735392
0.034658264
0.034338316
0.033096044
0.028914328
0.02007853
0.014287397
0.017671293
0.033455039
0.033447371
0.03341324
0.033276591
0.032760736
0.030940122
0.025769943
0.018272081
0.015952093
0.017301532
0.032418332
0.032405139
0.032350678
0.03215053
0.031437451
0.029070443
0.023556268
0.018636031
0.018861675
0.016925721
0.031571667
0.031552637
0.031479596
0.031226166
0.030328139
0.027485345
0.022555261
0.020803852
0.022278937
0.016666264
0.030866455
0.030843487
0.030761492
0.030477932
0.029402068
0.026292242
0.023061976
0.024244009
0.025541402
0.01652522
0.03027085
0.030249444
0.030178144
0.029894451
0.028644251
0.025787415
0.025138545
0.0282806
0.028305021
0.016463218
0.029764732
0.029755534
0.029725651
0.029468592
0.028107045
0.026357163
0.02850845
0.032334587
0.030519224
0.016442695
0.029337061
0.029357524
0.029409751
0.029196694
0.02798099
0.02823735
0.032681303
0.036080701
0.032267581
0.01644071
0.028984749
0.029060632
0.029241323
0.029099549
0.028583449
0.031375033
0.037164764
0.0394137
0.03365921
0.016446405
0.028712542
0.028878694
0.029233134
0.029270341
0.030215256
0.035478603
0.041608823
0.042341689
0.034787818
0.016455612
0.028533635
0.028833077
0.029403373
0.029912941
0.03300276
0.04016151
0.045828209
0.044910636
0.035723427
0.016467075
0.02847073
0.028950957
0.029795637
0.031303775
0.036852166
0.045075535
0.049751609
0.047172306
0.036515364
0.016480526
0.028557129
0.029264056
0.030516054
0.0336758
0.041512
0.049977089
0.053365725
0.049173969
0.037197762
0.01649591
0.028837302
0.029812374
0.031757491
0.037114046
0.046676325
0.054726075
0.056681771
0.050955485
0.037793711
0.016513133
0.029366699
0.030660681
0.033764581
0.041531191
0.052071135
0.05925298
0.059719675
0.052547872
0.038312968
0.016531937
0.030212425
0.03192829
0.036741929
0.046714705
0.057495414
0.0635274
0.062500832
0.053971625
0.03877178
0.016552027
0.031460609
0.033808295
0.040769264
0.052403316
0.062820494
0.06753885
0.065043879
0.055249965
0.039180789
0.016573205
0.033237434
0.036537783
0.045775421
0.058353595
0.067969724
0.071286853
0.067367418
0.056402355
0.0395478
0.016595306
0.035735289
0.040316575
0.05157085
0.064374529
0.072897245
0.074772354
0.069492011
0.057443664
0.039878814
0.016618156
0.039206166
0.045224944
0.057909167
0.070330063
0.077571134
0.078005382
0.071434603
0.05838582
0.040178168
0.016641568
0.043888334
0.051190118
0.064545162
0.076123294
0.081973217
0.080996839
0.073208771
0.059238076
0.04044894
0.016665343
0.049892504
0.058009406
0.071267603
0.081682692
0.086094466
0.083755017
0.074824958
0.060007275
0.040693213
0.016689276
0.057120725
0.065404592
0.077905894
0.086957626
0.089927947
0.086285234
0.076290434
0.060698097
0.040912238
0.016713154
0.065268681
0.073077164
0.084333106
0.09191034
0.093465166
0.088589465
0.077609406
0.061313281
0.041106551
0.016736755
0.073907302
0.080754758
0.0904545
0.096507611
0.096695864
0.090666534
0.078783328
0.061853867
0.041276067
0.016759842
0.082593124
0.088207633
0.096193825
0.10072063
0.099608979
0.092512977
0.079811518
0.062319568
0.041420232
0.016782155
0.090953753
0.095254158
0.10149026
0.10452618
0.10219453
0.094124564
0.080692171
0.062709337
0.041538241
0.016803415
0.098725661
0.10176148
0.10629842
0.10790836
0.10444592
0.09549822
0.081423682
0.063022119
0.041629348
0.016823337
0.10575279
0.10764339
0.11058924
0.11086021
0.10636197
0.096633934
0.082006039
0.063257678
0.041693196
0.01684165
0.11196536
0.11285549
0.11435036
0.11338452
0.10794829
0.097536181
0.082441983
0.06341731
0.041730108
0.016858114
0.11735443
0.11738816
0.11758534
0.11549366
0.10921757
0.098214596
0.082737677
0.063504293
0.041741272
0.016872554
0.12195007
0.12125849
0.12031168
0.11720862
0.11018907
0.09868385
0.082902801
0.063523999
0.041728771
0.016884864
0.12580525
0.12450245
0.12255803
0.11855728
0.11088738
0.098962869
0.082950128
0.063483674
0.041695476
0.01689502
0.12898494
0.12716812
0.1243611
0.11957249
0.11134085
0.099073659
0.082894739
0.063391972
0.041644837
0.016903076
0.13155903
0.1293103
0.12576273
0.12029012
0.11157994
0.099039992
0.082753071
0.063258367
0.041580609
0.01690915
0.13359784
0.13098649
0.12680724
0.12074724
0.11163577
0.098886151
0.082541967
0.063092548
0.041506594
0.016913414
0.13516937
0.13225395
0.12753941
0.12098072
0.11153888
0.098635869
0.082277844
0.062903889
0.041426403
0.016916071
0.13633768
0.13316787
0.12800282
0.12102604
0.11131831
0.098311519
0.081976053
0.062701037
0.041343293
0.016917342
0.137162
0.13378002
0.12823885
0.12091655
0.11100093
0.097933554
0.081650437
0.062491638
0.041260055
0.016917453
0.13769625
0.13413817
0.12828591
0.12068294
0.11061107
0.09752018
0.081313078
0.06228219
0.041178976
0.01691662
0.137989
0.13428567
0.12817904
0.12035294
0.11017033
0.097087195
0.080974188
0.062077999
0.04110183
0.016915048
0.13808355
0.13426139
0.12794978
0.11995123
0.1096975
0.096647976
0.080642118
0.061883202
0.041029905
0.01691292
0.13801811
0.13409981
0.1276261
0.11949938
0.10920858
0.096213503
0.080323344
0.061700582
0.040962974
0.016910385
0.13782615
0.13383119
0.12723247
0.11901597
0.10871691
0.095792443
0.08002247
0.061531203
0.040902167
0.016907571
0.13753672
0.13348181
0.12679005
0.1185167
0.10823326
0.095391213
0.079742011
0.061377126
0.040847944
0.0169046
0.1371748
0.13307424
0.12631683
0.11801454
0.10776593
0.095013916
0.079485046
0.061239124
0.040800455
0.016901577
0.13676171
0.13262773
0.12582792
0.11751986
0.10732079
0.094664801
0.079252998
0.061117398
0.040759614
0.016898584
0.13631543
0.13215833
0.12533553
0.11704057
0.10690356
0.094346274
0.079046411
0.061011718
0.040725158
0.016895686
0.13585084
0.1316792
0.12484976
0.11658406
0.10651796
0.094059589
0.078865147
0.060921505
0.040696697
0.016892931
0.13538027
0.13120154
0.12437941
0.11615564
0.10616635
0.093805072
0.07870852
0.060845914
0.04067376
0.016890356
0.13491416
0.13073471
0.12393127
0.11575907
0.10584992
0.093582271
0.078575399
0.060783904
0.040655824
0.016887982
0.13446101
0.13028613
0.12351043
0.11539674
0.10556887
0.093390097
0.078464307
0.060734294
0.040642334
0.016885824
0.13402749
0.12986149
0.12312045
0.11506984
0.10532258
0.093226968
0.078373527
0.06069583
0.040632736
0.016883887
0.13361869
0.12946494
0.12276361
0.11477864
0.10510981
0.093090956
0.078301211
0.060667241
0.040626494
0.016882168
0.13323826
0.12909933
0.12244114
0.1145226
0.10492885
0.092979932
0.078245468
0.060647293
0.040623112
0.016880663
0.1328887
0.12876643
0.12215338
0.11430065
0.10477768
0.092891668
0.07820444
0.060634819
0.040622134
0.016879363
0.13257149
0.12846709
0.12189998
0.11411124
0.10465411
0.092823908
0.078176332
0.060628734
0.04062315
0.016878258
0.13228729
0.12820143
0.12168001
0.11395248
0.10455576
0.092774401
0.078159421
0.060628022
0.040625784
0.016877336
0.13203602
0.12796887
0.12149206
0.11382221
0.10448019
0.092740918
0.078152058
0.060631738
0.040629691
0.016876584
0.13181696
0.1277683
0.12133428
0.11371803
0.10442488
0.092721268
0.078152667
0.060638998
0.040634554
0.016875987
0.13162885
0.12759813
0.12120454
0.1136374
0.10438731
0.092713341
0.078159772
0.060648992
0.040640089
0.016875528
0.13147001
0.12745641
0.12110045
0.11357773
0.10436503
0.092715146
0.078172018
0.060660997
0.040646052
0.016875191
0.13133845
0.12734092
0.12101954
0.11353645
0.10435571
0.092724865
0.078188205
0.060674392
0.04065224
0.016874959
0.13123196
0.12724935
0.12095932
0.11351112
0.10435722
0.092740875
0.078207293
0.060688654
0.04065849
0.016874819
0.13114828
0.12717931
0.12091734
0.11349942
0.10436762
0.09276175
0.078228398
0.060703357
0.040664675
0.016874757
0.13108511
0.12712847
0.12089127
0.11349921
0.10438515
0.092786237
0.078250763
0.060718147
0.040670692
0.016874761
0.13104015
0.1270945
0.12087887
0.11350851
0.10440823
0.092813231
0.078273738
0.060732723
0.040676454
0.016874821
0.13101117
0.12707518
0.12087801
0.11352546
0.10443542
0.092841749
0.078296753
0.060746831
0.04068189
0.016874926
0.13099596
0.12706832
0.12088667
0.11354836
0.10446543
0.092870921
0.078319317
0.060760256
0.04068694
0.016875066
0.13099239
0.12707184
0.12090295
0.11357563
0.1044971
0.092900001
0.078341022
0.060772818
0.040691517
0.016875229
0.13099845
0.1270838
0.12092513
0.11360592
0.10452944
0.092928374
0.078361538
0.060784356
0.040695599
0.016875408
0.13101227
0.12710243
0.12095168
0.11363801
0.10456165
0.092955552
0.078380605
0.0607948
0.040699207
0.016875595
0.13103217
0.12712613
0.12098124
0.11367093
0.10459308
0.092981158
0.078398078
0.060804157
0.040702364
0.016875785
0.13105666
0.12715353
0.1210127
0.11370386
0.10462319
0.093004939
0.078413923
0.060812444
0.040705098
0.016875974
0.13108446
0.12718343
0.12104508
0.1137361
0.10465162
0.093026784
0.078428128
0.060819699
0.040707437
0.01687616
0.13111444
0.12721479
0.12107755
0.11376714
0.10467811
0.093046614
0.078440713
0.060825972
0.040709411
0.01687634
0.13114562
0.12724671
0.12110945
0.11379657
0.10470251
0.093064395
0.078451718
0.060831315
0.040711047
0.016876511
0.13117715
0.12727846
0.12114023
0.1138241
0.10472467
0.093080125
0.078461199
0.060835786
0.040712371
0.016876672
0.13120832
0.12730941
0.12116948
0.1138495
0.10474454
0.09309384
0.078469226
0.060839442
0.040713409
0.016876821
0.13123857
0.12733908
0.12119685
0.1138726
0.1047621
0.093105607
0.078475887
0.060842351
0.040714189
0.016876957
0.13126741
0.12736707
0.12122211
0.11389334
0.1047774
0.093115526
0.078481285
0.060844584
0.040714741
0.016877079
0.13129452
0.12739311
0.12124512
0.11391171
0.10479053
0.093123729
0.078485539
0.060846219
0.040715095
0.016877187
0.13131964
0.12741702
0.12126581
0.11392778
0.10480162
0.093130366
0.078488776
0.060847335
0.040715282
0.016877281
0.13134264
0.1274387
0.1212842
0.11394164
0.10481083
0.0931356
0.078491125
0.060848011
0.040715333
0.016877363
0.13136346
0.12745814
0.12130035
0.11395343
0.10481833
0.093139592
0.078492711
0.060848319
0.040715272
0.016877433
0.13138208
0.12747537
0.12131435
0.1139633
0.10482429
0.093142496
0.078493645
0.060848324
0.040715124
0.016877492
0.13139855
0.12749046
0.12132631
0.11397141
0.10482887
0.09314445
0.078494028
0.06084808
0.040714906
0.016877541
0.13141291
0.12750347
0.12133636
0.1139779
0.10483222
0.093145583
0.078493947
0.060847635
0.040714634
0.016877581
0.13142526
0.12751452
0.12134463
0.11398292
0.10483449
0.093146012
0.078493482
0.060847029
0.040714322
0.016877612
0.13143567
0.12752371
0.12135126
0.11398662
0.1048358
0.093145845
0.078492706
0.060846302
0.040713981
0.016877635
0.13144426
0.12753118
0.12135638
0.11398915
0.10483631
0.093145189
0.078491686
0.060845487
0.040713623
0.016877651
0.13145118
0.12753706
0.12136016
0.11399067
0.10483615
0.093144144
0.078490488
0.060844617
0.040713259
0.01687766
0.13145656
0.12754151
0.12136276
0.11399133
0.10483543
0.093142807
0.078489172
0.060843723
0.0407129
0.016877665
0.13146057
0.1275447
0.12136435
0.11399128
0.10483429
0.093141266
0.078487793
0.060842832
0.040712552
0.016877665
0.13146337
0.1275468
0.12136507
0.11399066
0.10483283
0.093139596
0.078486397
0.060841965
0.040712224
0.016877662
0.13146515
0.12754797
0.12136509
0.11398958
0.10483115
0.093137862
0.078485019
0.060841138
0.040711918
0.016877656
0.13146604
0.12754836
0.12136453
0.11398817
0.10482933
0.093136111
0.078483685
0.06084036
0.040711637
0.016877649
0.13146619
0.12754809
0.1213635
0.1139865
0.10482742
0.093134379
0.07848241
0.060839635
0.040711379
0.01687764
)
;

boundaryField
{
    water_inlet
    {
        type            calculated;
        value           uniform 0.041850807;
    }
    water_outlet
    {
        type            calculated;
        value           nonuniform List<scalar> 10(0.13146619 0.12754809 0.1213635 0.1139865 0.10482742 0.093134379 0.07848241 0.060839635 0.040711379 0.01687764);
    }
    water_wedge1
    {
        type            wedge;
    }
    water_wedge2
    {
        type            wedge;
    }
    water_to_rock
    {
        type            compressible::alphatWallFunction;
        value           nonuniform List<scalar> 
100
(
0.0020384971
0.0022594581
0.0022621707
0.0022020358
0.0021407416
0.0020983187
0.0020752205
0.0020650586
0.0020616936
0.0020613682
0.0020623022
0.002063812
0.0020656912
0.0020678961
0.0020704177
0.0020732404
0.0020763216
0.0020796128
0.0020830818
0.0020867017
0.002090444
0.0020942774
0.0020981691
0.0021020856
0.0021059923
0.0021098532
0.0021136296
0.0021172788
0.0021207554
0.0021240126
0.0021270058
0.0021296967
0.0021320561
0.0021340674
0.0021357266
0.0021370427
0.0021380352
0.0021387318
0.0021391658
0.0021393735
0.0021393915
0.0021392554
0.0021389987
0.0021386512
0.0021382372
0.0021377774
0.002137292
0.0021367979
0.0021363089
0.0021358353
0.0021353854
0.0021349647
0.0021345771
0.0021342245
0.0021339078
0.0021336268
0.0021333807
0.0021331682
0.0021329878
0.0021328374
0.0021327147
0.0021326171
0.002132542
0.0021324866
0.0021324486
0.0021324256
0.0021324156
0.0021324165
0.0021324265
0.0021324437
0.0021324664
0.002132493
0.0021325221
0.0021325525
0.0021325836
0.0021326147
0.0021326452
0.0021326747
0.0021327028
0.0021327292
0.0021327535
0.0021327757
0.0021327956
0.0021328133
0.0021328287
0.0021328422
0.0021328537
0.0021328634
0.0021328714
0.0021328778
0.0021328828
0.0021328865
0.002132889
0.0021328905
0.0021328912
0.0021328912
0.0021328906
0.0021328897
0.0021328884
0.0021328869
)
;
    }
}


// ************************************************************************* //
