/*--------------------------------*- C++ -*----------------------------------*\
| =========                 |                                                 |
| \\      /  F ield         | OpenFOAM: The Open Source CFD Toolbox           |
|  \\    /   O peration     | Version:  2506                                  |
|   \\  /    A nd           | Website:  www.openfoam.com                      |
|    \\/     M anipulation  |                                                 |
\*---------------------------------------------------------------------------*/
FoamFile
{
    version     2.0;
    format      ascii;
    arch        "LSB;label=32;scalar=64";
    class       volScalarField;
    location    "24000/water";
    object      k;
}
// * * * * * * * * * * * * * * * * * * * * * * * * * * * * * * * * * * * * * //

dimensions      [0 2 -2 0 0 0 0];

internalField   nonuniform List<scalar> 
1000
(
0.00017657855
0.00017657518
0.00017657131
0.00017655365
0.00017648098
0.00017625478
0.00017589507
0.00017764177
0.00020514192
0.00048657967
0.00013915035
0.00013915817
0.00013914641
0.00013908743
0.00013888206
0.0001383736
0.00013797747
0.00014325064
0.00019616753
0.00057072179
0.00011343696
0.00011343683
0.00011340783
0.00011329561
0.00011298241
0.0001124902
0.00011342551
0.00012641412
0.00020548442
0.00057180213
9.4956345e-05
9.4947216e-05
9.4898274e-05
9.4747992e-05
9.4461184e-05
9.4591116e-05
9.8882559e-05
0.00012463548
0.00023169941
0.00054812318
8.1180941e-05
8.1164581e-05
8.1102166e-05
8.0967055e-05
8.0960077e-05
8.2611726e-05
9.2930199e-05
0.00013695825
0.00027128589
0.00052456986
7.0599818e-05
7.0579371e-05
7.0523472e-05
7.0504813e-05
7.1168284e-05
7.5594045e-05
9.5291949e-05
0.00016203346
0.00031586003
0.00050861058
6.2267978e-05
6.2250532e-05
6.2239518e-05
6.2499632e-05
6.4399471e-05
7.3303975e-05
0.00010610192
0.00019613569
0.00035649806
0.00050003851
5.5571434e-05
5.5570244e-05
5.5667648e-05
5.645066e-05
6.0388937e-05
7.5971306e-05
0.00012498763
0.00023352017
0.00038871407
0.00049629339
5.0098704e-05
5.0135842e-05
5.0440281e-05
5.2102981e-05
5.9190473e-05
8.3984182e-05
0.00015029941
0.00026896234
0.00041246971
0.00049505676
4.556768e-05
4.5677865e-05
4.6337504e-05
4.9391612e-05
6.1095835e-05
9.7486522e-05
0.0001792026
0.00029964263
0.00042964044
0.0004949373
4.1782807e-05
4.2019035e-05
4.3252149e-05
4.8416131e-05
6.6517887e-05
0.00011597894
0.00020865676
0.00032501725
0.00044223012
0.00049528031
3.8609682e-05
3.9051438e-05
4.1174532e-05
4.9422623e-05
7.5808103e-05
0.00013818989
0.00023642025
0.00034572023
0.00045177488
0.00049583506
3.5960359e-05
3.6725374e-05
4.0189375e-05
5.276686e-05
8.9027643e-05
0.00016237188
0.00026138246
0.00036268805
0.00045931524
0.00049652607
3.3785887e-05
3.5046485e-05
4.0478141e-05
5.8837566e-05
0.00010576979
0.00018682818
0.00028330043
0.00037677342
0.00046551934
0.00049733753
3.2074353e-05
3.4079173e-05
4.2315905e-05
6.7933459e-05
0.00012516059
0.0002103141
0.00030238144
0.00038864926
0.00047080776
0.00049826647
3.0853776e-05
3.3954502e-05
4.6048088e-05
8.011799e-05
0.00014606375
0.00023213638
0.00031898736
0.00039881753
0.00047543924
0.00049930751
3.0199569e-05
3.4878983e-05
5.203436e-05
9.5115785e-05
0.00016736989
0.00025203113
0.00033348913
0.0004076383
0.00047952242
0.00050044525
3.024604e-05
3.7136192e-05
6.0556419e-05
0.00011231948
0.00018821119
0.00026998878
0.00034621495
0.00041534891
0.00048317133
0.0005016622
3.1200069e-05
4.1069167e-05
7.1707844e-05
0.00013091746
0.00020802802
0.00028611992
0.00035742613
0.00042213409
0.00048649156
0.00050294669
3.3351777e-05
4.7031432e-05
8.5310931e-05
0.00015007623
0.00022652132
0.00030057551
0.00036733033
0.00042814923
0.00048955747
0.00050428903
3.7070557e-05
5.5301845e-05
0.00010090941
0.00016908759
0.00024356745
0.0003135024
0.00037608792
0.00043353224
0.00049241506
0.0005056789
4.2767456e-05
6.5979125e-05
0.0001178499
0.00018743096
0.00025913362
0.00032501547
0.00038386896
0.00043837675
0.00049509057
0.00050710486
5.0805278e-05
7.889891e-05
0.00013541197
0.00020475529
0.00027320742
0.00033526181
0.0003907971
0.00044274778
0.00049759785
0.00050855483
6.1362059e-05
9.3622432e-05
0.00015292619
0.00022080501
0.00028583333
0.00034436411
0.00039696152
0.00044668872
0.00049994198
0.00051001637
7.4303193e-05
0.00010951521
0.00016980521
0.00023542238
0.00029707801
0.00035241182
0.00040242319
0.00045022575
0.00050212111
0.00051147667
8.9143029e-05
0.00012582855
0.00018559539
0.00024853553
0.0003069918
0.00035946541
0.00040721966
0.00045337071
0.0005041273
0.00051292218
0.00010508535
0.00014184882
0.00019999889
0.00026010252
0.00031560923
0.00036556162
0.0004113695
0.00045612368
0.0005059473
0.00051433824
0.0001212383
0.00015699648
0.00021282849
0.00027010594
0.00032295466
0.00037072038
0.00041487746
0.00045847602
0.00050756375
0.00051570875
0.00013679933
0.00017085425
0.00022398858
0.00027855461
0.00032905143
0.00037495365
0.00041774106
0.00046041453
0.00050895743
0.00051701633
0.00015116459
0.00018316292
0.00023345977
0.00028548691
0.0003339318
0.00037827516
0.00041995811
0.00046192672
0.00051011034
0.00051824312
0.00016395708
0.00019379951
0.00024128463
0.00029097219
0.00033764493
0.00038070916
0.00042153416
0.00046300631
0.00051100916
0.00051937195
0.00017500021
0.00020274872
0.00024755338
0.00029510846
0.000340261
0.00038229655
0.00042248829
0.00046365787
0.00051164843
0.00052038791
0.00018426885
0.00021007371
0.00025238993
0.00029801697
0.0003418712
0.00038309733
0.00042285626
0.00046389961
0.00051203251
0.00052127968
0.00019183933
0.00021588995
0.00025593925
0.00029983489
0.00034258409
0.00038318948
0.00042269057
0.00046376379
0.00051217602
0.00052204052
0.00019784845
0.00022034376
0.00025835662
0.00030070752
0.0003425199
0.00038266502
0.00042205786
0.00046329505
0.00051210282
0.00052266869
0.00020246351
0.00022359589
0.00025979912
0.00030078135
0.0003418042
0.00038162463
0.00042103453
0.000462547
0.00051184373
0.00052316724
0.00020586214
0.00022580978
0.00026041937
0.00030019828
0.00034056184
0.00038017188
0.00041970172
0.00046157817
0.00051143375
0.00052354338
0.00020821962
0.00022714369
0.0002603611
0.00029909148
0.00033891203
0.00037840798
0.00041814034
0.00046044789
0.00051090921
0.00052380748
0.00020970137
0.00022774575
0.00025975638
0.00029758255
0.0003369647
0.00037642764
0.00041642704
0.00045921281
0.00051030526
0.00052397207
0.00021045897
0.00022775115
0.0002587241
0.00029577997
0.00033481817
0.00037431613
0.00041463114
0.00045792425
0.000509654
0.00052405082
0.00021062836
0.00022728093
0.00025736941
0.0002937785
0.00033255796
0.00037214761
0.00041281279
0.00045662656
0.00050898332
0.00052405764
0.00021032951
0.00022644167
0.00025578377
0.00029165928
0.00033025654
0.00036998441
0.00041102212
0.00045535634
0.00050831635
0.00052400605
0.00020966684
0.00022532592
0.00025404554
0.00028949043
0.00032797364
0.00036787711
0.00040929911
0.00045414234
0.00050767131
0.00052390867
0.00020873021
0.00022401301
0.00025222081
0.00028732794
0.00032575708
0.00036586518
0.00040767412
0.00045300578
0.00050706167
0.00052377692
0.00020759611
0.00022257007
0.00025036441
0.00028521676
0.00032364378
0.00036397778
0.00040616838
0.00045195996
0.000506488
0.00052361996
0.00020632886
0.00022105312
0.00024852098
0.00028319192
0.00032166098
0.00036223507
0.00040479501
0.0004510088
0.00050595646
0.00052344568
0.00020498202
0.00021950827
0.0002467261
0.00028127976
0.0003198275
0.00036064911
0.00040355836
0.00045015517
0.00050547564
0.00052326171
0.00020359955
0.00021797288
0.0002450074
0.00027949908
0.00031815477
0.00035922411
0.00040245876
0.00044940292
0.00050504953
0.0005230745
0.0002022171
0.00021647662
0.00024338563
0.00027786216
0.0003166474
0.00035795895
0.00040149674
0.0004487519
0.00050467894
0.00052288921
0.00020086309
0.00021504255
0.00024187558
0.00027637524
0.00031530435
0.00035685222
0.0004006692
0.00044819889
0.00050436256
0.00052270986
0.0001995597
0.00021368802
0.00024048631
0.00027503946
0.00031412392
0.00035589919
0.00039997013
0.00044773855
0.00050409768
0.00052253948
0.00019832351
0.00021242478
0.00023922253
0.00027385434
0.00031310124
0.00035509241
0.00039939145
0.0004473641
0.00050388064
0.0005223802
0.00019716619
0.00021126063
0.00023808632
0.00027281657
0.00031222901
0.00035442248
0.00039892366
0.00044706785
0.00050370718
0.00052223345
0.00019609578
0.00021020019
0.00023707708
0.00027192051
0.00031149803
0.0003538786
0.00039855638
0.0004468416
0.00050357272
0.00052209999
0.00019511728
0.00020924541
0.00023619187
0.00027115869
0.00031089778
0.00035344916
0.00039827883
0.00044667704
0.00050347262
0.00052198012
0.0001942331
0.00020839591
0.00023542597
0.00027052234
0.00031041693
0.00035312221
0.00039808026
0.00044656608
0.00050340245
0.00052187379
0.00019344351
0.00020764948
0.00023477321
0.00027000177
0.00031004378
0.00035288587
0.00039795029
0.00044650106
0.00050335804
0.00052178068
0.000192747
0.00020700238
0.0002342264
0.00026958679
0.0003097666
0.00035272861
0.0003978791
0.0004464749
0.00050333559
0.00052170031
0.00019214065
0.00020644971
0.00023377763
0.000269267
0.0003095739
0.00035263945
0.00039785754
0.00044648111
0.00050333163
0.00052163207
0.00019162042
0.00020598571
0.00023341853
0.00026903198
0.00030945457
0.00035260802
0.00039787712
0.00044651373
0.00050334291
0.00052157518
0.00019118138
0.00020560394
0.00023314045
0.00026887147
0.00030939796
0.00035262463
0.00039793004
0.0004465673
0.00050336641
0.00052152876
0.0001908179
0.00020529748
0.00023293467
0.00026877548
0.00030939401
0.00035268027
0.00039800912
0.00044663685
0.00050339935
0.00052149185
0.00019052387
0.00020505918
0.00023279251
0.00026873447
0.00030943335
0.0003527667
0.00039810791
0.00044671795
0.00050343924
0.00052146342
0.00019029291
0.00020488173
0.00023270554
0.00026873942
0.00030950734
0.00035287653
0.00039822074
0.00044680675
0.00050348393
0.00052144249
0.00019011847
0.00020475792
0.0002326657
0.00026878202
0.00030960823
0.00035300324
0.00039834272
0.00044690002
0.00050353164
0.00052142811
0.00018999406
0.00020468075
0.00023266543
0.0002688547
0.00030972915
0.00035314125
0.00039846973
0.00044699509
0.00050358093
0.00052141941
0.00018991338
0.00020464356
0.00023269775
0.00026895066
0.00030986413
0.00035328579
0.00039859839
0.00044708983
0.00050363064
0.00052141562
0.00018987038
0.00020464007
0.00023275627
0.00026906387
0.00031000799
0.00035343284
0.00039872589
0.00044718248
0.00050367979
0.00052141597
0.00018985933
0.00020466446
0.00023283523
0.00026918904
0.00031015627
0.00035357903
0.00039884992
0.00044727159
0.0005037275
0.00052141974
0.00018987487
0.00020471134
0.00023292943
0.0002693215
0.0003103052
0.00035372156
0.00039896858
0.00044735598
0.00050377303
0.00052142625
0.00018991201
0.00020477579
0.00023303425
0.00026945725
0.00031045158
0.00035385813
0.00039908035
0.0004474347
0.00050381578
0.00052143484
0.00018996618
0.0002048534
0.00023314563
0.00026959287
0.00031059282
0.00035398693
0.0003991841
0.00044750703
0.00050385494
0.0005214449
0.00019003326
0.00020494021
0.0002332601
0.00026972557
0.00031072688
0.00035410665
0.00039927903
0.00044757237
0.00050389005
0.0005214559
0.00019010956
0.0002050328
0.00023337472
0.0002698531
0.00031085226
0.00035421641
0.00039936464
0.00044763043
0.00050392124
0.00052146742
0.00019019189
0.00020512823
0.00023348712
0.00026997378
0.00031096794
0.00035431569
0.00039944069
0.00044768133
0.00050394882
0.00052147917
0.0001902775
0.00020522406
0.00023359541
0.00027008637
0.00031107327
0.00035440421
0.0003995073
0.00044772552
0.00050397303
0.00052149092
0.00019036408
0.00020531829
0.00023369812
0.00027019003
0.00031116785
0.00035448203
0.00039956496
0.00044776342
0.00050399408
0.00052150246
0.00019044974
0.00020540931
0.00023379419
0.00027028415
0.00031125161
0.00035454956
0.00039961416
0.00044779547
0.00050401216
0.00052151363
0.00019053291
0.00020549584
0.00023388275
0.00027036844
0.00031132479
0.0003546073
0.00039965547
0.00044782209
0.00050402744
0.00052152426
0.00019061233
0.00020557688
0.00023396329
0.00027044293
0.00031138779
0.00035465583
0.00039968945
0.00044784371
0.00050404009
0.00052153423
0.000190687
0.0002056517
0.00023403556
0.00027050782
0.00031144113
0.0003546958
0.00039971672
0.00044786075
0.0005040503
0.00052154344
0.00019075619
0.00020571983
0.00023409952
0.00027056348
0.00031148544
0.00035472791
0.00039973789
0.00044787367
0.00050405829
0.00052155182
0.00019081944
0.00020578105
0.00023415534
0.00027061041
0.00031152141
0.00035475291
0.00039975364
0.00044788295
0.00050406428
0.00052155935
0.00019087648
0.00020583531
0.00023420332
0.00027064922
0.00031154983
0.00035477159
0.00039976462
0.00044788907
0.00050406853
0.00052156603
0.00019092724
0.00020588277
0.00023424389
0.0002706806
0.00031157151
0.00035478472
0.00039977152
0.0004478925
0.00050407131
0.00052157189
0.00019097183
0.00020592367
0.00023427758
0.00027070527
0.00031158724
0.00035479309
0.00039977496
0.0004478937
0.00050407284
0.00052157697
0.00019101045
0.00020595837
0.00023430495
0.00027072397
0.00031159781
0.00035479742
0.00039977552
0.00044789307
0.00050407334
0.00052158132
0.0001910434
0.0002059873
0.00023432662
0.0002707374
0.00031160395
0.00035479836
0.00039977374
0.00044789097
0.00050407298
0.00052158499
0.00019107103
0.00020601092
0.00023434316
0.00027074626
0.00031160636
0.00035479651
0.00039977008
0.0004478877
0.00050407193
0.00052158801
0.00019109374
0.00020602969
0.00023435517
0.00027075118
0.00031160564
0.00035479241
0.00039976492
0.00044788351
0.0005040703
0.00052159044
0.00019111194
0.00020604411
0.00023436321
0.00027075277
0.00031160236
0.00035478652
0.00039975864
0.00044787866
0.00050406821
0.00052159233
0.00019112605
0.00020605463
0.00023436781
0.00027075157
0.00031159703
0.00035477928
0.00039975155
0.00044787332
0.00050406579
0.00052159371
0.00019113651
0.00020606175
0.00023436949
0.00027074811
0.00031159014
0.00035477107
0.00039974393
0.00044786771
0.00050406314
0.00052159466
0.00019114374
0.0002060659
0.00023436874
0.00027074286
0.00031158209
0.00035476224
0.00039973604
0.00044786199
0.00050406037
0.00052159524
0.00019114817
0.00020606754
0.000234366
0.00027073626
0.00031157328
0.00035475309
0.0003997281
0.00044785632
0.00050405757
0.0005215955
0.00019115021
0.00020606709
0.00023436171
0.0002707287
0.00031156404
0.00035474389
0.00039972031
0.00044785082
0.00050405481
0.0005215955
0.00019115026
0.00020606494
0.00023435624
0.00027072052
0.00031155465
0.00035473485
0.00039971282
0.00044784559
0.00050405216
0.0005215953
0.00019114868
0.00020606145
0.00023434991
0.00027071201
0.00031154534
0.00035472614
0.00039970573
0.00044784069
0.00050404965
0.00052159494
0.0001911458
0.00020605694
0.00023434303
0.00027070341
0.00031153629
0.00035471788
0.00039969912
0.00044783616
0.00050404731
0.00052159446
0.00019114192
0.00020605169
0.00023433586
0.00027069493
0.00031152765
0.00035471014
0.000399693
0.00044783198
0.0005040451
0.00052159388
)
;

boundaryField
{
    water_inlet
    {
        type            turbulentIntensityKineticEnergyInlet;
        intensity       0.05;
        value           uniform 0.000234375;
    }
    water_outlet
    {
        type            inletOutlet;
        inletValue      uniform 0.0001;
        value           nonuniform List<scalar> 10(0.00019114192 0.00020605169 0.00023433586 0.00027069493 0.00031152765 0.00035471014 0.000399693 0.00044783198 0.0005040451 0.00052159388);
    }
    water_wedge1
    {
        type            wedge;
    }
    water_wedge2
    {
        type            wedge;
    }
    water_to_rock
    {
        type            kqRWallFunction;
        value           nonuniform List<scalar> 
100
(
0.00048657967
0.00057072179
0.00057180213
0.00054812318
0.00052456986
0.00050861058
0.00050003851
0.00049629339
0.00049505676
0.0004949373
0.00049528031
0.00049583506
0.00049652607
0.00049733753
0.00049826647
0.00049930751
0.00050044525
0.0005016622
0.00050294669
0.00050428903
0.0005056789
0.00050710486
0.00050855483
0.00051001637
0.00051147667
0.00051292218
0.00051433824
0.00051570875
0.00051701633
0.00051824312
0.00051937195
0.00052038791
0.00052127968
0.00052204052
0.00052266869
0.00052316724
0.00052354338
0.00052380748
0.00052397207
0.00052405082
0.00052405764
0.00052400605
0.00052390867
0.00052377692
0.00052361996
0.00052344568
0.00052326171
0.0005230745
0.00052288921
0.00052270986
0.00052253948
0.0005223802
0.00052223345
0.00052209999
0.00052198012
0.00052187379
0.00052178068
0.00052170031
0.00052163207
0.00052157518
0.00052152876
0.00052149185
0.00052146342
0.00052144249
0.00052142811
0.00052141941
0.00052141562
0.00052141597
0.00052141974
0.00052142625
0.00052143484
0.0005214449
0.0005214559
0.00052146742
0.00052147917
0.00052149092
0.00052150246
0.00052151363
0.00052152426
0.00052153423
0.00052154344
0.00052155182
0.00052155935
0.00052156603
0.00052157189
0.00052157697
0.00052158132
0.00052158499
0.00052158801
0.00052159044
0.00052159233
0.00052159371
0.00052159466
0.00052159524
0.0005215955
0.0005215955
0.0005215953
0.00052159494
0.00052159446
0.00052159388
)
;
    }
}


// ************************************************************************* //
