/*--------------------------------*- C++ -*----------------------------------*\
| =========                 |                                                 |
| \\      /  F ield         | OpenFOAM: The Open Source CFD Toolbox           |
|  \\    /   O peration     | Version:  2506                                  |
|   \\  /    A nd           | Website:  www.openfoam.com                      |
|    \\/     M anipulation  |                                                 |
\*---------------------------------------------------------------------------*/
FoamFile
{
    version     2.0;
    format      ascii;
    arch        "LSB;label=32;scalar=64";
    class       volScalarField;
    location    "24000/water";
    object      nut;
}
// * * * * * * * * * * * * * * * * * * * * * * * * * * * * * * * * * * * * * //

dimensions      [0 2 -1 0 0 0 0];

internalField   nonuniform List<scalar> 
1000
(
3.8760013e-05
3.8759344e-05
3.875781e-05
3.8749425e-05
3.8703919e-05
3.8465194e-05
3.7257946e-05
3.1920746e-05
1.9133704e-05
1.6330702e-05
3.6503362e-05
3.6502673e-05
3.6496232e-05
3.646333e-05
3.6309098e-05
3.5625574e-05
3.2857818e-05
2.45205e-05
1.4670666e-05
1.7686427e-05
3.4818769e-05
3.4815355e-05
3.4798028e-05
3.4720761e-05
3.4400236e-05
3.3155724e-05
2.8966467e-05
2.0114737e-05
1.4313161e-05
1.7703159e-05
3.3515366e-05
3.3507685e-05
3.3473492e-05
3.3336597e-05
3.2819812e-05
3.0995915e-05
2.5816412e-05
1.830503e-05
1.5980859e-05
1.7332731e-05
3.247679e-05
3.2463573e-05
3.2409014e-05
3.2208505e-05
3.149414e-05
2.9122864e-05
2.3598746e-05
1.8669636e-05
1.8895688e-05
1.6956242e-05
3.1628598e-05
3.1609534e-05
3.1536361e-05
3.1282474e-05
3.0382828e-05
2.7534908e-05
2.2595933e-05
2.0841367e-05
2.2319112e-05
1.6696317e-05
3.0922114e-05
3.0899106e-05
3.0816962e-05
3.0532892e-05
2.9455088e-05
2.6339654e-05
2.3103562e-05
2.4287727e-05
2.558746e-05
1.6555019e-05
3.0325436e-05
3.0303991e-05
3.0232563e-05
2.9948358e-05
2.8695904e-05
2.5833916e-05
2.5183876e-05
2.8331597e-05
2.8356062e-05
1.6492905e-05
2.9818405e-05
2.9809191e-05
2.9779254e-05
2.9521732e-05
2.8157729e-05
2.6404691e-05
2.8559858e-05
3.2392894e-05
3.0574257e-05
1.6472345e-05
2.9389963e-05
2.9410463e-05
2.9462784e-05
2.9249343e-05
2.8031447e-05
2.8288269e-05
3.2740235e-05
3.6145763e-05
3.2325767e-05
1.6470357e-05
2.9037016e-05
2.9113036e-05
2.9294052e-05
2.9152023e-05
2.8634992e-05
3.143161e-05
3.7231781e-05
3.9484773e-05
3.3719906e-05
1.6476062e-05
2.8764318e-05
2.893077e-05
2.9285849e-05
2.9323123e-05
3.0269741e-05
3.5542579e-05
4.1683854e-05
4.2418041e-05
3.4850549e-05
1.6485285e-05
2.8585088e-05
2.888507e-05
2.9456395e-05
2.9966881e-05
3.3062272e-05
4.0233931e-05
4.5910848e-05
4.499162e-05
3.5787845e-05
1.6496769e-05
2.852207e-05
2.9003163e-05
2.9849365e-05
3.1360223e-05
3.691862e-05
4.5156817e-05
4.9841324e-05
4.725737e-05
3.658121e-05
1.6510245e-05
2.8608624e-05
2.9316826e-05
3.0571082e-05
3.3736525e-05
4.1586856e-05
5.006721e-05
5.3461956e-05
4.9262642e-05
3.7264838e-05
1.6525656e-05
2.8889303e-05
2.9866133e-05
3.1814757e-05
3.7180971e-05
4.6760494e-05
5.482476e-05
5.6783983e-05
5.104737e-05
3.7861862e-05
1.654291e-05
2.9419654e-05
3.071597e-05
3.3825467e-05
4.1606082e-05
5.2165032e-05
5.9359827e-05
5.9827364e-05
5.2642629e-05
3.8382055e-05
1.6561748e-05
3.0266906e-05
3.1985865e-05
3.6808183e-05
4.6798943e-05
5.7599092e-05
6.3641955e-05
6.2613537e-05
5.4068949e-05
3.8841695e-05
1.6581875e-05
3.151734e-05
3.386926e-05
4.0842781e-05
5.2497812e-05
6.2933775e-05
6.7660639e-05
6.516117e-05
5.5349595e-05
3.9251442e-05
1.6603091e-05
3.329737e-05
3.660367e-05
4.5857966e-05
5.8458821e-05
6.809229e-05
7.1415401e-05
6.7488898e-05
5.6504063e-05
3.9619114e-05
1.6625231e-05
3.5799729e-05
4.0389276e-05
5.1663845e-05
6.4490612e-05
7.3028696e-05
7.4907187e-05
6.9617323e-05
5.7547249e-05
3.9950725e-05
1.6648123e-05
3.9276864e-05
4.5306495e-05
5.8013591e-05
7.0456885e-05
7.7711013e-05
7.8146045e-05
7.1563418e-05
5.8491104e-05
4.0250619e-05
1.6671577e-05
4.3967476e-05
5.1282427e-05
6.4661553e-05
7.6260563e-05
8.2121034e-05
8.1142896e-05
7.3340784e-05
5.9344896e-05
4.052188e-05
1.6695395e-05
4.9982473e-05
5.8114012e-05
7.1396116e-05
8.1829986e-05
8.6249716e-05
8.3906047e-05
7.4959886e-05
6.0115482e-05
4.0766593e-05
1.6719371e-05
5.7223727e-05
6.5522533e-05
7.8046378e-05
8.7114432e-05
9.0090109e-05
8.6440827e-05
7.6428005e-05
6.080755e-05
4.0986013e-05
1.6743292e-05
6.5386376e-05
7.320894e-05
8.4485179e-05
9.2076077e-05
9.3633707e-05
8.8749214e-05
7.7749355e-05
6.1423844e-05
4.1180676e-05
1.6766936e-05
7.4040575e-05
8.0900378e-05
9.0617612e-05
9.6681638e-05
9.687023e-05
9.0830028e-05
7.8925393e-05
6.1965405e-05
4.1350498e-05
1.6790064e-05
8.2742059e-05
8.8366694e-05
9.6367286e-05
0.00010090226
9.9788598e-05
9.2679801e-05
7.9955438e-05
6.2431946e-05
4.1494923e-05
1.6812417e-05
9.1117765e-05
9.5425925e-05
0.00010167328
0.00010471467
0.00010237881
9.4294293e-05
8.0837679e-05
6.2822417e-05
4.1613145e-05
1.6833715e-05
9.8903688e-05
0.00010194498
0.00010649011
0.00010810295
0.00010463426
9.5670427e-05
8.1570509e-05
6.3135763e-05
4.1704416e-05
1.6853674e-05
0.00010594349
0.00010783749
0.00011078866
0.00011106012
0.00010655377
9.6808189e-05
8.2153916e-05
6.3371747e-05
4.1768379e-05
1.6872019e-05
0.00011216726
0.00011305899
0.00011455656
0.00011358898
0.00010814294
9.7712062e-05
8.2590646e-05
6.3531667e-05
4.1805358e-05
1.6888514e-05
0.00011756605
0.00011759984
0.00011779738
0.00011570192
0.00010941451
9.8391701e-05
8.2886873e-05
6.3618806e-05
4.1816542e-05
1.6902979e-05
0.00012216997
0.00012147715
0.00012052864
0.00011741997
0.00011038777
9.8861801e-05
8.3052295e-05
6.3638548e-05
4.1804018e-05
1.6915311e-05
0.00012603211
0.00012472695
0.00012277903
0.00011877107
0.00011108734
9.9141323e-05
8.3099707e-05
6.3598151e-05
4.1770664e-05
1.6925486e-05
0.00012921754
0.00012739743
0.00012458536
0.00011978811
0.00011154162
9.9252313e-05
8.3044219e-05
6.3506283e-05
4.1719933e-05
1.6933556e-05
0.00013179627
0.00012954348
0.00012598951
0.00012050703
0.00011178114
9.9218585e-05
8.2902296e-05
6.3372437e-05
4.1655589e-05
1.6939642e-05
0.00013383875
0.00013122269
0.00012703591
0.00012096498
0.00011183707
9.9064467e-05
8.269081e-05
6.3206319e-05
4.1581441e-05
1.6943913e-05
0.00013541311
0.00013249244
0.00012776939
0.00012119888
0.00011174002
9.8813733e-05
8.2426211e-05
6.301732e-05
4.1501105e-05
1.6946575e-05
0.00013658353
0.000133408
0.00012823364
0.00012124428
0.00011151905
9.8488798e-05
8.2123876e-05
6.2814102e-05
4.1417845e-05
1.6947849e-05
0.00013740933
0.00013402126
0.0001284701
0.00012113459
0.00011120109
9.8110152e-05
8.1797673e-05
6.2604326e-05
4.1334457e-05
1.6947959e-05
0.00013794455
0.00013438005
0.00012851724
0.00012090056
0.00011081053
9.7696032e-05
8.1459705e-05
6.23945e-05
4.1253232e-05
1.6947125e-05
0.00013823783
0.00013452782
0.00012841018
0.00012056997
0.000110369
9.7262268e-05
8.1120204e-05
6.2189941e-05
4.1175947e-05
1.694555e-05
0.00013833255
0.00013450349
0.00012818051
0.00012016753
0.00010989531
9.6822256e-05
8.0787535e-05
6.1994793e-05
4.1103892e-05
1.6943418e-05
0.00013826699
0.00013434163
0.00012785624
0.00011971486
0.00010940551
9.6386999e-05
8.0468187e-05
6.1811843e-05
4.103684e-05
1.6940879e-05
0.00013807469
0.00013407252
0.0001274619
0.00011923058
0.00010891296
9.596518e-05
8.0166771e-05
6.1642159e-05
4.0975924e-05
1.6938059e-05
0.00013778473
0.00013372251
0.00012701868
0.00011873042
0.00010842843
9.5563227e-05
7.9885805e-05
6.1487804e-05
4.0921602e-05
1.6935084e-05
0.00013742216
0.00013331421
0.00012654461
0.00011822735
0.00010796025
9.518525e-05
7.9628377e-05
6.1349553e-05
4.0874028e-05
1.6932055e-05
0.00013700832
0.00013286689
0.00012605482
0.00011773178
0.00010751432
9.4835505e-05
7.9395911e-05
6.1227608e-05
4.0833114e-05
1.6929057e-05
0.00013656124
0.00013239665
0.00012556155
0.00011725162
0.00010709634
9.4516403e-05
7.9188951e-05
6.1121737e-05
4.0798595e-05
1.6926153e-05
0.00013609581
0.00013191665
0.0001250749
0.00011679429
0.00010671004
9.4229202e-05
7.900736e-05
6.1031361e-05
4.0770083e-05
1.6923394e-05
0.00013562439
0.00013143813
0.0001246037
0.0001163651
0.00010635779
9.3974225e-05
7.8850451e-05
6.0955634e-05
4.0747105e-05
1.6920813e-05
0.00013515744
0.00013097046
0.00012415475
0.00011596781
0.00010604079
9.3751023e-05
7.871709e-05
6.0893512e-05
4.0729136e-05
1.6918435e-05
0.00013470348
0.00013052107
0.00012373315
0.00011560483
0.00010575924
9.3558502e-05
7.8605797e-05
6.0843813e-05
4.0715622e-05
1.6916274e-05
0.00013426918
0.00013009567
0.00012334246
0.00011527734
0.0001055125
9.3395079e-05
7.8514854e-05
6.080528e-05
4.0706007e-05
1.6914333e-05
0.00013385963
0.0001296984
0.00012298499
0.00011498561
0.00010529935
9.3258822e-05
7.8442407e-05
6.0776639e-05
4.0699754e-05
1.6912611e-05
0.00013347852
0.00012933213
0.00012266193
0.00011472912
0.00010511806
9.3147598e-05
7.8386564e-05
6.0756655e-05
4.0696365e-05
1.6911103e-05
0.00013312833
0.00012899863
0.00012237365
0.00011450676
0.00010496662
9.3059175e-05
7.8345462e-05
6.0744159e-05
4.0695386e-05
1.6909801e-05
0.00013281055
0.00012869875
0.0001221198
0.00011431701
0.00010484283
9.2991292e-05
7.8317303e-05
6.0738062e-05
4.0696403e-05
1.6908694e-05
0.00013252584
0.0001284326
0.00012189943
0.00011415797
0.0001047443
9.2941696e-05
7.8300362e-05
6.0737349e-05
4.0699042e-05
1.690777e-05
0.00013227411
0.00012819963
0.00012171114
0.00011402746
0.0001046686
9.2908152e-05
7.8292985e-05
6.0741072e-05
4.0702956e-05
1.6907017e-05
0.00013205466
0.0001279987
0.00012155308
0.00011392309
0.00010461318
9.2888468e-05
7.8293595e-05
6.0748345e-05
4.0707828e-05
1.6906418e-05
0.00013186621
0.00012782822
0.0001214231
0.00011384231
0.00010457555
9.2880526e-05
7.8300713e-05
6.0758357e-05
4.0713373e-05
1.6905959e-05
0.00013170709
0.00012768624
0.00012131882
0.00011378253
0.00010455323
9.2882334e-05
7.8312982e-05
6.0770384e-05
4.0719347e-05
1.6905621e-05
0.00013157528
0.00012757055
0.00012123777
0.00011374118
0.00010454389
9.2892071e-05
7.8329198e-05
6.0783803e-05
4.0725546e-05
1.6905389e-05
0.00013146861
0.00012747881
0.00012117744
0.0001137158
0.00010454541
9.290811e-05
7.834832e-05
6.0798091e-05
4.0731807e-05
1.6905248e-05
0.00013138477
0.00012740865
0.00012113538
0.00011370408
0.00010455582
9.2929022e-05
7.8369463e-05
6.0812821e-05
4.0738003e-05
1.6905186e-05
0.00013132148
0.00012735771
0.00012110927
0.00011370388
0.00010457338
9.2953553e-05
7.8391868e-05
6.0827636e-05
4.0744031e-05
1.6905191e-05
0.00013127645
0.00012732369
0.00012109685
0.00011371319
0.00010459651
9.2980596e-05
7.8414884e-05
6.0842239e-05
4.0749804e-05
1.6905251e-05
0.00013124741
0.00012730433
0.00012109598
0.00011373018
0.00010462375
9.3009165e-05
7.8437941e-05
6.0856372e-05
4.0755249e-05
1.6905356e-05
0.00013123217
0.00012729745
0.00012110466
0.00011375311
0.00010465381
9.303839e-05
7.8460546e-05
6.0869822e-05
4.0760309e-05
1.6905496e-05
0.0001312286
0.00012730098
0.00012112097
0.00011378044
0.00010468553
9.3067523e-05
7.848229e-05
6.0882407e-05
4.0764894e-05
1.690566e-05
0.00013123467
0.00012731297
0.00012114319
0.00011381078
0.00010471794
9.3095947e-05
7.8502843e-05
6.0893965e-05
4.0768983e-05
1.6905839e-05
0.00013124852
0.00012733163
0.00012116978
0.00011384293
0.0001047502
9.3123174e-05
7.8521945e-05
6.0904428e-05
4.0772598e-05
1.6906026e-05
0.00013126845
0.00012735537
0.0001211994
0.00011387591
0.00010478168
9.3148825e-05
7.8539449e-05
6.0913802e-05
4.0775761e-05
1.6906216e-05
0.00013129299
0.00012738282
0.00012123092
0.00011390889
0.00010481185
9.317265e-05
7.8555323e-05
6.0922104e-05
4.0778499e-05
1.6906406e-05
0.00013132084
0.00012741277
0.00012126336
0.0001139412
0.00010484033
9.3194534e-05
7.8569554e-05
6.0929372e-05
4.0780842e-05
1.6906592e-05
0.00013135088
0.00012744419
0.00012129589
0.00011397229
0.00010486688
9.32144e-05
7.8582161e-05
6.0935656e-05
4.078282e-05
1.6906772e-05
0.00013138211
0.00012747617
0.00012132784
0.00011400178
0.00010489131
9.3232213e-05
7.8593186e-05
6.0941009e-05
4.0784459e-05
1.6906944e-05
0.00013141369
0.00012750797
0.00012135868
0.00011402936
0.00010491352
9.3247972e-05
7.8602684e-05
6.0945488e-05
4.0785785e-05
1.6907105e-05
0.00013144492
0.00012753899
0.00012138798
0.00011405479
0.00010493342
9.3261711e-05
7.8610726e-05
6.0949151e-05
4.0786825e-05
1.6907254e-05
0.00013147522
0.00012756871
0.0001214154
0.00011407794
0.00010495101
9.3273499e-05
7.8617398e-05
6.0952065e-05
4.0787607e-05
1.690739e-05
0.00013150412
0.00012759675
0.00012144071
0.00011409872
0.00010496634
9.3283437e-05
7.8622806e-05
6.0954302e-05
4.0788159e-05
1.6907512e-05
0.00013153127
0.00012762283
0.00012146375
0.00011411712
0.00010497949
9.3291654e-05
7.8627067e-05
6.0955939e-05
4.0788514e-05
1.690762e-05
0.00013155644
0.00012764678
0.00012148448
0.00011413322
0.0001049906
9.3298303e-05
7.863031e-05
6.0957057e-05
4.0788702e-05
1.6907715e-05
0.00013157949
0.0001276685
0.00012150291
0.0001141471
0.00010499983
9.3303547e-05
7.8632664e-05
6.0957735e-05
4.0788752e-05
1.6907797e-05
0.00013160034
0.00012768798
0.00012151908
0.00011415892
0.00010500734
9.3307546e-05
7.8634252e-05
6.0958043e-05
4.0788692e-05
1.6907867e-05
0.000131619
0.00012770524
0.00012153311
0.00011416881
0.00010501331
9.3310454e-05
7.8635188e-05
6.0958048e-05
4.0788543e-05
1.6907926e-05
0.00013163549
0.00012772035
0.00012154509
0.00011417693
0.0001050179
9.3312413e-05
7.8635572e-05
6.0957804e-05
4.0788325e-05
1.6907975e-05
0.00013164988
0.00012773339
0.00012155516
0.00011418343
0.00010502126
9.3313548e-05
7.8635491e-05
6.0957358e-05
4.0788053e-05
1.6908015e-05
0.00013166225
0.00012774446
0.00012156345
0.00011418846
0.00010502353
9.3313977e-05
7.8635025e-05
6.0956751e-05
4.0787739e-05
1.6908046e-05
0.00013167268
0.00012775367
0.00012157008
0.00011419217
0.00010502485
9.331381e-05
7.8634247e-05
6.0956023e-05
4.0787398e-05
1.6908069e-05
0.00013168129
0.00012776115
0.00012157522
0.0001141947
0.00010502536
9.3313152e-05
7.8633226e-05
6.0955206e-05
4.078704e-05
1.6908085e-05
0.00013168821
0.00012776704
0.000121579
0.00011419623
0.00010502519
9.3312106e-05
7.8632025e-05
6.0954335e-05
4.0786675e-05
1.6908095e-05
0.0001316936
0.0001277715
0.00012158161
0.00011419689
0.00010502447
9.3310767e-05
7.8630707e-05
6.095344e-05
4.0786315e-05
1.6908099e-05
0.00013169762
0.0001277747
0.00012158319
0.00011419684
0.00010502333
9.3309222e-05
7.8629326e-05
6.0952547e-05
4.0785967e-05
1.69081e-05
0.00013170044
0.0001277768
0.00012158392
0.00011419621
0.00010502187
9.330755e-05
7.8627927e-05
6.0951678e-05
4.0785638e-05
1.6908096e-05
0.00013170221
0.00012777797
0.00012158394
0.00011419513
0.00010502019
9.3305812e-05
7.8626547e-05
6.0950849e-05
4.0785332e-05
1.6908091e-05
0.00013170311
0.00012777836
0.00012158338
0.00011419372
0.00010501836
9.3304058e-05
7.862521e-05
6.095007e-05
4.078505e-05
1.6908083e-05
0.00013170326
0.00012777809
0.00012158235
0.00011419204
0.00010501645
9.3302323e-05
7.8623933e-05
6.0949344e-05
4.0784792e-05
1.6908074e-05
)
;

boundaryField
{
    water_inlet
    {
        type            calculated;
        value           uniform 4.1926275e-05;
    }
    water_outlet
    {
        type            calculated;
        value           nonuniform List<scalar> 10(0.00013170326 0.00012777809 0.00012158235 0.00011419204 0.00010501645 9.3302323e-05 7.8623933e-05 6.0949344e-05 4.0784792e-05 1.6908074e-05);
    }
    water_wedge1
    {
        type            wedge;
    }
    water_wedge2
    {
        type            wedge;
    }
    water_to_rock
    {
        type            nutkWallFunction;
        blending        stepwise;
        value           nonuniform List<scalar> 
100
(
1.7358471e-06
1.9240026e-06
1.9263124e-06
1.8751056e-06
1.8229116e-06
1.7867871e-06
1.7671183e-06
1.758465e-06
1.7555996e-06
1.7553226e-06
1.7561179e-06
1.7574035e-06
1.7590037e-06
1.7608813e-06
1.7630285e-06
1.7654322e-06
1.7680558e-06
1.7708584e-06
1.7738124e-06
1.7768949e-06
1.7800816e-06
1.7833458e-06
1.7866598e-06
1.7899947e-06
1.7933214e-06
1.7966091e-06
1.7998248e-06
1.8029322e-06
1.8058927e-06
1.8086663e-06
1.8112151e-06
1.8135065e-06
1.8155156e-06
1.8172283e-06
1.8186412e-06
1.8197619e-06
1.820607e-06
1.8212002e-06
1.8215698e-06
1.8217466e-06
1.8217619e-06
1.8216461e-06
1.8214274e-06
1.8211315e-06
1.820779e-06
1.8203875e-06
1.8199742e-06
1.8195535e-06
1.819137e-06
1.8187338e-06
1.8183506e-06
1.8179924e-06
1.8176623e-06
1.8173621e-06
1.8170924e-06
1.8168531e-06
1.8166435e-06
1.8164626e-06
1.816309e-06
1.816181e-06
1.8160765e-06
1.8159934e-06
1.8159294e-06
1.8158822e-06
1.8158498e-06
1.8158303e-06
1.8158217e-06
1.8158225e-06
1.815831e-06
1.8158457e-06
1.815865e-06
1.8158877e-06
1.8159124e-06
1.8159384e-06
1.8159648e-06
1.8159913e-06
1.8160173e-06
1.8160424e-06
1.8160663e-06
1.8160888e-06
1.8161095e-06
1.8161284e-06
1.8161453e-06
1.8161604e-06
1.8161735e-06
1.816185e-06
1.8161948e-06
1.816203e-06
1.8162099e-06
1.8162153e-06
1.8162196e-06
1.8162227e-06
1.8162248e-06
1.8162261e-06
1.8162267e-06
1.8162267e-06
1.8162263e-06
1.8162254e-06
1.8162244e-06
1.8162231e-06
)
;
    }
}


// ************************************************************************* //
