/*--------------------------------*- C++ -*----------------------------------*\
| =========                 |                                                 |
| \\      /  F ield         | OpenFOAM: The Open Source CFD Toolbox           |
|  \\    /   O peration     | Version:  2506                                  |
|   \\  /    A nd           | Website:  www.openfoam.com                      |
|    \\/     M anipulation  |                                                 |
\*---------------------------------------------------------------------------*/
FoamFile
{
    version     2.0;
    format      ascii;
    arch        "LSB;label=32;scalar=64";
    class       surfaceScalarField;
    location    "24000/water";
    object      phi;
}
// * * * * * * * * * * * * * * * * * * * * * * * * * * * * * * * * * * * * * //

dimensions      [1 0 -1 0 0 0 0];

oriented        oriented;

internalField   nonuniform List<scalar> 
1890
(
-4.1736244e-05
0.0022168351
-0.00015753621
0.0059586937
-0.00032930668
0.0087985477
-0.00054203242
0.010900937
-0.00078239502
0.012402155
-0.0010351825
0.013412336
-0.0012746193
0.014013996
-0.0014359745
0.014245356
-0.001284859
0.0140006
0.012745539
-3.1455818e-05
0.0022482909
-0.00011269721
0.0060399351
-0.00023219384
0.0089180443
-0.0003799942
0.011048737
-0.00054594253
0.012568103
-0.000716499
0.013582893
-0.00086674512
0.014164242
-0.00093361958
0.01431223
-0.00073394517
0.013800926
0.012011594
-2.9138816e-05
0.0022774298
-0.00010672992
0.0061175262
-0.00022105535
0.0090323698
-0.00036160319
0.011189285
-0.00051700129
0.012723501
-0.00067116209
0.013737054
-0.00079396125
0.014287042
-0.0008113967
0.014329666
-0.00056729833
0.013556828
0.011444295
-2.7339932e-05
0.0023047697
-0.00010102594
0.0061912122
-0.00020924232
0.0091405861
-0.00034097887
0.011321022
-0.00048374645
0.012866269
-0.00061911426
0.013872421
-0.00071088018
0.014378808
-0.00067659619
0.014295382
-0.00042025864
0.01330049
0.011024037
-2.5625237e-05
0.0023303949
-9.4386161e-05
0.0062599731
-0.00019506694
0.0092412669
-0.00031669864
0.011442653
-0.00044589491
0.012995465
-0.00056132349
0.01398785
-0.00061882638
0.01443631
-0.00053651129
0.014213067
-0.00029565421
0.013059633
0.010728383
-2.4159498e-05
0.0023545544
-8.8799523e-05
0.0063246131
-0.00018306054
0.0093355279
-0.00029574183
0.011555335
-0.00041210912
0.013111832
-0.00050662374
0.014082365
-0.00052703789
0.014456724
-0.00040878713
0.014094816
-0.00020043509
0.012851281
0.010527948
-2.2965481e-05
0.0023775199
-8.4333465e-05
0.0063859811
-0.00017335343
0.0094245478
-0.00027826874
0.01166025
-0.00038232736
0.013215891
-0.00045437979
0.014154417
-0.00043820705
0.014440552
-0.0003032186
0.013959827
-0.00013379001
0.012681852
0.010394158
-2.2023835e-05
0.0023995437
-8.0769766e-05
0.006444727
-0.00016540575
0.0095091838
-0.00026327211
0.011758116
-0.00035472731
0.013307346
-0.00040244436
0.014202134
-0.00035545963
0.014393567
-0.00022236985
0.013826738
-8.9855799e-05
0.012549338
0.010304302
-2.1260563e-05
0.0024208043
-7.7812593e-05
0.006501279
-0.00015855236
0.0095899235
-0.00024948551
0.011849049
-0.00032712294
0.013384984
-0.00034954682
0.014224558
-0.00028213
0.01432615
-0.00016300323
0.013707611
-6.1426804e-05
0.012447762
0.010242875
-2.0607142e-05
0.0024414114
-7.5216637e-05
0.0065558885
-0.00015223236
0.0096669393
-0.00023577787
0.011932595
-0.00029784683
0.013447052
-0.00029644862
0.01422316
-0.00022023993
0.014249941
-0.00011980624
0.013607177
-4.2690142e-05
0.012370646
0.010200185
-2.0018269e-05
0.0024614297
-7.2804642e-05
0.0066086749
-0.00014600124
0.0097401359
-0.00022120572
0.012007799
-0.00026613529
0.013491982
-0.00024531974
0.014202344
-0.00016974811
0.01417437
-8.7951564e-05
0.013525381
-2.9806007e-05
0.0123125
0.010170379
-1.9463523e-05
0.0024808932
-7.0441349e-05
0.0066596528
-0.00013947738
0.0098091719
-0.00020502178
0.012073344
-0.0002322807
0.013519241
-0.0001983844
0.014168448
-0.00012919683
0.014105182
-6.3917997e-05
0.013460102
-2.0485573e-05
0.012269068
0.010149893
-1.8918738e-05
0.002499812
-6.8008075e-05
0.0067087421
-0.00013229862
0.0098734625
-0.00018675551
0.012127801
-0.00019748134
0.013529967
-0.0001569797
0.014127946
-9.670012e-05
0.014044903
-4.5354937e-05
0.013408757
-1.3426721e-05
0.01223714
0.010136467
-1.8360393e-05
0.0025181724
-6.5381787e-05
0.0067557635
-0.00012410684
0.0099321875
-0.0001663343
0.012170028
-0.00016333259
0.013526965
-0.00012140654
0.01408602
-7.0530401e-05
0.013994027
-3.0720234e-05
0.013368947
-7.8898943e-06
0.012214309
0.010128577
-1.7761423e-05
0.0025359338
-6.2419612e-05
0.0068004217
-0.00011457673
0.0099843447
-0.00014416215
0.012199614
-0.00013123938
0.013514042
-9.1272597e-05
0.014046053
-4.9295612e-05
0.01395205
-1.8985797e-05
0.013338637
-3.4322714e-06
0.012198756
0.010125144
-1.7087922e-05
0.0025530217
-5.8952455e-05
0.0068422862
-0.00010349007
0.010028882
-0.00012105205
0.012217176
-0.00010208237
0.013495073
-6.5898096e-05
0.014009869
-3.1930898e-05
0.013918082
-9.4496547e-06
0.013316155
2.8772155e-07
0.012189018
0.010125432
-1.629647e-05
0.0025693182
-5.4793182e-05
0.0068807829
-9.0831973e-05
0.010064921
-9.799825e-05
0.012224342
-7.6209264e-05
0.013473284
-4.4571213e-05
0.013978231
-1.7626305e-05
0.013891137
-1.5564232e-06
0.013300086
3.3723211e-06
0.01218409
0.010128804
-1.5331784e-05
0.00258465
-4.9761981e-05
0.0069152131
-7.6852658e-05
0.010092012
-7.5898772e-05
0.012223388
-5.3589447e-05
0.013450974
-2.6635418e-05
0.013951277
-5.7265935e-06
0.013870229
4.9966995e-06
0.013289362
5.8486533e-06
0.012183238
0.010134653
-1.4126779e-05
0.0025987767
-4.3732889e-05
0.0069448192
-6.2044818e-05
0.010110324
-5.5380775e-05
0.012216724
-3.3987801e-05
0.013429581
-1.1514306e-05
0.013928804
4.2348153e-06
0.013854479
1.0365542e-05
0.013283231
7.8652045e-06
0.012185738
0.010142518
-1.2609208e-05
0.0026113859
-3.6695088e-05
0.0069689051
-4.7032323e-05
0.010120661
-3.6776926e-05
0.012206469
-1.708267e-05
0.013409887
1.3258528e-06
0.013910395
1.2524492e-05
0.013843281
1.4771622e-05
0.013280984
9.5141978e-06
0.012190995
0.010152032
-1.0718696e-05
0.0026221046
-2.8801221e-05
0.0069869876
-3.2421002e-05
0.010124281
-2.0182498e-05
0.01219423
-2.4822419e-06
0.013392187
1.217058e-05
0.013895742
1.9375559e-05
0.013836076
1.8388773e-05
0.013281971
1.0860995e-05
0.012198523
0.010162893
-8.4363028e-06
0.0026305409
-2.0369404e-05
0.0069989207
-1.8684703e-05
0.010122596
-5.5176e-06
0.012181063
1.0031708e-05
0.013376638
2.1197979e-05
0.013884576
2.5024846e-05
0.013832249
2.1346192e-05
0.01328565
1.195208e-05
0.012207917
0.010174846
-5.8188802e-06
0.0026363598
-1.182513e-05
0.007004927
-6.1098458e-06
0.010116881
7.2780976e-06
0.012167675
2.057244e-05
0.013363343
2.8686639e-05
0.013876462
2.9656525e-05
0.013831279
2.3740152e-05
0.013291566
1.2820575e-05
0.012218837
0.010187666
-3.0141442e-06
0.002639374
-3.5956883e-06
0.0070055085
5.1033505e-06
0.010108182
1.8191772e-05
0.012154587
2.9355479e-05
0.013352179
3.4841023e-05
0.013870976
3.3407878e-05
0.013832712
2.5641737e-05
0.013299332
1.3490675e-05
0.012230988
0.010201157
-2.3413549e-07
0.0026396081
3.9069684e-06
0.0070013674
1.4739998e-05
0.010097349
2.7284637e-05
0.012142042
3.6558881e-05
0.013342905
3.9811047e-05
0.013867724
3.6376011e-05
0.013836147
2.7099593e-05
0.013308609
1.397819e-05
0.012244109
0.010215135
2.2768891e-06
0.0026373312
1.0308244e-05
0.0069933361
2.2680708e-05
0.010084976
3.4654264e-05
0.012130068
4.2306562e-05
0.013335253
4.3694433e-05
0.013866336
3.8619204e-05
0.013841222
2.8139159e-05
0.013319089
1.4289176e-05
0.012257959
0.010229424
4.3215778e-06
0.0026330096
1.5394558e-05
0.0069822631
2.891948e-05
0.010071451
4.0371758e-05
0.012118616
4.6675512e-05
0.013328949
4.6543606e-05
0.013866468
4.0161239e-05
0.013847605
2.87644e-05
0.013330486
1.4420199e-05
0.012272303
0.010243844
5.8171256e-06
0.0026271925
1.9123318e-05
0.0069689569
3.3492428e-05
0.010057082
4.44986e-05
0.01210761
4.9714402e-05
0.013323733
4.8381537e-05
0.013867801
4.1002924e-05
0.013854983
2.8964998e-05
0.013342524
1.4361755e-05
0.012286907
0.010258206
6.775617e-06
0.0026204169
2.1562171e-05
0.0069541703
3.6486678e-05
0.010042158
4.7107975e-05
0.012096989
5.1466734e-05
0.013319375
4.9222003e-05
0.013870046
4.1137634e-05
0.013863068
2.8726657e-05
0.013354935
1.4103142e-05
0.01230153
0.010272309
7.2692598e-06
0.0026131476
2.2857479e-05
0.0069385821
3.8041965e-05
0.010026973
4.8302097e-05
0.012086729
5.1992486e-05
0.013315684
4.9090013e-05
0.013872948
4.0567966e-05
0.01387159
2.8042758e-05
0.01336746
1.3638561e-05
0.012315934
0.010285948
7.3946404e-06
0.002605753
2.3199175e-05
0.0069227776
3.8341891e-05
0.01001183
4.8219948e-05
0.01207685
5.1382418e-05
0.013312522
4.8037102e-05
0.013876293
3.9318963e-05
0.013880308
2.6923754e-05
0.013379855
1.2971667e-05
0.012329886
0.010298919
7.2477764e-06
0.0025985052
2.2789469e-05
0.0069072359
3.7597528e-05
0.0099970223
4.7034382e-05
0.012067414
4.9762565e-05
0.013309794
4.6148638e-05
0.013879907
3.7445369e-05
0.013889011
2.5402619e-05
0.013391898
1.2118395e-05
0.012343171
0.010311038
6.9116186e-06
0.0025915936
2.1820166e-05
0.0068923273
3.6028421e-05
0.009982814
4.494112e-05
0.012058501
4.7289289e-05
0.013307445
4.3542275e-05
0.013883654
3.5031498e-05
0.013897522
2.3534917e-05
0.013403394
1.1106786e-05
0.012355599
0.010322145
6.452357e-06
0.0025851412
2.0459624e-05
0.0068783201
3.3845891e-05
0.0099694278
4.2144288e-05
0.012050203
4.4138223e-05
0.013305451
4.0359742e-05
0.013887433
3.2185126e-05
0.013905697
2.1394408e-05
0.013414185
9.9744694e-06
0.012367019
0.010332119
5.9203301e-06
0.0025792209
1.884764e-05
0.0068653928
3.1241218e-05
0.0099570342
3.8842578e-05
0.012042601
4.0491125e-05
0.013303803
3.6755272e-05
0.013891169
2.90279e-05
0.013913424
1.90659e-05
0.013424147
8.7647884e-06
0.01237732
0.010340884
5.3526246e-06
0.0025738683
1.709549e-05
0.0068536499
2.8379039e-05
0.0099457506
3.5218416e-05
0.012035762
3.6523549e-05
0.013302498
3.2883538e-05
0.013894809
2.5684695e-05
0.013920623
1.6637154e-05
0.013433195
7.5222898e-06
0.012386435
0.010348406
4.7759253e-06
0.0025690924
1.5288783e-05
0.006843137
2.539517e-05
0.0099356442
3.143109e-05
0.012029726
3.2395397e-05
0.013301533
2.8889454e-05
0.013898315
2.2274195e-05
0.013927238
1.4191581e-05
0.013441277
6.2887941e-06
0.012394337
0.010354695
4.2090137e-06
0.0025648833
1.3491392e-05
0.0068338547
2.2397478e-05
0.0099267381
2.7613586e-05
0.01202451
2.8244933e-05
0.013300902
2.4900943e-05
0.013901659
1.8901876e-05
0.013933237
1.1802808e-05
0.013448376
5.1005591e-06
0.01240104
0.010359796
3.6647506e-06
0.0025612186
1.1749481e-05
0.0068257699
1.94685e-05
0.0099190191
2.3872252e-05
0.012020106
2.4185925e-05
0.013300588
2.1024711e-05
0.01390482
1.5655644e-05
0.013938606
9.5312619e-06
0.013454501
3.9864352e-06
0.012406584
0.010363782
3.1516273e-06
0.002558067
1.0095204e-05
0.0068188263
1.6668945e-05
0.0099124454
2.0288476e-05
0.012016486
2.0307474e-05
0.013300569
1.7344883e-05
0.013907782
1.2604171e-05
0.013943347
7.4229484e-06
0.013459682
2.9675628e-06
0.01241104
0.01036675
2.6748929e-06
0.0025553921
8.5497792e-06
0.0068129515
1.4041268e-05
0.0099069539
1.6921355e-05
0.012013606
1.667537e-05
0.013300815
1.3923442e-05
0.013910534
9.7969285e-06
0.013947474
5.5095344e-06
0.013463969
2.0573644e-06
0.012414492
0.010368807
2.2374404e-06
0.0025531546
7.1260802e-06
0.0068080628
1.161315e-05
0.0099024668
1.3810937e-05
0.012011409
1.3334707e-05
0.013301292
1.080221e-05
0.013913067
7.2658236e-06
0.01395101
3.8097415e-06
0.013467425
1.2626743e-06
0.012417039
0.01037007
1.8404359e-06
0.0025513142
5.8306738e-06
0.0068040726
9.4005704e-06
0.0098988969
1.0981563e-05
0.012009828
1.031296e-05
0.01330196
8.0056468e-06
0.013915374
5.0277012e-06
0.013953988
2.3314481e-06
0.013470122
5.849381e-07
0.012418786
0.010370655
1.4838148e-06
0.0025498304
4.6654367e-06
0.006800891
7.410421e-06
0.009896152
8.4448646e-06
0.012008793
7.6229986e-06
0.013302782
5.5435985e-06
0.013917454
3.0868281e-06
0.013956445
1.0746423e-06
0.013472134
3.2048784e-08
0.012419828
0.010370687
1.1665658e-06
0.0025486638
3.6285591e-06
0.006798429
5.6421485e-06
0.0098941384
6.2016953e-06
0.012008234
5.2649472e-06
0.013303719
3.4132613e-06
0.013919305
1.4380355e-06
0.01395842
4.0488843e-08
0.013473531
-4.1100351e-07
0.01242028
0.010370276
8.8704665e-07
0.0025477768
2.7156663e-06
0.0067966004
4.08988e-06
0.0098927642
4.2451421e-06
0.012008078
3.2301695e-06
0.013304734
1.6046499e-06
0.013920931
7.5639978e-08
0.013959949
-7.9483454e-07
0.013474402
-7.695016e-07
0.012420254
0.010369506
6.4323245e-07
0.0025471335
1.9208022e-06
0.0067953228
2.7444165e-06
0.0098919406
2.563674e-06
0.012008259
1.5057823e-06
0.013305792
1.073377e-07
0.013922329
-1.0288434e-06
0.013961085
-1.4644275e-06
0.013474837
-1.0482854e-06
0.012419838
0.010368458
4.3287611e-07
0.0025467007
1.2370334e-06
0.0067945186
1.5945445e-06
0.009891583
1.1434715e-06
0.01200871
7.8379988e-08
0.013306857
-1.1088745e-06
0.013923517
-1.9123661e-06
0.013961889
-1.9816599e-06
0.013474907
-1.2536126e-06
0.01241911
0.010367204
2.5364806e-07
0.002546447
6.5710112e-07
0.0067941152
6.2889811e-07
0.0098916113
-2.9602023e-08
0.012009369
-1.0815489e-06
0.013307909
-2.0814886e-06
0.013924516
-2.5948961e-06
0.013962402
-2.3613693e-06
0.013474673
-1.3934224e-06
0.012418142
0.010365811
1.0330065e-07
0.0025463437
1.7400934e-07
0.0067940445
-1.6594159e-07
0.0098919512
-9.8202251e-07
0.012010185
-2.0090161e-06
0.013308936
-2.8339365e-06
0.013925341
-3.0971588e-06
0.013962665
-2.6195623e-06
0.013474196
-1.4762463e-06
0.012416999
0.010364335
-2.0647958e-08
0.0025463644
-2.2147842e-07
0.0067942453
-8.0988978e-07
0.0098925396
-1.7427251e-06
0.012011118
-2.7271925e-06
0.01330992
-3.3897768e-06
0.013926004
-3.4408806e-06
0.013962716
-2.7727712e-06
0.013473527
-1.5108087e-06
0.012415737
0.010362824
-1.2122099e-07
0.0025464856
-5.4020332e-07
0.0067946643
-1.3217253e-06
0.0098933212
-2.3308868e-06
0.012012127
-3.2590704e-06
0.013310848
-3.77319e-06
0.013926518
-3.6480432e-06
0.013962591
-2.8374872e-06
0.013472717
-1.5056595e-06
0.012414405
0.010361318
-2.0121934e-07
0.0025466868
-7.9095534e-07
0.006795254
-1.7152496e-06
0.0098942455
-2.7659826e-06
0.012013177
-3.627786e-06
0.01331171
-4.0081282e-06
0.013926898
-3.7400952e-06
0.013962323
-2.8295455e-06
0.013471806
-1.4689243e-06
0.012413045
0.010359849
-2.6291438e-07
0.0025469497
-9.8121403e-07
0.0067959723
-2.0041138e-06
0.0098952684
-3.0670952e-06
0.01201424
-3.8557572e-06
0.013312499
-4.1174265e-06
0.01392716
-3.7371143e-06
0.013961943
-2.763483e-06
0.013470833
-1.40792e-06
0.012411689
0.010358441
-3.0843926e-07
0.0025472582
-1.1181785e-06
0.0067967821
-2.201457e-06
0.0098963516
-3.2524275e-06
0.012015291
-3.9640665e-06
0.013313211
-4.1221682e-06
0.013927318
-3.6572088e-06
0.013961478
-2.6520455e-06
0.013469828
-1.3288529e-06
0.012410366
0.010357112
-3.3981105e-07
0.002547598
-1.2086909e-06
0.006797651
-2.3197215e-06
0.0098974627
-3.3390277e-06
0.012016311
-3.9721633e-06
0.013313844
-4.0413976e-06
0.013927387
-3.5163145e-06
0.013960953
-2.50611e-06
0.013468817
-1.2368708e-06
0.012409097
0.010355875
-3.5891574e-07
0.0025479569
-1.2591631e-06
0.0067985512
-2.3705036e-06
0.009898574
-3.3426224e-06
0.012017283
-3.8976959e-06
0.013314399
-3.8920399e-06
0.013927382
-3.3282263e-06
0.013960389
-2.3347648e-06
0.013467824
-1.1360348e-06
0.012407898
0.010354739
-3.6752848e-07
0.0025483244
-1.2756014e-06
0.0067994593
-2.3645986e-06
0.009899663
-3.2777041e-06
0.012018196
-3.756715e-06
0.013314878
-3.6892306e-06
0.013927314
-3.1050396e-06
0.013959805
-2.1458157e-06
0.013466865
-1.0297748e-06
0.012406782
0.01035371
-3.6730883e-07
0.0025486917
-1.2636068e-06
0.0068003556
-2.3120216e-06
0.0099007114
-3.1576039e-06
0.012019042
-3.5638281e-06
0.013315284
-3.4465913e-06
0.013927197
-2.8575321e-06
0.013959216
-1.9461713e-06
0.013465953
-9.2111335e-07
0.012405757
0.010352789
-3.5979993e-07
0.0025490515
-1.2283812e-06
0.0068012242
-2.2220252e-06
0.0099017051
-2.9945499e-06
0.012019814
-3.332312e-06
0.013315622
-3.1763912e-06
0.013927041
-2.5953547e-06
0.013958635
-1.7420271e-06
0.0134651
-8.1279214e-07
0.012404828
0.010351976
-3.4643e-07
0.002549398
-1.1747201e-06
0.0068020525
-2.1030883e-06
0.0099026334
-2.7996418e-06
0.012020511
-3.0740997e-06
0.013315896
-2.8895525e-06
0.013926857
-2.3270459e-06
0.013958072
-1.5388806e-06
0.013464312
-7.0729669e-07
0.012403996
0.010351268
-3.2849259e-07
0.0025497265
-1.1069593e-06
0.0068028309
-1.9628136e-06
0.0099034893
-2.5827092e-06
0.012021131
-2.7995814e-06
0.013316113
-2.5954097e-06
0.013926652
-2.0597564e-06
0.013957537
-1.341238e-06
0.013463593
-6.0662797e-07
0.012403261
0.010350662
-3.0714055e-07
0.0025500336
-1.0289453e-06
0.0068035527
-1.8078588e-06
0.0099042682
-2.3522081e-06
0.012021675
-2.5174918e-06
0.013316278
-2.3015716e-06
0.013926437
-1.7990774e-06
0.013957034
-1.1524268e-06
0.013462947
-5.121537e-07
0.012402621
0.01035015
-2.83389e-07
0.002550317
-9.4402391e-07
0.0068042134
-1.6439282e-06
0.0099049681
-2.1152146e-06
0.012022146
-2.2349151e-06
0.013316398
-2.0139503e-06
0.013926216
-1.54909e-06
0.013956569
-9.7464393e-07
0.013462372
-4.2466306e-07
0.012402071
0.010349725
-2.5810876e-07
0.0025505751
-8.550439e-07
0.0068048103
-1.4757847e-06
0.0099055889
-1.8774859e-06
0.012022548
-1.9573996e-06
0.013316478
-1.7369194e-06
0.013925995
-1.3125327e-06
0.013956145
-8.0909457e-07
0.013461869
-3.4436874e-07
0.012401606
0.010349381
-2.3205307e-07
0.0025508071
-7.6442849e-07
0.0068053427
-1.3074064e-06
0.0099061318
-1.6437117e-06
0.012022884
-1.6893188e-06
0.013316524
-1.4737627e-06
0.01392578
-1.0912937e-06
0.013955762
-6.5645277e-07
0.013461434
-2.7128662e-07
0.012401221
0.010349109
-2.0586453e-07
0.002551013
-6.742223e-07
0.006805811
-1.1421012e-06
0.0099065997
-1.4177187e-06
0.01202316
-1.434158e-06
0.01331654
-1.2270154e-06
0.013925572
-8.8676715e-07
0.013955422
-5.171727e-07
0.013461064
-2.0537208e-07
0.012400909
0.010348904
-1.800868e-07
0.0025511931
-5.8614554e-07
0.0068062171
-9.8262009e-07
0.0099069962
-1.2026445e-06
0.01202338
-1.1947286e-06
0.013316532
-9.9870109e-07
0.013925376
-7.0007135e-07
0.013955123
-3.9165673e-07
0.013460756
-1.466581e-07
0.012400665
0.010348757
-1.5517638e-07
0.0025513483
-5.0162919e-07
0.0068065635
-8.3122232e-07
0.0099073258
-1.0010237e-06
0.01202355
-9.732653e-07
0.013316504
-7.9040288e-07
0.013925194
-5.3209464e-07
0.013954865
-2.8027918e-07
0.013460504
-9.5245496e-08
0.012400479
0.010348662
-1.3149668e-07
0.0025514798
-4.2180427e-07
0.0068068539
-6.8965514e-07
0.0099075936
-8.1474645e-07
0.012023675
-7.7133622e-07
0.013316461
-6.0311901e-07
0.013925025
-3.8328464e-07
0.013954645
-1.8314573e-07
0.013460304
-5.1134429e-08
0.012400347
0.010348611
-1.0932011e-07
0.0025515891
-3.475075e-07
0.006807092
-5.5915274e-07
0.0099078053
-6.4503098e-07
0.012023761
-5.8977053e-07
0.013316406
-4.3714518e-07
0.013924873
-2.5348763e-07
0.013954462
-9.9856825e-08
0.01346015
-1.357871e-08
0.012400261
0.010348597
-8.8841153e-08
0.0025516779
-2.7930534e-07
0.0068072825
-4.4047236e-07
0.0099079665
-4.9247116e-07
0.012023813
-4.2873263e-07
0.013316342
-2.921394e-07
0.013924736
-1.4195733e-07
0.013954312
-2.9270775e-08
0.013460038
1.7778708e-08
0.012400214
0.010348615
-7.0170576e-08
0.0025517481
-2.1749998e-07
0.0068074298
-3.3391394e-07
0.0099080829
-3.5707684e-07
0.012023836
-2.8773672e-07
0.013316273
-1.6709083e-07
0.013924615
-4.7159654e-08
0.013954192
2.9667773e-08
0.013459961
4.2779413e-08
0.012400201
0.010348658
-5.3365644e-08
0.0025518015
-1.6219346e-07
0.0068075387
-2.3943227e-07
0.0099081601
-2.3841339e-07
0.012023835
-1.6581853e-07
0.0133162
-6.0435166e-08
0.01392451
3.2372573e-08
0.013954099
7.7369883e-08
0.013459916
6.1998627e-08
0.012400216
0.01034872
-3.8426593e-08
0.0025518399
-1.1331536e-07
0.0068076135
-1.5669322e-07
0.0099082035
-1.356874e-07
0.012023814
-6.1570859e-08
0.013316126
2.9401189e-08
0.013924419
9.7365442e-08
0.013954031
1.1481751e-07
0.013459898
7.6485457e-08
0.012400255
0.010348796
-2.5323816e-08
0.0025518652
-7.0688396e-08
0.0068076589
-8.5188416e-08
0.009908218
-4.7850175e-08
0.012023776
2.631042e-08
0.013316052
1.0310773e-07
0.013924342
1.4876209e-07
0.013953985
1.4333311e-07
0.013459904
8.69539e-08
0.012400311
0.010348883
-1.399487e-08
0.0025518792
-3.4032549e-08
0.0068076789
-2.4207433e-08
0.0099082081
2.6037274e-08
0.012023726
9.840884e-08
0.013315979
1.6152323e-07
0.013924279
1.8801233e-07
0.013953959
1.6398897e-07
0.013459928
9.3940045e-08
0.012400381
0.010348977
-4.3432452e-09
0.0025518836
-2.9724525e-09
0.0068076776
2.6793603e-08
0.0099081784
8.6428414e-08
0.012023667
1.5548143e-07
0.01331591
2.0611186e-07
0.013924229
2.1639217e-07
0.013953948
1.7766316e-07
0.013459967
9.7841355e-08
0.012400461
0.010349075
3.7158685e-09
0.0025518798
2.2723459e-08
0.0068076586
6.8156391e-08
0.0099081329
1.3405236e-07
0.012023601
1.98949e-07
0.013315845
2.3830782e-07
0.013924189
2.3511587e-07
0.013953952
1.8517041e-07
0.013460017
9.9018833e-08
0.012400547
0.010349174
1.0252504e-08
0.0025518696
4.3286224e-08
0.0068076255
1.0053387e-07
0.0099080757
1.7014637e-07
0.012023531
2.3025131e-07
0.013315785
2.595387e-07
0.01392416
2.4538059e-07
0.013953966
1.873145e-07
0.013460075
9.7818094e-08
0.012400637
0.010349272
1.5387788e-08
0.0025518542
5.9188145e-08
0.0068075817
1.2486909e-07
0.00990801
1.9602507e-07
0.01202346
2.5091709e-07
0.01331573
2.7132512e-07
0.013924139
2.4847937e-07
0.013953989
1.8498839e-07
0.013460138
9.4687322e-08
0.012400727
0.010349367
1.9265177e-08
0.0025518349
7.0944224e-08
0.00680753
1.4212224e-07
0.0099079388
2.1302468e-07
0.012023389
2.6247797e-07
0.013315681
2.7517887e-07
0.013924127
2.456947e-07
0.013954018
1.7909741e-07
0.013460205
9.0051176e-08
0.012400816
0.010349457
2.2038908e-08
0.0025518129
7.9083549e-08
0.006807473
1.5326855e-07
0.0099078646
2.2248216e-07
0.01202332
2.6646048e-07
0.013315637
2.7259922e-07
0.013924121
2.3830325e-07
0.013954052
1.705503e-07
0.013460272
8.43818e-08
0.012400902
0.010349541
2.3855231e-08
0.002551789
8.4114127e-08
0.0068074127
1.5923264e-07
0.0099077895
2.2564991e-07
0.012023253
2.6426524e-07
0.013315598
2.6493334e-07
0.01392412
2.2742737e-07
0.01395409
1.6012771e-07
0.01346034
7.8065538e-08
0.012400984
0.010349619
2.485321e-08
0.0025517642
8.6512533e-08
0.0068073511
1.6086991e-07
0.0099077151
2.2366556e-07
0.01202319
2.5713973e-07
0.013315565
2.533591e-07
0.013924124
2.1402176e-07
0.013954129
1.4847073e-07
0.013460405
7.1393966e-08
0.012401061
0.010349691
2.5162885e-08
0.002551739
8.6714155e-08
0.0068072895
1.589471e-07
0.0099076429
2.1752493e-07
0.012023132
2.4614746e-07
0.013315536
2.3884501e-07
0.013924131
1.9884751e-07
0.013954169
1.3607655e-07
0.013460468
6.4615253e-08
0.012401133
0.010349755
2.4895503e-08
0.0025517141
8.5098491e-08
0.0068072293
1.5412181e-07
0.0099075739
2.0806719e-07
0.012023078
2.3215466e-07
0.013315512
2.2214686e-07
0.013924141
1.824486e-07
0.013954209
1.2324064e-07
0.013460527
5.779313e-08
0.012401198
0.010349813
2.4161051e-08
0.00255169
8.2016659e-08
0.0068071714
1.4699305e-07
0.0099075089
1.9603913e-07
0.012023029
2.1593045e-07
0.013315492
2.0392388e-07
0.013924153
1.6529993e-07
0.013954247
1.10236e-07
0.013460582
5.1078113e-08
0.012401257
0.010349864
2.3048643e-08
0.0025516669
7.7768973e-08
0.0068071167
1.3806791e-07
0.0099074486
1.8206912e-07
0.012022985
1.9809223e-07
0.013315476
1.8468564e-07
0.013924166
1.4773784e-07
0.013954284
9.7216434e-08
0.013460633
4.4446721e-08
0.01240131
0.010349908
2.1651556e-08
0.0025516453
7.2646616e-08
0.0068070657
1.2783699e-07
0.0099073934
1.6676325e-07
0.012022946
1.7926422e-07
0.013315464
1.6497145e-07
0.013924181
1.3015786e-07
0.013954319
8.4421252e-08
0.013460678
3.8038216e-08
0.012401356
0.010349947
2.004448e-08
0.0025516252
6.6900871e-08
0.0068070189
1.1672146e-07
0.0099073436
1.5064746e-07
0.012022912
1.599674e-07
0.013315454
1.452238e-07
0.013924195
1.1287352e-07
0.013954352
7.2016795e-08
0.013460719
3.1866564e-08
0.012401396
0.010349978
1.8307285e-08
0.0025516069
6.0779457e-08
0.0068069764
1.0514386e-07
0.0099072992
1.3424353e-07
0.012022883
1.4075219e-07
0.013315448
1.2593633e-07
0.01392421
9.6275318e-08
0.013954381
6.0282774e-08
0.013460755
2.6121323e-08
0.012401431
0.010350005
1.6496652e-08
0.0025515904
5.447937e-08
0.0068069384
9.3433387e-08
0.0099072603
1.1796534e-07
0.012022858
1.2202631e-07
0.013315444
1.0745759e-07
0.013924225
8.0617227e-08
0.013954408
4.9356254e-08
0.013460787
2.0816769e-08
0.012401459
0.010350025
1.4673974e-08
0.0025515757
4.819097e-08
0.0068069049
8.190983e-08
0.0099072266
1.0220031e-07
0.012022838
1.0419039e-07
0.013315442
9.0140187e-08
0.013924239
6.6176239e-08
0.013954432
3.9447639e-08
0.013460813
1.6099013e-08
0.012401483
0.010350041
1.2875584e-08
0.0025515629
4.2042654e-08
0.0068068757
7.078275e-08
0.0099071978
8.7196136e-08
0.012022822
8.7466728e-08
0.013315442
7.4153049e-08
0.013924252
5.3053897e-08
0.013954453
3.0581683e-08
0.013460836
1.1924133e-08
0.012401501
0.010350053
1.1140704e-08
0.0025515517
3.615099e-08
0.0068068507
6.0238212e-08
0.0099071737
7.3160205e-08
0.012022809
7.2045798e-08
0.013315443
5.9634141e-08
0.013924265
4.1331214e-08
0.013954471
2.2809444e-08
0.013460854
8.361091e-09
0.012401516
0.010350062
9.4868737e-09
0.0025515422
3.0577962e-08
0.0068068297
5.0363238e-08
0.009907154
6.0171617e-08
0.012022799
5.7958458e-08
0.013315445
4.6553959e-08
0.013924276
3.0930272e-08
0.013954487
1.6024684e-08
0.013460869
5.2975923e-09
0.012401526
0.010350067
7.9300249e-09
0.0025515343
2.5367661e-08
0.0068068122
4.1218476e-08
0.0099071381
4.8277321e-08
0.012022792
4.5218631e-08
0.013315448
3.4886168e-08
0.013924286
2.1790135e-08
0.0139545
1.0162373e-08
0.013460881
2.7000554e-09
0.012401534
0.01035007
6.4872254e-09
0.0025515278
2.0554177e-08
0.0068067982
3.286503e-08
0.0099071258
3.7584254e-08
0.012022787
3.3984977e-08
0.013315452
2.4828076e-08
0.013924296
1.4117251e-08
0.013954511
5.3959091e-09
0.01346089
6.7250865e-10
0.012401539
0.01035007
2.9302951e-09
9.2558434e-09
1.468625e-08
1.6580695e-08
1.4726772e-08
1.0434827e-08
5.642175e-09
1.9216678e-09
1.5724916e-10
)
;

boundaryField
{
    water_inlet
    {
        type            calculated;
        value           nonuniform List<scalar> 10(-0.0021750989 -0.0058428937 -0.0086267772 -0.010688211 -0.012161792 -0.013159549 -0.01377456 -0.014084001 -0.014151716 -0.014030398);
    }
    water_outlet
    {
        type            calculated;
        value           nonuniform List<scalar> 10(0.0025515249 0.0068067919 0.0099071204 0.012022785 0.013315454 0.0139243 0.013954516 0.013460893 0.012401541 0.010350071);
    }
    water_wedge1
    {
        type            wedge;
        value           nonuniform List<scalar> 
1000
(
-1.1295959e-13
-1.4267232e-13
-1.1216095e-13
-1.0631751e-13
-9.9354304e-14
-9.3386679e-14
-8.8691549e-14
-8.495407e-14
-8.1976487e-14
-7.9488798e-14
-7.7283026e-14
-7.5241336e-14
-7.3265652e-14
-7.127614e-14
-6.9184801e-14
-6.6858652e-14
-6.4131359e-14
-6.0813263e-14
-5.6669939e-14
-5.141372e-14
-4.4793749e-14
-3.6656857e-14
-2.7077741e-14
-1.6557328e-14
-5.8610044e-15
4.0636708e-15
1.2368661e-14
1.8668048e-14
2.2898075e-14
2.5300207e-14
2.6228137e-14
2.600899e-14
2.5023354e-14
2.3514864e-14
2.1684944e-14
1.9701182e-14
1.7627582e-14
1.5588495e-14
1.3611994e-14
1.1727282e-14
9.9960174e-15
8.393699e-15
6.9307794e-15
5.6166414e-15
4.4390546e-15
3.4045945e-15
2.4978949e-15
1.7075715e-15
1.0448163e-15
4.8245857e-16
9.7536073e-18
-3.6859576e-16
-6.7374525e-16
-9.1240055e-16
-1.0818858e-15
-1.2026526e-15
-1.2894987e-15
-1.3292983e-15
-1.3306053e-15
-1.312771e-15
-1.2658096e-15
-1.2005753e-15
-1.1291585e-15
-1.0465131e-15
-9.612452e-16
-8.645037e-16
-7.6625845e-16
-6.7383098e-16
-5.8316285e-16
-5.0203314e-16
-4.1589384e-16
-3.3699802e-16
-2.6926374e-16
-2.1114802e-16
-1.592942e-16
-1.0744255e-16
-6.1671464e-17
-2.661794e-17
6.699546e-18
3.0811385e-17
4.667987e-17
6.3563348e-17
7.3277212e-17
7.6572946e-17
8.2497659e-17
8.822596e-17
8.4065242e-17
8.7548847e-17
8.2797418e-17
7.4777024e-17
6.7565348e-17
6.1417321e-17
5.942625e-17
4.8941096e-17
4.4509704e-17
3.5917227e-17
2.8007066e-17
2.810961e-17
2.3924822e-17
1.086559e-17
-6.8081145e-13
-1.0335427e-12
-8.3928859e-13
-7.975281e-13
-7.493989e-13
-7.031374e-13
-6.6536431e-13
-6.3522925e-13
-6.1093651e-13
-5.905277e-13
-5.7245012e-13
-5.5560585e-13
-5.3912457e-13
-5.2219889e-13
-5.0397507e-13
-4.8343211e-13
-4.5934271e-13
-4.3018848e-13
-3.9436779e-13
-3.5055581e-13
-2.9814004e-13
-2.3765498e-13
-1.7103162e-13
-1.0155095e-13
-3.3366427e-14
2.8948658e-14
8.1481844e-14
1.2214464e-13
1.5063462e-13
1.6797406e-13
1.7589854e-13
1.7635538e-13
1.7126642e-13
1.6227383e-13
1.5073343e-13
1.3769817e-13
1.2392918e-13
1.1003883e-13
9.6440188e-14
8.343659e-14
7.1225261e-14
5.990494e-14
4.9550989e-14
4.0193995e-14
3.1833e-14
2.4426109e-14
1.7934467e-14
1.2312355e-14
7.5068958e-15
3.4639998e-15
1.1413641e-16
-2.6197227e-15
-4.8060529e-15
-6.5010619e-15
-7.7675588e-15
-8.6579716e-15
-9.2192766e-15
-9.4975663e-15
-9.5356396e-15
-9.3813597e-15
-9.0660381e-15
-8.6168314e-15
-8.0793072e-15
-7.47723e-15
-6.8308572e-15
-6.1625173e-15
-5.4821878e-15
-4.8084292e-15
-4.1551674e-15
-3.5419522e-15
-2.9617121e-15
-2.41827e-15
-1.921693e-15
-1.4776941e-15
-1.0847821e-15
-7.3513807e-16
-4.2719172e-16
-1.6870058e-16
4.6498186e-17
2.2444096e-16
3.6374496e-16
4.7315618e-16
5.4765536e-16
5.9740485e-16
6.2926311e-16
6.4113282e-16
6.4049681e-16
6.2809318e-16
5.9847063e-16
5.6144678e-16
5.2091203e-16
4.7753158e-16
4.3419605e-16
3.85042e-16
3.3401732e-16
2.8994322e-16
2.5054681e-16
2.1270116e-16
1.751787e-16
9.9858861e-17
3.1339118e-12
4.8023014e-12
3.9072341e-12
3.7113876e-12
3.4900549e-12
3.2689348e-12
3.0860206e-12
2.9387807e-12
2.817615e-12
2.7124753e-12
2.6152685e-12
2.5197159e-12
2.4205057e-12
2.3123536e-12
2.189491e-12
2.0461107e-12
1.8774898e-12
1.681099e-12
1.4574308e-12
1.2105611e-12
9.4810211e-13
6.8017134e-13
4.1759289e-13
1.701903e-13
-5.3301061e-14
-2.4552792e-13
-4.0214699e-13
-5.2202751e-13
-6.0636485e-13
-6.5807851e-13
-6.8131245e-13
-6.8089291e-13
-6.6177938e-13
-6.2868191e-13
-5.8578466e-13
-5.3662702e-13
-4.8410911e-13
-4.3048733e-13
-3.7748391e-13
-3.2636506e-13
-2.7801499e-13
-2.3301913e-13