/*--------------------------------*- C++ -*----------------------------------*\
| =========                 |                                                 |
| \\      /  F ield         | OpenFOAM: The Open Source CFD Toolbox           |
|  \\    /   O peration     | Version:  2506                                  |
|   \\  /    A nd           | Website:  www.openfoam.com                      |
|    \\/     M anipulation  |                                                 |
\*---------------------------------------------------------------------------*/
FoamFile
{
    version     2.0;
    format      ascii;
    arch        "LSB;label=32;scalar=64";
    class       volScalarField;
    location    "24000/water";
    object      T;
}
// * * * * * * * * * * * * * * * * * * * * * * * * * * * * * * * * * * * * * //

dimensions      [0 0 0 1 0 0 0];

internalField   nonuniform List<scalar> 
1000
(
333.15
333.15
333.15
333.14999
333.14998
333.14991
333.14966
333.14882
333.14553
333.13086
333.15
333.15
333.14999
333.14998
333.14992
333.14971
333.14908
333.14712
333.14017
333.11776
333.15
333.15
333.14999
333.14995
333.14981
333.14941
333.14828
333.14495
333.13442
333.10791
333.15
333.14999
333.14997
333.14989
333.14966
333.149
333.14725
333.14232
333.12873
333.10034
333.14999
333.14998
333.14995
333.14982
333.14945
333.14848
333.14595
333.13923
333.12343
333.09464
333.14999
333.14997
333.14991
333.14972
333.14918
333.14781
333.14431
333.13576
333.11874
333.09053
333.14998
333.14996
333.14986
333.14958
333.14883
333.14695
333.1423
333.13211
333.11477
333.08762
333.14997
333.14993
333.1498
333.1494
333.14838
333.14585
333.13993
333.12857
333.11149
333.08557
333.14996
333.1499
333.14971
333.14918
333.14781
333.14448
333.13732
333.12531
333.10882
333.08411
333.14994
333.14986
333.1496
333.14888
333.14706
333.14282
333.13463
333.12243
333.10662
333.08303
333.14991
333.1498
333.14945
333.1485
333.14612
333.14092
333.132
333.11992
333.1048
333.08223
333.14987
333.14973
333.14926
333.148
333.14496
333.13887
333.12954
333.11775
333.10328
333.08161
333.14982
333.14963
333.14901
333.14736
333.14358
333.13675
333.12729
333.11586
333.10199
333.08113
333.14976
333.14951
333.14868
333.14655
333.14202
333.13467
333.12524
333.11421
333.10088
333.08076
333.14968
333.14934
333.14825
333.14556
333.14033
333.13267
333.1234
333.11275
333.09993
333.08048
333.14957
333.14912
333.1477
333.1444
333.13859
333.13079
333.12173
333.11147
333.0991
333.08025
333.14942
333.14882
333.147
333.14308
333.13684
333.12903
333.12022
333.11031
333.09837
333.08007
333.14922
333.14843
333.14615
333.14164
333.13513
333.1274
333.11884
333.10928
333.09771
333.07993
333.14894
333.14793
333.14513
333.14014
333.13348
333.12588
333.11759
333.10834
333.09713
333.07982
333.14858
333.14728
333.14397
333.1386
333.13191
333.12447
333.11643
333.10748
333.0966
333.07973
333.14809
333.14647
333.14268
333.13707
333.13041
333.12316
333.11537
333.1067
333.09612
333.07966
333.14744
333.1455
333.14131
333.13555
333.12898
333.12193
333.11438
333.10597
333.09567
333.07959
333.1466
333.14436
333.13987
333.13407
333.12762
333.12077
333.11346
333.10529
333.09526
333.07952
333.14556
333.14307
333.13841
333.13263
333.12634
333.11969
333.11259
333.10465
333.09486
333.07946
333.1443
333.14166
333.13692
333.13124
333.12511
333.11866
333.11177
333.10404
333.09449
333.07939
333.14285
333.14015
333.13544
333.12988
333.12393
333.11768
333.11099
333.10346
333.09412
333.07931
333.14124
333.13856
333.13396
333.12857
333.1228
333.11674
333.11024
333.1029
333.09376
333.07922
333.13951
333.13693
333.13249
333.12728
333.12171
333.11584
333.10952
333.10236
333.09341
333.07911
333.13772
333.13527
333.13103
333.12603
333.12065
333.11496
333.10882
333.10182
333.09305
333.07899
333.1359
333.13361
333.12959
333.1248
333.11962
333.11411
333.10813
333.10129
333.09268
333.07884
333.1341
333.13197
333.12817
333.1236
333.11861
333.11327
333.10745
333.10076
333.09231
333.07867
333.13233
333.13035
333.12677
333.12242
333.11762
333.11244
333.10677
333.10023
333.09192
333.07848
333.13061
333.12877
333.12541
333.12125
333.11664
333.11162
333.10609
333.09969
333.09152
333.07825
333.12894
333.12723
333.12407
333.12012
333.11567
333.11081
333.10542
333.09914
333.0911
333.078
333.12734
333.12575
333.12277
333.119
333.11472
333.11
333.10474
333.09858
333.09066
333.07771
333.1258
333.12432
333.12151
333.1179
333.11378
333.1092
333.10405
333.09801
333.0902
333.07739
333.12433
333.12294
333.12028
333.11683
333.11285
333.1084
333.10336
333.09742
333.08971
333.07704
333.12292
333.12161
333.11908
333.11578
333.11193
333.1076
333.10267
333.09682
333.08921
333.07666
333.12158
333.12033
333.11792
333.11475
333.11103
333.1068
333.10197
333.0962
333.08868
333.07625
333.12028
333.1191
333.1168
333.11375
333.11013
333.106
333.10126
333.09558
333.08814
333.07581
333.11904
333.11791
333.11571
333.11276
333.10924
333.1052
333.10054
333.09494
333.08758
333.07534
333.11784
333.11677
333.11465
333.11179
333.10837
333.10441
333.09982
333.09429
333.08699
333.07484
333.11669
333.11566
333.11361
333.11084
333.1075
333.10362
333.0991
333.09362
333.08639
333.07433
333.11558
333.11459
333.1126
333.10991
333.10664
333.10282
333.09837
333.09295
333.08578
333.07379
333.11451
333.11354
333.11162
333.10899
333.10579
333.10203
333.09763
333.09227
333.08515
333.07323
333.11347
333.11253
333.11066
333.10809
333.10494
333.10125
333.09689
333.09158
333.08451
333.07265
333.11246
333.11155
333.10972
333.1072
333.10411
333.10046
333.09615
333.09088
333.08386
333.07206
333.11147
333.11058
333.1088
333.10633
333.10328
333.09967
333.0954
333.09017
333.0832
333.07145
333.11051
333.10964
333.10789
333.10546
333.10245
333.09889
333.09466
333.08946
333.08252
333.07083
333.10958
333.10872
333.107
333.1046
333.10163
333.0981
333.09391
333.08875
333.08184
333.0702
333.10866
333.10782
333.10612
333.10376
333.10082
333.09732
333.09316
333.08803
333.08116
333.06955
333.10775
333.10693
333.10525
333.10292
333.10001
333.09654
333.0924
333.0873
333.08046
333.0689
333.10687
333.10605
333.1044
333.10209
333.09921
333.09576
333.09165
333.08658
333.07976
333.06823
333.10599
333.10519
333.10355
333.10126
333.0984
333.09498
333.09089
333.08584
333.07906
333.06756
333.10513
333.10433
333.10271
333.10045
333.09761
333.09421
333.09014
333.08511
333.07835
333.06688
333.10428
333.10349
333.10188
333.09963
333.09681
333.09343
333.08938
333.08437
333.07763
333.06619
333.10344
333.10265
333.10106
333.09882
333.09602
333.09265
333.08863
333.08364
333.07692
333.06549
333.1026
333.10183
333.10024
333.09802
333.09523
333.09188
333.08787
333.08289
333.07619
333.06479
333.10178
333.101
333.09943
333.09722
333.09444
333.09111
333.08711
333.08215
333.07547
333.06408
333.10096
333.10019
333.09862
333.09642
333.09366
333.09034
333.08635
333.08141
333.07474
333.06337
333.10014
333.09938
333.09782
333.09563
333.09287
333.08956
333.08559
333.08066
333.074
333.06265
333.09933
333.09857
333.09702
333.09484
333.09209
333.08879
333.08483
333.07991
333.07327
333.06192
333.09853
333.09777
333.09622
333.09405
333.09131
333.08802
333.08407
333.07917
333.07253
333.06119
333.09773
333.09697
333.09543
333.09326
333.09053
333.08725
333.08331
333.07841
333.07179
333.06046
333.09693
333.09617
333.09464
333.09248
333.08976
333.08648
333.08255
333.07766
333.07104
333.05972
333.09613
333.09538
333.09385
333.09169
333.08898
333.08572
333.08179
333.07691
333.07029
333.05897
333.09534
333.09459
333.09306
333.09091
333.0882
333.08495
333.08103
333.07615
333.06954
333.05822
333.09455
333.0938
333.09228
333.09013
333.08743
333.08418
333.08027
333.07539
333.06878
333.05746
333.09376
333.09302
333.09149
333.08935
333.08666
333.08341
333.0795
333.07463
333.06803
333.05669
333.09298
333.09223
333.09071
333.08857
333.08588
333.08264
333.07874
333.07387
333.06726
333.05592
333.09219
333.09145
333.08993
333.08779
333.08511
333.08187
333.07797
333.0731
333.0665
333.05514
333.09141
333.09066
333.08915
333.08702
333.08433
333.0811
333.0772
333.07234
333.06572
333.05436
333.09062
333.08988
333.08837
333.08624
333.08356
333.08033
333.07643
333.07157
333.06495
333.05357
333.08984
333.0891
333.08759
333.08546
333.08278
333.07955
333.07566
333.07079
333.06417
333.05277
333.08906
333.08832
333.08681
333.08468
333.08201
333.07878
333.07488
333.07002
333.06338
333.05196
333.08828
333.08754
333.08603
333.08391
333.08123
333.078
333.07411
333.06924
333.06259
333.05115
333.0875
333.08676
333.08525
333.08313
333.08046
333.07723
333.07333
333.06845
333.0618
333.05033
333.08672
333.08598
333.08447
333.08235
333.07968
333.07645
333.07255
333.06766
333.061
333.04949
333.08594
333.0852
333.0837
333.08157
333.0789
333.07567
333.07176
333.06687
333.06019
333.04865
333.08516
333.08442
333.08292
333.08079
333.07812
333.07489
333.07098
333.06607
333.05938
333.0478
333.08438
333.08364
333.08214
333.08001
333.07734
333.0741
333.07018
333.06527
333.05856
333.04694
333.0836
333.08286
333.08136
333.07923
333.07655
333.07331
333.06939
333.06446
333.05773
333.04607
333.08282
333.08208
333.08057
333.07845
333.07577
333.07252
333.06859
333.06365
333.05689
333.04518
333.08204
333.0813
333.07979
333.07766
333.07498
333.07173
333.06779
333.06283
333.05605
333.04428
333.08126
333.08052
333.07901
333.07688
333.07419
333.07093
333.06698
333.06201
333.05519
333.04337
333.08047
333.07973
333.07822
333.07609
333.07339
333.07013
333.06616
333.06117
333.05433
333.04244
333.07969
333.07895
333.07744
333.0753
333.0726
333.06932
333.06534
333.06034
333.05346
333.0415
333.0789
333.07816
333.07665
333.0745
333.0718
333.06851
333.06452
333.05949
333.05257
333.04054
333.07812
333.07737
333.07586
333.07371
333.07099
333.06769
333.06369
333.05863
333.05168
333.03956
333.07733
333.07658
333.07506
333.07291
333.07018
333.06687
333.06285
333.05776
333.05077
333.03857
333.07654
333.07579
333.07426
333.07211
333.06937
333.06605
333.062
333.05689
333.04985
333.03755
333.07575
333.075
333.07346
333.0713
333.06855
333.06521
333.06115
333.056
333.04891
333.0365
333.07495
333.0742
333.07266
333.07049
333.06773
333.06437
333.06028
333.0551
333.04795
333.03543
333.07415
333.0734
333.07186
333.06967
333.0669
333.06353
333.05941
333.05419
333.04698
333.03433
333.07335
333.07259
333.07104
333.06885
333.06607
333.06267
333.05852
333.05326
333.04598
333.0332
333.07255
333.07178
333.07023
333.06802
333.06522
333.0618
333.05763
333.05232
333.04497
333.03202
333.07174
333.07097
333.06941
333.06719
333.06437
333.06093
333.05672
333.05136
333.04392
333.0308
333.07092
333.07015
333.06858
333.06635
333.06351
333.06004
333.05579
333.05038
333.04284
333.02951
333.07011
333.06933
333.06775
333.0655
333.06264
333.05914
333.05485
333.04936
333.04171
333.02812
333.06928
333.06851
333.06691
333.06465
333.06176
333.05823
333.05388
333.04831
333.04051
333.02655
)
;

boundaryField
{
    water_inlet
    {
        type            fixedValue;
        value           uniform 333.15;
    }
    water_outlet
    {
        type            zeroGradient;
    }
    water_wedge1
    {
        type            wedge;
    }
    water_wedge2
    {
        type            wedge;
    }
    water_to_rock
    {
        type            compressible::turbulentTemperatureRadCoupledMixed;
        refValue        nonuniform List<scalar> 
100
(
315.05135
319.2983
321.14677
322.24595
323.01601
323.60671
324.08563
324.48827
324.8354
325.14013
325.41127
325.65502
325.87588
326.07723
326.26169
326.43131
326.58774
326.73233
326.86624
326.99041
327.1057
327.21282
327.31241
327.40506
327.49128
327.57152
327.64621
327.71575
327.78047
327.8407
327.89676
327.9489
327.99738
328.04245
328.08432
328.1232
328.15929
328.19274
328.22374
328.25244
328.27897
328.30347
328.32606
328.34686
328.36597
328.38349
328.3995
328.41408
328.42732
328.43927
328.45
328.45956
328.46801
328.47539
328.48173
328.48707
328.49145
328.49488
328.49738
328.49897
328.49966
328.49946
328.49837
328.49639
328.4935
328.48971
328.48499
328.47933
328.4727
328.46507
328.4564
328.44667
328.43583
328.42381
328.41058
328.39607
328.3802
328.3629
328.34409
328.32367
328.30155
328.2776
328.25169
328.22369
328.19343
328.16074
328.12539
328.08716
328.04575
328.00083
327.95197
327.89864
327.84016
327.77559
327.70359
327.62212
327.52775
327.4138
327.26392
327.02108
)
;
        refGradient     uniform 0;
        valueFraction   nonuniform List<scalar> 
100
(
0.015817679
0.014384089
0.014368103
0.014731051
0.015120365
0.015402091
0.015559942
0.015630418
0.015653896
0.015656169
0.015649643
0.015639106
0.015626011
0.015610674
0.015593171
0.015573623
0.015552343
0.015529677
0.015505857
0.015481078
0.015455543
0.015429475
0.0154031
0.01537665
0.015350356
0.015324457
0.01529921
0.015274891
0.015251795
0.015230219
0.015210445
0.015192714
0.015177201
0.015164002
0.015153129
0.015144517
0.015138029
0.015133478
0.015130644
0.015129288
0.015129171
0.015130059
0.015131735
0.015134004
0.015136708
0.015139713
0.015142886
0.015146118
0.015149318
0.015152418
0.015155364
0.015158119
0.01516066
0.015162971
0.015165048
0.015166892
0.015168506
0.0151699
0.015171084
0.01517207
0.015172876
0.015173516
0.01517401
0.015174374
0.015174624
0.015174775
0.015174841
0.015174834
0.015174768
0.015174655
0.015174506
0.015174332
0.015174141
0.015173942
0.015173737
0.015173533
0.015173332
0.015173138
0.015172953
0.01517278
0.015172621
0.015172475
0.015172345
0.015172229
0.015172127
0.015172039
0.015171963
0.015171899
0.015171847
0.015171804
0.015171772
0.015171748
0.015171732
0.015171722
0.015171718
0.015171718
0.015171721
0.015171728
0.015171736
0.015171746
)
;
        source          uniform 0;
        value           nonuniform List<scalar> 
100
(
332.84488
332.91898
332.93605
332.94044
332.94225
332.94446
332.94755
332.95119
332.95498
332.95868
332.96218
332.96547
332.96855
332.97143
332.97415
332.9767
332.9791
332.98136
332.98348
332.98547
332.98733
332.98907
332.99069
332.9922
332.99361
332.9949
332.9961
332.99719
332.99818
332.99906
332.99985
333.00055
333.00114
333.00164
333.00205
333.00236
333.0026
333.00275
333.00283
333.00283
333.00277
333.00265
333.00248
333.00225
333.00198
333.00166
333.0013
333.00091
333.00048
333.00003
332.99954
332.99903
332.99849
332.99793
332.99734
332.99674
332.99611
332.99547
332.9948
332.99412
332.99342
332.9927
332.99196
332.9912
332.99043
332.98963
332.98882
332.98798
332.98713
332.98626
332.98536
332.98444
332.9835
332.98253
332.98154
332.98052
332.97946
332.97838
332.97727
332.97612
332.97494
332.97372
332.97245
332.97114
332.96979
332.96838
332.96691
332.96539
332.9638
332.96213
332.96039
332.95855
332.95661
332.95455
332.95234
332.94994
332.94731
332.94431
332.94067
332.93544
)
;
        logInterval     -1;
        writePrecision  8;
        updateHeader    1;
        writeToFile     0;
        useUserTime     1;
        kappaMethod     fluidThermo;
    }
}


// ************************************************************************* //
