/*--------------------------------*- C++ -*----------------------------------*\
| =========                 |                                                 |
| \\      /  F ield         | OpenFOAM: The Open Source CFD Toolbox           |
|  \\    /   O peration     | Version:  2506                                  |
|   \\  /    A nd           | Website:  www.openfoam.com                      |
|    \\/     M anipulation  |                                                 |
\*---------------------------------------------------------------------------*/
FoamFile
{
    version     2.0;
    format      ascii;
    arch        "LSB;label=32;scalar=64";
    class       volVectorField;
    location    "24000/water";
    object      U;
}
// * * * * * * * * * * * * * * * * * * * * * * * * * * * * * * * * * * * * * //

dimensions      [0 1 -1 0 0 0 0];

internalField   nonuniform List<vector> 
1000
(
(0.25225587 -0.00012859766 1.8812719e-18)
(0.25226258 -0.00027067835 3.4600879e-19)
(0.25227485 -0.00041450539 1.8091299e-18)
(0.25228819 -0.00055572716 4.7482528e-19)
(0.25229018 -0.00068575789 4.9981791e-19)
(0.25223998 -0.00079863172 6.1816031e-21)
(0.25200713 -0.00089615194 -3.3695329e-20)
(0.25115686 -0.0010460356 -3.4071444e-19)
(0.24780473 -0.0012820719 -8.8533431e-20)
(0.23308261 0.0010121611 -4.3745205e-19)
(0.25653043 -7.7330439e-05 2.1573652e-19)
(0.25653977 -0.00018903828 4.0814051e-19)
(0.25655871 -0.00029096534 2.3487329e-18)
(0.25657276 -0.00039024483 1.0006474e-18)
(0.25654377 -0.00048175034 3.8042425e-19)
(0.25636039 -0.00055898437 -4.8183665e-20)
(0.25570613 -0.00060536492 -1.4999299e-19)
(0.25355952 -0.00065441357 -5.2315103e-19)
(0.24574266 -0.0008472477 -2.3492585e-19)
(0.21968686 0.0002571881 -4.8180037e-19)
(0.26021787 -7.3909955e-05 -1.2647071e-18)
(0.26022468 -0.00018059827 -3.5184557e-19)
(0.26023383 -0.00027741902 8.4263527e-19)
(0.26021807 -0.00037159729 8.9802565e-19)
(0.26010153 -0.00045735753 -2.2238027e-20)
(0.25968006 -0.00053044564 -2.5010557e-19)
(0.25840621 -0.00057093034 -2.7901482e-19)
(0.25452353 -0.00056554653 -4.4054583e-19)
(0.24186464 -0.00061987616 -3.8914119e-19)
(0.20839343 1.1253149e-05 -4.9164595e-19)
(0.26340526 -6.8945965e-05 9.5500911e-19)
(0.26340956 -0.00017058504 4.0331722e-19)
(0.26340597 -0.0002627922 4.6268826e-19)
(0.2633478 -0.00035138354 5.4277254e-19)
(0.26310913 -0.00042951114 3.3710889e-20)
(0.26237281 -0.00049394939 -3.9663491e-19)
(0.26030371 -0.00052750863 -3.4475474e-19)
(0.25430843 -0.0004928971 -3.9485299e-19)
(0.23723184 -0.0004593405 -3.9526959e-19)
(0.1995885 -4.8875843e-05 -3.9879668e-19)
(0.26641628 -6.4388954e-05 -1.7369275e-18)
(0.26641556 -0.00015946872 1.0433143e-18)
(0.266392 -0.00024539858 9.9568453e-19)
(0.26627267 -0.00032748768 5.449944e-19)
(0.26586988 -0.00039791753 1.7009164e-19)
(0.26472851 -0.00045250626 1.4194224e-19)
(0.26164537 -0.00047360825 -1.1870218e-19)
(0.25321241 -0.00041483714 -3.7749897e-19)
(0.23271018 -0.00033459154 -4.1130942e-19)
(0.19329527 -5.0633805e-05 -3.3857624e-19)
(0.26927574 -6.0867518e-05 -7.7861562e-19)
(0.26926716 -0.00015024326 7.826168e-19)
(0.26921481 -0.00023070444 1.3569187e-18)
(0.26901237 -0.00030702744 5.8227839e-19)
(0.26839647 -0.00037050028 2.3602153e-19)
(0.26673517 -0.00041493307 4.7101458e-19)
(0.26236785 -0.00041871956 -1.7365234e-20)
(0.25136273 -0.00033835167 -2.7060198e-19)
(0.22869804 -0.00023663001 -1.5094324e-19)
(0.18902138 -3.9495916e-05 -2.212419e-19)
(0.27197991 -5.8057511e-05 2.4328146e-18)
(0.27196007 -0.0001428713 2.304109e-18)
(0.2718683 -0.00021894829 4.6928885e-19)
(0.2715565 -0.00029030353 5.2704985e-19)
(0.27066608 -0.00034729008 9.9519618e-20)
(0.26833153 -0.00038068339 3.1306579e-20)
(0.26239848 -0.00036437368 -2.0101163e-19)
(0.24902637 -0.00026852618 -1.3745329e-19)
(0.225361 -0.00016272848 -7.1653331e-20)
(0.18616828 -2.8774895e-05 -1.8782137e-19)
(0.27455816 -5.5861805e-05 -3.4869202e-19)
(0.27452281 -0.00013703204 1.981614e-18)
(0.27437848 -0.00020952008 4.3436172e-19)
(0.27392442 -0.00027640499 4.8681354e-19)
(0.27267857 -0.00032682098 1.4776177e-19)
(0.26947687 -0.00034738451 1.163237e-19)
(0.26178465 -0.000310927 1.4408203e-20)
(0.24657377 -0.00020816886 -1.4287336e-19)
(0.22271519 -0.0001105011 -3.2028489e-19)
(0.18425841 -2.0836632e-05 -2.488883e-19)
(0.27704027 -5.4085718e-05 9.6064176e-19)
(0.27698407 -0.00013225435 4.608102e-19)
(0.27677058 -0.00020162574 1.0378528e-18)
(0.27613171 -0.00026417296 2.5331926e-19)
(0.27442313 -0.00030720607 7.6483395e-21)
(0.27014172 -0.00031294811 2.3967056e-20)
(0.26068996 -0.00025925834 -5.3925986e-21)
(0.24429829 -0.00015836497 -8.1991218e-20)
(0.22067582 -7.5408882e-05 6.4608939e-20)
(0.18296201 -1.5153622e-05 -3.401985e-20)
(0.2794434 -5.2555742e-05 2.7976555e-18)
(0.27935955 -0.00012814134 1.3869089e-18)
(0.27905543 -0.00019460753 4.7471649e-19)
(0.27817576 -0.00025259249 4.3600664e-19)
(0.27586798 -0.00028673488 2.1896472e-19)
(0.27032644 -0.00027659273 7.9057084e-22)
(0.25933499 -0.00021094123 -1.1548665e-19)
(0.24234212 -0.00011891327 3.463337e-21)
(0.21912382 -5.2172955e-05 -1.6115046e-20)
(0.182066 -1.0946249e-05 -1.3807613e-19)
(0.28177654 -5.1166626e-05 2.0459632e-18)
(0.28165619 -0.00012441965 8.2420374e-19)
(0.2812333 -0.00018797292 9.3449452e-20)
(0.28003902 -0.00024077456 1.1635423e-18)
(0.276974 -0.00026417659 3.9645891e-19)
(0.27008763 -0.00023880434 1.5607703e-19)
(0.25792266 -0.00016762359 -7.8032343e-20)
(0.24073178 -8.8481882e-05 -1.1064878e-19)
(0.2179502 -3.6446454e-05 -2.1937231e-19)
(0.18143936 -7.6997731e-06 -1.8019765e-19)
(0.28404476 -4.9854717e-05 2.2885827e-18)
(0.28387625 -0.00012089412 8.6621552e-19)
(0.2832974 -0.00018132895 5.644587e-21)
(0.28169345 -0.00022787693 6.6408017e-19)
(0.27771474 -0.0002389736 1.4174208e-19)
(0.2695351 -0.00020087514 -6.1898506e-20)
(0.25659136 -0.00013036465 -7.7539752e-20)
(0.23943779 -6.5170996e-05 -2.3768007e-19)
(0.21706901 -2.5325392e-05 -1.3218804e-19)
(0.18100324 -5.1222209e-06 -1.4627384e-19)
(0.28625048 -4.8572047e-05 1.1678794e-18)
(0.28601827 -0.00011740083 7.049814e-19)
(0.28523427 -0.00017430175 -2.7956803e-20)
(0.28310494 -0.00021314166 5.2049626e-19)
(0.27809439 -0.00021129023 2.6867856e-19)
(0.26879941 -0.00016439763 -1.6645834e-20)
(0.25541091 -9.9328823e-05 -3.1071703e-20)
(0.23841399 -4.7155337e-05 -1.209138e-19)
(0.21641538 -1.7078691e-05 -2.1306584e-19)
(0.18070894 -3.0435782e-06 -1.5473605e-19)
(0.28839354 -4.7270946e-05 8.6325108e-21)
(0.28807682 -0.00011377569 7.8236572e-19)
(0.28702341 -0.00016645965 3.1876671e-19)
(0.28424078 -0.00019602568 4.4902572e-19)
(0.27815549 -0.00018188491 2.9464112e-19)
(0.267996 -0.00013078928 -7.6637305e-20)
(0.25440306 -7.3936771e-05 -3.6533564e-19)
(0.23761476 -3.3003674e-05 -1.0858595e-19)
(0.21594074 -1.0715936e-05 -2.4638043e-19)
(0.1805245 -1.3527413e-06 -2.3410246e-19)
(0.29047097 -4.5891413e-05 1.4157507e-18)
(0.29004194 -0.00010982897 3.0233714e-18)
(0.28863778 -0.00015729274 5.0642212e-19)
(0.28508024 -0.00017633797 -1.5440353e-19)
(0.27797083 -0.00015188645 1.4036234e-19)
(0.26720625 -0.00010094594 1.6611859e-19)
(0.25356401 -5.3258064e-05 -8.5624738e-20)
(0.23700054 -2.1698074e-05 -1.2392326e-19)
(0.21560862 -5.6592536e-06 -8.6040811e-20)
(0.18042759 3.4154037e-08 -8.6901871e-20)
(0.29247637 -4.4351508e-05 2.0546754e-18)
(0.2918983 -0.00010531322 2.6953054e-19)
(0.2900463 -0.00014628161 4.0652157e-19)
(0.2856247 -0.00015430579 5.0877341e-19)
(0.27762408 -0.00012253851 4.1370785e-19)
(0.26647732 -7.5146896e-05 1.4649996e-19)
(0.25287923 -3.6356847e-05 2.9467538e-19)
(0.23653862 -1.2543548e-05 -7.1303076e-20)
(0.21539112 -1.5270073e-06 -6.6993196e-20)
(0.18040206 1.2059694e-06 9.0409635e-20)
(0.294399 -4.2542638e-05 1.9460218e-19)
(0.29362439 -9.9894463e-05 2.5813467e-19)
(0.29121908 -0.00013303006 6.3506025e-19)
(0.28590171 -0.00013054498 3.2536233e-19)
(0.27719084 -9.4943656e-05 1.0115228e-19)
(0.26583133 -5.3197846e-05 -1.9872998e-19)
(0.25233096 -2.2452318e-05 2.1828076e-20)
(0.23620235 -5.0199566e-06 -3.8103863e-20)
(0.21526452 1.8978612e-06 -1.640182e-19)
(0.18043776 2.1936928e-06 -1.9738654e-19)
(0.29622247 -4.0322333e-05 -3.6665279e-19)
(0.29519257 -9.3155487e-05 6.2890162e-19)
(0.29213501 -0.00011739333 6.9294833e-19)
(0.28595986 -0.00010594409 7.4809421e-19)
(0.2767282 -6.9858134e-05 3.2381669e-19)
(0.26527515 -3.4650399e-05 3.1455306e-19)
(0.2519011 -1.0911912e-05 -1.1027392e-19)
(0.23596807 1.2308096e-06 -1.2747472e-19)
(0.21521693 4.7052467e-06 -1.7509393e-19)
(0.18052217 2.9882699e-06 -1.9627027e-19)
(0.29792334 -3.7501479e-05 1.6158009e-18)
(0.29657067 -8.4660888e-05 9.2554206e-19)
(0.29278916 -9.9553167e-05 1.2689265e-19)
(0.28585701 -8.1497806e-05 7.6632273e-19)
(0.27627357 -4.7621458e-05 7.2258703e-19)
(0.26480714 -1.898622e-05 4.5722839e-19)
(0.25157194 -1.2562594e-06 -3.8784063e-19)
(0.23582161 6.4183873e-06 -3.3169989e-19)
(0.21523437 6.9874132e-06 -2.3184919e-19)
(0.18064613 3.6196294e-06 -2.8830402e-19)
(0.29946982 -3.384187e-05 -8.7395676e-20)
(0.29772603 -7.4080923e-05 1.5085965e-18)
(0.29319629 -8.0021036e-05 -4.708794e-19)
(0.28564805 -5.8127722e-05 -1.4646034e-18)
(0.27584862 -2.8227285e-05 -3.9530035e-19)
(0.26442122 -5.6923908e-06 -3.7989218e-19)
(0.25132938 6.8541545e-06 -2.5889827e-19)
(0.23575038 1.070289e-05 -7.7470462e-20)
(0.21530523 8.8434044e-06 -1.3700099e-19)
(0.18080241 4.1228199e-06 -9.5127112e-20)
(0.30082185 -2.9095093e-05 -3.8320203e-19)
(0.29863176 -6.1332805e-05 1.0931273e-18)
(0.29338825 -5.9568048e-05 -6.1435256e-19)
(0.2853772 -3.6523539e-05 -8.9587273e-19)
(0.27546385 -1.1417973e-05 -7.846421e-19)
(0.26410766 5.6158329e-06 -3.1785933e-19)
(0.25116541 1.362283e-05 -1.0909263e-19)
(0.23574181 1.421922e-05 -1.2810059e-19)
(0.21542009 1.0354386e-05 -1.1912244e-19)
(0.18098515 4.5260671e-06 1.4870341e-19)
(0.30193376 -2.310879e-05 2.342757e-18)
(0.2992734 -4.6684867e-05 1.2096619e-18)
(0.29340605 -3.9091709e-05 -3.4714813e-19)
(0.28507549 -1.704738e-05 1.1568329e-18)
(0.27512089 3.0844496e-06 1.5194491e-18)
(0.26386445 1.5141258e-05 8.2166944e-19)
(0.25106783 1.9211066e-05 3.456016e-19)
(0.2357854 1.7095988e-05 7.0178796e-20)
(0.21557118 1.1581782e-05 5.2743828e-20)
(0.18118944 4.8480903e-06 3.0752237e-20)
(0.30276112 -1.597677e-05 -1.7611023e-18)
(0.29965289 -3.0772836e-05 -1.1256023e-18)
(0.29329057 -1.9435637e-05 -3.2413859e-19)
(0.28476121 1.6879884e-07 -7.0230338e-19)
(0.27482456 1.5442161e-05 6.3906864e-19)
(0.26368338 2.3073292e-05 -1.1009338e-21)
(0.25102649 2.3804371e-05 3.6769701e-19)
(0.2358724 1.9436338e-05 3.1909132e-19)
(0.21575199 1.2566628e-05 2.3324169e-19)
(0.18141107 5.0996987e-06 1.7631231e-19)
(0.30327135 -8.1276703e-06 -3.5676139e-20)
(0.29978735 -1.4485704e-05 9.5097251e-19)
(0.29307478 -1.3048256e-06 -5.0532592e-19)
(0.28444917 1.5040307e-05 -9.8125761e-19)
(0.27457432 2.5804986e-05 -8.4787594e-19)
(0.26355614 2.9614763e-05 -3.7330273e-19)
(0.25103261 2.7545884e-05 -2.570594e-19)
(0.23599543 2.1312578e-05 -1.9183522e-20)
(0.21595698 1.3337187e-05 7.6688011e-20)
(0.18164633 5.2879454e-06 1.1595945e-19)
(0.30345397 -2.4234836e-07 -1.0355054e-18)
(0.29970263 1.1329028e-06 1.843201e-19)
(0.29278636 1.4662223e-05 -3.8996586e-19)
(0.28414892 2.7525516e-05 -5.8230387e-19)
(0.27436558 3.4336322e-05 -7.1961995e-19)
(0.26347495 3.4929373e-05 -3.3076845e-19)
(0.25107851 3.0535524e-05 -1.0807815e-19)
(0.23614811 2.2773707e-05 5.7770942e-20)
(0.21618131 1.3912444e-05 1.7182237e-19)
(0.18189185 5.41718e-06 1.4586316e-19)
(0.30332513 6.8806318e-06 -3.2254866e-18)
(0.29943295 1.4984203e-05 -2.6235709e-18)
(0.29244688 2.7992979e-05 -1.3888453e-18)
(0.28386231 3.767529e-05 -2.4513228e-18)
(0.27419302 4.1185423e-05 -1.4706996e-18)
(0.26343257 3.912597e-05 -1.3514155e-18)
(0.2511573 3.2834045e-05 -1.9210811e-19)
(0.23632475 2.3847268e-05 -1.4008241e-20)
(0.21642058 1.4301422e-05 1.6800383e-19)
(0.18214447 5.4885099e-06 2.3857233e-19)
(0.30293053 1.2606393e-05 3.4246726e-18)
(0.29901532 2.6251775e-05 -2.6810568e-19)
(0.29206924 3.850646e-05 -1.2423485e-18)
(0.28358877 4.5587976e-05 -2.1565632e-19)
(0.27405096 4.6449937e-05 7.0211751e-19)
(0.26342221 4.2264728e-05 1.3572956e-19)
(0.25126272 3.4470045e-05 -1.2695874e-19)
(0.23652015 2.4541636e-05 -1.2810736e-19)
(0.21667064 1.4503289e-05 -1.0079552e-19)
(0.18240105 5.4996803e-06 -4.7369868e-20)
(0.30233167 1.6685746e-05 1.5199942e-18)
(0.29848535 3.4599973e-05 4.2937727e-20)
(0.29166296 4.6230334e-05 -3.0015334e-19)
(0.28332654 5.1359057e-05 -2.1348651e-19)
(0.27393383 5.0193869e-05 2.3845448e-19)
(0.26343756 4.4377193e-05 4.6818652e-19)
(0.25138895 3.5451461e-05 -5.4867785e-20)
(0.23672934 2.4852146e-05 -1.1723005e-19)
(0.21692736 1.4510423e-05 -1.5828178e-19)
(0.18265833 5.4462266e-06 -8.5099624e-20)
(0.30159328 1.918194e-05 1.6084786e-18)
(0.29787662 4.0084046e-05 3.0504953e-18)
(0.29123638 5.1326913e-05 1.8028762e-19)
(0.28307386 5.5102886e-05 -5.2945273e-21)
(0.2738365 5.2478063e-05 -9.7494563e-19)
(0.26347282 4.5487023e-05 -4.3037451e-19)
(0.25153053 3.5779198e-05 -3.7891986e-19)
(0.23694749 2.4769866e-05 -1.9734357e-19)
(0.21718656 1.4313245e-05 -9.2462731e-20)
(0.18291282 5.3232242e-06 -3.5236036e-20)
(0.3007741 2.0344139e-05 -3.8131589e-19)
(0.29721996 4.3030169e-05 1.9918802e-18)
(0.29079791 5.4063908e-05 2.7358655e-19)
(0.28282963 5.6975864e-05 6.652297e-19)
(0.2737546 5.3383693e-05 -2.706976e-19)
(0.26352282 4.5628835e-05 -7.0584695e-19)
(0.25168237 3.5461522e-05 -1.9104387e-19)
(0.23716991 2.4291523e-05 -3.5124341e-20)
(0.21744399 1.3906048e-05 -2.7125154e-20)
(0.18316086 5.1274997e-06 -2.9314255e-20)
(0.29992224 2.0484201e-05 -5.075022e-18)
(0.29654263 4.3899816e-05 -3.0943369e-18)
(0.29035626 5.4781766e-05 -8.9978161e-19)
(0.28259384 5.7183176e-05 -1.434231e-18)
(0.27368474 5.3025799e-05 -5.3928961e-19)
(0.26358307 4.4861933e-05 -8.0157631e-19)
(0.25183983 3.452548e-05 -1.0772333e-19)
(0.23739211 2.3427627e-05 7.9012867e-21)
(0.21769543 1.3291825e-05 5.5764183e-21)
(0.18339878 4.8594278e-06 1.2575944e-20)
(0.29907423 1.9897149e-05 2.0072388e-18)
(0.29586746 4.3180205e-05 -4.2906015e-20)
(0.28992021 5.3856147e-05 -1.6462562e-20)
(0.28236749 5.5970591e-05 2.3691532e-19)
(0.27362455 5.1555757e-05 1.0366672e-18)
(0.26364988 4.3276276e-05 6.3862477e-19)
(0.25199879 3.3022949e-05 -3.6949973e-20)
(0.23760991 2.2207109e-05 -9.124201e-20)
(0.21793689 1.248517e-05 -7.441579e-20)
(0.18362305 4.5240558e-06 -1.2216178e-19)
(0.29825614 1.8826434e-05 1.7353152e-18)
(0.29521262 4.1316917e-05 1.4811787e-18)
(0.28949796 5.1662277e-05 4.8701769e-20)
(0.28215234 5.3606839e-05 3.9074274e-19)
(0.27357254 4.9154093e-05 5.6850118e-19)
(0.26372034 4.099028e-05 4.445948e-19)
(0.25215571 3.1030375e-05 1.9413146e-19)
(0.2378196 2.067754e-05 -1.5729742e-19)
(0.21816473 1.1512498e-05 -1.577129e-19)
(0.18383055 4.1311586e-06 -1.3640195e-19)
(0.29748541 1.7457977e-05 1.5470123e-18)
(0.29459164 3.8683731e-05 3.6352588e-18)
(0.28909667 4.8547654e-05 9.5596939e-19)
(0.28195052 5.0363443e-05 2.3626365e-19)
(0.27352797 4.6017621e-05 -9.5632979e-19)
(0.26379222 3.8142703e-05 6.7764913e-20)
(0.25230769 2.8643453e-05 -1.7489225e-19)
(0.23801802 1.8901581e-05 -1.0100968e-19)
(0.21837594 1.0409908e-05 -8.3427083e-20)
(0.18401878 3.6943802e-06 -1.1405832e-19)
(0.29677289 1.5927381e-05 2.0060988e-18)
(0.29401393 3.5576918e-05 2.0992605e-18)
(0.28872207 4.4815608e-05 1.4917649e-18)
(0.28176411 4.649723e-05 -2.2225834e-19)
(0.27349054 4.2345232e-05 -5.7537084e-19)
(0.26386387 3.4881747e-05 1.83577e-19)
(0.25245241 2.5968949e-05 -1.6313782e-19)
(0.23820265 1.6951149e-05 -3.9182743e-20)
(0.21856817 9.2195456e-06 -2.4741514e-20)
(0.18418594 3.2297689e-06 -2.9386346e-20)
(0.29612446 1.4330713e-05 -2.9966749e-18)
(0.29348538 3.2222102e-05 -3.8482463e-18)
(0.28837833 4.0718594e-05 -1.1053235e-18)
(0.28159489 4.2238024e-05 -1.6870533e-18)
(0.27346017 3.8325403e-05 -9.8236304e-19)
(0.26393414 3.1354123e-05 -7.0858476e-19)
(0.25258815 2.3115792e-05 7.5144749e-20)
(0.23837165 1.4900795e-05 6.947744e-20)
(0.21873986 7.9853927e-06 9.0233665e-20)
(0.18433107 2.754077e-06 1.7859982e-19)
(0.29554245 1.2734578e-05 2.3001288e-18)
(0.29300903 2.878588e-05 -9.5391893e-19)
(0.28806807 3.6458506e-05 -2.0224845e-19)
(0.28144414 3.7781936e-05 1.4660041e-18)
(0.27343686 3.412713e-05 1.511055e-18)
(0.26400216 2.7696043e-05 5.9854982e-19)
(0.2527137 2.0187253e-05 3.1228644e-19)
(0.23852382 1.2821698e-05 2.6566617e-19)
(0.21889018 6.749377e-06 2.0138555e-19)
(0.18445397 2.283176e-06 1.0601771e-19)
(0.29502659 1.1184188e-05 9.8976368e-19)
(0.29258574 2.5387941e-05 6.8043115e-19)
(0.28779256 3.2191197e-05 3.8724918e-19)
(0.28131252 3.3289406e-05 1.0143131e-18)
(0.27342051 2.9894715e-05 1.5437171e-18)
(0.26406733 2.4027064e-05 9.3093761e-19)
(0.25282826 1.7275188e-05 5.1242671e-19)
(0.23865858 1.077717e-05 3.0072803e-19)
(0.21901905 5.5484753e-06 1.2219809e-19)
(0.18455516 1.8309026e-06 7.7970735e-20)
(0.2945749 9.7093459e-06 1.8096999e-18)
(0.29221469 2.2111737e-05 3.8390223e-18)
(0.28755187 2.8032818e-05 9.7326032e-19)
(0.28120012 2.8886456e-05 4.2133419e-19)
(0.2734109 2.5745754e-05 -3.848141e-19)
(0.26412921 2.0446675e-05 1.7259338e-19)
(0.25293145 1.4456506e-05 4.816215e-20)
(0.23877584 8.8197826e-06 1.7038138e-19)
(0.21912697 4.4128401e-06 1.1306344e-19)
(0.18463572 1.4082924e-06 6.3389048e-20)
(0.29418416 8.3288385e-06 6.8554844e-18)
(0.29189389 1.9013326e-05 4.199049e-18)
(0.28734517 2.4066685e-05 2.7184809e-18)
(0.28110651 2.4668037e-05 2.6094125e-18)
(0.27340761 2.1771723e-05 1.5013009e-18)
(0.26418744 1.7033422e-05 8.7411607e-19)
(0.25302315 1.1791841e-05 3.3171115e-19)
(0.238876 6.9902835e-06 1.6476222e-19)
(0.21921495 3.365177e-06 1.8367771e-19)
(0.18469721 1.0233887e-06 -4.5106116e-20)
(0.29385042 7.053521e-06 2.1408899e-18)
(0.29162051 1.6128207e-05 6.3425659e-19)
(0.28717087 2.0349594e-05 3.6847899e-18)
(0.2810308 2.0702148e-05 2.8773193e-18)
(0.27341012 1.8039973e-05 1.9439562e-18)
(0.26424177 1.3845564e-05 1.7810644e-18)
(0.25310353 9.3256334e-06 1.1258171e-18)
(0.23895978 5.3175675e-06 4.9737489e-19)
(0.21928439 2.4207621e-06 4.7996191e-19)
(0.18474148 6.8125436e-07 1.3098535e-19)
(0.29356927 5.8886052e-06 8.3828055e-19)
(0.29139116 1.3476685e-05 1.5589212e-18)
(0.28702689 1.6917484e-05 2.0489919e-18)
(0.28097178 1.7034293e-05 2.6468596e-18)
(0.27341773 1.4596719e-05 2.2885621e-18)
(0.264292 1.0923005e-05 1.9560899e-18)
(0.25317294 7.0874437e-06 1.3375249e-18)
(0.23902821 3.8196964e-06 8.7572426e-19)
(0.21933693 1.5882129e-06 5.8692447e-19)
(0.18477054 3.8435701e-07 3.5734278e-19)
(0.29333609 4.8352741e-06 1.3126521e-18)
(0.29120217 1.1067918e-05 3.2745925e-18)
(0.28691081 1.3790187e-05 3.6315337e-18)
(0.28092799 1.3691756e-05 4.3868627e-18)
(0.2734297 1.1470401e-05 3.5607183e-18)
(0.264338 8.2898514e-06 1.8461585e-18)
(0.2532319 5.0939771e-06 1.4735217e-18)
(0.23908248 2.5054926e-06 9.8486011e-19)
(0.21937439 8.7065552e-07 6.6330471e-19)
(0.18478649 1.3309891e-07 5.3814317e-19)
(0.29314621 3.8918821e-06 5.5798069e-19)
(0.29104971 8.9029706e-06 3.7275663e-18)
(0.28681999 1.0975267e-05 4.0364184e-18)
(0.28089783 1.0687324e-05 4.4888357e-18)
(0.27344522 8.674826e-06 3.6816109e-18)
(0.26437968 5.9569219e-06 2.3223276e-18)
(0.25328105 3.3508629e-06 1.7046615e-18)
(0.23912394 1.3755552e-06 1.0880537e-18)
(0.21939864 2.7179775e-07 7.1368634e-19)
(0.1847914 -6.9741739e-08 4.7592355e-19)
(0.29299501 3.0546398e-06 1.9092913e-18)
(0.29092992 6.976711e-06 1.1595698e-18)
(0.28675172 8.4704991e-06 1.1075496e-19)
(0.28087961 8.0217041e-06 1.1128031e-18)
(0.2734635 6.2111337e-06 2.2767432e-18)
(0.26441701 3.9232611e-06 1.7108221e-18)
(0.25332109 1.854659e-06 1.4534167e-18)
(0.23915393 4.2937342e-07 1.1949719e-18)
(0.21941124 -2.1343194e-07 6.4077555e-19)
(0.18478765 -2.2829228e-07 4.0722294e-19)
(0.29287805 2.3183795e-06 1.1326511e-18)
(0.29083903 5.2797962e-06 1.0522389e-18)
(0.28670329 6.2667243e-06 3.0215945e-18)
(0.28087166 5.6868293e-06 7.34473e-19)
(0.27348375 4.071338e-06 4.8141205e-19)
(0.26445004 2.1804912e-06 1.7183609e-18)
(0.25335275 6.0041053e-07 1.4496246e-18)
(0.23917356 -3.4232443e-07 1.2385689e-18)
(0.21941461 -6.0352001e-07 1.0947079e-18)
(0.18477677 -3.5367195e-07 7.5144849e-19)
(0.2927911 1.677167e-06 1.2123816e-18)
(0.29077344 3.8003612e-06 2.2733178e-18)
(0.28667208 4.3504348e-06 3.0667442e-18)
(0.28087235 3.6691902e-06 2.0861982e-18)
(0.27350523 2.2427383e-06 1.5292966e-18)
(0.26447878 7.1942312e-07 1.7362934e-18)
(0.2533766 -4.2635776e-07 1.6844153e-18)
(0.23918484 -9.6270955e-07 1.4476908e-18)
(0.21941035 -9.1244289e-07 1.2274626e-18)
(0.18476024 -4.5071536e-07 9.2186481e-19)
(0.29273019 1.1246382e-06 3.386763e-18)
(0.29072972 2.5249694e-06 2.9715925e-18)
(0.28665556 2.7053942e-06 3.5588668e-18)
(0.28088012 1.9525666e-06 4.3717314e-18)
(0.27352725 7.1225378e-07 3.5953569e-18)
(0.26450318 -4.7859108e-07 1.5626368e-18)
(0.253394 -1.2534028e-06 1.5429037e-18)
(0.23918903 -1.451137e-06 1.5495437e-18)
(0.21939992 -1.1468815e-06 1.3140962e-18)
(0.18473943 -5.2112949e-07 1.0163911e-18)
(0.2926916 6.5427098e-07 7.6816557e-19)
(0.29070463 1.4396424e-06 2.819951e-18)
(0.28665137 1.3152742e-06 2.8637091e-18)
(0.28089346 5.2140103e-07 3.0870767e-18)
(0.27354903 -5.4224219e-07 3.1714893e-18)
(0.2645239 -1.444613e-06 2.4337111e-18)
(0.25340577 -1.904659e-06 1.9187014e-18)
(0.23918731 -1.8202205e-06 1.5981894e-18)
(0.21938464 -1.3135193e-06 1.3814015e-18)
(0.18471558 -5.6730811e-07 1.0839861e-18)
(0.29267189 2.5996647e-07 1.9392538e-19)
(0.2906952 5.3143349e-07 1.7854173e-18)
(0.28665721 1.6292458e-07 2.1412789e-19)
(0.28091093 -6.4961583e-07 1.1165923e-18)
(0.2735705 -1.5540562e-06 2.3111792e-18)
(0.26454118 -2.205957e-06 2.4097156e-18)
(0.25341265 -2.3975949e-06 2.0438846e-18)
(0.23918075 -2.0823518e-06 1.5696302e-18)
(0.21936573 -1.4203608e-06 1.2271826e-18)
(0.18468979 -5.9234234e-07 1.0114533e-18)
(0.29266786 -6.4774508e-08 2.2774003e-18)
(0.29069859 -2.1549123e-07 1.5459128e-18)
(0.28667108 -7.7674983e-07 2.650402e-18)
(0.28093164 -1.5931717e-06 1.7107221e-18)
(0.27359126 -2.3516359e-06 1.284968e-18)
(0.26455525 -2.7836031e-06 2.118957e-18)
(0.25341533 -2.7495436e-06 1.7381674e-18)
(0.23917036 -2.2509996e-06 1.5350015e-18)
(0.21934425 -1.4759452e-06 1.477134e-18)
(0.18466299 -5.995159e-07 1.1303593e-18)
(0.29267664 -3.2801498e-07 1.5188941e-18)
(0.29071239 -8.2043331e-07 2.2735098e-18)
(0.28669132 -1.5303095e-06 2.3875656e-18)
(0.28095458 -2.3348307e-06 2.1892769e-18)
(0.27361098 -2.9573219e-06 1.6479374e-18)
(0.26456636 -3.1984298e-06 1.9749401e-18)
(0.25341451 -2.9787922e-06 1.8606052e-18)
(0.23915704 -2.339972e-06 1.6990889e-18)
(0.21932115 -1.4887778e-06 1.5525032e-18)
(0.18463596 -5.9205978e-07 1.1915668e-18)
(0.29269573 -5.3722387e-07 1.8417467e-18)
(0.29073445 -1.2999955e-06 2.9374238e-18)
(0.28671638 -2.1181303e-06 2.2798514e-18)
(0.28097886 -2.8964183e-06 1.8291877e-18)
(0.27362942 -3.3935121e-06 1.5540689e-18)
(0.26457479 -3.4717588e-06 1.7168957e-18)
(0.2534108 -3.1035201e-06 1.864935e-18)
(0.23914159 -2.3626727e-06 1.8497577e-18)
(0.21929721 -1.4670096e-06 1.5431217e-18)
(0.18460934 -5.7304621e-07 1.2157694e-18)
(0.2927229 -6.9838312e-07 2.5968183e-18)
(0.29076286 -1.6680599e-06 1.7161948e-18)
(0.28674489 -2.5588305e-06 1.3778458e-18)
(0.28100374 -3.2993491e-06 4.2480739e-19)
(0.27364642 -3.6823085e-06 1.0966113e-19)
(0.26458082 -3.6241939e-06 9.8416348e-19)
(0.25340478 -3.1409293e-06 1.4168379e-18)
(0.23912472 -2.3315669e-06 1.7071981e-18)
(0.21927308 -1.4181407e-06 1.4028185e-18)
(0.18458362 -5.4529053e-07 1.180713e-18)
(0.29275617 -8.1712221e-07 8.7233525e-20)
(0.29079592 -1.9377082e-06 1.3960169e-18)
(0.28677567 -2.8702667e-06 2.9694027e-18)
(0.28102859 -3.5642069e-06 1.4074803e-18)
(0.27366185 -3.8446645e-06 1.303782e-18)
(0.26458474 -3.6748978e-06 6.9434378e-19)
(0.253397 -3.1066802e-06 1.2573282e-18)
(0.23910703 -2.2577345e-06 1.3954964e-18)
(0.21924932 -1.3486856e-06 1.2543168e-18)
(0.18455918 -5.1120443e-07 1.1597652e-18)
(0.2927938 -8.9874799e-07 -1.0432632e-18)
(0.29083215 -2.1213116e-06 1.8878336e-18)
(0.28680768 -3.0693756e-06 3.8588538e-18)
(0.28105291 -3.7103833e-06 2.9170998e-18)
(0.27367568 -3.9000409e-06 1.8303618e-18)
(0.26458683 -3.6413294e-06 1.6922094e-18)
(0.25338791 -3.0146995e-06 1.638183e-18)
(0.23908904 -2.1507508e-06 1.4317497e-18)
(0.21922634 -1.2641172e-06 1.5834357e-18)
(0.18453627 -4.7280474e-07 1.2226917e-18)
(0.29283428 -9.4820527e-07 2.0072097e-18)
(0.29087028 -2.2304427e-06 2.1980165e-18)
(0.28684006 -3.1719873e-06 2.131089e-19)
(0.28107628 -3.7558573e-06 2.1293427e-18)
(0.27368788 -3.8662209e-06 2.3089994e-18)
(0.26458737 -3.5391253e-06 2.2050319e-18)
(0.25337794 -2.8771424e-06 1.7406331e-18)
(0.23907117 -2.0186904e-06 1.47641e-18)
(0.21920448 -1.1688355e-06 1.4978907e-18)
(0.1845151 -4.3165508e-07 1.221154e-18)
(0.29287631 -9.7015125e-07 2.2980141e-18)
(0.29090919 -2.2759717e-06 2.1372724e-18)
(0.2868721 -3.1929086e-06 2.0729465e-18)
(0.28109838 -3.7173115e-06 2.045994e-18)
(0.2736985 -3.7595112e-06 2.2046419e-18)
(0.26458662 -3.3824015e-06 2.0890337e-18)
(0.25336744 -2.7047674e-06 1.6913229e-18)
(0.23905377 -1.8685263e-06 1.6279995e-18)
(0.21918399 -1.0665075e-06 1.4967867e-18)
(0.18449579 -3.8902312e-07 1.2416015e-18)
(0.29291877 -9.6893854e-07 7.0765722e-19)
(0.29094799 -2.2680637e-06 1.3612047e-18)
(0.28690318 -3.1459456e-06 1.4961449e-18)
(0.28111899 -3.6102008e-06 1.162752e-18)
(0.27370758 -3.5948763e-06 5.2983248e-19)
(0.26458481 -3.1839674e-06 1.4411722e-18)
(0.25335673 -2.5072229e-06 1.766441e-18)
(0.23903712 -1.7064364e-06 1.73067e-18)
(0.21916505 -9.6031557e-07 1.5363087e-18)
(0.18447841 -3.459629e-07 1.2343342e-18)
(0.29296074 -9.4862885e-07 2.0782871e-18)
(0.2909859 -2.216201e-06 2.5732575e-18)
(0.28693286 -3.0439316e-06 3.2323767e-18)
(0.28113794 -3.448804e-06 1.3746657e-18)
(0.2737152 -3.3860338e-06 1.6820458e-18)
(0.26458216 -2.9554707e-06 1.1550206e-18)
(0.25334606 -2.2932307e-06 1.4941256e-18)
(0.23902142 -1.5380043e-06 1.5134134e-18)
(0.21914777 -8.5315526e-07 1.3102914e-18)
(0.18446297 -3.0341842e-07 1.2551002e-18)
(0.29300148 -9.1297265e-07 1.0136149e-18)
(0.29102232 -2.1291429e-06 3.2668179e-18)
(0.28696078 -2.8986778e-06 5.089774e-18)
(0.28115513 -3.2461666e-06 2.9381613e-18)
(0.27372147 -3.1453997e-06 2.3351718e-18)
(0.26457888 -2.7073564e-06 2.0251613e-18)
(0.25333565 -2.0705625e-06 1.7208153e-18)
(0.23900682 -1.368213e-06 1.6777202e-18)
(0.21913222 -7.4765303e-07 1.5532877e-18)
(0.18444944 -2.6224305e-07 1.3264793e-18)
(0.29304038 -8.6537218e-07 -3.377107e-19)
(0.29105678 -2.0148413e-06 6.1338887e-19)
(0.28698667 -2.7208396e-06 -1.1659067e-18)
(0.28117053 -3.0139291e-06 1.5742778e-18)
(0.27372649 -2.8838939e-06 2.0337972e-18)
(0.26457515 -2.4486587e-06 1.9761489e-18)
(0.25332565 -1.8458275e-06 1.9187076e-18)
(0.23899344 -1.2012474e-06 1.6636351e-18)
(0.21911839 -6.4602478e-07 1.4411436e-18)
(0.18443777 -2.231616e-07 1.2311626e-18)
(0.29307699 -8.088497e-07 7.9260504e-19)
(0.29108893 -1.8803581e-06 2.8269283e-19)
(0.28701038 -2.5197956e-06 -3.2512445e-19)
(0.28118413 -2.7621778e-06 9.4541357e-19)
(0.27373038 -2.6107735e-06 1.5171535e-18)
(0.26457113 -2.1868252e-06 1.7605258e-18)
(0.2533162 -1.6242875e-06 1.8547262e-18)
(0.23898132 -1.040299e-06 1.6701106e-18)
(0.21910626 -5.4989607e-07 1.5902779e-18)
(0.18442783 -1.8669498e-07 1.2722198e-18)
(0.29311098 -7.460609e-07 1.2878277e-18)
(0.29111855 -1.7318658e-06 1.002414e-18)
(0.28703182 -2.3036315e-06 8.7161867e-19)
(0.28119599 -2.4994339e-06 1.3569016e-18)
(0.27373328 -2.3336419e-06 6.39494e-19)
(0.26456695 -1.9277385e-06 1.477469e-18)
(0.25330741 -1.4098723e-06 1.6969468e-18)
(0.23897048 -8.8756683e-07 1.854437e-18)
(0.21909577 -4.6028276e-07 1.7676425e-18)
(0.18441951 -1.5316077e-07 1.3620983e-18)
(0.29314213 -6.7928457e-07 3.0460184e-18)
(0.29114547 -1.5746455e-06 1.5797304e-18)
(0.28705095 -2.079165e-06 3.6474117e-18)
(0.28120618 -2.232717e-06 2.5831353e-18)
(0.2737353 -2.0585521e-06 2.5069124e-18)
(0.26456273 -1.6758504e-06 1.4708691e-18)
(0.25329933 -1.2053246e-06 1.5536008e-18)
(0.23896092 -7.4436713e-07 1.6362276e-18)
(0.21908683 -3.7761749e-07 1.3473191e-18)
(0.18441269 -1.2264507e-07 1.2356738e-18)
(0.29317032 -6.1049313e-07 1.9419651e-18)
(0.29116963 -1.413224e-06 2.8982492e-18)
(0.28706779 -1.8521443e-06 4.788037e-18)
(0.28121478 -1.9678205e-06 3.3586179e-18)
(0.27373657 -1.7903547e-06 2.9893654e-18)
(0.26455857 -1.4345772e-06 2.4433201e-18)
(0.253292 -1.0125946e-06 1.9428843e-18)
(0.23895261 -6.1148347e-07 1.6187226e-18)
(0.21907935 -3.0201229e-07 1.5881753e-18)
(0.18440724 -9.5111239e-08 1.2873948e-18)
(0.29319548 -5.4137503e-07 6.5476179e-19)
(0.29119102 -1.2514593e-06 2.2006877e-18)
(0.28708242 -1.6274079e-06 -3.1692164e-19)
(0.28122191 -1.7095427e-06 1.9973223e-18)
(0.27373718 -1.5329865e-06 2.4180345e-18)
(0.26455454 -1.2066172e-06 2.2663364e-18)
(0.25328545 -8.3316173e-07 1.9709673e-18)
(0.23894549 -4.8945505e-07 1.6524604e-18)
(0.21907322 -2.3346855e-07 1.6489374e-18)
(0.18440303 -7.047125e-08 1.342985e-18)
(0.29321764 -4.7336716e-07 1.0502212e-18)
(0.29120971 -1.0926268e-06 1.0111956e-18)
(0.28709491 -1.409028e-06 1.1083826e-18)
(0.28122768 -1.4618732e-06 1.6955187e-18)
(0.27373724 -1.2896794e-06 2.1126264e-18)
(0.2645507 -9.9416675e-07 1.9755599e-18)
(0.25327965 -6.6823508e-07 1.8442612e-18)
(0.23893949 -3.7874951e-07 1.7204804e-18)
(0.21906834 -1.7202371e-07 1.5613966e-18)
(0.18439992 -4.8651749e-08 1.3835215e-18)
(0.29323687 -4.0767486e-07 1.0800325e-18)
(0.29122577 -9.3947228e-07 -3.6684451e-20)
(0.2871054 -1.2003872e-06 2.0735125e-19)
(0.28123221 -1.2280849e-06 1.0999077e-18)
(0.27373685 -1.0630502e-06 9.7026465e-19)
(0.26454709 -7.9898939e-07 1.8825198e-18)
(0.25327461 -5.1880157e-07 1.9072153e-18)
(0.23893454 -2.7979622e-07 1.8602129e-18)
(0.21906457 -1.1778513e-07 1.5457488e-18)
(0.1843978 -2.9621229e-08 1.3709057e-18)
(0.29325331 -3.45259e-07 3.0049442e-18)
(0.29123935 -7.9419116e-07 2.7464169e-18)
(0.28711401 -1.0041501e-06 3.3495437e-18)
(0.28123562 -1.0106818e-06 2.1925049e-18)
(0.2737361 -8.5501302e-07 2.47582e-18)
(0.26454375 -6.2228875e-07 1.4302e-18)
(0.25327028 -3.854622e-07 1.6199448e-18)
(0.23893055 -1.9281404e-07 1.7259682e-18)
(0.2190618 -7.080575e-08 1.4117358e-18)