/*--------------------------------*- C++ -*----------------------------------*\
| =========                 |                                                 |
| \\      /  F ield         | OpenFOAM: The Open Source CFD Toolbox           |
|  \\    /   O peration     | Version:  2506                                  |
|   \\  /    A nd           | Website:  www.openfoam.com                      |
|    \\/     M anipulation  |                                                 |
\*---------------------------------------------------------------------------*/
FoamFile
{
    version     2.0;
    format      ascii;
    arch        "LSB;label=32;scalar=64";
    class       volScalarField;
    location    "19000/water";
    object      alphat;
}
// * * * * * * * * * * * * * * * * * * * * * * * * * * * * * * * * * * * * * //

dimensions      [1 -1 -1 0 0 0 0];

internalField   nonuniform List<scalar> 
2600
(
0.040489031
0.04048893
0.040488932
0.040488969
0.04048893
0.040488424
0.040485257
0.04046703
0.040362559
0.039762099
0.036475623
0.024118064
0.014862723
0.039376404
0.039376463
0.039376584
0.03937667
0.03937627
0.039373342
0.039357935
0.03928206
0.038918252
0.037247647
0.030707814
0.017504579
0.016810247
0.03845331
0.038453299
0.038453385
0.038453188
0.038451259
0.038441479
0.038397507
0.038208927
0.037432867
0.034484227
0.025768479
0.01464355
0.017680736
0.037674097
0.037673994
0.037673876
0.037672833
0.03766736
0.037643826
0.037549741
0.037190974
0.035896577
0.031717985
0.022022178
0.013507107
0.017935556
0.037006829
0.037006634
0.03700605
0.037003229
0.036991211
0.03694503
0.036777672
0.036201229
0.034343725
0.029136321
0.019390213
0.01332192
0.01787019
0.036428097
0.036427705
0.036426239
0.036420305
0.036397905
0.036319194
0.03605724
0.035231095
0.03281421
0.026833154
0.017684561
0.01376901
0.017658004
0.035920433
0.035919673
0.03591673
0.035905979
0.035868817
0.035747845
0.035374204
0.034281783
0.031338745
0.024847734
0.016751764
0.014701365
0.017395975
0.035470606
0.03546924
0.035464057
0.035446499
0.035390052
0.035218253
0.034721129
0.033357857
0.029935921
0.02320089
0.016491475
0.016024754
0.017137191
0.035068412
0.03506614
0.035057811
0.035031314
0.034951338
0.034722033
0.034094772
0.032463227
0.028616047
0.021918168
0.016839593
0.01764423
0.016909598
0.034705855
0.034702323
0.034689851
0.034652315
0.034545228
0.034254009
0.03349406
0.031599319
0.027389013
0.021039007
0.017742707
0.01944683
0.016725717
0.034376582
0.0343714
0.034353768
0.03430331
0.034166516
0.033811296
0.032918607
0.030765036
0.026274288
0.020612421
0.019134169
0.021310298
0.0165878
0.034075484
0.034068256
0.034044512
0.033979658
0.033811775
0.033392551
0.032367695
0.029958513
0.025310237
0.020682513
0.02092045
0.023125093
0.01649134
0.03379842
0.033788771
0.033758129
0.033677993
0.033478994
0.032997353
0.031839672
0.029180919
0.024557973
0.021270679
0.022983308
0.024813262
0.016428198
0.033542011
0.033529635
0.033491576
0.033396025
0.033167279
0.032625685
0.031331905
0.02844226
0.024095308
0.02236241
0.02519592
0.026333969
0.016389375
0.033303501
0.033288203
0.033242589
0.033132389
0.0328766
0.032277488
0.030841496
0.027768047
0.024001078
0.023903802
0.027443847
0.027676786
0.016366908
0.033080659
0.033062404
0.03300959
0.032886524
0.032607559
0.031952311
0.030367144
0.027204004
0.02433601
0.025808535
0.029640409
0.028850257
0.01635471
0.032871707
0.032850677
0.032791627
0.032658586
0.032361164
0.031649138
0.029912405
0.026815112
0.025128026
0.027972561
0.031731261
0.029871995
0.016348606
0.032675278
0.032651931
0.032588332
0.032449362
0.032138606
0.031366538
0.029490156
0.026676983
0.02636662
0.030291378
0.033689748
0.030762439
0.016345973
0.032490392
0.032465523
0.0323999
0.032260198
0.031941021
0.031103392
0.02912715
0.026861559
0.028006318
0.032674377
0.035508202
0.031541613
0.016345289
0.03231644
0.032291251
0.032227075
0.032092906
0.0317693
0.030860474
0.028866522
0.027422392
0.02997661
0.035052625
0.037189756
0.032227633
0.016345749
0.032153193
0.032129365
0.032071151
0.03194966
0.031623986
0.030643052
0.028765901
0.028384666
0.032194873
0.037379728
0.038742713
0.03283612
0.016346971
0.032000817
0.031980587
0.031933965
0.031832869
0.031505423
0.030464306
0.028890209
0.029742269
0.034578895
0.039628039
0.040177388
0.03338011
0.016348812
0.031859898
0.031846136
0.031817892
0.031745018
0.031414333
0.030348688
0.029300796
0.031461309
0.037056243
0.041783221
0.041504536
0.033870256
0.016351246
0.031731488
0.031727775
0.031725824
0.031688525
0.031353059
0.03033369
0.030044464
0.033487925
0.03956915
0.043839375
0.042734578
0.034315152
0.016354289
0.031617156
0.031627852
0.031661123
0.031665646
0.031327616
0.030468391
0.031145812
0.035757862
0.042075207
0.045795593
0.043877213
0.034721702
0.016357969
0.031519059
0.031549348
0.031627545
0.031678558
0.031350386
0.030808117
0.032604584
0.038205563
0.044545297
0.047653852
0.044941233
0.035095454
0.016362308
0.03144002
0.031495925
0.031629136
0.031729781
0.031442847
0.031406233
0.034397783
0.040771061
0.046960465
0.04941777
0.045934484
0.035440886
0.01636731
0.031383622
0.031471952
0.031670108
0.031823119
0.03163718
0.032305488
0.03648515
0.043403916
0.049308923
0.051091864
0.046863895
0.035761637
0.016372969
0.03135431
0.031482518
0.031754744
0.031965285
0.031975485
0.033531428
0.038816233
0.04606436
0.051583768
0.052681066
0.047735561
0.036060692
0.016379266
0.031357497
0.031533412
0.031887427
0.032168112
0.032505945
0.035089409
0.041337344
0.04872249
0.053781403
0.054190403
0.048554837
0.036340517
0.016386174
0.03139966
0.031631056
0.032072921
0.032450915
0.033276474
0.03696535
0.043997167
0.051356522
0.055900493
0.055624809
0.04932644
0.036603249
0.016393659
0.031488426
0.031782428
0.03231711
0.032842099
0.034327509
0.039129414
0.04675033
0.0539509
0.057941207
0.056988872
0.050054079
0.036848496
0.016401672
0.03163262
0.031994973
0.032628308
0.033378942
0.035685986
0.041541298
0.049558964
0.056494683
0.059904718
0.058286905
0.050741227
0.037078061
0.016410157
0.031842264
0.03227662
0.033019161
0.034104837
0.037361926
0.044155834
0.052392713
0.058980325
0.061792815
0.059522757
0.051390027
0.037293993
0.01641906
0.032128529
0.03263602
0.033508769
0.035064178
0.039348107
0.046927803
0.055227858
0.061402782
0.063607641
0.060699937
0.052002677
0.037497696
0.016428334
0.032503669
0.033083203
0.034124294
0.036296096
0.0416224
0.049815355
0.058046133
0.06375886
0.065351545
0.061821637
0.05258258
0.037690193
0.016437945
0.032981
0.033630794
0.034901055
0.037828728
0.044151811
0.052781866
0.060833583
0.066046677
0.067026699
0.062889499
0.053132468
0.03787253
0.016447871
0.033575093
0.034295802
0.035880361
0.039675444
0.04689715
0.055796501
0.063579597
0.068265329
0.068635566
0.063907353
0.053654301
0.038045473
0.016458088
0.034302366
0.035101602
0.037105063
0.041833715
0.049817341
0.058833929
0.06627615
0.07041439
0.070179106
0.064878396
0.054149993
0.038209783
0.016468569
0.035182276
0.036079351
0.038613757
0.044286499
0.05287273
0.061873592
0.068917172
0.072494022
0.071660185
0.065805207
0.054621163
0.038366084
0.016479288
0.036239041
0.037267809
0.040435151
0.047005431
0.056027171
0.064898911
0.071498022
0.074503816
0.07308148
0.066690098
0.055069325
0.038514917
0.016490218
0.037503417
0.038710788
0.042584042
0.04995486
0.059248935
0.067896461
0.074015179
0.076444639
0.074445474
0.067535117
0.055495818
0.038656742
0.016501334
0.039013502
0.040452269
0.045059717
0.053095831
0.062510845
0.070855333
0.076465322
0.078317609
0.075754303
0.068342166
0.055901826
0.038791953
0.01651261
0.040813308
0.042530162
0.047846811
0.056389299
0.065789808
0.073766506
0.078846464
0.08012425
0.077009866
0.069112937
0.056288384
0.038920881
0.016524019
0.04294832
0.044970325
0.050918056
0.05979838
0.069066321
0.076621968
0.081156915
0.081865793
0.078213924
0.069848941
0.056656394
0.039043804
0.016535536
0.045458378
0.047782293
0.054237945
0.063289387
0.072323488
0.079415205
0.083396341
0.083543326
0.079368018
0.07055149
0.057006628
0.039160949
0.016547136
0.048369493
0.050957561
0.057766458
0.066832237
0.075546553
0.082140741
0.085564131
0.085157806
0.080473483
0.071221708
0.057339735
0.039272496
0.016558794
0.05168692
0.054470409
0.061462109
0.07039992
0.078721987
0.084794908
0.087659692
0.086709989
0.081531429
0.071860533
0.057656248
0.039378584
0.016570485
0.055391487
0.058280547
0.065283672
0.073967542
0.081839607
0.087374105
0.089682323
0.088200394
0.082542728
0.072468716
0.057956587
0.039479308
0.016582185
0.059440051
0.06233651
0.069190802
0.077514006
0.084890571
0.089874878
0.091631144
0.089629281
0.083508003
0.073046821
0.058241062
0.039574724
0.016593867
0.063769492
0.066579736
0.073146304
0.081021477
0.087866736
0.092293806
0.093505048
0.09099662
0.084427625
0.073595225
0.058509873
0.039664846
0.016605507
0.068304184
0.070949145
0.077116129
0.084473716
0.090760485
0.094627433
0.095302673
0.092302092
0.085301706
0.07411412
0.058763113
0.03974965
0.016617076
0.072963979
0.075384353
0.081068535
0.087855781
0.093564623
0.096872248
0.097022409
0.093545084
0.086130109
0.074603516
0.059000773
0.039829074
0.016628545
0.077671231
0.079828368
0.084974042
0.091153821
0.096272324
0.099024704
0.098662429
0.094724726
0.086912462
0.07506325
0.05922274
0.039903018
0.016639885
0.082355858
0.084229584
0.088805533
0.094354997
0.098877152
0.10108129
0.10022076
0.095839931
0.087648189
0.075493008
0.059428817
0.039971349
0.016651062
0.086958215
0.088543084
0.092538484
0.097447491
0.10137312
0.10303863
0.10169536
0.096889469
0.088336558
0.075892349
0.059618726
0.040033908
0.016662041
0.091430092
0.09273127
0.096151243
0.10042061
0.10375477
0.10489358
0.10308425
0.097872055
0.088976739
0.076260741
0.059792136
0.040090513
0.016672786
0.095734374
0.096763939
0.099625279
0.10326491
0.10601733
0.10664339
0.10438564
0.098786449
0.089567881
0.076597615
0.059948686
0.040140973
0.016683256
0.099843917
0.10061792
0.10294534
0.10597237
0.10815677
0.10828579
0.10559802
0.099631565
0.09010919
0.076902411
0.060088013
0.040185101
0.016693412
0.10374009
0.1042764
0.10609946
0.10853647
0.11016993
0.10981912
0.1067203
0.10040657
0.090600012
0.07717464
0.060209791
0.040222726
0.016703211
0.10741124
0.10772817
0.10907891
0.11095232
0.11205462
0.1112424
0.10775189
0.10111098
0.091039914
0.07741394
0.060313761
0.040253708
0.016712613
0.11085134
0.11096671
0.11187791
0.11321662
0.11380961
0.11255536
0.10869278
0.10174473
0.091428748
0.077620131
0.06039977
0.040277955
0.016721579
0.11405872
0.11398938
0.11449341
0.11532766
0.11543469
0.1137585
0.10954354
0.10230822
0.091766709
0.077793259
0.060467794
0.040295434
0.01673007
0.11703507
0.11679671
0.11692476
0.11728525
0.11693061
0.11485305
0.11030537
0.10280237
0.092054365
0.077933626
0.060517966
0.040306182
0.016738054
0.11978468
0.11939169
0.11917333
0.11909055
0.11829904
0.11584096
0.11098007
0.10322856
0.092292676
0.078041815
0.060550589
0.040310314
0.016745503
0.1223137
0.12177926
0.12124219
0.12074595
0.11954252
0.11672485
0.11157
0.10358868
0.092482993
0.078118693
0.060566145
0.040308021
0.016752392
0.1246297
0.12396581
0.12313583
0.12225492
0.12066435
0.11750792
0.11207803
0.10388508
0.092627038
0.078165402
0.060565289
0.040299575
0.016758707
0.12674125
0.12595885
0.12485984
0.12362182
0.12166846
0.11819389
0.11250749
0.10412048
0.092726868
0.078183343
0.060548842
0.040285322
0.016764435
0.12865758
0.12776663
0.12642067
0.12485176
0.12255936
0.11878691
0.11286208
0.10429797
0.09278484
0.078174148
0.060517772
0.040265672
0.016769575
0.13038838
0.12939797
0.12782541
0.12595043
0.12334202
0.1192915
0.11314581
0.10442089
0.092803555
0.078139641
0.060473174
0.04024109
0.01677413
0.13194358
0.13086203
0.12908163
0.12692396
0.12402175
0.11971244
0.11336291
0.10449281
0.092785808
0.078081803
0.060416243
0.040212081
0.016778109
0.1333332
0.13216812
0.13019718
0.12777881
0.12460411
0.12005471
0.11351779
0.10451747
0.092734534
0.078002729
0.060348245
0.040179182
0.016781528
0.13456724
0.13332562
0.13118008
0.12852167
0.12509483
0.1203234
0.11361496
0.10449867
0.092652753
0.077904583
0.060270494
0.040142946
0.016784407
0.1356556
0.13434386
0.13203843
0.1291593
0.12549976
0.12052367
0.11365894
0.10444027
0.092543528
0.077789565
0.06018432
0.040103928
0.016786771
0.13660797
0.13523202
0.13278027
0.12969853
0.12582474
0.12066068
0.11365426
0.10434609
0.092409912
0.077659871
0.06009105
0.040062677
0.016788648
0.13743381
0.13599909
0.13341357
0.13014613
0.12607561
0.12073952
0.1136054
0.10421994
0.092254915
0.077517662
0.059991979
0.040019722
0.016790068
0.13814227
0.13665381
0.1339461
0.13050876
0.12625809
0.12076522
0.11351672
0.10406549
0.092081469
0.077365035
0.059888361
0.039975569
0.016791065
0.13874221
0.13720464
0.13438544
0.13079297
0.12637781
0.12074266
0.11339247
0.10388632
0.091892396
0.077204002
0.059781383
0.039930691
0.016791671
0.13924211
0.13765972
0.13473893
0.13100508
0.12644021
0.12067657
0.11323672
0.10368586
0.091690394
0.077036469
0.059672161
0.039885525
0.016791921
0.13965009
0.13802683
0.13501362
0.13115123
0.12645057
0.12057151
0.11305338
0.10346735
0.09147801
0.076864225
0.059561731
0.039840466
0.01679185
0.13997391
0.13831343
0.13521627
0.1312373
0.12641395
0.12043182
0.11284619
0.10323388
0.091257636
0.076688929
0.059451035
0.039795869
0.016791489
0.14022091
0.1385266
0.13535332
0.13126893
0.12633519
0.12026167
0.11261864
0.10298833
0.091031494
0.076512108
0.05934093
0.039752046
0.016790873
0.14039808
0.13867306
0.13543092
0.13125148
0.12621889
0.12006496
0.11237407
0.10273341
0.090801634
0.076335147
0.059232176
0.039709269
0.016790032
0.140512
0.13875915
0.13545487
0.13119004
0.12606942
0.11984542
0.11211555
0.10247161
0.090569931
0.076159295
0.059125443
0.039667767
0.016788996
0.14056888
0.13879087
0.13543067
0.13108943
0.1258909
0.11960651
0.11184598
0.10220522
0.090338089
0.075985665
0.059021312
0.03962773
0.016787793
0.14057456
0.13877385
0.13536347
0.13095419
0.1256872
0.1193515
0.11156803
0.10193634
0.090107634
0.07581522
0.058920231
0.039589101
0.016786448
0.1405345
0.13871337
0.13525814
0.13078859
0.12546196
0.11908342
0.11128416
0.10166689
0.08987992
0.075648784
0.058822557
0.03955183
0.016784983
0.14045382
0.13861438
0.13511923
0.1305966
0.12521857
0.11880506
0.11099661
0.10139856
0.089656118
0.075486995
0.05872831
0.039516209
0.016783417
0.14033731
0.13848149
0.13495096
0.13038197
0.12496018
0.11851903
0.11070744
0.10113289
0.089437253
0.075330433
0.058637832
0.039482363
0.016781769
0.14018939
0.13831899
0.13475732
0.13014817
0.12468972
0.11822769
0.11041848
0.1008712
0.089224117
0.075179224
0.058551557
0.039450383
0.016780059
0.14001421
0.13813089
0.13454196
0.1298984
0.12440988
0.11793321
0.1101314
0.10061463
0.08901734
0.075034061
0.058469629
0.039420321
0.016778308
0.1398156
0.13792089
0.1343083
0.12963565
0.12412314
0.11763755
0.10984765
0.10036416
0.088817465
0.074895406
0.058392177
0.039392208
0.016776531
0.13959709
0.13769241
0.13405948
0.12936265
0.12383176
0.11734248
0.10956846
0.10012043
0.088625291
0.074763505
0.058319279
0.039366055
0.016774745
0.13936197
0.13744861
0.13379841
0.12908193
0.12353779
0.11704954
0.10929487
0.099884413
0.088441284
0.074638533
0.058250972
0.039341854
0.016772961
0.13911323
0.13719239
0.13352774
0.12879576
0.12324306
0.11676008
0.10902788
0.099656877
0.088265787
0.074520607
0.058187253
0.039319578
0.016771194
0.13885363
0.13692641
0.1332499
0.12850622
0.12294919
0.11647525
0.10876856
0.099438376
0.088099055
0.074409781
0.058128087
0.039299185
0.016769451
0.13858568
0.1366531
0.13296708
0.12821512
0.12265758
0.11619638
0.10851771
0.099229347
0.087941255
0.074306057
0.058073405
0.039280624
0.016767743
0.13831168
0.13637463
0.1326812
0.1279241
0.12236975
0.11592451
0.10827598
0.099030124
0.087792483
0.074209386
0.058023115
0.039263831
0.016766077
0.13803363
0.13609292
0.13239407
0.12763483
0.12208698
0.11566056
0.10804392
0.098840946
0.087652764
0.074119678
0.057977101
0.039248738
0.016764459
0.1377534
0.13580981
0.13210741
0.12734876
0.12181039
0.11540527
0.10782195
0.098661968
0.087522065
0.074036804
0.057935228
0.039235269
0.016762895
0.1374727
0.13552698
0.13182275
0.12706718
0.12154097
0.11515928
0.1076104
0.098493266
0.087400299
0.073960603
0.057897349
0.039223347
0.016761388
0.13719311
0.13524595
0.13154148
0.12679125
0.12127954
0.11492312
0.1074095
0.098334848
0.087287329
0.073890888
0.057863303
0.03921289
0.016759942
0.13691605
0.13496808
0.13126484
0.12652197
0.12102683
0.11469719
0.1072194
0.098186658
0.087182979
0.073827446
0.057832918
0.039203816
0.016758559
0.13664278
0.13469461
0.1309939
0.12626019
0.12078342
0.11448182
0.10704017
0.098048586
0.087087038
0.073770048
0.05780602
0.039196041
0.016757243
0.13637445
0.13442661
0.13072962
0.12600667
0.12054982
0.11427724
0.1068718
0.09792047
0.086999261
0.07371845
0.057782427
0.039189483
0.016755993
0.13611206
0.13416504
0.13047284
0.12576205
0.12032641
0.11408358
0.10671425
0.097802106
0.08691938
0.073672393
0.057761955
0.039184059
0.016754811
0.1358565
0.13391073
0.13022426
0.12552683
0.12011348
0.11390093
0.10656738
0.097693251
0.086847102
0.073631611
0.057744419
0.039179689
0.016753697
0.13560851
0.13366439
0.12998447
0.12530145
0.11991125
0.11372927
0.10643103
0.097593627
0.086782118
0.073595831
0.057729635
0.039176293
0.01675265
0.13536875
0.13342663
0.12975398
0.12508624
0.11971984
0.11356855
0.10630499
0.097502932
0.086724106
0.073564778
0.057717418
0.039173794
0.016751671
0.13513776
0.13319795
0.1295332
0.12488144
0.11953932
0.11341865
0.106189
0.097420838
0.086672732
0.073538174
0.057707589
0.039172118
0.016750758
0.134916
0.13297876
0.12932242
0.12468722
0.11936968
0.1132794
0.10608277
0.097347
0.086627659
0.073515743
0.05769997
0.039171192
0.01674991
0.13470383
0.13276939
0.1291219
0.12450367
0.11921087
0.1131506
0.10598601
0.09728106
0.086588544
0.073497213
0.057694393
0.039170949
0.016749125
0.13450152
0.13257008
0.12893179
0.12433084
0.11906277
0.11303201
0.10589836
0.097222652
0.086555046
0.073482318
0.057690692
0.039171323
0.016748402
0.13430928
0.132381
0.12875217
0.12416869
0.11892522
0.11292334
0.10581948
0.097171401
0.086526827
0.073470799
0.057688708
0.039172254
0.01674774
0.13412725
0.13220226
0.12858309
0.12401715
0.11879802
0.11282429
0.10574899
0.097126929
0.08650355
0.0734624
0.057688292
0.039173683
0.016747135
0.13395549
0.13203389
0.12842451
0.12387609
0.11868092
0.11273454
0.10568653
0.097088855
0.086484884
0.073456875
0.057689296
0.039175555
0.016746587
0.13379399
0.13187586
0.12827634
0.12374532
0.11857366
0.11265371
0.10563168
0.097056795
0.086470498
0.073453984
0.057691579
0.039177818
0.016746092
0.13364272
0.1317281
0.12813845
0.12362463
0.11847592
0.11258144
0.10558406
0.097030363
0.086460069
0.07345349
0.057695006
0.03918042
0.016745649
0.13350155
0.13159048
0.12801065
0.12351375
0.11838737
0.11251734
0.10554324
0.097009176
0.086453278
0.073455165
0.057699444
0.039183313
0.016745255
0.13337034
0.13146283
0.12789272
0.1234124
0.11830764
0.11246099
0.10550882
0.096992853
0.086449811
0.073458786
0.057704768
0.039186451
0.016744908
0.13324889
0.13134492
0.1277844
0.12332025
0.11823636
0.11241199
0.10548038
0.096981018
0.086449364
0.073464141
0.057710857
0.039189789
0.016744606
0.13313698
0.13123651
0.1276854
0.12323696
0.11817313
0.11236992
0.10545752
0.09697331
0.086451648
0.073471028
0.057717599
0.039193288
0.016744344
0.13303434
0.13113734
0.12759542
0.12316218
0.11811757
0.11233437
0.10543983
0.096969379
0.086456387
0.07347926
0.057724891
0.03919691
0.016744121
0.1329407
0.1310471
0.12751413
0.12309555
0.11806928
0.11230493
0.10542695
0.096968896
0.086463326
0.073488664
0.057732642
0.039200625
0.016743935
0.13285578
0.13096551
0.1274412
0.12303671
0.11802788
0.11228122
0.10541849
0.096971549
0.086472226
0.073499083
0.057740769
0.039204406
0.016743783
0.13277928
0.13089223
0.1273763
0.12298528
0.11799297
0.11226286
0.10541413
0.096977048
0.086482869
0.073510377
0.057749201
0.039208229
0.016743662
0.13271086
0.13082695
0.12731908
0.1229409
0.11796417
0.11224947
0.10541351
0.096985114
0.086495048
0.073522414
0.057757871
0.039212076
0.016743571
0.1326502
0.13076932
0.12726916
0.12290319
0.11794112
0.11224069
0.10541631
0.096995481
0.086508568
0.073535071
0.05776672
0.039215926
0.016743508
0.13259695
0.13071898
0.12722619
0.12287177
0.11792341
0.11223616
0.10542222
0.097007887
0.086523238
0.073548227
0.057775686
0.039219762
0.016743471
0.13255072
0.13067555
0.12718976
0.12284622
0.11791066
0.11223551
0.10543092
0.097022075
0.08653887
0.073561762
0.057784708
0.039223563
0.016743459
0.13251113
0.13063862
0.12715947
0.12282616
0.11790246
0.11223836
0.10544207
0.097037786
0.086555274
0.073575555
0.057793725
0.039227309
0.016743468
0.13247775
0.13060779
0.12713491
0.12281115
0.11789843
0.11224437
0.10545537
0.097054765
0.086572264
0.073589487
0.057802673
0.039230975
0.016743497
0.13245018
0.13058264
0.12711565
0.12280078
0.11789816
0.11225315
0.10547051
0.097072768
0.086589661
0.073603443
0.057811491
0.039234542
0.016743543
0.13242799
0.13056274
0.12710127
0.12279465
0.11790126
0.11226437
0.10548719
0.097091564
0.086607302
0.073617319
0.057820125
0.039237989
0.016743605
0.13241079
0.13054769
0.12709137
0.12279237
0.11790739
0.11227772
0.10550515
0.097110948
0.086625041
0.073631026
0.057828532
0.039241304
0.016743678
0.1323982
0.13053712
0.12708559
0.12279358
0.1179162
0.1122929
0.10552416
0.097130749
0.086642764
0.073644498
0.057836684
0.039244478
0.016743762
0.13238988
0.13053068
0.12708357
0.12279796
0.11792741
0.11230967
0.10554403
0.097150825
0.086660381
0.073657692
0.057844565
0.039247511
0.016743855
0.13238551
0.13052806
0.12708503
0.12280522
0.11794077
0.11232781
0.10556459
0.097171066
0.08667783
0.07367058
0.057852171
0.0392504
0.016743955
0.13238481
0.13052898
0.12708967
0.1228151
0.11795604
0.11234715
0.1055857
0.097191385
0.086695065
0.073683147
0.057859502
0.039253127
0.016744062
0.1323875
0.13053316
0.12709724
0.12282737
0.11797303
0.11236752
0.10560726
0.097211707
0.086712048
0.073695381
0.057866543
0.039255717
0.016744176
0.13239333
0.13054033
0.12710747
0.12284178
0.11799152
0.11238875
0.10562913
0.097231956
0.086728741
0.073707268
0.057873296
0.039258178
0.016744294
0.132402
0.13055023
0.12712012
0.1228581
0.11801131
0.11241068
0.10565119
0.097252046
0.086745087
0.07371876
0.057879775
0.039260516
0.016744418
0.13241322
0.13056256
0.12713489
0.12287606
0.11803217
0.11243312
0.10567331
0.097271875
0.086761018
0.073729834
0.057885965
0.039262731
0.016744546
0.13242668
0.13057701
0.12715148
0.12289539
0.11805385
0.11245586
0.10569531
0.097291321
0.086776439
0.073740463
0.057891849
0.039264818
0.016744677
0.13244203
0.13059325
0.12716959
0.1229158
0.11807612
0.1124787
0.10571704
0.097310253
0.086791285
0.073750597
0.057897402
0.039266771
0.01674481
0.13245893
0.13061094
0.12718889
0.122937
0.1180987
0.11250144
0.10573833
0.097328549
0.086805488
0.073760188
0.0579026
0.03926858
0.016744944
0.13247707
0.13062977
0.12720909
0.12295873
0.11812138
0.11252386
0.10575901
0.097346124
0.086818983
0.073769198
0.057907424
0.039270237
0.016745076
0.13249614
0.13064945
0.12722992
0.12298074
0.11814395
0.11254582
0.10577899
0.097362905
0.086831719
0.0737776
0.057911861
0.039271739
0.016745206
0.13251591
0.13066975
0.12725115
0.12300283
0.11816624
0.11256719
0.10579819
0.097378846
0.086843676
0.073785387
0.057915912
0.039273086
0.016745332
0.1325362
0.13069048
0.12727261
0.12302486
0.11818815
0.11258792
0.10581659
0.097393934
0.086854858
0.073792573
0.057919591
0.039274284
0.016745453
0.13255686
0.1307115
0.12729418
0.12304673
0.11820962
0.11260798
0.10583418
0.097408192
0.086865297
0.073799194
0.057922927
0.039275348
0.01674557
0.13257781
0.13073273
0.12731578
0.1230684
0.11823063
0.11262737
0.10585099
0.097421664
0.086875048
0.073805299
0.057925954
0.039276294
0.016745681
0.132599
0.13075411
0.12733739
0.12308985
0.11825119
0.11264613
0.10586706
0.097434409
0.08688417
0.073810943
0.057928714
0.039277142
0.016745788
0.13262038
0.13077562
0.12735896
0.12311107
0.11827131
0.11266428
0.10588245
0.097446485
0.086892726
0.07381618
0.057931245
0.03927791
0.016745892
0.13264189
0.1307972
0.12738047
0.12313202
0.11829098
0.11268184
0.10589719
0.097457937
0.086900763
0.073821054
0.057933578
0.039278611
0.016745993
0.13266346
0.13081876
0.12740184
0.12315267
0.11831017
0.1126988
0.10591129
0.097468788
0.08690831
0.073825589
0.05793573
0.039279254
0.016746092
0.13268496
0.13084021
0.12742297
0.12317294
0.11832882
0.11271513
0.10592473
0.097479036
0.08691537
0.073829792
0.057937706
0.039279842
0.016746189
0.13270623
0.1308614
0.12744375
0.1231927
0.11834686
0.11273076
0.10593746
0.09748865
0.086921926
0.073833651
0.057939499
0.039280372
0.016746285
0.13272711
0.13088216
0.12746401
0.12321184
0.11836416
0.1127456
0.10594944
0.097497586
0.086927944
0.073837143
0.057941093
0.039280833
0.016746377
0.1327474
0.1309023
0.12748359
0.12323021
0.11838062
0.11275958
0.10596057
0.097505791
0.086933385
0.073840238
0.057942466
0.039281217
0.016746465
0.13276693
0.13092167
0.12750234
0.12324768
0.11839613
0.1127726
0.10597082
0.09751322
0.086938214
0.07384291
0.057943603
0.039281514
0.016746548
0.13278556
0.13094013
0.12752014
0.12326414
0.1184106
0.11278461
0.10598012
0.097519846
0.086942416
0.073845148
0.057944493
0.039281719
0.016746625
0.13280321
0.13095759
0.12753692
0.12327956
0.11842402
0.11279559
0.10598849
0.097525673
0.086945995
0.073846959
0.057945141
0.039281833
0.016746695
0.13281986
0.13097404
0.12755265
0.12329391
0.11843638
0.11280556
0.10599595
0.097530738
0.086948988
0.07384837
0.057945565
0.039281861
0.016746757
0.13283552
0.13098949
0.12756738
0.12330725
0.11844774
0.1128146
0.10600258
0.097535109
0.086951455
0.073849429
0.057945798
0.03928182
0.016746813
0.13285029
0.13100404
0.12758118
0.12331966
0.1184582
0.11282279
0.10600846
0.097538875
0.086953472
0.073850198
0.057945877
0.039281724
0.016746861
0.13286428
0.13101777
0.12759415
0.12333124
0.11846786
0.11283026
0.10601372
0.097542137
0.086955127
0.073850742
0.057945847
0.039281595
0.016746905
0.13287758
0.1310308
0.12760641
0.12334211
0.11847684
0.1128371
0.10601845
0.097544992
0.086956503
0.073851126
0.057945749
0.039281449
0.016746944
0.1328903
0.13104323
0.12761804
0.12335235
0.11848522
0.11284341
0.10602274
0.09754752
0.086957667
0.0738514
0.057945615
0.039281302
0.016746981
0.13290249
0.13105511
0.12762911
0.12336203
0.11849308
0.11284926
0.10602665
0.097549777
0.086958663
0.073851597
0.057945466
0.039281163
0.016747016
0.13291415
0.13106645
0.12763963
0.12337118
0.11850043
0.11285467
0.10603022
0.097551784
0.086959509
0.073851728
0.057945306
0.039281032
0.01674705
0.13292524
0.13107722
0.12764958
0.12337976
0.11850727
0.11285962
0.10603343
0.097553534
0.086960197
0.073851784
0.057945126
0.039280906
0.016747082
0.13293568
0.13108734
0.12765889
0.12338773
0.11851353
0.11286409
0.10603624
0.097554994
0.086960697
0.073851738
0.057944909
0.039280774
0.016747114
0.13294537
0.13109673
0.12766747
0.12339501
0.11851917
0.11286802
0.10603861
0.097556122
0.086960972
0.07385156
0.057944629
0.039280625
0.016747143
0.13295421
0.13110527
0.12767525
0.12340152
0.11852411
0.11287134
0.10604049
0.097556875
0.086960983
0.073851218
0.057944266
0.039280447
0.016747169
0.13296211
0.13111291
0.12768215
0.12340722
0.11852832
0.11287403
0.10604184
0.097557223
0.086960706
0.073850691
0.057943802
0.039280231
0.016747191
0.13296904
0.13111959
0.12768813
0.12341206
0.11853176
0.11287606
0.10604266
0.097557161
0.086960134
0.073849973
0.057943233
0.039279976
0.016747209
0.13297502
0.13112534
0.12769323
0.12341608
0.11853447
0.11287747
0.10604298
0.097556711
0.086959287
0.073849077
0.057942567
0.039279681
0.016747221
0.13298012
0.13113022
0.12769749
0.12341934
0.11853652
0.11287832
0.10604285
0.097555927
0.086958206
0.073848036
0.057941823
0.039279356
0.016747228
0.13298445
0.13113434
0.12770103
0.12342195
0.11853799
0.11287871
0.10604236
0.097554882
0.086956954
0.073846895
0.057941032
0.039279014
0.01674723
0.13298816
0.13113785
0.12770398
0.12342402
0.11853902
0.11287874
0.10604162
0.097553667
0.086955603
0.073845711
0.05794023
0.039278672
0.016747229
0.13299141
0.13114089
0.12770649
0.12342571
0.11853974
0.11287854
0.10604072
0.097552369
0.086954227
0.073844536
0.05793945
0.039278344
0.016747226
0.13299434
0.1311436
0.12770869
0.12342712
0.11854025
0.11287821
0.10603976
0.097551068
0.086952888
0.073843418
0.057938721
0.039278043
0.016747222
0.13299706
0.13114608
0.12771068
0.12342837
0.11854064
0.11287782
0.1060388
0.097549819
0.086951629
0.073842386
0.057938063
0.039277778
0.016747218
0.13299961
0.13114841
0.12771252
0.12342949
0.11854096
0.11287742
0.10603788
0.097548649
0.086950471
0.073841454
0.057937482
0.03927755
0.016747216
0.13300201
0.13115059
0.12771422
0.12343051
0.11854123
0.11287701
0.106037
0.097547556
0.086949408
0.073840615
0.057936972
0.039277359
0.016747214
0.1330042
0.13115257
0.12771575
0.12343139
0.1185414
0.11287657
0.10603614
0.097546512
0.086948414
0.073839846
0.057936515
0.039277195
0.016747214
0.13300612
0.13115429
0.12771704
0.12343208
0.11854143
0.11287603
0.10603524
0.09754547
0.086947447
0.073839112
0.057936089
0.039277047
0.016747215
0.13300765
0.13115565
0.127718
0.12343248
0.11854123
0.11287534
0.10603423
0.097544372
0.086946456
0.073838373
0.057935665
0.039276901
0.016747215
0.1330087
0.13115656
0.12771856
0.12343253
0.11854074
0.11287442
0.10603306
0.097543165
0.086945396
0.073837592
0.057935217
0.039276748
0.016747215
0.13300919
0.13115694
0.12771863
0.12343216
0.11853992
0.11287323
0.10603169
0.097541811
0.086944234
0.073836742
0.057934725
0.039276569
0.016747212
0.13300911
0.13115677
0.12771821
0.12343135
0.11853872
0.11287175
0.1060301
0.097540293
0.086942954
0.07383581
0.057934177
0.039276361
0.016747207
0.13300846
0.13115606
0.12771728
0.12343012
0.11853718
0.11287
0.1060283
0.097538621
0.086941564
0.073834799
0.057933579
0.039276126
0.016747198
0.13300732
0.13115488
0.12771593
0.12342852
0.11853533
0.11286801
0.10602633
0.097536829
0.08694009
0.073833732
0.057932945
0.039275873
0.016747186
0.13300581
0.13115333
0.12771425
0.12342664
0.11853327
0.11286587
0.10602425
0.097534972
0.086938579