/*--------------------------------*- C++ -*----------------------------------*\
| =========                 |                                                 |
| \\      /  F ield         | OpenFOAM: The Open Source CFD Toolbox           |
|  \\    /   O peration     | Version:  2506                                  |
|   \\  /    A nd           | Website:  www.openfoam.com                      |
|    \\/     M anipulation  |                                                 |
\*---------------------------------------------------------------------------*/
FoamFile
{
    version     2.0;
    format      ascii;
    arch        "LSB;label=32;scalar=64";
    class       volScalarField;
    location    "19000/water";
    object      epsilon;
}
// * * * * * * * * * * * * * * * * * * * * * * * * * * * * * * * * * * * * * //

dimensions      [0 2 -3 0 0 0 0];

internalField   nonuniform List<scalar> 
2600
(
8.8079773e-05
8.8079245e-05
8.8079271e-05
8.807949e-05
8.8079744e-05
8.8080245e-05
8.8082926e-05
8.8104349e-05
8.8272771e-05
8.9512908e-05
9.8428186e-05
0.00017145296
0.0010138716
6.7789348e-05
6.7791881e-05
6.7793339e-05
6.7794963e-05
6.7796901e-05
6.7799886e-05
6.7810178e-05
6.7875511e-05
6.8312468e-05
7.1039872e-05
8.7857083e-05
0.00021159534
0.0014669324
5.3500886e-05
5.3503148e-05
5.3504846e-05
5.3506859e-05
5.3509287e-05
5.3513643e-05
5.3532992e-05
5.3656306e-05
5.4399641e-05
5.8506995e-05
8.1500797e-05
0.00023956052
0.0017068244
4.3127504e-05
4.3128883e-05
4.3130503e-05
4.3132598e-05
4.3135149e-05
4.3140834e-05
4.3171684e-05
4.3362646e-05
4.4413342e-05
4.9710824e-05
7.7552644e-05
0.00025818579
0.0017816909
3.539909e-05
3.5400132e-05
3.5401605e-05
3.5403513e-05
3.5405834e-05
3.5412916e-05
3.5457613e-05
3.5722605e-05
3.7073304e-05
4.3450503e-05
7.5629285e-05
0.00027290618
0.0017622817
2.9510599e-05
2.9511446e-05
2.95127e-05
2.9514227e-05
2.9516143e-05
2.9525119e-05
2.9586798e-05
2.9933924e-05
3.159515e-05
3.9095388e-05
7.5939385e-05
0.00028837858
0.0017002497
2.4935213e-05
2.4935877e-05
2.4936847e-05
2.4937875e-05
2.4939416e-05
2.4951342e-05
2.503458e-05
2.5477125e-05
2.7489448e-05
3.6318413e-05
7.8818158e-05
0.0003073199
0.0016256765
2.1318423e-05
2.1318913e-05
2.1319549e-05
2.132003e-05
2.1321464e-05
2.1338095e-05
2.144948e-05
2.2008273e-05
2.4447975e-05
3.4968795e-05
8.4593389e-05
0.00033066897
0.0015541994
1.8415642e-05
1.8415958e-05
1.8416233e-05
1.8416208e-05
1.8418091e-05
1.8442025e-05
1.8590687e-05
1.9295945e-05
2.2279378e-05
3.5010665e-05
9.3512814e-05
0.00035786641
0.0014930959
1.6054297e-05
1.6054439e-05
1.6054351e-05
1.6053968e-05
1.6057197e-05
1.6092028e-05
1.6290179e-05
1.7183376e-05
2.0872546e-05
3.6486908e-05
0.00010564207
0.00038720676
0.0014449141
1.411016e-05
1.4110129e-05
1.4109712e-05
1.4109249e-05
1.4115119e-05
1.4165612e-05
1.4429188e-05
1.5565379e-05
2.0175367e-05
3.9486471e-05
0.00012074249
0.00041640751
0.0014094648
1.249217e-05
1.2491978e-05
1.249131e-05
1.24912e-05
1.2501471e-05
1.2573786e-05
1.2923263e-05
1.4374121e-05
2.0181311e-05
4.4103574e-05
0.00013819401
0.0004433175
0.0013850187
1.1132483e-05
1.1132152e-05
1.1131368e-05
1.1132227e-05
1.1149209e-05
1.1251189e-05
1.1712642e-05
1.3570321e-05
2.0918928e-05
5.0386672e-05
0.00015703479
0.00046647966
0.0013691707
9.9797899e-06
9.9793621e-06
9.9786681e-06
9.9813266e-06
1.0007987e-05
1.0149541e-05
1.0756002e-05
1.3137755e-05
2.2440689e-05
5.8285038e-05
0.00017613324
0.00048532286
0.0013594869
8.994766e-06
8.994305e-06
8.9939894e-06
8.9995396e-06
9.0396464e-06
9.2332357e-06
1.0026406e-05
1.3079617e-05
2.4808572e-05
6.7609618e-05
0.00019442665
0.00050000486
0.0013539038
8.1468971e-06
8.1464947e-06
8.1469469e-06
8.1567947e-06
8.2150975e-06
8.4763588e-06
9.5087285e-06
1.3415553e-05
2.807526e-05
7.8026841e-05
0.0002111215
0.00051110137
0.0013508788
7.4122408e-06
7.412023e-06
7.4137548e-06
7.4296903e-06
7.5121568e-06
7.8606834e-06
9.1980664e-06
1.4178291e-05
3.2262331e-05
8.9094588e-05
0.00022578146
0.00051932558
0.0013493668
6.7718206e-06
6.7719549e-06
6.7756276e-06
6.7999151e-06
6.9140283e-06
7.3743439e-06
9.0987625e-06
1.5408888e-05
3.7339829e-05
0.00010033156
0.00023829849
0.00052535583
0.0013487149
6.2104575e-06
6.2111621e-06
6.2176208e-06
6.2531142e-06
6.4082476e-06
7.0110033e-06
9.2236697e-06
1.7149875e-05
4.3213606e-05
0.00011129559
0.0002487951
0.00052976262
0.0013485457
5.7159095e-06
5.7174657e-06
5.7277834e-06
5.7780724e-06
5.9859581e-06
6.7693776e-06
9.5932706e-06
1.9436233e-05
4.9726067e-05
0.00012164394
0.00025751549
0.00053299526
0.0013486594
5.2782322e-06
5.2809984e-06
5.2965329e-06
5.3661281e-06
5.6414368e-06
6.6530083e-06
1.0234238e-05
2.228513e-05
5.6672016e-05
0.00013115952
0.00026474159
0.0005353945
0.0013489619
4.889296e-06
4.893728e-06
4.9161934e-06
5.0107595e-06
5.3718124e-06
6.6701645e-06
1.1177042e-05
2.5686553e-05
6.3825678e-05
0.00013974422
0.00027074337
0.00053721257
0.0013494179
4.5424222e-06
4.549097e-06
4.5806559e-06
4.707302e-06
5.1769356e-06
6.8337316e-06
1.2452335e-05
2.9597477e-05
7.097079e-05
0.00014739148
0.0002757568
0.0005386328
0.0013500205
4.2321037e-06
4.2417515e-06
4.2851315e-06
4.4527719e-06
5.0593678e-06
7.1609028e-06
1.4086152e-05
3.394183e-05
7.7925113e-05
0.00015415333
0.00027997823
0.00053978641
0.0013507744
3.9537926e-06
3.9673375e-06
4.0259782e-06
4.2457763e-06
5.0244498e-06
7.6724685e-06
1.6094424e-05
3.8616919e-05
8.4553951e-05
0.00016011197
0.00028356674
0.00054076615
0.0013516866
3.7037376e-06
3.7223496e-06
3.8005873e-06
4.0864974e-06
5.0804009e-06
8.3914976e-06
1.8477844e-05
4.3504911e-05
9.077206e-05
0.00016536002
0.00028664926
0.00054163685
0.0013527623
3.4788613e-06
3.504022e-06
3.6073203e-06
3.9767408e-06
5.2383695e-06
9.3412706e-06
2.1218352e-05
4.8486363e-05
9.6537094e-05
0.00016998886
0.00028932618
0.00054244334
0.0013540034
3.2766694e-06
3.3102566e-06
3.4454921e-06
3.9200366e-06
5.5123349e-06
1.0542478e-05
2.427837e-05
5.3452375e-05
0.00010183911
0.00017408281
0.00029167656
0.00054321637
0.0013554084
3.0951868e-06
3.1395803e-06
3.315394e-06
3.9217755e-06
5.9187331e-06
1.2009944e-05
2.7603266e-05
5.8312862e-05
0.0001066899
0.00017771679
0.00029376257
0.00054397675
0.0013569728
2.9329181e-06
2.991133e-06
3.2183574e-06
3.9893517e-06
6.47568e-06
1.3749403e-05
3.112658e-05
6.3000084e-05
0.00011111418
0.0001809559
0.00029563312
0.00054473837
0.0013586903
2.7888292e-06
2.8646819e-06
3.1568532e-06
4.132263e-06
7.2016967e-06
1.5755029e-05
3.4776807e-05
6.7468123e-05
0.00011514328
0.00018385585
0.00029732665
0.00054550992
0.0013605531
2.6623516e-06
2.7606642e-06
3.1346228e-06
4.362102e-06
8.1139275e-06
1.8008404e-05
3.8484155e-05
7.1689804e-05
0.00011881108
0.00018646428
0.00029887505
0.00054629402
0.0013625491
2.5534088e-06
2.680258e-06
3.1568304e-06
4.6923496e-06
9.2259799e-06
2.0479254e-05
4.21859e-05
7.5652556e-05
0.00012215122
0.00018882083
0.00030030031
0.00054708344
0.001364665
2.4624667e-06
2.6254827e-06
3.2302147e-06
5.1378783e-06
1.0545685e-05
2.3127918e-05
4.5829652e-05
7.9354439e-05
0.00012519597
0.00019095973
0.00030162122
0.00054787012
0.0013668874
2.3906118e-06
2.5993266e-06
3.3632045e-06
5.714089e-06
1.2073206e-05
2.5908984e-05
4.9374527e-05
8.2800767e-05
0.00012797522
0.0001929092
0.00030285018
0.00054865287
0.0013692048
2.3396576e-06
2.6059009e-06
3.565945e-06
6.4356565e-06
1.379994e-05
2.8775319e-05
5.2790668e-05
8.6001443e-05
0.00013051585
0.00019469159
0.00030399376
0.00054944272
0.0013716092
2.3122834e-06
2.6506068e-06
3.8501618e-06
7.3149531e-06
1.5708513e-05
3.1681692e-05
5.6057927e-05
8.8969441e-05
0.00013284315
0.00019632773
0.00030505437
0.00055025018
0.0013740956
2.312204e-06
2.7402971e-06
4.2287855e-06
8.360338e-06
1.7773921e-05
3.4587408e-05
5.9163895e-05
9.1718485e-05
0.000134977
0.0001978295
0.00030604752
0.00055107622
0.0013766577
2.3443665e-06
2.8833943e-06
4.715266e-06
9.5746045e-06
1.9965609e-05
3.7457895e-05
6.2102575e-05
9.4263947e-05
0.00013693775
0.00019920349
0.00030698675
0.00055192215
0.0013792894
2.4151613e-06
3.08991e-06
5.3225444e-06
1.0953905e-05
2.2249993e-05
4.026506e-05
6.4872079e-05
9.6618924e-05
0.00013873802
0.00020046565
0.00030788006
0.00055278755
0.0013819844
2.5326205e-06
3.3712892e-06
6.061731e-06
1.2487422e-05
2.4593018e-05
4.2987257e-05
6.7474462e-05
9.8797812e-05
0.00014038632
0.00020163083
0.00030873381
0.00055367121
0.0013847362
2.7065546e-06
3.7399971e-06
6.9406291e-06
1.4157864e-05
2.6962172e-05
4.5608169e-05
6.9912765e-05
0.00010081055
0.00014189658
0.00020271014
0.00030955281
0.00055457138
0.0013875385
2.9485502e-06
4.2087763e-06
7.9623506e-06
1.5942735e-05
2.9328091e-05
4.8116704e-05
7.2192973e-05
0.0001026631
0.00014328329
0.00020371266
0.00031034058
0.00055548595
0.0013903847
3.2717208e-06
4.7895537e-06
9.1242825e-06
1.7815987e-05
3.1665001e-05
5.0504533e-05
7.431848e-05
0.00010436656
0.00014455809
0.0002046458
0.00031109971
0.0005564126
0.0013932686
3.6900859e-06
5.4920732e-06
1.0417684e-05
1.9750012e-05
3.3951699e-05
5.2768184e-05
7.6289669e-05
0.00010593299
0.00014573089
0.00020551555
0.00031183197
0.00055734877
0.0013961839
4.217485e-06
6.3224283e-06
1.1827952e-05
2.1717141e-05
3.6170246e-05
5.4901159e-05
7.8113757e-05
0.00010737249
0.00014680993
0.00020632674
0.00031253851
0.00055829181
0.0013991244
4.8660264e-06
7.281775e-06
1.3335594e-05
2.3691123e-05
3.8306688e-05
5.6898168e-05
7.9798305e-05
0.0001086939
0.00014780214
0.00020708321
0.00031321994
0.00055923891
0.0014020836
5.6442499e-06
8.3655571e-06
1.4917866e-05
2.5648781e-05
4.0344258e-05
5.8760207e-05
8.1350099e-05
0.00010990478
0.00014871321
0.00020778792
0.00031387636
0.00056018713
0.0014050556
6.55536e-06
9.5634605e-06
1.6550686e-05
2.7565321e-05
4.2272541e-05
6.0488808e-05
8.2775228e-05
0.00011101156
0.00014954783
0.00020844308
0.00031450745
0.00056113341
0.0014080338
7.5961543e-06
1.0860442e-05
1.8207369e-05
2.9419102e-05
4.408453e-05
6.2085814e-05
8.4079034e-05
0.0001120196
0.00015030969
0.00020905022
0.00031511249
0.00056207453
0.0014110119
8.7563161e-06
1.2235551e-05
1.9861232e-05
3.1193216e-05
4.5774965e-05
6.3553181e-05
8.5266112e-05
0.00011293328
0.00015100165
0.00020961023
0.00031569038
0.00056300711
0.0014139831
1.0017523e-05
1.3664335e-05
2.1488449e-05
3.2873859e-05
4.7340054e-05
6.4892867e-05
8.6340347e-05
0.00011375612
0.0001516258
0.00021012347
0.00031623966
0.00056392755
0.0014169405
1.1355902e-05
1.5121211e-05
2.3068172e-05
3.4450178e-05
4.8777289e-05
6.6106812e-05
8.7304984e-05
0.00011449085
0.00015218355
0.00021058975
0.00031675852
0.00056483204
0.0014198766
1.2744265e-05
1.6581081e-05
2.4582903e-05
3.5914123e-05
5.0085355e-05
6.7196971e-05
8.8162738e-05
0.00011513953
0.00015267569
0.00021100843
0.00031724482
0.00056571653
0.0014227834
1.4154482e-05
1.8020638e-05
2.6018604e-05
3.7260265e-05
5.1264092e-05
6.8165414e-05
8.8915932e-05
0.0001157037
0.00015310253
0.00021137848
0.00031769616
0.00056657675
0.0014256524
1.5559581e-05
1.9419302e-05
2.7364607e-05
3.8485598e-05
5.231449e-05
6.901445e-05
8.9566665e-05
0.0001161845
0.00015346401
0.00021169859
0.00031810989
0.00056740823
0.0014284744
1.6935339e-05
2.0759787e-05
2.8613378e-05
3.9589303e-05
5.323867e-05
6.9746757e-05
9.0116988e-05
0.00011658289
0.00015375983
0.00021196724
0.00031848323
0.00056820634
0.0014312396
1.8261268e-05
2.2028325e-05
2.9760206e-05
4.0572478e-05
5.4039842e-05
7.0365496e-05
9.0569078e-05
0.00011689975
0.00015398961
0.00021218284
0.00031881337
0.0005689664
0.0014339377
1.9521047e-05
2.3214635e-05
3.0802835e-05
4.1437842e-05
5.4722228e-05
7.0874393e-05
9.0925392e-05
0.00011713613
0.00015415307
0.0002123439
0.00031909759
0.0005696838
0.0014365579
2.0702515e-05
2.4311688e-05
3.1741086e-05
4.2189436e-05
5.5290938e-05
7.1277773e-05
9.1188791e-05
0.00011729337
0.00015425016
0.00021244916
0.00031933341
0.00057035412
0.0014390893
2.1797369e-05
2.5315353e-05
3.257649e-05
4.2832332e-05
5.5751828e-05
7.1580559e-05
9.1362626e-05
0.00011737319
0.0001542812
0.00021249774
0.00031951874
0.00057097333
0.0014415208
2.2800693e-05
2.6223983e-05
3.3311941e-05
4.3372362e-05
5.6111337e-05
7.1788219e-05
9.1450778e-05
0.00011737787
0.00015424704
0.00021248927
0.00031965202
0.0005715379
0.0014438419
2.3710403e-05
2.7037977e-05
3.3951388e-05
4.3815874e-05
5.6376316e-05
7.1906692e-05
9.1457657e-05
0.00011731022
0.00015414911
0.00021242401
0.00031973234
0.000572045
0.0014460427
2.4526701e-05
2.775936e-05
3.4499554e-05
4.4169529e-05
5.655387e-05
7.1942283e-05
9.138817e-05
0.00011717368
0.00015398951
0.00021230291
0.00031975954
0.00057249257
0.001448114
2.5251561e-05
2.8391403e-05
3.4961707e-05
4.444013e-05
5.6651213e-05
7.1901559e-05
9.1247655e-05
0.00011697222
0.00015377099
0.00021212768
0.00031973427
0.00057287945
0.0014500481
2.5888277e-05
2.8938286e-05
3.5343455e-05
4.4634486e-05
5.6675545e-05
7.1791234e-05
9.1041802e-05
0.00011671034
0.00015349694
0.00021190076
0.00031965799
0.00057320541
0.0014518386
2.6441082e-05
2.9404816e-05
3.5650591e-05
4.4759303e-05
5.6633948e-05
7.1618067e-05
9.0776554e-05
0.00011639299
0.00015317136
0.00021162526
0.00031953294
0.00057347115
0.0014534809
2.6914834e-05
2.9796196e-05
3.5888957e-05
4.4821107e-05
5.6533305e-05
7.1388766e-05
9.0458013e-05
0.00011602548
0.00015279874
0.00021130498
0.00031936212
0.00057367824
0.0014549719
2.731477e-05
3.0117836e-05
3.6064345e-05
4.4826183e-05
5.6380236e-05
7.1109904e-05
9.0092342e-05
0.00011561335
0.00015238399
0.00021094419
0.00031914913
0.00057382908
0.0014563106
2.764631e-05
3.037521e-05
3.6182416e-05
4.4780537e-05
5.6181059e-05
7.0787857e-05
8.9685678e-05
0.00011516232
0.00015193234
0.00021054764
0.00031889812
0.00057392677
0.0014574976
2.7914911e-05
3.0573746e-05
3.6248644e-05
4.4689864e-05
5.5941754e-05
7.0428742e-05
8.9244048e-05
0.00011467816
0.0001514492
0.00021012034
0.00031861363
0.00057397499
0.0014585351
2.8125955e-05
3.071874e-05
3.6268274e-05
4.4559536e-05
5.5667947e-05
7.0038381e-05
8.87733e-05
0.00011416656
0.00015094006
0.00020966751
0.00031830045
0.00057397783
0.0014594269
2.8284674e-05
3.0815302e-05
3.6246294e-05
4.4394595e-05
5.5364899e-05
6.9622266e-05
8.8279043e-05
0.00011363314
0.00015041038
0.00020919438
0.0003179635
0.00057393972
0.0014601782
2.8396093e-05
3.0868313e-05
3.6187414e-05
4.4199747e-05
5.5037505e-05
6.9185541e-05
8.7766603e-05
0.00011308327
0.00014986552
0.00020870617
0.00031760771
0.00057386523
0.0014607953
2.8464992e-05
3.0882399e-05
3.6096061e-05
4.3979369e-05
5.4690294e-05
6.8732987e-05
8.7240985e-05
0.0001125221
0.00014931061
0.0002082079
0.0003172379
0.00057375898
0.0014612853
2.8495889e-05
3.0861916e-05
3.5976374e-05
4.3737514e-05
5.4327439e-05
6.8269017e-05
8.6706844e-05
0.00011195443
0.00014875053
0.00020770439
0.00031685868
0.00057362553
0.0014616562
2.8493022e-05
3.0810943e-05
3.5832203e-05
4.3477923e-05
5.3952764e-05
6.7797678e-05
8.6168472e-05
0.00011138475
0.00014818983
0.00020720012
0.00031647439
0.00057346928
0.0014619165
2.8460352e-05
3.073328e-05
3.5667117e-05
4.3204031e-05
5.3569758e-05
6.7322653e-05
8.5629789e-05
0.00011081716
0.00014763269
0.00020669924
0.00031608905
0.00057329442
0.0014620748
2.8401556e-05
3.0632455e-05
3.5484411e-05
4.2918984e-05
5.3181586e-05
6.6847272e-05
8.5094337e-05
0.00011025537
0.0001470829
0.00020620548
0.00031570629
0.00057310484
0.0014621402
2.8320042e-05
3.0511725e-05
3.5287116e-05
4.2625648e-05
5.2791106e-05
6.6374523e-05
8.4565288e-05
0.00010970271
0.00014654385
0.00020572217
0.00031532933
0.00057290414
0.0014621215
2.8218951e-05
3.0374092e-05
3.5078007e-05
4.2326626e-05
5.2400885e-05
6.5907063e-05
8.4045452e-05
0.00010916211
0.0001460185
0.00020525221
0.000314961
0.00057269557
0.0014620273
2.8101173e-05
3.022231e-05
3.4859619e-05
4.202427e-05
5.2013211e-05
6.5447239e-05
8.3537289e-05
0.00010863613
0.00014550941
0.00020479808
0.00031460372
0.00057248205
0.0014618664
2.7969351e-05
3.0058896e-05
3.4634255e-05
4.1720695e-05
5.1630114e-05
6.4997102e-05
8.3042925e-05
0.00010812694
0.00014501877
0.00020436186
0.00031425949
0.00057226614
0.0014616467
2.7825903e-05
2.9886144e-05
3.4404003e-05
4.1417794e-05
5.1253378e-05
6.4558424e-05
8.2564167e-05
0.00010763639
0.00014454834
0.00020394523
0.00031392995
0.00057205008
0.0014613761
2.7673028e-05
2.9706137e-05
3.4170743e-05
4.1117252e-05
5.0884561e-05
6.4132716e-05
8.2102529e-05
0.00010716596
0.00014409957
0.00020354948
0.00031361637
0.00057183575
0.001461062
2.7512722e-05
2.9520761e-05
3.3936165e-05
4.0820555e-05
5.0525006e-05
6.3721251e-05
8.1659247e-05
0.00010671685
0.00014367354
0.00020317561
0.00031331979
0.0005716245
0.001460711
2.7346789e-05
2.9331713e-05
3.3701777e-05
4.0529012e-05
5.0175862e-05
6.3325074e-05
8.1235298e-05
0.00010628995
0.00014327104
0.00020282423
0.00031304071
0.00057141641
0.0014603285
2.7176855e-05
2.914052e-05
3.3468921e-05
4.0243759e-05
4.9838093e-05
6.2945028e-05
8.0831432e-05
0.00010588593
0.00014289262
0.00020249589
0.00031277953
0.00057120928
0.0014599197
2.7004381e-05
2.8948543e-05
3.3238782e-05
3.9965777e-05
4.9512499e-05
6.2581768e-05
8.0448179e-05
0.00010550517
0.0001425385
0.00020219043
0.00031253534
0.00057100469
0.0014594897
2.683067e-05
2.8756997e-05
3.3012397e-05
3.9695903e-05
4.9199725e-05
6.223578e-05
8.0085898e-05
0.00010514794
0.00014220886
0.00020190801
0.00031230612
0.00057080571
0.0014590438
2.6656885e-05
2.8566954e-05
3.2790674e-05
3.943484e-05
4.8900279e-05
6.1907401e-05
7.9744772e-05
0.00010481424
0.00014190344
0.00020164698
0.00031209275
0.00057061391
0.0014585869
2.6484056e-05
2.8379359e-05
3.2574394e-05
3.918317e-05
4.8614543e-05
6.1596827e-05
7.9424819e-05
0.00010450389
0.00014162171
0.00020140639
0.00031189574
0.00057043043
0.0014581236
2.6313089e-05
2.8195038e-05
3.2364225e-05
3.8941366e-05
4.8342788e-05
6.1304149e-05
7.9125974e-05
0.00010421666
0.0001413622
0.0002011862
0.0003117152
0.00057025605
0.0014576578
2.6144779e-05
2.8014708e-05
3.2160734e-05
3.8709804e-05
4.8085189e-05
6.1029343e-05
7.8847989e-05
0.00010395153
0.00014112445
0.00020098612
0.00031155094
0.00057009123
0.001457193
2.5979818e-05
2.7838986e-05
3.1964392e-05
3.8488765e-05
4.7841825e-05
6.0772277e-05
7.8590336e-05
0.00010370764
0.00014090797
0.00020080564
0.00031140263
0.00056993625
0.0014567323
2.5818804e-05
2.7668401e-05
3.1775586e-05
3.8278458e-05
4.7612707e-05
6.0532705e-05
7.8352155e-05
0.00010348449
0.00014071215
0.00020064413
0.00031126976
0.0005697912
0.0014562784
2.5662252e-05
2.7503399e-05
3.1594633e-05
3.8079034e-05
4.7397758e-05
6.0309957e-05
7.813296e-05
0.00010328147
0.00014053628
0.00020050084
0.00031115172
0.00056965602
0.0014558334
2.5510599e-05
2.7344361e-05
3.14218e-05
3.7890535e-05
4.7196574e-05
6.0103642e-05
7.7932206e-05
0.00010309788
0.00014037956
0.00020037496
0.00031104785
0.00056953059
0.0014553995
2.5364228e-05
2.7191605e-05
3.1257213e-05
3.7712811e-05
4.7008898e-05
5.9913326e-05
7.774929e-05
0.00010293298
0.00014024113
0.0002002656
0.00031095741
0.00056941469
0.0014549782
2.5223416e-05
2.7045322e-05
3.1100916e-05
3.754575e-05
4.6834439e-05
5.9738536e-05
7.7583568e-05
0.00010278597
0.0001401201
0.00020017186
0.00031087963
0.00056930805
0.0014545708
2.5088367e-05
2.6905646e-05
3.0952917e-05
3.7389204e-05
4.667287e-05
5.9578764e-05
7.7434356e-05
0.00010265602
0.00014001554
0.00020009279
0.00031081374
0.00056921035
0.0014541786
2.495923e-05
2.6772669e-05
3.0813191e-05
3.7242993e-05
4.6523837e-05
5.943347e-05
7.7300942e-05
0.00010254228
0.00013992649
0.00020002744
0.00031075893
0.00056912126
0.0014538023
2.483611e-05
2.6646438e-05
3.0681675e-05
3.7106908e-05
4.6386956e-05
5.9302093e-05
7.7182592e-05
0.00010244385
0.00013985199
0.00019997486
0.00031071442
0.0005690404
0.0014534426
2.4719071e-05
2.6526967e-05
3.0558278e-05
3.698071e-05
4.6261819e-05
5.9184047e-05
7.7078554e-05
0.00010235987
0.00013979108
0.00019993412
0.00031067943
0.00056896739
0.0014531001
2.4608142e-05
2.6414234e-05
3.0442876e-05
3.6864136e-05
4.6148001e-05
5.9078732e-05
7.6988068e-05
0.00010228944
0.00013974281
0.00019990428
0.00031065321
0.00056890185
0.001452775
2.4503321e-05
2.6308191e-05
3.0335323e-05
3.6756903e-05
4.6045055e-05
5.8985535e-05
7.6910366e-05
0.00010223168
0.00013970625
0.00019988445
0.00031063502
0.00056884338
0.0014524676
2.4404575e-05
2.620876e-05
3.0235447e-05
3.6658707e-05
4.5952522e-05
5.8903838e-05
7.6844684e-05
0.00010218571
0.00013968047
0.00019987376
0.00031062415
0.00056879159
0.0014521778
2.4311848e-05
2.6115839e-05
3.0143054e-05
3.6569229e-05
4.5869933e-05
5.8833014e-05
7.6790259e-05
0.00010215067
0.00013966457
0.00019987136
0.00031061991
0.00056874609
0.0014519057
2.422506e-05
2.6029307e-05
3.0057935e-05
3.6488134e-05
4.5796812e-05
5.8772441e-05
7.6746338e-05
0.00010212573
0.00013965771
0.00019987645
0.00031062166
0.0005687065
0.0014516511
2.4144108e-05
2.594902e-05
2.9979863e-05
3.6415079e-05
4.5732674e-05
5.8721497e-05
7.671218e-05
0.00010211007
0.00013965903
0.00019988825
0.00031062877
0.00056867245
0.0014514137
2.4068873e-05
2.5874821e-05
2.9908597e-05
3.634971e-05
4.5677037e-05
5.8679566e-05
7.6687059e-05
0.00010210289
0.00013966774
0.00019990603
0.00031064068
0.00056864358
0.0014511932
2.3999218e-05
2.5806534e-05
2.9843886e-05
3.6291667e-05
4.5629415e-05
5.8646041e-05
7.6670267e-05
0.00010210342
0.00013968307
0.00019992911
0.00031065683
0.00056861954
0.0014509892
2.3934993e-05
2.5743974e-05
2.9785468e-05
3.6240586e-05
4.5589326e-05
5.8620324e-05
7.6661116e-05
0.00010211093
0.0001397043
0.00019995683
0.00031067671
0.00056860001
0.0014508014
2.3876034e-05
2.5686942e-05
2.9733076e-05
3.6196102e-05
4.5556295e-05
5.8601833e-05
7.6658939e-05
0.00010212471
0.00013973074
0.00019998856
0.00031069982
0.00056858465
0.0014506293
2.3822167e-05
2.5635231e-05
2.9686433e-05
3.6157845e-05
4.5529848e-05
5.8589997e-05
7.6663094e-05
0.00010214408
0.00013976172
0.00020002374
0.00031072572
0.00056857315
0.0014504723
2.3773208e-05
2.5588627e-05
2.9645261e-05
3.6125452e-05
4.5509523e-05
5.8584264e-05
7.6672963e-05
0.00010216841
0.00013979664
0.00020006182
0.00031075397
0.00056856518
0.0014503299
2.3728966e-05
2.5546909e-05
2.960928e-05
3.6098557e-05
4.5494866e-05
5.8584097e-05
7.6687952e-05
0.00010219709
0.00013983491
0.0002001023
0.00031078419
0.00056856045
0.0014502014
2.3689244e-05
2.5509851e-05
2.9578205e-05
3.6076802e-05
4.5485435e-05
5.8588981e-05
7.6707497e-05
0.00010222953
0.00013987598
0.00020014471
0.00031081599
0.00056855865
0.0014500864
2.365384e-05
2.5477224e-05
2.9551755e-05
3.6059833e-05
4.5480798e-05
5.8598418e-05
7.673106e-05
0.00010226519
0.00013991936
0.00020018861
0.00031084904
0.00056855951
0.0014499841
2.3622546e-05
2.5448799e-05
2.9529649e-05
3.6047303e-05
4.548054e-05
5.8611931e-05
7.6758129e-05
0.00010230357
0.00013996458
0.00020023361
0.00031088303
0.00056856275
0.0014498938
2.3595156e-05
2.5424343e-05
2.9511608e-05
3.6038872e-05
4.5484256e-05
5.8629067e-05
7.6788225e-05
0.00010234419
0.00014001119
0.00020027934
0.00031091767
0.00056856813
0.0014498149
2.3571461e-05
2.5403626e-05
2.9497359e-05
3.6034211e-05
4.5491561e-05
5.8649393e-05
7.6820893e-05
0.00010238661
0.00014005881
0.00020032548
0.00031095271
0.00056857544
0.0014497467
2.355125e-05
2.5386418e-05
2.9486633e-05
3.6032999e-05
4.5502081e-05
5.8672499e-05
7.685571e-05
0.00010243042
0.00014010706
0.00020037174
0.00031098793
0.00056858448
0.0014496887
2.3534315e-05
2.5372493e-05
2.9479165e-05
3.6034926e-05
4.5515464e-05
5.8697999e-05
7.689228e-05
0.00010247524
0.00014015563
0.00020041784
0.00031102312
0.00056859506
0.0014496402
2.352045e-05
2.5361627e-05
2.9474699e-05
3.6039693e-05
4.5531369e-05
5.8725528e-05
7.6930233e-05
0.00010252073
0.0001402042
0.00020046355
0.00031105812
0.00056860703
0.0014496007
2.3509449e-05
2.53536e-05
2.9472985e-05
3.6047015e-05
4.5549477e-05
5.8754744e-05
7.6969229e-05
0.00010256657
0.00014025251
0.00020050865
0.00031109274
0.00056862021
0.0014495696
2.3501113e-05
2.5348196e-05
2.947378e-05
3.6056615e-05
4.5569483e-05
5.8785326e-05
7.7008948e-05
0.00010261246
0.00014030031
0.00020055295
0.00031112684
0.00056863442
0.0014495464
2.3495244e-05
2.5345207e-05
2.947685e-05
3.606823e-05
4.5591099e-05
5.8816975e-05
7.70491e-05
0.00010265815
0.00014034737
0.00020059628
0.00031116027
0.00056864949
0.0014495305
2.3491648e-05
2.5344427e-05
2.9481969e-05
3.608161e-05
4.5614055e-05
5.8849413e-05
7.7089415e-05
0.00010270338
0.0001403935
0.00020063846
0.00031119289
0.0005686652
0.0014495214
2.3490138e-05
2.5345658e-05
2.9488921e-05
3.6096517e-05
4.5638097e-05
5.8882382e-05
7.7129649e-05
0.00010274795
0.00014043851
0.00020067937
0.00031122457
0.00056868139
0.0014495184
2.3490532e-05
2.5348711e-05
2.9497499e-05
3.6112726e-05
4.5662988e-05
5.8915644e-05
7.7169577e-05
0.00010279166
0.00014048226
0.00020071888
0.00031125521
0.00056869785
0.0014495208
2.3492653e-05
2.53534e-05
2.9507504e-05
3.6130025e-05
4.5688507e-05
5.8948982e-05
7.7209001e-05
0.00010283433
0.0001405246
0.00020075689
0.00031128472
0.00056871443
0.001449528
2.3496332e-05
2.5359549e-05
2.9518748e-05
3.6148216e-05
4.5714452e-05
5.89822e-05
7.7247743e-05
0.00010287583
0.00014056543
0.00020079333
0.00031131303
0.00056873102
0.0014495394
2.3501405e-05
2.5366991e-05
2.9531056e-05
3.6167114e-05
4.5740636e-05
5.901512e-05
7.7285646e-05
0.00010291603
0.00014060467
0.00020082814
0.00031134011
0.00056874755
0.0014495546
2.3507717e-05
2.5375566e-05
2.9544261e-05
3.6186547e-05
4.5766889e-05
5.9047585e-05
7.7322575e-05
0.00010295482
0.00014064223
0.0002008613
0.00031136593
0.00056876396
0.0014495729
2.3515121e-05
2.5385121e-05
2.9558205e-05
3.6206358e-05
4.5793058e-05
5.9079453e-05
7.7358416e-05
0.00010299212
0.00014067809
0.00020089278
0.00031139052
0.00056878025
0.0014495942
2.3523474e-05
2.5395515e-05
2.9572744e-05
3.6226399e-05
4.5819003e-05
5.9110602e-05
7.7393069e-05
0.00010302787
0.0001407122
0.00020092259
0.00031141388
0.00056879642
0.0014496181
2.3532644e-05
2.5406612e-05
2.9587742e-05
3.6246538e-05
4.58446e-05
5.9140925e-05
7.7426452e-05
0.00010306201
0.00014074454
0.00020095072
0.00031143602
0.00056881239
0.0014496444
2.3542506e-05
2.5418287e-05
2.9603072e-05
3.6266653e-05
4.5869736e-05
5.9170327e-05
7.7458497e-05
0.00010309451
0.0001407751
0.00020097718
0.00031145694
0.00056882809
0.0014496729
2.355294e-05
2.5430422e-05
2.9618618e-05
3.6286632e-05
4.5894313e-05
5.9198729e-05
7.7489147e-05
0.00010312533
0.00014080389
0.00020100199
0.00031147663
0.00056884317
0.0014497032
2.3563836e-05
2.5442904e-05
2.9634272e-05
3.6306374e-05
4.5918241e-05
5.922606e-05
7.7518358e-05
0.00010315446
0.00014083089
0.00020102514
0.000311495
0.00056885757
0.001449735
2.3575088e-05
2.5455632e-05
2.9649935e-05
3.6325788e-05
4.5941444e-05
5.9252263e-05
7.7546094e-05
0.00010318188
0.00014085612
0.00020104665
0.0003115119
0.00056887137
0.001449768
2.3586601e-05
2.5468511e-05
2.9665516e-05
3.6344793e-05
4.5963855e-05
5.927729e-05
7.7572332e-05
0.00010320759
0.00014087958
0.00020106647
0.00031152736
0.00056888453
0.0014498019
2.3598284e-05
2.5481451e-05
2.9680932e-05
3.6363316e-05
4.5985417e-05
5.9301107e-05
7.7597059e-05
0.0001032316
0.00014090129
0.00020108453
0.00031154145
0.000568897
0.0014498361
2.3610055e-05
2.5494374e-05
2.969611e-05
3.6381295e-05
4.6006085e-05
5.9323687e-05
7.7620273e-05
0.00010325394
0.00014092124
0.00020110092
0.00031155423
0.00056890874
0.0014498704
2.3621838e-05
2.5507206e-05
2.9710985e-05
3.6398677e-05
4.6025822e-05
5.9345017e-05
7.7641979e-05
0.0001032746
0.00014093942
0.00020111572
0.00031156575
0.00056891975
0.0014499043
2.3633565e-05
2.5519883e-05
2.97255e-05
3.6415419e-05
4.6044604e-05
5.9365094e-05
7.7662203e-05
0.00010329359
0.00014095593
0.00020112899
0.00031157608
0.00056893003
0.0014499376
2.3645175e-05
2.5532347e-05
2.9739606e-05
3.6431485e-05
4.6062416e-05
5.9383925e-05
7.7680932e-05
0.00010331094
0.00014097082
0.00020114085
0.00031158532
0.00056893965
0.0014499701
2.3656614e-05
2.5544548e-05
2.9753263e-05
3.6446851e-05
4.6079251e-05
5.9401507e-05
7.7698189e-05
0.00010332673
0.0001409842
0.00020115136
0.00031159355
0.00056894869
0.0014500017
2.3667833e-05
2.5556444e-05
2.9766437e-05
3.6461499e-05
4.60951e-05
5.9417841e-05
7.7714019e-05
0.00010334102
0.00014099613
0.00020116064
0.00031160087
0.00056895724
0.0014500324
2.3678792e-05
2.5567997e-05
2.9779104e-05
3.647541e-05
4.6109954e-05
5.9432952e-05
7.772847e-05
0.00010335388
0.00014100671
0.00020116876
0.00031160737
0.00056896539
0.0014500623
2.3689455e-05
2.5579177e-05
2.9791235e-05
3.6488567e-05
4.6123821e-05
5.9446871e-05
7.7741595e-05
0.00010336539
0.00014101602
0.00020117582
0.00031161311
0.00056897321
0.0014500916
2.3699789e-05
2.5589953e-05
2.9802809e-05
3.6500964e-05
4.6136712e-05
5.9459631e-05
7.7753448e-05
0.0001033756
0.00014102413
0.00020118188
0.00031161817
0.00056898073
0.0014501203
2.3709764e-05
2.5600299e-05
2.9813808e-05
3.6512598e-05
4.6148644e-05
5.9471267e-05
7.7764081e-05
0.00010338459
0.00014103111
0.00020118701
0.00031162257
0.00056898793
0.0014501486
2.3719353e-05
2.5610193e-05
2.9824222e-05
3.6523472e-05
4.6159637e-05
5.9481819e-05
7.7773547e-05
0.00010339242
0.00014103702
0.00020119125
0.00031162633
0.00056899478
0.0014501763
2.3728536e-05
2.5619618e-05
2.9834043e-05
3.6533593e-05
4.6169713e-05
5.9491323e-05
7.7781899e-05
0.00010339915
0.00014104193
0.00020119465
0.00031162945
0.00056900118
0.0014502034
2.3737294e-05
2.5628562e-05
2.9843266e-05
3.6542969e-05
4.6178897e-05
5.9499821e-05
7.7789188e-05
0.00010340483
0.00014104588
0.00020119724
0.00031163194
0.00056900705
0.0014502296
2.3745616e-05
2.5637014e-05
2.9851892e-05
3.6551614e-05
4.6187217e-05
5.9507353e-05
7.7795468e-05
0.00010340952
0.00014104894
0.00020119907
0.00031163379
0.00056901232
0.0014502546
2.375349e-05
2.5644971e-05
2.9859924e-05
3.6559543e-05
4.6194704e-05
5.9513965e-05
7.7800792e-05
0.00010341329
0.00014105115
0.00020120017
0.00031163502
0.00056901692
0.0014502783
2.3760914e-05
2.565243e-05
2.986737e-05
3.6566777e-05
4.6201389e-05
5.9519702e-05
7.7805217e-05
0.00010341619
0.00014105259
0.00020120061
0.00031163566
0.00056902086
0.0014503003
2.3767884e-05
2.5659394e-05
2.9874241e-05
3.6573338e-05
4.620731e-05
5.9524613e-05
7.7808801e-05
0.00010341829
0.0001410533
0.00020120044
0.00031163578
0.00056902415
0.0014503206
2.3774403e-05
2.5665869e-05
2.9880552e-05
3.6579251e-05
4.6212505e-05
5.9528747e-05
7.7811605e-05
0.00010341965
0.00014105337
0.00020119972