/*--------------------------------*- C++ -*----------------------------------*\
| =========                 |                                                 |
| \\      /  F ield         | OpenFOAM: The Open Source CFD Toolbox           |
|  \\    /   O peration     | Version:  2506                                  |
|   \\  /    A nd           | Website:  www.openfoam.com                      |
|    \\/     M anipulation  |                                                 |
\*---------------------------------------------------------------------------*/
FoamFile
{
    version     2.0;
    format      ascii;
    arch        "LSB;label=32;scalar=64";
    class       volScalarField;
    location    "19000/water";
    object      k;
}
// * * * * * * * * * * * * * * * * * * * * * * * * * * * * * * * * * * * * * //

dimensions      [0 2 -2 0 0 0 0];

internalField   nonuniform List<scalar> 
2600
(
0.0001992401
0.00019923925
0.00019923929
0.00019923963
0.00019923982
0.00019923914
0.00019923438
0.00019921375
0.00019914651
0.00019904325
0.00019990841
0.00021454267
0.00040955349
0.00017237279
0.00017237614
0.00017237826
0.00017238051
0.0001723821
0.00017237949
0.00017235884
0.00017227555
0.000172027
0.00017162102
0.00017329371
0.00020304806
0.00052391648
0.00015132731
0.00015133049
0.00015133306
0.00015133552
0.00015133516
0.00015132207
0.00015126283
0.00015106462
0.00015055477
0.00014985944
0.0001528957
0.00019760629
0.00057958156
0.00013448336
0.00013448533
0.00013448764
0.00013448905
0.00013448325
0.00013445009
0.00013432997
0.00013398205
0.00013321503
0.00013247936
0.00013787909
0.00019702317
0.00059640815
0.00012075551
0.00012075697
0.00012075853
0.00012075718
0.00012074152
0.0001206782
0.00012048052
0.00011997843
0.0001190486
0.00011870929
0.00012776334
0.00020116854
0.00059206885
0.0001093899
0.00010939088
0.000109391
0.00010938492
0.00010935483
0.00010925313
0.00010897207
0.00010834649
0.00010742643
0.0001080609
0.00012226457
0.00021023394
0.00057809221
9.984982e-05
9.9850093e-05
9.9847944e-05
9.9835056e-05
9.9786463e-05
9.9641865e-05
9.9284958e-05
9.859999e-05
9.7925044e-05
0.00010022517
0.00012123091
0.00022425603
0.00056106272
9.1744874e-05
9.174416e-05
9.1738826e-05
9.1717148e-05
9.1647174e-05
9.1460104e-05
9.1049018e-05
9.0398665e-05
9.0258419e-05
9.5030413e-05
0.00012461431
0.00024286356
0.00054449405
8.4785472e-05
8.4783454e-05
8.4774018e-05
8.4741918e-05
8.4649457e-05
8.4426122e-05
8.3996574e-05
8.3502376e-05
8.4241543e-05
9.2421343e-05
0.00013239492
0.00026511347
0.00053012765
7.8752977e-05
7.8749319e-05
7.8734951e-05
7.8691403e-05
7.8577619e-05
7.8330528e-05
7.7932172e-05
7.7743318e-05
7.9771153e-05
9.2438122e-05
0.00014444361
0.00028951151
0.0005186607
7.3479682e-05
7.3474066e-05
7.3454131e-05
7.3398964e-05
7.3267704e-05
7.3016085e-05
7.2712929e-05
7.3009357e-05
7.6815021e-05
9.5182833e-05
0.00016036324
0.00031428525
0.00051014247
6.8835097e-05
6.8827266e-05
6.8801436e-05
6.8735571e-05
6.8593744e-05
6.836405e-05
6.8235745e-05
6.9234209e-05
7.5403716e-05
0.00010076472
0.00017939076
0.00033780739
0.0005042266
6.4716374e-05
6.4706175e-05
6.4674551e-05
6.4600233e-05
6.4458202e-05
6.4284863e-05
6.4429045e-05
6.6391811e-05
7.5619872e-05
0.0001092241
0.00020043528
0.00035894529
0.00050037283
6.1041501e-05
6.1028932e-05
6.0992164e-05
6.091321e-05
6.0785257e-05
6.0711783e-05
6.1247563e-05
6.4493003e-05
7.7580807e-05
0.00012045028
0.00022225715
0.00037717552
0.0004980107
5.7744396e-05
5.7729653e-05
5.7689074e-05
5.7611142e-05
5.751606e-05
5.7596592e-05
5.8669223e-05
6.3582872e-05
8.1411587e-05
0.00013412437
0.00024370832
0.00039247762
0.00049664628
5.4771313e-05
5.4754847e-05
5.4712615e-05
5.4643526e-05
5.4605384e-05
5.4906753e-05
5.6693486e-05
6.3736861e-05
8.7208043e-05
0.00014971788
0.00026392364
0.00040513366
0.00049590625
5.2078186e-05
5.206076e-05
5.2020025e-05
5.1970154e-05
5.2019282e-05
5.2623661e-05
5.5340605e-05
6.5053658e-05
9.4994185e-05
0.00016655656
0.0002823955
0.00041554871
0.00049553614
4.9628636e-05
4.9611393e-05
4.9576492e-05
4.9559258e-05
4.9733503e-05
5.0741693e-05
5.4651195e-05
6.7643172e-05
0.00010468473
0.00018392817
0.00029893687
0.00042413794
0.00049537652
4.7392458e-05
4.7377004e-05
4.7353699e-05
4.7386176e-05
4.773248e-05
4.9267886e-05
5.4685329e-05
7.1608743e-05
0.00011606686
0.00020119288
0.00031358495
0.0004312733
0.0004953351
4.5344476e-05
4.5332971e-05
4.5328746e-05
4.5432431e-05
4.600877e-05
4.8222045e-05
5.5520139e-05
7.7024462e-05
0.0001288111
0.00021785898
0.00032650009
0.00043726613
0.00049536294
4.3463657e-05
4.3458933e-05
4.3483358e-05
4.3685127e-05
4.4562868e-05
4.7637066e-05
5.7244888e-05
8.3911106e-05
0.00014251076
0.00023360813
0.00033789056
0.00044236711
0.00049543702
4.1732429e-05
4.173814e-05
4.1803329e-05
4.2136614e-05
4.3403329e-05
4.7559128e-05
5.9952699e-05
9.2216774e-05
0.00015673762
0.00024827797
0.00034796834
0.00044677301
0.00049554866
4.0136167e-05
4.015697e-05
4.0278149e-05
4.0784372e-05
4.2547129e-05
4.8047288e-05
6.3728702e-05
0.00010180889
0.00017109624
0.00026182258
0.0003569282
0.00045063571
0.00049569617
3.8662802e-05
3.8704582e-05
3.8900797e-05
3.9631107e-05
4.2020194e-05
4.9171841e-05
6.8635432e-05
0.00011248166
0.0001852623
0.00027427018
0.00036494028
0.00045407114
0.00049588069
3.7302531e-05
3.7372692e-05
3.7667676e-05
3.8685008e-05
4.1857944e-05
5.1010817e-05
7.4697748e-05
0.00012397798
0.00019899861
0.00028568912
0.00037214923
0.00045716736
0.00049610392
3.6047628e-05
3.6155447e-05
3.6578682e-05
3.7960182e-05
4.2105652e-05
5.3644139e-05
8.1890768e-05
0.00013601989
0.00021215193
0.00029616534
0.00037867608
0.00045999117
0.00049636709
3.4892327e-05
3.5049398e-05
3.5637398e-05
3.7477201e-05
4.2818255e-05
5.7145346e-05
9.013449e-05
0.00014833915
0.00022463802
0.00030578893
0.00038462123
0.0004625934
0.00049667064
3.383279e-05
3.4053569e-05
3.4851411e-05
3.7263736e-05
4.4059204e-05
6.1571463e-05
9.9297382e-05
0.00016070076
0.00023642316
0.00031464713
0.00039006764
0.00046501299
0.00049701416
3.2867148e-05
3.316962e-05
3.4232754e-05
3.7355161e-05
4.589791e-05
6.6952452e-05
0.00010920861
0.00017291579
0.00024750737
0.00032282077
0.00039508379
0.00046727996
0.00049739654
3.1995627e-05
3.2402111e-05
3.3798454e-05
3.7794962e-05
4.8405427e-05
7.3282437e-05
0.00011967597
0.00018484396
0.00025791153
0.00033038288
0.00039972633
0.00046941774
0.00049781615
3.1220754e-05
3.1758868e-05
3.3571165e-05
3.8634688e-05
5.1648299e-05
8.0515034e-05
0.00013050501
0.00019638896
0.00026766839
0.00033739835
0.00040404224
0.00047144508
0.00049827105
3.0547674e-05
3.1251458e-05
3.3579859e-05
3.9933127e-05
5.5680954e-05
8.8564411e-05
0.00014151526
0.0002074904
0.00027681665
0.00034392426
0.00040806987
0.00047336165
0.00049875826
2.9984563e-05
3.0895778e-05
3.3860461e-05
4.1754321e-05
6.0537582e-05
9.7312149e-05
0.00015255089
0.00021811501
0.00028539698
0.00035000997
0.00041183982
0.00047517683
0.00049927448
2.9543171e-05
3.071274e-05
3.4456302e-05
4.4164148e-05
6.6225002e-05
0.00010661843
0.00016348529
0.00022824914
0.00029345001
0.00035569878
0.00041537498
0.00047690098
0.00049981638
2.9239498e-05
3.072904e-05
3.5418147e-05
4.7225362e-05
7.2718212e-05
0.00011633497
0.00017422101
0.00023789273
0.00030101459
0.00036102772
0.000418694
0.00047854312
0.00050038114
2.9094595e-05
3.0977951e-05
3.68035e-05
5.0991331e-05
7.9959879e-05
0.00012631696
0.00018468652
0.00024705469
0.00030812683
0.00036602758
0.00042181619
0.00048011509
0.00050096676
2.9135495e-05
3.1500045e-05
3.8674858e-05
5.5499185e-05
8.7864161e-05
0.00013643209
0.00019483195
0.00025575014
0.00031482083
0.00037072328
0.00042475508
0.00048162854
0.000501572
2.9396231e-05
3.2343668e-05
4.1096629e-05
6.07635e-05
9.6324068e-05
0.00014656574
0.00020462431
0.0002639967
0.00032112525
0.00037513787
0.00042753007
0.00048308916
0.00050219529
2.991884e-05
3.3564907e-05
4.4130581e-05
6.677188e-05
0.00010522078
0.00015662301
0.00021404417
0.00027181504
0.00032706605
0.00037928746
0.00043015897
0.00048450265
0.00050283511
3.075424e-05
3.5226722e-05
4.7830028e-05
7.3483548e-05
0.00011443287
0.00016652782
0.00022308101
0.00027922362
0.00033266467
0.00038319521
0.00043265449
0.00048587307
0.00050348988
3.1962694e-05
3.7396839e-05
5.2233344e-05
8.083145e-05
0.00012384407
0.00017622136
0.00023173236
0.00028624169
0.00033793722
0.00038688252
0.00043502773
0.00048720352
0.00050415803
3.3613503e-05
4.0144089e-05
5.7357845e-05
8.8727389e-05
0.00013334836
0.00018565851
0.00023999854
0.00029288456
0.00034290599
0.00039036648
0.0004372879
0.00048849634
0.00050483797
3.5783408e-05
4.3533073e-05
6.3195309e-05
9.7069229e-05
0.00014285306
0.00019480683
0.00024788468
0.0002991623
0.0003475933
0.00039366187
0.00043944269
0.00048975325
0.00050552811
3.8553071e-05
4.7617436e-05
6.9710119e-05
0.00010574827
0.00015227865
0.00020364078
0.00025539329
0.00030509327
0.00035201758
0.00039678117
0.00044149842
0.00049097544
0.00050622692
4.2001161e-05
5.2432569e-05
7.6840725e-05
0.00011465641
0.00016156001
0.00021214494
0.00026252193
0.00031069682
0.00035619499
0.00039973504
0.0004434603
0.00049216367
0.00050693283
4.6195929e-05
5.7988972e-05
8.4503822e-05
0.00012369061
0.00017064178
0.00022029901
0.00026928194
0.00031598928
0.00036013925
0.00040253238
0.00044533252
0.00049331826
0.00050764432
5.118503e-05
6.4267722e-05
9.2600644e-05
0.0001327565
0.00017947939
0.00022808589
0.0002756847
0.00032098503
0.00036386201
0.00040518056
0.00044711836
0.00049443921
0.00050835988
5.6985375e-05
7.1219303e-05
0.00010102458
0.00014177165
0.00018802208
0.00023550304
0.0002817403
0.0003256963
0.00036737303
0.00040768556
0.00044882026
0.00049552615
0.000509078
6.3575495e-05
7.8766093e-05
0.00010966808
0.00015065102
0.00019623701
0.00024254864
0.00028745746
0.0003301333
0.00037068023
0.00041005205
0.00045043987
0.00049657836
0.00050979712
7.0893503e-05
8.680904e-05
0.00011841801
0.00015932164
0.0002040999
0.00024922139
0.00029284335
0.00033430427
0.00037378984
0.00041228348
0.00045197812
0.00049759483
0.00051051571
7.8838283e-05
9.5225392e-05
0.00012716548
0.0001677259
0.00021159053
0.00025551999
0.00029790358
0.00033821554
0.00037670648
0.00041438213
0.00045343518
0.00049857418
0.00051123214
8.7271769e-05
0.0001038814
0.00013581418
0.00017581507
0.00021869192
0.00026144297
0.00030264214
0.00034187167
0.00037943324
0.00041634919
0.00045481055
0.0004995147
0.00051194472
9.6036213e-05
0.00011264291
0.00014427886
0.00018354851
0.00022538999
0.00026698862
0.0003070616
0.00034527556
0.00038197181
0.00041818478
0.00045610304
0.00050041432
0.00051265169
0.00010496813
0.0001213822
0.0001524859
0.00019089301
0.00023167334
0.00027215517
0.00031116332
0.00034842866
0.00038432261
0.00041988808
0.00045731083
0.00050127064
0.00051335112
0.00011391062
0.00012998324
0.00016037327
0.00019782236
0.00023753334
0.00027694108
0.00031494781
0.00035133129
0.00038648498
0.00042145743
0.00045843154
0.00050208095
0.000514041
0.00012272251
0.0001383452
0.00016789036
0.00020431696
0.00024296424
0.00028134552
0.00031841515
0.00035398296
0.00038845746
0.00042289052
0.00045946231
0.00050284226
0.00051471912
0.00013128391
0.0001463843
0.00017499755
0.00021036347
0.00024796341
0.00028536876
0.0003215655
0.00035638278
0.00039023808
0.00042418455
0.00046039997
0.0005035514
0.00051538316
0.00013949845
0.00015403431
0.0001816656
0.00021595443
0.00025253143
0.00028901262
0.0003243996
0.00035852995
0.00039182471
0.00042533656
0.00046124117
0.00050420509
0.00051603067
0.00014729307
0.00016124585
0.00018787485
0.00022108784
0.00025667212
0.00029228086
0.0003269192
0.00036042415
0.00039321547
0.00042634369
0.00046198263
0.0005048001
0.0005166591
0.00015461614
0.00016798501
0.00019361431
0.00022576659
0.00026039251
0.00029517938
0.00032912753
0.00036206601
0.00039440907
0.00042720348
0.00046262138
0.0005053334
0.00051726585
0.0001614347
0.00017423147
0.00019888063
0.00022999798
0.0002637026
0.00029771634
0.00033102951
0.00036345745
0.00039540521
0.00042791421
0.00046315498
0.00050580232
0.00051784835
0.00016773144
0.00017997643
0.00020367705
0.00023379304
0.0002666151
0.00029990219
0.00033263199
0.00036460199
0.00039620483
0.00042847516
0.00046358175
0.00050620472
0.0005184041
0.00017350167
0.00018522059
0.00020801228
0.00023716601
0.0002691451
0.00030174949
0.0003339438
0.00036550487
0.00039681041
0.00042888686
0.000463901
0.0005065391
0.00051893074
0.00017875062
0.00018997217
0.00021189951
0.00024013366
0.00027130964
0.00030327271
0.00033497569
0.0003661732
0.00039722606
0.00042915125
0.00046411316
0.0005068048
0.00051942617
0.00018349098
0.00019424526
0.00021535542
0.0002427148
0.00027312734
0.00030448801
0.00033574018
0.00036661586
0.00039745759
0.00042927176
0.00046421989
0.000507002
0.00051988856
0.00018774098
0.00019805829
0.00021839935
0.00024492974
0.00027461802
0.00030541287
0.0003362514
0.00036684346
0.00039751248
0.00042925336
0.00046422413
0.0005071318
0.00052031645
0.00019152274
0.00020143279
0.00022105256
0.00024679979
0.00027580229
0.00030606582
0.00033652479
0.00036686811
0.00039739979
0.00042910246
0.00046413004
0.00050719619
0.00052070875
0.00019486094
0.00020439238
0.00022333756
0.00024834695
0.00027670127
0.00030646607
0.00033657683
0.00036670322
0.00039712995
0.00042882682
0.00046394295
0.00050719805
0.0005210648
0.00019778185
0.00020696198
0.00022527761
0.00024959345
0.00027733626
0.00030663329
0.00033642475
0.00036636323
0.00039671456
0.00042843538
0.00046366921
0.00050714099
0.00052138437
0.00020031248
0.00020916709
0.00022689626
0.00025056155
0.00027772851
0.00030658726
0.00033608625
0.00036586331
0.00039616617
0.000427938
0.00046331603
0.00050702932
0.00052166763
0.00020248004
0.00021103336
0.00022821704
0.00025127326
0.00027789896
0.00030634767
0.00033557924
0.00036521913
0.00039549794
0.0004273453
0.00046289127
0.00050686782
0.00052191516
0.00020431147
0.00021258617
0.00022926312
0.00025175014
0.00027786813
0.00030593391
0.00033492157
0.00036444657
0.00039472348
0.00042666835
0.00046240329
0.00050666169
0.00052212789
0.00020583311
0.00021385036
0.00023005714
0.00025201314
0.0002776559
0.00030536488
0.00033413081
0.00036356147
0.00039385651
0.00042591847
0.00046186066
0.00050641636
0.00052230706
0.00020707045
0.00021484998
0.00023062103
0.0002520825
0.00027728142
0.00030465886
0.0003332241
0.00036257941
0.00039291069
0.00042510702
0.00046127207
0.00050613734
0.0005224542
0.00020804799
0.00021560818
0.00023097589
0.00025197763
0.00027676306
0.00030383336
0.00033221796
0.00036151554
0.00039189938
0.00042424516
0.00046064609
0.00050583013
0.00052257103
0.00020878912
0.0002161471
0.00023114189
0.00025171705
0.00027611825
0.00030290505
0.00033112818
0.00036038443
0.00039083548
0.00042334373
0.00045999103
0.00050550008
0.00052265946
0.00020931605
0.00021648775
0.00023113821
0.00025131835
0.00027536353
0.00030188971
0.00032996972
0.0003591999
0.0003897313
0.00042241306
0.00045931482
0.00050515234
0.0005227215
0.00020964977
0.00021665007
0.00023098303
0.00025079813
0.00027451445
0.00030080216
0.00032875662
0.00035797496
0.00038859841
0.00042146286
0.00045862494
0.00050479173
0.00052275925
0.00020981007
0.0002166528
0.00023069347
0.00025017203
0.00027358559
0.00029965622
0.00032750198
0.00035672175
0.0003874476
0.00042050218
0.00045792828
0.00050442274
0.00052277483
0.00020981548
0.00021651356
0.00023028563
0.00024945467
0.00027259052
0.00029846473
0.00032621792
0.00035545145
0.0003862888
0.00041953928
0.00045723114
0.00050404945
0.00052277036
0.00020968335
0.00021624885
0.00022977453
0.00024865972
0.00027154186
0.00029723954
0.00032491556
0.0003541743
0.00038513103
0.00041858168
0.00045653919
0.00050367555
0.00052274793
0.00020942985
0.00021587402
0.00022917421
0.00024779984
0.00027045123
0.0002959915
0.00032360506
0.00035289956
0.00038398242
0.00041763606
0.00045585745
0.0005033043
0.00052270955
0.00020907001
0.00021540339
0.00022849769
0.00024688678
0.00026932935
0.00029473051
0.00032229557
0.00035163555
0.00038285022
0.00041670831
0.00045519031
0.00050293856
0.00052265719
0.00020861777
0.00021485018
0.00022775702
0.00024593134
0.00026818599
0.00029346556
0.00032099532
0.00035038967
0.00038174077
0.00041580355
0.0004545415
0.00050258077
0.00052259269
0.00020808602
0.00021422666
0.00022696333
0.00024494346
0.00026703005
0.0002922047
0.00031971162
0.00034916839
0.00038065957
0.00041492614
0.00045391419
0.00050223296
0.0005225178
0.00020748663
0.00021354409
0.00022612683
0.00024393219
0.0002658696
0.00029095515
0.00031845094
0.00034797736
0.00037961132
0.0004140797
0.00045331083
0.00050189538
0.0005224341
0.00020683051
0.00021281285
0.00022525689
0.00024290581
0.00026471187
0.00028972333
0.00031721887
0.00034682136
0.00037859991
0.00041326713
0.00045273317
0.00050156776
0.00052234291
0.0002061277
0.00021204242
0.00022436205
0.00024187177
0.00026356337
0.00028851484
0.00031602028
0.00034570447
0.00037762855
0.00041249067
0.00045218159
0.00050125097
0.00052224542
0.00020538733
0.00021124147
0.00022345008
0.00024083681
0.00026242984
0.00028733459
0.00031485926
0.00034462998
0.0003766997
0.00041175179
0.00045165673
0.00050094652
0.00052214286
0.00020461775
0.00021041788
0.000222528
0.00023980699
0.00026131638
0.00028618682
0.00031373927
0.00034360062
0.00037581527
0.00041105095
0.0004511588
0.00050065635
0.0005220365
0.00020382654
0.0002095788
0.00022160217
0.00023878767
0.00026022743
0.00028507511
0.00031266312
0.00034261839
0.00037497622
0.00041038838
0.00045068902
0.00050038147
0.00052192753
0.00020302056
0.00020873068
0.00022067826
0.00023778364
0.00025916685
0.00028400248
0.00031163301
0.00034168468
0.00037418301
0.00040976435
0.00045024824
0.00050012258
0.00052181699
0.00020220601
0.00020787933
0.00021976136
0.00023679908
0.00025813794
0.00028297139
0.00031065066
0.00034080025
0.00037343537
0.00040917952
0.00044983684
0.00049988011
0.00052170585
0.00020138846
0.00020702995
0.00021885598
0.00023583767
0.00025714349
0.00028198381
0.00030971709
0.00033996504
0.00037273366
0.00040863404
0.00044945486
0.00049965422
0.00052159495
0.00020057289
0.00020618719
0.00021796609
0.00023490255
0.00025618581
0.00028104114
0.00030883273
0.00033917902
0.00037207796
0.00040812773
0.00044910204
0.00049944484
0.000521485
0.00019976373
0.00020535516
0.00021709519
0.00023399644
0.00025526675
0.00028014432
0.00030799745
0.00033844228
0.00037146798
0.00040766009
0.00044877788
0.00049925176
0.00052137666
0.00019896493
0.00020453748
0.0002162463
0.00023312162
0.00025438767
0.00027929346
0.00030721145
0.00033775457
0.00037090314
0.00040723038
0.00044848169
0.00049907463
0.00052127046
0.00019817995
0.00020373734
0.00021542207
0.00023227984
0.00025354919
0.00027848897
0.00030647462
0.00033711532
0.00037038259
0.00040683762
0.00044821262
0.00049891301
0.00052116688
0.00019741186
0.00020295752
0.00021462453
0.00023147229
0.00025275204
0.00027773097
0.00030578653
0.00033652372
0.00036990523
0.00040648068
0.00044796973
0.00049876635
0.00052106629
0.00019666319
0.00020220021
0.00021385536
0.00023070006
0.00025199667
0.00027701932
0.00030514653
0.00033597872
0.00036946982
0.00040615828
0.00044775192
0.00049863406
0.00052096903
0.00019593607
0.00020146729
0.00021311594
0.00022996396
0.00025128326
0.00027635363
0.00030455374
0.00033547909
0.00036907492
0.00040586902
0.00044755808
0.00049851552
0.00052087537
0.00019523232
0.00020076034
0.00021240741
0.00022926455
0.00025061179
0.00027573329
0.00030400709
0.00033502342
0.00036871901
0.00040561144
0.00044738702
0.00049841005
0.0005207855
0.00019455345
0.00020008065
0.00021173063
0.00022860215
0.00024998199
0.00027515751
0.00030350533
0.00033461018
0.00036840044
0.00040538399
0.00044723751
0.00049831698
0.00052069961
0.0001939007
0.00019942925
0.00021108624
0.00022797688
0.00024939342
0.00027462531
0.0003030471
0.00033423774
0.00036811749
0.00040518509
0.00044710832
0.0004982356
0.00052061779
0.00019327509
0.00019880697
0.00021047466
0.00022738864
0.00024884545
0.00027413559
0.00030263088
0.00033390437
0.0003678684
0.00040501313
0.0004469982
0.00049816522
0.00052054014
0.00019267739
0.00019821437
0.00020989608
0.00022683717
0.00024833729
0.00027368709
0.00030225508
0.00033360827
0.00036765137
0.00040486651
0.00044690593
0.00049810515
0.0005204667
0.00019210815
0.00019765185
0.00020935055
0.00022632203
0.00024786803
0.00027327845
0.00030191801
0.00033334759
0.00036746456
0.00040474361
0.00044683026
0.0004980547
0.00052039748
0.00019156776
0.00019711961
0.0002088379
0.00022584263
0.00024743662
0.00027290823
0.00030161794
0.00033312046
0.00036730616
0.00040464283
0.00044677001
0.00049801319
0.00052033247
0.0001910564
0.00019661766
0.00020835786
0.00022539826
0.00024704192
0.0002725749
0.00030135307
0.00033292499
0.00036717435
0.0004045626
0.00044672399
0.00049797997
0.00052027164
0.00019057411
0.00019614589
0.00020790997
0.00022498809
0.00024668268
0.00027227687
0.00030112158
0.00033275928
0.00036706731
0.00040450139
0.00044669107
0.00049795441
0.00052021491
0.00019012077
0.00019570404
0.00020749369
0.0002246112
0.00024635759
0.00027201251
0.00030092165
0.00033262145
0.0003669833
0.00040445768
0.00044667014
0.00049793588
0.00052016223
0.00018969613
0.0001952917
0.00020710835
0.00022426655
0.00024606528
0.00027178016
0.00030075144
0.00033250965
0.00036692058
0.00040443005
0.00044666016
0.00049792382
0.00052011349
0.00018929982
0.00019490838
0.00020675317
0.00022395306
0.00024580434
0.00027157813
0.00030060911
0.00033242203
0.00036687748
0.00040441709
0.00044666012
0.00049791764
0.00052006861
0.00018893137
0.00019455348
0.00020642732
0.00022366958
0.0002455733
0.00027140474
0.00030049287
0.00033235683
0.00036685237
0.00040441748
0.00044666906
0.00049791683
0.00052002747
0.00018859019
0.00019422629
0.00020612986
0.00022341489
0.00024537068
0.00027125829
0.00030040092
0.00033231229
0.00036684369
0.00040442993
0.00044668606
0.00049792088
0.00051998994
0.00018827563
0.00019392605
0.00020585981
0.00022318775
0.00024519497
0.0002711371
0.00030033151
0.00033228671
0.00036684992
0.00040445322
0.00044671026
0.00049792929
0.00051995589
0.00018798694
0.00019365191
0.00020561612
0.00022298686
0.00024504468
0.0002710395
0.00030028292
0.00033227846
0.00036686961
0.00040448617
0.00044674082
0.00049794159
0.0005199252
0.00018772332
0.00019340297
0.00020539771
0.00022281092
0.00024491827
0.00027096384
0.00030025348
0.00033228594
0.00036690137
0.00040452767
0.00044677694
0.00049795735
0.0005198977
0.00018748389
0.00019317826
0.00020520345
0.0002226586
0.00024481425
0.0002709085
0.00030024154
0.00033230761
0.00036694384
0.00040457665
0.00044681788
0.00049797611
0.00051987325
0.00018726773
0.00019297679
0.00020503217
0.00022252855
0.0002447311
0.00027087188
0.00030024552
0.000332342
0.00036699577
0.00040463209
0.00044686292
0.00049799746
0.00051985168
0.0001870739
0.00019279753
0.00020488271
0.00022241944
0.00024466736
0.00027085245
0.0003002639
0.00033238769
0.00036705593
0.00040469305
0.00044691139
0.00049802103
0.00051983283
0.0001869014
0.00019263942
0.00020475389
0.00022232994
0.00024462157
0.0002708487
0.00030029522
0.00033244335
0.00036712319
0.00040475864
0.00044696268
0.00049804646
0.00051981655
0.00018674923
0.00019250138
0.00020464451
0.00022225874
0.00024459234
0.00027085919
0.00030033807
0.00033250773
0.00036719649
0.00040482804
0.00044701623
0.00049807344
0.00051980269
0.00018661637
0.00019238236
0.0002045534
0.00022220456
0.00024457829
0.00027088255
0.00030039116
0.00033257964
0.00036727486
0.00040490051
0.00044707153
0.00049810168
0.0005197911
0.00018650179
0.00019228127
0.00020447941
0.00022216614
0.00024457813
0.00027091746
0.00030045324
0.000332658
0.00036735741
0.00040497539
0.00044712815
0.00049813094
0.00051978165
0.00018640448
0.00019219705
0.00020442139
0.00022214226
0.00024459058
0.00027096268
0.00030052315
0.00033274179
0.0003674433
0.00040505206
0.00044718568
0.000498161
0.0005197742
0.00018632341
0.00019212864
0.00020437822
0.00022213175
0.00024461443
0.00027101703
0.0003005998
0.00033283007
0.00036753178
0.00040512997
0.00044724376
0.00049819166
0.00051976864
0.00018625756
0.00019207499
0.0002043488
0.00022213345
0.00024464853
0.00027107937
0.00030068216
0.00033292194
0.00036762215
0.0004052086
0.00044730205
0.00049822272
0.00051976481
0.00018620591
0.00019203506
0.00020433204
0.00022214624
0.00024469174
0.00027114864
0.00030076925
0.00033301658
0.00036771373
0.00040528745
0.0004473602
0.00049825397
0.00051976261
0.00018616747
0.00019200782
0.00020432687
0.00022216903
0.00024474299
0.00027122379
0.00030086012
0.00033311319
0.00036780589
0.00040536606
0.00044741791
0.00049828521
0.00051976187
0.00018614122
0.00019199225
0.00020433225
0.00022220075
0.00024480121
0.00027130384
0.00030095391
0.000333211
0.00036789804
0.00040544397
0.00044747484
0.00049831621
0.00051976244
0.00018612618
0.00019198735
0.00020434716
0.00022224039
0.00024486542
0.00027138785
0.00030104976
0.00033330932
0.00036798959
0.00040552075
0.00044753069
0.00049834676
0.00051976419
0.00018612138
0.00019199214
0.00020437061
0.00022228695
0.00024493465
0.00027147492
0.00030114689
0.00033340749
0.00036808003
0.00040559601
0.00044758518
0.00049837668
0.00051976696
0.00018612588
0.00019200567
0.00020440165
0.0002223395
0.00024500801
0.00027156425
0.00030124458
0.0003335049
0.00036816889
0.0004056694
0.00044763807
0.00049840581
0.00051977062
0.00018613879
0.00019202706
0.00020443938
0.00022239716
0.00024508468
0.00027165507
0.0003013422
0.00033360105
0.00036825578
0.00040574065
0.00044768918
0.00049843406
0.00051977505
0.00018615925
0.00019205543
0.00020448297
0.00022245912
0.0002451639
0.00027174674
0.00030143918
0.00033369549
0.00036834039
0.00040580957
0.00044773841
0.00049846135
0.00051978017
0.00018618645
0.00019209001
0.00020453163
0.00022252465
0.000245245
0.00027183866
0.00030153507
0.00033378789
0.00036842249
0.00040587602
0.0004477857
0.0004984877
0.00051978589
0.00018621967
0.00019213005
0.00020458466
0.00022259307
0.00024532739
0.00027193034
0.00030162947
0.00033387797
0.00036850192
0.00040593994
0.00044783106
0.00049851304
0.00051979217
0.00018625819
0.00019217486
0.00020464139
0.00022266378
0.00024541052
0.00027202134
0.00030172205
0.00033396551
0.00036857857
0.0004060013
0.00044787447
0.00049853724
0.00051979894
0.00018630136
0.0001922238
0.00020470121
0.00022273623
0.00024549393
0.00027211128
0.00030181254
0.00033405035
0.00036865235
0.00040606006
0.00044791588
0.0004985603
0.00051980612
0.00018634854
0.00019227626
0.00020476354
0.00022280988
0.00024557717
0.0002721998
0.00030190068
0.00033413231
0.00036872318
0.0004061162
0.00044795523
0.00049858224
0.00051981367
0.00018639914
0.00019233164
0.00020482784
0.00022288425
0.0002456598
0.00027228657
0.00030198622
0.00033421124
0.00036879095
0.00040616958
0.00044799246
0.00049860313
0.00051982151
0.00018645255
0.00019238937
0.00020489355
0.00022295884
0.00024574143
0.00027237125
0.00030206892
0.00033428695
0.00036885553
0.00040622011
0.00044802753
0.00049862296
0.00051982956
0.0001865082
0.00019244889
0.00020496016
0.00022303319
0.00024582164
0.00027245351
0.00030214851
0.00033435926
0.00036891674
0.00040626763
0.00044806043
0.00049864168
0.00051983774
0.00018656552
0.00019250965
0.00020502715
0.00022310684
0.00024590006
0.00027253306
0.00030222476
0.00033442795
0.00036897441
0.00040631211
0.00044809111
0.00049865923
0.00051984596
0.00018662397
0.00019257113
0.00020509406
0.00022317938
0.00024597632
0.00027260959
0.00030229744
0.00033449286
0.00036902841
0.00040635347
0.00044811951
0.00049867554
0.00051985411
0.00018668307
0.00019263286
0.00020516044
0.00022325043
0.00024605013
0.00027268287
0.00030236638
0.0003345538
0.0003690787
0.0004063917
0.00044814561
0.00049869057
0.00051986214
0.00018674236
0.00019269442
0.00020522591
0.00022331966
0.00024612122
0.00027275272
0.0003024314
0.00033461075
0.00036912527
0.00040642682
0.00044816942
0.00049870432
0.00051986998
0.00018680146
0.00019275542
0.00020529015
0.00022338681
0.00024618942
0.000272819
0.00030249245
0.00033466371
0.00036916819
0.00040645889
0.00044819101
0.00049871683
0.00051987759
0.00018686005
0.00019281559
0.00020535291
0.0002234517
0.00024625457
0.00027288162
0.00030254956
0.00033471278
0.00036920759
0.00040648806
0.00044821051
0.00049872819
0.00051988498
0.00018691787
0.00019287468
0.000205414
0.00022351419
0.00024631662
0.00027294063
0.00030260283
0.00033475811
0.00036924363
0.0004065145
0.00044822809
0.00049873852
0.00051989214
0.00018697473
0.00019293251
0.00020547327
0.00022357418
0.00024637555
0.0002729961
0.00030265241
0.00033479989
0.00036927654
0.00040653845
0.00044824394
0.00049874795
0.00051989912
0.00018703045
0.00019298893
0.00020553062
0.00022363164
0.0002464314
0.00027304813
0.00030269847
0.00033483833
0.00036930654
0.00040656012
0.00044825825
0.00049875663
0.00051990594
0.00018708489
0.00019304381
0.00020558596
0.00022368655
0.00024648423
0.00027309684
0.00030274117
0.00033487364
0.00036933387
0.00040657972
0.00044827121
0.00049876466
0.00051991261
0.00018713789
0.00019309704
0.00020563922
0.0002237389
0.00024653408
0.00027314235
0.00030278066
0.000334906
0.00036935869
0.00040659743
0.00044828294
0.00049877211
0.00051991915
0.00018718933
0.00019314849
0.00020569032
0.00022378866
0.00024658099
0.00027318473
0.00030281707
0.00033493553
0.00036938116
0.00040661335
0.00044829351
0.000498779
0.00051992554
0.00018723904
0.00019319803
0.00020573918
0.00022383579
0.00024662495
0.00027322403
0.00030285048
0.00033496234
0.00036940134
0.00040662754
0.00044830294
0.00049878531
0.00051993175
0.00018728687
0.00019324554
0.00020578569
0.00022388023
0.00024666597
0.00027326027
0.00030288091
0.00033498646
0.00036941927
0.00040664002
0.00044831121
0.00049879098
0.00051993772
0.00018733266
0.00019329085
0.00020582973
0.0002239219
0.00024670399
0.00027329345
0.00030290839
0.00033500792
0.00036943496
0.00040665075
0.00044831826
0.00049879593
0.0005199434
0.00018737625
0.00019333383
0.0002058712
0.00022396074
0.00024673899
0.00027332355
0.00030293292
0.00033502671
0.00036944839
0.00040665972
0.00044832404
0.00049880009
0.00051994872
0.00018741752
0.00019337438
0.00020591002
0.0002239967
0.00024677096
0.00027335061
0.00030295454
0.00033504287
0.00036945959
0.0004066669
0.00044832852
0.00049880342
0.00051995364