/*--------------------------------*- C++ -*----------------------------------*\
| =========                 |                                                 |
| \\      /  F ield         | OpenFOAM: The Open Source CFD Toolbox           |
|  \\    /   O peration     | Version:  2506                                  |
|   \\  /    A nd           | Website:  www.openfoam.com                      |
|    \\/     M anipulation  |                                                 |
\*---------------------------------------------------------------------------*/
FoamFile
{
    version     2.0;
    format      ascii;
    arch        "LSB;label=32;scalar=64";
    class       volScalarField;
    location    "19000/water";
    object      nut;
}
// * * * * * * * * * * * * * * * * * * * * * * * * * * * * * * * * * * * * * //

dimensions      [0 2 -1 0 0 0 0];

internalField   nonuniform List<scalar> 
2600
(
4.0562043e-05
4.0561942e-05
4.0561944e-05
4.0561981e-05
4.0561942e-05
4.0561434e-05
4.0558261e-05
4.0540002e-05
4.0435343e-05
3.98338e-05
3.6541397e-05
2.4161555e-05
1.4889524e-05
3.944741e-05
3.9447468e-05
3.944759e-05
3.9447676e-05
3.9447275e-05
3.9444342e-05
3.9428907e-05
3.9352895e-05
3.8988431e-05
3.7314814e-05
3.0763187e-05
1.7536144e-05
1.684056e-05
3.852265e-05
3.852264e-05
3.8522725e-05
3.8522528e-05
3.8520597e-05
3.8510798e-05
3.8466747e-05
3.8277827e-05
3.7500368e-05
3.454641e-05
2.5814945e-05
1.4669956e-05
1.7712619e-05
3.7742032e-05
3.774193e-05
3.7741811e-05
3.7740766e-05
3.7735283e-05
3.7711707e-05
3.7617453e-05
3.7258039e-05
3.5961308e-05
3.177518e-05
2.2061889e-05
1.3531464e-05
1.7967898e-05
3.7073562e-05
3.7073366e-05
3.7072781e-05
3.7069955e-05
3.7057916e-05
3.7011651e-05
3.6843992e-05
3.6266509e-05
3.4405655e-05
2.9188861e-05
1.9425178e-05
1.3345943e-05
1.7902414e-05
3.6493786e-05
3.6493393e-05
3.6491924e-05
3.648598e-05
3.646354e-05
3.6384687e-05
3.612226e-05
3.5294625e-05
3.2873382e-05
2.6881541e-05
1.771645e-05
1.3793839e-05
1.7689846e-05
3.5985207e-05
3.5984445e-05
3.5981496e-05
3.5970726e-05
3.5933497e-05
3.5812307e-05
3.5437992e-05
3.4343601e-05
3.1395257e-05
2.4892541e-05
1.6781972e-05
1.4727875e-05
1.7427344e-05
3.5534568e-05
3.55332e-05
3.5528007e-05
3.5510417e-05
3.5453869e-05
3.5281761e-05
3.478374e-05
3.3418009e-05
2.9989903e-05
2.3242727e-05
1.6521213e-05
1.605365e-05
1.7168093e-05
3.5131649e-05
3.5129373e-05
3.5121029e-05
3.5094485e-05
3.5014364e-05
3.4784646e-05
3.4156253e-05
3.2521766e-05
2.8667649e-05
2.1957692e-05
1.6869959e-05
1.7676047e-05
1.694009e-05
3.4768438e-05
3.47649e-05
3.4752406e-05
3.4714802e-05
3.4607522e-05
3.4315777e-05
3.3554458e-05
3.16563e-05
2.7438403e-05
2.1076946e-05
1.7774701e-05
1.9481897e-05
1.6755877e-05
3.4438571e-05
3.443338e-05
3.4415717e-05
3.4365168e-05
3.4228127e-05
3.3872266e-05
3.2977968e-05
3.0820513e-05
2.6321667e-05
2.064959e-05
1.9168673e-05
2.1348725e-05
1.6617712e-05
3.4136931e-05
3.4129689e-05
3.4105903e-05
3.4040932e-05
3.3872746e-05
3.3452766e-05
3.2426062e-05
3.0012536e-05
2.5355877e-05
2.0719809e-05
2.0958175e-05
2.3166793e-05
1.6521078e-05
3.3859367e-05
3.3849701e-05
3.3819003e-05
3.3738723e-05
3.3539365e-05
3.3056856e-05
3.1897087e-05
2.923354e-05
2.4602257e-05
2.1309035e-05
2.3024752e-05
2.4858007e-05
1.6457822e-05
3.3602495e-05
3.3590098e-05
3.355197e-05
3.3456247e-05
3.3227088e-05
3.2684517e-05
3.1388405e-05
2.8493549e-05
2.4138757e-05
2.2402735e-05
2.5241354e-05
2.6381455e-05
1.6418929e-05
3.3363555e-05
3.334823e-05
3.3302533e-05
3.3192135e-05
3.2935885e-05
3.2335692e-05
3.0897111e-05
2.7818119e-05
2.4044358e-05
2.3946906e-05
2.7493335e-05
2.7726694e-05
1.6396422e-05
3.3140311e-05
3.3122024e-05
3.3069114e-05
3.2945826e-05
3.2666358e-05
3.2009929e-05
3.0421904e-05
2.725306e-05
2.4379894e-05
2.5855075e-05
2.9693858e-05
2.8902281e-05
1.6384202e-05
3.2930983e-05
3.2909915e-05
3.2850758e-05
3.2717477e-05
3.2419519e-05
3.1706209e-05
2.9966345e-05
2.6863467e-05
2.5173338e-05
2.8023002e-05
3.178848e-05
2.9925862e-05
1.6378087e-05
3.27342e-05
3.2710811e-05
3.2647097e-05
3.2507877e-05
3.219656e-05
3.14231e-05
2.9543334e-05
2.6725089e-05
2.6414165e-05
3.0346001e-05
3.3750499e-05
3.0817911e-05
1.6375449e-05
3.254898e-05
3.2524066e-05
3.2458325e-05
3.2318372e-05
3.1998619e-05
3.1159479e-05
2.9179673e-05
2.6909997e-05
2.805682e-05
3.2733297e-05
3.5572232e-05
3.159849e-05
1.6374764e-05
3.2374714e-05
3.234948e-05
3.2285189e-05
3.2150777e-05
3.1826588e-05
3.0916123e-05
2.8918576e-05
2.7471841e-05
3.0030665e-05
3.5115834e-05
3.7256818e-05
3.2285747e-05
1.6375224e-05
3.2211173e-05
3.2187303e-05
3.2128983e-05
3.2007273e-05
3.1681012e-05
3.0698309e-05
2.8817773e-05
2.8435851e-05
3.2252929e-05
3.7447133e-05
3.8812576e-05
3.2895331e-05
1.6376448e-05
3.2058522e-05
3.2038256e-05
3.199155e-05
3.1890271e-05
3.1562235e-05
3.0519241e-05
2.8942305e-05
2.9795901e-05
3.464125e-05
3.9699498e-05
4.0249838e-05
3.3440303e-05
1.6378293e-05
3.1917349e-05
3.1903563e-05
3.1875268e-05
3.1802262e-05
3.147098e-05
3.0403414e-05
2.9353632e-05
3.1518042e-05
3.7123065e-05
4.1858566e-05
4.1579379e-05
3.3931333e-05
1.6380731e-05
3.1788707e-05
3.1784988e-05
3.1783034e-05
3.1745667e-05
3.1409597e-05
3.0388389e-05
3.0098641e-05
3.3548312e-05
3.9640503e-05
4.3918428e-05
4.2811639e-05
3.4377031e-05
1.638378e-05
3.167417e-05
3.1684884e-05
3.1718215e-05
3.1722747e-05
3.1384108e-05
3.0523333e-05
3.1201975e-05
3.5822342e-05
4.2151079e-05
4.5878174e-05
4.3956334e-05
3.4784314e-05
1.6387467e-05
3.1575896e-05
3.1606239e-05
3.1684577e-05
3.1735683e-05
3.1406919e-05
3.0863671e-05
3.2663378e-05
3.8274457e-05
4.4625623e-05
4.7739783e-05
4.5022274e-05
3.5158739e-05
1.6391813e-05
3.1496714e-05
3.155272e-05
3.1686171e-05
3.1786997e-05
3.1499546e-05
3.1462866e-05
3.445981e-05
4.0844581e-05
4.7045146e-05
4.9506882e-05
4.6017315e-05
3.5504794e-05
1.6396824e-05
3.1440215e-05
3.1528703e-05
3.1727217e-05
3.1880504e-05
3.1694229e-05
3.2363743e-05
3.6550942e-05
4.3482184e-05
4.9397839e-05
5.1183995e-05
4.6948402e-05
3.5826124e-05
1.6402494e-05
3.141085e-05
3.1539289e-05
3.1812006e-05
3.2022926e-05
3.2033144e-05
3.3591894e-05
3.8886228e-05
4.6147426e-05
5.1676787e-05
5.2776063e-05
4.782164e-05
3.6125718e-05
1.6408802e-05
3.1414042e-05
3.1590274e-05
3.1944927e-05
3.2226119e-05
3.2564562e-05
3.5152684e-05
4.1411886e-05
4.8810348e-05
5.3878384e-05
5.4288121e-05
4.8642393e-05
3.6406048e-05
1.6415722e-05
3.1456281e-05
3.1688095e-05
3.2130757e-05
3.2509432e-05
3.333648e-05
3.7032008e-05
4.4076505e-05
5.144913e-05
5.6001295e-05
5.5725114e-05
4.9415388e-05
3.6669254e-05
1.642322e-05
3.1545208e-05
3.183974e-05
3.2375385e-05
3.2901321e-05
3.438941e-05
3.9199974e-05
4.6834632e-05
5.4048186e-05
5.8045689e-05
5.7091637e-05
5.0144339e-05
3.6914943e-05
1.6431248e-05
3.1689662e-05
3.2052668e-05
3.2687145e-05
3.3439133e-05
3.5750337e-05
4.1616207e-05
4.9648331e-05
5.6596557e-05
6.0012741e-05
5.839201e-05
5.0832726e-05
3.7144922e-05
1.6439749e-05
3.1899683e-05
3.2334823e-05
3.3078702e-05
3.4166337e-05
3.7429299e-05
4.4235457e-05
5.248719e-05
5.9086681e-05
6.1904243e-05
5.9630091e-05
5.1482696e-05
3.7361243e-05
1.6448668e-05
3.2186465e-05
3.2694871e-05
3.3569194e-05
3.5127407e-05
3.9419062e-05
4.7012426e-05
5.5327447e-05
6.1513506e-05
6.3722342e-05
6.0809393e-05
5.2096451e-05
3.7565313e-05
1.6457958e-05
3.2562281e-05
3.314286e-05
3.4185829e-05
3.6361547e-05
4.1697455e-05
4.9905185e-05
5.8150804e-05
6.3873832e-05
6.546939e-05
6.1933117e-05
5.2677399e-05
3.7758158e-05
1.6467586e-05
3.3040473e-05
3.3691439e-05
3.496399e-05
3.7896943e-05
4.4231428e-05
5.2877045e-05
6.0943281e-05
6.6165776e-05
6.7147565e-05
6.3002904e-05
5.3228278e-05
3.7940823e-05
1.6477531e-05
3.3635637e-05
3.4357645e-05
3.5945062e-05
3.9746988e-05
4.6981718e-05
5.5897116e-05
6.3694246e-05
6.8388428e-05
6.8759333e-05
6.4022594e-05
5.3751053e-05
3.8114078e-05
1.6487766e-05
3.4364222e-05
3.5164898e-05
3.7171973e-05
4.1909151e-05
4.9907174e-05
5.8940021e-05
6.6395662e-05
7.0541364e-05
7.0305656e-05
6.4995387e-05
5.4247639e-05
3.8278684e-05
1.6498266e-05
3.5245718e-05
3.6144411e-05
3.8683387e-05
4.4366358e-05
5.2968073e-05
6.1985166e-05
6.9041446e-05
7.2624746e-05
7.1789406e-05
6.592387e-05
5.4719659e-05
3.8435268e-05
1.6509004e-05
3.6304389e-05
3.7335012e-05
4.0508066e-05
4.7090193e-05
5.6128202e-05
6.501594e-05
7.1626951e-05
7.4638165e-05
7.3213263e-05
6.6810356e-05
5.5168629e-05
3.8584368e-05
1.6519954e-05
3.7571045e-05
3.8780593e-05
4.2660832e-05
5.0044941e-05
5.9355775e-05
6.8018895e-05
7.4148647e-05
7.6582487e-05
7.4579717e-05
6.7656899e-05
5.559589e-05
3.8726449e-05
1.653109e-05
3.9083853e-05
4.0525214e-05
4.5140971e-05
5.3191576e-05
6.2623567e-05
7.0983102e-05
7.6603208e-05
7.8458835e-05
7.5890907e-05
6.8465403e-05
5.600263e-05
3.8861904e-05
1.6542386e-05
4.0886904e-05
4.2606854e-05
4.7933091e-05
5.6490983e-05
6.5908443e-05
7.3899525e-05
7.8988643e-05
8.0268734e-05
7.7148734e-05
6.9237565e-05
5.6389886e-05
3.8991065e-05
1.6553816e-05
4.3025766e-05
4.5051417e-05
5.1009874e-05
5.9906211e-05
6.9190865e-05
7.6760136e-05
8.1303261e-05
8.2013417e-05
7.8354963e-05
6.9974896e-05
5.6758559e-05
3.911421e-05
1.6565353e-05
4.5540351e-05
4.7868456e-05
5.4335749e-05
6.3403513e-05
7.2453906e-05
7.955841e-05
8.3546725e-05
8.3693975e-05
7.9511138e-05
7.0678711e-05
5.7109425e-05
3.9231566e-05
1.6576974e-05
4.8456715e-05
5.104945e-05
5.7870625e-05
6.6952752e-05
7.5682782e-05
8.2288861e-05
8.5718424e-05
8.5311367e-05
8.0618597e-05
7.1350138e-05
5.7443132e-05
3.9343314e-05
1.6588653e-05
5.1780124e-05
5.4568633e-05
6.157294e-05
7.0526868e-05
7.8863942e-05
8.4947815e-05
8.7817764e-05
8.6866348e-05
8.1678451e-05
7.1990115e-05
5.7760216e-05
3.9449594e-05
1.6600366e-05
5.5491371e-05
5.8385641e-05
6.5401395e-05
7.4100923e-05
8.1987184e-05
8.7531662e-05
8.9844042e-05
8.8359441e-05
8.2691573e-05
7.2599394e-05
5.8061097e-05
3.9550499e-05
1.6612087e-05
5.9547236e-05
6.2448918e-05
6.931557e-05
7.7653783e-05
8.504365e-05
9.0036944e-05
9.1796378e-05
8.9790904e-05
8.3658588e-05
7.3178542e-05
5.8346085e-05
3.9646087e-05
1.662379e-05
6.3884484e-05
6.6699795e-05
7.3278204e-05
8.1167578e-05
8.8025181e-05
9.2460234e-05
9.367366e-05
9.116071e-05
8.4579868e-05
7.3727935e-05
5.861538e-05
3.9736371e-05
1.6635451e-05
6.8427353e-05
7.1077084e-05
7.7255188e-05
8.4626043e-05
9.0924149e-05
9.479807e-05
9.5474527e-05
9.2468535e-05
8.5455526e-05
7.4247766e-05
5.8869078e-05
3.9821328e-05
1.664704e-05
7.3095551e-05
7.552029e-05
8.1214722e-05
8.8014207e-05
9.3733343e-05
9.7046932e-05
9.7197365e-05
9.3713769e-05
8.6285423e-05
7.4738045e-05
5.9107166e-05
3.9900895e-05
1.6658531e-05
7.7811292e-05
7.9972318e-05
8.5127271e-05
9.1318194e-05
9.6445927e-05
9.920327e-05
9.8840342e-05
9.4895538e-05
8.7069187e-05
7.5198608e-05
5.9329534e-05
3.9974973e-05
1.6669891e-05
8.2504366e-05
8.4381471e-05
8.8965671e-05
9.4525142e-05
9.9055452e-05
0.00010126357
0.00010040148
9.6012754e-05
8.7806241e-05
7.5629141e-05
5.9535982e-05
4.0043428e-05
1.6681088e-05
8.7115022e-05
8.8702749e-05
9.2705353e-05
9.7623213e-05
0.00010155592
0.00010322443
0.00010187874
9.7064185e-05
8.8495851e-05
7.6029201e-05
5.9726233e-05
4.0106099e-05
1.6692087e-05
9.1594963e-05
9.2898487e-05
9.6324627e-05
0.00010060169
0.00010394187
0.00010508273
0.00010327014
9.8048542e-05
8.9137186e-05
7.6398258e-05
5.9899956e-05
4.0162806e-05
1.6702851e-05
9.5907006e-05
9.6938428e-05
9.9804928e-05
0.00010345113
0.00010620851
0.00010683569
0.00010457387
9.8964585e-05
8.9729394e-05
7.673574e-05
6.0056788e-05
4.0213357e-05
1.671334e-05
0.00010002396
0.00010079936
0.00010313097
0.00010616347
0.0001083518
0.00010848106
0.00010578844
9.9811225e-05
9.0271679e-05
7.7041085e-05
6.0196366e-05
4.0257565e-05
1.6723514e-05
0.00010392716
0.00010446444
0.00010629079
0.00010873219
0.0001103686
0.00011001715
0.00010691274
0.00010058763
9.0763386e-05
7.7313805e-05
6.0318364e-05
4.0295257e-05
1.6733331e-05
0.00010760493
0.00010792243
0.0001092756
0.00011115239
0.00011225668
0.000111443
0.0001079462
0.00010129331
9.1204081e-05
7.7553536e-05
6.0422522e-05
4.0326295e-05
1.674275e-05
0.00011105123
0.00011116681
0.00011207965
0.00011342077
0.00011401484
0.00011275832
0.00010888878
0.0001019282
9.1593617e-05
7.7760099e-05
6.0508686e-05
4.0350586e-05
1.6751732e-05
0.00011426439
0.00011419493
0.00011469987
0.00011553562
0.00011564285
0.00011396363
0.00010974107
0.00010249271
9.1932187e-05
7.7933539e-05
6.0576832e-05
4.0368097e-05
1.6760238e-05
0.00011724612
0.00011700732
0.00011713561
0.00011749674
0.00011714146
0.00011506016
0.00011050428
0.00010298774
9.2220361e-05
7.807416e-05
6.0627094e-05
4.0378864e-05
1.6768237e-05
0.00012000068
0.00011960698
0.00011938822
0.00011930529
0.00011851236
0.00011604985
0.0001111802
0.0001034147
9.2459102e-05
7.8182544e-05
6.0659777e-05
4.0383003e-05
1.6775699e-05
0.00012253426
0.00012199886
0.00012146082
0.00012096368
0.00011975809
0.00011693534
0.00011177119
0.00010377548
9.2649763e-05
7.825956e-05
6.0675361e-05
4.0380706e-05
1.6782601e-05
0.00012485444
0.00012418935
0.00012335787
0.00012247538
0.00012088193
0.00011771982
0.00011228014
0.00010407241
9.2794067e-05
7.8306353e-05
6.0674503e-05
4.0372245e-05
1.6788927e-05
0.00012696979
0.00012618598
0.00012508499
0.00012384475
0.00012188786
0.00011840702
0.00011271037
0.00010430824
9.2894078e-05
7.8324327e-05
6.0658026e-05
4.0357967e-05
1.6794666e-05
0.00012888958
0.00012799702
0.00012664863
0.0001250769
0.00012278037
0.00011900111
0.0001130656
0.00010448604
9.2952154e-05
7.8315115e-05
6.0626901e-05
4.0338281e-05
1.6799815e-05
0.0001306235
0.00012963131
0.00012805591
0.00012617755
0.00012356444
0.00011950661
0.00011334984
0.00010460918
9.2970903e-05
7.8280546e-05
6.0582222e-05
4.0313654e-05
1.6804378e-05
0.00013218151
0.00013109801
0.0001293144
0.00012715283
0.00012424539
0.00011992831
0.00011356733
0.00010468124
9.2953124e-05
7.8222604e-05
6.0525188e-05
4.0284593e-05
1.6808364e-05
0.00013357363
0.00013240645
0.00013043196
0.00012800923
0.0001248288
0.0001202712
0.00011372249
0.00010470594
9.2901757e-05
7.8143387e-05
6.0457068e-05
4.0251635e-05
1.6811789e-05
0.0001348099
0.00013356604
0.00013141663
0.00012875342
0.00012532041
0.00012054037
0.00011381983
0.00010468711
9.2819829e-05
7.8045064e-05
6.0379176e-05
4.0215334e-05
1.6814674e-05
0.00013590022
0.00013458611
0.00013227653
0.00012939221
0.00012572606
0.00012074101
0.00011386389
0.0001046286
9.2710407e-05
7.7929839e-05
6.0292847e-05
4.0176246e-05
1.6817042e-05
0.00013685431
0.00013547587
0.00013301971
0.00012993241
0.00012605164
0.00012087826
0.00011385921
0.00010453426
9.257655e-05
7.7799911e-05
6.0199409e-05
4.0134919e-05
1.6818922e-05
0.00013768164
0.00013624433
0.00013365414
0.00013038081
0.00012630295
0.00012095725
0.00011381026
0.00010440787
9.2421274e-05
7.7657446e-05
6.010016e-05
4.0091887e-05
1.6820345e-05
0.00013839138
0.00013690023
0.00013418763
0.0001307441
0.00012648576
0.00012098299
0.00011372142
0.00010425315
9.2247514e-05
7.7504544e-05
5.9996354e-05
4.0047655e-05
1.6821343e-05
0.0001389924
0.00013745206
0.00013462777
0.00013102882
0.0001266057
0.00012096039
0.00011359694
0.00010407366
9.2058101e-05
7.734322e-05
5.9889183e-05
4.0002696e-05
1.6821951e-05
0.0001394932
0.00013790795
0.0001349819
0.00013124132
0.00012666822
0.00012089418
0.00011344091
0.00010387283
9.1855734e-05
7.7175385e-05
5.9779765e-05
3.9957448e-05
1.6822201e-05
0.00013990192
0.00013827573
0.00013525708
0.00013138773
0.0001266786
0.00012078893
0.00011325725
0.00010365393
9.1642968e-05
7.700283e-05
5.9669135e-05
3.9912308e-05
1.682213e-05
0.00014022631
0.00013856285
0.00013546009
0.00013147395
0.00012664191
0.00012064899
0.00011304968
0.00010342003
9.1422196e-05
7.6827218e-05
5.955824e-05
3.986763e-05
1.6821769e-05
0.00014047376
0.0001387764
0.0001355974
0.00013150564
0.000126563
0.00012047853
0.00011282172
0.00010317405
9.1195646e-05
7.6650078e-05
5.9447936e-05
3.9823729e-05
1.6821151e-05
0.00014065125
0.00013892312
0.00013567514
0.00013148816
0.0001264465
0.00012028147
0.00011257671
0.00010291866
9.0965371e-05
7.6472798e-05
5.9338986e-05
3.9780874e-05
1.6820309e-05
0.00014076538
0.00013900937
0.00013569913
0.00013142661
0.00012629675
0.00012006153
0.00011231772
0.00010265639
9.0733251e-05
7.6296629e-05
5.923206e-05
3.9739297e-05
1.6819271e-05
0.00014082236
0.00013904115
0.00013567488
0.00013132582
0.00012611791
0.00011982219
0.00011204767
0.00010238952
9.0500991e-05
7.6122686e-05
5.9127742e-05
3.9699188e-05
1.6818066e-05
0.00014082805
0.0001390241
0.00013560757
0.00013119034
0.00012591385
0.00011956672
0.00011176922
0.00010212016
9.027012e-05
7.5951933e-05
5.9026479e-05
3.966049e-05
1.6816718e-05
0.00014078792
0.00013896351
0.00013550205
0.00013102443
0.0001256882
0.00011929816
0.00011148483
0.00010185022
9.0041996e-05
7.5785198e-05
5.8928628e-05
3.9623152e-05
1.6815251e-05
0.0001407071
0.00013886434
0.00013536288
0.0001308321
0.00012544437
0.0001190193
0.00011119676
0.00010158141
8.981779e-05
7.5623117e-05
5.8834212e-05
3.9587467e-05
1.6813681e-05
0.00014059037
0.0001387312
0.00013519431
0.00013061709
0.00012518552
0.00011873275
0.00011090707
0.00010131526
8.9598531e-05
7.5466273e-05
5.874357e-05
3.9553559e-05
1.681203e-05
0.00014044219
0.00013856842
0.00013500032
0.00013038286
0.00012491457
0.00011844088
0.00011061759
0.0001010531
8.938501e-05
7.531479e-05
5.8657139e-05
3.9521522e-05
1.6810318e-05
0.00014026669
0.00013837998
0.00013478457
0.00013013264
0.00012463422
0.00011814587
0.00011032999
0.00010079606
8.917786e-05
7.5169366e-05
5.8575065e-05
3.9491405e-05
1.6808563e-05
0.00014006772
0.00013816959
0.00013455049
0.00012986941
0.00012434697
0.00011784968
0.00011004573
0.00010054514
8.8977624e-05
7.5030461e-05
5.8497472e-05
3.9463241e-05
1.6806783e-05
0.00013984882
0.0001379407
0.00013430123
0.00012959593
0.00012405506
0.00011755408
0.00010976604
0.00010030098
8.8785104e-05
7.4898322e-05
5.8424443e-05
3.9437042e-05
1.6804993e-05
0.00013961327
0.00013769646
0.00013403968
0.0001293147
0.00012376056
0.00011726061
0.00010949196
0.00010006453
8.8600765e-05
7.4773125e-05
5.8356013e-05
3.9412797e-05
1.6803207e-05
0.00013936408
0.00013743978
0.00013376853
0.00012902801
0.0001234653
0.00011697062
0.00010922448
9.9836583e-05
8.8424952e-05
7.4654986e-05
5.8292179e-05
3.9390481e-05
1.6801436e-05
0.00013910401
0.00013717332
0.00013349019
0.00012873795
0.0001231709
0.00011668528
0.00010896469
9.9617687e-05
8.8257919e-05
7.454396e-05
5.8232906e-05
3.9370051e-05
1.6799691e-05
0.00013883559
0.00013689952
0.00013320685
0.00012844632
0.00012287876
0.00011640591
0.00010871339
9.9408282e-05
8.8099835e-05
7.4440049e-05
5.8178125e-05
3.9351456e-05
1.679798e-05
0.00013856109
0.00013662054
0.00013292046
0.00012815478
0.00012259041
0.00011613355
0.00010847123
9.9208699e-05
8.7950794e-05
7.4343204e-05
5.8127745e-05
3.9334633e-05
1.6796311e-05
0.00013828254
0.00013633833
0.00013263281
0.00012786498
0.00012230713
0.00011586912
0.00010823875
9.901918e-05
8.7810824e-05
7.4253334e-05
5.8081648e-05
3.9319513e-05
1.679469e-05
0.0001380018
0.00013605471
0.00013234563
0.0001275784
0.00012203005
0.00011561337
0.00010801638
9.883988e-05
8.7679889e-05
7.417031e-05
5.80397e-05
3.930602e-05
1.6793122e-05
0.0001377206
0.00013577137
0.00013206046
0.00012729632
0.00012176014
0.00011536694
0.00010780445
9.8670874e-05
8.7557903e-05
7.4093972e-05
5.8001752e-05
3.9294076e-05
1.6791613e-05
0.00013744051
0.00013548983
0.00013177868
0.00012701989
0.00012149824
0.00011513035
0.00010760319
9.851217e-05
8.7444729e-05
7.4024131e-05
5.7967644e-05
3.9283601e-05
1.6790164e-05
0.00013716294
0.00013521146
0.00013150154
0.00012675012
0.00012124507
0.00011490402
0.00010741274
9.8363713e-05
8.7340192e-05
7.3960575e-05
5.7937205e-05
3.927451e-05
1.6788779e-05
0.00013688918
0.00013493749
0.00013123011
0.00012648787
0.00012100123
0.00011468826
0.00010723319
9.8225392e-05
8.7244077e-05
7.3903074e-05
5.7910258e-05
3.9266721e-05
1.678746e-05
0.00013662037
0.00013466901
0.00013096536
0.0001262339
0.0001207672
0.00011448331
0.00010706452
9.8097045e-05
8.7156142e-05
7.3851382e-05
5.7886623e-05
3.9260151e-05
1.6786208e-05
0.00013635751
0.00013440697
0.00013070811
0.00012598883
0.00012054339
0.00011428931
0.00010690668
9.7978468e-05
8.7076117e-05
7.3805242e-05
5.7866114e-05
3.9254717e-05
1.6785024e-05
0.00013610148
0.0001341522
0.00013045908
0.00012575319
0.00012033007
0.00011410632
0.00010675955
9.7869416e-05
8.7003708e-05
7.3764386e-05
5.7848547e-05
3.925034e-05
1.6783908e-05
0.00013585304
0.00013390542
0.00013021887
0.0001255274
0.00012012748
0.00011393435
0.00010662295
9.7769613e-05
8.6938608e-05
7.3728542e-05
5.7833735e-05
3.9246937e-05
1.6782859e-05
0.00013561285
0.00013366723
0.00012998796
0.0001253118
0.00011993572
0.00011377334
0.00010649668
9.7678754e-05
8.6880491e-05
7.3697433e-05
5.7821497e-05
3.9244434e-05
1.6781878e-05
0.00013538145
0.00013343814
0.00012976678
0.00012510663
0.00011975488
0.00011362317
0.00010638048
9.7596511e-05
8.6829025e-05
7.3670781e-05
5.7811649e-05
3.9242755e-05
1.6780964e-05
0.00013515929
0.00013321856
0.00012955562
0.00012491206
0.00011958494
0.00011348367
0.00010627407
9.752254e-05
8.678387e-05
7.364831e-05
5.7804018e-05
3.9241827e-05
1.6780114e-05
0.00013494673
0.00013300881
0.00012935474
0.00012472818
0.00011942584
0.00011335464
0.00010617712
9.7456482e-05
8.6744684e-05
7.3629747e-05
5.779843e-05
3.9241584e-05
1.6779328e-05
0.00013474406
0.00013280914
0.00012916428
0.00012455504
0.00011927747
0.00011323583
0.00010608932
9.7397968e-05
8.6711126e-05
7.3614825e-05
5.7794722e-05
3.9241959e-05
1.6778604e-05
0.00013455148
0.00013261972
0.00012898434
0.0001243926
0.00011913967
0.00011312697
0.00010601029
9.7346625e-05
8.6682856e-05
7.3603285e-05
5.7792735e-05
3.9242891e-05
1.677794e-05
0.00013436911
0.00013244065
0.00012881496
0.00012424079
0.00011901224
0.00011302774
0.00010593968
9.7302073e-05
8.6659538e-05
7.3594871e-05
5.7792318e-05
3.9244323e-05
1.6777334e-05
0.00013419704
0.00013227198
0.00012865609
0.00012409947
0.00011889494
0.00011293782
0.0001058771
9.726393e-05
8.6640837e-05
7.3589336e-05
5.7793324e-05
3.9246198e-05
1.6776785e-05
0.00013403526
0.00013211366
0.00012850765
0.00012396846
0.00011878748
0.00011285685
0.00010582216
9.7231812e-05
8.6626426e-05
7.3586439e-05
5.7795611e-05
3.9248465e-05
1.6776289e-05
0.00013388371
0.00013196564
0.00012836951
0.00012384755
0.00011868956
0.00011278445
0.00010577445
9.7205333e-05
8.6615978e-05
7.3585945e-05
5.7799044e-05
3.9251072e-05
1.6775846e-05
0.00013374229
0.00013182777
0.00012824149
0.00012373647
0.00011860085
0.00011272023
0.00010573356
9.7184107e-05
8.6609174e-05
7.3587622e-05
5.780349e-05
3.925397e-05
1.6775451e-05
0.00013361084
0.00013169989
0.00012812334
0.00012363494
0.00011852098
0.00011266378
0.00010569908
9.7167754e-05
8.6605701e-05
7.359125e-05
5.7808824e-05
3.9257114e-05
1.6775104e-05
0.00013348917
0.00013158177
0.00012801483
0.00012354262
0.00011844957
0.0001126147
0.00010567059
9.7155899e-05
8.6605254e-05
7.3596615e-05
5.7814924e-05
3.9260458e-05
1.67748e-05
0.00013337706
0.00013147316
0.00012791565
0.00012345918
0.00011838623
0.00011257255
0.00010564769
9.7148176e-05
8.6607542e-05
7.3603515e-05
5.7821678e-05
3.9263963e-05
1.6774538e-05
0.00013327423
0.00013137381
0.0001278255
0.00012338427
0.00011833057
0.00011253693
0.00010562997
9.7144238e-05
8.6612289e-05
7.3611761e-05
5.7828984e-05
3.9267592e-05
1.6774315e-05
0.00013318043
0.00013128341
0.00012774407
0.00012331753
0.00011828219
0.00011250744
0.00010561706
9.7143754e-05
8.6619241e-05
7.3621182e-05
5.7836748e-05
3.9271314e-05
1.6774128e-05
0.00013309536
0.00013120167
0.00012767101
0.00012325858
0.00011824071
0.00011248369
0.00010560859
9.7146413e-05
8.6628157e-05
7.363162e-05
5.784489e-05
3.9275101e-05
1.6773976e-05
0.00013301871
0.00013112826
0.00012760599
0.00012320706
0.00011820574
0.0001124653
0.00010560421
9.7151921e-05
8.6638819e-05
7.3642935e-05
5.7853337e-05
3.9278931e-05
1.6773855e-05
0.00013295017
0.00013106287
0.00012754866
0.0001231626
0.00011817689
0.00011245188
0.0001056036
9.7160002e-05
8.665102e-05
7.3654993e-05
5.7862023e-05
3.9282785e-05
1.6773764e-05
0.0001328894
0.00013100513
0.00012749866
0.00012312482
0.00011815379
0.00011244309
0.00010560641
9.7170387e-05
8.6664565e-05
7.3667673e-05
5.7870887e-05
3.9286642e-05
1.6773701e-05
0.00013283605
0.0001309547
0.00012745561
0.00012309333
0.00011813605
0.00011243855
0.00010561233
9.7182816e-05
8.6679261e-05
7.3680852e-05
5.7879869e-05
3.9290485e-05
1.6773664e-05
0.00013278974
0.00013091119
0.00012741911
0.00012306775
0.00011812328
0.00011243789
0.00010562103
9.719703e-05
8.6694921e-05
7.3694412e-05
5.7888909e-05
3.9294293e-05
1.6773651e-05
0.00013275008
0.0001308742
0.00012738877
0.00012304764
0.00011811507
0.00011244076
0.00010563221
9.7212769e-05
8.6711354e-05
7.370823e-05
5.7897942e-05
3.9298045e-05
1.6773661e-05
0.00013271664
0.00013084331
0.00012736416
0.00012303261
0.00011811103
0.00011244677
0.00010564553
9.7229779e-05
8.6728375e-05
7.3722187e-05
5.7906905e-05
3.9301718e-05
1.677369e-05
0.00013268902
0.00013081811
0.00012734487
0.00012302222
0.00011811076
0.00011245557
0.0001056607
9.7247814e-05
8.6745804e-05
7.3736169e-05
5.791574e-05
3.9305291e-05
1.6773736e-05
0.00013266679
0.00013079817
0.00012733046
0.00012301608
0.00011811387
0.00011246682
0.00010567741
9.7266643e-05
8.6763476e-05
7.3750069e-05
5.7924389e-05
3.9308745e-05
1.6773797e-05
0.00013264956
0.0001307831
0.00012732055
0.0001230138
0.00011812
0.00011248018
0.0001056954
9.7286063e-05
8.6781248e-05
7.3763801e-05
5.7932812e-05
3.9312065e-05
1.6773871e-05
0.00013263695
0.00013077251
0.00012731475
0.00012301501
0.00011812883
0.00011249539
0.00010571445
9.73059e-05
8.6799002e-05
7.3777297e-05
5.7940977e-05
3.9315245e-05
1.6773955e-05
0.00013262861
0.00013076606
0.00012731274
0.00012301939
0.00011814006
0.00011251219
0.00010573435
9.7326012e-05
8.6816651e-05
7.3790515e-05
5.7948872e-05
3.9318284e-05
1.6774048e-05
0.00013262423
0.00013076344
0.00012731419
0.00012302667
0.00011815345
0.00011253037
0.00010575495
9.7346289e-05
8.6834131e-05
7.3803426e-05
5.7956493e-05
3.9321178e-05
1.6774149e-05
0.00013262353
0.00013076436
0.00012731884
0.00012303657
0.00011816875
0.00011254974
0.0001057761
9.7366645e-05
8.6851398e-05
7.3816016e-05
5.7963836e-05
3.932391e-05
1.6774256e-05
0.00013262623
0.00013076854
0.00012732642
0.00012304885
0.00011818576
0.00011257015
0.00010579769
9.7387004e-05
8.6868412e-05
7.3828272e-05
5.797089e-05
3.9326504e-05
1.6774369e-05
0.00013263206
0.00013077573
0.00012733668
0.00012306329
0.00011820429
0.00011259142
0.0001058196
9.740729e-05
8.6885134e-05
7.384018e-05
5.7977656e-05
3.932897e-05
1.6774488e-05
0.00013264075
0.00013078565
0.00012734935
0.00012307964
0.00011822411
0.00011261338
0.00010584171
9.7427416e-05
8.6901509e-05
7.3851693e-05
5.7984147e-05
3.9331312e-05
1.6774612e-05
0.000132652
0.000130798
0.00012736414
0.00012309763
0.00011824501
0.00011263586
0.00010586386
9.744728e-05
8.6917469e-05
7.3862787e-05
5.7990348e-05
3.9333531e-05
1.677474e-05
0.00013266548
0.00013081247
0.00012738077
0.000123117
0.00011826673
0.00011265865
0.00010588591
9.7466761e-05
8.6932918e-05
7.3873435e-05
5.7996242e-05
3.9335622e-05
1.6774872e-05
0.00013268085
0.00013082874
0.00012739891
0.00012313745
0.00011828904
0.00011268153
0.00010590767
9.7485727e-05
8.6947791e-05
7.3883587e-05
5.8001805e-05
3.9337579e-05
1.6775005e-05
0.00013269779
0.00013084646
0.00012741824
0.00012315869
0.00011831167
0.0001127043
0.000105929
9.7504056e-05
8.696202e-05
7.3893196e-05
5.8007013e-05
3.9339391e-05
1.6775139e-05
0.00013271596
0.00013086533
0.00012743848
0.00012318046
0.00011833439
0.00011272677
0.00010594972
9.7521663e-05
8.6975539e-05
7.3902222e-05
5.8011845e-05
3.9341051e-05
1.6775272e-05
0.00013273506
0.00013088505
0.00012745934
0.0001232025
0.00011835699
0.00011274877
0.00010596973
9.7538474e-05
8.6988298e-05
7.3910639e-05
5.801629e-05
3.9342555e-05
1.6775402e-05
0.00013275487
0.00013090538
0.00012748061
0.00012322464
0.00011837932
0.00011277018
0.00010598897
9.7554444e-05
8.7000276e-05
7.391844e-05
5.8020349e-05
3.9343905e-05
1.6775528e-05
0.00013277519
0.00013092614
0.00012750211
0.00012324671
0.00011840127
0.00011279094
0.0001060074
9.756956e-05
8.7011478e-05
7.3925639e-05
5.8024035e-05
3.9345106e-05
1.677565e-05
0.00013279589
0.0001309472
0.00012752372
0.00012326862
0.00011842278
0.00011281104
0.00010602502
9.7583843e-05
8.7021937e-05
7.3932272e-05
5.8027376e-05
3.9346171e-05
1.6775766e-05
0.00013281688
0.00013096847
0.00012754536
0.00012329033
0.00011844383
0.00011283047
0.00010604186
9.7597339e-05
8.7031705e-05
7.3938388e-05
5.8030409e-05
3.9347119e-05
1.6775877e-05
0.00013283811
0.0001309899
0.00012756701
0.00012331182
0.00011846443
0.00011284926
0.00010605797
9.7610107e-05
8.7040844e-05
7.3944042e-05
5.8033174e-05
3.9347968e-05
1.6775985e-05
0.00013285952
0.00013101144
0.00012758862
0.00012333307
0.00011848458
0.00011286744
0.00010607338
9.7622205e-05
8.7049415e-05
7.3949289e-05
5.803571e-05
3.9348737e-05
1.6776089e-05
0.00013288108
0.00013103305
0.00012761017
0.00012335406
0.00011850428
0.00011288503
0.00010608815
9.7633677e-05
8.7057467e-05
7.3954171e-05
5.8038046e-05
3.934944e-05
1.677619e-05
0.00013290268
0.00013105466
0.00012763157
0.00012337475
0.00011852351
0.00011290202
0.00010610227
9.7644549e-05
8.7065027e-05
7.3958715e-05
5.8040202e-05
3.9350085e-05
1.6776289e-05
0.00013292422
0.00013107615
0.00012765275
0.00012339505
0.0001185422
0.00011291838
0.00010611574
9.7654814e-05
8.70721e-05
7.3962925e-05
5.8042182e-05
3.9350674e-05
1.6776387e-05
0.00013294554
0.00013109738
0.00012767356
0.00012341485
0.00011856027
0.00011293404
0.0001061285
9.7664446e-05
8.7078667e-05
7.3966792e-05
5.8043978e-05
3.9351204e-05
1.6776482e-05
0.00013296645
0.00013111817
0.00012769386
0.00012343402
0.0001185776
0.00011294891
0.00010614049
9.7673399e-05
8.7084696e-05
7.397029e-05
5.8045575e-05
3.9351666e-05
1.6776575e-05
0.00013298678
0.00013113835
0.00012771347
0.00012345242
0.00011859409
0.00011296291
0.00010615165
9.7681618e-05
8.7090147e-05
7.397339e-05
5.8046951e-05
3.9352051e-05
1.6776663e-05
0.00013300634
0.00013115775
0.00012773226
0.00012346992
0.00011860962
0.00011297595
0.00010616191
9.768906e-05
8.7094985e-05
7.3976067e-05
5.8048089e-05
3.9352349e-05
1.6776746e-05
0.00013302501