/*--------------------------------*- C++ -*----------------------------------*\
| =========                 |                                                 |
| \\      /  F ield         | OpenFOAM: The Open Source CFD Toolbox           |
|  \\    /   O peration     | Version:  2506                                  |
|   \\  /    A nd           | Website:  www.openfoam.com                      |
|    \\/     M anipulation  |                                                 |
\*---------------------------------------------------------------------------*/
FoamFile
{
    version     2.0;
    format      ascii;
    arch        "LSB;label=32;scalar=64";
    class       volVectorField;
    location    "19000/water";
    object      U;
}
// * * * * * * * * * * * * * * * * * * * * * * * * * * * * * * * * * * * * * //

dimensions      [0 1 -1 0 0 0 0];

internalField   nonuniform List<vector> 
2600
(
(0.2509291 -6.6886033e-05 -8.0456629e-19)
(0.25093316 -0.00014739222 -3.1602507e-18)
(0.25094167 -0.00023143146 -2.3456198e-19)
(0.2509543 -0.00031980044 -6.3234123e-19)
(0.25097092 -0.0004082391 -3.5494673e-19)
(0.25099124 -0.00049673666 -5.3339486e-20)
(0.25101467 -0.0005856609 -1.454984e-19)
(0.25103908 -0.00067482201 2.9230108e-20)
(0.25105541 -0.00075972197 8.8826519e-20)
(0.25102652 -0.00083857781 1.4101065e-19)
(0.25079811 -0.00098580402 -1.7956567e-20)
(0.24954942 -0.001485464 -2.1500482e-19)
(0.2411817 0.0014904344 -5.2314218e-19)
(0.25290631 -5.2391824e-05 -1.0872103e-18)
(0.25291356 -0.00012867936 -3.2559914e-18)
(0.25292967 -0.00020232594 -4.2961933e-19)
(0.25295369 -0.00027812692 -6.2743051e-19)
(0.25298503 -0.00035187867 -2.9298489e-19)
(0.25302278 -0.00042368282 -1.4929508e-20)
(0.25306456 -0.0004936843 -1.3390497e-19)
(0.25310219 -0.00056251339 3.8848255e-20)
(0.25310631 -0.00062550536 9.0454414e-20)
(0.25297401 -0.00066089399 1.7665681e-19)
(0.25231856 -0.00068576655 -5.0994594e-20)
(0.24919071 -0.0011507908 -4.2291495e-19)
(0.23317376 0.00055016191 -5.379346e-19)
(0.25485703 -5.0201261e-05 -1.2448645e-18)
(0.25486389 -0.00012463928 -1.5831623e-19)
(0.2548791 -0.00019574884 -1.038103e-18)
(0.2549016 -0.00026956178 -8.9568318e-21)
(0.25493052 -0.00034177627 -1.0727927e-20)
(0.25496396 -0.00041257844 -9.2938879e-20)
(0.25499618 -0.00048173979 2.591552e-20)
(0.25500857 -0.00054996705 3.5938258e-19)
(0.25494172 -0.0006163767 3.0333012e-19)
(0.2546073 -0.0006602417 1.1121225e-19)
(0.25332071 -0.00063871076 -4.8655407e-20)
(0.2478214 -0.00092597142 -4.9134087e-19)
(0.22526486 0.00012340436 -4.2771278e-19)
(0.25664521 -4.9743849e-05 1.9383553e-18)
(0.25665224 -0.00012488064 2.2883098e-18)
(0.2566674 -0.00019721364 4.8659487e-19)
(0.2566896 -0.0002720698 3.7386229e-19)
(0.25671747 -0.00034495172 1.4737244e-19)
(0.25674738 -0.00041609227 -3.304971e-20)
(0.25676826 -0.0004848948 5.4544096e-20)
(0.25674667 -0.00055096518 1.0357013e-19)
(0.25658539 -0.00061444887 -1.3688016e-19)
(0.2559957 -0.0006636637 -4.9361109e-20)
(0.2539403 -0.00063277351 -9.8335579e-20)
(0.24583249 -0.00077044467 -4.242213e-19)
(0.21800982 -5.9385921e-05 -5.0519069e-19)
(0.25841323 -4.8556775e-05 1.0965807e-18)
(0.2584204 -0.00012219546 1.3660971e-18)
(0.25843571 -0.00019301892 1.3334124e-18)
(0.25845781 -0.00026625064 -1.5777774e-19)
(0.25848442 -0.00033744492 1.8715632e-19)
(0.25850914 -0.00040689654 -9.0276477e-21)
(0.25851346 -0.00047389151 -1.8189191e-20)
(0.25844542 -0.00053705871 -1.6450672e-19)
(0.25816424 -0.00059536593 -1.151976e-19)
(0.25726648 -0.00064373127 -1.5866304e-19)
(0.25431322 -0.0006144232 -2.0754566e-19)
(0.24352458 -0.00065114414 -2.1481525e-19)
(0.21163262 -0.00012321892 -4.1977178e-19)
(0.26015467 -4.709344e-05 1.1219574e-19)
(0.26016187 -0.0001185153 6.6510193e-19)
(0.26017704 -0.0001870764 1.3340962e-18)
(0.2601984 -0.00025799462 3.6546404e-19)
(0.26022227 -0.00032687701 -1.5844911e-19)
(0.26023853 -0.0003939878 -6.0264286e-21)
(0.26021927 -0.00045855461 -1.149046e-19)
(0.26009115 -0.00051865148 -1.6669937e-19)
(0.25966515 -0.00057157394 -9.0750015e-20)
(0.2584067 -0.0006148087 -1.7815495e-20)
(0.25443266 -0.00058544056 -8.2118901e-20)
(0.24102793 -0.0005571206 1.0911388e-19)
(0.20612335 -0.00013293671 -2.5359116e-19)
(0.26183846 -4.5390267e-05 4.5069708e-19)
(0.26184561 -0.00011435405 1.0685655e-18)
(0.26186042 -0.00018050108 1.108816e-18)
(0.26188043 -0.00024892327 1.2138633e-18)
(0.26190008 -0.00031528561 -6.8443108e-20)
(0.26190445 -0.00037977026 1.4492604e-19)
(0.26185458 -0.00044151446 -1.3485056e-19)
(0.2616533 -0.00049832849 -3.6476398e-19)
(0.26105826 -0.00054618084 -3.266027e-19)
(0.25938354 -0.00058222647 -4.8010171e-20)
(0.25426994 -0.00054801504 -5.7199365e-20)
(0.23842933 -0.00047868139 7.1112304e-21)
(0.20141646 -0.00011963306 -4.5051391e-19)
(0.26345768 -4.3664882e-05 -2.054682e-18)
(0.26346469 -0.00011008557 -1.3594202e-18)
(0.26347885 -0.00017377013 -1.827011e-19)
(0.26349678 -0.00023963045 3.8355132e-19)
(0.26351051 -0.00030340684 1.5506871e-19)
(0.26349932 -0.00036518044 9.3706424e-20)
(0.26341166 -0.00042394823 -3.5423548e-20)
(0.2631242 -0.00047735793 -2.3603436e-19)
(0.26233468 -0.00052050214 1.0478216e-19)
(0.26018092 -0.00054846095 -6.3709288e-20)
(0.25381559 -0.00050481858 -1.0891472e-19)
(0.23581666 -0.00040978299 6.7793406e-20)
(0.19745226 -9.8494616e-05 -3.1462971e-19)
(0.26501552 -4.2046877e-05 2.6007252e-18)
(0.26502225 -0.00010599907 9.4691889e-19)
(0.26503542 -0.0001673021 8.6760035e-19)
(0.26505044 -0.00023067618 1.0329728e-18)
(0.26505633 -0.00029193976 2.3979343e-19)
(0.26502564 -0.00035106733 -8.3203957e-20)
(0.26489279 -0.0004068816 -7.7697086e-20)
(0.26450568 -0.00045685738 -1.4367277e-19)
(0.26349313 -0.00049549057 -2.3875914e-19)
(0.26078727 -0.00051473411 -1.3681928e-19)
(0.25307513 -0.00045847926 -3.3120226e-20)
(0.23327192 -0.00034737981 1.4026318e-19)
(0.19416843 -7.6932879e-05 4.5866612e-20)
(0.2665165 -4.057706e-05 2.7978422e-18)
(0.26652283 -0.00010224007 1.6636738e-18)
(0.26653459 -0.00016134012 4.8374409e-19)
(0.26654572 -0.0002224043 7.9353942e-19)
(0.26654166 -0.00028132047 4.5071398e-19)
(0.26648729 -0.00033795568 -2.4224111e-20)
(0.26630156 -0.0003909415 -1.6105726e-19)
(0.26580019 -0.00043752442 -1.0987997e-19)
(0.26453091 -0.00047164498 -2.2061295e-19)
(0.26118849 -0.00048140525 -1.9906917e-19)
(0.25206937 -0.00041120617 -1.5014717e-19)
(0.23086314 -0.00029047959 -2.694258e-19)
(0.19149027 -5.8333256e-05 -1.6860594e-19)
(0.26796591 -3.9276698e-05 -1.8158445e-18)
(0.26797166 -9.8886215e-05 -2.763423e-19)
(0.26798155 -0.00015601486 -4.2553946e-19)
(0.26798768 -0.00021499986 7.5701742e-19)
(0.26797137 -0.00027178437 4.5248061e-19)
(0.26788889 -0.00032612646 1.6518602e-19)
(0.26764202 -0.00037645613 -8.0718971e-20)
(0.26700984 -0.00041972353 -2.2814406e-19)
(0.26544297 -0.00044912486 -1.6102828e-19)
(0.26137042 -0.00044842588 -1.3020415e-19)
(0.25083979 -0.00036475941 -2.4743006e-19)
(0.22864123 -0.00023936528 -6.2864865e-19)
(0.18933265 -4.3854023e-05 -3.5028395e-19)
(0.26936985 -3.8151201e-05 -9.3363178e-19)
(0.26937484 -9.5961771e-05 -5.7110102e-19)
(0.26938229 -0.00015136516 7.898426e-20)
(0.2693822 -0.00020851724 7.6548267e-19)
(0.26935114 -0.00026339986 2.8837953e-19)
(0.26923575 -0.00031565718 -3.1863372e-20)
(0.26891866 -0.00036350366 2.6572389e-20)
(0.26813622 -0.00040351927 -2.1848449e-19)
(0.26622207 -0.00042777198 -1.3114421e-19)
(0.26132397 -0.00041560855 -1.3657319e-19)
(0.24944814 -0.00032041762 -2.1027501e-19)
(0.22663743 -0.00019477817 -4.9599365e-19)
(0.18760708 -3.3365972e-05 -4.3014661e-19)
(0.27073452 -3.7186892e-05 -5.7218069e-20)
(0.27073851 -9.3441594e-05 -4.9115579e-19)
(0.27074291 -0.00014735094 1.395835e-19)
(0.27073523 -0.00020290124 3.8244252e-19)
(0.27068668 -0.00025609589 3.1349811e-19)
(0.27053315 -0.00030645578 3.9453947e-20)
(0.27013553 -0.00035195662 1.2639501e-19)
(0.26917943 -0.00038871662 -1.2611827e-19)
(0.26685881 -0.00040716162 -2.0531897e-19)
(0.26105041 -0.00038281108 -1.6968279e-19)
(0.24796793 -0.00027903903 -2.4660941e-19)
(0.2248628 -0.00015723519 -3.668829e-19)
(0.18622942 -2.608962e-05 -3.2077775e-19)
(0.27206549 -3.6358598e-05 -1.7202378e-19)
(0.27206822 -9.1270024e-05 -1.30846e-19)
(0.27206885 -0.00014388431 1.3943049e-19)
(0.27205207 -0.00019803069 1.1170138e-18)
(0.27198302 -0.00024971698 1.6243538e-20)
(0.27178551 -0.0002983267 1.5786269e-19)
(0.27129541 -0.00034156266 5.0661131e-19)
(0.27013718 -0.00037494839 5.5937542e-20)
(0.26734241 -0.00038673535 -2.5123688e-19)
(0.2605654 -0.00035005845 -1.8389517e-19)
(0.24647172 -0.00024119444 -1.6236202e-19)
(0.22331131 -0.00012666963 -2.6929132e-19)
(0.18512583 -2.107637e-05 -3.7987226e-19)
(0.27336737 -3.5638788e-05 4.0209121e-19)
(0.27336856 -8.938186e-05 -2.7990193e-20)
(0.27336463 -0.00014086217 1.2108232e-18)
(0.27333706 -0.00019376295 3.2334539e-19)
(0.27324415 -0.00024407934 3.7828182e-20)
(0.27299604 -0.00029103798 2.3689958e-19)
(0.27239931 -0.00033202382 5.0497218e-19)
(0.27100443 -0.00036176734 2.1234387e-19)
(0.26766283 -0.00036596046 -3.6057295e-20)
(0.25989992 -0.00031757793 -1.8282018e-19)
(0.24502002 -0.00020725745 -2.8350977e-19)
(0.22196569 -0.00010242448 -8.8045697e-20)
(0.18423545 -1.7507117e-05 -1.9137893e-19)
(0.27464382 -3.5002894e-05 6.6130641e-19)
(0.27464313 -8.7716017e-05 -4.662348e-20)
(0.27463375 -0.00013818758 1.0400021e-18)
(0.2745935 -0.00018996324 3.6783069e-19)
(0.27447297 -0.00023900779 5.3416333e-19)
(0.27416661 -0.00028436529 2.3240409e-19)
(0.27344636 -0.00032304577 -7.4914812e-20)
(0.27177364 -0.00034871442 -9.6591689e-20)
(0.26781391 -0.00034445792 -2.4659124e-19)
(0.25909705 -0.00028576382 -1.9605939e-19)
(0.2436552 -0.00017740821 -4.489623e-19)
(0.22080343 -8.3473061e-05 -4.1232226e-19)
(0.18351045 -1.4804616e-05 3.7056229e-21)
(0.27589768 -3.4431105e-05 7.9625269e-19)
(0.27589473 -8.6221418e-05 4.2869731e-19)
(0.27587888 -0.00013577914 -2.9944266e-21)
(0.27582384 -0.00018651757 1.9043398e-19)
(0.27567139 -0.00023435206 6.3798075e-19)
(0.27529788 -0.00027811161 6.3799883e-20)
(0.27443375 -0.00031435606 -3.4171907e-19)
(0.27243556 -0.00033536392 -1.7599719e-19)
(0.26779662 -0.00032206948 -2.4122601e-19)
(0.25820551 -0.00025510598 -2.4637195e-19)
(0.24240122 -0.00015160162 -2.364076e-19)
(0.21980119 -6.8691002e-05 -4.5457277e-19)
(0.18291435 -1.2618553e-05 -3.5016028e-19)
(0.27713109 -3.3908296e-05 -5.3759447e-19)
(0.27712546 -8.4858001e-05 6.8881319e-19)
(0.27710201 -0.00013357264 -1.2034835e-20)
(0.27702977 -0.00018333502 2.1032382e-19)
(0.27684047 -0.00022998947 4.3093184e-19)
(0.2763893 -0.00027211088 5.3177844e-20)
(0.27535691 -0.00030570399 -2.6151595e-19)
(0.2729805 -0.00032135787 -1.4752408e-19)
(0.26762111 -0.00029886295 -2.8097554e-19)
(0.25727242 -0.00022610441 -3.4157648e-19)
(0.24126718 -0.00012956886 -2.4525314e-19)
(0.21893722 -5.7057435e-05 -4.3341786e-19)
(0.18241982 -1.0759084e-05 -3.3640011e-19)
(0.27834572 -3.3423243e-05 7.7823409e-19)
(0.27833694 -8.3595438e-05 2.649672e-19)
(0.2783046 -0.00013151911 3.1010065e-19)
(0.27821241 -0.00018034488 1.1059051e-18)
(0.27798052 -0.00022582105 -1.6318703e-19)
(0.27743925 -0.00026622306 1.944398e-19)
(0.27620962 -0.00029685485 2.5216053e-19)
(0.27340008 -0.00030643644 -1.6928085e-19)
(0.26730692 -0.00027509383 -1.3592158e-19)
(0.25633756 -0.0001991843 -2.8441964e-19)
(0.24025214 -0.0001108758 -3.18797e-19)
(0.21819234 -4.7749367e-05 -4.2109471e-19)
(0.18200662 -9.1303527e-06 -4.6563158e-19)
(0.27954284 -3.2967675e-05 3.1337073e-18)
(0.27953036 -8.2411065e-05 9.9340907e-19)
(0.27948767 -0.00012958149 1.1722519e-18)
(0.27937237 -0.00017749197 2.7217676e-19)
(0.27909121 -0.00022176546 -4.1176503e-20)
(0.27844503 -0.00026032527 2.9004228e-19)
(0.27698441 -0.00028758731 2.0226893e-19)
(0.27368915 -0.00029046172 -1.2674702e-20)
(0.26688073 -0.00025114511 1.2231336e-19)
(0.25543062 -0.00017462896 2.4099652e-19)
(0.2393495 -9.5013854e-05 -9.0444942e-20)
(0.21755 -4.0152308e-05 -6.9869994e-21)
(0.18165972 -7.6839575e-06 -1.944679e-19)
(0.28072346 -3.253541e-05 1.2597866e-18)
(0.28070667 -8.1287794e-05 1.2052435e-18)
(0.28065194 -0.00012773124 1.083273e-18)
(0.28050986 -0.0001747318 2.5390131e-19)
(0.28017156 -0.00021775304 2.0041377e-19)
(0.27940289 -0.00025430188 5.1593161e-20)
(0.27767312 -0.00027769789 2.5447108e-19)
(0.27384765 -0.00027342827 3.4590117e-19)
(0.26637281 -0.00022746053 8.889344e-20)
(0.2545711 -0.0001525485 -2.1860174e-19)
(0.23855012 -8.1484031e-05 -2.4859856e-19)
(0.21699614 -3.3827435e-05 8.7644342e-20)
(0.18136794 -6.3925385e-06 1.2327029e-19)
(0.28188837 -3.2121656e-05 -1.6736372e-18)
(0.28186655 -8.0212344e-05 1.7357315e-18)
(0.28179785 -0.00012594549 2.8158613e-19)
(0.28162471 -0.00017202641 -2.1947159e-21)
(0.28121999 -0.00021372065 1.1973042e-19)
(0.28030804 -0.00024803603 -2.2726358e-20)
(0.27826773 -0.00026701328 1.5823725e-19)
(0.27388156 -0.00025545692 2.9990638e-19)
(0.26581311 -0.00020447967 -1.8433151e-20)
(0.25377001 -0.00013289057 -5.9028373e-19)
(0.23784411 -6.9849922e-05 -2.4934108e-19)
(0.21651887 -2.8467155e-05 -2.8152114e-20)
(0.18112283 -5.2370934e-06 -5.8722837e-20)
(0.28303819 -3.1722486e-05 -1.6349361e-19)
(0.28301052 -7.917385e-05 1.5157722e-18)
(0.28292559 -0.00012420469 2.3321341e-19)
(0.28271638 -0.00016934096 -5.4578209e-19)
(0.2822343 -0.00020960734 5.7616923e-19)
(0.28115476 -0.00024140494 7.5602681e-20)
(0.27876144 -0.00025540748 -1.6904564e-19)
(0.27380292 -0.00023677356 2.6607253e-19)
(0.26522808 -0.00018258167 -4.1831339e-21)
(0.25303215 -0.00011548282 -7.8361881e-20)
(0.23722187 -5.9756961e-05 -1.2583886e-19)
(0.21610816 -2.3855674e-05 -7.7319109e-20)
(0.18091788 -4.2018436e-06 7.033037e-20)
(0.28417339 -3.1334452e-05 2.0778146e-18)
(0.28413893 -7.8162818e-05 -5.1205437e-19)
(0.28403512 -0.00012249081 3.5825814e-20)
(0.28378396 -0.00016664114 4.162587e-19)
(0.28321158 -0.0002053501 1.4421706e-19)
(0.28193659 -0.00023428041 2.2003853e-19)
(0.27914984 -0.00024281874 4.0466418e-19)
(0.27362851 -0.00021767781 6.0445854e-19)
(0.26463906 -0.00016204558 3.2165661e-20)
(0.25235823 -0.00010008753 -5.1939824e-19)
(0.23667446 -5.0928433e-05 -6.2637761e-19)
(0.21575559 -1.9839553e-05 -2.6346386e-19)
(0.18074793 -3.2726373e-06 -4.7997322e-20)
(0.28529433 -3.0954305e-05 1.9137882e-18)
(0.28525196 -7.7170337e-05 -8.6107002e-19)
(0.28512619 -0.000120786 6.4598102e-19)
(0.28482614 -0.00016389138 3.9321028e-19)
(0.28414822 -0.00020087987 -6.2139059e-20)
(0.28264669 -0.00022653515 3.3905404e-19)
(0.27943202 -0.00022926076 3.6598977e-19)
(0.27337791 -0.00019850622 2.5066161e-19)
(0.26406181 -0.0001430334 -3.4234508e-20)
(0.25174654 -8.6449681e-05 5.8162387e-20)
(0.23619383 -4.3151082e-05 -3.788124e-19)
(0.21545404 -1.6307482e-05 -2.9718068e-19)
(0.18060883 -2.4367077e-06 -1.0209239e-19)
(0.28640123 -3.0578784e-05 1.701381e-18)
(0.28634965 -7.6187464e-05 8.0882993e-19)
(0.28619826 -0.00011907139 1.0066941e-18)
(0.28584114 -0.00016105348 -1.409907e-19)
(0.28503985 -0.00019611847 3.9312345e-19)
(0.2832784 -0.00021805401 2.5870541e-19)
(0.27961117 -0.00021482471 6.9096048e-20)
(0.27307114 -0.00017959427 1.6337789e-19)
(0.26350715 -0.00012559658 8.2958772e-20)
(0.25119402 -7.4328967e-05 4.5224605e-19)
(0.23577276 -3.6259372e-05 2.4992408e-19)
(0.21519748 -1.3176836e-05 -4.3736031e-20)
(0.18049716 -1.6827579e-06 1.1269075e-19)
(0.28749419 -3.0204451e-05 3.0739394e-19)
(0.28743185 -7.5204721e-05 3.2235237e-18)
(0.28725056 -0.00011732616 4.2354236e-19)
(0.28682673 -0.0001580853 4.1766534e-20)
(0.28588145 -0.00019097762 4.498692e-19)
(0.28382593 -0.00020874814 2.2931557e-19)
(0.27969464 -0.00019967158 2.0675763e-19)
(0.27272685 -0.00016124193 3.7925047e-20)
(0.26298189 -0.00010969946 1.5385413e-19)
(0.25069697 -6.351502e-05 3.9757141e-21)
(0.23540492 -3.0122543e-05 2.3974159e-19)
(0.21498079 -1.0384802e-05 -2.633081e-21)
(0.18041 -1.0010026e-06 -6.8418024e-20)
(0.28857317 -2.9827536e-05 -1.4102959e-18)
(0.28849825 -7.4211613e-05 1.3402498e-18)
(0.28828196 -0.00011552671 -3.5412809e-20)
(0.28778008 -0.00015493915 8.7624037e-20)
(0.28666738 -0.00018536089 2.932383e-19)
(0.28428521 -0.00019856896 3.2820767e-19)
(0.27969326 -0.00018401637 1.1723994e-19)
(0.27236107 -0.00014368791 1.8379284e-19)
(0.26248991 -9.524987e-05 3.3403031e-19)
(0.25025143 -5.3830556e-05 2.1640023e-19)
(0.23508472 -2.4635273e-05 1.5109714e-19)
(0.21479959 -7.8824895e-06 2.2244514e-20)
(0.18034487 -3.8307965e-07 -4.8375897e-20)
(0.28963798 -2.944375e-05 -2.8696218e-20)
(0.28954832 -7.3196106e-05 -1.5190438e-18)
(0.28929102 -0.00011364594 -2.7079753e-19)
(0.2886978 -0.00015155982 7.5718262e-19)
(0.28739174 -0.00017916927 -5.9328124e-20)
(0.28465455 -0.00018751865 3.367598e-19)
(0.27962017 -0.00016810641 4.3762603e-19)
(0.2719867 -0.00012709648 7.7907965e-19)
(0.26203302 -8.2127523e-05 2.8561049e-19)
(0.24985346 -4.5128134e-05 -3.875287e-19)
(0.23480728 -1.9711267e-05 -1.9445314e-19)
(0.21465012 -5.6309929e-06 -8.1030297e-22)
(0.18029962 1.7812778e-07 6.6242802e-21)
(0.29068824 -2.9047996e-05 9.2745014e-19)
(0.29058125 -7.2143821e-05 -7.9586918e-19)
(0.29027586 -0.00011165221 1.0061835e-18)
(0.28957586 -0.00014788248 6.8876748e-19)
(0.28804865 -0.00017230926 4.1065443e-19)
(0.28493523 -0.00017565385 3.6017864e-19)
(0.2794894 -0.00015219579 3.9192513e-19)
(0.2716136 -0.00011155661 1.3647761e-19)
(0.26161163 -7.0203566e-05 1.2808408e-19)
(0.24949925 -3.7283211e-05 5.6842073e-20)
(0.23456828 -1.5277064e-05 -1.4680237e-20)
(0.21452909 -3.5978769e-06 4.9398955e-20)
(0.18027234 6.8891556e-07 3.0863935e-20)
(0.29172336 -2.863428e-05 1.5258976e-18)
(0.291596 -7.1037634e-05 9.155917e-19)
(0.29123415 -0.00010950892 6.5455441e-19)
(0.29040962 -0.00014383257 6.2707575e-20)
(0.28863287 -0.0001647043 6.4914662e-19)
(0.28513156 -0.00016308396 4.7029187e-19)
(0.27931466 -0.00013652206 9.6303286e-20)
(0.27124896 -9.7093561e-05 8.7315421e-20)
(0.26122524 -5.9353653e-05 2.5418707e-19)
(0.24918522 -3.019018e-05 6.2161824e-19)
(0.23436395 -1.1270304e-05 3.4645537e-19)
(0.2144337 -1.730553e-06 1.307753e-19)
(0.18026136 1.1761547e-06 1.8101593e-19)
(0.29274252 -2.8196034e-05 9.5063237e-19)
(0.29259116 -6.985846e-05 1.8196798e-18)
(0.29216305 -0.00010717577 3.9568758e-19)
(0.29119393 -0.00013933086 2.58059e-20)
(0.28914031 -0.00015631032 3.4750767e-19)
(0.28525057 -0.00014996783 2.354762e-19)
(0.27910837 -0.00012129298 2.0672379e-19)
(0.2708978 -8.369285e-05 3.1403663e-19)
(0.26087272 -4.9471608e-05 2.4006355e-19)
(0.24890802 -2.3766778e-05 6.3839728e-20)
(0.23419085 -7.6476614e-06 1.956496e-19)
(0.21436056 -1.6261553e-08 1.8905479e-19)
(0.18026627 1.6403948e-06 4.8757064e-20)
(0.2937446 -2.7725099e-05 -1.145555e-18)
(0.29356496 -6.858319e-05 1.0161063e-18)
(0.29305914 -0.00010460504 1.7951094e-19)
(0.29192334 -0.00013429446 3.0294722e-19)
(0.28956868 -0.00014712078 3.894453e-19)
(0.2853013 -0.00013649479 7.893774e-20)
(0.27888121 -0.00010666837 1.2649278e-19)
(0.27056351 -7.1310477e-05 2.2909046e-19)
(0.26055265 -4.0462896e-05 5.6468847e-20)
(0.24866458 -1.7940258e-05 1.6875588e-19)
(0.23404606 -4.3539092e-06 2.5069114e-19)
(0.21430781 1.5374038e-06 1.0715811e-19)
(0.18028522 2.0563865e-06 2.4679776e-20)
(0.29472815 -2.7211025e-05 1.3849232e-18)
(0.29451518 -6.7183246e-05 2.2820721e-19)
(0.29391842 -0.00010173906 -1.4966674e-19)
(0.29259237 -0.00012864185 8.8626758e-19)
(0.28991788 -0.00013716949 -1.9532832e-19)
(0.28529395 -0.00012286452 2.5115516e-19)
(0.27864192 -9.2752926e-05 8.3940237e-19)
(0.27024822 -5.9882442e-05 6.0424734e-19)
(0.26026336 -3.2238664e-05 -5.4010997e-20)
(0.24845204 -1.2642378e-05 -4.0372029e-19)
(0.23392646 -1.3358827e-06 -2.1470448e-19)
(0.21427448 2.9561751e-06 -2.1957784e-19)
(0.18031663 2.4263104e-06 -3.8896389e-20)
(0.29569132 -2.6641403e-05 2.809347e-18)
(0.2954391 -6.5625549e-05 6.0965071e-19)
(0.29473631 -9.8512687e-05 2.1077916e-18)
(0.29319592 -0.0001223057 6.9943901e-19)
(0.29019018 -0.00012653597 1.8878142e-23)
(0.2852389 -0.00010927515 5.5041217e-20)
(0.27839743 -7.9607263e-05 3.3670545e-19)
(0.26995312 -4.9342225e-05 -1.4992715e-19)
(0.26000309 -2.4722177e-05 1.3963688e-19)
(0.24826773 -7.8150913e-06 -7.3249282e-20)
(0.23382955 1.4151489e-06 -3.1846572e-19)
(0.21425921 4.2390792e-06 -1.4100128e-19)
(0.18035932 2.7544329e-06 -5.6269368e-20)
(0.29663173 -2.6001182e-05 -7.9017713e-19)
(0.29633339 -6.3871158e-05 1.5036045e-18)
(0.29550768 -9.4853898e-05 1.180775e-18)
(0.29372976 -0.0001152412 6.7283629e-20)
(0.29039012 -0.00011533898 7.2687018e-19)
(0.28514604 -9.5905384e-05 2.5826744e-19)
(0.27815305 -6.7254138e-05 -2.413788e-19)
(0.26967872 -3.9623331e-05 9.8285055e-20)
(0.25977003 -1.7841854e-05 3.6010169e-19)
(0.24810923 -3.3839658e-06 8.079603e-19)
(0.23375398 3.9312064e-06 3.1971731e-19)
(0.21425996 5.3906103e-06 6.0525304e-20)
(0.18041214 3.0443393e-06 9.8292875e-20)
(0.29754645 -2.5272391e-05 -2.2116092e-19)
(0.29719411 -6.1874453e-05 2.8981524e-18)
(0.29622706 -9.0687764e-05 -5.1765272e-19)
(0.29419101 -0.0001074348 4.4958129e-20)
(0.290524 -0.00010372737 8.8469698e-19)
(0.28502427 -8.2903369e-05 5.7689314e-19)
(0.27791277 -5.5688938e-05 2.9923918e-19)
(0.26942499 -3.0662234e-05 3.3201392e-19)
(0.25956226 -1.1539683e-05 3.8564075e-19)
(0.24797362 6.7589529e-07 3.3638944e-19)
(0.23369893 6.2277186e-06 4.9831029e-19)
(0.21427538 6.4296351e-06 2.5919201e-19)
(0.18047413 3.3030861e-06 6.416685e-20)
(0.29843186 -2.4434089e-05 6.3866566e-19)
(0.29801658 -5.9582981e-05 2.0558818e-18)
(0.29688883 -8.5943398e-05 8.1318556e-19)
(0.29457851 -9.8910849e-05 5.8868427e-19)
(0.29059935 -9.1868434e-05 7.3990312e-19)
(0.28488126 -7.0382624e-05 3.2906362e-19)
(0.27767954 -4.4890682e-05 3.0596791e-19)
(0.26919163 -2.2395844e-05 2.7630443e-19)
(0.25937815 -5.7364176e-06 2.5498153e-19)
(0.24785972 4.3904829e-06 3.3064409e-19)
(0.2336621 8.3015946e-06 4.1660693e-19)
(0.21430404 7.3666957e-06 3.6132898e-19)
(0.18054443 3.5354635e-06 1.2374757e-19)
(0.29928359 -2.3462153e-05 -1.2440182e-18)
(0.29879547 -5.6937591e-05 3.36604e-19)
(0.29748763 -8.0561622e-05 1.5054505e-18)
(0.29489309 -8.9732429e-05 1.2681282e-18)
(0.29062422 -7.9932339e-05 -1.2268632e-19)
(0.28472341 -5.8420101e-05 5.2146058e-19)
(0.27745536 -3.4827529e-05 8.7419514e-19)
(0.26897782 -1.4770405e-05 8.3248564e-19)
(0.25921519 -3.9179701e-07 2.5139503e-19)
(0.24776702 7.7920454e-06 -2.7012917e-19)
(0.23364198 1.0181101e-05 -2.6855796e-19)
(0.21434474 8.214761e-06 4.9633397e-20)
(0.18062225 3.7449963e-06 7.1564669e-20)
(0.30009637 -2.2329729e-05 -1.5109726e-19)
(0.29952479 -5.3875497e-05 1.6094379e-18)
(0.29801875 -7.4505253e-05 5.8517562e-19)
(0.29513749 -7.9999949e-05 5.1062166e-19)
(0.29060659 -6.8080576e-05 1.0763679e-19)
(0.28455591 -4.7062475e-05 4.7399703e-19)
(0.27724164 -2.5459222e-05 5.6514625e-19)
(0.2687829 -7.7156669e-06 3.2953553e-19)
(0.25907248 4.5153934e-06 3.4467157e-19)
(0.24769347 1.0881384e-05 -3.1620337e-19)
(0.23363709 1.1884862e-05 -2.7777304e-19)
(0.21439637 8.9837409e-06 -2.5566945e-20)
(0.1807069 3.9343467e-06 -1.1617109e-19)
(0.30086402 -2.1007836e-05 3.2936289e-18)
(0.30019808 -5.0335136e-05 2.9598988e-18)
(0.29847859 -6.7767497e-05 8.4648101e-19)
(0.29531608 -6.9843616e-05 -8.6175799e-19)
(0.29055391 -5.6454416e-05 7.9633856e-19)
(0.28438287 -3.6332016e-05 5.328871e-20)
(0.27703906 -1.6748255e-05 -2.5393545e-19)
(0.2686053 -1.187519e-06 -5.6582633e-20)
(0.25894976 9.0213427e-06 2.0718932e-19)
(0.24763751 1.36898e-05 4.0121414e-19)
(0.23364609 1.343109e-05 2.8661684e-19)
(0.21445793 9.6806816e-06 -2.395454e-19)
(0.18079772 4.1050197e-06 -1.3847496e-19)
(0.30157943 -1.9467189e-05 3.2669355e-18)
(0.30080863 -4.6264335e-05 1.5587456e-18)
(0.29886499 -6.0378822e-05 7.757898e-19)
(0.29543444 -5.9413945e-05 -2.2825028e-19)
(0.29047287 -4.5169357e-05 4.5816774e-19)
(0.28420752 -2.6229141e-05 4.8386073e-19)
(0.27684812 -8.6362582e-06 1.6780366e-19)
(0.26844451 4.8386558e-06 -2.7090441e-19)
(0.25884557 1.3135776e-05 -1.9694355e-20)
(0.2475977 1.6244103e-05 3.2480418e-19)
(0.23366777 1.483536e-05 1.3685053e-19)
(0.21452852 1.0311987e-05 -2.7879685e-19)
(0.18089414 4.2585316e-06 -1.5547576e-19)
(0.30223466 -1.7681566e-05 -8.6118807e-19)
(0.3013499 -4.1630422e-05 -2.0240751e-19)
(0.29917751 -5.240953e-05 7.7581342e-19)
(0.29549883 -4.8869411e-05 9.6149861e-19)
(0.29036918 -3.431364e-05 5.9765674e-19)
(0.28403214 -1.67475e-05 8.2906741e-19)
(0.27666826 -1.0890936e-06 7.3929264e-19)
(0.26830088 1.0390991e-05 -3.1146102e-19)
(0.25875851 1.6888497e-05 -3.4262583e-19)
(0.24757272 1.8568195e-05 -3.1613394e-19)
(0.23370102 1.611003e-05 6.8306867e-20)
(0.21460732 1.0882766e-05 -5.225443e-20)
(0.18099561 4.3960762e-06 -1.153368e-19)
(0.30282117 -1.5633387e-05 -1.2334158e-18)
(0.30181594 -3.6431478e-05 2.3688642e-19)
(0.29941741 -4.3968544e-05 1.1908318e-18)
(0.29551566 -3.8365452e-05 1.287916e-18)
(0.2902477 -2.3945208e-05 3.8940142e-19)
(0.28385859 -7.8477089e-06 2.0602302e-19)
(0.27649982 5.9141402e-06 2.1642668e-19)
(0.26817344 1.5479829e-05 5.1261309e-21)
(0.25868728 2.0310855e-05 -1.9606043e-19)
(0.24756135 2.0682649e-05 -3.5182661e-19)
(0.23374484 1.7265713e-05 -7.1619516e-20)
(0.21469357 1.1397593e-05 8.42864e-20)
(0.18110164 4.5187623e-06 -7.8422958e-21)
(0.30333026 -1.3320784e-05 2.6367732e-18)
(0.30220189 -3.0705575e-05 2.2261151e-18)
(0.29958744 -3.5196357e-05 3.4075842e-19)
(0.29549103 -2.8043628e-05 6.9541163e-19)
(0.29011218 -1.4099822e-05 4.1111689e-19)
(0.28368733 4.8519202e-07 -1.1066001e-19)
(0.276344 1.2388919e-05 -3.889214e-19)
(0.26806118 2.0135147e-05 -2.4747283e-20)
(0.2586307 2.343137e-05 2.845807e-19)
(0.24756246 2.2604582e-05 3.2530763e-19)
(0.23379832 1.8311485e-05 -2.6477035e-20)
(0.21478659 1.1860474e-05 3.3261227e-19)
(0.18121176 4.6275517e-06 3.5979154e-20)
(0.30375374 -1.0764896e-05 4.5669712e-18)
(0.30250438 -2.4536338e-05 2.7051298e-18)
(0.29969147 -2.6255574e-05 2.3751317e-18)
(0.29543051 -1.8024176e-05 -4.4417863e-19)
(0.28996562 -4.7857897e-06 6.4894418e-19)
(0.28352015 8.2431434e-06 2.2534158e-19)
(0.27620025 1.8335907e-05 -7.4176365e-20)
(0.26796311 2.438949e-05 2.0050672e-21)
(0.25858763 2.6274679e-05 2.1471552e-19)
(0.24757502 2.4348932e-05 2.6261357e-19)
(0.2338606 1.925555e-05 9.42537e-20)
(0.21488574 1.2275096e-05 -8.7674057e-20)
(0.18132555 4.7233462e-06 -4.0853686e-20)
(0.30408466 -8.014565e-06 3.890033e-19)
(0.30272185 -1.8051772e-05 1.5395159e-18)
(0.29973407 -1.7315862e-05 2.3602947e-18)
(0.29533886 -8.3895597e-06 2.7661362e-19)
(0.28980995 3.9789867e-06 3.0300199e-19)
(0.28335875 1.5424525e-05 2.8174551e-19)
(0.27606809 2.3784759e-05 1.7817197e-19)
(0.26787825 2.8272306e-05 2.543063e-19)
(0.25855702 2.8860189e-05 6.7531531e-20)
(0.24759809 2.5927636e-05 1.4885046e-19)
(0.23393092 2.010443e-05 -1.6797219e-20)
(0.21499043 1.2644245e-05 -1.0289557e-19)
(0.1814426 4.8067297e-06 -2.1014893e-20)
(0.30431819 -5.1449337e-06 -6.8745514e-19)
(0.3028546 -1.1412619e-05 -8.1543367e-19)
(0.29971994 -8.533138e-06 2.6571196e-19)
(0.29521955 7.821081e-07 8.6023701e-19)
(0.28964857 1.2143106e-05 1.9158406e-21)
(0.28320331 2.2022643e-05 1.3871045e-19)
(0.27594691 2.8765143e-05 8.8562058e-19)
(0.26780566 3.1808715e-05 1.8078447e-19)
(0.25853789 3.1205192e-05 1.245613e-19)
(0.24763076 2.7351731e-05 -1.2248432e-19)
(0.23400854 2.0864216e-05 -2.1551835e-20)
(0.2151001 1.2970565e-05 4.1929821e-20)
(0.18156252 4.8782924e-06 3.1539444e-20)
(0.30445221 -2.2472238e-06 1.3984222e-18)
(0.30290466 -4.7892188e-06 3.9777233e-19)
(0.2996534 -5.7422631e-08 -3.3362796e-19)
(0.29507686 9.3868933e-06 3.3544055e-19)
(0.28948321 1.967057e-05 2.1140182e-19)
(0.28305386 2.8057816e-05 7.5865333e-20)
(0.27583605 3.330269e-05 2.6886995e-19)
(0.26774441 3.5018203e-05 -1.2967494e-19)
(0.25852929 3.3323443e-05 -1.4082014e-19)
(0.24767222 2.8629918e-05 4.1247828e-20)
(0.23409279 2.15395e-05 1.6937571e-19)
(0.21521426 1.32559e-05 7.76804e-20)
(0.18168496 4.9383599e-06 5.2364847e-20)
(0.30448759 5.8143726e-07 -4.844072e-19)
(0.30287533 1.6332084e-06 4.0385051e-18)
(0.29953939 7.9403991e-06 -4.7775523e-19)
(0.29491435 1.7334256e-05 6.9606654e-19)
(0.28931491 2.6550396e-05 6.0704967e-19)
(0.28291026 3.3548725e-05 3.5381159e-20)
(0.2757348 3.7416526e-05 -6.89552e-19)
(0.26769361 3.7916274e-05 -6.3491415e-20)
(0.25853035 3.5226111e-05 -1.3824733e-20)
(0.24772169 2.9769074e-05 4.1409647e-19)
(0.23418305 2.2133732e-05 2.6404411e-19)
(0.2153324 1.3501528e-05 2.7672906e-19)
(0.18180955 4.9870857e-06 4.736066e-20)
(0.30442824 3.2381423e-06 2.3814179e-18)
(0.30277199 7.6569922e-06 4.7924496e-18)
(0.29938292 1.5304012e-05 2.0856183e-18)
(0.29473444 2.4565377e-05 -4.3579886e-19)
(0.28914434 3.27817e-05 -3.9109152e-20)
(0.28277222 3.8508125e-05 5.1490791e-20)
(0.27564244 4.1120447e-05 -3.4615451e-20)
(0.26765239 4.0514583e-05 3.442631e-19)
(0.25854021 3.6921354e-05 4.2414585e-19)
(0.24777843 3.0773892e-05 1.9023452e-19)
(0.23427872 2.2648994e-05 2.519107e-20)
(0.21545406 1.3708013e-05 -1.1105775e-19)
(0.18193595 5.0243928e-06 -8.9987424e-21)
(0.30428147 5.6355912e-06 3.5773538e-18)
(0.30260141 1.3122385e-05 2.9387005e-18)
(0.29918843 2.1930424e-05 1.8303372e-18)
(0.29453912 3.1047522e-05 1.8110705e-19)
(0.28897192 3.8362686e-05 2.7194031e-19)
(0.28263933 4.2943545e-05 3.9832734e-19)
(0.2755582 4.4423835e-05 2.0991721e-19)
(0.26761989 4.2820979e-05 2.8637654e-19)
(0.25855808 3.8414245e-05 1.9185417e-20)
(0.24784174 3.1646842e-05 4.2608848e-20)
(0.23437921 2.3085953e-05 4.9568614e-21)
(0.21557877 1.3875167e-05 -6.7319934e-20)
(0.18206381 5.049952e-06 1.1291773e-20)
(0.30405678 7.7205434e-06 1.4181859e-18)
(0.30237113 1.7926712e-05 7.4977857e-19)
(0.29896016 2.7756818e-05 1.8099527e-18)
(0.29433004 3.6759521e-05 6.147752e-19)
(0.28879784 4.3291004e-05 2.5327436e-19)
(0.2825111 4.6859615e-05 3.8285486e-19)
(0.2754813 4.7332607e-05 4.6227318e-19)
(0.26759529 4.4839947e-05 3.3196303e-19)
(0.25858316 3.9707101e-05 -4.1375267e-20)
(0.24791094 3.23884e-05 3.3257249e-20)
(0.23448396 2.3444e-05 2.1140595e-19)
(0.21570609 1.4002112e-05 1.3054292e-19)
(0.18219278 5.0632104e-06 5.7707685e-20)
(0.30376497 9.4676929e-06 1.9009263e-18)
(0.30208913 2.2015484e-05 1.2833705e-18)
(0.29870222 3.2751934e-05 2.2779136e-18)
(0.29410866 4.1691464e-05 1.1854154e-18)
(0.2886222 4.7566331e-05 6.2643495e-19)
(0.28238699 5.0259501e-05 4.3522413e-19)