/*--------------------------------*- C++ -*----------------------------------*\
| =========                 |                                                 |
| \\      /  F ield         | OpenFOAM: The Open Source CFD Toolbox           |
|  \\    /   O peration     | Version:  2506                                  |
|   \\  /    A nd           | Website:  www.openfoam.com                      |
|    \\/     M anipulation  |                                                 |
\*---------------------------------------------------------------------------*/
FoamFile
{
    version     2.0;
    format      ascii;
    arch        "LSB;label=32;scalar=64";
    class       volScalarField;
    location    "24000/water";
    object      nut;
}
// * * * * * * * * * * * * * * * * * * * * * * * * * * * * * * * * * * * * * //

dimensions      [0 2 -1 0 0 0 0];

internalField   nonuniform List<scalar> 
6000
(
4.1367308e-05
4.1367285e-05
4.1367292e-05
4.1367317e-05
4.136735e-05
4.1367394e-05
4.1367445e-05
4.1367477e-05
4.1367269e-05
4.1365028e-05
4.1345959e-05
4.1185428e-05
3.984402e-05
3.0619188e-05
1.3489073e-05
4.0862094e-05
4.0862089e-05
4.0862128e-05
4.0862206e-05
4.086231e-05
4.0862441e-05
4.0862573e-05
4.0862525e-05
4.0861044e-05
4.0849566e-05
4.0769767e-05
4.0233638e-05
3.6930279e-05
2.3809326e-05
1.5168915e-05
4.0408426e-05
4.0408431e-05
4.0408496e-05
4.0408619e-05
4.040878e-05
4.0408965e-05
4.0409066e-05
4.0408421e-05
4.0403049e-05
4.0369314e-05
4.0169922e-05
3.9053519e-05
3.3674827e-05
1.9530254e-05
1.6389796e-05
3.9998212e-05
3.9998216e-05
3.9998298e-05
3.9998456e-05
3.9998657e-05
3.9998846e-05
3.9998699e-05
3.999645e-05
3.9982628e-05
3.9907469e-05
3.9519874e-05
3.7665236e-05
3.0439418e-05
1.6813321e-05
1.7227565e-05
3.9625122e-05
3.9625133e-05
3.9625231e-05
3.9625419e-05
3.9625638e-05
3.9625739e-05
3.9624947e-05
3.9619415e-05
3.959045e-05
3.9450123e-05
3.8807695e-05
3.6131535e-05
2.7477322e-05
1.5090355e-05
1.7763765e-05
3.9283984e-05
3.9284007e-05
3.9284119e-05
3.9284324e-05
3.9284521e-05
3.9284369e-05
3.9282279e-05
3.9270986e-05
3.9218236e-05
3.8986823e-05
3.8033859e-05
3.4524992e-05
2.4897642e-05
1.400968e-05
1.8072537e-05
3.8970512e-05
3.8970546e-05
3.8970668e-05
3.8970871e-05
3.8970973e-05
3.8970306e-05
3.8965958e-05
3.8945612e-05
3.8858945e-05
3.8510812e-05
3.7207229e-05
3.2908964e-05
2.2716803e-05
1.3360893e-05
1.8215906e-05
3.8681158e-05
3.8681199e-05
3.8681323e-05
3.8681493e-05
3.8681392e-05
3.8679823e-05
3.8671916e-05
3.8638477e-05
3.8506919e-05
3.801881e-05
3.6341286e-05
3.1331233e-05
2.0908463e-05
1.30184e-05
1.8243034e-05
3.841296e-05
3.8413006e-05
3.8413119e-05
3.8413209e-05
3.8412743e-05
3.8409742e-05
3.8396631e-05
3.8345462e-05
3.8157885e-05
3.7510375e-05
3.5450851e-05
2.9823717e-05
1.9431977e-05
1.2906145e-05
1.8191421e-05
3.816343e-05
3.8163474e-05
3.8163556e-05
3.8163497e-05
3.8162446e-05
3.8157327e-05
3.8137042e-05
3.8063106e-05
3.7808869e-05
3.6987081e-05
3.454982e-05
2.8405299e-05
1.8246291e-05
1.2977275e-05
1.8088864e-05
3.7930457e-05
3.7930491e-05
3.7930513e-05
3.793021e-05
3.7928279e-05
3.7920197e-05
3.7890497e-05
3.7788579e-05
3.7458031e-05
3.6451747e-05
3.3649968e-05
2.7085594e-05
1.7315649e-05
1.3202297e-05
1.7955551e-05
3.7712242e-05
3.7712253e-05
3.7712173e-05
3.7711499e-05
3.7708322e-05
3.7696279e-05
3.7654711e-05
3.7519641e-05
3.7104472e-05
3.5907781e-05
3.2760531e-05
2.58684e-05
1.6611172e-05
1.3561911e-05
1.7805936e-05
3.7507239e-05
3.7507212e-05
3.7506973e-05
3.7505765e-05
3.7500895e-05
3.7483757e-05
3.7427744e-05
3.725459e-05
3.6748014e-05
3.5358688e-05
3.188827e-05
2.4754408e-05
1.6110613e-05
1.4042468e-05
1.7650267e-05
3.7314115e-05
3.7314026e-05
3.7313557e-05
3.7311613e-05
3.7304527e-05
3.7281048e-05
3.7207963e-05
3.6992195e-05
3.6389e-05
3.4807726e-05
3.1037799e-05
2.3743174e-05
1.5797412e-05
1.4632945e-05
1.7495753e-05
3.7131708e-05
3.713153e-05
3.7130739e-05
3.7127817e-05
3.7117921e-05
3.7086772e-05
3.6994026e-05
3.6731629e-05
3.6028109e-05
3.4257704e-05
3.0212055e-05
2.2834479e-05
1.5659519e-05
1.5322866e-05
1.7347422e-05
3.6959006e-05
3.6958703e-05
3.6957478e-05
3.6953298e-05
3.6939934e-05
3.6899735e-05
3.6784847e-05
3.64724e-05
3.5666203e-05
3.3710866e-05
2.9412801e-05
2.2029191e-05
1.5688155e-05
1.6100896e-05
1.7208725e-05
3.6795116e-05
3.6794645e-05
3.6792855e-05
3.6787094e-05
3.6769555e-05
3.6718912e-05
3.6579574e-05
3.6214282e-05
3.5304204e-05
3.3168861e-05
2.8641157e-05
2.132974e-05
1.587657e-05
1.695401e-05
1.7081944e-05
3.6639251e-05
3.6638559e-05
3.6636051e-05
3.6628355e-05
3.6605895e-05
3.6543431e-05
3.637756e-05
3.5957252e-05
3.4942996e-05
3.2632763e-05
2.789813e-05
2.0740252e-05
1.6218811e-05
1.7867211e-05
1.6968459e-05
3.6490711e-05
3.6489738e-05
3.6486338e-05
3.6476321e-05
3.6448171e-05
3.6372563e-05
3.6178336e-05
3.5701433e-05
3.458336e-05
3.2103134e-05
2.7185145e-05
2.0266398e-05
1.6708562e-05
1.8823777e-05
1.6868922e-05
3.6348869e-05
3.6347546e-05
3.6343063e-05
3.6330312e-05
3.62957e-05
3.6205706e-05
3.5981587e-05
3.5447046e-05
3.4225914e-05
3.1580129e-05
2.6504571e-05
1.991497e-05
1.7338099e-05
1.9805967e-05
1.6783375e-05
3.6213165e-05
3.6211415e-05
3.6205638e-05
3.6189726e-05
3.6147887e-05
3.6042373e-05
3.5787125e-05
3.5194368e-05
3.3871092e-05
3.1063631e-05
2.5860194e-05
1.9693245e-05
1.8097487e-05
2.0796033e-05
1.6711346e-05
3.6083093e-05
3.6080831e-05
3.6073537e-05
3.6054024e-05
3.6004223e-05
3.5882185e-05
3.5594869e-05
3.4943693e-05
3.3519118e-05
3.0553441e-05
2.5257605e-05
1.96082e-05
1.8974102e-05
2.1777346e-05
1.6651939e-05
3.5958194e-05
3.5955329e-05
3.5946284e-05
3.592273e-05
3.5864274e-05
3.5724854e-05
3.5404824e-05
3.4695304e-05
3.3170007e-05
3.0049498e-05
2.4704419e-05
1.9665646e-05
1.9952579e-05
2.2735414e-05
1.660395e-05
3.5838054e-05
3.5834489e-05
3.582345e-05
3.5795422e-05
3.5727676e-05
3.5570179e-05
3.521706e-05
3.444945e-05
3.2823581e-05
2.9552162e-05
2.4210265e-05
1.9869402e-05
2.1015194e-05
2.3658589e-05
1.6565971e-05
3.5722292e-05
3.5717927e-05
3.5704651e-05
3.5671733e-05
3.5594133e-05
3.5418031e-05
3.50317e-05
3.4206321e-05
3.2479493e-05
2.9062524e-05
2.3786503e-05
2.022057e-05
2.2142641e-05
2.4538397e-05
1.6536511e-05
3.5610563e-05
3.5605296e-05
3.558954e-05
3.5551342e-05
3.5463408e-05
3.5268352e-05
3.48489e-05
3.3966035e-05
3.2137286e-05
2.858275e-05
2.3445668e-05
2.0717024e-05
2.3315071e-05
2.5369467e-05
1.6514097e-05
3.5502551e-05
3.549628e-05
3.5477808e-05
3.5433974e-05
3.5335321e-05
3.5121137e-05
3.466884e-05
3.3728621e-05
3.1796463e-05
2.8116417e-05
2.3200676e-05
2.1353141e-05
2.4513224e-05
2.6149157e-05
1.6497357e-05
3.5397967e-05
3.539059e-05
3.536918e-05
3.5319398e-05
3.5209747e-05
3.4976437e-05
3.4491706e-05
3.3494016e-05
3.14566e-05
2.7668794e-05
2.3063903e-05
2.2119832e-05
2.5719465e-05
2.6877012e-05
1.6485071e-05
3.5296546e-05
3.5287966e-05
3.5263414e-05
3.5207424e-05
3.5086609e-05
3.4834344e-05
3.4317681e-05
3.3262058e-05
3.1117487e-05
2.7247026e-05
2.3046253e-05
2.3004861e-05
2.6918581e-05
2.7554165e-05
1.6476201e-05
3.5198047e-05
3.5188175e-05
3.5160297e-05
3.5097901e-05
3.4965875e-05
3.4694991e-05
3.4146934e-05
3.3032492e-05
3.0779305e-05
2.6860148e-05
2.3156315e-05
2.3993438e-05
2.8098247e-05
2.8182808e-05
1.6469894e-05
3.5102251e-05
3.5091004e-05
3.5059649e-05
3.4990715e-05
3.4847558e-05
3.4558539e-05
3.3979609e-05
3.2804987e-05
3.0442844e-05
2.6518901e-05
2.3399716e-05
2.5069008e-05
2.9249139e-05
2.8765761e-05
1.6465472e-05
3.5008959e-05
3.4996268e-05
3.4961317e-05
3.488579e-05
3.4731711e-05
3.4425177e-05
3.3815813e-05
3.2579164e-05
3.0109732e-05
2.6235323e-05
2.3778717e-05
2.6214168e-05
3.0364755e-05
2.9306158e-05
1.646241e-05
3.4917993e-05
3.4903801e-05
3.4865175e-05
3.4783085e-05
3.4618425e-05
3.4295113e-05
3.3655609e-05
3.235464e-05
2.9782687e-05
2.6022142e-05
2.429206e-05
2.7411591e-05
3.1441033e-05
2.9807247e-05
1.6460314e-05
3.4829195e-05
3.4813462e-05
3.4771128e-05
3.4682592e-05
3.4507829e-05
3.416857e-05
3.3499011e-05
3.2131095e-05
2.9465731e-05
2.589204e-05
2.4935073e-05
2.8644859e-05
3.2475855e-05
3.0272255e-05
1.6458891e-05
3.4742423e-05
3.4725129e-05
3.4679107e-05
3.4584339e-05
3.4400083e-05
3.4045774e-05
3.3345975e-05
3.1908364e-05
2.9164362e-05
2.5856856e-05
2.5699991e-05
2.9899124e-05
3.3468558e-05
3.0704314e-05
1.6457936e-05
3.465756e-05
3.4638706e-05
3.4589068e-05
3.4488387e-05
3.4295378e-05
3.3926957e-05
3.3196403e-05
3.1686556e-05
2.8885627e-05
2.5926838e-05
2.6576456e-05
3.1161549e-05
3.4419484e-05
3.1106401e-05
1.6457305e-05
3.4574503e-05
3.4554114e-05
3.4500999e-05
3.4394828e-05
3.4193938e-05
3.381234e-05
3.3050148e-05
3.1466195e-05
2.8638063e-05
2.6110008e-05
2.7552148e-05
3.2421503e-05
3.5329635e-05
3.1481314e-05
1.6456902e-05
3.4493171e-05
3.4471301e-05
3.4414911e-05
3.4303789e-05
3.409601e-05
3.3702133e-05
3.2907027e-05
3.1248389e-05
2.8431492e-05
2.6411716e-05
2.8613483e-05
3.3670555e-05
3.6200409e-05
3.1831643e-05
1.6456669e-05
3.4413502e-05
3.4390234e-05
3.4330848e-05
3.4215429e-05
3.4001867e-05
3.3596524e-05
3.2766849e-05
3.1035013e-05
2.8276656e-05
2.6834392e-05
2.9746331e-05
3.4902297e-05
3.703343e-05
3.2159762e-05
1.6456572e-05
3.4335456e-05
3.4310905e-05
3.4248878e-05
3.4129939e-05
3.3911801e-05
3.3495676e-05
3.2629453e-05
3.0828885e-05
2.818473e-05
2.73775e-05
3.0936679e-05
3.6112069e-05
3.7830438e-05
3.2467823e-05
1.6456596e-05
3.4259011e-05
3.423333e-05
3.4169102e-05
3.4047543e-05
3.3826124e-05
3.3399718e-05
3.2494766e-05
3.0633922e-05
2.8166732e-05
2.8037692e-05
3.2171192e-05
3.7296636e-05
3.8593222e-05
3.2757763e-05
1.6456739e-05
3.4184168e-05
3.4157548e-05
3.409165e-05
3.3968498e-05
3.3745158e-05
3.3308744e-05
3.236288e-05
3.0455254e-05
2.8232926e-05
2.8809106e-05
3.3437648e-05
3.8453879e-05
3.9323576e-05
3.3031311e-05
1.6457005e-05
3.4110952e-05
3.4083626e-05
3.4016682e-05
3.3893092e-05
3.3669236e-05
3.3222813e-05
3.2234152e-05
3.0299252e-05
2.8392246e-05
2.9683789e-05
3.4725212e-05
3.9582514e-05
4.0023269e-05
3.3290008e-05
1.6457402e-05
3.4039411e-05
3.4011658e-05
3.3944392e-05
3.3821645e-05
3.3598692e-05
3.3141955e-05
3.210932e-05
3.0173466e-05
2.865182e-05
3.0652195e-05
3.6024571e-05
4.0681868e-05
4.0694026e-05
3.353522e-05
1.6457942e-05
3.3969616e-05
3.3941763e-05
3.3875008e-05
3.3754507e-05
3.3533858e-05
3.306618e-05
3.1989642e-05
3.0086446e-05
2.9016626e-05
3.1703718e-05
3.7327934e-05
4.1751711e-05
4.1337507e-05
3.3768155e-05
1.6458635e-05
3.3901667e-05
3.3874095e-05
3.3808792e-05
3.369206e-05
3.3475059e-05
3.2995506e-05
3.187704e-05
3.0047454e-05
2.9489291e-05
3.2827218e-05
3.8628937e-05
4.2792133e-05
4.1955299e-05
3.3989887e-05
1.6459492e-05
3.3835691e-05
3.3808835e-05
3.3746042e-05
3.3634709e-05
3.3422602e-05
3.2929991e-05
3.1774238e-05
3.006608e-05
3.0070059e-05
3.4011504e-05
3.9922489e-05
4.3803458e-05
4.2548902e-05
3.4201364e-05
1.6460521e-05
3.3771846e-05
3.3746203e-05
3.3687095e-05
3.358289e-05
3.3376777e-05
3.286978e-05
3.1684886e-05
3.0151792e-05
3.0756885e-05
3.5245743e-05
4.1204583e-05
4.4786179e-05
4.3119729e-05
3.4403428e-05
1.6461728e-05
3.3710322e-05
3.3686449e-05
3.3632325e-05
3.3537056e-05
3.3337852e-05
3.281518e-05
3.1613638e-05
3.0313468e-05
3.1545659e-05
3.6519779e-05
4.2472112e-05
4.574092e-05
4.3669102e-05
3.4596827e-05
1.6463121e-05
3.3651343e-05
3.3629867e-05
3.3582146e-05
3.3497682e-05
3.3306071e-05
3.2766736e-05
3.1566176e-05
3.0558944e-05
3.2430518e-05
3.7824349e-05
4.3722695e-05
4.6668398e-05
4.4198256e-05
3.4782226e-05
1.6464701e-05
3.359517e-05
3.3576787e-05
3.3537014e-05
3.3465257e-05
3.328166e-05
3.2725338e-05
3.1549147e-05
3.0894637e-05
3.3404214e-05
3.9151206e-05
4.4954529e-05
4.7569394e-05
4.4708339e-05
3.4960217e-05
1.6466471e-05
3.3542106e-05
3.3527584e-05
3.3497423e-05
3.3440275e-05
3.3264838e-05
3.2692337e-05
3.1570023e-05
3.1325251e-05
3.4458516e-05
4.0493151e-05
4.6166274e-05
4.8444733e-05
4.520042e-05
3.5131333e-05
1.6468431e-05
3.3492497e-05
3.3482682e-05
3.346391e-05
3.3423238e-05
3.3255838e-05
3.2669661e-05
3.1636869e-05
3.1853601e-05
3.5584606e-05
4.1844008e-05
4.7356958e-05
4.9295261e-05
4.5675492e-05
3.5296047e-05
1.647058e-05
3.3446735e-05
3.3442548e-05
3.3437051e-05
3.3414644e-05
3.3254937e-05
3.2659938e-05
3.1758036e-05
3.2480555e-05
3.6773447e-05
4.3198544e-05
4.8525908e-05
5.0121833e-05
4.6134479e-05
3.5454787e-05
1.6472917e-05
3.3405264e-05
3.3407707e-05
3.3417461e-05
3.3414983e-05
3.32625e-05
3.2666592e-05
3.1941802e-05
3.3205087e-05
3.8016103e-05
4.4552374e-05
4.9672692e-05
5.0925298e-05
4.6578238e-05
3.5607938e-05
1.6475438e-05
3.3368581e-05
3.3378733e-05
3.3405791e-05
3.3424736e-05
3.3279045e-05
3.269391e-05
3.2195994e-05
3.4024421e-05
3.9303998e-05
4.5901844e-05
5.0797073e-05
5.1706492e-05
4.7007565e-05
3.575585e-05
1.6478139e-05
3.3337244e-05
3.3356261e-05
3.3402726e-05
3.3444374e-05
3.3305313e-05
3.2747054e-05
3.2527619e-05
3.4934263e-05
4.0629099e-05
4.724393e-05
5.1898978e-05
5.2466234e-05
4.7423201e-05
3.5898837e-05
1.6481016e-05
3.3311875e-05
3.3340983e-05
3.3408981e-05
3.347436e-05
3.3342361e-05
3.2832014e-05
3.2942543e-05
3.592907e-05
4.1984042e-05
4.8576137e-05
5.2978461e-05
5.3205316e-05
4.7825835e-05
3.6037186e-05
1.6484065e-05
3.3293163e-05
3.3333652e-05
3.3425294e-05
3.3515163e-05
3.3391668e-05
3.2955485e-05
3.3445234e-05
3.7002363e-05
4.3362192e-05
4.9896417e-05
5.4035683e-05
5.3924506e-05
4.8216107e-05
3.6171161e-05
1.6487281e-05
3.3281869e-05
3.3335085e-05
3.3452425e-05
3.3567273e-05
3.3455236e-05
3.3124675e-05
3.4038604e-05
3.8147028e-05
4.4757649e-05
5.12031e-05
5.5070884e-05
5.4624543e-05
4.8594615e-05
3.6301e-05
1.6490657e-05
3.3278836e-05
3.3346162e-05
3.3491148e-05
3.3631233e-05
3.3535696e-05
3.3347046e-05
3.4723924e-05
3.9355618e-05
4.6165228e-05
5.2494832e-05
5.6084369e-05
5.5306137e-05
4.8961914e-05
3.6426925e-05
1.6494188e-05
3.3284986e-05
3.3367825e-05
3.3542247e-05
3.3707683e-05
3.3636391e-05
3.3630018e-05
3.5500853e-05
4.0620608e-05
4.7580406e-05
5.3770531e-05
5.7076492e-05
5.5969972e-05
4.9318529e-05
3.6549143e-05
1.649787e-05
3.3301329e-05
3.3401078e-05
3.3606513e-05
3.3797414e-05
3.3761431e-05
3.3980643e-05
3.6367528e-05
4.1934619e-05
4.8999266e-05
5.5029344e-05
5.8047635e-05
5.6616678e-05
4.966484e-05
3.6667084e-05
1.6501693e-05
3.3328964e-05
3.3446985e-05
3.3684745e-05
3.3901444e-05
3.3915701e-05
3.4405293e-05
3.7320735e-05
4.329058e-05
5.0418425e-05
5.627061e-05
5.8998205e-05
5.7246851e-05
5.0001244e-05
3.6781085e-05
1.6505652e-05
3.3369088e-05
3.3506668e-05
3.3777754e-05
3.4021099e-05
3.410481e-05
3.4909376e-05
3.8356118e-05
4.4681852e-05
5.183497e-05
5.7493828e-05
5.9928617e-05
5.7861062e-05
5.0328147e-05
3.689145e-05
1.6509737e-05
3.3422991e-05
3.3581299e-05
3.3886372e-05
3.4158113e-05
3.4334986e-05
3.5497115e-05
3.9468419e-05
4.6102299e-05
5.3246402e-05
5.8698636e-05
6.0839302e-05
5.8459863e-05
5.064596e-05
3.6998448e-05
1.6513939e-05
3.3492061e-05
3.3672101e-05
3.4011479e-05
3.4314722e-05
3.4612896e-05
3.6171384e-05
4.0651733e-05
4.7546322e-05
5.4650584e-05
5.9884785e-05
6.173069e-05
5.9043733e-05
5.0954642e-05
3.7102365e-05
1.6518251e-05
3.3577784e-05
3.3780338e-05
3.4154027e-05
3.4493755e-05
3.494542e-05
3.6933636e-05
4.1899744e-05
4.9008867e-05
5.6045689e-05
6.1052122e-05
6.2603202e-05
5.9613115e-05
5.1254409e-05
3.7203362e-05
1.6522664e-05
3.3681742e-05
3.3907316e-05
3.4315092e-05
3.469871e-05
3.533938e-05
3.7783898e-05
4.3205952e-05
5.0485402e-05
5.7430168e-05
6.2200567e-05
6.3457259e-05
6.0168467e-05
5.1545764e-05
3.7301527e-05
1.6527174e-05
3.3805609e-05
3.4054378e-05
3.4495929e-05
3.493379e-05
3.5801258e-05
3.8720839e-05
4.4563856e-05
5.1971888e-05
5.8802704e-05
6.3330109e-05
6.429328e-05
6.0710252e-05
5.1829143e-05
3.7396968e-05
1.6531776e-05
3.3951147e-05
3.4222911e-05
3.469805e-05
3.5203903e-05
3.6336915e-05
3.9741899e-05
4.5967113e-05
5.3464744e-05
6.0162192e-05
6.4440788e-05
6.5111673e-05
6.1238802e-05
5.2104951e-05
3.7489812e-05
1.6536466e-05
3.4120204e-05
3.4414352e-05
3.4923305e-05
3.5514602e-05
3.6951333e-05
4.0843462e-05
4.7409647e-05
5.4960801e-05
6.1507704e-05
6.5532685e-05
6.5912786e-05
6.1754105e-05
5.2373577e-05
3.7580207e-05
1.6541241e-05
3.4314705e-05
3.4630208e-05
3.517398e-05
3.5871965e-05
3.7648418e-05
4.2021052e-05
4.8885734e-05
5.6457263e-05
6.2838466e-05
6.6605908e-05
6.6696984e-05
6.2256729e-05
5.2635226e-05
3.7668256e-05
1.65461e-05
3.4536649e-05
3.4872086e-05
3.5452884e-05
3.6282427e-05
3.8430852e-05
4.3269543e-05
5.0390042e-05
5.7951669e-05
6.4153834e-05
6.7660593e-05
6.746465e-05
6.2747189e-05
5.2890119e-05
3.7754045e-05
1.6551039e-05
3.4788109e-05
3.5141732e-05
3.5763429e-05
3.675255e-05
3.930002e-05
4.4583371e-05
5.1917658e-05
5.9441855e-05
6.5453278e-05
6.8696905e-05
6.8216184e-05
6.3225943e-05
5.3138485e-05
3.7837654e-05
1.6556054e-05
3.5071241e-05
3.5441097e-05
3.6109685e-05
3.7288771e-05
4.0256e-05
4.5956718e-05
5.3464088e-05
6.0925924e-05
6.6736371e-05
6.9714989e-05
6.8951483e-05
6.3693456e-05
5.3380575e-05
3.7919178e-05
1.6561141e-05
3.538829e-05
3.5772402e-05
3.6496394e-05
3.7897131e-05
4.1297628e-05
4.7383687e-05
5.5025245e-05
6.2402216e-05
6.8002756e-05
7.0714996e-05
6.9671027e-05
6.4150035e-05
5.3616597e-05
3.7998704e-05
1.6566298e-05
3.5741623e-05
3.6138227e-05
3.692894e-05
3.8583019e-05
4.24226e-05
4.8858437e-05
5.6597427e-05
6.3869271e-05
6.9252144e-05
7.1697117e-05
7.0375289e-05
6.4595982e-05
5.3846739e-05
3.8076308e-05
1.6571522e-05
3.6133765e-05
3.65416e-05
3.7413253e-05
3.9350937e-05
4.3627624e-05
5.037529e-05
5.8177292e-05
6.5325813e-05
7.0484306e-05
7.2661577e-05
7.1064704e-05
6.5031592e-05
5.4071178e-05
3.8152054e-05
1.6576808e-05
3.6567453e-05
3.6986083e-05
3.7955664e-05
4.0204324e-05
4.4908598e-05
5.1928815e-05
5.9761833e-05
6.6770737e-05
7.1699059e-05
7.3608223e-05
7.1739656e-05
6.5457164e-05
5.4290105e-05
3.8226003e-05
1.6582153e-05
3.7045709e-05
3.7475845e-05
3.8562704e-05
4.1145431e-05
4.626079e-05
5.3513875e-05
6.1348348e-05
6.8203061e-05
7.2896229e-05
7.4537356e-05
7.2400493e-05
6.5872961e-05
5.4503697e-05
3.8298218e-05
1.6587554e-05
3.7571917e-05
3.8015701e-05
3.9240856e-05
4.2175261e-05
4.7679025e-05
5.5125658e-05
6.2934402e-05
6.9621917e-05
7.4075703e-05
7.5449303e-05
7.3047533e-05
6.6279231e-05
5.4712113e-05
3.8368751e-05
1.6593007e-05
3.8149912e-05
3.8611111e-05
3.9996298e-05
4.329358e-05
4.9157855e-05
5.6759691e-05
6.4517814e-05
7.1026552e-05
7.5237339e-05
7.6344345e-05
7.3681076e-05
6.6676218e-05
5.49155e-05
3.8437654e-05
1.659851e-05
3.8784049e-05
3.9268116e-05
4.0834631e-05
4.4498976e-05
5.0691708e-05
5.841184e-05
6.6096632e-05
7.2416297e-05
7.6380926e-05
7.7222728e-05
7.4301397e-05
6.7064161e-05
5.5113999e-05
3.8504972e-05
1.6604058e-05
3.9479255e-05
3.9993216e-05
4.1760641e-05
4.5788973e-05
5.2275013e-05
6.0078295e-05
6.7669085e-05
7.3790527e-05
7.7506488e-05
7.8084758e-05
7.4908758e-05
6.7443287e-05
5.5307744e-05
3.8570746e-05
1.6609648e-05
4.0241036e-05
4.0793184e-05
4.2778091e-05
4.7160172e-05
5.3902303e-05
6.1755553e-05
6.923357e-05
7.514871e-05
7.8614112e-05
7.8930692e-05
7.5503414e-05
6.7813801e-05
5.5496857e-05
3.8635016e-05
1.6615277e-05
4.107542e-05
4.1674813e-05
4.3889577e-05
4.8608421e-05
5.5568287e-05
6.344042e-05
7.0788681e-05
7.6490244e-05
7.9703727e-05
7.9760731e-05
7.6085616e-05
6.81759e-05
5.5681455e-05
3.8697817e-05
1.6620943e-05
4.1988837e-05
4.2644637e-05
4.5096436e-05
5.0128981e-05
5.7267902e-05
6.5129955e-05
7.2333073e-05
7.7814665e-05
8.0775527e-05
8.0575081e-05
7.6655599e-05
6.8529771e-05
5.5861645e-05
3.8759181e-05
1.662664e-05
4.2987909e-05
4.3708625e-05
4.6398727e-05
5.1716696e-05
5.8996338e-05
6.6821442e-05
7.3865523e-05
7.9121661e-05
8.1829644e-05
8.1373942e-05
7.7213582e-05
6.8875589e-05
5.6037526e-05
3.8819138e-05
1.6632367e-05
4.4079175e-05
4.4871873e-05
4.7795266e-05
5.3366148e-05
6.0749075e-05
6.8512446e-05
7.5384892e-05
8.041076e-05
8.2866128e-05
8.2157511e-05
7.775977e-05
6.9213515e-05
5.620919e-05
3.8877714e-05
1.663812e-05
4.5268751e-05
4.613834e-05
4.9283713e-05
5.5071783e-05
6.2521858e-05
7.0200644e-05
7.6890078e-05
8.1681868e-05
8.3885038e-05
8.2925972e-05
7.8294357e-05
6.95437e-05
5.6376723e-05
3.8934933e-05
1.6643896e-05
4.6561966e-05
4.7510616e-05
5.0860691e-05
5.6828021e-05
6.4310691e-05
7.1883888e-05
7.8380139e-05
8.2934858e-05
8.4886442e-05
8.3679491e-05
7.8817523e-05
6.9866283e-05
5.6540203e-05
3.8990817e-05
1.6649692e-05
4.7962985e-05
4.898977e-05
5.2521934e-05
5.8629357e-05
6.6111885e-05
7.3560207e-05
7.9854052e-05
8.4169507e-05
8.5870405e-05
8.4418225e-05
7.9329433e-05
7.0181392e-05
5.6699699e-05
3.9045384e-05
1.6655505e-05
4.9474474e-05
5.0575253e-05
5.4262435e-05
6.0470381e-05
6.7921888e-05
7.5227639e-05
8.1311327e-05
8.5385633e-05
8.6836977e-05
8.5142314e-05
7.9830238e-05
7.0489145e-05
5.6855277e-05
3.9098651e-05
1.6661331e-05
5.1097333e-05
5.226489e-05
5.607661e-05
6.2345887e-05
6.9737436e-05
7.6884231e-05
8.275134e-05
8.6583061e-05
8.7786198e-05
8.5851886e-05
8.0320075e-05
7.0789647e-05
5.7006994e-05
3.9150632e-05
1.6667168e-05
5.2830514e-05
5.4054927e-05
5.7958407e-05
6.425077e-05
7.1555297e-05
7.8528589e-05
8.4173481e-05
8.7761614e-05
8.8718096e-05
8.6547049e-05
8.0799066e-05
7.1082994e-05
5.7154902e-05
3.9201338e-05
1.6673012e-05
5.4670958e-05
5.5940151e-05
5.9901469e-05
6.618014e-05
7.3372237e-05
8.0159419e-05
8.5577173e-05
8.8921113e-05
8.9632684e-05
8.7227896e-05
8.1267319e-05
7.136927e-05
5.7299044e-05
3.9250778e-05
1.6678861e-05
5.6613637e-05
5.7914026e-05
6.1899132e-05
6.8129068e-05
7.5185679e-05
8.177546e-05
8.6961859e-05
9.0061368e-05
9.0529958e-05
8.7894503e-05
8.1724926e-05
7.1648547e-05
5.7439461e-05
3.929896e-05
1.6684711e-05
5.8651706e-05
5.9968884e-05
6.3944517e-05
7.0092754e-05
7.6993248e-05
8.3375512e-05
8.832699e-05
9.1182181e-05
9.1409895e-05
8.8546927e-05
8.2171963e-05
7.1920888e-05
5.7576182e-05
3.9345887e-05
1.669056e-05
6.0776686e-05
6.2095999e-05
6.6030471e-05
7.2067029e-05
7.8792688e-05
8.4958426e-05
8.9672028e-05
9.2283339e-05
9.2272453e-05
8.9185204e-05
8.2608491e-05
7.2186344e-05
5.7709235e-05
3.9391563e-05
1.6696403e-05
6.2978669e-05
6.4285957e-05
6.8150153e-05
7.4047876e-05
8.0581843e-05
8.6523093e-05
9.0996433e-05
9.3364614e-05
9.3117571e-05
8.9809352e-05
8.3034555e-05
7.2444954e-05
5.7838638e-05
3.9435987e-05
1.6702239e-05
6.5246783e-05
6.652895e-05
7.0296768e-05
7.6031419e-05
8.2358651e-05
8.8068441e-05
9.2299666e-05
9.4425759e-05
9.3945164e-05
9.0419368e-05
8.3450183e-05
7.2696746e-05
5.7964404e-05
3.9479157e-05
1.6708063e-05
6.7569572e-05
6.8814951e-05
7.2463611e-05
7.801391e-05
8.4121128e-05
8.9593421e-05
9.3581182e-05
9.5466511e-05
9.4755124e-05
9.101523e-05
8.3855387e-05
7.2941736e-05
5.808654e-05
3.9521068e-05
1.6713873e-05
6.9935352e-05
7.113392e-05
7.4644101e-05
7.9991717e-05
8.5867356e-05
9.1097009e-05
9.4840432e-05
9.6486585e-05
9.5547322e-05
9.1596892e-05
8.4250161e-05
7.317993e-05
5.8205045e-05
3.9561713e-05
1.6719665e-05
7.2332525e-05
7.3475985e-05
7.6831814e-05
8.1961315e-05
8.7595477e-05
9.25782e-05
9.6076858e-05
9.7485681e-05
9.6321606e-05
9.2164289e-05
8.4634485e-05
7.3411322e-05
5.8319912e-05
3.9601082e-05
1.6725435e-05
7.4749837e-05
7.5831595e-05
7.902053e-05
8.3919287e-05
8.9303684e-05
9.4036007e-05
9.72899e-05
9.8463478e-05
9.7077804e-05
9.2717336e-05
8.5008319e-05
7.3635892e-05
5.8431127e-05
3.9639163e-05
1.6731181e-05
7.717659e-05
7.8191652e-05
8.1204265e-05
8.5862323e-05
9.0990221e-05
9.5469456e-05
9.8478992e-05
9.9419641e-05
9.7815722e-05
9.3255928e-05
8.537161e-05
7.3853611e-05
5.8538672e-05
3.9675941e-05
1.6736897e-05
7.9602789e-05
8.0547609e-05
8.337731e-05
8.7787221e-05
9.2653376e-05
9.6877595e-05
9.9643564e-05
0.00010035382
9.8535147e-05
9.377994e-05
8.5724287e-05
7.4064439e-05
5.864252e-05
3.9711399e-05
1.6742581e-05
8.2019246e-05
8.2891547e-05
8.5534266e-05
8.9690902e-05
9.429149e-05
9.8259489e-05
0.00010078305
0.00010126566
9.9235852e-05
9.4289232e-05
8.6066267e-05
7.4268325e-05
5.8742637e-05
3.9745519e-05
1.6748228e-05
8.4417634e-05
8.5216215e-05
8.7670072e-05
9.1570418e-05
9.5902954e-05
9.9614224e-05
0.00010189689
0.00010215479
9.9917595e-05
9.4783648e-05
8.6397452e-05
7.4465208e-05
5.8838987e-05
3.9778278e-05
1.6753834e-05
8.6790509e-05
8.7515059e-05
8.9780031e-05
9.3422962e-05
9.7486217e-05
0.00010094091
0.00010298453
0.00010302084
0.00010058013
9.5263021e-05
8.6717731e-05
7.4655016e-05
5.8931524e-05
3.9809652e-05
1.6759394e-05
8.9131295e-05
8.9782223e-05
9.1859829e-05
9.5245887e-05
9.9039793e-05
0.00010223871
0.00010404544
0.00010386345
0.00010122319
9.5727173e-05
8.7026985e-05
7.4837672e-05
5.9020201e-05
3.9839616e-05
1.6764905e-05
9.1434259e-05
9.2012539e-05
9.3905543e-05
9.7036715e-05
0.00010056227
0.00010350679
0.00010507909
0.00010468226
0.00010184653
9.617592e-05
8.7325086e-05
7.5013091e-05
5.9104963e-05
3.9868142e-05
1.6770361e-05
9.3694462e-05
9.4201496e-05
9.5913646e-05
9.879315e-05
0.00010205231
0.00010474437
0.00010608501
0.00010547692
0.00010244989
9.6609076e-05
8.7611901e-05
7.5181181e-05
5.9185754e-05
3.9895202e-05
1.6775757e-05
9.5907704e-05
9.6345213e-05
9.7881009e-05
0.00010051309
0.00010350867
0.00010595075
0.00010706271
0.00010624712
0.00010303302
9.7026455e-05
8.7887294e-05
7.5341848e-05
5.9262515e-05
3.9920765e-05
1.6781088e-05
9.8070462e-05
9.8440393e-05
9.9804886e-05
0.00010219462
0.0001049302
0.00010712523
0.00010801179
0.00010699255
0.0001035957
9.7427875e-05
8.8151129e-05
7.5494996e-05
5.9335184e-05
3.9944801e-05
1.6786349e-05
0.00010017983
0.00010048428
0.00010168291
0.00010383604
0.00010631585
0.00010826722
0.00010893186
0.00010771293
0.00010413771
9.7813166e-05
8.8403272e-05
7.564053e-05
5.94037e-05
3.9967279e-05
1.6791535e-05
0.00010223347
0.00010247462
0.00010351306
0.00010543586
0.00010766468
0.00010937616
0.00010982258
0.00010840802
0.00010465885
9.8182168e-05
8.8643599e-05
7.5778355e-05
5.9468002e-05
3.9988169e-05
1.6796639e-05
0.00010422951
0.00010440961
0.00010529367
0.00010699276
0.00010897587
0.00011045157
0.00011068366
0.00010907762
0.00010515896
9.8534739e-05
8.887199e-05
7.5908382e-05
5.9528031e-05
4.0007442e-05
1.6801657e-05
0.00010616656
0.00010628783
0.00010702337
0.00010850567
0.0001102487
0.00011149305
0.00011151486
0.00010972157
0.00010563791
9.8870757e-05
8.9088342e-05
7.6030529e-05
5.9583732e-05
4.002507e-05
1.6806582e-05
0.00010804359
0.00010810826
0.00010870111
0.00010997367
0.00011148256
0.00011250026
0.000112316
0.00011033973
0.00010609558
9.9190124e-05
8.9292564e-05
7.6144724e-05
5.9635053e-05
4.0041027e-05
1.6811408e-05
0.00010985992
0.00010987018
0.00011032608
0.00011139605
0.00011267699
0.00011347294
0.00011308696
0.00011093205
0.00010653191
9.9492768e-05
8.9484586e-05
7.6250903e-05
5.9681952e-05
4.005529e-05
1.6816131e-05
0.00011161518
0.00011157316
0.00011189773
0.00011277227
0.0001138316
0.00011441092
0.00011382766
0.00011149849
0.00010694687
9.9778647e-05
8.9664355e-05
7.6349017e-05
5.972439e-05
4.006784e-05
1.6820744e-05
0.00011330925
0.00011321704
0.00011341575
0.00011410196
0.00011494615
0.00011531408
0.0001145381
0.00011203907
0.00010734048
0.00010004775
8.9831845e-05
7.6439034e-05
5.9762339e-05
4.0078661e-05
1.6825242e-05
0.00011494225
0.00011480185
0.00011488
0.00011538491
0.00011602049
0.00011618239
0.00011521833
0.00011255386
0.00010771279
0.0001003001
8.9987051e-05
7.6520935e-05
5.9795783e-05
4.0087742e-05
1.6829619e-05
0.0001165145
0.00011632785
0.00011629055
0.00011662106
0.00011705457
0.00011701591
0.00011586845
0.00011304299
0.00010806388
0.00010053575
9.0129996e-05
7.6594722e-05
5.9824712e-05
4.0095077e-05
1.6833871e-05
0.00011802647
0.00011779544
0.00011764763
0.00011781047
0.00011804846
0.00011781474
0.00011648863
0.00011350661
0.0001083939
0.0001007548
9.0260729e-05
7.6660414e-05
5.9849132e-05
4.0100666e-05
1.6837992e-05
0.0001194788
0.00011920519
0.00011895159
0.00011895335
0.0001190023
0.00011857907
0.00011707908
0.00011394494
0.00010870303
0.00010095737
9.0379328e-05
7.6718051e-05
5.986906e-05
4.0104514e-05
1.6841978e-05
0.00012087225
0.00012055779
0.00012020295
0.00012005
0.00011991635
0.00011930916
0.00011764008
0.00011435824
0.00010899147
0.00010114362
9.0485899e-05
7.6767694e-05
5.9884525e-05
4.0106631e-05
1.6845825e-05
0.00012220768
0.00012185403
0.00012140229
0.00012110085
0.00012079091
0.00012000533
0.00011817194
0.00011474682
0.0001092595
0.00010131374
9.0580574e-05
7.6809425e-05
5.9895571e-05
4.0107034e-05
1.6849529e-05
0.00012348605
0.00012309481
0.00012255034
0.00012210639
0.0001216264
0.00012066794
0.00011867504
0.00011511101
0.0001095074
0.00010146798
9.0663517e-05
7.6843345e-05
5.9902254e-05
4.0105748e-05
1.6853086e-05
0.00012470841
0.0001242811
0.00012364789
0.00012306722
0.00012242328
0.00012129742
0.00011914979
0.00011545121
0.00010973551
0.00010160658
9.0734915e-05
7.6869578e-05
5.9904645e-05
4.0102801e-05
1.6856493e-05
0.00012587585
0.00012541394
0.0001246958
0.00012398401
0.00012318209
0.00012189426
0.00011959665
0.00011576784
0.00010994419
0.00010172985
9.0794983e-05
7.6888268e-05
5.9902827e-05
4.009823e-05
1.6859748e-05
0.00012698953
0.00012649443
0.00012569501
0.00012485749
0.00012390343
0.00012245899
0.00012001611
0.00011606135
0.00011013383
0.0001018381
9.0843961e-05
7.6899577e-05
5.9896896e-05
4.0092075e-05
1.686285e-05
0.00012805065
0.00012752372
0.00012664651
0.00012568844
0.00012458793
0.00012299218
0.0001204087
0.00011633222
0.00011030487
0.00010193168
9.0882112e-05
7.6903685e-05
5.988696e-05
4.0084383e-05
1.6865796e-05
0.00012906045
0.00012850299
0.00012755133
0.00012647772
0.0001252363
0.00012349444
0.00012077499
0.00011658099
0.00011045775
0.00010201096
9.0909721e-05
7.6900793e-05
5.9873139e-05
4.0075207e-05
1.6868586e-05
0.00013002021
0.00012943345
0.00012841054
0.0001272262
0.00012584927
0.00012396641
0.00012111556
0.00011680817
0.00011059295
0.00010207633
9.0927093e-05
7.6891113e-05
5.9855563e-05
4.0064605e-05
1.6871218e-05
0.0001309312
0.00013031636
0.00012922525
0.00012793481
0.0001264276
0.00012440877
0.00012143105
0.00011701434
0.00011071097
0.00010212822
9.093455e-05
7.6874877e-05
5.9834372e-05
4.0052636e-05
1.6873695e-05
0.00013179473
0.00013115296
0.00012999659
0.00012860451
0.00012697211
0.00012482224
0.00012172207
0.00011720008
0.00011081232
0.00010216705
9.0932432e-05
7.6852325e-05
5.9809716e-05
4.0039368e-05
1.6876014e-05
0.00013261213
0.00013194454
0.00013072571
0.00012923626
0.00012748362
0.00012520752
0.00012198931
0.000117366
0.00011089753