/*--------------------------------*- C++ -*----------------------------------*\
| =========                 |                                                 |
| \\      /  F ield         | OpenFOAM: The Open Source CFD Toolbox           |
|  \\    /   O peration     | Version:  2506                                  |
|   \\  /    A nd           | Website:  www.openfoam.com                      |
|    \\/     M anipulation  |                                                 |
\*---------------------------------------------------------------------------*/
FoamFile
{
    version     2.0;
    format      ascii;
    arch        "LSB;label=32;scalar=64";
    class       volScalarField;
    location    "24000/water";
    object      T;
}
// * * * * * * * * * * * * * * * * * * * * * * * * * * * * * * * * * * * * * //

dimensions      [0 0 0 1 0 0 0];

internalField   nonuniform List<scalar> 
6000
(
333.15
333.15
333.15
333.15
333.15
333.15
333.15
333.15
333.15
333.15
333.15
333.14998
333.14989
333.14924
333.14256
333.15
333.15
333.15
333.15
333.15
333.15
333.15
333.15
333.15
333.15
333.14999
333.14994
333.14968
333.14816
333.13667
333.15
333.15
333.15
333.15
333.15
333.15
333.15
333.15
333.15
333.14999
333.14997
333.14987
333.14939
333.14689
333.13172
333.15
333.15
333.15
333.15
333.15
333.15
333.15
333.15
333.15
333.14999
333.14994
333.14976
333.14903
333.14547
333.1274
333.15
333.15
333.15
333.15
333.15
333.15
333.15
333.15
333.14999
333.14997
333.1499
333.14963
333.1486
333.14396
333.12352
333.15
333.15
333.15
333.15
333.15
333.15
333.15
333.15
333.14999
333.14996
333.14985
333.14947
333.14812
333.14237
333.11999
333.15
333.15
333.15
333.15
333.15
333.15
333.15
333.14999
333.14998
333.14994
333.14978
333.14929
333.1476
333.14073
333.11675
333.15
333.15
333.15
333.15
333.15
333.15
333.15
333.14999
333.14997
333.14991
333.1497
333.14909
333.14703
333.13906
333.11374
333.15
333.15
333.15
333.15
333.15
333.15
333.15
333.14999
333.14996
333.14987
333.14961
333.14886
333.14643
333.13737
333.11094
333.15
333.15
333.15
333.15
333.15
333.15
333.14999
333.14998
333.14994
333.14983
333.14951
333.14862
333.14578
333.13567
333.10832
333.15
333.15
333.15
333.15
333.15
333.15
333.14999
333.14998
333.14993
333.14978
333.1494
333.14836
333.1451
333.13397
333.10588
333.15
333.15
333.15
333.15
333.15
333.15
333.14999
333.14997
333.1499
333.14973
333.14928
333.14807
333.14437
333.13227
333.10359
333.15
333.15
333.15
333.15
333.15
333.14999
333.14998
333.14996
333.14988
333.14967
333.14915
333.14777
333.14361
333.1306
333.10145
333.15
333.15
333.15
333.15
333.15
333.14999
333.14998
333.14994
333.14985
333.14961
333.14901
333.14745
333.1428
333.12894
333.09946
333.15
333.15
333.15
333.15
333.15
333.14999
333.14997
333.14993
333.14982
333.14954
333.14886
333.1471
333.14196
333.12732
333.09761
333.15
333.15
333.15
333.15
333.15
333.14999
333.14997
333.14991
333.14978
333.14946
333.1487
333.14673
333.14107
333.12572
333.0959
333.15
333.15
333.15
333.15
333.14999
333.14998
333.14996
333.1499
333.14974
333.14938
333.14852
333.14634
333.14013
333.12417
333.09432
333.15
333.15
333.15
333.15
333.14999
333.14998
333.14995
333.14988
333.1497
333.14929
333.14834
333.14591
333.13916
333.12267
333.09287
333.15
333.15
333.15
333.15
333.14999
333.14998
333.14994
333.14985
333.14965
333.1492
333.14814
333.14546
333.13815
333.12122
333.09154
333.15
333.15
333.15
333.14999
333.14999
333.14997
333.14993
333.14983
333.1496
333.1491
333.14793
333.14497
333.1371
333.11982
333.09033
333.15
333.15
333.15
333.14999
333.14999
333.14997
333.14992
333.1498
333.14955
333.14899
333.1477
333.14444
333.13602
333.11848
333.08923
333.15
333.15
333.15
333.14999
333.14998
333.14996
333.1499
333.14977
333.14949
333.14887
333.14745
333.14388
333.13492
333.11721
333.08824
333.15
333.15
333.15
333.14999
333.14998
333.14995
333.14989
333.14974
333.14943
333.14875
333.14719
333.14328
333.1338
333.116
333.08735
333.15
333.15
333.14999
333.14999
333.14998
333.14994
333.14987
333.14971
333.14936
333.14861
333.1469
333.14264
333.13267
333.11485
333.08654
333.15
333.15
333.14999
333.14999
333.14997
333.14993
333.14985
333.14967
333.14929
333.14847
333.14659
333.14195
333.13155
333.11377
333.08581
333.15
333.15
333.14999
333.14998
333.14997
333.14992
333.14983
333.14963
333.14921
333.14831
333.14625
333.14123
333.13043
333.11275
333.08516
333.15
333.15
333.14999
333.14998
333.14996
333.14991
333.14981
333.14959
333.14913
333.14815
333.14589
333.14047
333.12933
333.11179
333.08457
333.15
333.14999
333.14999
333.14998
333.14996
333.1499
333.14979
333.14954
333.14904
333.14797
333.14549
333.13968
333.12826
333.11089
333.08403
333.15
333.14999
333.14999
333.14998
333.14995
333.14989
333.14976
333.14949
333.14895
333.14777
333.14507
333.13886
333.12722
333.11004
333.08355
333.14999
333.14999
333.14999
333.14997
333.14994
333.14987
333.14973
333.14944
333.14884
333.14756
333.14461
333.13802
333.12621
333.10924
333.08311
333.14999
333.14999
333.14998
333.14997
333.14993
333.14986
333.1497
333.14939
333.14873
333.14733
333.14412
333.13716
333.12523
333.10848
333.08272
333.14999
333.14999
333.14998
333.14996
333.14992
333.14984
333.14967
333.14932
333.14862
333.14708
333.14359
333.13629
333.1243
333.10777
333.08235
333.14999
333.14999
333.14998
333.14996
333.14991
333.14982
333.14964
333.14926
333.14849
333.14681
333.14304
333.13542
333.1234
333.1071
333.08202
333.14999
333.14999
333.14998
333.14995
333.1499
333.1498
333.1496
333.14919
333.14835
333.14652
333.14245
333.13456
333.12254
333.10647
333.08172
333.14999
333.14998
333.14997
333.14995
333.14989
333.14978
333.14956
333.14911
333.1482
333.1462
333.14184
333.1337
333.12172
333.10587
333.08144
333.14999
333.14998
333.14997
333.14994
333.14988
333.14976
333.14952
333.14903
333.14803
333.14586
333.1412
333.13286
333.12093
333.1053
333.08118
333.14999
333.14998
333.14997
333.14993
333.14987
333.14974
333.14947
333.14895
333.14786
333.14549
333.14054
333.13203
333.12018
333.10477
333.08094
333.14998
333.14998
333.14996
333.14993
333.14985
333.14971
333.14942
333.14885
333.14766
333.1451
333.13987
333.13122
333.11947
333.10426
333.08072
333.14998
333.14998
333.14996
333.14992
333.14984
333.14968
333.14937
333.14875
333.14746
333.14467
333.13918
333.13043
333.11878
333.10377
333.08052
333.14998
333.14997
333.14995
333.14991
333.14982
333.14965
333.14931
333.14864
333.14723
333.14423
333.13849
333.12966
333.11812
333.10332
333.08033
333.14998
333.14997
333.14995
333.1499
333.1498
333.14962
333.14925
333.14852
333.14698
333.14376
333.13779
333.12892
333.11749
333.10288
333.08015
333.14997
333.14996
333.14994
333.14989
333.14978
333.14958
333.14918
333.14839
333.14672
333.14326
333.1371
333.1282
333.11689
333.10246
333.07998
333.14997
333.14996
333.14993
333.14988
333.14976
333.14954
333.14911
333.14824
333.14643
333.14275
333.1364
333.1275
333.11631
333.10207
333.07983
333.14997
333.14996
333.14993
333.14986
333.14974
333.1495
333.14903
333.14809
333.14612
333.14222
333.13572
333.12683
333.11576
333.10169
333.07969
333.14996
333.14995
333.14992
333.14985
333.14972
333.14946
333.14895
333.14792
333.14579
333.14167
333.13504
333.12617
333.11523
333.10133
333.07955
333.14996
333.14995
333.14991
333.14984
333.14969
333.14941
333.14886
333.14774
333.14544
333.14111
333.13437
333.12554
333.11472
333.10098
333.07943
333.14995
333.14994
333.1499
333.14982
333.14966
333.14936
333.14876
333.14754
333.14507
333.14054
333.13372
333.12493
333.11423
333.10065
333.07931
333.14995
333.14993
333.14989
333.1498
333.14963
333.1493
333.14865
333.14733
333.14468
333.13997
333.13307
333.12434
333.11376
333.10033
333.0792
333.14994
333.14993
333.14988
333.14979
333.1496
333.14924
333.14854
333.1471
333.14427
333.13939
333.13244
333.12376
333.1133
333.10003
333.0791
333.14994
333.14992
333.14987
333.14977
333.14957
333.14918
333.14841
333.14686
333.14384
333.13881
333.13182
333.12321
333.11286
333.09974
333.07901
333.14993
333.14991
333.14986
333.14975
333.14953
333.14911
333.14827
333.14659
333.1434
333.13823
333.13122
333.12267
333.11244
333.09946
333.07892
333.14993
333.1499
333.14984
333.14972
333.14949
333.14903
333.14812
333.14631
333.14294
333.13765
333.13063
333.12216
333.11203
333.09919
333.07883
333.14992
333.14989
333.14983
333.1497
333.14944
333.14894
333.14796
333.14601
333.14247
333.13707
333.13006
333.12165
333.11164
333.09893
333.07876
333.14991
333.14988
333.14981
333.14967
333.14939
333.14885
333.14779
333.1457
333.14199
333.1365
333.1295
333.12117
333.11126
333.09868
333.07868
333.1499
333.14987
333.1498
333.14964
333.14934
333.14876
333.1476
333.14536
333.1415
333.13594
333.12895
333.12069
333.1109
333.09844
333.07861
333.14989
333.14986
333.14978
333.14961
333.14928
333.14865
333.1474
333.14501
333.14101
333.13539
333.12842
333.12024
333.11054
333.09821
333.07855
333.14988
333.14985
333.14976
333.14958
333.14922
333.14853
333.14718
333.14464
333.14051
333.13484
333.1279
333.11979
333.1102
333.09798
333.07849
333.14987
333.14983
333.14974
333.14954
333.14916
333.14841
333.14695
333.14426
333.14001
333.1343
333.1274
333.11936
333.10987
333.09777
333.07844
333.14986
333.14982
333.14971
333.1495
333.14908
333.14827
333.1467
333.14387
333.13951
333.13377
333.1269
333.11894
333.10954
333.09756
333.07839
333.14985
333.1498
333.14969
333.14946
333.149
333.14812
333.14643
333.14346
333.139
333.13325
333.12642
333.11854
333.10923
333.09736
333.07834
333.14983
333.14978
333.14966
333.14941
333.14892
333.14797
333.14615
333.14304
333.1385
333.13274
333.12596
333.11814
333.10893
333.09717
333.07829
333.14982
333.14976
333.14963
333.14936
333.14883
333.14779
333.14586
333.14262
333.138
333.13224
333.1255
333.11776
333.10864
333.09698
333.07825
333.1498
333.14974
333.1496
333.1493
333.14872
333.14761
333.14555
333.14219
333.13751
333.13174
333.12505
333.11739
333.10835
333.0968
333.07821
333.14978
333.14972
333.14956
333.14924
333.14862
333.14741
333.14523
333.14175
333.13702
333.13126
333.12462
333.11702
333.10807
333.09662
333.07818
333.14976
333.1497
333.14952
333.14918
333.1485
333.1472
333.14489
333.14131
333.13653
333.13079
333.12419
333.11667
333.1078
333.09645
333.07815
333.14974
333.14967
333.14948
333.1491
333.14837
333.14698
333.14454
333.14086
333.13605
333.13032
333.12378
333.11632
333.10754
333.09628
333.07812
333.14972
333.14964
333.14944
333.14903
333.14823
333.14674
333.14418
333.14041
333.13557
333.12987
333.12337
333.11599
333.10729
333.09612
333.07809
333.14969
333.14961
333.14939
333.14894
333.14808
333.14648
333.14381
333.13996
333.1351
333.12942
333.12298
333.11566
333.10704
333.09597
333.07806
333.14967
333.14957
333.14933
333.14885
333.14792
333.14621
333.14343
333.13951
333.13464
333.12898
333.12259
333.11534
333.1068
333.09582
333.07804
333.14964
333.14954
333.14928
333.14875
333.14774
333.14593
333.14304
333.13907
333.13418
333.12855
333.12222
333.11503
333.10656
333.09567
333.07802
333.14961
333.1495
333.14921
333.14864
333.14756
333.14564
333.14265
333.13862
333.13373
333.12813
333.12185
333.11472
333.10633
333.09553
333.078
333.14957
333.14945
333.14914
333.14852
333.14736
333.14533
333.14225
333.13817
333.13329
333.12772
333.12149
333.11443
333.10611
333.09539
333.07798
333.14953
333.1494
333.14907
333.1484
333.14715
333.14501
333.14184
333.13773
333.13285
333.12732
333.12113
333.11414
333.10589
333.09525
333.07796
333.14949
333.14935
333.14899
333.14826
333.14692
333.14468
333.14144
333.13729
333.13242
333.12692
333.12079
333.11385
333.10567
333.09512
333.07794
333.14944
333.14929
333.1489
333.14811
333.14668
333.14434
333.14102
333.13685
333.13199
333.12653
333.12045
333.11358
333.10547
333.09499
333.07793
333.14939
333.14923
333.1488
333.14795
333.14643
333.14399
333.14061
333.13642
333.13157
333.12615
333.12012
333.1133
333.10526
333.09487
333.07791
333.14934
333.14916
333.14869
333.14778
333.14616
333.14364
333.1402
333.13599
333.13116
333.12578
333.11979
333.11304
333.10506
333.09475
333.0779
333.14928
333.14908
333.14858
333.14759
333.14588
333.14327
333.13978
333.13557
333.13076
333.12541
333.11948
333.11278
333.10487
333.09463
333.07789
333.14921
333.149
333.14845
333.1474
333.14559
333.1429
333.13937
333.13515
333.13036
333.12505
333.11916
333.11252
333.10468
333.09451
333.07788
333.14914
333.14891
333.14832
333.14719
333.14529
333.14253
333.13896
333.13473
333.12997
333.12469
333.11886
333.11228
333.10449
333.0944
333.07787
333.14906
333.14881
333.14817
333.14696
333.14498
333.14214
333.13854
333.13432
333.12958
333.12435
333.11856
333.11203
333.10431
333.09429
333.07786
333.14897
333.1487
333.14801
333.14673
333.14466
333.14176
333.13813
333.13391
333.1292
333.124
333.11827
333.11179
333.10413
333.09418
333.07785
333.14888
333.14858
333.14784
333.14648
333.14433
333.14137
333.13772
333.13351
333.12882
333.12367
333.11798
333.11156
333.10395
333.09407
333.07784
333.14877
333.14845
333.14765
333.14621
333.14399
333.14098
333.13731
333.13311
333.12845
333.12334
333.1177
333.11133
333.10378
333.09396
333.07783
333.14866
333.14831
333.14746
333.14594
333.14364
333.14059
333.13691
333.13272
333.12809
333.12301
333.11742
333.1111
333.10361
333.09386
333.07782
333.14853
333.14816
333.14725
333.14565
333.14328
333.14019
333.13651
333.13233
333.12773
333.12269
333.11715
333.11088
333.10345
333.09376
333.07781
333.14839
333.14799
333.14702
333.14535
333.14292
333.1398
333.13611
333.13195
333.12738
333.12238
333.11688
333.11066
333.10328
333.09366
333.0778
333.14824
333.14781
333.14678
333.14504
333.14255
333.1394
333.13571
333.13157
333.12703
333.12207
333.11661
333.11045
333.10312
333.09356
333.07779
333.14807
333.14762
333.14653
333.14472
333.14218
333.13901
333.13532
333.1312
333.12669
333.12177
333.11636
333.11024
333.10297
333.09347
333.07779
333.14789
333.1474
333.14626
333.14439
333.1418
333.13861
333.13492
333.13083
333.12635
333.12147
333.1161
333.11003
333.10281
333.09337
333.07778
333.14769
333.14718
333.14598
333.14405
333.14142
333.13822
333.13454
333.13046
333.12601
333.12118
333.11585
333.10983
333.10266
333.09328
333.07777
333.14748
333.14694
333.14568
333.1437
333.14104
333.13782
333.13415
333.1301
333.12569
333.12089
333.1156
333.10963
333.10251
333.09319
333.07776
333.14725
333.14668
333.14537
333.14334
333.14065
333.13743
333.13377
333.12974
333.12536
333.1206
333.11536
333.10943
333.10236
333.0931
333.07775
333.147
333.1464
333.14505
333.14297
333.14026
333.13703
333.13339
333.12939
333.12504
333.12032
333.11512
333.10923
333.10222
333.09301
333.07774
333.14673
333.14611
333.14471
333.1426
333.13987
333.13664
333.13302
333.12904
333.12473
333.12004
333.11489
333.10904
333.10207
333.09292
333.07773
333.14644
333.1458
333.14436
333.14222
333.13948
333.13625
333.13264
333.1287
333.12442
333.11977
333.11465
333.10885
333.10193
333.09283
333.07772
333.14614
333.14547
333.144
333.14183
333.13908
333.13586
333.13227
333.12835
333.12411
333.1195
333.11443
333.10867
333.10179
333.09275
333.07771
333.14581
333.14513
333.14363
333.14144
333.13868
333.13548
333.13191
333.12802
333.12381
333.11924
333.1142
333.10848
333.10165
333.09266
333.0777
333.14546
333.14477
333.14325
333.14104
333.13829
333.13509
333.13155
333.12768
333.12351
333.11897
333.11398
333.1083
333.10151
333.09257
333.07769
333.1451
333.14439
333.14286
333.14064
333.13789
333.13471
333.13119
333.12736
333.12321
333.11872
333.11376
333.10812
333.10138
333.09249
333.07768
333.14472
333.144
333.14246
333.14024
333.13749
333.13433
333.13083
333.12703
333.12292
333.11846
333.11354
333.10794
333.10124
333.09241
333.07767
333.14432
333.1436
333.14205
333.13983
333.13709
333.13395
333.13048
333.12671
333.12263
333.11821
333.11332
333.10777
333.10111
333.09232
333.07766
333.14391
333.14318
333.14163
333.13941
333.13669
333.13357
333.13013
333.12639
333.12235
333.11796
333.11311
333.1076
333.10098
333.09224
333.07764
333.14348
333.14275
333.1412
333.139
333.13629
333.13319
333.12978
333.12607
333.12206
333.11771
333.1129
333.10742
333.10085
333.09216
333.07763
333.14304
333.14231
333.14077
333.13858
333.13589
333.13282
333.12943
333.12576
333.12178
333.11746
333.11269
333.10725
333.10072
333.09208
333.07761
333.14259
333.14186
333.14033
333.13816
333.13549
333.13245
333.12909
333.12544
333.12151
333.11722
333.11249
333.10709
333.10059
333.09199
333.0776
333.14212
333.14141
333.13989
333.13773
333.13509
333.13207
333.12875
333.12514
333.12123
333.11698
333.11228
333.10692
333.10047
333.09191
333.07758
333.14165
333.14094
333.13944
333.1373
333.13469
333.1317
333.12841
333.12483
333.12096
333.11675
333.11208
333.10675
333.10034
333.09183
333.07756
333.14117
333.14047
333.13898
333.13688
333.13429
333.13133
333.12807
333.12453
333.12069
333.11651
333.11188
333.10659
333.10021
333.09175
333.07754
333.14068
333.13999
333.13852
333.13645
333.13389
333.13097
333.12774
333.12423
333.12042
333.11628
333.11168
333.10643
333.10009
333.09167
333.07752
333.14018
333.1395
333.13806
333.13601
333.13349
333.1306
333.1274
333.12393
333.12016
333.11605
333.11148
333.10626
333.09996
333.09158
333.0775
333.13968
333.13902
333.1376
333.13558
333.13309
333.13024
333.12707
333.12363
333.11989
333.11582
333.11129
333.1061
333.09984
333.0915
333.07748
333.13918
333.13853
333.13714
333.13515
333.13269
333.12987
333.12674
333.12334
333.11963
333.11559
333.11109
333.10594
333.09972
333.09142
333.07746
333.13868
333.13803
333.13667
333.13472
333.1323
333.12951
333.12642
333.12304
333.11937
333.11536
333.1109
333.10578
333.09959
333.09134
333.07743
333.13817
333.13754
333.1362
333.13428
333.1319
333.12915
333.12609
333.12275
333.11912
333.11514
333.11071
333.10563
333.09947
333.09126
333.07741
333.13766
333.13705
333.13574
333.13385
333.1315
333.12879
333.12577
333.12246
333.11886
333.11491
333.11052
333.10547
333.09935
333.09117
333.07738
333.13715
333.13655
333.13527
333.13342
333.13111
333.12843
333.12544
333.12217
333.11861
333.11469
333.11033
333.10531
333.09923
333.09109
333.07735
333.13665
333.13606
333.1348
333.13299
333.13071
333.12807
333.12512
333.12189
333.11835
333.11447
333.11014
333.10516
333.0991
333.09101
333.07732
333.13614
333.13557
333.13434
333.13255
333.13032
333.12772
333.1248
333.1216
333.1181
333.11425
333.10995
333.105
333.09898
333.09092
333.07729
333.13564
333.13508
333.13387
333.13213
333.12993
333.12736
333.12449
333.12132
333.11785
333.11403
333.10977
333.10484
333.09886
333.09084
333.07726
333.13514
333.13459
333.13341
333.1317
333.12954
333.12701
333.12417
333.12103
333.1176
333.11382
333.10958
333.10469
333.09874
333.09075
333.07722
333.13464
333.13411
333.13295
333.13127
333.12915
333.12666
333.12385
333.12075
333.11735
333.1136
333.10939
333.10453
333.09861
333.09066
333.07719
333.13415
333.13362
333.13249
333.13085
333.12876
333.12631
333.12354
333.12047
333.1171
333.11338
333.10921
333.10438
333.09849
333.09058
333.07715
333.13366
333.13314
333.13204
333.13043
333.12838
333.12596
333.12322
333.12019
333.11686
333.11317
333.10902
333.10422
333.09837
333.09049
333.07711
333.13317
333.13267
333.13159
333.13001
333.12799
333.12561
333.12291
333.11992
333.11661
333.11295
333.10884
333.10407
333.09824
333.0904
333.07707
333.13269
333.1322
333.13114
333.12959
333.12761
333.12527
333.1226
333.11964
333.11637
333.11274
333.10865
333.10391
333.09812
333.09031
333.07703
333.13221
333.13173
333.1307
333.12918
333.12723
333.12492
333.12229
333.11936
333.11612
333.11252
333.10847
333.10376
333.09799
333.09022
333.07698
333.13174
333.13127
333.13026
333.12876
333.12685
333.12458
333.12199
333.11909
333.11588
333.11231
333.10829
333.1036
333.09787
333.09013
333.07693
333.13127
333.13081
333.12982
333.12836
333.12648
333.12424
333.12168
333.11881
333.11564
333.1121
333.1081
333.10345
333.09774
333.09003
333.07689
333.1308
333.13036
333.12939
333.12795
333.12611
333.1239
333.12137
333.11854
333.11539
333.11189
333.10792
333.10329
333.09762
333.08994
333.07683
333.13034
333.12991
333.12896
333.12755
333.12574
333.12357
333.12107
333.11827
333.11515
333.11167
333.10773
333.10314
333.09749
333.08984
333.07678
333.12989
333.12946
333.12853
333.12715
333.12537
333.12323
333.12077
333.118
333.11491
333.11146
333.10755
333.10298
333.09736
333.08974
333.07673
333.12944
333.12902
333.12811
333.12676
333.12501
333.1229
333.12047
333.11773
333.11467
333.11125
333.10737
333.10282
333.09723
333.08964
333.07667
333.129
333.12859
333.12769
333.12637
333.12464
333.12257
333.12017
333.11746
333.11443
333.11104
333.10718
333.10267
333.0971
333.08954
333.07661
333.12856
333.12816
333.12728
333.12598
333.12428
333.12224
333.11987
333.11719
333.1142
333.11083
333.107
333.10251
333.09697
333.08944
333.07655
333.12813
333.12773
333.12687
333.12559
333.12393
333.12191
333.11958
333.11693
333.11396
333.11062
333.10681
333.10235
333.09684
333.08934
333.07649
333.1277
333.12731
333.12647
333.12521
333.12357
333.12159
333.11928
333.11666
333.11372
333.11041
333.10663
333.10219
333.0967
333.08924
333.07642
333.12728
333.1269
333.12607
333.12484
333.12322
333.12127
333.11899
333.1164
333.11348
333.1102
333.10645
333.10203
333.09657
333.08913
333.07635
333.12686
333.12649
333.12568
333.12446
333.12288
333.12095
333.1187
333.11614
333.11325
333.10999
333.10626
333.10187
333.09644
333.08902
333.07628
333.12645
333.12608
333.12528
333.12409
333.12253
333.12063
333.11841
333.11587
333.11301
333.10978
333.10608
333.10171
333.0963
333.08891
333.07621
333.12604
333.12568
333.1249
333.12373
333.12219
333.12031
333.11812
333.11561
333.11278
333.10957
333.10589
333.10155
333.09616
333.0888
333.07613
333.12564
333.12528
333.12452
333.12336
333.12185
333.12
333.11783
333.11535
333.11254
333.10936
333.10571
333.10139
333.09602
333.08869
333.07606
333.12524
333.12489
333.12414
333.12301
333.12152
333.11969
333.11755
333.11509
333.11231
333.10915
333.10552
333.10123
333.09588
333.08858
333.07598
333.12485
333.12451
333.12377
333.12265
333.12118
333.11938
333.11727
333.11484
333.11208
333.10894
333.10533
333.10106
333.09574
333.08846
333.0759
333.12446
333.12413
333.1234
333.1223
333.12085
333.11908
333.11698
333.11458
333.11184
333.10873
333.10515
333.1009
333.0956
333.08834
333.07581
333.12408
333.12375
333.12303
333.12195
333.12053
333.11877
333.11671
333.11432
333.11161
333.10852
333.10496
333.10073
333.09546
333.08823
333.07573
333.1237
333.12338
333.12267
333.12161
333.1202
333.11847
333.11643
333.11407
333.11138
333.10832
333.10477
333.10057
333.09532
333.0881
333.07564
333.12332
333.12301
333.12231
333.12127
333.11988
333.11817
333.11615
333.11382
333.11115
333.10811
333.10459
333.1004
333.09517
333.08798
333.07555
333.12296
333.12265
333.12196
333.12093
333.11956
333.11788
333.11588
333.11357
333.11092
333.1079
333.1044
333.10024
333.09503
333.08786
333.07545
333.12259
333.12229
333.12161
333.1206
333.11925
333.11758
333.1156
333.11331
333.11069
333.10769
333.10421
333.10007
333.09488
333.08773
333.07536
333.12223
333.12193
333.12127
333.12027
333.11894
333.11729
333.11533
333.11306
333.11046
333.10748
333.10402
333.0999
333.09473
333.08761
333.07526
333.12188
333.12158
333.12093
333.11994
333.11863
333.117
333.11506
333.11282
333.11024
333.10728
333.10384
333.09973
333.09458
333.08748
333.07516
333.12153
333.12123
333.12059
333.11962
333.11832
333.11671
333.1148
333.11257
333.11001
333.10707
333.10365
333.09956
333.09443
333.08735
333.07506
333.12118
333.12089
333.12026
333.1193
333.11802
333.11643
333.11453
333.11232
333.10978
333.10686
333.10346
333.09939
333.09428
333.08722
333.07496
333.12084
333.12055
333.11993
333.11898
333.11771
333.11614
333.11427
333.11208
333.10956
333.10665
333.10327
333.09922
333.09413
333.08709
333.07485
333.1205
333.12022
333.1196
333.11866
333.11742
333.11586
333.114
333.11183
333.10933
333.10645
333.10308
333.09905
333.09397
333.08695
333.07474
333.12016
333.11989
333.11928
333.11835
333.11712
333.11558
333.11374
333.11159
333.10911
333.10624
333.10289
333.09888
333.09382
333.08682
333.07463
333.11983
333.11956
333.11896
333.11805
333.11683
333.1153
333.11348
333.11135
333.10888
333.10603
333.1027
333.0987
333.09366
333.08668
333.07452
333.11951
333.11924
333.11864
333.11774
333.11654
333.11503
333.11322
333.11111
333.10866
333.10583
333.10251
333.09853
333.09351
333.08654
333.07441
333.11918
333.11892
333.11833
333.11744
333.11625
333.11476
333.11297
333.11087
333.10844
333.10562
333.10232
333.09836
333.09335
333.0864
333.07429
333.11886
333.1186
333.11802
333.11714
333.11596
333.11449
333.11271
333.11063
333.10821
333.10541
333.10213
333.09818
333.09319
333.08626
333.07417
333.11855
333.11829
333.11772
333.11685
333.11568
333.11422
333.11246
333.11039
333.10799
333.10521
333.10194
333.09801
333.09303
333.08612
333.07405
333.11824
333.11798
333.11741
333.11655
333.1154
333.11395
333.11221
333.11015
333.10777
333.105
333.10175
333.09783
333.09287
333.08597
333.07393
333.11793
333.11767
333.11711
333.11626
333.11512
333.11368
333.11195
333.10992
333.10755
333.1048
333.10156
333.09765
333.09271
333.08583
333.07381
333.11762
333.11737
333.11682
333.11597
333.11484
333.11342
333.11171
333.10968
333.10733
333.10459
333.10137
333.09748
333.09254
333.08568
333.07369
333.11732
333.11707
333.11652
333.11569
333.11457
333.11316
333.11146
333.10945
333.10711
333.10439
333.10118
333.0973
333.09238
333.08553
333.07356
333.11702
333.11677
333.11623
333.11541
333.1143
333.1129
333.11121
333.10922
333.10689
333.10418
333.10099
333.09712
333.09222
333.08538
333.07343
333.11672
333.11648
333.11594
333.11513
333.11403
333.11264
333.11097
333.10899
333.10667
333.10398
333.10079
333.09694
333.09205
333.08523
333.0733
333.11643
333.11619
333.11566
333.11485
333.11376
333.11239
333.11072
333.10876
333.10646
333.10377
333.1006
333.09676
333.09188
333.08508
333.07317
333.11614
333.1159
333.11538
333.11457
333.11349
333.11213
333.11048
333.10853
333.10624
333.10357
333.10041
333.09658
333.09172
333.08493
333.07304
333.11585
333.11561
333.1151
333.1143
333.11323
333.11188
333.11024
333.1083
333.10602
333.10336
333.10022
333.0964
333.09155
333.08478
333.0729
333.11557
333.11533
333.11482
333.11403
333.11297
333.11163
333.11
333.10807
333.10581
333.10316
333.10003
333.09622
333.09138
333.08462
333.07277
333.11528
333.11505
333.11454
333.11376
333.11271
333.11138
333.10976
333.10784
333.10559
333.10295
333.09983
333.09604
333.09121
333.08446
333.07263
333.115
333.11477
333.11427
333.1135
333.11245
333.11113
333.10952
333.10761
333.10538
333.10275
333.09964
333.09586
333.09104
333.08431
333.07249
333.11473
333.1145
333.114
333.11323
333.11219
333.11088
333.10929
333.10739
333.10516
333.10255
333.09945
333.09568
333.09087
333.08415
333.07235
333.11445
333.11423
333.11373
333.11297
333.11194
333.11064
333.10905
333.10716
333.10495
333.10234
333.09925
333.0955
333.0907
333.08399
333.07221
333.11418
333.11396
333.11346
333.11271
333.11169
333.11039
333.10882
333.10694
333.10473
333.10214
333.09906
333.09531
333.09053
333.08383
333.07207
333.11391
333.11369
333.1132
333.11245
333.11144
333.11015
333.10858
333.10672
333.10452
333.10194
333.09887
333.09513
333.09035
333.08367
333.07192
333.11364
333.11342
333.11294
333.11219
333.11119
333.10991
333.10835
333.10649
333.10431
333.10173
333.09867
333.09495
333.09018
333.08351
333.07178
333.11338
333.11316
333.11268
333.11194
333.11094
333.10967
333.10812
333.10627
333.10409
333.10153
333.09848
333.09476
333.09001
333.08335
333.07163
333.11311
333.1129
333.11242
333.11169
333.11069
333.10943
333.10789
333.10605
333.10388
333.10133
333.09829
333.09458
333.08983
333.08318
333.07148
333.11285
333.11264
333.11216
333.11144
333.11045
333.10919
333.10766
333.10583
333.10367
333.10112
333.09809
333.09439
333.08966
333.08302
333.07134
333.11259
333.11238
333.11191
333.11119
333.11021
333.10896
333.10743
333.10561
333.10346
333.10092
333.0979
333.09421
333.08948
333.08286
333.07119
333.11234
333.11213
333.11166
333.11094
333.10996
333.10872
333.10721
333.10539
333.10325
333.10072
333.0977
333.09402
333.08931
333.08269
333.07103
333.11208
333.11187
333.11141
333.11069
333.10972
333.10849
333.10698
333.10517
333.10304
333.10052
333.09751
333.09384
333.08913
333.08252
333.07088
333.11183
333.11162
333.11116
333.11045
333.10948
333.10826
333.10675
333.10495
333.10283
333.10031
333.09732
333.09365
333.08895
333.08236
333.07073
333.11158
333.11137
333.11091
333.11021
333.10925
333.10803
333.10653
333.10474
333.10262
333.10011
333.09712
333.09346
333.08877
333.08219
333.07058
333.11133
333.11112
333.11067
333.10996
333.10901
333.1078
333.10631
333.10452
333.10241
333.09991
333.09693
333.09328
333.0886
333.08202
333.07042
333.11108
333.11088
333.11042
333.10972
333.10878
333.10757
333.10608
333.1043
333.1022
333.09971
333.09673
333.09309
333.08842
333.08185
333.07027
333.11084
333.11063
333.11018
333.10949
333.10854
333.10734
333.10586
333.10409
333.10199
333.09951
333.09654
333.0929
333.08824
333.08168
333.07011
333.11059
333.11039
333.10994
333.10925
333.10831
333.10711
333.10564
333.10387
333.10178
333.0993
333.09634
333.09272
333.08806
333.08151
333.06995
333.11035
333.11015
333.1097
333.10901
333.10808
333.10688
333.10542
333.10366
333.10157
333.0991
333.09615
333.09253
333.08788
333.08134
333.06979
333.11011
333.10991
333.10946
333.10878
333.10785
333.10666
333.1052
333.10345
333.10137
333.0989
333.09595
333.09234
333.0877
333.08117
333.06963
333.10987
333.10967
333.10923
333.10855
333.10762
333.10643
333.10498
333.10323
333.10116
333.0987
333.09576
333.09215
333.08752
333.081
333.06947
333.10963
333.10943
333.10899
333.10831
333.10739
333.10621
333.10476
333.10302
333.10095
333.0985
333.09556
333.09197
333.08734
333.08083
333.06931
333.10939
333.10919
333.10876
333.10808
333.10716
333.10599
333.10454
333.10281
333.10074
333.0983
333.09537
333.09178
333.08716
333.08065
333.06915
333.10916
333.10896
333.10852
333.10785
333.10694
333.10577
333.10433
333.1026
333.10054
333.0981
333.09517
333.09159
333.08698
333.08048
333.06899
333.10892
333.10873
333.10829
333.10762
333.10671
333.10554
333.10411
333.10238
333.10033
333.0979
333.09498
333.0914
333.08679
333.08031
333.06883
333.10869
333.10849
333.10806
333.1074
333.10649
333.10532
333.10389
333.10217
333.10013
333.0977
333.09479
333.09121