/*--------------------------------*- C++ -*----------------------------------*\
| =========                 |                                                 |
| \\      /  F ield         | OpenFOAM: The Open Source CFD Toolbox           |
|  \\    /   O peration     | Version:  2506                                  |
|   \\  /    A nd           | Website:  www.openfoam.com                      |
|    \\/     M anipulation  |                                                 |
\*---------------------------------------------------------------------------*/
FoamFile
{
    version     2.0;
    format      ascii;
    arch        "LSB;label=32;scalar=64";
    class       volVectorField;
    location    "24000/water";
    object      U;
}
// * * * * * * * * * * * * * * * * * * * * * * * * * * * * * * * * * * * * * //

dimensions      [0 1 -1 0 0 0 0];

internalField   nonuniform List<vector> 
6000
(
(0.25028648 -3.4193492e-05 -1.59581e-19)
(0.25028875 -7.4648812e-05 -4.4645668e-18)
(0.25029344 -0.00011804414 1.166341e-19)
(0.25030059 -0.00016540046 6.5376364e-20)
(0.25031046 -0.00021487336 -1.8212331e-19)
(0.25032332 -0.00026685039 3.3821476e-19)
(0.25033948 -0.00032192175 -7.5227221e-20)
(0.25035939 -0.00038078672 6.9382483e-20)
(0.25038356 -0.00044434477 9.0293959e-20)
(0.25041254 -0.00051362452 4.9968819e-20)
(0.25044587 -0.0005867756 -1.4586814e-19)
(0.25047643 -0.00065822056 5.1975804e-20)
(0.25046276 -0.00078466513 1.1109546e-21)
(0.25013031 -0.0015987837 1.0076181e-20)
(0.24584996 0.0019968142 7.3769872e-20)
(0.25104035 -3.7261304e-05 -2.0294447e-19)
(0.25104514 -8.989598e-05 -1.7362879e-18)
(0.2510558 -0.00014352114 6.7280151e-19)
(0.25107219 -0.00020025424 2.6235298e-19)
(0.2510947 -0.0002571822 1.0488676e-18)
(0.25112368 -0.00031440571 5.0731319e-19)
(0.25115965 -0.00037188242 -3.226576e-19)
(0.25120324 -0.00042947839 1.2748878e-20)
(0.2512551 -0.00048709454 2.322827e-19)
(0.25131538 -0.00054561245 1.3457949e-19)
(0.25138039 -0.00060405492 -1.9566675e-19)
(0.25142587 -0.00063755821 1.4340887e-20)
(0.25133175 -0.00059164843 -9.3536719e-20)
(0.25037931 -0.0014370973 1.2198769e-19)
(0.24194277 0.00099520264 1.8169149e-19)
(0.25195051 -3.6589029e-05 -1.7666903e-18)
(0.25195563 -9.0250613e-05 3.2267038e-18)
(0.25196731 -0.00014313025 1.6048515e-18)
(0.25198528 -0.00019912655 -5.2908485e-19)
(0.25200977 -0.00025508716 6.2069661e-19)
(0.25204101 -0.0003112558 -7.3326346e-19)
(0.25207932 -0.00036762123 -1.1366364e-18)
(0.25212505 -0.00042413945 -8.9508177e-19)
(0.25217823 -0.00048056787 -2.1080342e-19)
(0.25223708 -0.0005377572 1.0685272e-20)
(0.25229114 -0.00060007155 -4.7617816e-19)
(0.25229033 -0.00065419843 -4.0648329e-19)
(0.25200573 -0.00054460881 -3.7449114e-19)
(0.25014357 -0.0012195308 5.1970956e-20)
(0.23758495 0.00043820543 7.8233923e-22)
(0.25283353 -3.7446604e-05 2.0293936e-18)
(0.25283867 -9.3611088e-05 -1.2887862e-18)
(0.25285018 -0.00014906892 6.3374936e-19)
(0.25286783 -0.00020791578 1.505476e-19)
(0.25289182 -0.00026672308 1.3293039e-19)
(0.25292238 -0.00032582165 -6.2920957e-19)
(0.25295982 -0.00038519269 -6.8353217e-19)
(0.25300432 -0.00044485276 -8.0135713e-19)
(0.25305525 -0.00050441426 -1.3786888e-19)
(0.25310809 -0.00056332944 4.5170274e-19)
(0.25314261 -0.00062607506 -4.0235985e-19)
(0.25307635 -0.00069910336 -4.4140822e-19)
(0.25255493 -0.0005845712 -2.3257889e-19)
(0.24963188 -0.001063787 -5.0828595e-20)
(0.23320285 0.0001058672 -1.3203732e-19)
(0.25372643 -3.8342944e-05 1.1866944e-17)
(0.2537317 -9.6368691e-05 1.7332336e-18)
(0.25374347 -0.00015372841 1.6509183e-18)
(0.25376156 -0.00021453144 1.5175766e-18)
(0.25378616 -0.00027516439 5.435845e-19)
(0.25381749 -0.00033599427 8.9870499e-19)
(0.25385581 -0.00039694563 6.0390255e-19)
(0.25390101 -0.00045805575 8.0021112e-20)
(0.25395133 -0.00051907431 2.7243943e-19)
(0.25399821 -0.00057855465 3.9453926e-19)
(0.25400834 -0.00063773998 2.169009e-19)
(0.25386022 -0.0007177221 -9.0295465e-20)
(0.25305737 -0.00062191547 1.9682742e-20)
(0.24895451 -0.00093835859 4.7000753e-20)
(0.22897365 -8.3792337e-05 2.5156535e-20)
(0.25464474 -3.866162e-05 1.9393124e-18)
(0.25465014 -9.7320119e-05 8.7945485e-19)
(0.2546622 -0.00015516462 1.7465507e-18)
(0.25468073 -0.00021648309 8.9558255e-19)
(0.2547059 -0.00027758564 -6.3404703e-20)
(0.25473792 -0.000338881 8.4142564e-19)
(0.25477689 -0.00040025681 5.9945989e-19)
(0.25482222 -0.000461728 4.0690263e-19)
(0.25487049 -0.00052322808 2.5645317e-20)
(0.2549078 -0.000583188 1.3348063e-19)
(0.25488519 -0.00063896641 2.1766266e-19)
(0.25463685 -0.00071821651 -3.2607504e-20)
(0.25350729 -0.0006469875 -2.4149807e-20)
(0.248129 -0.00083894719 7.1586183e-20)
(0.2249409 -0.00018589273 1.0161233e-19)
(0.25557031 -3.8595293e-05 -4.5855709e-18)
(0.25557581 -9.7309347e-05 -1.6254302e-18)
(0.25558805 -0.00015511983 -5.1091859e-19)
(0.25560682 -0.00021642526 9.8394374e-19)
(0.2556323 -0.00027749359 -7.8756393e-19)
(0.25566463 -0.00033876345 2.6211403e-19)
(0.25570371 -0.00040009734 3.8132857e-19)
(0.25574825 -0.00046144626 2.5424745e-19)
(0.25579256 -0.00052279714 1.4741079e-19)
(0.25581623 -0.0005828814 4.305267e-20)
(0.25575267 -0.00063600478 -1.1724183e-20)
(0.25538743 -0.00071016267 1.5180121e-19)
(0.25388915 -0.00066107344 6.5360764e-20)
(0.24716598 -0.00076077854 6.8393823e-20)
(0.22112141 -0.00023459296 6.8653255e-20)
(0.25649134 -3.8297106e-05 3.8888786e-18)
(0.25649692 -9.6712129e-05 1.3235952e-18)
(0.25650928 -0.00015419069 1.4898405e-18)
(0.25652824 -0.00021515485 8.8310959e-19)
(0.25655393 -0.00027585718 -4.613993e-19)
(0.25658641 -0.0003367553 9.6305926e-20)
(0.25662528 -0.00039769653 2.8690743e-19)
(0.2566683 -0.00045856441 7.086988e-20)
(0.25670691 -0.00051927104 2.2110506e-19)
(0.25671305 -0.00057893859 -1.5981816e-19)
(0.25660095 -0.00063003278 -4.8107448e-20)
(0.25610359 -0.00069722485 1.3986934e-19)
(0.25419746 -0.0006651972 5.3967208e-20)
(0.24608527 -0.00069788903 5.8583404e-20)
(0.21752738 -0.00025081848 7.2767872e-20)
(0.25740382 -3.7852859e-05 4.0606646e-19)
(0.25740947 -9.5689494e-05 -1.9853059e-18)
(0.25742193 -0.00015257331 1.2922447e-18)
(0.25744104 -0.00021291358 1.9069715e-19)
(0.25746687 -0.00027297291 1.1993647e-18)
(0.25749936 -0.0003332193 2.2224411e-19)
(0.2575377 -0.00039348924 3.233229e-19)
(0.2575784 -0.00045361302 4.1632428e-19)
(0.25760945 -0.00051335259 3.7733191e-19)
(0.25759421 -0.00057212214 5.0433875e-19)
(0.25742635 -0.00062159363 3.0588184e-19)
(0.25678237 -0.00068144217 7.5239788e-20)
(0.25443121 -0.00066103685 2.6433018e-20)
(0.24490935 -0.00064561644 1.2512137e-19)
(0.21416513 -0.00024776584 1.0751767e-19)
(0.25830515 -3.7308638e-05 5.6258614e-19)
(0.25831084 -9.4372769e-05 -6.0721294e-19)
(0.25832339 -0.00015047649 -1.4605127e-19)
(0.2583426 -0.00020999612 5.1020496e-19)
(0.25836849 -0.00026922145 3.6132814e-20)
(0.25840083 -0.00032862339 4.2204215e-19)
(0.25843826 -0.00038802595 6.9105384e-20)
(0.25847573 -0.00044722018 2.6658753e-19)
(0.25849727 -0.00050579279 4.3266475e-19)
(0.25845683 -0.00056328987 3.1314969e-19)
(0.25822634 -0.00061131675 2.8455077e-19)
(0.25742154 -0.00066417743 1.8583638e-19)
(0.2545896 -0.00065044234 3.9451639e-20)
(0.24365871 -0.00060064453 9.9939253e-20)
(0.21103455 -0.00023378679 1.0571294e-19)
(0.259193 -3.6693881e-05 5.5482905e-18)
(0.25919873 -9.285746e-05 4.6624457e-18)
(0.25921134 -0.00014806165 -7.4598755e-19)
(0.25923061 -0.00020663289 8.9460034e-19)
(0.25925648 -0.0002648995 8.4692221e-19)
(0.25928848 -0.00032332972 4.216968e-19)
(0.25932457 -0.00038173097 1.5366733e-19)
(0.25935785 -0.00043986308 2.9997933e-19)
(0.25936788 -0.00049714489 1.4986754e-19)
(0.25929853 -0.00055310431 -2.4658451e-19)
(0.2589988 -0.00059970361 1.1382612e-19)
(0.25801896 -0.00064623362 6.6662692e-20)
(0.25467145 -0.00063499349 3.9367061e-20)
(0.24235144 -0.00056062195 5.6742573e-20)
(0.20813123 -0.0002141088 2.6511775e-20)
(0.26006576 -3.6034055e-05 4.6358917e-18)
(0.26007152 -9.1214285e-05 3.2755669e-18)
(0.26008417 -0.00014544281 -1.1664783e-19)
(0.26010346 -0.00020298347 6.9966535e-19)
(0.26012923 -0.00026021093 1.1062071e-18)
(0.2601607 -0.0003175869 5.1007263e-19)
(0.26019497 -0.00037489796 3.5083336e-19)
(0.26022303 -0.0004318747 4.9545058e-19)
(0.26021952 -0.00048779067 8.2575462e-20)
(0.26011767 -0.00054204301 -5.0038671e-20)
(0.25974224 -0.00058714002 1.9489073e-19)
(0.25857279 -0.00062806077 4.9662901e-20)
(0.25467557 -0.00061594005 1.2877806e-19)
(0.24100379 -0.00052390611 -1.7809127e-20)
(0.20544863 -0.00019196316 -9.0010683e-20)
(0.2609225 -3.5349633e-05 4.250584e-18)
(0.26092828 -8.9497286e-05 4.1770021e-18)
(0.26094096 -0.00014270541 -2.543885e-19)
(0.26096023 -0.00019916671 9.0194482e-20)
(0.2609858 -0.00025530722 5.1054492e-19)
(0.2610165 -0.00031157922 7.2880209e-19)
(0.26104844 -0.00036774517 3.4744106e-19)
(0.2610702 -0.00042350433 2.3818163e-19)
(0.26105114 -0.00047801113 -2.0842877e-20)
(0.26091327 -0.00053046086 2.7503902e-20)
(0.2604557 -0.00057393662 -1.608176e-20)
(0.2590814 -0.00060990566 1.0302496e-19)
(0.2546009 -0.00059424331 1.0101319e-19)
(0.23963056 -0.00048937354 -5.5243032e-20)
(0.20297926 -0.00016931833 2.7927877e-21)
(0.26176274 -3.4655538e-05 2.7412013e-18)
(0.26176854 -8.7746856e-05 4.1578708e-18)
(0.26178122 -0.00013991377 -1.6498712e-18)
(0.26180042 -0.00019527247 -4.6059001e-19)
(0.26182568 -0.00025030306 4.545675e-19)
(0.26185536 -0.00030544608 6.3713567e-19)
(0.26188442 -0.00036043768 4.5142935e-19)
(0.26189878 -0.00041494196 1.0596595e-19)
(0.26186213 -0.00046801763 -5.2141854e-20)
(0.2616848 -0.00051862213 -1.0329235e-19)
(0.26113855 -0.00056034346 -9.6733978e-20)
(0.25954316 -0.00059189152 4.6907433e-20)
(0.25444651 -0.0005706321 8.2525776e-20)
(0.23824529 -0.00045627776 6.3158801e-20)
(0.20071509 -0.00014735259 -2.0913441e-20)
(0.26258633 -3.3963061e-05 1.0801605e-18)
(0.26259213 -8.5993781e-05 1.2319056e-18)
(0.26260479 -0.00013711719 1.9766333e-18)
(0.26262388 -0.00019136968 1.7820667e-19)
(0.2626487 -0.00024528655 -1.0012268e-18)
(0.26267708 -0.00029929459 3.6249556e-19)
(0.26270267 -0.00035310243 2.3655756e-19)
(0.26270848 -0.00040633486 5.2568602e-20)
(0.26265224 -0.00045797299 -1.131743e-19)
(0.26243199 -0.00050672605 -1.8069809e-19)
(0.26179026 -0.00054656345 3.0685449e-20)
(0.25995633 -0.0005740675 8.5975111e-20)
(0.25421177 -0.00054566294 1.4019327e-19)
(0.23686046 -0.00042415214 9.2964581e-20)
(0.19864765 -0.0001267576 7.7532506e-21)
(0.26339335 -3.3281401e-05 1.1073057e-18)
(0.26339915 -8.4262742e-05 4.236022e-18)
(0.26341177 -0.0001343551 1.5756324e-18)
(0.26343068 -0.0001875135 1.0704777e-18)
(0.26345493 -0.00024032822 7.5767234e-19)
(0.26348171 -0.00029321054 1.7427238e-19)
(0.2635032 -0.00034584107 7.2974567e-20)
(0.2634993 -0.00039780175 1.4752097e-19)
(0.26342146 -0.00044800829 -9.3962661e-20)
(0.26315482 -0.00049492779 1.3859543e-19)
(0.26241041 -0.00053276478 2.3677741e-19)
(0.26031893 -0.00055643964 1.0269092e-19)
(0.2538966 -0.000519773 6.3972681e-20)
(0.23548766 -0.00039274464 -5.9481694e-21)
(0.19676807 -0.00010792878 9.4528199e-20)
(0.26418413 -3.2618313e-05 3.5428497e-18)
(0.26418991 -8.2574227e-05 4.1038207e-18)
(0.26420246 -0.00013166021 6.8674682e-19)
(0.26422112 -0.0001837496 9.546229e-19)
(0.26424465 -0.00023548649 5.8490964e-19)
(0.2642695 -0.00028726512 6.9838066e-20)
(0.26428624 -0.00033873796 9.3737981e-20)
(0.26427145 -0.00038944152 4.1423272e-19)
(0.26416998 -0.0004382328 1.7118467e-19)
(0.26385341 -0.00048335173 2.7122146e-19)
(0.26299854 -0.00051908846 2.888956e-19)
(0.26062878 -0.00053898815 1.8026872e-19)
(0.25350187 -0.00049331965 7.2349234e-20)
(0.2341376 -0.00036197184 -6.1969246e-20)
(0.19506692 -9.1079356e-05 1.3539715e-21)
(0.26495914 -3.1980325e-05 3.2048997e-18)
(0.2649649 -8.094539e-05 2.0670775e-18)
(0.26497734 -0.00012905989 1.6016528e-18)
(0.26499568 -0.00018011622 1.188764e-18)
(0.26501831 -0.00023081031 9.0266961e-19)
(0.26504088 -0.00028151807 2.4999171e-19)
(0.2650522 -0.00033186392 4.8971802e-19)
(0.2650253 -0.00038133727 2.1165096e-19)
(0.26489816 -0.00042873842 2.9031348e-19)
(0.26452796 -0.00047209828 1.3914384e-19)
(0.26355413 -0.00050565096 1.2711429e-19)
(0.2608835 -0.00052167636 2.5950804e-19)
(0.25302971 -0.00046660631 1.5560153e-19)
(0.23282016 -0.00033188327 -2.90899e-20)
(0.19353413 -7.6303786e-05 -8.0828608e-20)
(0.26571903 -3.1372765e-05 2.6914694e-18)
(0.26572475 -7.9390279e-05 1.4783536e-18)
(0.26573705 -0.00012657658 1.3714247e-19)
(0.26575498 -0.00017664472 1.2658605e-18)
(0.26577653 -0.00022633987 8.6597431e-19)
(0.26579644 -0.0002760185 4.984345e-19)
(0.26580163 -0.0003252772 3.3151926e-19)
(0.26576141 -0.00037355728 -1.347901e-20)
(0.26560652 -0.00041960061 3.4925573e-19)
(0.26517878 -0.00046124611 6.7475514e-20)
(0.26407657 -0.00049254343 -1.1622966e-20)
(0.26108058 -0.00050445572 1.5959454e-19)
(0.25248384 -0.00043989699 7.5849114e-20)
(0.23154421 -0.00030262987 4.3870381e-20)
(0.19215888 -6.3609732e-05 -5.7155843e-20)
(0.26646455 -3.0799673e-05 6.4354606e-18)
(0.26647021 -7.7919711e-05 1.5812825e-18)
(0.26648233 -0.00012422759 3.9422547e-18)
(0.26649975 -0.0001733593 2.004692e-18)
(0.26652002 -0.00022210618 -8.3532852e-19)
(0.26653688 -0.0002708044 1.0695726e-18)
(0.26653522 -0.00031902283 8.7018137e-19)
(0.26648042 -0.00036615421 8.7231422e-19)
(0.26629564 -0.00041087723 7.8516434e-19)
(0.26580617 -0.00045085191 -2.3101361e-19)
(0.26456508 -0.00047982866 5.0140566e-19)
(0.26121753 -0.00048726982 3.6718557e-19)
(0.25186982 -0.00041342264 2.3112589e-19)
(0.23031742 -0.00027443217 3.0964927e-19)
(0.1909297 -5.2932834e-05 1.5745975e-19)
(0.26719653 -3.0263687e-05 2.7382929e-18)
(0.26720212 -7.6541023e-05 -9.8975646e-19)
(0.26721401 -0.00012202465 3.1149498e-18)
(0.26723083 -0.00017027641 1.5891761e-18)
(0.2672496 -0.00021813034 8.3451346e-19)
(0.26726299 -0.00026590165 7.9108873e-19)
(0.26725373 -0.0003131315 1.123908e-18)
(0.26718309 -0.00035916374 1.1298075e-18)
(0.26696618 -0.00040260692 5.2382614e-19)
(0.26641044 -0.00044094906 -2.879977e-20)
(0.26501868 -0.00046753759 4.5765199e-19)
(0.26129202 -0.00047005901 3.254358e-19)
(0.25119506 -0.00038738325 3.4867146e-19)
(0.2291461 -0.00024754677 3.4518327e-19)
(0.18983455 -4.4145099e-05 1.8176759e-19)
(0.26791589 -2.9765992e-05 7.2647106e-19)
(0.26792138 -7.5257933e-05 -1.1468765e-18)
(0.26793299 -0.00011997377 9.7513266e-19)
(0.26794908 -0.00016740448 2.9310136e-19)
(0.26796613 -0.00021442313 1.8416355e-18)
(0.26797562 -0.00026132351 4.9476227e-19)
(0.267958 -0.00030761887 4.937735e-19)
(0.26787018 -0.00035260382 4.7272657e-19)
(0.2676188 -0.00039480805 3.9523838e-20)
(0.2669918 -0.00043154706 1.6183711e-20)
(0.26543617 -0.00045566687 -2.5228269e-20)
(0.2613021 -0.00045276643 4.0124168e-20)
(0.2504687 -0.00036194908 1.4872412e-19)
(0.22803501 -0.00022223217 6.7441312e-20)
(0.18886112 -3.7064085e-05 2.1160903e-20)
(0.26862352 -2.9306383e-05 4.9650329e-18)
(0.2686289 -7.4070661e-05 2.3996478e-18)
(0.26864017 -0.00011807532 2.8357318e-18)
(0.26865542 -0.00016474412 2.2173544e-18)
(0.26867049 -0.00021098533 1.5989374e-18)
(0.26867563 -0.000257071 1.4698485e-18)
(0.26864885 -0.00030248606 1.0314682e-18)
(0.26854251 -0.00034647515 9.4892661e-19)
(0.26825414 -0.00038747924 6.4648788e-19)
(0.26755035 -0.00042263245 4.3796196e-21)
(0.2658161 -0.00044417904 3.57678e-19)
(0.26124652 -0.00043534493 3.4683216e-19)
(0.24970133 -0.00033726333 3.0951255e-19)
(0.22698727 -0.00019871676 2.8289134e-19)
(0.18799711 -3.1466398e-05 2.1658778e-19)
(0.26932033 -2.8883461e-05 3.9418686e-19)
(0.26932558 -7.2976356e-05 1.5099565e-18)
(0.26933645 -0.00011632481 1.0073006e-18)
(0.26935072 -0.00016228909 2.4469096e-18)
(0.26936357 -0.0002078089 1.6256671e-18)
(0.26936389 -0.00025313433 1.2161544e-18)
(0.26932713 -0.0002977213 1.0278183e-18)
(0.26920083 -0.00034076321 8.9828268e-19)
(0.2688728 -0.00038060158 6.7202976e-19)
(0.26808605 -0.00041417146 4.8081673e-19)
(0.26615679 -0.00043300583 2.8686335e-19)
(0.26112496 -0.00041776402 3.6465947e-19)
(0.24890441 -0.00031344658 3.8485722e-19)
(0.22600436 -0.0001771726 3.0322386e-19)
(0.18723056 -2.7105585e-05 2.9971557e-19)
(0.27000719 -2.849491e-05 3.5666001e-18)
(0.27001228 -7.1969743e-05 4.2942257e-18)
(0.27002267 -0.00011471384 3.3515454e-18)
(0.27003582 -0.00016002771 2.3970071e-18)
(0.27004618 -0.00020487885 9.9912955e-19)
(0.27004119 -0.00024949516 1.2286119e-18)
(0.2699936 -0.00029330262 1.2198919e-18)
(0.26984584 -0.00033544136 9.5156709e-19)
(0.26947524 -0.00037414208 5.9334186e-19)
(0.2685986 -0.00040611399 3.406041e-19)
(0.26645635 -0.00042205446 4.2688111e-19)
(0.2609383 -0.00040001523 4.1521192e-19)
(0.24808975 -0.00029060213 3.7262758e-19)
(0.22508629 -0.00015769827 2.7513805e-19)
(0.18655015 -2.3732128e-05 3.0004344e-19)
(0.27068489 -2.8137825e-05 8.8097106e-18)
(0.2706898 -7.1043906e-05 3.8226949e-18)
(0.27069965 -0.00011323138 4.3455793e-18)
(0.27071153 -0.00015794462 3.253499e-18)
(0.2707191 -0.00020217545 1.262211e-18)
(0.27070829 -0.00024612933 1.958447e-18)
(0.27064898 -0.00028920108 1.7905573e-18)
(0.27047818 -0.00033047455 1.3229195e-18)
(0.27006181 -0.00036805783 1.0452436e-18)
(0.26908753 -0.00039839812 1.5158337e-19)
(0.26671278 -0.00041121649 7.5067386e-19)
(0.26068881 -0.00038211515 6.9615245e-19)
(0.24726882 -0.00026882041 4.8812272e-19)
(0.22423175 -0.00014031231 4.7940495e-19)
(0.18594537 -2.1112145e-05 4.6217748e-19)
(0.27135418 -2.7809011e-05 1.5870433e-18)
(0.27135887 -7.019104e-05 3.6043414e-18)
(0.2713681 -0.00011186497 1.9326689e-18)
(0.27137855 -0.00015602247 1.6118345e-18)
(0.27138303 -0.00019967637 1.9056399e-18)
(0.27136587 -0.00024300948 1.1074269e-18)
(0.27129391 -0.00028538386 1.1255565e-18)
(0.27109836 -0.00032582299 7.3287816e-19)
(0.27063272 -0.00036230005 5.6676929e-19)
(0.26955206 -0.00039095432 2.0315927e-19)
(0.26692403 -0.00040037783 2.9018782e-19)
(0.26038022 -0.00036410564 4.0921253e-19)
(0.24645221 -0.00024818088 2.3711578e-19)
(0.22343841 -0.00012495718 1.8710319e-19)
(0.18540672 -1.904183e-05 1.9720659e-19)
(0.27201571 -2.7505235e-05 3.0433137e-18)
(0.27202015 -6.9403098e-05 3.4069973e-18)
(0.27202866 -0.00011060176 2.4454076e-18)
(0.27203751 -0.00015424331 2.259254e-18)
(0.2720386 -0.00019735858 1.9320069e-18)
(0.27201452 -0.00024010732 1.579645e-18)
(0.27192892 -0.00028181693 1.3896791e-18)
(0.2717068 -0.00032144525 9.1178988e-19)
(0.27118802 -0.00035681747 6.0288222e-19)
(0.2699912 -0.00038370884 2.7197576e-19)
(0.26708822 -0.000389429 2.2211657e-19)
(0.26001771 -0.00034605163 4.5858804e-19)
(0.24564917 -0.00022875086 4.4864375e-19)
(0.22270325 -0.00011151161 4.1541781e-19)
(0.18492573 -1.7355842e-05 1.5510825e-19)
(0.27267005 -2.7223403e-05 2.8421875e-18)
(0.27267421 -6.8672268e-05 -3.0165954e-19)
(0.27268192 -0.00010942927 1.0779632e-18)
(0.27268898 -0.00015258973 2.5556756e-18)
(0.27268634 -0.00019519966 2.3266257e-18)
(0.27265476 -0.00023739527 1.5079464e-18)
(0.27255447 -0.00027846699 1.314588e-18)
(0.2723038 -0.00031730047 9.0548085e-19)
(0.27172757 -0.00035155883 7.6961346e-19)
(0.27040369 -0.00037658611 7.2994709e-19)
(0.26720375 -0.00037827411 2.9888173e-19)
(0.25960771 -0.00032803713 4.3406479e-19)
(0.24486735 -0.00021058183 4.014872e-19)
(0.22202277 -9.9808136e-05 4.7353555e-19)
(0.18449494 -1.5929483e-05 2.2098329e-19)
(0.27331772 -2.6960666e-05 3.7815043e-18)
(0.27332155 -6.7991273e-05 4.2020436e-18)
(0.27332837 -0.00010833587 2.7429517e-18)
(0.27333345 -0.00015104547 1.9091678e-18)
(0.27332673 -0.00019317869 1.2161776e-18)
(0.27328702 -0.00023484751 1.3270841e-18)
(0.27317093 -0.00027530269 9.5966242e-19)
(0.27288957 -0.00031334989 7.6635108e-19)
(0.27225107 -0.00034647442 5.6893664e-19)
(0.27078808 -0.00036951039 6.1066328e-19)
(0.26726952 -0.00036683813 3.7669658e-19)
(0.25915765 -0.0003101602 4.5368365e-19)
(0.24411266 -0.00019370463 2.7008398e-19)
(0.22139331 -8.9652399e-05 2.511681e-19)
(0.1841079 -1.4675687e-05 1.8893434e-19)
(0.27395916 -2.6714474e-05 7.5203195e-18)
(0.27396262 -6.7353541e-05 5.3243974e-18)
(0.27396843 -0.00010731104 4.2561377e-18)
(0.27397134 -0.00014959583 3.0373242e-18)
(0.27396016 -0.00019127671 1.4409468e-18)
(0.27391168 -0.00023244055 2.4192538e-18)
(0.2737786 -0.00027229532 1.6859955e-18)
(0.27346419 -0.00030955757 1.4143112e-18)
(0.27275806 -0.00034151676 1.0924131e-18)
(0.27114274 -0.00036240703 3.8461434e-19)
(0.26728512 -0.00035507155 6.2340211e-19)
(0.25867552 -0.00029252748 7.1827565e-19)
(0.24338933 -0.00017812521 6.3708541e-19)
(0.22081116 -8.084119e-05 4.1436584e-19)
(0.18375901 -1.3538666e-05 3.6779314e-19)
(0.27459475 -2.6482589e-05 -7.3723038e-19)
(0.2745978 -6.6753259e-05 4.3061296e-18)
(0.27460249 -0.0001063455 2.8675579e-18)
(0.274603 -0.00014822779 2.261579e-18)
(0.27458699 -0.00018947691 2.3895407e-18)
(0.27452902 -0.00023015345 1.4717383e-18)
(0.27437767 -0.00026941895 1.165102e-18)
(0.27402763 -0.00030589064 9.3723069e-19)
(0.27324789 -0.00033664079 8.0300109e-19)
(0.27146593 -0.0003552038 4.2050778e-19)
(0.26725094 -0.00034295249 2.5418113e-19)
(0.25816956 -0.00027524859 2.2104037e-19)
(0.24270004 -0.00016382254 3.5063251e-19)
(0.22027275 -7.3177107e-05 2.0167186e-19)
(0.18344349 -1.2486086e-05 2.7802952e-19)
(0.27522481 -2.6263071e-05 2.624396e-18)
(0.27522741 -6.6185366e-05 4.2530199e-18)
(0.27523087 -0.00010543114 3.7069118e-18)
(0.27522875 -0.00014693 2.5643463e-18)
(0.27520748 -0.00018776455 2.4212365e-18)
(0.2751393 -0.00022796774 1.5214845e-18)
(0.27496829 -0.00026665041 1.03252e-18)
(0.27457978 -0.00030231921 8.0172733e-19)
(0.27371976 -0.0003318036 5.5137253e-19)
(0.27175586 -0.00034783257 2.3891721e-19)
(0.26716832 -0.00033048644 2.1992597e-19)
(0.25764777 -0.0002584306 3.4978383e-19)
(0.24204621 -0.0001507494 3.9086772e-19)
(0.21977469 -6.6478882e-05 4.5259118e-19)
(0.18315725 -1.1501419e-05 2.73181e-19)
(0.27584964 -2.6054261e-05 2.2296129e-18)
(0.27585173 -6.564551e-05 7.3627563e-19)
(0.27585383 -0.00010456098 1.7191855e-18)
(0.27584885 -0.00014569263 2.0877993e-18)
(0.27582189 -0.00018612688 2.4455048e-18)
(0.2757427 -0.00022586725 1.5917196e-18)
(0.27555053 -0.00026396905 1.0144984e-18)
(0.27512041 -0.00029881615 8.1082436e-19)
(0.27417268 -0.00032696405 3.4822839e-19)
(0.27201082 -0.00034023144 5.6411216e-19)
(0.26703956 -0.00031770398 4.124063e-19)
(0.25711762 -0.00024217267 3.549179e-19)
(0.24142819 -0.00013883591 3.5283731e-19)
(0.21931381 -6.0587302e-05 3.8580071e-19)
(0.18289682 -1.0577469e-05 2.4845628e-19)
(0.27646948 -2.5854749e-05 1.1060987e-18)
(0.27647102 -6.512998e-05 3.4030947e-18)
(0.27647162 -0.00010372909 2.749973e-18)
(0.27646352 -0.0001445073 1.850837e-18)
(0.2764304 -0.00018455289 1.2444175e-18)
(0.27633935 -0.00022383791 1.5408865e-18)
(0.27612438 -0.00026135648 1.2901662e-18)
(0.27564919 -0.00029535665 7.8376546e-19)
(0.27460555 -0.00032208226 5.2901256e-19)
(0.27222923 -0.0003323472 7.456983e-19)
(0.26686787 -0.00030465719 4.8163191e-19)
(0.25658579 -0.00022656125 2.8774227e-19)
(0.2408456 -0.00012799526 3.9256823e-19)
(0.21888719 -5.5367365e-05 2.5514973e-19)
(0.18265925 -9.7115786e-06 2.7232642e-19)
(0.27708455 -2.5663344e-05 8.7088868e-18)
(0.27708548 -6.463563e-05 4.9236597e-18)
(0.27708444 -0.0001029304 4.7790704e-18)
(0.27707295 -0.00014336686 3.5591251e-18)
(0.27703318 -0.00018303314 1.453409e-18)
(0.27692935 -0.00022186743 2.035196e-18)
(0.2766898 -0.00025879623 2.1855835e-18)
(0.27616569 -0.00029191777 1.472633e-18)
(0.27501711 -0.00031711916 1.1529686e-18)
(0.27240981 -0.00032413774 5.0671457e-19)
(0.26665728 -0.00029141517 8.323554e-19)
(0.256058 -0.00021166603 7.5100196e-19)
(0.24029748 -0.00011813047 9.4173133e-19)
(0.21849214 -5.0707642e-05 7.8728164e-19)
(0.18244204 -8.9025326e-06 5.0271937e-19)
(0.27769504 -2.5479044e-05 1.6944155e-18)
(0.27769529 -6.4159806e-05 4.3367485e-18)
(0.27769247 -0.00010216064 3.3735897e-18)
(0.27767729 -0.00014226521 2.1115648e-18)
(0.27763035 -0.0001815595 2.5238343e-18)
(0.27751275 -0.00021994503 1.4708207e-18)
(0.27724666 -0.00025627339 1.425862e-18)
(0.27666938 -0.00028847796 9.6554382e-19)
(0.275406 -0.00031203634 5.8557656e-19)
(0.27255164 -0.0003155742 3.3038687e-19)
(0.26641246 -0.00027805925 3.3563272e-19)
(0.25553894 -0.0001975371 3.8328691e-19)
(0.23978254 -0.00010914112 6.7831884e-19)
(0.21812621 -4.651786e-05 5.2266745e-19)
(0.18224308 -8.1488537e-06 3.6090069e-19)
(0.27830111 -2.5301005e-05 1.9402791e-18)
(0.27830062 -6.3700268e-05 3.8779276e-18)
(0.27829586 -0.0001014162 3.2201812e-18)
(0.2782767 -0.00014119716 2.6265152e-18)
(0.278222 -0.00018012493 2.6549294e-18)
(0.27808956 -0.00021806116 1.7676922e-18)
(0.2777948 -0.00025377436 1.1051907e-18)
(0.27715962 -0.0002850166 1.035144e-18)
(0.27577079 -0.00030679609 8.0459952e-19)
(0.27265429 -0.00030664248 3.817279e-19)
(0.26613848 -0.00026467813 2.6366541e-19)
(0.2550323 -0.00018420368 4.6669382e-19)
(0.23929925 -0.00010092916 5.655428e-19)
(0.21778713 -4.2725645e-05 4.0275435e-19)
(0.18206056 -7.4481429e-06 3.2029492e-19)
(0.27890291 -2.5128516e-05 8.1648972e-19)
(0.27890162 -6.3255127e-05 1.1713203e-18)
(0.27889474 -0.00010069401 2.087796e-18)
(0.27887126 -0.00014015826 2.8484537e-18)
(0.27880821 -0.00017872332 2.4135331e-18)
(0.27865976 -0.00021620724 1.4443401e-18)
(0.27833397 -0.00025128651 1.0902772e-18)
(0.27763569 -0.00028151345 9.9891306e-19)
(0.27611001 -0.00030136189 1.0288254e-18)
(0.2727179 -0.00029734386 8.4343229e-19)
(0.26584062 -0.00025136317 6.1995729e-19)
(0.25454084 -0.0001716744 4.610391e-19)
(0.23884602 -9.340316e-05 5.2338842e-19)
(0.21747286 -3.9273088e-05 4.4461821e-19)
(0.18189296 -6.797033e-06 3.1005742e-19)
(0.27950056 -2.4960972e-05 -3.485494e-18)
(0.2794984 -6.2822774e-05 3.1508949e-18)
(0.27948922 -9.9991431e-05 2.5038393e-18)
(0.27946108 -0.00013914466 1.2376582e-18)
(0.279389 -0.00017734922 2.0539875e-18)
(0.27922329 -0.00021437542 7.1310889e-19)
(0.27886389 -0.00024879793 6.3539444e-19)
(0.27809674 -0.00027794828 3.9728674e-19)
(0.27642222 -0.00029569921 4.7631701e-19)
(0.27274323 -0.00028769474 8.3890607e-19)
(0.2655241 -0.00023820406 4.2014201e-19)
(0.25406651 -0.00015993912 1.1655763e-19)
(0.23842119 -8.6481052e-05 5.3692222e-20)
(0.21718151 -3.6113613e-05 1.8243088e-19)
(0.18173897 -6.1914742e-06 1.738119e-19)
(0.28009418 -2.4797856e-05 2.7303508e-18)
(0.28009107 -6.2401833e-05 3.6469125e-18)
(0.28007941 -9.9306213e-05 3.117583e-18)
(0.28004623 -0.00013815299 1.3054966e-18)
(0.27996442 -0.00017599777 2.1207203e-18)
(0.27978006 -0.00021255837 7.6548418e-19)
(0.2793842 -0.00024629715 4.6246877e-19)
(0.27854186 -0.00027430051 6.4654992e-19)
(0.27670605 -0.00028977676 3.4385591e-19)
(0.27273166 -0.0002777256 7.3877098e-19)
(0.26519392 -0.00022528491 2.4448154e-19)
(0.25361059 -0.00014897206 9.9048595e-20)
(0.23802316 -8.0091232e-05 2.6781278e-20)
(0.21691137 -3.320934e-05 1.601149e-19)
(0.18159747 -5.6270982e-06 1.7513377e-19)
(0.28068388 -2.4638721e-05 4.3104465e-18)
(0.28067974 -6.1991114e-05 4.6526468e-18)
(0.28066539 -9.8636369e-05 3.0010561e-18)
(0.28062676 -0.00013718022 1.5224461e-18)
(0.28053445 -0.00017466447 2.0104949e-18)
(0.28032993 -0.00021074911 1.1016052e-18)
(0.27989449 -0.00024377295 5.8856348e-19)
(0.27897002 -0.0002705489 6.8781812e-19)
(0.27696025 -0.00028356785 1.7161563e-19)
(0.27268518 -0.00026747915 4.0177769e-19)
(0.26485469 -0.00021268092 2.765644e-19)
(0.25317379 -0.00013873548 2.6129623e-19)
(0.23765034 -7.4172516e-05 1.9718435e-20)
(0.2166609 -3.0529031e-05 4.8821398e-20)
(0.18146749 -5.0995659e-06 1.434757e-19)
(0.28126974 -2.4483172e-05 2.5984024e-18)
(0.28126449 -6.1589567e-05 5.9259271e-18)
(0.28124722 -9.7980135e-05 3.2553053e-18)
(0.28120271 -0.00013622363 7.3989875e-19)
(0.28109907 -0.00017334514 7.1960175e-19)
(0.28087275 -0.00020894082 5.6952657e-19)
(0.28039427 -0.00024121406 9.9657409e-20)
(0.27938014 -0.00026667151 -1.3305814e-19)
(0.27718382 -0.00027705191 -1.4940982e-19)
(0.27260633 -0.00025700811 4.9294848e-20)
(0.26451052 -0.00020045586 -1.5021779e-19)
(0.25275643 -0.00012918378 -2.1277469e-19)
(0.23730122 -6.8673275e-05 -4.468302e-19)
(0.21642866 -2.804656e-05 -2.5020299e-19)
(0.18134818 -4.6048127e-06 -1.0399283e-19)
(0.28185185 -2.4330856e-05 4.0289873e-18)
(0.28184539 -6.119625e-05 5.932831e-18)
(0.28182498 -9.7335907e-05 2.9306013e-18)
(0.28177412 -0.00013528067 1.1617625e-18)
(0.28165823 -0.00017203573 6.0512924e-19)
(0.2814083 -0.00020712676 2.4846151e-19)
(0.28088299 -0.00023860899 -1.0865919e-19)
(0.27977106 -0.0002626457 -1.4061424e-19)
(0.27737601 -0.00027021574 -3.6240441e-20)
(0.27249806 -0.00024637257 1.5829848e-20)
(0.26416497 -0.0001886604 -3.0441447e-19)
(0.2523585 -0.00012026722 -4.4922534e-19)
(0.23697438 -6.3550126e-05 -4.7172703e-19)
(0.21621337 -2.5739816e-05 -2.365438e-19)
(0.18123881 -4.1392045e-06 -1.4494328e-19)
(0.28243029 -2.4181448e-05 5.9683249e-18)
(0.28242252 -6.0810308e-05 5.9030097e-18)
(0.28239871 -9.6702197e-05 3.9701328e-18)
(0.28234099 -0.00013434892 3.0724776e-18)
(0.28221186 -0.00017073227 1.849922e-18)
(0.28193636 -0.00020530013 8.8884979e-19)
(0.28136003 -0.00023594579 6.5319516e-19)
(0.2801416 -0.00025844846 5.7438212e-19)
(0.27753642 -0.00026305461 5.4518964e-19)
(0.27236366 -0.00023563725 -1.4932733e-19)
(0.26382105 -0.00017733136 2.9482907e-20)
(0.25197976 -0.0001119352 2.3456492e-19)
(0.23666845 -5.8766491e-05 1.5494502e-19)
(0.21601387 -2.358992e-05 1.2592763e-19)
(0.1811387 -3.6995982e-06 1.1310462e-19)
(0.28300512 -2.4034647e-05 2.720541e-18)
(0.28299594 -6.0430938e-05 1.4448433e-18)
(0.28296845 -9.6077596e-05 4.0993292e-18)
(0.28290332 -0.00013342601 2.7588594e-18)
(0.28275987 -0.00016943078 1.9017977e-18)
(0.28245663 -0.00020345398 1.0247047e-18)
(0.28182471 -0.00023321186 7.8031079e-19)
(0.28049057 -0.0002540569 3.8242392e-19)
(0.27766504 -0.00025557285 5.5522234e-19)
(0.27220658 -0.0002248688 4.3904112e-19)
(0.26348123 -0.00016649191 1.5866944e-19)
(0.25161982 -0.00010413863 1.9170514e-19)
(0.23638216 -5.4291232e-05 2.3160343e-19)
(0.21582908 -2.1580661e-05 5.897335e-20)
(0.18104728 -3.2833429e-06 1.1354958e-19)
(0.2835764 -2.3890166e-05 1.7724977e-18)
(0.28356569 -6.0057378e-05 1.740353e-18)
(0.28353424 -9.5460738e-05 2.9930617e-18)
(0.2834611 -0.00013250962 2.6648554e-18)
(0.28330215 -0.00016812719 2.0581742e-18)
(0.28296879 -0.00020158114 1.1591002e-18)