/*--------------------------------*- C++ -*----------------------------------*\
| =========                 |                                                 |
| \\      /  F ield         | OpenFOAM: The Open Source CFD Toolbox           |
|  \\    /   O peration     | Version:  2506                                  |
|   \\  /    A nd           | Website:  www.openfoam.com                      |
|    \\/     M anipulation  |                                                 |
\*---------------------------------------------------------------------------*/
FoamFile
{
    version     2.0;
    format      ascii;
    arch        "LSB;label=32;scalar=64";
    class       volScalarField;
    location    "12000/water";
    object      alphat;
}
// * * * * * * * * * * * * * * * * * * * * * * * * * * * * * * * * * * * * * //

dimensions      [1 -1 -1 0 0 0 0];

internalField   nonuniform List<scalar> 
1000
(
0.038690245
0.038689577
0.038688046
0.038679676
0.038634252
0.038395956
0.037190881
0.031863289
0.019099264
0.016301307
0.036437656
0.036436968
0.036430539
0.036397696
0.036243742
0.035561448
0.032798674
0.024476361
0.014644257
0.017654592
0.034756095
0.034752687
0.034735392
0.034658264
0.034338315
0.033096043
0.02891433
0.020078536
0.014287396
0.017671293
0.033455039
0.033447371
0.03341324
0.03327659
0.032760731
0.03094011
0.025769932
0.018272068
0.015952056
0.017301529
0.032418332
0.032405139
0.032350677
0.032150526
0.031437435
0.029070393
0.023556175
0.018635936
0.018861632
0.016925717
0.031571667
0.031552637
0.031479595
0.031226163
0.030328127
0.02748531
0.02255521
0.020803834
0.022278957
0.016666262
0.030866455
0.030843487
0.030761491
0.030477931
0.029402069
0.026292258
0.023061994
0.024244017
0.025541398
0.01652522
0.03027085
0.030249443
0.03017814
0.029894435
0.028644208
0.025787335
0.025138426
0.028280495
0.028304963
0.016463213
0.029764731
0.029755532
0.029725641
0.029468546
0.028106913
0.026356948
0.028508247
0.032334482
0.0305192
0.016442689
0.029337061
0.029357523
0.029409742
0.029196648
0.027980876
0.028237228
0.032681262
0.036080736
0.032267633
0.016440711
0.028984751
0.029060637
0.029241334
0.029099568
0.028583481
0.031375109
0.037164885
0.039413814
0.033659273
0.01644641
0.028712548
0.02887871
0.029233179
0.02927043
0.030215361
0.035478692
0.041608897
0.042341735
0.034787827
0.016455615
0.028533645
0.028833101
0.029403432
0.029913009
0.03300276
0.040161445
0.045828143
0.044910588
0.035723398
0.016467074
0.028470742
0.028950984
0.029795678
0.031303758
0.036852038
0.045075381
0.049751508
0.047172256
0.036515351
0.016480524
0.02855714
0.02926408
0.030516073
0.033675733
0.041511856
0.049976983
0.053365691
0.049173976
0.037197778
0.01649591
0.028837309
0.029812396
0.031757502
0.037113977
0.04667622
0.054726028
0.056681781
0.050955511
0.037793727
0.016513134
0.029366693
0.030660692
0.033764575
0.041531108
0.052071027
0.059252916
0.059719649
0.052547861
0.038312959
0.016531937
0.030212391
0.031928273
0.036741889
0.046714598
0.057495291
0.06352731
0.062500773
0.053971588
0.038771763
0.016552025
0.031460534
0.033808257
0.040769236
0.052403258
0.062820438
0.067538824
0.065043875
0.05524997
0.039180799
0.016573204
0.033237329
0.036537774
0.045775491
0.058353671
0.067969813
0.071286963
0.067367526
0.056402438
0.039547847
0.016595308
0.035735168
0.040316628
0.051571029
0.064374717
0.072897431
0.07477254
0.069492175
0.057443777
0.039878865
0.016618161
0.039205981
0.045224986
0.057909333
0.070330212
0.077571259
0.078005491
0.071434689
0.05838587
0.040178179
0.016641571
0.043887941
0.051189992
0.064545152
0.076123258
0.081973155
0.080996766
0.073208698
0.059238016
0.0404489
0.016665341
0.049891762
0.058009011
0.071267367
0.081682469
0.086094242
0.083754804
0.074824778
0.060007149
0.040693151
0.01668927
0.057119654
0.065403994
0.077905549
0.086957359
0.089927718
0.086285038
0.07629028
0.060697999
0.040912201
0.016713148
0.065267505
0.073076558
0.084332835
0.091910199
0.093465088
0.088589422
0.077609384
0.061313276
0.04110656
0.016736754
0.073906309
0.080754325
0.090454416
0.096507667
0.096695976
0.09066666
0.07878344
0.061853947
0.04127611
0.016759844
0.082592487
0.088207438
0.096193915
0.10072083
0.099609201
0.092513185
0.079811685
0.062319676
0.041420279
0.016782159
0.090953484
0.095254157
0.10149044
0.10452641
0.10219476
0.094124753
0.080692312
0.06270942
0.041538271
0.016803418
0.098725676
0.1017616
0.10629861
0.10790856
0.10444609
0.095498354
0.081423772
0.063022166
0.041629362
0.01682334
0.105753
0.10764359
0.11058943
0.11086038
0.10636211
0.096634038
0.082006106
0.063257712
0.041693206
0.016841651
0.11196571
0.11285576
0.11435056
0.11338469
0.10794843
0.097536292
0.08244206
0.063417353
0.041730126
0.016858116
0.11735486
0.11738848
0.11758557
0.11549384
0.10921772
0.098214717
0.082737765
0.063504345
0.041741295
0.016872556
0.1219505
0.1212588
0.1203119
0.11720878
0.11018919
0.098683948
0.082902872
0.063524041
0.041728788
0.016884866
0.12580561
0.1245027
0.12255818
0.11855737
0.11088745
0.098962912
0.082950156
0.063483688
0.04169548
0.016895021
0.12898519
0.12716828
0.12436118
0.11957252
0.11134085
0.099073653
0.082894728
0.063391962
0.04164483
0.016903075
0.13155919
0.1293104
0.12576277
0.12029013
0.11157993
0.09903998
0.082753058
0.063258356
0.041580605
0.016909149
0.13359796
0.13098658
0.12680731
0.1207473
0.11163581
0.098886186
0.082541992
0.063092562
0.041506602
0.016913414
0.13516952
0.1322541
0.12753955
0.12098086
0.11153901
0.098635976
0.082277924
0.062903938
0.041426427
0.016916073
0.1363379
0.13316809
0.12800304
0.12102625
0.1113185
0.09831168
0.081976172
0.062701109
0.041343325
0.016917345
0.13716226
0.13378029
0.12823911
0.12091679
0.11100114
0.097933723
0.081650559
0.06249171
0.041260084
0.016917456
0.1376965
0.13413842
0.12828614
0.12068315
0.11061125
0.097520314
0.08131317
0.062282243
0.041178995
0.016916622
0.13798918
0.13428585
0.12817921
0.12035309
0.11017045
0.097087279
0.080974242
0.062078027
0.041101839
0.016915049
0.13808361
0.13426147
0.12794987
0.1199513
0.10969756
0.096648023
0.080642147
0.061883216
0.041029908
0.01691292
0.13801804
0.13409979
0.12762611
0.11949941
0.10920862
0.096213539
0.080323369
0.061700595
0.040962978
0.016910385
0.13782596
0.13383107
0.12723243
0.11901598
0.10871695
0.095792483
0.080022501
0.061531219
0.040902173
0.016907571
0.1375364
0.13348159
0.12678995
0.11851669
0.10823328
0.095391251
0.07974204
0.061377142
0.040847948
0.016904601
0.13717434
0.13307392
0.12631667
0.11801448
0.10776593
0.095013935
0.079485061
0.06123913
0.040800456
0.016901577
0.13676111
0.13262729
0.12582767
0.11751974
0.10732075
0.09466479
0.079252996
0.061117396
0.040759613
0.016898584
0.13631468
0.13215777
0.12533519
0.11704039
0.10690348
0.094346241
0.079046398
0.061011714
0.040725158
0.016895685
0.13584995
0.13167852
0.12484934
0.11658383
0.10651785
0.094059547
0.078865136
0.060921505
0.0406967
0.016892931
0.13537925
0.13120076
0.12437891
0.11615536
0.10616622
0.093805023
0.078708511
0.060845918
0.040673764
0.016890355
0.13491303
0.13073383
0.1239307
0.11575875
0.10584975
0.0935822
0.078575376
0.060783899
0.040655822
0.016887982
0.13445977
0.13028515
0.12350977
0.11539634
0.10556865
0.093389979
0.078464247
0.060734265
0.04064232
0.016885823
0.13402614
0.1298604
0.1231197
0.11506936
0.10532228
0.093226788
0.078373421
0.060695772
0.04063271
0.016883884
0.13361723
0.12946376
0.12276278
0.11477808
0.10510945
0.093090729
0.078301071
0.060667165
0.040626464
0.016882165
0.13323673
0.12909808
0.12244025
0.11452202
0.10492847
0.092979696
0.078245329
0.060647222
0.040623088
0.01688066
0.13288716
0.12876517
0.1221525
0.11430008
0.10477733
0.092891464
0.078204333
0.060634774
0.040622125
0.01687936
0.13257
0.12846588
0.12189914
0.11411071
0.1046538
0.09282375
0.078176266
0.060628716
0.040623153
0.016878257
0.13228585
0.12820026
0.1216792
0.11395198
0.10455548
0.092774265
0.078159372
0.060628014
0.040625787
0.016877336
0.13203461
0.12796771
0.12149124
0.11382168
0.10447988
0.092740747
0.078151978
0.060631707
0.040629679
0.016876583
0.13181552
0.1277671
0.1213334
0.11371741
0.10442447
0.092721011
0.078152516
0.060638919
0.040634518
0.016875984
0.13162734
0.12759685
0.12120355
0.11363667
0.10438679
0.092712981
0.078159541
0.060648863
0.040640033
0.016875523
0.13146843
0.12745503
0.12109937
0.11357691
0.10436443
0.09271472
0.07817174
0.060660842
0.04064599
0.016875184
0.13133685
0.12733953
0.12101844
0.11353562
0.10435511
0.092724444
0.078187937
0.060674249
0.040652189
0.016874952
0.13123046
0.12724804
0.1209583
0.11351037
0.1043567
0.092740527
0.078207086
0.060688554
0.040658461
0.016874814
0.13114699
0.1271782
0.12091649
0.11349881
0.10436722
0.092761503
0.078228267
0.060703305
0.040664666
0.016874754
0.1310841
0.12712759
0.12089061
0.11349875
0.10438485
0.092786066
0.078250682
0.060718121
0.04067069
0.016874761
0.13103944
0.12709387
0.12087837
0.11350815
0.10440798
0.092813076
0.078273655
0.060732688
0.040676442
0.016874821
0.13101073
0.12707474
0.12087762
0.11352513
0.10443516
0.092841552
0.078296625
0.060746761
0.040681858
0.016874925
0.13099576
0.12706805
0.12088635
0.11354803
0.10446513
0.092870669
0.078319137
0.060760148
0.040686892
0.016875063
0.13099244
0.12707175
0.12090273
0.11357535
0.1044968
0.092899736
0.078340823
0.060772698
0.040691465
0.016875225
0.13099882
0.12708397
0.1209251
0.11360576
0.10452923
0.092928172
0.078361379
0.060784257
0.040695559
0.016875405
0.13101306
0.12710297
0.12095194
0.11363809
0.10456163
0.092955491
0.078380543
0.060794758
0.040699193
0.016875593
0.13103349
0.12712713
0.12098189
0.11367132
0.1045933
0.09298128
0.078398142
0.060804189
0.040702381
0.016875787
0.13105856
0.12715503
0.12101376
0.11370457
0.10462366
0.09300524
0.078414107
0.060812544
0.040705141
0.016875979
0.13108689
0.1271854
0.1210465
0.11373708
0.10465228
0.093027217
0.078428395
0.060819843
0.040707494
0.016876167
0.1311173
0.12721712
0.12107923
0.11376829
0.10467889
0.093047114
0.078441014
0.060826129
0.04070947
0.016876348
0.13114873
0.12724925
0.12111127
0.11379781
0.10470332
0.093064905
0.078452015
0.060831464
0.040711098
0.016876519
0.13118034
0.12728107
0.1211421
0.11382535
0.10472548
0.093080622
0.078461478
0.060835919
0.040712414
0.016876679
0.13121147
0.127312
0.12117134
0.11385074
0.10474535
0.093094334
0.078469501
0.060839571
0.040713451
0.016876827
0.13124158
0.12734159
0.12119868
0.11387385
0.10476293
0.09310613
0.078476186
0.060842495
0.04071424
0.016876963
0.13127024
0.12736946
0.1212239
0.11389462
0.10477828
0.093116109
0.078481634
0.060844761
0.040714807
0.016877085
0.1312971
0.12739535
0.12124686
0.11391301
0.10479147
0.093124376
0.078485942
0.060846432
0.040715177
0.016877195
0.1313219
0.12741903
0.12126744
0.11392904
0.10480257
0.093131046
0.078489213
0.060847571
0.040715374
0.01687729
0.13134447
0.12744038
0.12128562
0.11394278
0.10481172
0.093136252
0.078491553
0.060848244
0.040715422
0.016877372
0.1313647
0.12745936
0.12130143
0.11395435
0.10481907
0.093140143
0.078493077
0.06084852
0.040715347
0.01687744
0.13138258
0.12747598
0.12131497
0.11396389
0.10482479
0.093142884
0.078493908
0.060848467
0.040715175
0.016877497
0.13139819
0.12749034
0.12132639
0.11397159
0.10482908
0.093144641
0.078494165
0.060848155
0.04071493
0.016877543
0.13141165
0.12750259
0.12133586
0.11397766
0.10483214
0.093145574
0.078493961
0.060847644
0.040714634
0.016877579
0.1314231
0.12751289
0.12134357
0.11398228
0.10483413
0.093145826
0.078493391
0.060846986
0.040714304
0.016877608
0.13143271
0.1275214
0.12134969
0.11398564
0.10483522
0.093145516
0.078492533
0.06084622
0.040713951
0.016877629
0.13144062
0.1275283
0.1213544
0.11398789
0.10483554
0.093144744
0.07849145
0.060845377
0.040713586
0.016877644
0.131447
0.12753371
0.12135784
0.11398917
0.10483521
0.093143598
0.078490196
0.060844482
0.040713214
0.016877653
0.13145199
0.12753781
0.12136016
0.11398961
0.10483434
0.093142158
0.078488818
0.060843558
0.040712843
0.016877656
0.13145573
0.12754075
0.12136151
0.11398937
0.10483305
0.093140505
0.078487368
0.060842629
0.040712481
0.016877656
0.13145839
0.12754267
0.12136206
0.11398858
0.10483145
0.093138721
0.078485893
0.060841718
0.040712134
0.016877651
0.13146014
0.12754377
0.12136197
0.11398737
0.10482964
0.093136883
0.078484441
0.060840848
0.040711811
0.016877644
0.13146115
0.1275442
0.12136138
0.11398589
0.10482773
0.093135057
0.078483051
0.060840037
0.040711517
0.016877636
0.13146158
0.12754412
0.12136044
0.11398424
0.1048258
0.093133291
0.078481745
0.060839292
0.040711252
0.016877626
)
;

boundaryField
{
    water_inlet
    {
        type            calculated;
        value           uniform 0.041850807;
    }
    water_outlet
    {
        type            calculated;
        value           nonuniform List<scalar> 10(0.13146158 0.12754412 0.12136044 0.11398424 0.1048258 0.093133291 0.078481745 0.060839292 0.040711252 0.016877626);
    }
    water_wedge1
    {
        type            wedge;
    }
    water_wedge2
    {
        type            wedge;
    }
    water_to_rock
    {
        type            compressible::alphatWallFunction;
        value           nonuniform List<scalar> 
100
(
0.0020384971
0.0022594581
0.0022621707
0.0022020355
0.002140741
0.0020983185
0.0020752203
0.0020650579
0.0020616932
0.0020613685
0.0020623026
0.0020638119
0.0020656907
0.0020678958
0.0020704178
0.0020732404
0.0020763213
0.0020796125
0.0020830819
0.0020867022
0.0020904445
0.0020942774
0.0020981686
0.0021020849
0.0021059919
0.0021098534
0.0021136301
0.0021172793
0.0021207557
0.0021240128
0.002127006
0.0021296969
0.0021320563
0.0021340674
0.0021357265
0.0021370426
0.0021380351
0.0021387319
0.0021391661
0.0021393738
0.0021393917
0.0021392556
0.0021389987
0.0021386511
0.0021382371
0.0021377774
0.0021372919
0.0021367977
0.0021363086
0.0021358351
0.0021353852
0.0021349646
0.0021345768
0.0021342241
0.0021339072
0.0021336262
0.0021333802
0.0021331679
0.0021329877
0.0021328373
0.0021327144
0.0021326166
0.0021325412
0.0021324858
0.002132448
0.0021324253
0.0021324156
0.0021324166
0.0021324265
0.0021324436
0.0021324662
0.0021324928
0.0021325221
0.002132553
0.0021325844
0.0021326158
0.0021326464
0.0021326759
0.0021327038
0.00213273
0.0021327543
0.0021327765
0.0021327964
0.0021328141
0.0021328296
0.0021328428
0.002132854
0.0021328633
0.0021328709
0.002132877
0.0021328817
0.0021328853
0.0021328877
0.0021328892
0.0021328898
0.0021328897
0.0021328891
0.0021328881
0.0021328869
0.0021328855
)
;
    }
}


// ************************************************************************* //
