/*--------------------------------*- C++ -*----------------------------------*\
| =========                 |                                                 |
| \\      /  F ield         | OpenFOAM: The Open Source CFD Toolbox           |
|  \\    /   O peration     | Version:  2506                                  |
|   \\  /    A nd           | Website:  www.openfoam.com                      |
|    \\/     M anipulation  |                                                 |
\*---------------------------------------------------------------------------*/
FoamFile
{
    version     2.0;
    format      ascii;
    arch        "LSB;label=32;scalar=64";
    class       volScalarField;
    location    "12000/water";
    object      epsilon;
}
// * * * * * * * * * * * * * * * * * * * * * * * * * * * * * * * * * * * * * //

dimensions      [0 2 -3 0 0 0 0];

internalField   nonuniform List<scalar> 
1000
(
7.2399316e-05
7.2397808e-05
7.2397502e-05
7.2398682e-05
7.2424146e-05
7.2686938e-05
7.4736184e-05
8.8973294e-05
0.00019794853
0.0013048048
4.7739543e-05
4.7745807e-05
4.7746167e-05
4.7748745e-05
4.7810065e-05
4.8371229e-05
5.2145897e-05
7.5319321e-05
0.00023607339
0.0016574915
3.3261229e-05
3.326441e-05
3.3263962e-05
3.3272039e-05
3.3396639e-05
3.4348942e-05
3.9973148e-05
7.1502112e-05
0.00026549983
0.0016622
2.4212884e-05
2.4213778e-05
2.421353e-05
2.4236018e-05
2.4468828e-05
2.5979963e-05
3.4086691e-05
7.6375233e-05
0.00030233588
0.0015600258
1.8263229e-05
1.8263302e-05
1.8265922e-05
1.8318446e-05
1.8730723e-05
2.1090731e-05
3.2935668e-05
9.0423573e-05
0.00035053664
0.0014605598
1.4183053e-05
1.4183388e-05
1.4193787e-05
1.4301413e-05
1.5003317e-05
1.867816e-05
3.616804e-05
0.00011337738
0.00040230509
0.0013944165
1.1285033e-05
1.1287109e-05
1.1313191e-05
1.1514086e-05
1.2672041e-05
1.8360593e-05
4.3853963e-05
0.00014255029
0.00044702245
0.0013593133
9.1651308e-06
9.1712237e-06
9.2251467e-06
9.5765139e-06
1.1437649e-05
2.0107105e-05
5.5827956e-05
0.00017322833
0.00047957496
0.0013440703
7.5754962e-06
7.5890767e-06
7.6892448e-06
8.2761006e-06
1.1198196e-05
2.4041158e-05
7.118694e-05
0.00020099058
0.00050080761
0.0013390505
6.3585386e-06
6.3848727e-06
6.5589456e-06
7.5064214e-06
1.1984519e-05
3.0236103e-05
8.8277494e-05
0.00022355951
0.00051393082
0.0013385668
5.4111025e-06
5.4581716e-06
5.7474939e-06
7.2369287e-06
1.3906662e-05
3.8515406e-05
0.00010524316
0.0002407831
0.00052197901
0.0013399585
4.6642398e-06
4.7441301e-06
5.210052e-06
7.4969374e-06
1.7086953e-05
4.835544e-05
0.00012068225
0.00025359525
0.00052708021
0.0013422096
4.0714678e-06
4.20244e-06
4.9349789e-06
8.3622451e-06
2.1575376e-05
5.8975358e-05
0.00013393049
0.00026313403
0.0005305525
0.0013450161
3.6019036e-06
3.811413e-06
4.9402422e-06
9.9350939e-06
2.7272145e-05
6.9567019e-05
0.00014492633
0.00027035447
0.00053316298
0.001348315
3.2363932e-06
3.5653608e-06
5.271553e-06
1.2311444e-05
3.3901669e-05
7.9510735e-05
0.00015392462
0.00027595658
0.00053534124
0.0013520949
2.9656642e-06
3.4742252e-06
5.998416e-06
1.5537507e-05
4.1062742e-05
8.8461053e-05
0.00016127374
0.0002804256
0.00053731697
0.0013563343
2.7900128e-06
3.5645555e-06
7.2040784e-06
1.9569977e-05
4.8330063e-05
9.6307053e-05
0.00016730383
0.00028408921
0.00053917769
0.0013609724
2.7202641e-06
3.8804165e-06
8.9663933e-06
2.426142e-05
5.5349988e-05
0.00010308378
0.0001722923
0.00028715785
0.00054093684
0.0013659396
2.7797345e-06
4.481957e-06
1.1330788e-05
2.9383018e-05
6.1887435e-05
0.0001088937
0.00017645195
0.00028975381
0.00054267242
0.0013711897
3.006557e-06
5.4386789e-06
1.4283577e-05
3.4675001e-05
6.7820809e-05
0.00011385657
0.00017993849
0.0002919803
0.00054443428
0.0013766835
3.4547721e-06
6.8148253e-06
1.7738587e-05
3.9899693e-05
7.311182e-05
0.00011808668
0.00018285385
0.00029394148
0.00054623638
0.0013823788
4.1911212e-06
8.6475654e-06
2.1546205e-05
4.4874703e-05
7.7769153e-05
0.00012165879
0.00018531787
0.0002956974
0.00054807375
0.0013882295
5.2835475e-06
1.0924823e-05
2.5521719e-05
4.947804e-05
8.1803681e-05
0.00012466942
0.00018741283
0.00029728399
0.00054993262
0.0013941872
6.7798701e-06
1.3574382e-05
2.9480255e-05
5.3622579e-05
8.5253151e-05
0.00012719935
0.00018919525
0.00029872111
0.00055179409
0.0014002015
8.6831757e-06
1.6474028e-05
3.3250002e-05
5.7259552e-05
8.8167088e-05
0.00012930777
0.00019070236
0.00030001691
0.00055363542
0.0014062199
1.0937757e-05
1.9464192e-05
3.6694126e-05
6.0377195e-05
9.0586633e-05
0.00013103656
0.00019195679
0.00030117073
0.0005554306
0.001412186
1.3423206e-05
2.2384292e-05
3.9726961e-05
6.2977864e-05
9.2544765e-05
0.00013241419
0.00019297019
0.00030217519
0.00055715069
0.0014180386
1.5988057e-05
2.5103471e-05
4.2303144e-05
6.5074393e-05
9.4068647e-05
0.00013345982
0.00019374673
0.00030301847
0.00055876468
0.0014237102
1.8484493e-05
2.7531368e-05
4.4410695e-05
6.6689248e-05
9.5183154e-05
0.0001341876
0.00019428671
0.00030368685
0.00056024109
0.0014291282
2.0793639e-05
2.9617735e-05
4.6063552e-05
6.7854313e-05
9.5914495e-05
0.00013461099
0.00019459038
0.00030416783
0.00056155038
0.0014342177
2.2836469e-05
3.1345715e-05
4.7294058e-05
6.8609997e-05
9.6292894e-05
0.0001347464
0.00019466142
0.00030445333
0.00056266812
0.0014389063
2.4572757e-05
3.2723048e-05
4.8146011e-05
6.9003276e-05
9.6353783e-05
0.00013461553
0.00019450963
0.0003045423
0.00056357787
0.0014431303
2.5993493e-05
3.3773748e-05
4.8668836e-05
6.9085032e-05
9.6137465e-05
0.00013424631
0.00019415221
0.00030444233
0.00056427329
0.0014468413
2.7111491e-05
3.453129e-05
4.8913195e-05
6.8907236e-05
9.5687653e-05
0.00013367221
0.00019361365
0.00030416965
0.00056475869
0.0014500098
2.795288e-05
3.5033511e-05
4.8927994e-05
6.8520477e-05
9.5049426e-05
0.00013293069
0.0001929243
0.00030374789
0.00056504804
0.0014526275
2.8550546e-05
3.5319079e-05
4.8758552e-05
6.7972077e-05
9.4267134e-05
0.00013206102
0.0001921182
0.00030320581
0.00056516287
0.0014547064
2.8939576e-05
3.5425203e-05
4.8445636e-05
6.7304877e-05
9.33826e-05
0.00013110206
0.00019123065
0.00030257475
0.00056512958
0.0014562757
2.9154376e-05
3.5386277e-05
4.8025093e-05
6.6556583e-05
9.2433793e-05
0.00013009042
0.00019029595
0.00030188612
0.00056497676
0.0014573781
2.9226995e-05
3.5233185e-05
4.7527849e-05
6.5759565e-05
9.1454001e-05
0.00012905902
0.00018934558
0.00030116933
0.00056473291
0.0014580653
2.9186288e-05
3.4993044e-05
4.6980142e-05
6.494098e-05
9.0471456e-05
0.00012803622
0.00018840699
0.00030045038
0.00056442468
0.001458394
2.9057599e-05
3.468923e-05
4.6403876e-05
6.4123073e-05
8.9509304e-05
0.00012704543
0.00018750285
0.00029975093
0.00056407572
0.0014584223
2.8862769e-05
3.4341571e-05
4.5817034e-05
6.3323616e-05
8.8585834e-05
0.00012610502
0.00018665087
0.00029908796
0.00056370599
0.0014582068
2.8620328e-05
3.3966626e-05
4.5234107e-05
6.2556387e-05
8.7714867e-05
0.00012522862
0.00018586389
0.00029847385
0.00056333157
0.0014578002
2.8345767e-05
3.3578018e-05
4.4666522e-05
6.1831673e-05
8.6906249e-05
0.00012442551
0.0001851503
0.00029791664
0.00056296458
0.0014572503
2.8051867e-05
3.318677e-05
4.412305e-05
6.1156753e-05
8.6166367e-05
0.00012370117
0.00018451451
0.00029742039
0.00056260927
0.0014565953
2.7749024e-05
3.2801637e-05
4.3610187e-05
6.0536376e-05
8.549873e-05
0.00012305798
0.00018395789
0.00029698511
0.00056226361
0.0014558681
2.7445564e-05
3.2429422e-05
4.3132514e-05
5.9973209e-05
8.4904526e-05
0.00012249585
0.00018347865
0.00029660463
0.00056194036
0.0014551005
2.7148041e-05
3.2075269e-05
4.2693017e-05
5.9468236e-05
8.4383069e-05
0.00012201232
0.00018307005
0.00029628029
0.00056164626
0.0014543194
2.6861505e-05
3.1742926e-05
4.2293382e-05
5.9021102e-05
8.393205e-05
0.00012160119
0.00018272934
0.0002960109
0.00056138427
0.0014535466
2.6589749e-05
3.1435e-05
4.1934296e-05
5.8630225e-05
8.3546371e-05
0.00012125844
0.00018245246
0.00029579327
0.00056115508
0.0014527989
2.6335543e-05
3.1153176e-05
4.1615245e-05
5.8292215e-05
8.3222163e-05
0.00012097924
0.00018223425
0.00029562311
0.0005609579
0.0014520888
2.6100687e-05
3.0898014e-05
4.1334728e-05
5.8004093e-05
8.2954989e-05
0.00012075813
0.0001820689
0.0002954955
0.000560791
0.001451425
2.5886076e-05
3.0669401e-05
4.1091064e-05
5.7762514e-05
8.2740043e-05
0.00012058931
0.00018195036
0.00029540527
0.0005606521
0.0014508133
2.5692063e-05
3.0466814e-05
4.0882255e-05
5.7563868e-05
8.2572312e-05
0.00012046686
0.00018187258
0.00029534734
0.00056053868
0.001450257
2.5518575e-05
3.0289387e-05
4.0706056e-05
5.7404386e-05
8.2446725e-05
0.00012038493
0.00018182971
0.00029531684
0.00056044817
0.0014497573
2.5365192e-05
3.0135974e-05
4.056004e-05
5.7280226e-05
8.2358269e-05
0.00012033787
0.00018181622
0.00029530926
0.00056037809
0.0014493142
2.5231221e-05
3.0005215e-05
4.0441664e-05
5.7187556e-05
8.2302083e-05
0.00012032036
0.00018182699
0.00029532044
0.00056032601
0.0014489265
2.5115751e-05
2.9895588e-05
4.0348328e-05
5.7122615e-05
8.2273527e-05
0.00012032738
0.00018185732
0.00029534665
0.00056028967
0.001448592
2.5017702e-05
2.9805459e-05
4.027742e-05
5.708177e-05
8.226823e-05
0.00012035436
0.000181903
0.00029538452
0.00056026686
0.0014483081
2.4935873e-05
2.9733123e-05
4.0226366e-05
5.7061555e-05
8.2282133e-05
0.00012039711
0.00018196025
0.0002954311
0.00056025553
0.0014480712
2.4868978e-05
2.9676845e-05
4.0192662e-05
5.7058712e-05
8.2311512e-05
0.0001204519
0.00018202575
0.00029548379
0.0005602538
0.0014478777
2.481568e-05
2.9634893e-05
4.0173912e-05
5.7070211e-05
8.2352999e-05
0.00012051542
0.00018209665
0.00029554038
0.00056025992
0.0014477235
2.4774625e-05
2.9605568e-05
4.0167845e-05
5.7093276e-05
8.2403583e-05
0.0001205848
0.00018217049
0.00029559899
0.00056027236
0.0014476049
2.4744462e-05
2.9587222e-05
4.0172344e-05
5.7125387e-05
8.246061e-05
0.00012065757
0.00018224524
0.00029565806
0.00056028976
0.0014475177
2.4723871e-05
2.9578287e-05
4.0185451e-05
5.7164291e-05
8.2521767e-05
0.00012073162
0.00018231921
0.00029571631
0.00056031088
0.0014474581
2.4711576e-05
2.9577284e-05
4.0205382e-05
5.7207993e-05
8.2585072e-05
0.00012080521
0.00018239102
0.00029577273
0.00056033465
0.0014474224
2.4706364e-05
2.9582834e-05
4.0230529e-05
5.7254753e-05
8.264885e-05
0.00012087693
0.00018245961
0.00029582648
0.00056036013
0.001447407
2.4707095e-05
2.9593672e-05
4.025946e-05
5.7303079e-05
8.2711719e-05
0.00012094565
0.00018252415
0.00029587698
0.0005603865
0.0014474087
2.4712708e-05
2.9608647e-05
4.0290921e-05
5.7351708e-05
8.2772558e-05
0.00012101051
0.00018258408
0.00029592379
0.00056041312
0.0014474243
2.4722234e-05
2.962673e-05
4.0323824e-05
5.7399596e-05
8.2830492e-05
0.00012107088
0.00018263901
0.00029596666
0.00056043943
0.0014474512
2.4734793e-05
2.9647004e-05
4.0357245e-05
5.7445899e-05
8.2884856e-05
0.00012112633
0.00018268872
0.00029600542
0.00056046498
0.0014474868
2.4749596e-05
2.9668673e-05
4.039041e-05
5.748995e-05
8.2935175e-05
0.00012117662
0.00018273312
0.00029604
0.00056048918
0.0014475289
2.4765948e-05
2.9691048e-05
4.0422686e-05
5.7531247e-05
8.2981135e-05
0.00012122162
0.00018277226
0.00029607038
0.0005605113
0.001447575
2.4783241e-05
2.9713545e-05
4.0453566e-05
5.7569428e-05
8.3022571e-05
0.00012126137
0.00018280624
0.00029609642
0.00056053123
0.0014476236
2.4800956e-05
2.9735683e-05
4.0482665e-05
5.7604265e-05
8.305944e-05
0.00012129598
0.00018283516
0.00029611827
0.00056054926
0.0014476731
2.4818655e-05
2.975707e-05
4.0509701e-05
5.7635641e-05
8.3091804e-05
0.00012132557
0.0001828592
0.00029613639
0.0005605655
0.0014477224
2.4835979e-05
2.9777402e-05
4.053449e-05
5.7663538e-05
8.3119759e-05
0.00012135035
0.00018287884
0.00029615116
0.00056058003
0.0014477706
2.4852642e-05
2.9796455e-05
4.0556936e-05
5.7687973e-05
8.314345e-05
0.00012137071
0.00018289451
0.00029616295
0.00056059291
0.001447817
2.4868427e-05
2.9814075e-05
4.0576971e-05
5.7709022e-05
8.3163163e-05
0.00012138703
0.00018290663
0.00029617209
0.00056060425
0.001447861
2.4883162e-05
2.9830137e-05
4.0594592e-05
5.7726852e-05
8.3179212e-05
0.00012139974
0.00018291563
0.0002961789
0.0005606141
0.0014479023
2.4896723e-05
2.9844578e-05
4.060986e-05
5.7741671e-05
8.319193e-05
0.00012140922
0.00018292189
0.00029618366
0.00056062254
0.0014479405
2.4909029e-05
2.9857379e-05
4.0622873e-05
5.775371e-05
8.3201654e-05
0.00012141587
0.00018292577
0.00029618664
0.00056062963
0.0014479754
2.4920046e-05
2.9868565e-05
4.0633764e-05
5.7763219e-05
8.3208722e-05
0.00012142006
0.00018292762
0.00029618808
0.00056063543
0.0014480069
2.4929771e-05
2.9878189e-05
4.0642684e-05
5.7770455e-05
8.3213465e-05
0.00012142213
0.00018292775
0.00029618822
0.00056064001
0.0014480347
2.4938231e-05
2.9886329e-05
4.0649803e-05
5.7775677e-05
8.3216207e-05
0.00012142244
0.00018292648
0.00029618727
0.0005606435
0.0014480589
2.4945478e-05
2.9893083e-05
4.0655298e-05
5.7779144e-05
8.3217254e-05
0.00012142129
0.00018292408
0.00029618547
0.00056064602
0.0014480797
2.4951579e-05
2.9898562e-05
4.0659351e-05
5.7781105e-05
8.3216898e-05
0.00012141899
0.00018292083
0.00029618302
0.00056064773
0.0014480973
2.4956616e-05
2.9902884e-05
4.066214e-05
5.7781794e-05
8.3215405e-05
0.0001214158
0.00018291695
0.0002961801
0.00056064877
0.001448112
2.4960679e-05
2.9906171e-05
4.066384e-05
5.7781432e-05
8.3213016e-05
0.00012141194
0.00018291264
0.00029617688
0.00056064927
0.001448124
2.4963861e-05
2.9908543e-05
4.0664614e-05
5.7780219e-05
8.3209944e-05
0.00012140762
0.00018290808
0.00029617347
0.00056064931
0.0014481337
2.4966258e-05
2.9910119e-05
4.0664615e-05
5.7778333e-05
8.3206376e-05
0.00012140302
0.0001829034
0.00029616997
0.00056064897
0.0014481412
2.4967963e-05
2.991101e-05
4.0663982e-05
5.7775935e-05
8.3202474e-05
0.00012139826
0.0001828987
0.00029616646
0.0005606483
0.0014481468
2.4969066e-05
2.9911323e-05
4.0662844e-05
5.7773165e-05
8.3198376e-05
0.00012139349
0.00018289409
0.000296163
0.00056064735
0.0014481507
2.4969653e-05
2.9911156e-05
4.0661315e-05
5.777015e-05
8.3194202e-05
0.00012138879
0.00018288964
0.00029615965
0.00056064618
0.001448153
2.4969807e-05
2.9910599e-05
4.0659499e-05
5.7766996e-05
8.3190055e-05
0.00012138425
0.00018288542
0.00029615647
0.00056064487
0.001448154
2.4969605e-05
2.9909738e-05
4.0657488e-05
5.7763797e-05
8.3186019e-05
0.00012137995
0.00018288148
0.0002961535
0.00056064349
0.0014481539
2.4969116e-05
2.9908646e-05
4.065536e-05
5.776063e-05
8.3182162e-05
0.00012137593
0.00018287786
0.00029615078
0.00056064211
0.001448153
2.4968404e-05
2.990739e-05
4.0653184e-05
5.7757559e-05
8.3178535e-05
0.00012137224
0.00018287459
0.00029614833
0.00056064078
0.0014481515
2.4967527e-05
2.9906028e-05
4.0651016e-05
5.7754632e-05
8.3175174e-05
0.00012136889
0.00018287167
0.00029614616
0.00056063952
0.0014481497
2.4966535e-05
2.9904614e-05
4.0648909e-05
5.7751896e-05
8.3172112e-05
0.00012136589
0.00018286908
0.00029614422
0.00056063828
0.0014481475
)
;

boundaryField
{
    water_inlet
    {
        type            turbulentMixingLengthDissipationRateInlet;
        mixingLength    0.005;
        phi             phi;
        k               k;
        value           uniform 0.00011791765;
    }
    water_outlet
    {
        type            inletOutlet;
        inletValue      uniform 0.0001;
        value           nonuniform List<scalar> 10(2.4966535e-05 2.9904614e-05 4.0648909e-05 5.7751896e-05 8.3172112e-05 0.00012136589 0.00018286908 0.00029614422 0.00056063828 0.0014481475);
    }
    water_wedge1
    {
        type            wedge;
    }
    water_wedge2
    {
        type            wedge;
    }
    water_to_rock
    {
        type            epsilonWallFunction;
        blending        stepwise;
        value           nonuniform List<scalar> 
100
(
0.0013048048
0.0016574915
0.0016622
0.0015600258
0.0014605598
0.0013944165
0.0013593133
0.0013440703
0.0013390505
0.0013385668
0.0013399585
0.0013422096
0.0013450161
0.001348315
0.0013520949
0.0013563343
0.0013609724
0.0013659396
0.0013711897
0.0013766835
0.0013823788
0.0013882295
0.0013941872
0.0014002015
0.0014062199
0.001412186
0.0014180386
0.0014237102
0.0014291282
0.0014342177
0.0014389063
0.0014431303
0.0014468413
0.0014500098
0.0014526275
0.0014547064
0.0014562757
0.0014573781
0.0014580653
0.001458394
0.0014584223
0.0014582068
0.0014578002
0.0014572503
0.0014565953
0.0014558681
0.0014551005
0.0014543194
0.0014535466
0.0014527989
0.0014520888
0.001451425
0.0014508133
0.001450257
0.0014497573
0.0014493142
0.0014489265
0.001448592
0.0014483081
0.0014480712
0.0014478777
0.0014477235
0.0014476049
0.0014475177
0.0014474581
0.0014474224
0.001447407
0.0014474087
0.0014474243
0.0014474512
0.0014474868
0.0014475289
0.001447575
0.0014476236
0.0014476731
0.0014477224
0.0014477706
0.001447817
0.001447861
0.0014479023
0.0014479405
0.0014479754
0.0014480069
0.0014480347
0.0014480589
0.0014480797
0.0014480973
0.001448112
0.001448124
0.0014481337
0.0014481412
0.0014481468
0.0014481507
0.001448153
0.001448154
0.0014481539
0.001448153
0.0014481515
0.0014481497
0.0014481475
)
;
    }
}


// ************************************************************************* //
