/*--------------------------------*- C++ -*----------------------------------*\
| =========                 |                                                 |
| \\      /  F ield         | OpenFOAM: The Open Source CFD Toolbox           |
|  \\    /   O peration     | Version:  2506                                  |
|   \\  /    A nd           | Website:  www.openfoam.com                      |
|    \\/     M anipulation  |                                                 |
\*---------------------------------------------------------------------------*/
FoamFile
{
    version     2.0;
    format      ascii;
    arch        "LSB;label=32;scalar=64";
    class       volScalarField;
    location    "12000/water";
    object      k;
}
// * * * * * * * * * * * * * * * * * * * * * * * * * * * * * * * * * * * * * //

dimensions      [0 2 -2 0 0 0 0];

internalField   nonuniform List<scalar> 
1000
(
0.00017657855
0.00017657518
0.00017657131
0.00017655365
0.00017648098
0.00017625478
0.00017589507
0.00017764177
0.00020514192
0.00048657967
0.00013915035
0.00013915817
0.00013914641
0.00013908743
0.00013888206
0.0001383736
0.00013797747
0.00014325064
0.00019616754
0.00057072179
0.00011343696
0.00011343683
0.00011340783
0.00011329561
0.00011298241
0.0001124902
0.0001134255
0.00012641407
0.00020548429
0.00057180213
9.4956344e-05
9.4947216e-05
9.4898274e-05
9.474799e-05
9.4461174e-05
9.4591073e-05
9.8882404e-05
0.00012463502
0.00023169846
0.00054812309
8.1180941e-05
8.1164581e-05
8.1102165e-05
8.096705e-05
8.0960054e-05
8.2611636e-05
9.2929925e-05
0.00013695768
0.00027128533
0.00052456966
7.0599818e-05
7.0579371e-05
7.0523472e-05
7.0504809e-05
7.1168269e-05
7.5594001e-05
9.5291878e-05
0.00016203352
0.00031586038
0.0005086105
6.2267978e-05
6.2250532e-05
6.2239518e-05
6.2499628e-05
6.4399455e-05
7.3303929e-05
0.00010610182
0.00019613554
0.00035649789
0.00050003841
5.5571434e-05
5.5570243e-05
5.5667644e-05
5.6450639e-05
6.0388848e-05
7.5971021e-05
0.00012498701
0.00023351938
0.0003887134
0.00049629313
5.0098704e-05
5.013584e-05
5.0440272e-05
5.2102936e-05
5.9190303e-05
8.3983741e-05
0.00015029876
0.0002689619
0.00041246965
0.00049505661
4.556768e-05
4.5677864e-05
4.6337498e-05
4.9391581e-05
6.1095737e-05
9.748637e-05
0.00017920263
0.00029964306
0.00042964113
0.00049493741
4.1782809e-05
4.2019039e-05
4.3252162e-05
4.8416165e-05
6.6517968e-05
0.00011597913
0.00020865716
0.00032501784
0.00044223066
0.00049528046
3.8609686e-05
3.9051449e-05
4.1174565e-05
4.9422699e-05
7.5808198e-05
0.00013818994
0.0002364203
0.00034572027
0.00045177477
0.00049583503
3.5960365e-05
3.6725389e-05
4.0189409e-05
5.2766886e-05
8.9027521e-05
0.00016237154
0.00026138209
0.00036268771
0.0004593149
0.00049652591
3.3785893e-05
3.5046498e-05
4.0478156e-05
5.8837497e-05
0.00010576948
0.00018682774
0.0002833001
0.00037677325
0.00046551931
0.00049733745
3.2074357e-05
3.4079181e-05
4.23159e-05
6.7933343e-05
0.00012516029
0.00021031385
0.00030238141
0.0003886494
0.00047080798
0.00049826649
3.0853776e-05
3.3954503e-05
4.6048069e-05
8.0117867e-05
0.00014606352
0.00023213626
0.00031898741
0.00039881765
0.00047543933
0.00049930751
3.0199558e-05
3.4878968e-05
5.2034312e-05
9.5115628e-05
0.00016736965
0.00025203095
0.00033348901
0.00040763818
0.00047952226
0.00050044516
3.0246007e-05
3.7136148e-05
6.0556337e-05
0.0001123193
0.00018821094
0.00026998856
0.00034621477
0.00041534875
0.00048317118
0.0005016621
3.1200005e-05
4.1069101e-05
7.1707785e-05
0.00013091738
0.00020802795
0.00028611992
0.00035742621
0.00042213422
0.00048649176
0.00050294672
3.3351682e-05
4.7031379e-05
8.5310984e-05
0.00015007636
0.00022652153
0.00030057584
0.00036733077
0.00042814973
0.00048955796
0.00050428921
3.7070426e-05
5.530182e-05
0.00010090957
0.00016908785
0.0002435678
0.00031350285
0.00037608843
0.00043353273
0.00049241545
0.00050567907
4.2767241e-05
6.5979058e-05
0.00011785001
0.00018743113
0.0002591338
0.00032501566
0.00038386913
0.00043837683
0.0004950905
0.00050710485
5.0804874e-05
7.8898672e-05
0.00013541187
0.00020475518
0.00027320724
0.00033526157
0.00039079677
0.00044274736
0.00049759735
0.00050855463
6.1361373e-05
9.3621959e-05
0.00015292586
0.00022080466
0.00028583291
0.00034436362
0.00039696095
0.00044668813
0.00049994145
0.00051001612
7.4302263e-05
0.00010951459
0.00016980481
0.00023542203
0.00029707766
0.00035241145
0.00040242283
0.00045022543
0.00050212092
0.00051147653
8.9142046e-05
0.00012582797
0.00018559513
0.00024853541
0.00030699177
0.00035946543
0.00040721974
0.00045337086
0.00050412755
0.00051292224
0.00010508454
0.00014184843
0.00019999886
0.00026010268
0.00031560952
0.000365562
0.00041136994
0.00045612416
0.00050594776
0.00051433843
0.00012123781
0.00015699631
0.00021282865
0.00027010627
0.00032295509
0.00037072088
0.00041487799
0.00045847653
0.00050756416
0.00051570896
0.00013679915
0.00017085427
0.00022398881
0.00027855495
0.00032905183
0.00037495408
0.00041774147
0.00046041487
0.00050895765
0.00051701648
0.00015116466
0.00018316304
0.00023346
0.0002854872
0.00033393211
0.00037827546
0.00041995838
0.00046192691
0.00051011043
0.0005182432
0.00016395731
0.00019379972
0.00024128485
0.00029097244
0.00033764518
0.00038070941
0.00042153438
0.00046300647
0.00051100925
0.00051937202
0.00017500055
0.00020274899
0.00024755362
0.0002951087
0.00034026126
0.00038229681
0.00042248854
0.00046365808
0.00051164858
0.00052038799
0.00018426923
0.00021007401
0.00025239018
0.00029801722
0.00034187146
0.00038309759
0.00042285651
0.00046389982
0.00051203267
0.00052127974
0.00019183968
0.00021589024
0.00025593947
0.00029983508
0.00034258427
0.00038318966
0.00042269074
0.00046376393
0.0005121761
0.00052204054
0.00019784872
0.00022034398
0.00025835676
0.00030070762
0.00034251998
0.00038266508
0.0004220579
0.00046329506
0.00051210279
0.00052266866
0.00020246367
0.00022359601
0.00025979918
0.00030078137
0.00034180419
0.00038162461
0.00042103449
0.00046254695
0.00051184365
0.00052316719
0.00020586221
0.00022580984
0.0002604194
0.0003001983
0.00034056184
0.00038017188
0.00041970171
0.00046157816
0.00051143375
0.00052354335
0.00020821967
0.00022714375
0.00026036117
0.00029909157
0.00033891213
0.0003784081
0.00041814047
0.00046044803
0.00051090934
0.00052380752
0.00020970145
0.00022774586
0.00025975653
0.00029758275
0.00033696493
0.0003764279
0.00041642732
0.00045921308
0.0005103055
0.00052397218
0.00021045909
0.00022775132
0.00025872433
0.00029578025
0.00033481849
0.00037431648
0.00041463149
0.00045792458
0.00050965426
0.00052405095
0.0002106285
0.00022728112
0.00025736966
0.00029377879
0.00033255828
0.00037214794
0.00041281311
0.00045662684
0.00050898352
0.00052405774
0.00021032961
0.00022644182
0.00025578397
0.0002916595
0.00033025678
0.00036998465
0.00041102233
0.00045535651
0.00050831644
0.0005240061
0.00020966686
0.00022532599
0.00025404565
0.00028949056
0.00032797378
0.00036787724
0.00040929922
0.00045414241
0.00050767133
0.00052390868
0.00020873013
0.00022401298
0.00025222083
0.000287328
0.00032575715
0.00036586525
0.00040767418
0.00045300582
0.00050706166
0.0005237769
0.0002075959
0.00022256993
0.00025036435
0.00028521677
0.00032364382
0.00036397785
0.00040616844
0.00045196
0.000506488
0.00052361994
0.00020632855
0.00022105289
0.00024852086
0.00028319189
0.00032166101
0.00036223514
0.00040479508
0.00045100885
0.00050595645
0.00052344565
0.00020498159
0.00021950795
0.00024672591
0.00028127968
0.0003198275
0.00036064916
0.0004035584
0.00045015518
0.0005054756
0.00052326166
0.00020359901
0.00021797245
0.00024500713
0.00027949893
0.00031815471
0.0003592241
0.00040245875
0.00044940288
0.00050504945
0.00052307442
0.00020221643
0.00021647607
0.00024338525
0.00027786192
0.00031664726
0.00035795886
0.00040149667
0.00044875183
0.00050467885
0.00052288911
0.00020086228
0.00021504188
0.0002418751
0.00027637492
0.00031530415
0.0003568521
0.00040066912
0.00044819883
0.00050436251
0.00052270977
0.00019955878
0.00021368724
0.00024048573
0.00027503907
0.00031412367
0.00035589905
0.00039997007
0.00044773853
0.00050409768
0.00052253941
0.0001983225
0.00021242392
0.00023922187
0.00027385389
0.00031310096
0.00035509226
0.00039939139
0.00044736409
0.00050388063
0.00052238014
0.00019716509
0.00021125967
0.00023808559
0.00027281605
0.00031222866
0.00035442226
0.00039892353
0.00044706777
0.00050370708
0.00052223335
0.0001960946
0.00021019915
0.00023707625
0.00027191988
0.00031149757
0.00035387826
0.00039855612
0.00044684138
0.00050357249
0.00052209984
0.00019511602
0.00020924427
0.00023619094
0.00027115796
0.00031089719
0.00035344869
0.00039827843
0.00044667669
0.0005034723
0.00052197992
0.00019423177
0.0002083947
0.00023542496
0.00027052151
0.00031041625
0.00035312165
0.00039807978
0.00044656568
0.00050340213
0.00052187357
0.00019344214
0.00020764823
0.00023477215
0.00027000091
0.00031004308
0.00035288531
0.00039794985
0.00044650073
0.00050335782
0.0005217805
0.00019274564
0.00020700113
0.00023422535
0.00026958596
0.00030976596
0.00035272813
0.00039787877
0.00044647471
0.00050333553
0.0005217002
0.00019213934
0.00020644851
0.00023377663
0.00026926622
0.00030957333
0.00035263907
0.00039785733
0.00044648104
0.00050333165
0.00052163201
0.00019161917
0.00020598456
0.00023341757
0.00026903123
0.00030945402
0.00035260767
0.00039787693
0.00044651365
0.00050334288
0.00052157512
0.00019118016
0.0002056028
0.00023313949
0.00026887068
0.00030939734
0.00035262417
0.00039792971
0.00044656707
0.00050336621
0.00052152864
0.00019081668
0.00020529632
0.00023293363
0.00026877458
0.00030939324
0.00035267961
0.00039800857
0.00044663639
0.00050339894
0.00052149163
0.00019052263
0.00020505796
0.00023279138
0.00026873343
0.0003094324
0.00035276584
0.00039810715
0.00044671729
0.00050343869
0.00052146312
0.00019029164
0.00020488047
0.00023270434
0.0002687383
0.00030950629
0.00035287557
0.00039821989
0.00044680605
0.0005034834
0.00052144218
0.00019011724
0.00020475669
0.00023266452
0.00026878093
0.00030960722
0.00035300234
0.00039834195
0.00044689944
0.00050353128
0.00052142787
0.00018999296
0.00020467965
0.00023266438
0.00026885374
0.00030972831
0.00035314054
0.00039846918
0.00044699474
0.00050358081
0.0005214193
0.0001899125
0.00020464266
0.0002326969
0.0002689499
0.0003098635
0.0003532853
0.00039859806
0.00044708969
0.00050363068
0.00052141561
0.00018986976
0.00020463942
0.00023275565
0.00026906331
0.00031000752
0.00035343249
0.00039872568
0.00044718241
0.00050367984
0.000521416
0.00018985899
0.00020466404
0.00023283478
0.00026918859
0.00031015587
0.00035357869
0.00039884966
0.00044727143
0.00050372742
0.00052141975
0.00018987477
0.00020471112
0.00023292911
0.0002693211
0.00031030477
0.00035372113
0.00039896817
0.00044735564
0.00050377277
0.0005214262
0.00018991214
0.00020477576
0.00023303403
0.00026945688
0.00031045111
0.0003538576
0.00039907982
0.00044743423
0.00050381543
0.00052143475
0.00018996655
0.00020485357
0.00023314556
0.0002695926
0.00031059241
0.00035398643
0.00039918357
0.00044750657
0.00050385462
0.00052144483
0.00019003392
0.00020494065
0.00023326027
0.00026972551
0.00031072667
0.00035410634
0.0003992787
0.00044757209
0.0005038899
0.00052145592
0.00019011059
0.0002050336
0.00023337525
0.0002698534
0.0003108524
0.00035421645
0.00039936463
0.00044763044
0.00050392136
0.00052146758
0.00019019335
0.00020512946
0.00023348807
0.0002699745
0.0003109685
0.00035431613
0.00039944105
0.00044768167
0.0005039492
0.00052147948
0.0001902794
0.00020522574
0.00023359678
0.0002700875
0.00031107421
0.00035440501
0.00039950799
0.00044772613
0.00050397359
0.00052149133
0.00019036638
0.00020532035
0.00023369986
0.00027019148
0.00031116908
0.00035448307
0.00039956584
0.00044776416
0.00050399469
0.00052150292
0.00019045231
0.00020541164
0.00023379616
0.00027028579
0.00031125299
0.00035455071
0.0003996151
0.00044779621
0.00050401271
0.00052151407
0.00019053561
0.00020549831
0.00023388483
0.00027037017
0.00031132621
0.00035460845
0.00039965637
0.00044782276
0.00050402788
0.00052152464
0.00019061502
0.00020557935
0.00023396538
0.00027044466
0.0003113892
0.00035465695
0.00039969031
0.0004478443
0.00050404046
0.00052153455
0.00019068958
0.00020565409
0.00023403761
0.00027050953
0.00031144254
0.00035469693
0.00039971758
0.00044786135
0.00050405068
0.00052154372
0.00019075858
0.00020572209
0.00023410151
0.00027056519
0.00031148688
0.00035472911
0.00039973885
0.00044787437
0.00050405874
0.00052155211
0.00019082159
0.00020578314
0.00023415726
0.00027061213
0.00031152294
0.00035475423
0.00039975474
0.00044788379
0.00050406486
0.00052155966
0.00019087835
0.00020583721
0.00023420513
0.00027065092
0.00031155141
0.00035477301
0.00039976586
0.00044789004
0.00050406921
0.00052156636
0.00019092877
0.00020588438
0.00023424552
0.00027068221
0.00031157305
0.00035478617
0.00039977279
0.00044789352
0.000504072
0.0005215722
0.00019097291
0.0002059249
0.00023427891
0.00027070665
0.00031158861
0.00035479441
0.00039977613
0.00044789464
0.00050407343
0.00052157721
0.00019101097
0.0002059591
0.00023430586
0.00027072498
0.00031159887
0.00035479846
0.00039977646
0.0004478938
0.00050407374
0.00052158144
0.00019104325
0.00020598741
0.00023432697
0.00027073793
0.00031160458
0.00035479901
0.00039977434
0.0004478914
0.00050407314
0.00052158495
0.00019107016
0.00020601034
0.0002343429
0.00027074623
0.00031160648
0.00035479672
0.00039977029
0.00044788781
0.00050407184
0.00052158783
0.00019109212
0.0002060284
0.00023435427
0.0002707506
0.00031160527
0.00035479219
0.00039976478
0.00044788336
0.00050407003
0.00052159013
0.00019110962
0.00020604215
0.00023436172
0.00027075167
0.00031160156
0.00035478594
0.00039975821
0.00044787829
0.00050406783
0.00052159193
0.00019112313
0.0002060521
0.00023436581
0.00027075004
0.00031159587
0.0003547784
0.0003997509
0.00044787282
0.00050406535
0.00052159327
0.00019113311
0.00020605874
0.00023436707
0.00027074622
0.00031158867
0.00035476995
0.0003997431
0.0004478671
0.00050406266
0.00052159419
0.00019113999
0.00020606255
0.00023436599
0.00027074067
0.00031158036
0.0003547609
0.00039973504
0.00044786127
0.00050405983
0.00052159475
0.0001911442
0.00020606394
0.000234363
0.00027073381
0.00031157131
0.00035475153
0.00039972692
0.00044785546
0.00050405695
0.00052159498
0.00019114615
0.00020606334
0.00023435851
0.00027072603
0.00031156183
0.0003547421
0.00039971892
0.00044784979
0.00050405408
0.00052159496
0.00019114621
0.00020606114
0.00023435291
0.00027071766
0.00031155222
0.00035473284
0.00039971121
0.00044784439
0.00050405132
0.00052159473
0.00019114476
0.0002060577
0.00023434654
0.00027070904
0.00031154275
0.00035472394
0.00039970394
0.00044783933
0.00050404872
0.00052159435
0.00019114214
0.00020605335
0.00023433972
0.00027070041
0.00031153362
0.00035471556
0.00039969721
0.00044783471
0.00050404633
0.00052159388
0.00019113866
0.00020604842
0.00023433274
0.00027069204
0.00031152501
0.00035470782
0.00039969106
0.0004478305
0.00050404414
0.00052159335
)
;

boundaryField
{
    water_inlet
    {
        type            turbulentIntensityKineticEnergyInlet;
        intensity       0.05;
        value           uniform 0.000234375;
    }
    water_outlet
    {
        type            inletOutlet;
        inletValue      uniform 0.0001;
        value           nonuniform List<scalar> 10(0.00019113866 0.00020604842 0.00023433274 0.00027069204 0.00031152501 0.00035470782 0.00039969106 0.0004478305 0.00050404414 0.00052159335);
    }
    water_wedge1
    {
        type            wedge;
    }
    water_wedge2
    {
        type            wedge;
    }
    water_to_rock
    {
        type            kqRWallFunction;
        value           nonuniform List<scalar> 
100
(
0.00048657967
0.00057072179
0.00057180213
0.00054812309
0.00052456966
0.0005086105
0.00050003841
0.00049629313
0.00049505661
0.00049493741
0.00049528046
0.00049583503
0.00049652591
0.00049733745
0.00049826649
0.00049930751
0.00050044516
0.0005016621
0.00050294672
0.00050428921
0.00050567907
0.00050710485
0.00050855463
0.00051001612
0.00051147653
0.00051292224
0.00051433843
0.00051570896
0.00051701648
0.0005182432
0.00051937202
0.00052038799
0.00052127974
0.00052204054
0.00052266866
0.00052316719
0.00052354335
0.00052380752
0.00052397218
0.00052405095
0.00052405774
0.0005240061
0.00052390868
0.0005237769
0.00052361994
0.00052344565
0.00052326166
0.00052307442
0.00052288911
0.00052270977
0.00052253941
0.00052238014
0.00052223335
0.00052209984
0.00052197992
0.00052187357
0.0005217805
0.0005217002
0.00052163201
0.00052157512
0.00052152864
0.00052149163
0.00052146312
0.00052144218
0.00052142787
0.0005214193
0.00052141561
0.000521416
0.00052141975
0.0005214262
0.00052143475
0.00052144483
0.00052145592
0.00052146758
0.00052147948
0.00052149133
0.00052150292
0.00052151407
0.00052152464
0.00052153455
0.00052154372
0.00052155211
0.00052155966
0.00052156636
0.0005215722
0.00052157721
0.00052158144
0.00052158495
0.00052158783
0.00052159013
0.00052159193
0.00052159327
0.00052159419
0.00052159475
0.00052159498
0.00052159496
0.00052159473
0.00052159435
0.00052159388
0.00052159335
)
;
    }
}


// ************************************************************************* //
