/*--------------------------------*- C++ -*----------------------------------*\
| =========                 |                                                 |
| \\      /  F ield         | OpenFOAM: The Open Source CFD Toolbox           |
|  \\    /   O peration     | Version:  2506                                  |
|   \\  /    A nd           | Website:  www.openfoam.com                      |
|    \\/     M anipulation  |                                                 |
\*---------------------------------------------------------------------------*/
FoamFile
{
    version     2.0;
    format      ascii;
    arch        "LSB;label=32;scalar=64";
    class       volScalarField;
    location    "12000/water";
    object      nut;
}
// * * * * * * * * * * * * * * * * * * * * * * * * * * * * * * * * * * * * * //

dimensions      [0 2 -1 0 0 0 0];

internalField   nonuniform List<scalar> 
1000
(
3.8760013e-05
3.8759344e-05
3.875781e-05
3.8749425e-05
3.8703919e-05
3.8465194e-05
3.7257946e-05
3.1920746e-05
1.9133704e-05
1.6330702e-05
3.6503362e-05
3.6502673e-05
3.6496232e-05
3.646333e-05
3.6309098e-05
3.5625574e-05
3.2857818e-05
2.4520498e-05
1.4670664e-05
1.7686427e-05
3.4818769e-05
3.4815355e-05
3.4798028e-05
3.4720761e-05
3.4400236e-05
3.3155724e-05
2.896647e-05
2.0114743e-05
1.4313159e-05
1.7703159e-05
3.3515366e-05
3.3507685e-05
3.3473492e-05
3.3336596e-05
3.2819807e-05
3.0995902e-05
2.5816401e-05
1.8305017e-05
1.5980821e-05
1.7332728e-05
3.247679e-05
3.2463573e-05
3.2409014e-05
3.2208501e-05
3.1494124e-05
2.9122814e-05
2.3598652e-05
1.8669541e-05
1.8895644e-05
1.6956238e-05
3.1628598e-05
3.1609534e-05
3.1536361e-05
3.1282471e-05
3.0382816e-05
2.7534873e-05
2.2595883e-05
2.0841349e-05
2.2319132e-05
1.6696316e-05
3.0922115e-05
3.0899106e-05
3.0816962e-05
3.053289e-05
2.9455088e-05
2.6339669e-05
2.3103581e-05
2.4287735e-05
2.5587456e-05
1.6555019e-05
3.0325436e-05
3.030399e-05
3.0232559e-05
2.9948342e-05
2.869586e-05
2.5833836e-05
2.5183756e-05
2.8331492e-05
2.8356004e-05
1.6492901e-05
2.9818404e-05
2.9809189e-05
2.9779243e-05
2.9521685e-05
2.8157597e-05
2.6404476e-05
2.8559655e-05
3.2392789e-05
3.0574234e-05
1.6472339e-05
2.9389963e-05
2.9410462e-05
2.9462775e-05
2.9249297e-05
2.8031332e-05
2.8288147e-05
3.2740194e-05
3.6145799e-05
3.2325819e-05
1.6470358e-05
2.9037018e-05
2.911304e-05
2.9294064e-05
2.9152042e-05
2.8635025e-05
3.1431686e-05
3.7231902e-05
3.9484887e-05
3.3719969e-05
1.6476067e-05
2.8764324e-05
2.8930785e-05
2.9285894e-05
2.9323212e-05
3.0269846e-05
3.5542668e-05
4.1683928e-05
4.2418088e-05
3.4850558e-05
1.6485289e-05
2.8585099e-05
2.8885094e-05
2.9456453e-05
2.996695e-05
3.3062272e-05
4.0233866e-05
4.5910782e-05
4.4991573e-05
3.5787816e-05
1.6496768e-05
2.8522082e-05
2.9003189e-05
2.9849407e-05
3.1360207e-05
3.6918491e-05
4.5156663e-05
4.9841222e-05
4.7257319e-05
3.6581198e-05
1.6510242e-05
2.8608636e-05
2.931685e-05
3.0571101e-05
3.3736459e-05
4.1586712e-05
5.0067104e-05
5.3461923e-05
4.9262649e-05
3.7264855e-05
1.6525656e-05
2.888931e-05
2.9866155e-05
3.1814769e-05
3.7180903e-05
4.6760389e-05
5.4824713e-05
5.6783993e-05
5.1047396e-05
3.7861878e-05
1.6542912e-05
2.9419649e-05
3.0715981e-05
3.382546e-05
4.1605999e-05
5.2164924e-05
5.9359764e-05
5.9827338e-05
5.2642617e-05
3.8382047e-05
1.6561748e-05
3.0266871e-05
3.1985848e-05
3.6808144e-05
4.6798836e-05
5.7598969e-05
6.3641865e-05
6.2613478e-05
5.4068912e-05
3.8841678e-05
1.6581873e-05
3.1517265e-05
3.3869221e-05
4.0842753e-05
5.2497754e-05
6.2933719e-05
6.7660613e-05
6.5161165e-05
5.5349599e-05
3.9251452e-05
1.660309e-05
3.3297264e-05
3.6603661e-05
4.5858035e-05
5.8458897e-05
6.8092379e-05
7.1415511e-05
6.7489007e-05
5.6504145e-05
3.9619161e-05
1.6625234e-05
3.5799607e-05
4.0389329e-05
5.1664024e-05
6.44908e-05
7.3028883e-05
7.4907374e-05
6.9617486e-05
5.7547362e-05
3.9950776e-05
1.6648128e-05
3.9276679e-05
4.5306537e-05
5.8013757e-05
7.0457035e-05
7.7711139e-05
7.8146154e-05
7.1563503e-05
5.8491154e-05
4.025063e-05
1.667158e-05
4.3967082e-05
5.12823e-05
6.4661542e-05
7.6260527e-05
8.2120973e-05
8.1142823e-05
7.3340711e-05
5.9344836e-05
4.0521839e-05
1.6695393e-05
4.9981729e-05
5.8113616e-05
7.1395879e-05
8.1829762e-05
8.6249492e-05
8.3905835e-05
7.4959705e-05
6.0115357e-05
4.0766531e-05
1.6719365e-05
5.7222655e-05
6.5521934e-05
7.8046032e-05
8.7114164e-05
9.008988e-05
8.6440632e-05
7.6427851e-05
6.0807453e-05
4.0985975e-05
1.6743286e-05
6.5385199e-05
7.3208333e-05
8.4484908e-05
9.2075935e-05
9.3633629e-05
8.874917e-05
7.7749333e-05
6.1423839e-05
4.1180685e-05
1.6766934e-05
7.403958e-05
8.0899945e-05
9.0617528e-05
9.6681694e-05
9.6870342e-05
9.0830154e-05
7.8925506e-05
6.1965485e-05
4.1350541e-05
1.6790066e-05
8.2741422e-05
8.8366497e-05
9.6367376e-05
0.00010090245
9.9788821e-05
9.2680009e-05
7.9955605e-05
6.2432054e-05
4.149497e-05
1.6812421e-05
9.1117496e-05
9.5425924e-05
0.00010167345
0.0001047149
0.00010237904
9.4294483e-05
8.083782e-05
6.28225e-05
4.1613175e-05
1.6833719e-05
9.8903703e-05
0.0001019451
0.0001064903
0.00010810315
0.00010463443
9.5670561e-05
8.1570599e-05
6.3135811e-05
4.170443e-05
1.6853676e-05
0.0001059437
0.0001078377
0.00011078885
0.00011106029
0.00010655391
9.6808293e-05
8.2153983e-05
6.3371781e-05
4.176839e-05
1.6872021e-05
0.00011216761
0.00011305926
0.00011455677
0.00011358915
0.00010814309
9.7712174e-05
8.2590723e-05
6.353171e-05
4.1805376e-05
1.6888516e-05
0.00011756648
0.00011760016
0.0001177976
0.0001157021
0.00010941466
9.8391823e-05
8.2886962e-05
6.3618859e-05
4.1816565e-05
1.6902982e-05
0.0001221704
0.00012147746
0.00012052885
0.00011742013
0.00011038789
9.88619e-05
8.3052366e-05
6.3638591e-05
4.1804035e-05
1.6915313e-05
0.00012603247
0.00012472721
0.00012277918
0.00011877116
0.0001110874
9.9141367e-05
8.3099735e-05
6.3598165e-05
4.1770667e-05
1.6925486e-05
0.00012921779
0.0001273976
0.00012458544
0.00011978814
0.00011154163
9.9252307e-05
8.3044208e-05
6.3506274e-05
4.1719926e-05
1.6933555e-05
0.00013179642
0.00012954358
0.00012598955
0.00012050704
0.00011178114
9.9218573e-05
8.2902282e-05
6.3372427e-05
4.1655585e-05
1.6939641e-05
0.00013383887
0.00013122278
0.00012703598
0.00012096503
0.00011183712
9.9064502e-05
8.2690835e-05
6.3206334e-05
4.1581449e-05
1.6943913e-05
0.00013541326
0.00013249259
0.00012776953
0.00012119901
0.00011174014
9.8813841e-05
8.2426291e-05
6.3017369e-05
4.1501129e-05
1.6946576e-05
0.00013658375
0.00013340822
0.00012823386
0.00012124449
0.00011151924
9.848896e-05
8.2123995e-05
6.2814174e-05
4.1417877e-05
1.6947851e-05
0.0001374096
0.00013402153
0.00012847036
0.00012113484
0.0001112013
9.8110322e-05
8.1797795e-05
6.2604398e-05
4.1334487e-05
1.6947962e-05
0.0001379448
0.00013438031
0.00012851747
0.00012090077
0.00011081071
9.7696167e-05
8.1459798e-05
6.2394553e-05
4.1253251e-05
1.6947127e-05
0.00013823801
0.000134528
0.00012841035
0.00012057011
0.00011036911
9.7262351e-05
8.1120258e-05
6.2189969e-05
4.1175956e-05
1.6945551e-05
0.00013833261
0.00013450357
0.00012818059
0.0001201676
0.00010989537
9.6822303e-05
8.0787564e-05
6.1994806e-05
4.1103895e-05
1.6943419e-05
0.00013826692
0.0001343416
0.00012785625
0.0001197149
0.00010940555
9.6387035e-05
8.0468211e-05
6.1811856e-05
4.1036844e-05
1.6940879e-05
0.00013807449
0.0001340724
0.00012746186
0.00011923059
0.00010891299
9.596522e-05
8.0166801e-05
6.1642175e-05
4.0975929e-05
1.693806e-05
0.00013778441
0.00013372229
0.00012701858
0.0001187304
0.00010842846
9.5563265e-05
7.9885835e-05
6.148782e-05
4.0921607e-05
1.6935084e-05
0.0001374217
0.00013331389
0.00012654445
0.00011822729
0.00010796025
9.5185268e-05
7.9628393e-05
6.134956e-05
4.087403e-05
1.6932055e-05
0.00013700772
0.00013286645
0.00012605457
0.00011773166
0.00010751428
9.4835494e-05
7.9395908e-05
6.1227606e-05
4.0833113e-05
1.6929056e-05
0.00013656049
0.00013239608
0.0001255612
0.00011725145
0.00010709625
9.4516371e-05
7.9188938e-05
6.1121733e-05
4.0798595e-05
1.6926152e-05
0.00013609492
0.00013191597
0.00012507447
0.00011679405
0.00010670993
9.4229159e-05
7.9007349e-05
6.1031362e-05
4.0770086e-05
1.6923393e-05
0.00013562337
0.00013143734
0.0001246032
0.00011636482
0.00010635766
9.3974176e-05
7.8850442e-05
6.0955638e-05
4.0747109e-05
1.6920813e-05
0.00013515631
0.00013096958
0.00012415418
0.00011596749
0.00010604063
9.3750951e-05
7.8717066e-05
6.0893507e-05
4.0729134e-05
1.6918435e-05
0.00013470223
0.00013052009
0.00012373249
0.00011560443
0.00010575901
9.3558384e-05
7.8605738e-05
6.0843784e-05
4.0715608e-05
1.6916272e-05
0.00013426782
0.00013009457
0.00012334171
0.00011527686
0.00010551221
9.3394899e-05
7.8514748e-05
6.0805221e-05
4.070598e-05
1.691433e-05
0.00013385817
0.00012969721
0.00012298415
0.00011498506
0.00010529899
9.3258595e-05
7.8442267e-05
6.0776563e-05
4.0699723e-05
1.6912608e-05
0.00013347699
0.00012933088
0.00012266104
0.00011472853
0.00010511768
9.3147361e-05
7.8386424e-05
6.0756584e-05
4.0696342e-05
1.69111e-05
0.00013312679
0.00012899737
0.00012237277
0.00011450619
0.00010496627
9.305897e-05
7.8345355e-05
6.0744113e-05
4.0695376e-05
1.6909798e-05
0.00013280905
0.00012869753
0.00012211895
0.00011431648
0.00010484252
9.2991134e-05
7.8317237e-05
6.0738045e-05
4.0696406e-05
1.6908692e-05
0.0001325244
0.00012843143
0.00012189862
0.00011415746
0.00010474402
9.2941559e-05
7.8300312e-05
6.0737341e-05
4.0699045e-05
1.690777e-05
0.0001322727
0.00012819847
0.00012171032
0.00011402693
0.00010466828
9.2907981e-05
7.8292905e-05
6.0741041e-05
4.0702944e-05
1.6907016e-05
0.00013205322
0.0001279975
0.00012155219
0.00011392247
0.00010461278
9.288821e-05
7.8293444e-05
6.0748266e-05
4.0707792e-05
1.6906416e-05
0.0001318647
0.00012782693
0.00012142211
0.00011384158
0.00010457502
9.2880165e-05
7.8300482e-05
6.0758228e-05
4.0713317e-05
1.6905954e-05
0.0001317055
0.00012768487
0.00012131774
0.00011378172
0.00010455262
9.2881907e-05
7.8312703e-05
6.0770229e-05
4.0719284e-05
1.6905614e-05
0.00013157368
0.00012756916
0.00012123667
0.00011374035
0.00010454329
9.2891649e-05
7.8328929e-05
6.0783659e-05
4.0725495e-05
1.6905382e-05
0.0001314671
0.0001274775
0.00012117642
0.00011371506
0.00010454488
9.2907761e-05
7.8348112e-05
6.079799e-05
4.0731778e-05
1.6905243e-05
0.00013138348
0.00012740753
0.00012113453
0.00011370348
0.00010455542
9.2928775e-05
7.8369332e-05
6.0812768e-05
4.0737995e-05
1.6905183e-05
0.00013132048
0.00012735683
0.00012110861
0.00011370342
0.00010457309
9.2953382e-05
7.8391788e-05
6.082761e-05
4.0744029e-05
1.690519e-05
0.00013127574
0.00012732305
0.00012109635
0.00011371283
0.00010459625
9.2980441e-05
7.8414802e-05
6.0842204e-05
4.0749792e-05
1.6905251e-05
0.00013124698
0.00012730389
0.00012109559
0.00011372984
0.00010462348
9.3008968e-05
7.8437813e-05
6.0856302e-05
4.0755217e-05
1.6905355e-05
0.00013123198
0.00012729718
0.00012110434
0.00011375278
0.0001046535
9.3038138e-05
7.8460365e-05
6.0869714e-05
4.076026e-05
1.6905493e-05
0.00013122865
0.0001273009
0.00012112075
0.00011378015
0.00010468523
9.3067257e-05
7.848209e-05
6.0882286e-05
4.0764842e-05
1.6905656e-05
0.00013123504
0.00012731314
0.00012114316
0.00011381062
0.00010471773
9.3095744e-05
7.8502684e-05
6.0893866e-05
4.0768943e-05
1.6905835e-05
0.00013124931
0.00012733216
0.00012117005
0.00011384301
0.00010475018
9.3123113e-05
7.8521882e-05
6.0904386e-05
4.0772584e-05
1.6906024e-05
0.00013126977
0.00012735637
0.00012120005
0.0001138763
0.00010478191
9.3148949e-05
7.8539513e-05
6.0913834e-05
4.0775778e-05
1.6906218e-05
0.00013129489
0.00012738433
0.00012123198
0.00011390961
0.00010481232
9.3172952e-05
7.8555507e-05
6.0922204e-05
4.0778542e-05
1.6906411e-05
0.00013132328
0.00012741475
0.00012126478
0.00011394218
0.00010484099
9.3194968e-05
7.8569821e-05
6.0929516e-05
4.07809e-05
1.6906599e-05
0.00013135373
0.00012744652
0.00012129757
0.00011397344
0.00010486765
9.32149e-05
7.8582463e-05
6.0935814e-05
4.0782879e-05
1.690678e-05
0.00013138522
0.00012747871
0.00012132966
0.00011400301
0.00010489212
9.3232724e-05
7.8593483e-05
6.0941158e-05
4.078451e-05
1.6906951e-05
0.00013141689
0.00012751059
0.00012136055
0.00011403061
0.00010491433
9.3248469e-05
7.8602964e-05
6.0945621e-05
4.0785829e-05
1.6907112e-05
0.00013144808
0.00012754158
0.00012138984
0.00011405604
0.00010493423
9.3262206e-05
7.8611001e-05
6.094928e-05
4.0786868e-05
1.690726e-05
0.00013147824
0.00012757121
0.00012141723
0.0001140792
0.00010495185
9.3274024e-05
7.8617698e-05
6.0952209e-05
4.0787657e-05
1.6907396e-05
0.00013150695
0.00012759914
0.0001214425
0.0001141
0.00010496722
9.328402e-05
7.8623155e-05
6.0954479e-05
4.0788226e-05
1.6907519e-05
0.00013153386
0.00012762507
0.00012146549
0.00011411842
0.00010498043
9.3292302e-05
7.8627472e-05
6.0956153e-05
4.0788596e-05
1.6907628e-05
0.00013155871
0.0001276488
0.00012148612
0.00011413448
0.00010499156
9.3298984e-05
7.8630749e-05
6.0957294e-05
4.0788794e-05
1.6907724e-05
0.00013158131
0.00012767019
0.00012150433
0.00011414825
0.00010500072
9.3304199e-05
7.8633092e-05
6.0957969e-05
4.0788842e-05
1.6907806e-05
0.00013160158
0.0001276892
0.00012152017
0.00011415983
0.00010500808
9.3308098e-05
7.863462e-05
6.0958244e-05
4.0788767e-05
1.6907875e-05
0.0001316195
0.00012770585
0.00012153373
0.00011416939
0.00010501381
9.3310843e-05
7.8635452e-05
6.0958192e-05
4.0788594e-05
1.6907931e-05
0.00013163514
0.00012772024
0.00012154517
0.00011417711
0.00010501811
9.3312603e-05
7.863571e-05
6.0957879e-05
4.0788349e-05
1.6907977e-05
0.00013164862
0.00012773251
0.00012155466
0.00011418319
0.00010502118
9.3313539e-05
7.8635505e-05
6.0957368e-05
4.0788052e-05
1.6908014e-05
0.00013166009
0.00012774283
0.00012156238
0.00011418782
0.00010502317
9.3313791e-05
7.8634934e-05
6.0956708e-05
4.0787721e-05
1.6908042e-05
0.00013166971
0.00012775136
0.00012156852
0.00011419119
0.00010502427
9.331348e-05
7.8634074e-05
6.0955941e-05
4.0787368e-05
1.6908064e-05
0.00013167764
0.00012775826
0.00012157323
0.00011419344
0.00010502459
9.3312707e-05
7.8632989e-05
6.0955097e-05
4.0787002e-05
1.6908078e-05
0.00013168403
0.00012776369
0.00012157667
0.00011419472
0.00010502425
9.3311559e-05
7.8631733e-05
6.09542e-05
4.078663e-05
1.6908087e-05
0.00013168903
0.0001277678
0.000121579
0.00011419517
0.00010502338
9.3310116e-05
7.8630353e-05
6.0953274e-05
4.0786258e-05
1.6908091e-05
0.00013169277
0.00012777073
0.00012158036
0.00011419492
0.00010502209
9.3308461e-05
7.86289e-05
6.0952343e-05
4.0785895e-05
1.690809e-05
0.00013169544
0.00012777267
0.00012158091
0.00011419413
0.00010502048
9.3306673e-05
7.8627423e-05
6.095143e-05
4.0785548e-05
1.6908086e-05
0.00013169719
0.00012777376
0.00012158081
0.00011419292
0.00010501867
9.3304832e-05
7.8625968e-05
6.0950559e-05
4.0785225e-05
1.6908079e-05
0.0001316982
0.00012777419
0.00012158022
0.00011419144
0.00010501676
9.3303002e-05
7.8624575e-05
6.0949746e-05
4.078493e-05
1.690807e-05
0.00013169864
0.00012777411
0.00012157928
0.00011418978
0.00010501483
9.3301233e-05
7.8623267e-05
6.0949e-05
4.0784664e-05
1.6908061e-05
)
;

boundaryField
{
    water_inlet
    {
        type            calculated;
        value           uniform 4.1926275e-05;
    }
    water_outlet
    {
        type            calculated;
        value           nonuniform List<scalar> 10(0.00013169864 0.00012777411 0.00012157928 0.00011418978 0.00010501483 9.3301233e-05 7.8623267e-05 6.0949e-05 4.0784664e-05 1.6908061e-05);
    }
    water_wedge1
    {
        type            wedge;
    }
    water_wedge2
    {
        type            wedge;
    }
    water_to_rock
    {
        type            nutkWallFunction;
        blending        stepwise;
        value           nonuniform List<scalar> 
100
(
1.7358471e-06
1.9240026e-06
1.9263124e-06
1.8751054e-06
1.8229111e-06
1.7867869e-06
1.767118e-06
1.7584644e-06
1.7555993e-06
1.7553228e-06
1.7561183e-06
1.7574034e-06
1.7590033e-06
1.7608811e-06
1.7630285e-06
1.7654322e-06
1.7680556e-06
1.7708582e-06
1.7738125e-06
1.7768953e-06
1.780082e-06
1.7833458e-06
1.7866593e-06
1.7899941e-06
1.7933211e-06
1.7966093e-06
1.7998252e-06
1.8029327e-06
1.805893e-06
1.8086665e-06
1.8112153e-06
1.8135067e-06
1.8155158e-06
1.8172283e-06
1.8186411e-06
1.8197618e-06
1.8206069e-06
1.8212003e-06
1.82157e-06
1.8217469e-06
1.8217621e-06
1.8216462e-06
1.8214274e-06
1.8211315e-06
1.820779e-06
1.8203874e-06
1.8199741e-06
1.8195533e-06
1.8191368e-06
1.8187336e-06
1.8183505e-06
1.8179923e-06
1.8176621e-06
1.8173617e-06
1.8170919e-06
1.8168526e-06
1.8166431e-06
1.8164624e-06
1.8163089e-06
1.8161808e-06
1.8160762e-06
1.8159929e-06
1.8159287e-06
1.8158815e-06
1.8158493e-06
1.81583e-06
1.8158217e-06
1.8158226e-06
1.815831e-06
1.8158456e-06
1.8158648e-06
1.8158875e-06
1.8159125e-06
1.8159387e-06
1.8159655e-06
1.8159922e-06
1.8160183e-06
1.8160434e-06
1.8160672e-06
1.8160895e-06
1.8161101e-06
1.816129e-06
1.816146e-06
1.8161611e-06
1.8161743e-06
1.8161855e-06
1.8161951e-06
1.816203e-06
1.8162094e-06
1.8162146e-06
1.8162187e-06
1.8162217e-06
1.8162238e-06
1.816225e-06
1.8162255e-06
1.8162255e-06
1.816225e-06
1.8162241e-06
1.8162231e-06
1.8162219e-06
)
;
    }
}


// ************************************************************************* //
