/*--------------------------------*- C++ -*----------------------------------*\
| =========                 |                                                 |
| \\      /  F ield         | OpenFOAM: The Open Source CFD Toolbox           |
|  \\    /   O peration     | Version:  2506                                  |
|   \\  /    A nd           | Website:  www.openfoam.com                      |
|    \\/     M anipulation  |                                                 |
\*---------------------------------------------------------------------------*/
FoamFile
{
    version     2.0;
    format      ascii;
    arch        "LSB;label=32;scalar=64";
    class       surfaceScalarField;
    location    "12000/water";
    object      phi;
}
// * * * * * * * * * * * * * * * * * * * * * * * * * * * * * * * * * * * * * //

dimensions      [1 0 -1 0 0 0 0];

oriented        oriented;

internalField   nonuniform List<scalar> 
1890
(
-4.1736244e-05
0.0022168351
-0.00015753622
0.0059586937
-0.00032930669
0.0087985477
-0.00054203242
0.010900937
-0.00078239503
0.012402155
-0.0010351825
0.013412336
-0.0012746193
0.014013996
-0.0014359745
0.014245356
-0.001284859
0.0140006
0.012745539
-3.1455819e-05
0.002248291
-0.00011269722
0.0060399351
-0.00023219386
0.0089180443
-0.00037999424
0.011048737
-0.00054594259
0.012568103
-0.00071649909
0.013582893
-0.00086674526
0.014164243
-0.00093361978
0.01431223
-0.00073394532
0.013800926
0.012011594
-2.9138819e-05
0.0022774298
-0.00010672994
0.0061175262
-0.00022105539
0.0090323698
-0.00036160326
0.011189285
-0.00051700141
0.012723501
-0.00067116236
0.013737054
-0.00079396195
0.014287042
-0.00081139818
0.014329667
-0.00056729975
0.013556828
0.011444294
-2.7339929e-05
0.0023047697
-0.00010102593
0.0061912122
-0.0002092423
0.0091405862
-0.00034097885
0.011321022
-0.00048374646
0.012866269
-0.00061911443
0.013872422
-0.0007108809
0.014378809
-0.00067659786
0.014295384
-0.00042026025
0.01330049
0.011024034
-2.5625227e-05
0.0023303949
-9.4386127e-05
0.0062599731
-0.00019506686
0.0092412669
-0.00031669852
0.011442653
-0.00044589473
0.012995465
-0.00056132319
0.01398785
-0.00061882579
0.014436311
-0.00053651018
0.014213068
-0.00029565317
0.013059633
0.010728381
-2.4159501e-05
0.0023545544
-8.879953e-05
0.0063246132
-0.00018306055
0.0093355279
-0.00029574185
0.011555335
-0.00041210915
0.013111832
-0.00050662369
0.014082365
-0.00052703743
0.014456725
-0.00040878583
0.014094816
-0.00020043374
0.012851281
0.010527947
-2.2965484e-05
0.0023775199
-8.4333489e-05
0.0063859811
-0.00017335349
0.0094245479
-0.00027826888
0.01166025
-0.00038232773
0.013215891
-0.00045438075
0.014154418
-0.0004382088
0.014440553
-0.00030322055
0.013959828
-0.0001337912
0.012681851
0.010394156
-2.2023821e-05
0.0023995437
-8.0769719e-05
0.006444727
-0.00016540567
0.0095091839
-0.00026327204
0.011758116
-0.00035472747
0.013307347
-0.00040244518
0.014202136
-0.00035546111
0.014393569
-0.00022237126
0.013826738
-8.9856658e-05
0.012549337
0.010304299
-2.126054e-05
0.0024208043
-7.78125e-05
0.006501279
-0.00015855216
0.0095899235
-0.00024948517
0.011849049
-0.00032712241
0.013384984
-0.00034954589
0.014224559
-0.0002821282
0.014326151
-0.00016300075
0.013707611
-6.1424962e-05
0.012447761
0.010242874
-2.0607143e-05
0.0024414114
-7.5216615e-05
0.0065558885
-0.00015223228
0.0096669392
-0.00023577759
0.011932595
-0.00029784603
0.013447052
-0.00029644685
0.01422316
-0.0002202371
0.014249941
-0.00011980315
0.013607177
-4.2688005e-05
0.012370646
0.010200186
-2.0018288e-05
0.0024614297
-7.2804705e-05
0.0066086749
-0.00014600132
0.0097401358
-0.00022120573
0.012007799
-0.00026613512
0.013491982
-0.00024531947
0.014202344
-0.00016974795
0.01417437
-8.7951685e-05
0.013525381
-2.9806133e-05
0.0123125
0.01017038
-1.9463545e-05
0.0024808933
-7.044142e-05
0.0066596528
-0.00013947751
0.0098091719
-0.00020502206
0.012073344
-0.00023228148
0.013519241
-0.00019838595
0.014168449
-0.00012919897
0.014105183
-6.3920259e-05
0.013460102
-2.0487152e-05
0.012269067
0.010149893
-1.8918744e-05
0.002499812
-6.8008094e-05
0.0067087421
-0.00013229869
0.0098734625
-0.00018675585
0.012127801
-0.00019748228
0.013529968
-0.00015698108
0.014127947
-9.6701502e-05
0.014044903
-4.5356035e-05
0.013408757
-1.342741e-05
0.012237139
0.010136465
-1.8360389e-05
0.0025181724
-6.5381777e-05
0.0067557635
-0.00012410686
0.0099321876
-0.0001663345
0.012170029
-0.00016333293
0.013526966
-0.00012140657
0.014086021
-7.0529926e-05
0.013994027
-3.0719428e-05
0.013368946
-7.8892418e-06
0.012214309
0.010128576
-1.7761427e-05
0.0025359338
-6.2419632e-05
0.0068004218
-0.0001145768
0.0099843447
-0.00014416228
0.012199614
-0.00013123934
0.013514043
-9.1272136e-05
0.014046054
-4.929484e-05
0.013952049
-1.8984984e-05
0.013338636
-3.4317044e-06
0.012198755
0.010125144
-1.7087935e-05
0.0025530218
-5.8952517e-05
0.0068422863
-0.00010349022
0.010028882
-0.00012105228
0.012217176
-0.00010208252
0.013495073
-6.5898182e-05
0.01400987
-3.1931114e-05
0.013918082
-9.4500713e-06
0.013316155
2.8733468e-07
0.012189018
0.010125432
-1.6296487e-05
0.0025693183
-5.4793259e-05
0.0068807831
-9.0832145e-05
0.010064921
-9.7998482e-05
0.012224343
-7.6209477e-05
0.013473284
-4.4571495e-05
0.013978232
-1.7626788e-05
0.013891138
-1.5570729e-06
0.013300085
3.371789e-06
0.012184089
0.010128803
-1.5331804e-05
0.00258465
-4.9762045e-05
0.0069152133
-7.6852713e-05
0.010092012
-7.5898683e-05
0.012223388
-5.3589114e-05
0.013450975
-2.6634881e-05
0.013951277
-5.7259352e-06
0.013870229
4.9973503e-06
0.013289362
5.8490762e-06
0.012183237
0.010134653
-1.4126803e-05
0.0025987768
-4.3732927e-05
0.0069448194
-6.2044696e-05
0.010110324
-5.5380298e-05
0.012216724
-3.3986855e-05
0.013429581
-1.1512902e-05
0.013928803
4.2365751e-06
0.013854479
1.0367374e-05
0.013283231
7.8665165e-06
0.012185738
0.010142519
-1.2609259e-05
0.0026113861
-3.6695164e-05
0.0069689053
-4.7032249e-05
0.010120661
-3.677658e-05
0.012206468
-1.7082009e-05
0.013409887
1.3268026e-06
0.013910395
1.2525645e-05
0.01384328
1.4772814e-05
0.013280984
9.5150536e-06
0.012190996
0.010152034
-1.0718779e-05
0.0026221049
-2.8801424e-05
0.006986988
-3.2421288e-05
0.010124281
-2.0182882e-05
0.01219423
-2.4827525e-06
0.013392187
1.2169922e-05
0.013895742
1.9374762e-05
0.013836075
1.838794e-05
0.013281971
1.086041e-05
0.012198523
0.010162894
-8.4364307e-06
0.0026305413
-2.0369799e-05
0.0069989213
-1.8685449e-05
0.010122596
-5.5187582e-06
0.012181063
1.0030124e-05
0.013376638
2.1195979e-05
0.013884576
2.5022499e-05
0.013832249
2.1343795e-05
0.01328565
1.1950369e-05
0.012207917
0.010174845
-5.8190266e-06
0.0026363603
-1.1825591e-05
0.0070049279
-6.1106794e-06
0.010116881
7.2769158e-06
0.012167676
2.0570953e-05
0.013363344
2.868486e-05
0.013876462
2.9654506e-05
0.013831279
2.3738124e-05
0.013291566
1.2819097e-05
0.012218836
0.010187664
-3.0142252e-06
0.0026393745
-3.5959191e-06
0.0070055096
5.1030377e-06
0.010108182
1.8191488e-05
0.012154587
2.9355293e-05
0.01335218
3.4840929e-05
0.013870976
3.3407838e-05
0.013832712
2.5641713e-05
0.013299332
1.3490621e-05
0.012230987
0.010201155
-2.340783e-07
0.0026396086
3.9071755e-06
0.0070013683
1.4740485e-05
0.010097349
2.7285513e-05
0.012142042
3.6560184e-05
0.013342905
3.9812731e-05
0.013867724
3.6377945e-05
0.013836147
2.7101492e-05
0.013308609
1.3979488e-05
0.012244109
0.010215134
2.2770846e-06
0.0026373315
1.0308831e-05
0.0069933366
2.2681758e-05
0.010084976
3.4655795e-05
0.012130068
4.2308532e-05
0.013335252
4.3696752e-05
0.013866336
3.8621724e-05
0.013841222
2.8141565e-05
0.013319089
1.4290819e-05
0.012257959
0.010229425
4.3218254e-06
0.0026330097
1.5395248e-05
0.0069822631
2.8920561e-05
0.010071451
4.0373131e-05
0.012118615
4.667707e-05
0.013328948
4.6545248e-05
0.013866467
4.0162873e-05
0.013847604
2.876586e-05
0.013330486
1.442117e-05
0.012272304
0.010243846
5.8173221e-06
0.0026271924
1.9123837e-05
0.0069689566
3.3493122e-05
0.010057082
4.4499313e-05
0.012107609
4.9715016e-05
0.013323733
4.8381986e-05
0.0138678
4.1003189e-05
0.013854983
2.8965098e-05
0.013342524
1.4361766e-05
0.012286907
0.010258208
6.7757162e-06
0.0026204167
2.1562421e-05
0.0069541699
3.6486918e-05
0.010042157
4.7108074e-05
0.012096988
5.1466619e-05
0.013319374
4.9221661e-05
0.013870045
4.1137095e-05
0.013863068
2.8726019e-05
0.013354935
1.4102642e-05
0.012301531
0.01027231
7.2692747e-06
0.0026131474
2.2857516e-05
0.0069385817
3.8041919e-05
0.010026973
4.8301909e-05
0.012086728
5.1992154e-05
0.013315684
4.9089565e-05
0.013872948
4.056744e-05
0.01387159
2.8042227e-05
0.01336746
1.3638186e-05
0.012315935
0.010285949
7.3945971e-06
0.0026057528
2.3199076e-05
0.0069227772
3.8341703e-05
0.01001183
4.8219677e-05
0.01207685
5.1382105e-05
0.013312522
4.8036801e-05
0.013876293
3.9318716e-05
0.013880308
2.6923587e-05
0.013379855
1.2971584e-05
0.012329887
0.01029892
7.2477024e-06
0.0025985051
2.2789287e-05
0.0069072356
3.7597242e-05
0.0099970221
4.703402e-05
0.012067413
4.9762185e-05
0.013309793
4.61483e-05
0.013879907
3.7445131e-05
0.013889011
2.5402517e-05
0.013391898
1.2118409e-05
0.012343171
0.010311039
6.9115287e-06
0.0025915936
2.1819919e-05
0.0068923272
3.6028017e-05
0.009982814
4.4940579e-05
0.012058501
4.7288654e-05
0.013307445
4.3541609e-05
0.013883654
3.5030885e-05
0.013897522
2.3534458e-05
0.013403394
1.1106566e-05
0.012355599
0.010322145
6.4522717e-06
0.0025851413
2.0459358e-05
0.0068783202
3.3845427e-05
0.0099694279
4.2143631e-05
0.012050203
4.4137404e-05
0.013305452
4.035881e-05
0.013887433
3.2184175e-05
0.013905697
2.1393581e-05
0.013414185
9.9739758e-06
0.012367019
0.010332119
5.9202699e-06
0.002579221
1.8847429e-05
0.006865393
3.1240842e-05
0.0099570345
3.8842042e-05
0.012042601
4.0490454e-05
0.013303803
3.6754495e-05
0.013891169
2.9027073e-05
0.013913424
1.9065136e-05
0.013424147
8.7642887e-06
0.012377319
0.010340883
5.3526038e-06
0.0025738684
1.7095404e-05
0.0068536502
2.83789e-05
0.009945751
3.5218252e-05
0.012035762
3.6523382e-05
0.013302498
3.2883368e-05
0.013894809
2.5684514e-05
0.013920623
1.6636962e-05
0.013433194
7.5221456e-06
0.012386434
0.010348406
4.7759396e-06
0.0025690925
1.528883e-05
0.0068431373
2.5395303e-05
0.0099356446
3.1431357e-05
0.012029726
3.2395822e-05
0.013301534
2.8890006e-05
0.013898315
2.22748e-05
0.013927238
1.4192127e-05
0.013441277
6.2891485e-06
0.012394337
0.010354695
4.2090398e-06
0.0025648835
1.3491507e-05
0.0068338549
2.2397761e-05
0.0099267383
2.7614088e-05
0.01202451
2.8245667e-05
0.013300902
2.4901865e-05
0.013901659
1.8902887e-05
0.013933237
1.1803748e-05
0.013448376
5.1011797e-06
0.01240104
0.010359796
3.6647677e-06
0.0025612187
1.1749577e-05
0.0068257701
1.9468742e-05
0.0099190192
2.3872675e-05
0.012020106
2.4186533e-05
0.013300588
2.1025464e-05
0.01390482
1.5656473e-05
0.013938606
9.5320515e-06
0.013454501
3.9870107e-06
0.012406585
0.010363783
3.151612e-06
0.0025580671
1.0095194e-05
0.0068188265
1.6668968e-05
0.0099124454
2.0288542e-05
0.012016486
2.0307575e-05
0.013300569
1.7345013e-05
0.013907782
1.2604327e-05
0.013943347
7.4231234e-06
0.013459682
2.9677163e-06
0.01241104
0.010366751
2.674851e-06
0.0025553922
8.5496565e-06
0.0068129517
1.4041051e-05
0.009906954
1.6921033e-05
0.012013606
1.6674952e-05
0.013300815
1.3922953e-05
0.013910534
9.7964306e-06
0.013947473
5.5091173e-06
0.013463969
2.0571416e-06
0.012414492
0.010368808
2.2373782e-06
0.0025531549
7.1258721e-06
0.0068080632
1.1612756e-05
0.0099024671
1.3810357e-05
0.012011409
1.3333967e-05
0.013301292
1.0801373e-05
0.013913067
7.2649777e-06
0.01395101
3.809009e-06
0.013467425
1.2622117e-06
0.012417039
0.01037007
1.8403743e-06
0.0025513145
5.8304491e-06
0.0068040731
9.400148e-06
0.0098988974
1.0980963e-05
0.012009828
1.0312243e-05
0.01330196
8.0048832e-06
0.013915374
5.02697e-06
0.013953988
2.3308353e-06
0.013470121
5.8456492e-07
0.012418785
0.010370655
1.4837588e-06
0.0025498307
4.6652325e-06
0.0068008916
7.4100521e-06
0.0098961526
8.4443791e-06
0.012008794
7.6224687e-06
0.013302782
5.5430931e-06
0.013917454
3.0863913e-06
0.013956444
1.0742959e-06
0.013472133
3.1830795e-08
0.012419828
0.010370686
1.1665202e-06
0.0025486642
3.6283905e-06
0.0067984298
5.6418576e-06
0.0098941392
6.2013403e-06
0.012008234
5.2646003e-06
0.013303719
3.4129731e-06
0.013919305
1.4378191e-06
0.01395842
4.0339636e-08
0.013473531
-4.1108426e-07
0.012420279
0.010370275
8.870044e-07
0.0025477772
2.7155145e-06
0.0067966013
4.0896189e-06
0.0098927651
4.2448232e-06
0.012008079
3.2298444e-06
0.013304734
1.6043556e-06
0.013920931
7.539208e-08
0.013959949
-7.9503627e-07
0.013474401
-7.6963935e-07
0.012420254
0.010369506
6.4319624e-07
0.002547134
1.9206605e-06
0.0067953238
2.7441583e-06
0.0098919416
2.5633294e-06
0.01200826
1.5053907e-06
0.013305792
1.0693498e-07
0.013922329
-1.0292276e-06
0.013961085
-1.4647508e-06
0.013474837
-1.0484688e-06
0.012419838
0.010368457
4.328424e-07
0.0025467012
1.2368959e-06
0.0067945198
1.5942781e-06
0.0098915842
1.1430939e-06
0.012008711
7.7922297e-08
0.013306857
-1.1093681e-06
0.013923516
-1.9128409e-06
0.013961888
-1.982045e-06
0.013474906
-1.2538452e-06
0.01241911
0.010367203
2.5362465e-07
0.0025464475
6.5698902e-07
0.0067941164
6.2867012e-07
0.0098916125
-2.9931921e-08
0.01200937
-1.0819439e-06
0.013307909
-2.0818905e-06
0.013924516
-2.5952385e-06
0.013962402
-2.361587e-06
0.013474672
-1.3935215e-06
0.012418141
0.01036581
1.0328651e-07
0.0025463442
1.7393005e-07
0.0067940457
-1.6610938e-07
0.0098919525
-9.822597e-07
0.012010186
-2.0092784e-06
0.013308936
-2.8341588e-06
0.013925341
-3.0972819e-06
0.013962665
-2.6195622e-06
0.013474195
-1.4762065e-06
0.012416998
0.010364334
-2.065276e-08
0.0025463649
-2.215252e-07
0.0067942466
-8.0999752e-07
0.009892541
-1.7428758e-06
0.012011119
-2.7273438e-06
0.013309921
-3.3898765e-06
0.013926004
-3.4408892e-06
0.013962716
-2.7726896e-06
0.013473526
-1.5107138e-06
0.012415736
0.010362823
-1.2122302e-07
0.0025464861
-5.402399e-07
0.0067946656
-1.3218222e-06
0.0098933226
-2.3310393e-06
0.012012128
-3.2592591e-06
0.013310849
-3.7733819e-06
0.013926518
-3.6482099e-06
0.01396259
-2.8376122e-06
0.013472716
-1.5057286e-06
0.012414404
0.010361317
-2.0122144e-07
0.0025466873
-7.9099652e-07
0.0067952554
-1.7153711e-06
0.009894247
-2.7662055e-06
0.012013179
-3.628116e-06
0.013311711
-4.0085512e-06
0.013926898
-3.7405861e-06
0.013962323
-2.8300351e-06
0.013471805
-1.4692622e-06
0.012413043
0.010359848
-2.6291445e-07
0.0025469503
-9.8125513e-07
0.0067959737
-2.0042508e-06
0.0098952699
-3.0673688e-06
0.012014242
-3.8561888e-06
0.0133125
-4.1180145e-06
0.01392716
-3.737823e-06
0.013961942
-2.7642063e-06
0.013470832
-1.4084347e-06
0.012411688
0.01035844
-3.0843031e-07
0.0025472587
-1.1181916e-06
0.0067967835
-2.2015432e-06
0.0098963533
-3.2526268e-06
0.012015293
-3.9644008e-06
0.013313211
-4.1226342e-06
0.013927318
-3.6577724e-06
0.013961477
-2.6526161e-06
0.013469827
-1.3292638e-06
0.012410364
0.01035711
-3.3978647e-07
0.0025475985
-1.2086435e-06
0.0067976524
-2.3196786e-06
0.0098974643
-3.3390106e-06
0.012016312
-3.9721803e-06
0.013313845
-4.0414447e-06
0.013927388
-3.516373e-06
0.013960952
-2.5061599e-06
0.013468816
-1.2369158e-06
0.012409095
0.010355873
-3.5887455e-07
0.0025479574
-1.2590441e-06
0.0067985525
-2.3703001e-06
0.0098985756
-3.3423356e-06
0.012017284
-3.8973217e-06
0.0133144
-3.8915738e-06
0.013927382
-3.3276787e-06
0.013960389
-2.3342014e-06
0.013467823
-1.1356413e-06
0.012407897
0.010354738
-3.6748002e-07
0.0025483248
-1.2754398e-06
0.0067994605
-2.3643002e-06
0.0098996644
-3.2772623e-06
0.012018197
-3.7561315e-06
0.013314878
-3.6885084e-06
0.013927314
-3.1042077e-06
0.013959804
-2.144977e-06
0.013466864
-1.0291883e-06
0.012406781
0.010353709
-3.6726422e-07
0.0025486921
-1.2634553e-06
0.0068003567
-2.3117503e-06
0.0099007127
-3.1572289e-06
0.012019043
-3.5633698e-06
0.013315285
-3.4460636e-06
0.013927197
-2.8569532e-06
0.013959215
-1.9456027e-06
0.013465952
-9.2070212e-07
0.012405756
0.010352788
-3.5977094e-07
0.0025490519
-1.2282921e-06
0.0068012252
-2.2219039e-06
0.0099017063
-2.9944509e-06
0.012019815
-3.3322877e-06
0.013315622
-3.1764587e-06
0.013927041
-2.5954991e-06
0.013958634
-1.7422009e-06
0.013465099
-8.1290365e-07
0.012404827
0.010351975
-3.4641279e-07
0.0025493983
-1.1746961e-06
0.0068020535
-2.103131e-06
0.0099026348
-2.7998428e-06
0.012020512
-3.074532e-06
0.013315897
-2.8902355e-06
0.013926857
-2.3279311e-06
0.013958072
-1.5398127e-06
0.013464311
-7.0794987e-07
0.012403995
0.010351267
-3.2847217e-07
0.0025497267
-1.1069502e-06
0.006802832
-1.9629109e-06
0.0099034907
-2.5830176e-06
0.012021132
-2.8001778e-06
0.013316114
-2.5963152e-06
0.013926653
-2.060916e-06
0.013957536
-1.3424639e-06
0.013463592
-6.0751727e-07
0.01240326
0.010350659
-3.0709609e-07
0.0025500338
-1.0288639e-06
0.0068035537
-1.8078175e-06
0.0099042697
-2.3522909e-06
0.012021676
-2.5177658e-06
0.01331628
-2.302071e-06
0.013926437
-1.7997875e-06
0.013957034
-1.153232e-06
0.013462946
-5.1278933e-07
0.012402619
0.010350147
-2.8330349e-07
0.0025503172
-9.4379284e-07
0.0068042142
-1.6435712e-06
0.0099049695
-2.1147798e-06
0.012022148
-2.2344598e-06
0.013316399
-2.0135356e-06
0.013926216
-1.5487777e-06
0.013956569
-9.744756e-07
0.013462372
-4.2465278e-07
0.012402069
0.010349722
-2.5798223e-07
0.0025505751
-8.5464273e-07
0.0068048109
-1.4750629e-06
0.0099055899
-1.8764628e-06
0.012022549
-1.9561363e-06
0.013316479
-1.7355188e-06
0.013925996
-1.3111364e-06
0.013956145
-8.0789718e-07
0.013461868
-3.4365874e-07
0.012401605
0.010349378
-2.319027e-07
0.002550807
-7.6390918e-07
0.0068053429
-1.3064343e-06
0.0099061324
-1.6423047e-06
0.012022885
-1.6875675e-06
0.013316524
-1.4718058e-06
0.01392578
-1.0893192e-06
0.013955763
-6.5472437e-07
0.013461434
-2.7021194e-07
0.012401221
0.010349108
-2.0571245e-07
0.0025510127
-6.7367752e-07
0.0068058109
-1.1410843e-06
0.0099065998
-1.4162843e-06
0.01202316
-1.4324344e-06
0.01331654
-1.2251647e-06
0.013925573
-8.8496833e-07
0.013955422
-5.1564122e-07
0.013461064
-2.0441447e-07
0.012400909
0.010348904
-1.7995688e-07
0.0025511927
-5.8567049e-07
0.0068062166
-9.8176443e-07
0.0099069959
-1.2015133e-06
0.01202338
-1.1934901e-06
0.013316532
-9.9751465e-07
0.013925377
-6.9906717e-07
0.013955124
-3.909243e-07
0.013460756
-1.4625485e-07
0.012400665
0.010348757
-1.5507166e-07
0.0025513478
-5.0125381e-07
0.0068065627
-8.3059315e-07
0.0099073252
-1.0002855e-06
0.01202355
-9.7260337e-07
0.013316505
-7.8996014e-07
0.013925194
-5.31947e-07
0.013954866
-2.803913e-07
0.013460505
-9.5432521e-08
0.01240048
0.010348662
-1.3140712e-07
0.0025514792
-4.2149583e-07
0.0068068528
-6.8916888e-07
0.0099075929
-8.1423017e-07
0.012023675
-7.7096284e-07
0.013316461
-6.0301914e-07
0.013925026
-3.8351344e-07
0.013954646
-1.8362476e-07
0.013460305
-5.159719e-08
0.012400348
0.01034861
-1.0922797e-07
0.0025515884
-3.4718803e-07
0.0068070908
-5.586226e-07
0.0099078043
-6.4440109e-07
0.01202376
-5.8918744e-07
0.013316406
-4.3674255e-07
0.013924874
-2.5335983e-07
0.013954463
-1.0000382e-07
0.013460151
-1.3841266e-08
0.012400262
0.010348597
-8.873065e-08
0.0025516771
-2.7890092e-07
0.006807281
-4.3972339e-07
0.0099079652
-4.9143211e-07
0.012023812
-4.275192e-07
0.013316342
-2.9090662e-07
0.013924737
-1.4088021e-07
0.013954313
-2.8494765e-08
0.013460039
1.8138693e-08
0.012400215
0.010348615
-7.0046917e-08
0.0025517472
-2.1700326e-07
0.0068074279
-3.3291545e-07
0.0099080811
-3.5557477e-07
0.012023835
-2.8582746e-07
0.013316273
-1.6495492e-07
0.013924616
-4.5033718e-08
0.013954193
3.1450208e-08
0.013459963
4.3811505e-08
0.012400203
0.010348659
-5.3248126e-08
0.0025518004
-1.6166621e-07
0.0068075363
-2.3831268e-07
0.0099081577
-2.3666644e-07
0.012023833
-1.6353112e-07
0.013316199
-5.7788467e-08
0.01392451
3.5082174e-08
0.0139541
7.9722513e-08
0.013459918
6.346022e-08
0.012400219
0.010348722
-3.8345575e-08
0.0025518388
-1.1287396e-07
0.0068076109
-1.5570058e-07
0.0099082006
-1.341033e-07
0.012023811
-5.9470245e-08
0.013316125
3.1843889e-08
0.013924419
9.9884297e-08
0.013954032
1.1707051e-07
0.013459901
7.794032e-08
0.012400258
0.0103488
-2.5308185e-08
0.0025518641
-7.0453462e-08
0.006807656
-8.458247e-08
0.0099082147
-4.6845534e-08
0.012023774
2.7653871e-08
0.01331605
1.0467225e-07
0.013924342
1.5040817e-07
0.013953986
1.4484411e-07
0.013459906
8.7958049e-08
0.012400315
0.010348888
-1.4055624e-08
0.0025518781
-3.4073682e-08
0.006807676
-2.4141503e-08
0.0099082047
2.6231418e-08
0.012023723
9.8709204e-08
0.013315978
1.6191065e-07
0.013924279
1.8846452e-07
0.01395396
1.6445318e-07
0.01345993
9.4287651e-08
0.012400385
0.010348982
-4.4750246e-09
0.0025518826
-3.2879037e-09
0.0068076748
2.6325286e-08
0.0099081751
8.5843431e-08
0.012023664
1.5481879e-07
0.013315909
2.0543282e-07
0.013924228
2.1577023e-07
0.013953949
1.7718127e-07
0.013459969
9.7580119e-08
0.012400465
0.01034908
3.5338742e-09
0.0025518791
2.2204723e-08
0.0068076561
6.730274e-08
0.00990813
1.3293651e-07
0.012023598
1.976693e-07
0.013315844
2.3698669e-07
0.013924189
2.3388202e-07
0.013953952
1.8416296e-07
0.013460019
9.8410642e-08
0.01240055
0.010349178
1.0050961e-08
0.002551869
4.2669278e-08
0.0068076235
9.9510196e-08
0.0099080732
1.688375e-07
0.012023529
2.2881824e-07
0.013315784
2.5813511e-07
0.01392416
2.4413501e-07
0.013953966
1.8634239e-07
0.013460076
9.7261819e-08
0.012400639
0.010349275
1.5181498e-08
0.0025518538
5.8546701e-08
0.0068075801
1.2382688e-07
0.0099080079
1.9475802e-07
0.012023458
2.4962987e-07
0.013315729
2.7018604e-07
0.013924139
2.4759323e-07
0.013953989
1.8440127e-07
0.01346014
9.439683e-08
0.012400729
0.01034937
1.9063872e-08
0.0025518348
7.0315051e-08
0.0068075289
1.4112896e-07
0.0099079371
2.1188086e-07
0.012023387
2.6142188e-07
0.01331568
2.7438348e-07
0.013924126
2.4524183e-07
0.013954018
1.7897029e-07
0.013460206
9.0114072e-08
0.012400818
0.01034946
2.1832723e-08
0.0025518129
7.8439541e-08
0.0068074723
1.5225683e-07
0.0099078632
2.2133138e-07
0.012023318
2.6542404e-07
0.013315636
2.7186611e-07
0.01392412
2.3797279e-07
0.013954052
1.7059062e-07
0.013460273
8.4589806e-08
0.012400904
0.010349545
2.3634059e-08
0.0025517893
8.3406059e-08
0.0068074125
1.5808203e-07
0.0099077886
2.2427225e-07
0.012023252
2.6292227e-07
0.013315597
2.6384996e-07
0.013924119
2.2675612e-07
0.013954089
1.5990317e-07
0.01346034
7.8140631e-08
0.012400986
0.010349623
2.4609164e-08
0.0025517647
8.5694023e-08
0.0068073514
1.5946386e-07
0.0099077148
2.2185586e-07
0.01202319
2.551909e-07
0.013315564
2.5154681e-07
0.013924122
2.1258841e-07
0.013954128
1.475779e-07
0.013460405
7.1062449e-08
0.012401062
0.010349694
2.4898137e-08
0.0025517398
8.5777119e-08
0.0068072906
1.5724991e-07
0.0099076433
2.1521466e-07
0.012023132
2.4349375e-07
0.013315535
2.3617168e-07
0.01392413
1.9648802e-07
0.013954168
1.3433648e-07
0.013460467
6.3727824e-08
0.012401133
0.010349757
2.4627372e-08
0.0025517152
8.4089443e-08
0.0068072311
1.5221685e-07
0.0099075752
2.0537846e-07
0.012023078
2.2895512e-07
0.013315512
2.1879278e-07
0.01392414
1.7934025e-07
0.013954207
1.2079115e-07
0.013460526
5.6433385e-08
0.012401197
0.010349814
2.3913641e-08
0.0025516913
8.1022408e-08
0.006807174
1.4505336e-07
0.0099075112
1.9324253e-07
0.01202303
2.1254167e-07
0.013315492
2.0030472e-07
0.013924152
1.6186588e-07
0.013954246
1.074436e-07
0.01346058
4.945449e-08
0.012401255
0.010349863
2.2849828e-08
0.0025516684
7.689623e-08
0.0068071199
1.3631235e-07
0.0099074517
1.7950185e-07
0.012022987
1.9495847e-07
0.013315477
1.8131648e-07
0.013924166
1.4450897e-07
0.013954283
9.455371e-08
0.01346063
4.2869968e-08
0.012401307
0.010349906
2.152096e-08
0.0025516469
7.1984536e-08
0.0068070695
1.2644976e-07
0.0099073973
1.6470621e-07
0.012022949
1.7674054e-07
0.013315465
1.6225057e-07
0.01392418
1.2754263e-07
0.013954317
8.2251458e-08
0.013460675
3.6737334e-08
0.012401353
0.010349943
1.9993321e-08
0.0025516269
6.6503954e-08
0.006807023
1.1581592e-07
0.009907348
1.4926118e-07
0.012022915
1.582479e-07
0.013315456
1.4336156e-07
0.013924195
1.1107997e-07
0.01395435
7.052886e-08
0.013460716
3.097898e-08
0.012401392
0.010349974
1.8330095e-08
0.0025516086
6.0647313e-08
0.0068069807
1.0471955e-07
0.0099073039
1.3351976e-07
0.012022887
1.3979907e-07
0.01331545
1.2486576e-07
0.01392421
9.5215185e-08
0.013954379
5.9384554e-08
0.013460752
2.5569087e-08
0.012401426
0.01035
1.6588417e-08
0.002551592
5.459165e-08
0.0068069427
9.3444537e-08
0.0099072651
1.178135e-07
0.012022862
1.2170655e-07
0.013315446
1.0700406e-07
0.013924225
8.0103994e-08
0.013954406
4.8885688e-08
0.013460783
2.0517375e-08
0.012401454
0.01035002
1.4817063e-08
0.0025515772
4.8494829e-08
0.006806909
8.2251842e-08
0.0099072313
1.0245954e-07
0.012022842
1.0428153e-07
0.013315444
9.0041386e-08
0.013924239
6.5921012e-08
0.01395443
3.9123813e-08
0.01346081
1.5831458e-08
0.012401478
0.010350036
1.3067629e-08
0.0025515641
4.2514942e-08
0.0068068795
7.1406779e-08
0.0099072024
8.7789101e-08
0.012022826
8.7876359e-08
0.013315444
7.429997e-08
0.013924253
5.2945179e-08
0.013954452
3.0309259e-08
0.013460832
1.1666952e-08
0.012401496
0.010350048
1.1372628e-08
0.0025515527
3.6768718e-08
0.0068068541
6.1106276e-08
0.0099071781
7.4048941e-08
0.012022813
7.2735942e-08
0.013315445
5.9998052e-08
0.013924265
4.1340326e-08
0.01395447
2.2550352e-08
0.013460851
8.0421548e-09
0.012401511
0.010350056
9.7645256e-09
0.002551543
3.1356379e-08
0.0068068325
5.1516385e-08
0.0099071579
6.1433322e-08
0.012022803
5.9058065e-08
0.013315448
4.7304458e-08
0.013924277
3.1248564e-08
0.013954486
1.5959313e-08
0.013460867
5.0542716e-09
0.012401522
0.010350061
8.2532888e-09
0.0025515347
2.6318353e-08
0.0068068145
4.2697709e-08
0.0099071415
4.9997691e-08
0.012022795
4.6862072e-08
0.013315451
3.6199721e-08
0.013924288
2.2611283e-08
0.0139545
1.0473093e-08
0.013460879
2.6536671e-09
0.01240153
0.010350063
6.8513203e-09
0.0025515279
2.1672014e-08
0.0068067997
3.4681352e-08
0.0099071285
3.9805589e-08
0.01202279
3.6253756e-08
0.013315454
2.6821989e-08
0.013924297
1.5585421e-08
0.013954511
6.2161999e-09
0.013460888
9.1220742e-10
0.012401535
0.010350064
3.1157206e-09
9.8587625e-09
1.5682768e-08
1.7837803e-08
1.601595e-08
1.1624904e-08
6.5105705e-09
2.3891909e-09
1.5363707e-10
)
;

boundaryField
{
    water_inlet
    {
        type            calculated;
        value           nonuniform List<scalar> 10(-0.0021750989 -0.0058428937 -0.0086267772 -0.010688211 -0.012161792 -0.013159549 -0.01377456 -0.014084001 -0.014151716 -0.014030398);
    }
    water_outlet
    {
        type            calculated;
        value           nonuniform List<scalar> 10(0.0025515247 0.0068067929 0.0099071227 0.012022788 0.013315456 0.013924302 0.013954516 0.013460892 0.012401537 0.010350064);
    }
    water_wedge1
    {
        type            wedge;
        value           nonuniform List<scalar> 
1000
(
-1.1296023e-13
-1.4267626e-13
-1.1216163e-13
-1.0631325e-13
-9.9351273e-14
-9.3383933e-14
-8.8692592e-14
-8.4957962e-14
-8.1974554e-14
-7.9486779e-14
-7.7281259e-14
-7.5240825e-14
-7.3266375e-14
-7.1276183e-14
-6.918488e-14
-6.6857091e-14
-6.4132363e-14
-6.0817354e-14
-5.66702e-14
-5.1409557e-14
-4.4792389e-14
-3.6658555e-14
-2.7083733e-14
-1.6561173e-14
-5.861953e-15
4.0650179e-15
1.2374122e-14
1.867439e-14
2.2901517e-14
2.5297293e-14
2.622086e-14
2.600186e-14
2.5026582e-14
2.3517475e-14
2.1682685e-14
1.9699628e-14
1.763066e-14
1.5592308e-14
1.3611628e-14
1.172698e-14
9.9978484e-15
8.3977342e-15
6.9291361e-15
5.6120422e-15
4.4385632e-15
3.3997049e-15
2.4955006e-15
1.7162022e-15
1.0420563e-15
4.7617897e-16
1.6697921e-17
-3.6414647e-16
-6.7293987e-16
-9.1371106e-16
-1.0871817e-15
-1.2091322e-15
-1.2878016e-15
-1.3245151e-15
-1.3316632e-15
-1.3064692e-15
-1.2679504e-15
-1.2108436e-15
-1.130526e-15
-1.0441625e-15
-9.5401379e-16
-8.5876469e-16
-7.6756408e-16
-6.7683363e-16
-5.8369097e-16
-4.9912982e-16
-4.1356372e-16
-3.4033338e-16
-2.7270534e-16
-2.066066e-16
-1.5418287e-16
-1.0615365e-16
-6.2527892e-17
-2.8837178e-17
1.4749897e-18
2.9605849e-17
4.9241382e-17
6.330713e-17
7.2379949e-17
7.8940119e-17
8.4723502e-17
8.6882802e-17
8.4630043e-17
7.9974989e-17
7.5830728e-17
7.7782576e-17
7.2048325e-17
6.09608e-17
5.6745439e-17
4.9146183e-17
4.1913781e-17
3.8162803e-17
3.4415944e-17
3.1585778e-17
2.0455661e-17
5.3435488e-18
-6.8081337e-13
-1.0335457e-12
-8.392879e-13
-7.9752603e-13
-7.4939834e-13
-7.0313573e-13
-6.6536221e-13
-6.3522943e-13
-6.1093851e-13
-5.9052743e-13
-5.7244796e-13
-5.5560559e-13
-5.391249e-13
-5.2220002e-13
-5.039757e-13
-4.8343245e-13
-4.5934345e-13
-4.3018896e-13
-3.9436872e-13
-3.5055664e-13
-2.9814069e-13
-2.3765563e-13
-1.7103624e-13
-1.0155585e-13
-3.3368552e-14
2.8949611e-14
8.1488934e-14
1.2215141e-13
1.5063858e-13
1.6797632e-13
1.7589386e-13
1.7635131e-13
1.7126814e-13
1.622722e-13
1.5073166e-13
1.3769526e-13
1.2392949e-13
1.1004239e-13
9.6438819e-14
8.3435102e-14
7.122408e-14
5.9903751e-14
4.9551623e-14
4.019485e-14
3.1829664e-14
2.4421498e-14
1.7934367e-14
1.231649e-14
7.5073312e-15
3.4610833e-15
1.1232418e-16
-2.6183236e-15
-4.8015047e-15
-6.5039237e-15
-7.7729898e-15
-8.6611001e-15
-9.2168902e-15
-9.4935899e-15
-9.5334248e-15
-9.3755901e-15
-9.064074e-15
-8.6207916e-15
-8.0832247e-15
-7.479371e-15
-6.8287766e-15
-6.1562942e-15
-5.4746646e-15
-4.8042982e-15
-4.158152e-15
-3.5401137e-15
-2.9545948e-15
-2.4127332e-15
-1.9208691e-15
-1.4748126e-15
-1.0812268e-15
-7.3439818e-16
-4.2818959e-16
-1.7004456e-16
4.6381815e-17
2.2025962e-16
3.570941e-16
4.669769e-16
5.4374385e-16
5.9269788e-16
6.24905e-16
6.3801844e-16
6.3392438e-16
6.1832414e-16
5.9188876e-16
5.5616917e-16
5.1605273e-16
4.7857843e-16
4.3419289e-16
3.8670216e-16
3.4222265e-16
2.9885503e-16
2.5587703e-16
2.1501778e-16
1.788831e-16
1.0261269e-16
3.1339107e-12
4.8023009e-12
3.9072354e-12
3.7113884e-12
3.4900563e-12
3.2689362e-12
3.0860205e-12
2.9387806e-12
2.8176144e-12
2.7124742e-12
2.6152674e-12
2.5197155e-12
2.4205058e-12
2.3123542e-12
2.189493e-12
2.0461133e-12
1.8774931e-12
1.6811018e-12
1.4574309e-12
1.2105592e-12
9.4810339e-13
6.8018053e-13
4.1760673e-13
1.7020003e-13
-5.3302517e-14
-2.4554329e-13
-4.0216862e-13
-5.2204215e-13
-6.0637131e-13
-6.5807886e-13
-6.8131093e-13
-6.8088967e-13
-6.6177371e-13
-6.2867431e-13
-5.8577706e-13
-5.3662318e-13
-4.84107e-13
-4.3049067e-13
-3.774901e-13
-3.26366e-13
-2.780128e-13