/*--------------------------------*- C++ -*----------------------------------*\
| =========                 |                                                 |
| \\      /  F ield         | OpenFOAM: The Open Source CFD Toolbox           |
|  \\    /   O peration     | Version:  2506                                  |
|   \\  /    A nd           | Website:  www.openfoam.com                      |
|    \\/     M anipulation  |                                                 |
\*---------------------------------------------------------------------------*/
FoamFile
{
    version     2.0;
    format      ascii;
    arch        "LSB;label=32;scalar=64";
    class       volVectorField;
    location    "12000/water";
    object      U;
}
// * * * * * * * * * * * * * * * * * * * * * * * * * * * * * * * * * * * * * //

dimensions      [0 1 -1 0 0 0 0];

internalField   nonuniform List<vector> 
1000
(
(0.25225587 -0.00012859767 2.108327e-18)
(0.25226258 -0.00027067836 1.0868046e-18)
(0.25227485 -0.00041450539 2.2781611e-18)
(0.25228819 -0.00055572716 2.6797509e-19)
(0.25229018 -0.00068575789 4.3555546e-19)
(0.25223998 -0.00079863172 -4.6429888e-20)
(0.25200713 -0.00089615193 -1.2081731e-19)
(0.25115686 -0.0010460356 -3.3794435e-19)
(0.24780473 -0.0012820719 -2.0218679e-19)
(0.23308261 0.0010121611 -3.462297e-19)
(0.25653043 -7.7330444e-05 1.6097684e-18)
(0.25653977 -0.0001890383 1.5490426e-18)
(0.25655871 -0.00029096536 2.5977712e-18)
(0.25657276 -0.00039024487 4.8733336e-19)
(0.25654377 -0.00048175039 1.4997357e-19)
(0.25636039 -0.00055898444 -1.6071651e-20)
(0.25570613 -0.00060536502 -1.9050695e-19)
(0.25355952 -0.00065441372 -5.3385906e-19)
(0.24574266 -0.00084724777 -3.6135263e-19)
(0.21968686 0.00025718798 -4.1368041e-19)
(0.26021787 -7.3909973e-05 -1.0286421e-18)
(0.26022468 -0.00018059832 -6.7016573e-19)
(0.26023383 -0.00027741909 5.9212702e-19)
(0.26021807 -0.0003715974 7.0867587e-20)
(0.26010153 -0.00045735769 -5.6702099e-19)
(0.25968006 -0.00053044594 -4.1463966e-19)
(0.25840621 -0.00057093095 -2.8528601e-19)
(0.25452354 -0.00056554758 -5.1544878e-19)
(0.24186464 -0.000619877 -4.9696889e-19)
(0.20839343 1.1252571e-05 -3.822048e-19)
(0.26340527 -6.8945961e-05 -5.6287607e-19)
(0.26340956 -0.00017058505 -4.6213916e-19)
(0.26340597 -0.00026279222 5.026724e-19)
(0.2633478 -0.00035138357 -5.7743935e-20)
(0.26310913 -0.00042951119 -3.0716153e-19)
(0.26237282 -0.00049394956 -5.008325e-19)
(0.26030373 -0.00052750922 -3.8522075e-19)
(0.25430846 -0.0004928984 -3.94029e-19)
(0.23723184 -0.00045934207 -4.2423729e-19)
(0.19958845 -4.8876044e-05 -3.1886208e-19)
(0.26641629 -6.4388913e-05 -2.8031219e-18)
(0.26641556 -0.00015946865 8.5820747e-19)
(0.266392 -0.00024539847 2.4609088e-19)
(0.26627267 -0.0003274875 1.5194158e-19)
(0.26586989 -0.00039791723 -3.5910305e-20)
(0.26472852 -0.00045250578 1.9325111e-19)
(0.26164539 -0.00047360768 -1.86352e-19)
(0.25321244 -0.00041483679 -3.8903909e-19)
(0.23271017 -0.00033459186 -4.0793987e-19)
(0.19329521 -5.0633291e-05 -3.6170286e-19)
(0.26927574 -6.0867491e-05 -1.7301832e-18)
(0.26926716 -0.0001502432 2.7769333e-19)
(0.26921481 -0.00023070435 6.8739288e-20)
(0.26901238 -0.0003070273 3.9866113e-19)
(0.26839648 -0.00037050002 -2.2882241e-20)
(0.26673517 -0.00041493258 1.9047684e-19)
(0.26236786 -0.00041871869 -1.7156868e-19)
(0.25136275 -0.00033835055 -3.6834502e-19)
(0.22869804 -0.00023662913 -2.5146104e-19)
(0.18902137 -3.9495335e-05 -3.9007794e-19)
(0.27197991 -5.8057519e-05 2.8151231e-18)
(0.27196007 -0.00014287131 1.5977355e-18)
(0.2718683 -0.00021894833 5.7257782e-20)
(0.27155651 -0.00029030365 6.3244501e-19)
(0.27066609 -0.00034729035 -8.4211837e-20)
(0.26833153 -0.00038068386 -1.602786e-19)
(0.26239849 -0.00036437423 -3.0033705e-19)
(0.24902638 -0.00026852658 -2.3352079e-19)
(0.22536099 -0.00016272852 -1.5423702e-19)
(0.18616827 -2.8774614e-05 -3.6298067e-19)
(0.27455816 -5.5861799e-05 1.0284199e-18)
(0.27452281 -0.00013703203 2.0487878e-18)
(0.27437848 -0.00020952011 7.2296576e-19)
(0.27392443 -0.00027640513 3.6344131e-19)
(0.27267858 -0.00032682138 1.8998e-19)
(0.26947689 -0.00034738531 1.3369162e-19)
(0.26178469 -0.00031092811 9.5961619e-21)
(0.24657379 -0.00020816985 -1.7400026e-19)
(0.22271517 -0.00011050182 -2.739766e-19)
(0.18425835 -2.0836538e-05 -2.25598e-19)
(0.27704027 -5.4085667e-05 2.7942061e-19)
(0.27698407 -0.00013225425 1.248399e-18)
(0.27677058 -0.00020162559 1.3657385e-18)
(0.27613171 -0.00026417278 4.7295197e-19)
(0.27442315 -0.00030720587 3.2581521e-19)
(0.27014175 -0.00031294788 9.0848563e-20)
(0.26068999 -0.0002592579 6.5977361e-20)
(0.2442983 -0.00015836427 -4.9623252e-20)
(0.2206758 -7.5408418e-05 4.7998075e-20)
(0.18296197 -1.5153419e-05 -2.3961562e-21)
(0.2794434 -5.2555711e-05 2.0982282e-18)
(0.27935955 -0.00012814124 1.4036188e-18)
(0.27905543 -0.00019460733 2.4163286e-19)
(0.27817576 -0.00025259209 3.4211217e-19)
(0.27586798 -0.00028673419 3.1035932e-19)
(0.27032645 -0.00027659164 -2.1847886e-20)
(0.259335 -0.0002109397 -1.3487862e-19)
(0.24234212 -0.00011891152 -6.8075938e-20)
(0.21912382 -5.2171496e-05 -1.0106881e-20)
(0.18206601 -1.0945903e-05 -1.6252128e-19)
(0.28177654 -5.1166643e-05 1.433907e-18)
(0.28165619 -0.00012441965 1.3735687e-19)
(0.2812333 -0.00018797284 -4.5580103e-19)
(0.28003902 -0.00024077433 6.7412147e-19)
(0.27697399 -0.00026417622 3.4196871e-19)
(0.27008763 -0.00023880391 2.2194528e-19)
(0.25792266 -0.00016762313 -1.0020982e-19)
(0.24073177 -8.8481342e-05 -1.4797822e-19)
(0.21795021 -3.6445775e-05 -2.513774e-19)
(0.18143939 -7.6995242e-06 -1.8552611e-19)
(0.28404476 -4.9854774e-05 2.1051422e-18)
(0.28387625 -0.0001208942 7.9575629e-19)
(0.28329739 -0.00018132904 -2.4503666e-19)
(0.28169344 -0.00022787707 5.2951187e-19)
(0.27771474 -0.000238974 3.3502835e-19)
(0.26953511 -0.00020087597 2.1410204e-19)
(0.25659137 -0.00013036574 -6.8615617e-20)
(0.23943779 -6.5171986e-05 -1.4973766e-19)
(0.21706901 -2.5325989e-05 -2.961557e-19)
(0.18100325 -5.1222043e-06 -2.0002271e-19)
(0.28625048 -4.8572094e-05 1.4032085e-18)
(0.28601827 -0.00011740091 7.214723e-19)
(0.28523426 -0.00017430189 4.0845316e-19)
(0.28310494 -0.00021314199 6.9688083e-19)
(0.2780944 -0.00021129094 3.7435954e-19)
(0.26879943 -0.0001643987 -4.3020598e-20)
(0.25541093 -9.932991e-05 -1.6605662e-19)
(0.23841399 -4.715621e-05 -1.4851703e-19)
(0.21641536 -1.7079357e-05 -2.232462e-19)
(0.18070891 -3.0436257e-06 -1.9041678e-19)
(0.28839354 -4.7270966e-05 -5.0468136e-23)
(0.28807682 -0.00011377574 1.0527171e-18)
(0.28702341 -0.00016645976 9.7290902e-19)
(0.28424079 -0.00019602594 7.8895604e-19)
(0.27815551 -0.00018188533 1.4385372e-19)
(0.26799602 -0.00013078966 -2.676391e-19)
(0.25440307 -7.3936854e-05 -3.5483338e-19)
(0.23761475 -3.3003543e-05 -1.0445645e-19)
(0.21594073 -1.071586e-05 -7.8412223e-20)
(0.18052448 -1.3527183e-06 -1.9026668e-19)
(0.29047097 -4.5891429e-05 1.4243836e-18)
(0.29004194 -0.00010982903 3.1046446e-18)
(0.28863779 -0.00015729285 6.3507606e-19)
(0.28508025 -0.00017633816 -3.0258746e-19)
(0.27797084 -0.00015188665 1.1864584e-19)
(0.26720626 -0.00010094594 -1.598784e-19)
(0.25356401 -5.325781e-05 -2.5002901e-19)
(0.23700053 -2.1697742e-05 -2.2092753e-19)
(0.21560861 -5.6589956e-06 -1.7224464e-19)
(0.18042759 3.4125871e-08 -5.2276185e-20)
(0.29247637 -4.4351538e-05 1.481065e-18)
(0.2918983 -0.00010531333 2.2125435e-19)
(0.2900463 -0.00014628181 3.4460263e-19)
(0.28562471 -0.00015430607 5.8173683e-19)
(0.27762409 -0.00012253882 1.9681197e-19)
(0.26647733 -7.5147133e-05 2.2142618e-19)
(0.25287922 -3.6357061e-05 8.4811939e-20)
(0.23653861 -1.2543832e-05 -2.1795365e-19)
(0.21539111 -1.527261e-06 -1.8501184e-19)
(0.18040206 1.20578e-06 8.2863845e-20)
(0.294399 -4.2542676e-05 5.2466131e-19)
(0.2936244 -9.9894589e-05 3.2167918e-19)
(0.29121908 -0.00013303028 4.8749682e-19)
(0.28590172 -0.00013054524 5.4484707e-19)
(0.27719085 -9.4943894e-05 2.2624287e-19)
(0.26583134 -5.3198045e-05 8.7494824e-20)
(0.25233096 -2.2452568e-05 6.3834307e-20)
(0.23620235 -5.0203242e-06 2.4067224e-20)
(0.21526451 1.8974651e-06 -3.6219566e-20)
(0.18043775 2.1935254e-06 -1.5328152e-19)
(0.29622248 -4.0322367e-05 1.0581121e-18)
(0.29519258 -9.3155574e-05 6.0937048e-19)
(0.29213502 -0.00011739338 4.5940771e-19)
(0.28595988 -0.00010594397 4.4962038e-19)
(0.27672822 -6.9857762e-05 4.2630976e-19)
(0.26527516 -3.4649798e-05 4.2391703e-20)
(0.2519011 -1.0911217e-05 1.7731223e-19)
(0.23596807 1.2314291e-06 1.1099742e-19)
(0.21521692 4.7056004e-06 7.4814649e-21)
(0.18052215 2.9884208e-06 -9.0807025e-20)
(0.29792335 -3.7501507e-05 1.6892514e-18)
(0.29657068 -8.4660906e-05 1.1741432e-18)
(0.29278917 -9.9552987e-05 -1.2430151e-20)
(0.28585701 -8.149724e-05 5.263513e-19)
(0.27627358 -4.7620468e-05 5.7628079e-19)
(0.26480714 -1.8984851e-05 1.4955902e-19)
(0.25157194 -1.2546532e-06 -1.4459751e-19)
(0.23582161 6.4199917e-06 1.33344e-20)
(0.21523437 6.9886524e-06 1.0052323e-20)
(0.18064613 3.6201416e-06 -1.7872432e-19)
(0.29946984 -3.3841972e-05 -1.5882558e-18)
(0.29772604 -7.4081028e-05 1.7395431e-18)
(0.29319629 -8.0020941e-05 -2.5224143e-19)
(0.28564804 -5.8127318e-05 -1.2127762e-18)
(0.27584862 -2.8226605e-05 -9.5945167e-20)
(0.26442121 -5.6914596e-06 -1.044307e-19)
(0.25132937 6.8552742e-06 -1.2043695e-19)
(0.23575037 1.0704088e-05 -4.9645321e-20)
(0.21530524 8.8444906e-06 -7.64098e-20)
(0.18080244 4.1233119e-06 -2.0410856e-20)
(0.30082187 -2.9095353e-05 -9.4261664e-19)
(0.29863177 -6.1333234e-05 9.8128847e-19)
(0.29338824 -5.9568514e-05 -3.6675661e-19)
(0.2853772 -3.6524047e-05 -5.655309e-19)
(0.27546385 -1.1418571e-05 -6.7441076e-19)
(0.26410765 5.6151884e-06 -2.9427981e-19)
(0.2511654 1.3622202e-05 -1.054931e-19)
(0.23574181 1.4218715e-05 -1.5699238e-19)
(0.2154201 1.0354194e-05 -6.9092436e-20)
(0.18098518 4.5261029e-06 1.756407e-19)
(0.30193379 -2.3109239e-05 2.789365e-18)
(0.29927342 -4.6685725e-05 5.4921778e-19)
(0.29340606 -3.9092871e-05 -4.0723288e-19)
(0.28507549 -1.7048868e-05 1.0416405e-18)
(0.27512089 3.0826452e-06 9.6536381e-19)
(0.26386445 1.5139231e-05 4.1084759e-19)
(0.25106782 1.9208924e-05 8.0730517e-20)
(0.23578539 1.7093943e-05 6.0336971e-20)
(0.21557118 1.1580248e-05 1.0491084e-19)
(0.18118945 4.8475678e-06 1.501131e-20)
(0.30276117 -1.5977269e-05 1.5911612e-19)
(0.29965292 -3.077384e-05 -6.686966e-19)
(0.29329059 -1.9436957e-05 -3.2039475e-19)
(0.28476122 1.672146e-07 -6.0627788e-19)
(0.27482457 1.5440379e-05 5.2424751e-19)
(0.26368339 2.3071374e-05 -7.1238639e-21)
(0.25102649 2.3802342e-05 3.61761e-19)
(0.23587239 1.9434297e-05 1.917241e-19)
(0.21575198 1.2564862e-05 1.2534594e-19)
(0.18141104 5.0989501e-06 1.6232221e-19)
(0.30327141 -8.1278963e-06 1.1853917e-18)
(0.29978739 -1.4486223e-05 1.8126072e-18)
(0.2930748 -1.305393e-06 -4.5406685e-19)
(0.28444919 1.5039795e-05 -6.7713567e-19)
(0.27457433 2.5804594e-05 -7.3454121e-19)
(0.26355615 2.9614473e-05 -4.1999906e-19)
(0.25103262 2.7545582e-05 -2.821316e-19)
(0.23599543 2.1312136e-05 -6.9537036e-20)
(0.21595696 1.333654e-05 9.4740643e-20)
(0.18164628 5.2875037e-06 1.5488264e-19)
(0.30345404 -2.4208311e-07 -6.6967556e-19)
(0.29970268 1.1333055e-06 1.0620192e-18)
(0.29278638 1.4662886e-05 -7.5417376e-19)
(0.28414893 2.7526494e-05 -9.9684886e-19)
(0.27436559 3.4337628e-05 -5.9644057e-19)
(0.26347495 3.4930932e-05 -2.2481226e-19)
(0.2510785 3.053715e-05 -2.6668653e-19)
(0.2361481 2.2775131e-05 -1.4408175e-19)
(0.21618129 1.391332e-05 3.3302035e-20)
(0.18189181 5.4173159e-06 8.71178e-20)
(0.30332518 6.8813049e-06 -3.4966353e-18)
(0.29943298 1.4985404e-05 -1.6951269e-18)
(0.29244689 2.7994556e-05 -1.1468497e-18)
(0.28386231 3.767717e-05 -2.4941544e-18)
(0.27419301 4.1187564e-05 -1.3373185e-18)
(0.26343256 3.9128297e-05 -6.4835005e-19)
(0.25115729 3.2836426e-05 -1.1282052e-19)
(0.23632475 2.3849487e-05 4.9605103e-20)
(0.21642058 1.4303121e-05 6.2322266e-20)
(0.18214447 5.4890977e-06 1.4834914e-19)
(0.30293055 1.2607149e-05 1.7668888e-18)
(0.29901533 2.6253197e-05 -1.0919506e-18)
(0.29206924 3.8508154e-05 -4.8138273e-19)
(0.28358875 4.558973e-05 2.8322338e-19)
(0.27405095 4.6451685e-05 5.9025975e-19)
(0.2634222 4.2266452e-05 2.566382e-19)
(0.25126271 3.447174e-05 2.4905848e-19)
(0.23652015 2.4543266e-05 2.6950671e-19)
(0.21667065 1.450471e-05 5.4276922e-20)
(0.18240108 5.5003487e-06 3.0574453e-21)
(0.30233167 1.6686275e-05 -5.0993929e-19)
(0.29848535 3.4601038e-05 -9.394313e-19)
(0.29166294 4.623148e-05 -8.0700986e-19)
(0.28332653 5.1360006e-05 -1.5092527e-19)
(0.27393382 5.019457e-05 3.5965466e-19)
(0.26343755 4.4377686e-05 3.8060508e-19)
(0.25138894 3.5451841e-05 3.5545484e-19)
(0.23672934 2.4852531e-05 1.7882021e-19)
(0.21692738 1.4510907e-05 2.1304042e-20)
(0.18265837 5.4466354e-06 1.8245557e-20)
(0.30159326 1.9182158e-05 4.8433955e-19)
(0.2978766 4.0084554e-05 2.3746189e-18)
(0.29123637 5.1327377e-05 -3.1854817e-19)
(0.28307384 5.5103057e-05 -1.918782e-19)
(0.27383649 5.2477923e-05 -8.7944896e-19)
(0.26347282 4.5486637e-05 -2.1169484e-19)
(0.25153053 3.5778675e-05 -5.0361874e-19)
(0.23694749 2.4769352e-05 -2.549194e-19)
(0.21718658 1.4312929e-05 -1.5571492e-20)
(0.18291284 5.323278e-06 -1.5454507e-20)
(0.30077407 2.0344128e-05 6.4123871e-19)
(0.29721994 4.3030243e-05 1.2342654e-18)
(0.29079789 5.4063934e-05 8.5500111e-20)
(0.28282963 5.6975677e-05 2.3573429e-19)
(0.2737546 5.3383307e-05 -4.7783899e-19)
(0.26352281 4.5628302e-05 -5.1194821e-19)
(0.25168237 3.5460896e-05 -3.8980538e-19)
(0.23716991 2.4290876e-05 -3.3161488e-19)
(0.217444 1.390551e-05 -8.839352e-20)
(0.18316088 5.1273273e-06 -2.7643862e-20)
(0.29992221 2.0484061e-05 -2.5665009e-18)
(0.29654261 4.3899636e-05 -1.6252602e-18)
(0.29035625 5.4781589e-05 -3.8035065e-19)
(0.28259384 5.7182928e-05 -1.9308057e-18)
(0.27368474 5.3025507e-05 -9.5608611e-19)
(0.26358307 4.4861627e-05 -6.445014e-19)
(0.25183983 3.4525164e-05 1.1997551e-19)
(0.23739211 2.3427292e-05 -6.552251e-20)
(0.21769544 1.3291487e-05 -1.4748242e-19)
(0.18339879 4.8592056e-06 6.9143563e-20)
(0.29907422 1.9896942e-05 4.4366667e-18)
(0.29586745 4.3179871e-05 9.7237881e-19)
(0.2899202 5.385583e-05 4.5454313e-19)
(0.28236749 5.5970282e-05 9.462816e-19)
(0.27362454 5.1555487e-05 1.115625e-18)
(0.26364988 4.3276068e-05 5.2250988e-19)
(0.25199879 3.3022806e-05 9.8052237e-20)
(0.23760992 2.2207005e-05 4.0227214e-20)
(0.21793689 1.2485068e-05 -7.033318e-20)
(0.18362306 4.5238969e-06 -7.9699403e-20)
(0.29825613 1.882619e-05 4.8587143e-19)
(0.29521261 4.1316458e-05 1.4016856e-19)
(0.28949795 5.1661776e-05 8.7658206e-20)
(0.28215234 5.3606325e-05 5.2433923e-19)
(0.27357254 4.9153597e-05 6.5116286e-19)
(0.26372034 4.0989842e-05 3.4601042e-19)
(0.25215571 3.1030033e-05 5.5446854e-20)
(0.2378196 2.0677318e-05 1.3154486e-19)
(0.21816474 1.1512393e-05 8.8855573e-20)
(0.18383057 4.1310687e-06 -3.3619825e-20)
(0.29748541 1.7457735e-05 5.181521e-19)
(0.29459164 3.8683217e-05 3.5249557e-18)
(0.28909667 4.8547015e-05 7.1537407e-19)
(0.28195052 5.036273e-05 -6.745922e-20)
(0.27352797 4.6016867e-05 -7.3514859e-19)
(0.26379222 3.8141959e-05 -3.7370928e-19)
(0.25230768 2.8642788e-05 -3.7533549e-19)
(0.23801801 1.8901073e-05 -1.4831467e-19)
(0.21837594 1.0409615e-05 -9.8334291e-20)
(0.18401879 3.6943069e-06 -8.9079453e-20)
(0.2967729 1.5927206e-05 2.7262401e-18)
(0.29401394 3.5576494e-05 2.1491333e-18)
(0.28872208 4.4815035e-05 1.1168389e-18)
(0.28176411 4.649657e-05 9.6371795e-19)
(0.27349054 4.2344515e-05 1.2733346e-19)
(0.26386388 3.4881008e-05 -2.4880973e-19)
(0.25245241 2.5968245e-05 -7.9242556e-20)
(0.23820264 1.6950557e-05 -1.0246641e-19)
(0.21856817 9.2191445e-06 -8.6776562e-20)
(0.18418594 3.2296942e-06 -9.5325504e-20)
(0.29612448 1.4330645e-05 -2.4839935e-18)
(0.29348539 3.22219e-05 -3.0902585e-18)
(0.28837834 4.0718314e-05 -9.8864097e-19)
(0.2815949 4.2237725e-05 -1.7204244e-18)
(0.27346018 3.8325103e-05 -5.2438414e-19)
(0.26393414 3.1353821e-05 -8.0536299e-19)
(0.25258815 2.3115485e-05 -6.2285799e-20)
(0.23837165 1.4900491e-05 -7.7969213e-20)
(0.21873985 7.9851234e-06 -1.3080694e-20)
(0.18433106 2.7540113e-06 6.542856e-20)
(0.29554246 1.2734617e-05 1.2177025e-18)
(0.29300905 2.8785938e-05 -1.0806624e-18)
(0.28806808 3.6458616e-05 -1.0645735e-18)
(0.28144415 3.7782143e-05 -8.7430836e-20)
(0.27343687 3.412743e-05 7.3684292e-19)
(0.26400216 2.7696394e-05 1.7183795e-19)
(0.2527137 2.0187582e-05 -3.2167763e-20)
(0.23852382 1.2821932e-05 -1.5451421e-19)
(0.21889018 6.7494617e-06 -1.012494e-19)
(0.18445396 2.2831725e-06 -6.6943461e-20)
(0.29502661 1.1184267e-05 -3.2759957e-19)
(0.29258575 2.5388143e-05 -4.484762e-19)
(0.28779256 3.2191555e-05 4.4346177e-19)
(0.28131252 3.3289942e-05 1.2337657e-18)
(0.27342051 2.9895406e-05 1.0138858e-18)
(0.26406733 2.4027846e-05 7.8938758e-19)
(0.25282826 1.727596e-05 4.0906522e-19)
(0.23865858 1.0777813e-05 2.1890915e-19)
(0.21901905 5.5488807e-06 2.0947875e-21)
(0.18455516 1.8309683e-06 -5.0550158e-20)
(0.29457491 9.7094e-06 1.9669141e-18)
(0.2922147 2.2111918e-05 4.6349694e-18)
(0.28755188 2.8033167e-05 1.9153693e-18)
(0.28120012 2.8886975e-05 1.1214521e-18)
(0.27341089 2.574642e-05 -2.195179e-19)
(0.2641292 2.0447436e-05 5.5371318e-19)
(0.25293145 1.4457283e-05 -6.8794393e-20)
(0.23877584 8.8204865e-06 5.6191908e-20)
(0.21912698 4.4133702e-06 3.6715578e-20)
(0.18463574 1.4084303e-06 -1.7840796e-20)
(0.29418417 8.3287991e-06 6.956192e-18)
(0.2918939 1.9013311e-05 4.8214517e-18)
(0.28734517 2.406675e-05 2.4502848e-18)
(0.2811065 2.4668182e-05 2.6087958e-18)
(0.27340761 2.1771938e-05 1.5785123e-18)
(0.26418744 1.7033693e-05 9.6694475e-19)
(0.25302315 1.1792159e-05 1.7724347e-19)
(0.238876 6.9906317e-06 2.3427791e-20)
(0.21921497 3.3655168e-06 1.4230719e-19)
(0.18469724 1.0235181e-06 -2.3230051e-20)
(0.29385044 7.0533976e-06 1.4456981e-18)
(0.29162051 1.6127971e-05 8.135992e-19)
(0.28717087 2.0349306e-05 3.7508222e-18)
(0.2810308 2.0701824e-05 2.8588805e-18)
(0.27341011 1.8039632e-05 1.9674487e-18)
(0.26424177 1.384524e-05 1.5738405e-18)
(0.25310353 9.3253779e-06 1.0965492e-18)
(0.23895978 5.3174398e-06 6.5100905e-19)
(0.2192844 2.4207902e-06 5.1637339e-19)
(0.1847415 6.8134334e-07 1.5987577e-19)
(0.29356929 5.8884198e-06 -6.692797e-19)
(0.29139117 1.3476273e-05 1.4551376e-18)
(0.2870269 1.6916914e-05 3.1484648e-18)
(0.28097178 1.7033608e-05 2.2152071e-18)
(0.27341773 1.459597e-05 2.2523185e-18)
(0.264292 1.0922254e-05 2.0088182e-18)
(0.25317294 7.0867729e-06 1.4510451e-18)
(0.23902821 3.8191943e-06 9.5565903e-19)
(0.21933693 1.5879435e-06 5.4840656e-19)
(0.18477055 3.8436044e-07 2.8190541e-19)
(0.29333612 4.8350897e-06 1.8070574e-18)
(0.29120219 1.1067467e-05 2.3461702e-18)
(0.28691082 1.3789537e-05 3.6945209e-18)
(0.280928 1.3690983e-05 4.4854837e-18)
(0.2734297 1.1469576e-05 3.658702e-18)
(0.264338 8.2890433e-06 2.0883531e-18)
(0.2532319 5.093251e-06 1.6629724e-18)
(0.23908248 2.5049136e-06 1.1091266e-18)
(0.21937439 8.7028061e-07 6.8916737e-19)
(0.18478649 1.3303849e-07 5.1192227e-19)
(0.29314624 3.8917194e-06 2.1062583e-18)
(0.29104973 8.9025582e-06 2.7385749e-18)
(0.28682001 1.0974675e-05 2.5768789e-18)
(0.28089783 1.0686648e-05 3.5703844e-18)
(0.27344523 8.6741444e-06 3.0944407e-18)
(0.26437968 5.9562855e-06 1.9648e-18)
(0.25328104 3.3502966e-06 1.7079028e-18)
(0.23912393 1.3750731e-06 1.248443e-18)
(0.21939864 2.7143019e-07 8.5520382e-19)
(0.1847914 -6.9879711e-08 6.5077762e-19)
(0.29299505 3.0545127e-06 2.0178561e-18)
(0.29092995 6.9763787e-06 1.8914169e-18)
(0.28675174 8.470028e-06 2.2969316e-19)
(0.28087962 8.0211954e-06 1.079993e-18)
(0.2734635 6.210661e-06 2.1100629e-18)
(0.26441701 3.9228513e-06 1.8825249e-18)
(0.25332109 1.8542987e-06 1.5978637e-18)
(0.23915392 4.2903862e-07 1.2120259e-18)
(0.21941123 -2.1372898e-07 7.9691996e-19)
(0.18478764 -2.2848403e-07 5.7041506e-19)
(0.2928781 2.3182714e-06 2.8122536e-18)
(0.29083907 5.2795176e-06 2.3876783e-18)
(0.28670332 6.2663334e-06 3.8272501e-18)
(0.28087167 5.6864195e-06 2.1523076e-18)
(0.27348375 4.0709718e-06 1.046825e-18)
(0.26445004 2.1801839e-06 2.2125322e-18)
(0.25335275 6.0014131e-07 1.6007764e-18)
(0.23917355 -3.425886e-07 1.3856883e-18)
(0.2194146 -6.0377333e-07 1.1343618e-18)
(0.18477677 -3.5388687e-07 7.1334786e-19)
(0.29279116 1.677077e-06 2.0195028e-18)
(0.29077348 3.8001198e-06 1.9632973e-18)
(0.28667211 4.3500826e-06 2.7791608e-18)
(0.28087237 3.6688079e-06 1.475833e-18)
(0.27350524 2.2423839e-06 1.539113e-18)
(0.26447878 7.1911967e-07 1.8488442e-18)
(0.25337659 -4.2661499e-07 1.6978119e-18)
(0.23918483 -9.6293648e-07 1.3617637e-18)
(0.21941035 -9.126376e-07 1.1175546e-18)
(0.18476024 -4.5087633e-07 8.8844334e-19)
(0.29273025 1.1245568e-06 2.987385e-19)
(0.29072976 2.5247457e-06 1.0987454e-18)
(0.2866556 2.705051e-06 1.8224569e-18)
(0.28088014 1.9521739e-06 3.5866643e-18)
(0.27352725 7.1187056e-07 3.3235943e-18)
(0.26450318 -4.7892583e-07 1.9921759e-18)
(0.253394 -1.2536646e-06 1.9060679e-18)
(0.23918903 -1.4513165e-06 1.4889819e-18)
(0.21939991 -1.1469991e-06 1.3915881e-18)
(0.18473942 -5.2119558e-07 1.1459772e-18)
(0.29269166 6.5421081e-07 1.7234143e-18)
(0.29070469 1.4394571e-06 2.4365072e-18)
(0.2866514 1.3149682e-06 1.9418215e-18)
(0.28089348 5.2103733e-07 3.0787477e-18)
(0.27354904 -5.4260073e-07 3.1068871e-18)
(0.2645239 -1.4449105e-06 2.2438599e-18)
(0.25340577 -1.90485e-06 1.8552463e-18)
(0.2391873 -1.8202851e-06 1.6427832e-18)
(0.21938463 -1.3135061e-06 1.5405794e-18)
(0.18471557 -5.6725573e-07 1.1396091e-18)
(0.29267195 2.5992426e-07 2.4035888e-18)
(0.29069525 5.31288e-07 2.7481193e-18)
(0.28665724 1.6266674e-07 1.0306815e-18)
(0.28091095 -6.4993063e-07 1.2051659e-18)
(0.27357051 -1.5543646e-06 2.3577678e-18)
(0.26454118 -2.2061963e-06 1.9139109e-18)
(0.25341264 -2.3977129e-06 1.7890891e-18)
(0.23918074 -2.0823306e-06 1.5564395e-18)
(0.21936571 -1.4202623e-06 1.2516043e-18)
(0.18468977 -5.9223421e-07 9.767652e-19)
(0.29266792 -6.479982e-08 -1.9103772e-19)
(0.29069865 -2.1559937e-07 2.1165581e-18)
(0.28667111 -7.7696382e-07 3.2243042e-18)
(0.28093167 -1.5934491e-06 2.1730659e-18)
(0.27359127 -2.3519208e-06 1.4220965e-18)
(0.26455525 -2.7838386e-06 1.967457e-18)
(0.25341532 -2.7496829e-06 1.6706143e-18)
(0.23917034 -2.2510243e-06 1.6875025e-18)
(0.21934424 -1.4758843e-06 1.472328e-18)
(0.18466297 -5.9944096e-07 1.1321927e-18)
(0.2926767 -3.2803507e-07 -6.617444e-20)
(0.29071244 -8.2053091e-07 1.6066817e-18)
(0.28669136 -1.5305219e-06 1.9275267e-18)
(0.2809546 -2.3351339e-06 1.5168139e-18)
(0.27361099 -2.9576754e-06 1.350085e-18)
(0.26456636 -3.1987892e-06 1.6824142e-18)
(0.25341449 -2.9791171e-06 1.654631e-18)
(0.23915702 -2.3402283e-06 1.5521992e-18)
(0.21932113 -1.4889252e-06 1.3500966e-18)
(0.18463595 -5.9211582e-07 1.0976859e-18)
(0.29269579 -5.3724156e-07 1.5457591e-18)
(0.29073451 -1.3000933e-06 1.044566e-18)
(0.28671642 -2.1183612e-06 1.7170103e-18)
(0.28097888 -2.8967772e-06 1.6758951e-18)
(0.27362943 -3.393975e-06 1.2671034e-18)
(0.26457479 -3.4722944e-06 1.6354981e-18)
(0.25341078 -3.1040903e-06 1.8143366e-18)
(0.23914157 -2.3632221e-06 1.5043248e-18)
(0.21929719 -1.4674318e-06 1.4020257e-18)
(0.18460932 -5.7325771e-07 1.087382e-18)
(0.29272296 -6.9838527e-07 3.0560246e-18)
(0.29076292 -1.6681293e-06 2.7104942e-18)
(0.28674494 -2.5590363e-06 1.9621106e-18)
(0.28100376 -3.2996991e-06 1.268037e-18)
(0.27364643 -3.6827902e-06 3.6291075e-19)
(0.26458082 -3.6247858e-06 1.2787318e-18)
(0.25340477 -3.1415973e-06 1.6432182e-18)
(0.2391247 -2.3322494e-06 1.6171494e-18)
(0.21927306 -1.4187159e-06 1.4636271e-18)
(0.1845836 -5.4558596e-07 1.1425957e-18)
(0.29275623 -8.1709007e-07 1.974235e-18)
(0.29079598 -1.9376976e-06 3.5001092e-18)
(0.28677572 -2.870354e-06 4.1998505e-18)
(0.28102862 -3.5644053e-06 2.0621801e-18)
(0.27366187 -3.8449678e-06 1.7154599e-18)
(0.26458474 -3.6752921e-06 9.608541e-19)
(0.25339699 -3.107144e-06 1.2906126e-18)
(0.23910701 -2.2582311e-06 1.4815024e-18)
(0.21924929 -1.3491497e-06 1.2276023e-18)
(0.18455914 -5.114523e-07 1.1962914e-18)
(0.29279386 -8.9866287e-07 1.2892477e-18)
(0.29083222 -2.1211673e-06 3.3128105e-18)
(0.28680773 -3.0692478e-06 5.8688876e-18)
(0.28105294 -3.7102865e-06 2.9909941e-18)
(0.27367569 -3.8999729e-06 2.0550894e-18)
(0.26458683 -3.6412854e-06 1.9836999e-18)
(0.2533879 -3.0146794e-06 1.4792224e-18)
(0.23908902 -2.1507667e-06 1.4723096e-18)
(0.21922631 -1.2642057e-06 1.5896997e-18)
(0.18453623 -4.7287839e-07 1.290609e-18)
(0.29283434 -9.4807528e-07 1.4685674e-18)
(0.29087034 -2.2301694e-06 1.7114726e-18)
(0.28684011 -3.1716391e-06 -2.549196e-19)
(0.28107631 -3.7554533e-06 1.6332365e-18)
(0.2736879 -3.8657666e-06 2.1099126e-18)
(0.26458737 -3.5386234e-06 2.349588e-18)
(0.25337793 -2.8766111e-06 1.8886613e-18)
(0.23907115 -2.0181843e-06 1.6255084e-18)
(0.21920445 -1.1684767e-06 1.5769474e-18)
(0.18451507 -4.3151957e-07 1.2095942e-18)
(0.29287636 -9.7000874e-07 6.7582547e-19)
(0.29090925 -2.2756436e-06 1.1442901e-18)
(0.28687214 -3.1924576e-06 1.4197637e-20)
(0.28109841 -3.7167683e-06 1.9559097e-18)
(0.27369851 -3.7588921e-06 2.3280412e-18)
(0.26458662 -3.3817126e-06 1.9986095e-18)
(0.25336743 -2.7040248e-06 1.9575204e-18)
(0.23905375 -1.8677868e-06 1.741063e-18)
(0.21918396 -1.0659042e-06 1.4842534e-18)
(0.18449577 -3.8876468e-07 1.2280659e-18)
(0.29291881 -9.6882152e-07 1.1425792e-18)
(0.29094804 -2.2677874e-06 9.8415521e-19)
(0.28690322 -3.1455764e-06 1.1752909e-18)
(0.28111902 -3.6097875e-06 1.3841762e-18)
(0.27370759 -3.5944445e-06 1.2432834e-18)
(0.26458481 -3.1835159e-06 1.4546941e-18)
(0.25335672 -2.5067412e-06 1.5716368e-18)
(0.2390371 -1.7059318e-06 1.5986223e-18)
(0.21916503 -9.5983878e-07 1.5376066e-18)
(0.18447839 -3.4573675e-07 1.3134195e-18)
(0.29296078 -9.4856633e-07 -1.1926536e-19)
(0.29098594 -2.2160645e-06 6.2323092e-19)
(0.2869329 -3.0438027e-06 2.9181332e-18)
(0.28113796 -3.4487485e-06 1.646352e-18)
(0.27371521 -3.3860818e-06 1.8096674e-18)
(0.26458216 -2.9556058e-06 1.072836e-18)
(0.25334605 -2.2934002e-06 1.4373333e-18)
(0.2390214 -1.5381346e-06 1.5408617e-18)
(0.21914775 -8.5315966e-07 1.4076723e-18)
(0.18446296 -3.0338169e-07 1.2177897e-18)
(0.29300152 -9.1294805e-07 1.7826542e-18)
(0.29102236 -2.1291332e-06 2.56764e-18)
(0.28696081 -2.8987886e-06 4.6589206e-18)
(0.28115516 -3.2464716e-06 2.8575759e-18)
(0.27372148 -3.1459283e-06 2.3022065e-18)
(0.26457889 -2.7080794e-06 2.0672564e-18)
(0.25333564 -2.0713958e-06 1.9441695e-18)
(0.23900681 -1.3690191e-06 1.7251204e-18)
(0.2191322 -7.4823011e-07 1.5895796e-18)
(0.18444943 -2.6244875e-07 1.2325081e-18)
(0.29304041 -8.6533382e-07 3.3091004e-18)
(0.29105682 -2.0148419e-06 2.1359152e-18)
(0.28698671 -2.7210113e-06 6.6706158e-19)
(0.28117056 -3.014343e-06 2.5039301e-18)
(0.27372651 -2.8845775e-06 2.9328078e-18)
(0.26457516 -2.4495867e-06 2.7095683e-18)
(0.25332564 -1.8469206e-06 2.0206118e-18)
(0.23899342 -1.2023637e-06 1.8267874e-18)
(0.21911836 -6.4693842e-07 1.6178256e-18)
(0.18443773 -2.2353444e-07 1.3276253e-18)
(0.29307702 -8.0873075e-07 1.3199904e-18)
(0.29108898 -1.8801941e-06 1.9907253e-18)
(0.28701042 -2.5197395e-06 1.2242692e-18)
(0.28118417 -2.7622963e-06 1.8839498e-18)
(0.27373041 -2.6111011e-06 2.4036024e-18)
(0.26457114 -2.1873628e-06 2.640516e-18)
(0.2533162 -1.6250049e-06 1.9451973e-18)
(0.2389813 -1.0411239e-06 1.9665408e-18)
(0.21910623 -5.5068889e-07 1.6953333e-18)
(0.18442778 -1.8706552e-07 1.4068442e-18)
(0.29311101 -7.4581492e-07 5.564201e-19)
(0.29111859 -1.7313949e-06 2.461826e-18)
(0.28703186 -2.3030995e-06 1.3473876e-18)
(0.28119603 -2.4989136e-06 1.6617838e-18)
(0.27373331 -2.3331909e-06 1.1170397e-18)
(0.26456696 -1.9274034e-06 1.8790047e-18)
(0.25330741 -1.4096996e-06 1.9067106e-18)
(0.23897047 -8.8759551e-07 1.7854273e-18)
(0.21909574 -4.605216e-07 1.6863544e-18)
(0.18441946 -1.5334885e-07 1.4361944e-18)
(0.29314215 -6.789174e-07 6.4671667e-19)
(0.2911455 -1.5738456e-06 1.9203797e-18)
(0.28705098 -2.0780989e-06 3.6851883e-18)
(0.28120621 -2.2314822e-06 2.4773428e-18)
(0.27373533 -2.0572429e-06 2.0852038e-18)
(0.26456275 -1.6745632e-06 1.1861001e-18)
(0.25329933 -1.2041719e-06 1.7215956e-18)
(0.23896091 -7.4348269e-07 1.6177044e-18)
(0.21908681 -3.7714331e-07 1.4412888e-18)
(0.18441265 -1.2256148e-07 1.2753903e-18)
(0.29317031 -6.1006192e-07 1.0872596e-19)
(0.29116965 -1.4122126e-06 2.0099036e-18)
(0.28706782 -1.8507167e-06 4.3090991e-18)
(0.28121481 -1.9661179e-06 2.6171658e-18)
(0.27373658 -1.7885133e-06 1.6857617e-18)
(0.26455858 -1.4327234e-06 1.9248069e-18)
(0.25329201 -1.0108643e-06 1.6719299e-18)
(0.2389526 -6.100378e-07 1.7723546e-18)
(0.21907934 -3.0103586e-07 1.631168e-18)
(0.18440721 -9.4804296e-08 1.2965117e-18)
(0.29319546 -5.4095236e-07 1.3178333e-18)
(0.29119102 -1.2504223e-06 9.0001772e-19)
(0.28708243 -1.6259229e-06 -1.1408669e-18)
(0.28122192 -1.7077984e-06 1.3921632e-18)
(0.27373719 -1.5311517e-06 1.7543261e-18)
(0.26455455 -1.2048208e-06 2.0414812e-18)
(0.25328545 -8.3150966e-07 1.9576698e-18)
(0.23894548 -4.8805482e-07 1.8273647e-18)
(0.21907322 -2.3243558e-07 1.6086947e-18)
(0.18440302 -7.0083786e-08 1.3856046e-18)
(0.2932176 -4.7301967e-07 2.2829746e-18)
(0.29120969 -1.0917443e-06 8.2035403e-19)
(0.28709491 -1.4077785e-06 6.1789881e-19)
(0.28122768 -1.460483e-06 1.1723134e-18)
(0.27373725 -1.2883323e-06 2.1517801e-18)
(0.26455071 -9.9297056e-07 2.2136322e-18)
(0.25327966 -6.6723296e-07 2.0905851e-18)
(0.23893949 -3.7794641e-07 1.9208161e-18)
(0.21906834 -1.7139677e-07 1.7098462e-18)
(0.18439992 -4.8366398e-08 1.3503571e-18)
(0.29323682 -4.074077e-07 1.3949566e-18)
(0.29122574 -9.3879234e-07 2.1874831e-18)
(0.28710538 -1.1994655e-06 1.0782318e-18)
(0.2812322 -1.2271611e-06 1.5189298e-18)
(0.27373686 -1.062305e-06 9.0198133e-19)
(0.2645471 -7.9850443e-07 1.9282185e-18)
(0.25327461 -5.1856696e-07 1.8592966e-18)
(0.23893454 -2.7973035e-07 1.7286333e-18)
(0.21906457 -1.1774036e-07 1.7309833e-18)
(0.1843978 -2.9531641e-08 1.3189621e-18)
(0.29325325 -3.4503352e-07 2.0776253e-18)
(0.29123931 -7.9363395e-07 2.8696489e-18)
(0.287114 -1.0034267e-06 3.1218557e-18)
(0.28123562 -1.01002e-06 1.6887678e-18)
(0.27373611 -8.5458149e-07 1.8009372e-18)
(0.26454377 -6.2216186e-07 1.1757608e-18)
(0.25327029 -3.8562419e-07 1.6395586e-18)
(0.23893056 -1.9316603e-07 1.5267262e-18)
(0.2190618 -7.1162119e-08 1.3324559e-18)
(0.18439652 -1.3430421e-08 1.2630792e-18)