/*--------------------------------*- C++ -*----------------------------------*\
| =========                 |                                                 |
| \\      /  F ield         | OpenFOAM: The Open Source CFD Toolbox           |
|  \\    /   O peration     | Version:  2506                                  |
|   \\  /    A nd           | Website:  www.openfoam.com                      |
|    \\/     M anipulation  |                                                 |
\*---------------------------------------------------------------------------*/
FoamFile
{
    version     2.0;
    format      ascii;
    arch        "LSB;label=32;scalar=64";
    class       volScalarField;
    location    "15000/water";
    object      alphat;
}
// * * * * * * * * * * * * * * * * * * * * * * * * * * * * * * * * * * * * * //

dimensions      [1 -1 -1 0 0 0 0];

internalField   nonuniform List<scalar> 
2600
(
0.040489031
0.04048893
0.040488932
0.040488969
0.04048893
0.040488424
0.040485257
0.04046703
0.040362559
0.039762099
0.036475623
0.024118064
0.014862723
0.039376404
0.039376463
0.039376584
0.03937667
0.03937627
0.039373342
0.039357935
0.03928206
0.038918252
0.037247647
0.030707814
0.017504579
0.016810247
0.03845331
0.038453299
0.038453385
0.038453188
0.038451259
0.038441479
0.038397507
0.038208927
0.037432867
0.034484227
0.025768479
0.01464355
0.017680736
0.037674097
0.037673994
0.037673876
0.037672833
0.03766736
0.037643826
0.037549741
0.037190974
0.035896577
0.031717985
0.022022178
0.013507107
0.017935556
0.037006829
0.037006634
0.03700605
0.037003229
0.036991211
0.03694503
0.036777672
0.036201229
0.034343725
0.029136321
0.019390213
0.01332192
0.01787019
0.036428097
0.036427705
0.036426239
0.036420305
0.036397905
0.036319194
0.03605724
0.035231095
0.03281421
0.026833154
0.017684561
0.01376901
0.017658004
0.035920433
0.035919673
0.03591673
0.035905979
0.035868817
0.035747845
0.035374204
0.034281783
0.031338745
0.024847734
0.016751764
0.014701365
0.017395975
0.035470606
0.03546924
0.035464057
0.035446499
0.035390052
0.035218253
0.034721129
0.033357857
0.029935921
0.02320089
0.016491475
0.016024754
0.017137191
0.035068412
0.03506614
0.035057811
0.035031314
0.034951338
0.034722033
0.034094772
0.032463227
0.028616047
0.021918168
0.016839593
0.01764423
0.016909598
0.034705855
0.034702323
0.034689851
0.034652315
0.034545228
0.034254009
0.03349406
0.031599319
0.027389013
0.021039007
0.017742707
0.01944683
0.016725717
0.034376582
0.0343714
0.034353768
0.03430331
0.034166516
0.033811296
0.032918608
0.030765036
0.026274288
0.020612421
0.019134169
0.021310298
0.0165878
0.034075484
0.034068256
0.034044512
0.033979658
0.033811775
0.033392551
0.032367695
0.029958513
0.025310237
0.020682514
0.020920451
0.023125093
0.01649134
0.03379842
0.033788771
0.033758129
0.033677993
0.033478994
0.032997353
0.031839672
0.02918092
0.024557974
0.02127068
0.022983309
0.024813263
0.016428198
0.033542011
0.033529635
0.033491576
0.033396025
0.033167279
0.032625685
0.031331906
0.028442261
0.024095309
0.022362411
0.025195921
0.026333969
0.016389375
0.033303501
0.033288203
0.033242589
0.033132389
0.0328766
0.032277488
0.030841496
0.027768047
0.024001079
0.023903803
0.027443848
0.027676786
0.016366908
0.033080659
0.033062404
0.03300959
0.032886524
0.032607558
0.031952311
0.030367144
0.027204004
0.02433601
0.025808536
0.02964041
0.028850257
0.01635471
0.032871707
0.032850677
0.032791627
0.032658586
0.032361164
0.031649138
0.029912405
0.026815112
0.025128026
0.027972561
0.031731261
0.029871995
0.016348606
0.032675278
0.032651931
0.032588332
0.032449362
0.032138606
0.031366537
0.029490155
0.026676981
0.026366618
0.030291377
0.033689747
0.030762439
0.016345973
0.032490392
0.032465523
0.0323999
0.032260198
0.031941021
0.031103391
0.029127148
0.026861556
0.028006315
0.032674376
0.035508201
0.031541613
0.016345289
0.03231644
0.032291251
0.032227075
0.032092906
0.0317693
0.030860472
0.028866519
0.027422388
0.029976607
0.035052624
0.037189755
0.032227633
0.016345749
0.032153193
0.032129365
0.032071151
0.03194966
0.031623986
0.03064305
0.028765898
0.028384662
0.032194871
0.037379728
0.038742713
0.032836119
0.016346971
0.032000817
0.031980587
0.031933965
0.031832869
0.031505423
0.030464304
0.028890206
0.029742266
0.034578894
0.039628039
0.040177389
0.033380111
0.016348812
0.031859898
0.031846136
0.031817892
0.031745018
0.031414332
0.030348687
0.029300794
0.031461307
0.037056243
0.041783222
0.041504537
0.033870257
0.016351246
0.031731488
0.031727775
0.031725824
0.031688525
0.031353059
0.030333689
0.030044462
0.033487924
0.039569151
0.043839376
0.042734579
0.034315153
0.016354289
0.031617156
0.031627852
0.031661123
0.031665646
0.031327617
0.030468391
0.031145812
0.035757862
0.042075208
0.045795595
0.043877214
0.034721702
0.016357969
0.031519059
0.031549348
0.031627545
0.031678559
0.031350388
0.030808118
0.032604585
0.038205564
0.044545298
0.047653853
0.044941234
0.035095454
0.016362308
0.03144002
0.031495925
0.031629137
0.031729782
0.031442849
0.031406235
0.034397784
0.040771062
0.046960465
0.04941777
0.045934484
0.035440886
0.01636731
0.031383622
0.031471952
0.031670109
0.031823121
0.031637182
0.03230549
0.036485152
0.043403917
0.049308924
0.051091864
0.046863895
0.035761637
0.016372969
0.031354311
0.031482519
0.031754745
0.031965287
0.031975487
0.03353143
0.038816234
0.04606436
0.051583768
0.052681065
0.047735561
0.036060692
0.016379266
0.031357497
0.031533412
0.031887427
0.032168114
0.032505948
0.035089411
0.041337345
0.048722489
0.053781402
0.054190402
0.048554836
0.036340516
0.016386174
0.03139966
0.031631057
0.032072922
0.032450916
0.033276476
0.036965352
0.043997167
0.051356521
0.055900492
0.055624808
0.049326439
0.036603249
0.016393659
0.031488426
0.031782428
0.03231711
0.0328421
0.034327511
0.039129415
0.04675033
0.053950899
0.057941206
0.056988871
0.050054078
0.036848496
0.016401672
0.031632621
0.031994973
0.032628308
0.033378944
0.035685988
0.041541299
0.049558964
0.056494682
0.059904717
0.058286904
0.050741227
0.037078061
0.016410157
0.031842264
0.03227662
0.033019162
0.034104839
0.037361928
0.044155835
0.052392714
0.058980325
0.061792815
0.059522757
0.051390027
0.037293993
0.01641906
0.032128529
0.032636021
0.033508771
0.03506418
0.03934811
0.046927805
0.055227859
0.061402782
0.063607642
0.060699937
0.052002677
0.037497696
0.016428334
0.032503669
0.033083204
0.034124296
0.036296099
0.041622404
0.049815358
0.058046135
0.063758861
0.065351546
0.061821638
0.05258258
0.037690193
0.016437945
0.032981001
0.033630796
0.034901059
0.037828733
0.044151817
0.052781871
0.060833586
0.06604668
0.067026701
0.062889501
0.053132468
0.03787253
0.016447871
0.033575094
0.034295805
0.035880367
0.039675451
0.046897158
0.055796507
0.063579602
0.068265333
0.06863557
0.063907356
0.053654302
0.038045474
0.016458088
0.034302369
0.035101606
0.037105071
0.041833724
0.04981735
0.058833937
0.066276156
0.070414395
0.07017911
0.064878399
0.054149995
0.038209783
0.016468569
0.035182281
0.036079358
0.038613768
0.044286511
0.052872741
0.061873602
0.068917179
0.072494028
0.071660191
0.065805211
0.054621166
0.038366085
0.016479288
0.036239047
0.037267818
0.040435164
0.047005445
0.056027183
0.064898922
0.071498031
0.074503824
0.073081485
0.066690102
0.055069328
0.038514918
0.016490218
0.037503425
0.0387108
0.042584057
0.049954874
0.059248947
0.067896471
0.074015188
0.076444646
0.07444548
0.067535121
0.055495821
0.038656743
0.016501334
0.039013511
0.040452282
0.045059732
0.053095845
0.062510857
0.070855343
0.076465331
0.078317616
0.075754309
0.06834217
0.055901828
0.038791954
0.01651261
0.040813317
0.042530174
0.047846825
0.056389311
0.065789818
0.073766515
0.078846471
0.080124257
0.077009871
0.069112941
0.056288386
0.038920882
0.016524019
0.042948327
0.044970334
0.050918066
0.059798389
0.069066328
0.076621974
0.081156921
0.081865797
0.078213928
0.069848944
0.056656396
0.039043805
0.016535536
0.045458379
0.047782296
0.05423795
0.063289391
0.072323492
0.079415208
0.083396344
0.083543329
0.07936802
0.070551492
0.057006629
0.039160949
0.016547136
0.048369484
0.050957556
0.057766455
0.066832235
0.075546552
0.08214074
0.085564131
0.085157806
0.080473484
0.071221709
0.057339735
0.039272497
0.016558794
0.051686897
0.054470393
0.061462098
0.070399911
0.07872198
0.084794903
0.087659688
0.086709986
0.081531428
0.071860532
0.057656248
0.039378584
0.016570485
0.055391447
0.058280517
0.065283651
0.073967525
0.081839594
0.087374094
0.089682315
0.088200388
0.082542724
0.072468713
0.057956586
0.039479308
0.016582185
0.059439992
0.062336465
0.06919077
0.077513981
0.084890551
0.089874861
0.091631131
0.08962927
0.083507996
0.073046816
0.058241059
0.039574723
0.016593867
0.063769413
0.066579676
0.073146261
0.081021444
0.087866709
0.092293784
0.09350503
0.090996606
0.084427614
0.073595218
0.058509869
0.039664844
0.016605507
0.068304085
0.07094907
0.077116075
0.084473676
0.090760452
0.094627405
0.09530265
0.092302073
0.085301693
0.074114111
0.058763108
0.039749648
0.016617075
0.072963863
0.075384265
0.081068472
0.087855733
0.093564583
0.096872214
0.097022382
0.093545062
0.086130093
0.074603505
0.059000766
0.039829071
0.016628545
0.077671103
0.079828268
0.084973971
0.091153766
0.096272279
0.099024666
0.098662398
0.0947247
0.086912443
0.075063237
0.059222733
0.039903015
0.016639885
0.082355722
0.084229477
0.088805456
0.094354937
0.098877103
0.10108125
0.10022072
0.095839902
0.087648168
0.075492993
0.059428808
0.039971346
0.016651062
0.086958077
0.088542973
0.092538403
0.097447428
0.10137306
0.10303858
0.10169532
0.096889438
0.088336534
0.075892332
0.059618717
0.040033905
0.016662041
0.091429957
0.09273116
0.096151161
0.10042054
0.10375472
0.10489353
0.10308421
0.097872022
0.088976714
0.076260724
0.059792126
0.040090509
0.016672786
0.095734248
0.096763835
0.0996252
0.10326485
0.10601728
0.10664334
0.1043856
0.098786416
0.089567856
0.076597598
0.059948676
0.04014097
0.016683256
0.099843807
0.10061782
0.10294526
0.10597231
0.10815672
0.10828575
0.10559798
0.099631532
0.090109165
0.076902393
0.060088003
0.040185097
0.016693411
0.10374
0.10427633
0.1060994
0.10853642
0.11016989
0.10981908
0.10672026
0.10040654
0.090599988
0.077174622
0.060209781
0.040222722
0.016703211
0.10741118
0.10772812
0.10907886
0.11095228
0.11205458
0.11124236
0.10775186
0.10111095
0.091039891
0.077413923
0.060313752
0.040253704
0.016712613
0.11085132
0.11096668
0.11187788
0.11321659
0.11380959
0.11255533
0.10869275
0.10174471
0.091428728
0.077620116
0.060399761
0.040277951
0.016721578
0.11405873
0.11398938
0.11449341
0.11532765
0.11543468
0.11375848
0.10954352
0.10230821
0.091766693
0.077793246
0.060467786
0.040295431
0.01673007
0.11703513
0.11679675
0.11692479
0.11728526
0.11693061
0.11485305
0.11030537
0.10280236
0.092054354
0.077933617
0.060517959
0.04030618
0.016738054
0.11978478
0.11939177
0.11917339
0.11909059
0.11829907
0.11584098
0.11098008
0.10322856
0.092292673
0.078041811
0.060550585
0.040310312
0.016745503
0.12231384
0.12177938
0.12124229
0.12074602
0.11954258
0.11672489
0.11157003
0.1035887
0.092483001
0.078118695
0.060566145
0.04030802
0.016752392
0.12462989
0.12396598
0.12313596
0.12225503
0.12066443
0.11750798
0.11207808
0.10388511
0.092627057
0.078165411
0.060565293
0.040299576
0.016758707
0.12674148
0.12595905
0.12486001
0.12362196
0.12166857
0.11819397
0.11250756
0.10412053
0.0927269
0.078183362
0.060548851
0.040285325
0.016764436
0.12865785
0.12776687
0.12642087
0.12485193
0.1225595
0.11878702
0.11286217
0.10429803
0.092784887
0.078174176
0.060517787
0.040265677
0.016769576
0.13038868
0.12939824
0.12782564
0.12595062
0.12334219
0.11929164
0.11314592
0.10442097
0.092803616
0.07813968
0.060473195
0.040241097
0.016774131
0.13194389
0.13086232
0.12908188
0.12692417
0.12402193
0.1197126
0.11336304
0.10449291
0.092785882
0.078081852
0.060416269
0.040212091
0.01677811
0.13333351
0.13216841
0.13019744
0.12777904
0.1246043
0.12005488
0.11351794
0.10451758
0.092734618
0.078002785
0.060348277
0.040179194
0.016781529
0.13456754
0.1333259
0.13118034
0.12852189
0.12509503
0.12032358
0.11361511
0.10449879
0.092652845
0.077904646
0.060270529
0.04014296
0.016784408
0.13565586
0.13434411
0.13203866
0.12915952
0.12549995
0.12052384
0.11365909
0.10444039
0.092543624
0.077789631
0.060184358
0.040103943
0.016786772
0.13660818
0.13523223
0.13278047
0.12969872
0.12582492
0.12066084
0.11365441
0.10434621
0.092410007
0.077659938
0.060091088
0.040062691
0.016788649
0.13743395
0.13599924
0.13341372
0.13014628
0.12607575
0.12073966
0.11360553
0.10422005
0.092255004
0.077517726
0.059992016
0.040019736
0.01679007
0.13814234
0.13665389
0.13394619
0.13050886
0.1262582
0.12076533
0.11351683
0.10406559
0.092081546
0.077365092
0.059888394
0.039975582
0.016791066
0.13874219
0.13720464
0.13438546
0.13079301
0.12637786
0.12074273
0.11339254
0.1038864
0.091892458
0.077204049
0.059781411
0.039930703
0.016791672
0.13924199
0.13765963
0.13473887
0.13100506
0.12644021
0.1206766
0.11323675
0.1036859
0.091690436
0.077036503
0.059672183
0.039885533
0.016791922
0.13964989
0.13802666
0.13501348
0.13115114
0.12645052
0.12057148
0.11305338
0.10346736
0.09147803
0.076864244
0.059561744
0.039840471
0.01679185
0.13997362
0.13831318
0.13521606
0.13123714
0.12641384
0.12043175
0.11284614
0.10323386
0.09125763
0.076688932
0.059451039
0.039795871
0.01679149
0.14022055
0.13852628
0.13535304
0.1312687
0.12633502
0.12026153
0.11261855
0.10298828
0.091031461
0.076512092
0.059340924
0.039752044
0.016790873
0.14039766
0.13867268
0.13543059
0.1312512
0.12621866
0.12006478
0.11237394
0.10273332
0.090801574
0.076335113
0.059232159
0.039709263
0.016790032
0.14051155
0.13875873
0.1354545
0.13118972
0.12606915
0.1198452
0.11211538
0.10247148
0.090569847
0.076159244
0.059125416
0.039667757
0.016788995
0.14056842
0.13879043
0.13543027
0.13108908
0.1258906
0.11960626
0.11184578
0.10220507
0.090337984
0.075985598
0.059021276
0.039627717
0.016787792
0.14057411
0.13877342
0.13536307
0.13095383
0.12568688
0.11935124
0.11156781
0.10193617
0.090107511
0.07581514
0.058920188
0.039589084
0.016786447
0.14053409
0.13871297
0.13525776
0.13078823
0.12546164
0.11908314
0.11128393
0.10166671
0.089879786
0.075648695
0.058822508
0.039551812
0.016784982
0.14045347
0.13861402
0.13511888
0.13059628
0.12521827
0.1188048
0.11099638
0.10139838
0.089655979
0.075486902
0.058728258
0.039516189
0.016783415
0.14033703
0.1384812
0.13495067
0.13038169
0.12495991
0.11851878
0.11070722
0.10113271
0.089437117
0.075330341
0.058637781
0.039482343
0.016781767
0.14018921
0.13831879
0.1347571
0.13014794
0.1246895
0.11822748
0.11041829
0.10087104
0.089223992
0.075179139
0.058551509
0.039450366
0.016780058
0.14001414
0.13813079
0.13454183
0.12989825
0.12440972
0.11793304
0.11013124
0.10061449
0.089017233
0.075033988
0.058469589
0.039420306
0.016778306
0.13981563
0.13792089
0.13430826
0.12963558
0.12412305
0.11763744
0.10984753
0.10036405
0.088817382
0.07489535
0.058392146
0.039392197
0.01677653
0.13959724
0.13769251
0.13405954
0.12936267
0.12383174
0.11734243
0.1095684
0.10012037
0.088625237
0.074763468
0.058319259
0.039366049
0.016774744
0.13936221
0.13744881
0.13379856
0.12908203
0.12353784
0.11704955
0.10929486
0.099884391
0.088441261
0.074638517
0.058250964
0.039341853
0.016772961
0.13911355
0.13719268
0.13352798
0.12879593
0.12324318
0.11676015
0.10902792
0.099656896
0.088265795
0.074520612
0.058187258
0.039319581
0.016771193
0.13885402
0.13692677
0.1332502
0.12850646
0.12294937
0.11647537
0.10876864
0.099438432
0.08809909
0.074409804
0.058128101
0.039299192
0.016769452
0.13858613
0.13665351
0.13296743
0.12821541
0.12265781
0.11619655
0.10851783
0.099229434
0.087941314
0.074306095
0.058073428
0.039280634
0.016767744
0.13831214
0.13637506
0.13268158
0.12792442
0.12237001
0.11592472
0.10827613
0.099030234
0.087792559
0.074209436
0.058023144
0.039263843
0.016766078
0.1380341
0.13609336
0.13239447
0.12763517
0.12208726
0.11566078
0.10804409
0.098841072
0.087652852
0.074119735
0.057977133
0.039248751
0.01676446
0.13775385
0.13581024
0.1321078
0.1273491
0.12181068
0.1154055
0.10782213
0.0986621
0.087522159
0.074036864
0.057935262
0.039235282
0.016762896
0.13747312
0.13552738
0.13182312
0.12706751
0.12154124
0.1151595
0.10761058
0.098493398
0.087400392
0.073960663
0.057897382
0.039223359
0.016761389
0.13719348
0.1352463
0.13154182
0.12679155
0.1212798
0.11492333
0.10740967
0.098334973
0.087287417
0.073890944
0.057863333
0.039212901
0.016759943
0.13691636
0.13496839
0.13126513
0.12652223
0.12102705
0.11469738
0.10721955
0.098186772
0.087183059
0.073827496
0.057832944
0.039203825
0.016758561
0.13664303
0.13469486
0.13099414
0.12626041
0.12078362
0.11448199
0.1070403
0.098048684
0.087087106
0.073770091
0.057806041
0.039196048
0.016757244
0.13637464
0.1344268
0.13072981
0.12600685
0.12054998
0.11427737
0.10687191
0.097920551
0.086999317
0.073718483
0.057782443
0.039189488
0.016755994
0.13611219
0.13416517
0.13047298
0.12576218
0.12032653
0.11408369
0.10671433
0.09780217
0.086919422
0.073672417
0.057761966
0.039184061
0.016754812
0.13585657
0.13391081
0.13022435
0.12552693
0.12011357
0.11390101
0.10656745
0.0976933
0.086847133
0.073631627
0.057744425
0.039179689
0.016753697
0.13560854
0.13366444
0.12998453
0.12530152
0.11991131
0.11372933
0.10643108
0.097593666
0.086782142
0.073595843
0.057729638
0.039176292
0.016752651
0.13536874
0.13342664
0.12975401
0.12508628
0.11971989
0.1135686
0.10630503
0.097502965
0.086724127
0.073564788
0.05771742
0.039173793
0.016751671
0.13513773
0.13319794
0.12953321
0.12488147
0.11953936
0.11341869
0.10618904
0.097420873
0.086672757
0.073538188
0.057707594
0.039172118
0.016750758
0.13491595
0.13297874
0.12932242
0.12468724
0.11936973
0.11327945
0.10608282
0.097347043
0.086627692
0.073515765
0.057699982
0.039171196
0.01674991
0.13470376
0.13276935
0.12912189
0.12450369
0.11921092
0.11315066
0.10598606
0.097281116
0.08658859
0.073497247
0.057694413
0.039170957
0.016749126
0.13450144
0.13257003
0.12893177
0.12433086
0.11906281
0.11303207
0.10589843
0.097222719
0.086555105
0.073482364
0.057690721
0.039171336
0.016748403
0.13430918
0.13238093
0.12875214
0.1241687
0.11892526
0.1129234
0.10581955
0.097171475
0.086526894
0.073470853
0.057688745
0.03917227
0.016747741
0.1341271
0.13220215
0.12858302
0.12401713
0.11879804
0.11282434
0.10574905
0.097126998
0.086503616
0.073462454
0.057688329
0.0391737
0.016747136
0.13395529
0.13203372
0.12842439
0.12387602
0.1186809
0.11273455
0.10568656
0.097088903
0.086484934
0.073456919
0.057689326
0.039175569
0.016746588
0.13379373
0.13187563
0.12827616
0.1237452
0.11857359
0.11265367
0.10563168
0.097056806
0.086470518
0.073454004
0.057691593
0.039177824
0.016746093
0.13364237
0.1317278
0.1281382
0.12362443
0.11847578
0.11258134
0.10558399
0.097030323
0.086460046
0.073453476
0.057694997
0.039180416
0.01674565
0.13350114
0.1315901
0.12801032
0.12351348
0.11838715
0.11251717
0.10554311
0.097009079
0.086453206
0.073455112
0.057699409
0.039183296
0.016745255
0.13336987
0.13146238
0.12789233
0.12341206
0.11830736
0.11246076
0.10550864
0.096992703
0.086449693
0.073458698
0.057704709
0.039186423
0.016744907
0.13324839
0.13134444
0.12778397
0.12331987
0.11823604
0.11241172
0.10548016
0.096980833
0.086449216
0.073464029
0.057710782
0.039189754
0.016744603
0.13313648
0.13123604
0.12768497
0.12323658
0.11817281
0.11236964
0.10545729
0.096973116
0.086451493
0.073470912
0.057717523
0.039193252
0.016744341
0.1330339
0.13113692
0.12759503
0.12316184
0.11811728
0.11233412
0.10543963
0.096969212
0.086456256
0.073479164
0.057724831
0.039196883
0.016744118
0.13294037
0.13104677
0.12751383
0.1230953
0.11806907
0.11230475
0.10542681
0.096968788
0.086463247
0.073488612
0.057732613
0.039200615
0.016743933
0.13285557
0.1309653
0.12744102
0.12303656
0.11802776
0.11228114
0.10541844
0.096971523
0.08647222
0.073499091
0.057740783
0.039204416
0.016743781
0.13277919
0.13089215
0.12737623
0.12298525
0.11799296
0.11226288
0.10541417
0.096977107
0.086482938
0.073510446
0.057749257
0.039208261
0.016743662
0.13271087
0.13082697
0.12731911
0.12294096
0.11796425
0.11224957
0.10541363
0.096985242
0.086495177
0.073522531
0.057757961
0.039212123
0.016743573
0.13265026
0.13076939
0.12726924
0.12290329
0.11794124
0.11224083
0.10541647
0.09699564
0.086508723
0.073535206
0.057766821
0.039215978
0.016743511
0.13259699
0.13071903
0.12722625
0.12287185
0.11792351
0.11223628
0.10542236
0.097008025
0.086523371
0.073548342
0.057775771
0.039219805
0.016743475
0.13255067
0.13067551
0.12718974
0.12284622
0.11791067
0.11223554
0.10543097
0.097022135
0.086538933
0.073561818
0.057784749
0.039223583
0.016743462
0.13251092
0.13063844
0.12715931
0.12282601
0.11790234
0.11223826
0.10544199
0.097037725
0.086555228
0.073575521
0.057793701
0.039227295
0.01674347
0.13247736
0.13060743
0.12713457
0.12281083
0.11789814
0.1122441
0.10545514
0.097054562
0.086572093
0.073589351
0.057802576
0.039230926
0.016743497
0.13244961
0.1305821
0.12711513
0.1228003
0.11789771
0.11225274
0.10547013
0.097072436
0.086589379
0.073603217
0.057811332
0.039234462
0.01674354
0.13242731
0.13056208
0.12710064
0.12279406
0.11790071
0.11226386
0.10548672
0.09709115
0.08660695
0.07361704
0.057819932
0.039237895
0.016743599
0.1324101
0.13054701
0.12709071
0.12279175
0.1179068
0.11227718
0.10550467
0.097110526
0.086624687
0.07363075
0.057828346
0.039241214
0.016743671
0.13239761
0.13053653
0.12708501
0.12279303
0.11791569
0.11229244
0.10552376
0.097130401
0.08664248
0.073644286
0.057836546
0.039244415
0.016743755
0.1323895
0.13053029
0.12708318
0.12279759
0.11792707
0.11230937
0.10554378
0.097150624
0.086660231
0.073657593
0.057844511
0.039247493
0.016743849
0.13238542
0.13052794
0.12708489
0.12280509
0.11794066
0.11232774
0.10556454
0.097171057
0.086677851
0.073670622
0.057852218
0.039250425
0.016743953
0.13238504
0.13052916
0.12708982
0.12281524
0.11795619
0.11234731
0.10558587
0.097191568
0.086695254
0.073683326
0.057859644
0.039253196
0.016744063
0.13238801
0.13053361
0.12709764
0.12282773
0.11797338
0.11236786
0.10560759
0.097212035
0.08671236
0.073695657
0.05786675
0.039255817
0.01674418
0.13239402
0.13054097
0.12710804
0.12284228
0.11799198
0.11238918
0.10562953
0.097232341
0.086729096
0.073707575
0.057873525
0.039258289
0.016744301
0.13240274
0.13055091
0.12712071
0.12285861
0.11801176
0.11241108
0.10565156
0.09725238
0.08674539
0.073719022
0.05787997
0.039260614
0.016744426
0.13241385
0.13056315
0.12713538
0.12287645
0.11803247
0.11243336
0.10567351
0.097272053
0.086761181
0.07372998
0.057886079
0.039262792
0.016744553
0.13242708
0.13057737
0.12715175
0.12289555
0.11805392
0.11245586
0.10569527
0.09729127
0.086776397
0.073740442
0.057891846
0.039264825
0.016744682
0.13244214
0.13059332
0.12716957
0.12291568
0.1180759
0.11247842
0.10571673
0.097309947
0.086791019
0.073750392
0.057897272
0.039266717
0.016744811
0.13245877
0.13061074
0.12718861
0.12293662
0.11809823
0.11250091
0.10573778
0.09732802
0.086805024
0.073759821
0.057902356
0.039268471
0.01674494
0.13247673
0.13062939
0.12720863
0.12295818
0.11812075
0.11252318
0.10575831
0.097345459
0.086818394
0.073768727
0.057907105
0.03927009
0.016745069
0.13249579
0.13064905
0.12722944
0.12298018
0.11814332
0.11254513
0.10577828
0.097362228
0.086831113
0.07377711
0.057911526
0.039271581
0.016745195
0.13251574
0.13066952
0.12725083
0.12300244
0.11816578
0.11256667
0.10579764
0.097378299
0.086843176
0.073784976
0.057915628
0.039272948
0.01674532
0.13253639
0.13069059
0.12727264
0.12302481
0.11818801
0.11258771
0.10581633
0.09739365
0.086854578
0.073792334
0.05791942
0.039274197
0.016745443
0.13255754
0.13071209
0.12729467
0.12304714
0.11820993
0.1126082
0.10583431
0.097408261
0.086865318
0.07379919
0.057922912
0.039275332
0.016745563
0.13257903
0.13073385
0.1273168
0.12306931
0.11823142
0.11262805
0.10585155
0.097422116
0.086875396
0.073805552
0.057926112
0.039276359
0.01674568
0.13260068
0.1307557
0.12733886
0.1230912
0.11825241
0.11264721
0.105868
0.097435203
0.086884813
0.073811427
0.057929028
0.03927728
0.016745793
0.13262235
0.13077752
0.12736074
0.12311271
0.11827281
0.11266563
0.10588365
0.097447512
0.086893569
0.073816822
0.057931665
0.039278099
0.016745903
0.13264391
0.13079916
0.12738233
0.12313375
0.11829256
0.11268327
0.10589846
0.097459035
0.08690167
0.073821746
0.057934032
0.039278818
0.016746008
0.13266525
0.13082053
0.12740352
0.12315423
0.1183116
0.11270009
0.10591243
0.097469777
0.086909126
0.07382621
0.057936137
0.039279443
0.016746109
0.13268627
0.13084154
0.12742424
0.1231741
0.11832988
0.11271607
0.10592556
0.097479746
0.086915951
0.073830229
0.05793799
0.039279976
0.016746205
0.13270689
0.1308621
0.12744442
0.12319331
0.11834739
0.11273121
0.10593784
0.097488962
0.086922168
0.073833824
0.057939606
0.039280425
0.016746296
0.13272705
0.13088216
0.12746402
0.12321182
0.1183641
0.11274551
0.10594931
0.09749745
0.086927806
0.073837018
0.057941
0.039280794
0.016746382
0.13274669
0.13090166
0.12748298
0.12322961
0.11838002
0.11275898
0.10595999
0.097505245
0.086932898
0.073839839
0.057942191
0.039281092
0.016746463
0.13276576
0.13092057
0.12750129
0.12324666
0.11839514
0.11277164
0.10596991
0.097512382
0.086937479
0.073842318
0.057943196
0.039281327
0.016746539
0.13278421
0.13093883
0.1275189
0.12326296
0.11840946
0.11278352
0.10597909
0.097518897
0.086941585
0.073844482
0.057944037
0.039281506
0.016746611
0.132802
0.13095641
0.12753578
0.12327848
0.118423
0.11279461
0.10598757
0.097524823
0.086945248
0.073846357
0.057944728
0.039281636
0.016746678
0.13281907
0.13097325
0.12755191
0.12329322
0.11843573
0.11280495
0.10599536
0.097530184
0.086948491
0.073847964
0.057945283
0.039281722
0.016746742
0.13283537
0.13098932
0.12756723
0.12330714
0.11844765
0.11281452
0.10600249
0.097534999
0.086951335
0.073849318
0.057945711
0.039281768
0.016746801
0.13285086
0.13100456
0.12758171
0.1233202
0.11845875
0.11282332
0.10600894
0.097539277
0.086953789
0.073850428
0.057946017
0.039281777
0.016746857
0.13286547
0.13101893
0.12759531
0.1233324
0.11846901
0.11283135
0.10601473
0.097543023
0.086955861
0.073851298
0.057946205
0.039281748
0.016746908
0.13287919
0.13103239
0.127608
0.1233437
0.1184784
0.1128386
0.10601985
0.09754624
0.086957552
0.073851932
0.057946274
0.039281681
0.016746956
0.132892
0.13104494
0.12761977
0.12335408
0.11848694
0.11284507
0.1060243
0.097548931
0.086958865
0.073852329
0.057946225
0.039281576
0.016746999
0.13290389
0.13105656
0.12763062
0.12336357
0.11849462
0.11285078
0.1060281
0.097551105
0.086959806
0.07385249
0.057946056
0.039281431
0.016747037
0.1329149
0.1310673
0.12764057
0.12337219
0.11850148
0.11285574
0.10603128
0.097552781
0.086960388
0.073852425
0.05794577
0.039281247
0.016747071
0.13292508
0.1310772
0.12764969
0.12337997
0.11850757
0.11286
0.10603386
0.097553992
0.086960634
0.073852147
0.057945375
0.039281027
0.0167471
0.1329345
0.13108632
0.12765803
0.12338701
0.11851294
0.11286364
0.10603592
0.097554788
0.086960582
0.073851681
0.057944885
0.039280774
0.016747124
0.13294325
0.13109476
0.12766568
0.12339338
0.1185177
0.11286673
0.10603752
0.097555231
0.08696028
0.073851061
0.057944318
0.039280496
0.016747143
0.13295142
0.1311026
0.12767273
0.12339917
0.11852194
0.11286937
0.10603875
0.097555397
0.086959789
0.073850329
0.057943699
0.039280203
0.016747159
0.13295906
0.13110993
0.12767928
0.12340449
0.11852575
0.11287165
0.1060397
0.097555365
0.086959175
0.073849535
0.057943059
0.039279907
0.016747172
0.13296624
0.13111679
0.12768538
0.12340939
0.11852921
0.11287366
0.10604046
0.097555211
0.086958502
0.073848725
0.057942426
0.039279619
0.016747182
0.13297297
0.13112322
0.12769107
0.12341395
0.11853239
0.11287546
0.10604109
0.097555001
0.086957826
0.073847947
0.05794183
0.039279351
0.016747191
0.13297924
0.1311292
0.12769636
0.12341816
0.1185353
0.11287709
0.10604163
0.097554772
0.086957184
0.073847226
0.057941289
0.039279112
0.0167472
0.13298498
0.13113469
0.12770121
0.12342199
0.11853792
0.11287852
0.10604208
0.09755453
0.086956585
0.073846574
0.057940809
0.039278905
0.01674721
0.13299011
0.1311396
0.12770553
0.12342539
0.11854021
0.11287973
0.1060424
0.097554246
0.086956006
0.073845974
0.057940382
0.039278726
0.01674722
0.13299453
0.13114383
0.12770925
0.12342826
0.11854208
0.11288063
0.10604252
0.097553859
0.086955397
0.073845386
0.05793998
0.039278564
0.016747231
0.13299816
0.1311473
0.12771225
0.12343051
0.11854342
0.11288112
0.10604235
0.097553287
0.086954687
0.073844757
0.05793957
0.039278405
0.016747241
0.13300093
0.13114994
0.12771448
0.12343206
0.11854417
0.11288112
0.1060418
0.097552446
0.0869538
0.073844024
0.057939108
0.03927823
0.016747249
0.13300283
0.13115174
0.1277159
0.12343286
0.11854426
0.11288058
0.10604082
0.097551267
0.086952672
0.073843133
0.057938559
0.039278022
0.016747254
0.13300394
0.13115273
0.12771654
0.12343295
0.11854371
0.11287947
0.10603936
0.09754972
0.086951265
0.073842048
0.057937896
0.039277766
0.016747254
0.13300437
0.13115305
0.12771652
0.1234324
0.11854258
0.11287786
0.10603749
0.097547824
0.086949587
0.073840771
0.057937115
0.039277454
0.016747248
0.13300431
0.13115285
0.12771598
0.12343136
0.11854101
0.11287587
0.10603528
0.097545657
0.086947697
0.073839341
0.057936239
0.0392771
0.016747237
0.13300399
0.13115237
0.12771515
0.12343004
0.11853918
0.11287366
0.1060329
0.097543349
0.086945698
0.073837835
0.057935319
0.03927673
0.016747221
0.13300361
0.13115181
0.12771423
0.12342865
0.11853731
0.11287143
0.10603052
0.097541058
0.086943725
0.073836356
0.057934422
0.039276377
0.016747202
0.13300336
0.13115136
0.12771343
0.12342738
0.11853559
0.11286937
0.10602832
0.097538949
0.086941919
0.073835013
0.057933617
0.039276071
0.016747183
0.13300334
0.13115114
0.12771286
0.12342637
0.11853415
0.11286761
0.10602644
0.097537152
0.086940395
0.073833899
0.057932964
0.039275825
0.016747165
0.13300358
0.13115119
0.12771257
0.12342567
0.11853305
0.11286623
0.10602494
0.097535734
0.086939215
0.073833064
0.057932497
0.039275658
0.016747153
0.13300401
0.13115144
0.12771252
0.12342525
0.11853227
0.1128652
0.10602382
0.097534679
0.086938366
0.073832498
0.057932214
0.039275572
0.016747146
0.13300447
0.13115176
0.12771258
0.12342498
0.11853169
0.11286441
0.10602295
0.09753389