/*--------------------------------*- C++ -*----------------------------------*\
| =========                 |                                                 |
| \\      /  F ield         | OpenFOAM: The Open Source CFD Toolbox           |
|  \\    /   O peration     | Version:  2506                                  |
|   \\  /    A nd           | Website:  www.openfoam.com                      |
|    \\/     M anipulation  |                                                 |
\*---------------------------------------------------------------------------*/
FoamFile
{
    version     2.0;
    format      ascii;
    arch        "LSB;label=32;scalar=64";
    class       volScalarField;
    location    "15000/water";
    object      k;
}
// * * * * * * * * * * * * * * * * * * * * * * * * * * * * * * * * * * * * * //

dimensions      [0 2 -2 0 0 0 0];

internalField   nonuniform List<scalar> 
2600
(
0.0001992401
0.00019923925
0.00019923929
0.00019923963
0.00019923982
0.00019923914
0.00019923438
0.00019921375
0.00019914651
0.00019904325
0.00019990841
0.00021454267
0.00040955349
0.00017237279
0.00017237614
0.00017237826
0.00017238051
0.0001723821
0.00017237949
0.00017235884
0.00017227555
0.000172027
0.00017162102
0.00017329371
0.00020304806
0.00052391648
0.00015132731
0.00015133049
0.00015133306
0.00015133552
0.00015133516
0.00015132207
0.00015126283
0.00015106462
0.00015055477
0.00014985944
0.0001528957
0.00019760629
0.00057958156
0.00013448336
0.00013448533
0.00013448764
0.00013448905
0.00013448325
0.00013445009
0.00013432997
0.00013398205
0.00013321503
0.00013247936
0.00013787909
0.00019702317
0.00059640815
0.00012075551
0.00012075697
0.00012075853
0.00012075718
0.00012074152
0.0001206782
0.00012048052
0.00011997843
0.0001190486
0.00011870929
0.00012776334
0.00020116854
0.00059206885
0.0001093899
0.00010939088
0.000109391
0.00010938492
0.00010935483
0.00010925313
0.00010897207
0.00010834649
0.00010742643
0.0001080609
0.00012226457
0.00021023394
0.00057809221
9.984982e-05
9.9850093e-05
9.9847944e-05
9.9835056e-05
9.9786463e-05
9.9641865e-05
9.9284958e-05
9.859999e-05
9.7925043e-05
0.00010022517
0.00012123091
0.00022425603
0.00056106272
9.1744874e-05
9.174416e-05
9.1738826e-05
9.1717148e-05
9.1647174e-05
9.1460104e-05
9.1049018e-05
9.0398665e-05
9.0258419e-05
9.5030413e-05
0.00012461431
0.00024286356
0.00054449405
8.4785472e-05
8.4783454e-05
8.4774018e-05
8.4741918e-05
8.4649457e-05
8.4426122e-05
8.3996574e-05
8.3502376e-05
8.4241543e-05
9.2421343e-05
0.00013239492
0.00026511347
0.00053012765
7.8752977e-05
7.8749319e-05
7.8734951e-05
7.8691403e-05
7.8577619e-05
7.8330528e-05
7.7932172e-05
7.7743318e-05
7.9771153e-05
9.2438123e-05
0.00014444361
0.00028951151
0.0005186607
7.3479682e-05
7.3474066e-05
7.3454131e-05
7.3398964e-05
7.3267704e-05
7.3016085e-05
7.2712929e-05
7.3009357e-05
7.6815022e-05
9.5182834e-05
0.00016036325
0.00031428525
0.00051014247
6.8835097e-05
6.8827266e-05
6.8801436e-05
6.8735571e-05
6.8593744e-05
6.836405e-05
6.8235745e-05
6.9234209e-05
7.5403717e-05
0.00010076472
0.00017939077
0.00033780739
0.0005042266
6.4716374e-05
6.4706175e-05
6.4674551e-05
6.4600233e-05
6.4458202e-05
6.4284863e-05
6.4429045e-05
6.6391811e-05
7.5619873e-05
0.0001092241
0.00020043529
0.00035894529
0.00050037283
6.1041501e-05
6.1028932e-05
6.0992164e-05
6.091321e-05
6.0785257e-05
6.0711783e-05
6.1247563e-05
6.4493003e-05
7.7580809e-05
0.00012045028
0.00022225715
0.00037717552
0.0004980107
5.7744396e-05
5.7729653e-05
5.7689074e-05
5.7611142e-05
5.751606e-05
5.7596592e-05
5.8669223e-05
6.3582872e-05
8.1411588e-05
0.00013412437
0.00024370832
0.00039247762
0.00049664628
5.4771313e-05
5.4754847e-05
5.4712615e-05
5.4643526e-05
5.4605384e-05
5.4906753e-05
5.6693486e-05
6.3736861e-05
8.7208043e-05
0.00014971788
0.00026392364
0.00040513366
0.00049590625
5.2078186e-05
5.206076e-05
5.2020025e-05
5.1970154e-05
5.2019282e-05
5.2623661e-05
5.5340604e-05
6.5053657e-05
9.4994183e-05
0.00016655656
0.0002823955
0.0004155487
0.00049553614
4.9628636e-05
4.9611393e-05
4.9576492e-05
4.9559258e-05
4.9733503e-05
5.0741692e-05
5.4651193e-05
6.7643169e-05
0.00010468473
0.00018392817
0.00029893687
0.00042413794
0.00049537652
4.7392458e-05
4.7377004e-05
4.7353699e-05
4.7386176e-05
4.773248e-05
4.9267885e-05
5.4685327e-05
7.1608738e-05
0.00011606685
0.00020119287
0.00031358495
0.00043127329
0.0004953351
4.5344476e-05
4.5332971e-05
4.5328746e-05
4.5432431e-05
4.600877e-05
4.8222044e-05
5.5520136e-05
7.7024456e-05
0.00012881109
0.00021785898
0.00032650009
0.00043726613
0.00049536294
4.3463657e-05
4.3458933e-05
4.3483358e-05
4.3685127e-05
4.4562868e-05
4.7637064e-05
5.7244885e-05
8.39111e-05
0.00014251075
0.00023360813
0.00033789056
0.00044236711
0.00049543702
4.1732429e-05
4.173814e-05
4.1803329e-05
4.2136614e-05
4.3403329e-05
4.7559127e-05
5.9952697e-05
9.2216769e-05
0.00015673761
0.00024827797
0.00034796834
0.00044677302
0.00049554866
4.0136167e-05
4.015697e-05
4.0278149e-05
4.0784372e-05
4.2547129e-05
4.8047288e-05
6.37287e-05
0.00010180889
0.00017109624
0.00026182259
0.0003569282
0.00045063571
0.00049569618
3.8662802e-05
3.8704582e-05
3.8900797e-05
3.9631107e-05
4.2020194e-05
4.9171841e-05
6.8635431e-05
0.00011248166
0.0001852623
0.00027427018
0.00036494029
0.00045407114
0.0004958807
3.7302531e-05
3.7372692e-05
3.7667676e-05
3.8685008e-05
4.1857945e-05
5.1010818e-05
7.4697748e-05
0.00012397798
0.00019899861
0.00028568913
0.00037214923
0.00045716736
0.00049610392
3.6047628e-05
3.6155447e-05
3.6578682e-05
3.7960182e-05
4.2105653e-05
5.364414e-05
8.1890769e-05
0.00013601989
0.00021215193
0.00029616534
0.00037867608
0.00045999117
0.00049636709
3.4892327e-05
3.5049398e-05
3.5637398e-05
3.7477201e-05
4.2818256e-05
5.7145348e-05
9.0134492e-05
0.00014833915
0.00022463802
0.00030578894
0.00038462123
0.0004625934
0.00049667064
3.383279e-05
3.4053569e-05
3.4851411e-05
3.7263737e-05
4.4059205e-05
6.1571466e-05
9.9297384e-05
0.00016070076
0.00023642316
0.00031464714
0.00039006764
0.00046501299
0.00049701416
3.2867148e-05
3.316962e-05
3.4232755e-05
3.7355162e-05
4.5897912e-05
6.6952455e-05
0.00010920861
0.00017291579
0.00024750737
0.00032282077
0.00039508379
0.00046727996
0.00049739654
3.1995627e-05
3.2402111e-05
3.3798455e-05
3.7794963e-05
4.8405429e-05
7.3282439e-05
0.00011967597
0.00018484396
0.00025791153
0.00033038288
0.00039972633
0.00046941773
0.00049781615
3.1220754e-05
3.1758868e-05
3.3571166e-05
3.8634689e-05
5.1648301e-05
8.0515036e-05
0.00013050501
0.00019638896
0.00026766839
0.00033739835
0.00040404224
0.00047144508
0.00049827105
3.0547674e-05
3.1251458e-05
3.3579859e-05
3.9933128e-05
5.5680956e-05
8.8564413e-05
0.00014151526
0.0002074904
0.00027681664
0.00034392426
0.00040806987
0.00047336165
0.00049875826
2.9984563e-05
3.0895778e-05
3.3860461e-05
4.1754322e-05
6.0537583e-05
9.731215e-05
0.00015255089
0.00021811501
0.00028539698
0.00035000996
0.00041183982
0.00047517683
0.00049927448
2.9543171e-05
3.071274e-05
3.4456303e-05
4.416415e-05
6.6225004e-05
0.00010661843
0.00016348529
0.00022824914
0.00029345001
0.00035569878
0.00041537498
0.00047690098
0.00049981638
2.9239498e-05
3.072904e-05
3.5418148e-05
4.7225364e-05
7.2718215e-05
0.00011633497
0.00017422102
0.00023789273
0.00030101459
0.00036102772
0.000418694
0.00047854313
0.00050038114
2.9094595e-05
3.0977951e-05
3.6803501e-05
5.0991334e-05
7.9959883e-05
0.00012631696
0.00018468652
0.00024705469
0.00030812684
0.00036602759
0.00042181619
0.0004801151
0.00050096676
2.9135496e-05
3.1500046e-05
3.867486e-05
5.5499189e-05
8.7864167e-05
0.00013643209
0.00019483196
0.00025575015
0.00031482084
0.00037072328
0.00042475509
0.00048162855
0.00050157201
2.9396231e-05
3.2343669e-05
4.1096632e-05
6.0763506e-05
9.6324076e-05
0.00014656574
0.00020462432
0.00026399671
0.00032112526
0.00037513788
0.00042753008
0.00048308917
0.00050219529
2.9918841e-05
3.3564909e-05
4.4130586e-05
6.6771888e-05
0.00010522079
0.00015662302
0.00021404418
0.00027181505
0.00032706607
0.00037928747
0.00043015898
0.00048450266
0.00050283511
3.0754242e-05
3.5226726e-05
4.7830035e-05
7.3483558e-05
0.00011443288
0.00016652784
0.00022308102
0.00027922364
0.00033266468
0.00038319523
0.0004326545
0.00048587308
0.00050348988
3.1962696e-05
3.7396844e-05
5.2233352e-05
8.0831462e-05
0.00012384409
0.00017622137
0.00023173238
0.0002862417
0.00033793723
0.00038688253
0.00043502774
0.00048720353
0.00050415803
3.3613506e-05
4.0144094e-05
5.7357854e-05
8.8727401e-05
0.00013334837
0.00018565852
0.00023999855
0.00029288458
0.000342906
0.0003903665
0.00043728792
0.00048849634
0.00050483797
3.5783411e-05
4.3533079e-05
6.3195318e-05
9.7069241e-05
0.00014285307
0.00019480684
0.00024788469
0.00029916232
0.00034759331
0.00039366188
0.0004394427
0.00048975325
0.00050552812
3.8553073e-05
4.7617441e-05
6.9710127e-05
0.00010574828
0.00015227866
0.00020364079
0.0002553933
0.00030509328
0.00035201759
0.00039678118
0.00044149843
0.00049097545
0.00050622692
4.2001161e-05
5.2432571e-05
7.684073e-05
0.00011465642
0.00016156002
0.00021214495
0.00026252194
0.00031069683
0.000356195
0.00039973505
0.0004434603
0.00049216367
0.00050693283
4.6195925e-05
5.798897e-05
8.4503823e-05
0.00012369061
0.00017064178
0.00022029901
0.00026928194
0.00031598928
0.00036013925
0.00040253238
0.00044533252
0.00049331826
0.00050764432
5.118502e-05
6.4267714e-05
9.2600638e-05
0.00013275649
0.00017947939
0.00022808588
0.0002756847
0.00032098502
0.00036386201
0.00040518056
0.00044711836
0.00049443921
0.00050835988
5.6985355e-05
7.1219286e-05
0.00010102456
0.00014177164
0.00018802207
0.00023550302
0.00028174029
0.00032569629
0.00036737302
0.00040768555
0.00044882025
0.00049552614
0.00050907799
6.3575463e-05
7.8766067e-05
0.00010966806
0.000150651
0.00019623699
0.00024254862
0.00028745744
0.00033013328
0.00037068022
0.00041005204
0.00045043986
0.00049657836
0.00050979712
7.0893458e-05
8.6809001e-05
0.00011841797
0.00015932161
0.00020409987
0.00024922136
0.00029284333
0.00033430425
0.00037378982
0.00041228346
0.0004519781
0.00049759482
0.0005105157
7.8838225e-05
9.5225342e-05
0.00012716544
0.00016772586
0.00021159049
0.00025551996
0.00029790355
0.00033821551
0.00037670645
0.00041438211
0.00045343516
0.00049857417
0.00051123213
8.7271697e-05
0.00010388134
0.00013581413
0.00017581503
0.00021869188
0.00026144293
0.0003026421
0.00034187163
0.00037943321
0.00041634916
0.00045481052
0.00049951468
0.00051194471
9.6036129e-05
0.00011264284
0.0001442788
0.00018354846
0.00022538994
0.00026698857
0.00030706155
0.00034527551
0.00038197177
0.00041818474
0.000456103
0.00050041429
0.00051265167
0.00010496804
0.00012138212
0.00015248583
0.00019089295
0.00023167329
0.00027215511
0.00031116327
0.0003484286
0.00038432256
0.00041988804
0.00045731079
0.00050127061
0.00051335111
0.00011391052
0.00012998316
0.00016037319
0.0001978223
0.00023753328
0.00027694102
0.00031494775
0.00035133123
0.00038648493
0.00042145739
0.0004584315
0.00050208092
0.00051404098
0.00012272241
0.00013834511
0.00016789028
0.00020431689
0.00024296418
0.00028134546
0.00031841509
0.0003539829
0.0003884574
0.00042289047
0.00045946227
0.00050284223
0.0005147191
0.00013128381
0.00014638422
0.00017499748
0.0002103634
0.00024796335
0.00028536869
0.00032156544
0.00035638272
0.00039023802
0.0004241845
0.00046039993
0.00050355137
0.00051538314
0.00013949837
0.00015403423
0.00018166553
0.00021595437
0.00025253136
0.00028901256
0.00032439954
0.00035852989
0.00039182466
0.00042533651
0.00046124112
0.00050420506
0.00051603065
0.00014729301
0.00016124579
0.00018787479
0.00022108778
0.00025667206
0.0002922808
0.00032691915
0.00036042409
0.00039321542
0.00042634364
0.00046198259
0.00050480007
0.00051665908
0.00015461609
0.00016798496
0.00019361426
0.00022576654
0.00026039246
0.00029517933
0.00032912747
0.00036206595
0.00039440902
0.00042720343
0.00046262134
0.00050533337
0.00051726584
0.00016143467
0.00017423144
0.0001988806
0.00022999794
0.00026370256
0.0002977163
0.00033102946
0.00036345741
0.00039540516
0.00042791416
0.00046315494
0.0005058023
0.00051784834
0.00016773144
0.00017997643
0.00020367704
0.00023379302
0.00026661508
0.00029990217
0.00033263196
0.00036460195
0.00039620479
0.00042847512
0.00046358172
0.0005062047
0.00051840409
0.00017350171
0.00018522061
0.00020801229
0.00023716601
0.0002691451
0.00030174948
0.00033394378
0.00036550485
0.00039681038
0.00042888683
0.00046390097
0.00050653909
0.00051893074
0.00017875068
0.00018997223
0.00021189955
0.00024013369
0.00027130966
0.00030327272
0.00033497569
0.00036617319
0.00039722605
0.00042915123
0.00046411314
0.0005068048
0.00051942617
0.00018349108
0.00019424535
0.00021535549
0.00024271486
0.00027312739
0.00030448805
0.00033574021
0.00036661588
0.00039745759
0.00042927176
0.00046421989
0.00050700201
0.00051988857
0.00018774112
0.00019805841
0.00021839946
0.00024492983
0.00027461809
0.00030541294
0.00033625146
0.0003668435
0.00039751251
0.00042925338
0.00046422415
0.00050713181
0.00052031646
0.00019152291
0.00020143294
0.0002210527
0.00024679992
0.0002758024
0.00030606592
0.00033652488
0.00036686819
0.00039739985
0.00042910251
0.00046413008
0.00050719622
0.00052070877
0.00019486114
0.00020439257
0.00022333773
0.0002483471
0.00027670141
0.00030646621
0.00033657694
0.00036670333
0.00039713004
0.0004288269
0.00046394302
0.0005071981
0.00052106483
0.00019778207
0.00020696219
0.00022527781
0.00024959363
0.00027733643
0.00030663345
0.0003364249
0.00036636337
0.00039671469
0.00042843548
0.0004636693
0.00050714106
0.00052138441
0.00020031272
0.00020916732
0.00022689648
0.00025056176
0.00027772871
0.00030658745
0.00033608643
0.00036586348
0.00039616632
0.00042793814
0.00046331614
0.0005070294
0.00052166768
0.00020248029
0.0002110336
0.00022821727
0.00025127349
0.00027789918
0.00030634788
0.00033557945
0.00036521933
0.00039549812
0.00042734546
0.00046289141
0.00050686792
0.00052191522
0.00020431171
0.00021258641
0.00022926335
0.00025175037
0.00027786836
0.00030593414
0.00033492179
0.00036444679
0.00039472368
0.00042666853
0.00046240344
0.0005066618
0.00052212795
0.00020583333
0.00021385058
0.00023005736
0.00025201337
0.00027765612
0.00030536511
0.00033413104
0.00036356169
0.00039385673
0.00042591866
0.00046186082
0.00050641647
0.00052230713
0.00020707063
0.00021485017
0.00023062123
0.00025208271
0.00027728164
0.00030465908
0.00033322433
0.00036257963
0.00039291091
0.00042510722
0.00046127224
0.00050613745
0.00052245426
0.00020804813
0.00021560834
0.00023097605
0.00025197781
0.00027676324
0.00030383356
0.00033221817
0.00036151576
0.00039189959
0.00042424536
0.00046064625
0.00050583024
0.00052257109
0.0002087892
0.00021614719
0.000231142
0.00025171718
0.0002761184
0.00030290522
0.00033112837
0.00036038462
0.00039083568
0.00042334391
0.00045999117
0.00050550018
0.00052265951
0.00020931607
0.00021648779
0.00023113827
0.00025131843
0.00027536363
0.00030188984
0.00032996986
0.00035920005
0.00038973146
0.00042241321
0.00045931495
0.00050515242
0.00052272154
0.00020964973
0.00021665004
0.00023098302
0.00025079815
0.0002745145
0.00030080223
0.00032875671
0.00035797507
0.00038859853
0.00042146298
0.00045862504
0.00050479179
0.00052275928
0.00020980995
0.0002166527
0.0002306934
0.00025017198
0.00027358557
0.00029965623
0.00032750201
0.00035672181
0.00038744768
0.00042050225
0.00045792834
0.00050442277
0.00052277484
0.00020981529
0.00021651339
0.00023028548
0.00024945455
0.00027259043
0.00029846467
0.00032621789
0.00035545145
0.00038628881
0.00041953931
0.00045723116
0.00050404945
0.00052277035
0.0002096831
0.00021624862
0.00022977432
0.00024865953
0.0002715417
0.00029723941
0.00032491547
0.00035417423
0.00038513098
0.00041858165
0.00045653917
0.00050367552
0.0005227479
0.00020942955
0.00021587374
0.00022917394
0.0002477996
0.00027045102
0.00029599131
0.0003236049
0.00035289943
0.00038398232
0.00041763598
0.00045585739
0.00050330424
0.00052270951
0.00020906968
0.00021540306
0.00022849738
0.00024688649
0.00026932908
0.00029473027
0.00032229534
0.00035163536
0.00038285006
0.00041670818
0.0004551902
0.00050293847
0.00052265713
0.00020861742
0.00021484984
0.00022775668
0.00024593101
0.00026818568
0.00029346526
0.00032099504
0.00035038942
0.00038174055
0.00041580337
0.00045454135
0.00050258065
0.00052259261
0.00020808567
0.0002142263
0.00022696297
0.00024494311
0.00026702971
0.00029220437
0.00031971131
0.0003491681
0.00038065931
0.00041492591
0.000453914
0.00050223282
0.00052251772
0.00020748629
0.00021354375
0.00022612648
0.00024393184
0.00026586924
0.0002909548
0.0003184506
0.00034797703
0.00037961102
0.00041407945
0.00045331062
0.00050189522
0.000522434
0.00020683022
0.00021281254
0.00022525656
0.00024290547
0.00026471152
0.00028972297
0.00031721852
0.00034682102
0.0003785996
0.00041326685
0.00045273295
0.0005015676
0.00052234281
0.00020612745
0.00021204216
0.00022436176
0.00024187146
0.00026356304
0.0002885145
0.00031601994
0.00034570413
0.00037762823
0.00041249039
0.00045218136
0.00050125082
0.00052224533
0.00020538714
0.00021124127
0.00022344984
0.00024083656
0.00026242956
0.00028733429
0.00031485894
0.00034462966
0.0003766994
0.00041175152
0.00045165651
0.00050094639
0.00052214278
0.00020461764
0.00021041775
0.00022252784
0.00023980679
0.00026131615
0.00028618657
0.00031373899
0.00034360034
0.000375815
0.00041105071
0.00045115861
0.00050065624
0.00052203643
0.00020382651
0.00020957874
0.00022160209
0.00023878755
0.00026022727
0.00028507492
0.0003126629
0.00034261816
0.00037497599
0.00041038818
0.00045068887
0.00050038139
0.00052192747
0.00020302062
0.00020873071
0.00022067826
0.0002377836
0.00025916677
0.00028400236
0.00031163287
0.00034168452
0.00037418284
0.00040976421
0.00045024814
0.00050012255
0.00052181696
0.00020220615
0.00020787944
0.00021976144
0.00023679912
0.00025813794
0.00028297136
0.00031065059
0.00034080016
0.00037343528
0.00040917944
0.0004498368
0.00049988012
0.00052170585
0.00020138867
0.00020703014
0.00021885614
0.00023583779
0.00025714357
0.00028198385
0.0003097171
0.00033996503
0.00037273364
0.00040863403
0.00044945487
0.00049965426
0.00052159496
0.00020057315
0.00020618744
0.00021796632
0.00023490274
0.00025618596
0.00028104126
0.00030883281
0.00033917908
0.00037207801
0.00040812778
0.0004491021
0.00049944491
0.00052148504
0.00019976404
0.00020535546
0.00021709547
0.00023399669
0.00025526696
0.00028014451
0.0003079976
0.0003384424
0.00037146809
0.00040766019
0.00044877797
0.00049925185
0.00052137671
0.00019896527
0.00020453781
0.00021624662
0.00023312191
0.00025438794
0.0002792937
0.00030721166
0.00033775474
0.0003709033
0.00040723052
0.00044848181
0.00049907474
0.00052127053
0.0001981803
0.00020373769
0.0002154224
0.00023228016
0.00025354949
0.00027848924
0.00030647486
0.00033711554
0.00037038278
0.00040683779
0.00044821277
0.00049891312
0.00052116695
0.00019741221
0.00020295787
0.00021462487
0.00023147262
0.00025275236
0.00027773127
0.0003057868
0.00033652396
0.00036990545
0.00040648086
0.00044796988
0.00049876646
0.00052106637
0.00019666352
0.00020220055
0.00021385569
0.00023070039
0.00025199698
0.00027701962
0.00030514681
0.00033597897
0.00036947004
0.00040615846
0.00044775207
0.00049863417
0.00052096911
0.00019593637
0.0002014676
0.00021311625
0.00022996427
0.00025128357
0.00027635392
0.00030455401
0.00033547933
0.00036907514
0.0004058692
0.00044755822
0.00049851562
0.00052087543
0.00019523258
0.00020076061
0.00021240769
0.00022926483
0.00025061207
0.00027573356
0.00030400734
0.00033502365
0.00036871921
0.0004056116
0.00044738714
0.00049841013
0.00052078556
0.00019455366
0.00020008087
0.00021173087
0.00022860239
0.00024998223
0.00027515774
0.00030350556
0.00033461039
0.00036840062
0.00040538413
0.00044723761
0.00049831704
0.00052069965
0.00019390087
0.00019942943
0.00021108644
0.00022797708
0.00024939362
0.00027462551
0.00030304729
0.00033423792
0.00036811764
0.00040518521
0.0004471084
0.00049823564
0.00052061783
0.00019327521
0.0001988071
0.0002104748
0.0002273888
0.00024884561
0.00027413575
0.00030263104
0.00033390451
0.00036786852
0.00040501323
0.00044699826
0.00049816524
0.00052054016
0.00019267746
0.00019821446
0.00020989618
0.00022683728
0.00024833741
0.00027368721
0.0003022552
0.00033360838
0.00036765146
0.00040486658
0.00044690596
0.00049810515
0.00052046671
0.00019210818
0.0001976519
0.00020935061
0.0002263221
0.00024786812
0.00027327855
0.0003019181
0.00033334767
0.00036746463
0.00040474366
0.00044683028
0.00049805469
0.00052039749
0.00019156776
0.00019711962
0.00020883793
0.00022584268
0.00024743668
0.0002729083
0.00030161801
0.00033312053
0.00036730622
0.00040464287
0.00044677002
0.00049801318
0.00052033248
0.00019105638
0.00019661765
0.00020835786
0.00022539829
0.00024704196
0.00027257496
0.00030135313
0.00033292505
0.00036717439
0.00040456264
0.00044672401
0.00049797998
0.00052027164
0.00019057407
0.00019614586
0.00020790996
0.00022498811
0.00024668271
0.00027227692
0.00030112164
0.00033275934
0.00036706737
0.00040450144
0.0004466911
0.00049795443
0.00052021492
0.00019012071
0.00019570399
0.00020749367
0.0002246112
0.00024635762
0.00027201257
0.00030092172
0.00033262153
0.00036698338
0.00040445776
0.00044667021
0.00049793594
0.00052016225
0.00018969606
0.00019529165
0.00020710832
0.00022426655
0.00024606532
0.00027178022
0.00030075152
0.00033250975
0.00036692069
0.00040443016
0.00044666027
0.0004979239
0.00052011353
0.00018929974
0.00019490832
0.00020675313
0.00022395306
0.00024580437
0.0002715782
0.00030060921
0.00033242215
0.00036687761
0.00040441723
0.00044666025
0.00049791775
0.00052006866
0.00018893127
0.0001945534
0.00020642726
0.00022366956
0.00024557332
0.0002714048
0.00030049296
0.00033235695
0.00036685251
0.00040441763
0.0004466692
0.00049791695
0.00052002751
0.00018859006
0.00019422618
0.00020612978
0.00022341485
0.00024537067
0.00027125832
0.00030040099
0.00033231239
0.00036684381
0.00040443007
0.00044668619
0.00049792097
0.00051998998
0.00018827546
0.0001939259
0.00020585969
0.00022318766
0.00024519493
0.00027113709
0.00030033154
0.00033228677
0.00036685
0.00040445331
0.00044671034
0.00049792933
0.00051995591
0.00018798673
0.00019365171
0.00020561595
0.00022298672
0.00024504457
0.00027103942
0.00030028288
0.00033227845
0.00036686962
0.00040448618
0.00044674081
0.00049794156
0.00051992518
0.00018772305
0.00019340271
0.00020539748
0.00022281071
0.00024491809
0.00027096368
0.00030025335
0.00033228583
0.00036690127
0.00040452758
0.00044677684
0.00049795722
0.00051989764
0.00018748357
0.00019317795
0.00020520315
0.00022265832
0.00024481399
0.00027090826
0.00030024131
0.0003323074
0.00036694364
0.00040457644
0.00044681767
0.0004979759
0.00051987315
0.00018726737
0.00019297644
0.00020503183
0.00022252822
0.00024473078
0.00027087157
0.00030024522
0.0003323417
0.00036699547
0.00040463179
0.00044686263
0.0004979972
0.00051985155
0.00018707353
0.00019279716
0.00020488234
0.00022241908
0.000244667
0.00027085209
0.00030026355
0.00033238734
0.00036705558
0.0004046927
0.00044691107
0.00049802076
0.00051983269
0.00018690104
0.00019263905
0.00020475352
0.00022232958
0.00024462121
0.00027084834
0.00030029486
0.000332443
0.00036712284
0.00040475831
0.00044696239
0.00049804624
0.00051981643
0.00018674892
0.00019250106
0.00020464419
0.00022225842
0.00024459202
0.00027085888
0.00030033777
0.00033250744
0.00036719622
0.0004048278
0.00044701604
0.00049807332
0.00051980261
0.00018661613
0.00019238211
0.00020455316
0.00022220432
0.00024457807
0.00027088233
0.00030039097
0.00033257947
0.00036727472
0.00040490042
0.0004470715
0.00049810171
0.00051979108
0.00018650165
0.00019228112
0.00020447926
0.000222166
0.00024457801
0.00027091737
0.00030045318
0.00033265798
0.00036735743
0.00040497547
0.00044712829
0.00049813113
0.0005197817
0.00018640442
0.00019219699
0.00020442134
0.00022214223
0.00024459058
0.00027096271
0.00030052323
0.00033274192
0.00036744348
0.0004050523
0.00044718598
0.00049816132
0.00051977432
0.00018632342
0.00019212866
0.00020437825
0.0002221318
0.00024461452
0.00027101716
0.00030059998
0.0003328303
0.00036753207
0.00040513032
0.00044724415
0.00049819203
0.00051976879
0.00018625761
0.00019207504
0.00020434887
0.00022213354
0.00024464865
0.00027107954
0.00030068238
0.00033292221
0.00036762247
0.00040520896
0.00044730242
0.00049822304
0.00051976497
0.00018620595
0.0001920351
0.00020433209
0.00022214631
0.00024469184
0.00027114877
0.00030076941
0.00033301679
0.00036771397
0.00040528771
0.00044736045
0.00049825414
0.00051976271
0.00018616743
0.00019200779
0.00020432684
0.00022216901
0.00024474298
0.0002712238
0.00030086015
0.00033311323
0.00036780595
0.00040536611
0.00044741792
0.00049828514
0.00051976187
0.00018614107
0.0001919921
0.0002043321
0.0002222006
0.00024480105
0.00027130367
0.00030095373
0.00033321082
0.00036789784
0.00040544374
0.00044747457
0.00049831588
0.00051976233
0.0001861259
0.00019198707
0.00020434686
0.00022224007
0.00024486507
0.00027138747
0.00030104936
0.00033330889
0.00036798912
0.00040552024
0.00044753014
0.0004983462
0.00051976396
0.00018612098
0.00019199173
0.00020437018
0.00022228648
0.00024493414
0.00027147437
0.00030114629
0.00033340685
0.00036807934
0.00040559528
0.00044758443
0.00049837598
0.00051976665
0.00018612542
0.00019200519
0.00020440113
0.00022233894
0.00024500741
0.00027156359
0.00030124387
0.00033350414
0.00036816809
0.00040566858
0.00044763727
0.00049840512
0.00051977029
0.00018613832
0.00019202656
0.00020443885
0.00022239659
0.00024508407
0.00027165441
0.00030134149
0.00033360031
0.00036825502
0.00040573991
0.0004476885
0.00049843353
0.00051977477
0.00018615886
0.00019205502
0.00020448252
0.00022245864
0.00024516339
0.0002717462
0.00030143862
0.00033369493
0.00036833984
0.00040580907
0.00044773801
0.00049846114
0.00051978
0.00018618624
0.00019208976
0.00020453135
0.00022252434
0.00024524469
0.00027183835
0.00030153476
0.00033378761
0.00036842227
0.00040587589
0.0004477857
0.00049848787
0.00051978589
0.00018621967
0.00019213002
0.00020458461
0.00022259301
0.00024532733
0.00027193031
0.00030162948
0.00033387804
0.00036850208
0.00040594022
0.00044783147
0.00049851355
0.00051979234
0.00018625842
0.00019217507
0.00020464158
0.00022266397
0.00024541073
0.0002720216
0.00030172237
0.00033396591
0.00036857908
0.00040600193
0.00044787522
0.00049853799
0.00051979924
0.00018630179
0.00019222421
0.0002047016
0.00022273662
0.00024549435
0.00027211175
0.00030181308
0.00033405097
0.00036865308
0.00040606091
0.0004479168
0.00049856115
0.00051980651
0.00018634909
0.00019227679
0.00020476406
0.00022281039
0.00024557769
0.00027220036
0.00030190129
0.00033413299
0.00036872394
0.00040611704
0.00044795612
0.00049858301
0.00051981405
0.00018639971
0.00019233219
0.00020482836
0.00022288475
0.00024566029
0.00027228706
0.00030198673
0.00033421178
0.00036879154
0.00040617021
0.00044799309
0.00049860365
0.00051982179
0.00018645303
0.00019238984
0.00020489397
0.00022295921
0.00024574174
0.00027237152
0.00030206916
0.00033428718
0.00036885576
0.00040622034
0.00044802774
0.00049862309
0.00051982968
0.00018650851
0.00019244918
0.00020496038
0.00022303333
0.00024582169
0.00027245347
0.00030214838
0.00033435906
0.0003689165
0.00040626736
0.00044806013
0.00049864136
0.00051983765
0.00018656562
0.00019250972
0.00020502714
0.00022310672
0.0002458998
0.00027253266
0.00030222423
0.00033442731
0.00036897368
0.00040631132
0.0004480903
0.00049865848
0.00051984565
0.00018662388
0.000192571
0.00020509384
0.00022317903
0.00024597581
0.0002726089
0.00030229659
0.00033449185
0.00036902729
0.00040635228
0.00044811831
0.00049867449
0.00051985365
0.00018668286
0.00019263261
0.00020516009
0.00022324994
0.00024604947
0.00027268203
0.00030236535
0.00033455261
0.00036907737
0.00040639031
0.00044814424
0.00049868941
0.0005198616
0.00018674215
0.00019269416
0.00020522556
0.00022331918
0.00024612059
0.00027275192
0.00030243041
0.0003346096
0.000369124
0.00040642549
0.00044816814
0.00049870329
0.00051986948
0.0001868014
0.00019275531
0.00020528996
0.00022338652
0.000246189
0.00027281844
0.00030249174
0.00033466286
0.00036916724
0.00040645791
0.0004481901
0.00049871616
0.00051987724
0.00018686026
0.00019281576
0.00020535302
0.00022345175
0.00024625454
0.0002728815
0.00030254933
0.00033471245
0.00036920719
0.00040648765
0.00044821019
0.00049872804
0.00051988487
0.00018691844
0.00019287522
0.00020541451
0.00022351468
0.00024631708
0.00027294105
0.00030260321
0.00033475844
0.00036924393
0.00040651482
0.00044822847
0.00049873897
0.00051989233
0.00018697568
0.00019293344
0.00020547421
0.00022357514
0.00024637653
0.00027299709
0.00030265342
0.0003348009
0.00036927756
0.00040653949
0.00044824501
0.00049874896
0.00051989958
0.00018703172
0.0001929902
0.00020553192
0.00022363299
0.00024643282
0.00027304961
0.0003027
0.00033483992
0.00036930817
0.00040656176
0.00044825987
0.00049875805
0.00051990662
0.00018708633
0.00019304528
0.00020558748
0.00022368815
0.00024648591
0.00027309862
0.00030274303
0.00033487558
0.00036933585
0.00040658171
0.0004482731
0.00049876625
0.0005199134
0.00018713934
0.00019309853
0.00020564077
0.00022374054
0.0002465358
0.00027314417
0.00030278257
0.00033490798
0.00036936071
0.00040659942
0.00044828478
0.00049877358
0.00051991992
0.00018719058
0.0001931498
0.00020569169
0.0002237901
0.00024658249
0.00027318631
0.00030281872
0.00033493724
0.00036938287
0.000406615
0.00044829497
0.00049878009
0.00051992614
0.00018723993
0.00019319898
0.00020574017
0.00022383682
0.00024662602
0.00027322513
0.0003028516
0.00033496348
0.00036940244
0.00040662855
0.00044830375
0.0004987858
0.00051993207
0.00018728727
0.00019324598
0.00020578616
0.00022388071
0.00024666644
0.00027326072
0.00030288133
0.00033498684
0.00036941958
0.0004066402
0.0004483112
0.00049879077
0.00051993771
0.00018733253
0.00019329076
0.00020582964
0.00022392179
0.00024670382
0.00027329321
0.00030290806
0.0003350075
0.00036943442
0.00040665008
0.00044831744
0.00049879505
0.00051994305
0.00018737566
0.00019333326
0.00020587061
0.0002239601
0.00024673826
0.0002733227
0.00030293194
0.00033502559
0.00036944713
0.00040665832
0.00044832256
0.00049879872
0.00051994811
0.00018741661
0.00019337347
0.00020590909
0.0002239957
0.00024676985
0.00027334935
0.00030295313
0.0003350413
0.00036945787
0.00040666506
0.00044832667
0.00049880182
0.00051995289
0.00018745536