/*--------------------------------*- C++ -*----------------------------------*\
| =========                 |                                                 |
| \\      /  F ield         | OpenFOAM: The Open Source CFD Toolbox           |
|  \\    /   O peration     | Version:  2506                                  |
|   \\  /    A nd           | Website:  www.openfoam.com                      |
|    \\/     M anipulation  |                                                 |
\*---------------------------------------------------------------------------*/
FoamFile
{
    version     2.0;
    format      ascii;
    arch        "LSB;label=32;scalar=64";
    class       volScalarField;
    location    "15000/water";
    object      nut;
}
// * * * * * * * * * * * * * * * * * * * * * * * * * * * * * * * * * * * * * //

dimensions      [0 2 -1 0 0 0 0];

internalField   nonuniform List<scalar> 
2600
(
4.0562043e-05
4.0561942e-05
4.0561944e-05
4.0561981e-05
4.0561942e-05
4.0561434e-05
4.0558261e-05
4.0540002e-05
4.0435343e-05
3.98338e-05
3.6541397e-05
2.4161555e-05
1.4889524e-05
3.944741e-05
3.9447468e-05
3.944759e-05
3.9447676e-05
3.9447275e-05
3.9444342e-05
3.9428907e-05
3.9352895e-05
3.8988431e-05
3.7314814e-05
3.0763187e-05
1.7536144e-05
1.684056e-05
3.852265e-05
3.852264e-05
3.8522725e-05
3.8522528e-05
3.8520597e-05
3.8510798e-05
3.8466747e-05
3.8277827e-05
3.7500368e-05
3.454641e-05
2.5814945e-05
1.4669956e-05
1.7712619e-05
3.7742032e-05
3.774193e-05
3.7741811e-05
3.7740766e-05
3.7735283e-05
3.7711707e-05
3.7617453e-05
3.7258039e-05
3.5961308e-05
3.177518e-05
2.2061889e-05
1.3531464e-05
1.7967898e-05
3.7073562e-05
3.7073366e-05
3.7072781e-05
3.7069955e-05
3.7057916e-05
3.7011651e-05
3.6843992e-05
3.6266509e-05
3.4405655e-05
2.9188861e-05
1.9425178e-05
1.3345943e-05
1.7902414e-05
3.6493786e-05
3.6493393e-05
3.6491924e-05
3.648598e-05
3.646354e-05
3.6384687e-05
3.612226e-05
3.5294625e-05
3.2873382e-05
2.6881541e-05
1.771645e-05
1.3793839e-05
1.7689846e-05
3.5985207e-05
3.5984445e-05
3.5981496e-05
3.5970726e-05
3.5933497e-05
3.5812307e-05
3.5437992e-05
3.4343601e-05
3.1395257e-05
2.4892541e-05
1.6781972e-05
1.4727875e-05
1.7427344e-05
3.5534568e-05
3.55332e-05
3.5528007e-05
3.5510417e-05
3.5453869e-05
3.5281761e-05
3.478374e-05
3.3418009e-05
2.9989903e-05
2.3242727e-05
1.6521213e-05
1.605365e-05
1.7168093e-05
3.5131649e-05
3.5129373e-05
3.5121029e-05
3.5094485e-05
3.5014364e-05
3.4784646e-05
3.4156253e-05
3.2521766e-05
2.8667649e-05
2.1957692e-05
1.6869959e-05
1.7676047e-05
1.694009e-05
3.4768438e-05
3.47649e-05
3.4752406e-05
3.4714802e-05
3.4607522e-05
3.4315777e-05
3.3554458e-05
3.16563e-05
2.7438403e-05
2.1076946e-05
1.7774701e-05
1.9481897e-05
1.6755877e-05
3.4438571e-05
3.443338e-05
3.4415717e-05
3.4365168e-05
3.4228127e-05
3.3872266e-05
3.2977968e-05
3.0820513e-05
2.6321667e-05
2.0649591e-05
1.9168673e-05
2.1348726e-05
1.6617712e-05
3.4136931e-05
3.4129689e-05
3.4105903e-05
3.4040932e-05
3.3872746e-05
3.3452766e-05
3.2426062e-05
3.0012536e-05
2.5355877e-05
2.071981e-05
2.0958176e-05
2.3166793e-05
1.6521078e-05
3.3859367e-05
3.3849701e-05
3.3819003e-05
3.3738723e-05
3.3539365e-05
3.3056856e-05
3.1897087e-05
2.923354e-05
2.4602258e-05
2.1309036e-05
2.3024753e-05
2.4858007e-05
1.6457822e-05
3.3602495e-05
3.3590098e-05
3.355197e-05
3.3456247e-05
3.3227088e-05
3.2684517e-05
3.1388405e-05
2.8493549e-05
2.4138758e-05
2.2402736e-05
2.5241355e-05
2.6381456e-05
1.6418929e-05
3.3363555e-05
3.334823e-05
3.3302533e-05
3.3192135e-05
3.2935885e-05
3.2335692e-05
3.0897111e-05
2.781812e-05
2.4044359e-05
2.3946908e-05
2.7493336e-05
2.7726694e-05
1.6396422e-05
3.3140311e-05
3.3122024e-05
3.3069114e-05
3.2945826e-05
3.2666358e-05
3.2009929e-05
3.0421904e-05
2.725306e-05
2.4379894e-05
2.5855076e-05
2.9693859e-05
2.8902281e-05
1.6384202e-05
3.2930983e-05
3.2909915e-05
3.2850758e-05
3.2717477e-05
3.2419519e-05
3.1706209e-05
2.9966344e-05
2.6863466e-05
2.5173338e-05
2.8023002e-05
3.178848e-05
2.9925861e-05
1.6378087e-05
3.27342e-05
3.2710811e-05
3.2647097e-05
3.2507877e-05
3.2196559e-05
3.1423099e-05
2.9543333e-05
2.6725087e-05
2.6414163e-05
3.0346e-05
3.3750498e-05
3.0817911e-05
1.6375449e-05
3.254898e-05
3.2524066e-05
3.2458325e-05
3.2318371e-05
3.1998618e-05
3.1159478e-05
2.9179671e-05
2.6909994e-05
2.8056818e-05
3.2733296e-05
3.5572231e-05
3.159849e-05
1.6374764e-05
3.2374714e-05
3.234948e-05
3.2285189e-05
3.2150777e-05
3.1826587e-05
3.0916121e-05
2.8918573e-05
2.7471838e-05
3.0030662e-05
3.5115833e-05
3.7256818e-05
3.2285747e-05
1.6375224e-05
3.2211173e-05
3.2187303e-05
3.2128983e-05
3.2007273e-05
3.1681012e-05
3.0698307e-05
2.881777e-05
2.8435847e-05
3.2252926e-05
3.7447132e-05
3.8812576e-05
3.2895331e-05
1.6376448e-05
3.2058522e-05
3.2038256e-05
3.199155e-05
3.1890271e-05
3.1562235e-05
3.0519239e-05
2.8942302e-05
2.9795898e-05
3.4641248e-05
3.9699498e-05
4.0249838e-05
3.3440303e-05
1.6378293e-05
3.1917349e-05
3.1903563e-05
3.1875268e-05
3.1802263e-05
3.147098e-05
3.0403413e-05
2.935363e-05
3.151804e-05
3.7123065e-05
4.1858567e-05
4.157938e-05
3.3931333e-05
1.6380731e-05
3.1788707e-05
3.1784988e-05
3.1783034e-05
3.1745668e-05
3.1409597e-05
3.0388388e-05
3.009864e-05
3.3548311e-05
3.9640504e-05
4.3918429e-05
4.281164e-05
3.4377031e-05
1.638378e-05
3.167417e-05
3.1684885e-05
3.1718216e-05
3.1722747e-05
3.1384108e-05
3.0523333e-05
3.1201975e-05
3.5822342e-05
4.215108e-05
4.5878176e-05
4.3956335e-05
3.4784314e-05
1.6387467e-05
3.1575896e-05
3.160624e-05
3.1684577e-05
3.1735683e-05
3.140692e-05
3.0863673e-05
3.2663379e-05
3.8274458e-05
4.4625625e-05
4.7739785e-05
4.5022274e-05
3.515874e-05
1.6391813e-05
3.1496715e-05
3.155272e-05
3.1686172e-05
3.1786999e-05
3.1499548e-05
3.1462868e-05
3.4459811e-05
4.0844582e-05
4.7045147e-05
4.9506883e-05
4.6017316e-05
3.5504794e-05
1.6396824e-05
3.1440215e-05
3.1528704e-05
3.1727218e-05
3.1880506e-05
3.1694232e-05
3.2363745e-05
3.6550943e-05
4.3482185e-05
4.939784e-05
5.1183995e-05
4.6948402e-05
3.5826124e-05
1.6402494e-05
3.141085e-05
3.1539289e-05
3.1812007e-05
3.2022928e-05
3.2033147e-05
3.3591896e-05
3.8886229e-05
4.6147426e-05
5.1676786e-05
5.2776062e-05
4.782164e-05
3.6125718e-05
1.6408802e-05
3.1414042e-05
3.1590275e-05
3.1944928e-05
3.2226121e-05
3.2564564e-05
3.5152685e-05
4.1411886e-05
4.8810348e-05
5.3878383e-05
5.4288121e-05
4.8642392e-05
3.6406047e-05
1.6415722e-05
3.1456281e-05
3.1688095e-05
3.2130757e-05
3.2509433e-05
3.3336482e-05
3.7032009e-05
4.4076505e-05
5.1449129e-05
5.6001294e-05
5.5725113e-05
4.9415387e-05
3.6669253e-05
1.642322e-05
3.1545208e-05
3.183974e-05
3.2375386e-05
3.2901322e-05
3.4389412e-05
3.9199975e-05
4.6834632e-05
5.4048186e-05
5.8045688e-05
5.7091636e-05
5.0144338e-05
3.6914943e-05
1.6431248e-05
3.1689662e-05
3.2052668e-05
3.2687145e-05
3.3439134e-05
3.5750339e-05
4.1616208e-05
4.9648331e-05
5.6596556e-05
6.001274e-05
5.839201e-05
5.0832726e-05
3.7144922e-05
1.6439749e-05
3.1899683e-05
3.2334823e-05
3.3078703e-05
3.4166338e-05
3.7429301e-05
4.4235459e-05
5.2487191e-05
5.9086681e-05
6.1904242e-05
5.9630091e-05
5.1482695e-05
3.7361243e-05
1.6448668e-05
3.2186465e-05
3.2694872e-05
3.3569195e-05
3.5127409e-05
3.9419064e-05
4.7012428e-05
5.5327448e-05
6.1513507e-05
6.3722342e-05
6.0809394e-05
5.2096451e-05
3.7565313e-05
1.6457958e-05
3.2562281e-05
3.3142861e-05
3.4185831e-05
3.636155e-05
4.1697459e-05
4.9905188e-05
5.8150807e-05
6.3873834e-05
6.5469391e-05
6.1933118e-05
5.26774e-05
3.7758158e-05
1.6467586e-05
3.3040474e-05
3.369144e-05
3.4963994e-05
3.7896948e-05
4.4231433e-05
5.287705e-05
6.0943284e-05
6.6165778e-05
6.7147567e-05
6.3002906e-05
5.3228279e-05
3.7940824e-05
1.6477531e-05
3.3635638e-05
3.4357649e-05
3.5945068e-05
3.9746996e-05
4.6981725e-05
5.5897122e-05
6.3694251e-05
6.8388432e-05
6.8759336e-05
6.4022596e-05
5.3751054e-05
3.8114079e-05
1.6487766e-05
3.4364225e-05
3.5164903e-05
3.7171981e-05
4.1909161e-05
4.9907183e-05
5.8940029e-05
6.6395668e-05
7.054137e-05
7.030566e-05
6.499539e-05
5.4247641e-05
3.8278685e-05
1.6498266e-05
3.5245723e-05
3.6144418e-05
3.8683398e-05
4.436637e-05
5.2968083e-05
6.1985175e-05
6.9041454e-05
7.2624753e-05
7.1789411e-05
6.5923874e-05
5.4719661e-05
3.8435269e-05
1.6509004e-05
3.6304395e-05
3.7335021e-05
4.0508079e-05
4.7090207e-05
5.6128214e-05
6.501595e-05
7.1626959e-05
7.4638172e-05
7.3213269e-05
6.681036e-05
5.5168631e-05
3.858437e-05
1.6519954e-05
3.7571053e-05
3.8780605e-05
4.2660847e-05
5.0044955e-05
5.9355787e-05
6.8018905e-05
7.4148656e-05
7.6582495e-05
7.4579723e-05
6.7656904e-05
5.5595893e-05
3.8726451e-05
1.653109e-05
3.9083862e-05
4.0525227e-05
4.5140986e-05
5.319159e-05
6.2623579e-05
7.0983112e-05
7.6603216e-05
7.8458842e-05
7.5890913e-05
6.8465408e-05
5.6002633e-05
3.8861905e-05
1.6542386e-05
4.0886913e-05
4.2606867e-05
4.7933104e-05
5.6490995e-05
6.5908454e-05
7.3899534e-05
7.8988651e-05
8.026874e-05
7.7148739e-05
6.9237569e-05
5.6389888e-05
3.8991066e-05
1.6553816e-05
4.3025773e-05
4.5051427e-05
5.1009884e-05
5.990622e-05
6.9190872e-05
7.6760142e-05
8.1303267e-05
8.2013422e-05
7.8354967e-05
6.9974899e-05
5.6758561e-05
3.911421e-05
1.6565353e-05
4.5540351e-05
4.786846e-05
5.4335754e-05
6.3403517e-05
7.2453909e-05
7.9558413e-05
8.3546728e-05
8.3693978e-05
7.951114e-05
7.0678714e-05
5.7109426e-05
3.9231566e-05
1.6576974e-05
4.8456706e-05
5.1049445e-05
5.7870623e-05
6.695275e-05
7.5682781e-05
8.228886e-05
8.5718424e-05
8.5311367e-05
8.0618597e-05
7.1350139e-05
5.7443133e-05
3.9343315e-05
1.6588653e-05
5.1780101e-05
5.4568617e-05
6.1572929e-05
7.0526859e-05
7.8863935e-05
8.4947809e-05
8.781776e-05
8.6866345e-05
8.1678449e-05
7.1990114e-05
5.7760216e-05
3.9449593e-05
1.6600366e-05
5.5491332e-05
5.8385611e-05
6.5401373e-05
7.4100907e-05
8.1987171e-05
8.7531651e-05
8.9844034e-05
8.8359435e-05
8.2691568e-05
7.2599392e-05
5.8061096e-05
3.9550499e-05
1.6612087e-05
5.9547176e-05
6.2448873e-05
6.9315538e-05
7.7653758e-05
8.504363e-05
9.0036928e-05
9.1796364e-05
8.9790894e-05
8.3658581e-05
7.3178537e-05
5.8346082e-05
3.9646086e-05
1.662379e-05
6.3884405e-05
6.6699735e-05
7.3278161e-05
8.1167546e-05
8.8025154e-05
9.2460212e-05
9.3673642e-05
9.1160695e-05
8.4579858e-05
7.3727929e-05
5.8615377e-05
3.973637e-05
1.663545e-05
6.8427254e-05
7.1077009e-05
7.7255135e-05
8.4626002e-05
9.0924115e-05
9.4798042e-05
9.5474504e-05
9.2468517e-05
8.5455513e-05
7.4247757e-05
5.8869073e-05
3.9821326e-05
1.664704e-05
7.3095435e-05
7.5520202e-05
8.1214659e-05
8.8014158e-05
9.3733303e-05
9.7046899e-05
9.7197337e-05
9.3713747e-05
8.6285407e-05
7.4738033e-05
5.9107159e-05
3.9900893e-05
1.665853e-05
7.7811163e-05
7.9972218e-05
8.51272e-05
9.1318139e-05
9.6445881e-05
9.9203232e-05
9.884031e-05
9.4895512e-05
8.7069167e-05
7.5198595e-05
5.9329526e-05
3.997497e-05
1.6669891e-05
8.250423e-05
8.4381364e-05
8.8965594e-05
9.4525082e-05
9.9055402e-05
0.00010126352
0.00010040144
9.6012725e-05
8.7806219e-05
7.5629126e-05
5.9535973e-05
4.0043424e-05
1.6681088e-05
8.7114884e-05
8.8702638e-05
9.2705272e-05
9.7623149e-05
0.00010155587
0.00010322438
0.0001018787
9.7064154e-05
8.8495827e-05
7.6029185e-05
5.9726224e-05
4.0106096e-05
1.6692087e-05
9.1594828e-05
9.2898377e-05
9.6324545e-05
0.00010060163
0.00010394182
0.00010508268
0.0001032701
9.804851e-05
8.9137161e-05
7.6398241e-05
5.9899946e-05
4.0162802e-05
1.6702851e-05
9.5906881e-05
9.6938324e-05
9.9804849e-05
0.00010345106
0.00010620845
0.00010683565
0.00010457383
9.8964552e-05
8.9729369e-05
7.6735722e-05
6.0056778e-05
4.0213354e-05
1.671334e-05
0.00010002385
0.00010079926
0.0001031309
0.00010616341
0.00010835175
0.00010848101
0.0001057884
9.9811192e-05
9.0271654e-05
7.7041067e-05
6.0196356e-05
4.0257561e-05
1.6723514e-05
0.00010392707
0.00010446436
0.00010629072
0.00010873214
0.00011036855
0.00011001711
0.0001069127
0.0001005876
9.0763362e-05
7.7313787e-05
6.0318354e-05
4.0295253e-05
1.6733331e-05
0.00010760487
0.00010792238
0.00010927556
0.00011115235
0.00011225665
0.00011144296
0.00010794616
0.00010129328
9.1204059e-05
7.755352e-05
6.0422512e-05
4.0326291e-05
1.674275e-05
0.00011105121
0.00011116678
0.00011207962
0.00011342075
0.00011401481
0.0001127583
0.00010888875
0.00010192818
9.1593597e-05
7.7760084e-05
6.0508676e-05
4.0350582e-05
1.6751731e-05
0.0001142644
0.00011419493
0.00011469987
0.00011553562
0.00011564284
0.00011396362
0.00010974106
0.00010249269
9.1932171e-05
7.7933526e-05
6.0576824e-05
4.0368093e-05
1.6760238e-05
0.00011724617
0.00011700736
0.00011713563
0.00011749676
0.00011714147
0.00011506016
0.00011050427
0.00010298773
9.2220351e-05
7.807415e-05
6.0627088e-05
4.0378862e-05
1.6768237e-05
0.00012000078
0.00011960706
0.00011938828
0.00011930534
0.00011851239
0.00011604987
0.00011118021
0.0001034147
9.24591e-05
7.818254e-05
6.0659773e-05
4.0383001e-05
1.6775699e-05
0.00012253441
0.00012199898
0.00012146091
0.00012096376
0.00011975814
0.00011693538
0.00011177122
0.00010377549
9.264977e-05
7.8259562e-05
6.067536e-05
4.0380705e-05
1.6782601e-05
0.00012485463
0.00012418952
0.00012335801
0.00012247548
0.00012088202
0.00011771988
0.00011228018
0.00010407244
9.2794086e-05
7.8306363e-05
6.0674507e-05
4.0372246e-05
1.6788927e-05
0.00012697003
0.00012618619
0.00012508516
0.00012384488
0.00012188797
0.00011840711
0.00011271044
0.00010430829
9.289411e-05
7.8324346e-05
6.0658036e-05
4.035797e-05
1.6794666e-05
0.00012888985
0.00012799727
0.00012664884
0.00012507707
0.00012278051
0.00011900122
0.00011306569
0.00010448611
9.2952201e-05
7.8315144e-05
6.0626915e-05
4.0338286e-05
1.6799815e-05
0.0001306238
0.00012963158
0.00012805615
0.00012617774
0.0001235646
0.00011950675
0.00011334995
0.00010460927
9.2970963e-05
7.8280585e-05
6.0582243e-05
4.0313662e-05
1.6804379e-05
0.00013218182
0.00013109829
0.00012931465
0.00012715305
0.00012424557
0.00011992847
0.00011356746
0.00010468134
9.2953197e-05
7.8222653e-05
6.0525215e-05
4.0284603e-05
1.6808365e-05
0.00013357395
0.00013240674
0.00013043222
0.00012800946
0.00012482899
0.00012027137
0.00011372264
0.00010470605
9.2901841e-05
7.8143443e-05
6.0457099e-05
4.0251647e-05
1.681179e-05
0.0001348102
0.00013356632
0.00013141689
0.00012875365
0.00012532061
0.00012054055
0.00011381998
0.00010468723
9.2819921e-05
7.8045127e-05
6.0379212e-05
4.0215347e-05
1.6814675e-05
0.00013590048
0.00013458637
0.00013227676
0.00012939242
0.00012572626
0.00012074118
0.00011386404
0.00010462872
9.2710503e-05
7.7929905e-05
6.0292885e-05
4.017626e-05
1.6817043e-05
0.00013685452
0.00013547608
0.00013301991
0.0001299326
0.00012605181
0.00012087842
0.00011385935
0.00010453438
9.2576645e-05
7.7799978e-05
6.0199447e-05
4.0134934e-05
1.6818923e-05
0.00013768178
0.00013624448
0.0001336543
0.00013038096
0.0001263031
0.00012095738
0.00011381039
0.00010440798
9.2421363e-05
7.7657509e-05
6.0100197e-05
4.0091902e-05
1.6820346e-05
0.00013839144
0.00013690031
0.00013418772
0.0001307442
0.00012648587
0.0001209831
0.00011372153
0.00010425324
9.2247592e-05
7.7504601e-05
5.9996388e-05
4.0047668e-05
1.6821345e-05
0.00013899237
0.00013745205
0.00013462779
0.00013102886
0.00012660576
0.00012096046
0.00011359701
0.00010407373
9.2058163e-05
7.7343267e-05
5.9889212e-05
4.0002707e-05
1.6821952e-05
0.00013949308
0.00013790786
0.00013498184
0.00013124129
0.00012666822
0.00012089421
0.00011344095
0.00010387287
9.1855777e-05
7.7175419e-05
5.9779787e-05
3.9957457e-05
1.6822202e-05
0.00013990171
0.00013827555
0.00013525695
0.00013138763
0.00012667854
0.0001207889
0.00011325724
0.00010365394
9.1642987e-05
7.7002849e-05
5.9669148e-05
3.9912313e-05
1.682213e-05
0.00014022602
0.00013856259
0.00013545988
0.00013147379
0.00012664179
0.00012064891
0.00011304963
0.00010342001
9.142219e-05
7.6827221e-05
5.9558244e-05
3.9867633e-05
1.6821769e-05
0.0001404734
0.00013877607
0.00013559712
0.00013150541
0.00012656283
0.0001204784
0.00011282163
0.00010317399
9.1195613e-05
7.6650062e-05
5.944793e-05
3.9823727e-05
1.6821151e-05
0.00014065084
0.00013892274
0.0001356748
0.00013148788
0.00012644627
0.00012028129
0.00011257657
0.00010291857
9.0965312e-05
7.6472764e-05
5.9338969e-05
3.9780869e-05
1.6820308e-05
0.00014076493
0.00013900895
0.00013569876
0.00013142628
0.00012629648
0.00012006131
0.00011231756
0.00010265626
9.0733167e-05
7.6296578e-05
5.9232034e-05
3.9739288e-05
1.681927e-05
0.0001408219
0.00013904071
0.00013567448
0.00013132547
0.00012611761
0.00011982194
0.00011204747
0.00010238937
9.0500885e-05
7.6122619e-05
5.9127706e-05
3.9699175e-05
1.6818064e-05
0.0001408276
0.00013902366
0.00013560716
0.00013118997
0.00012591353
0.00011956645
0.000111769
0.00010211999
9.0269997e-05
7.5951853e-05
5.9026436e-05
3.9660473e-05
1.6816717e-05
0.00014078751
0.0001389631
0.00013550166
0.00013102408
0.00012568788
0.00011929788
0.0001114846
0.00010185004
9.0041861e-05
7.5785109e-05
5.8928579e-05
3.9623133e-05
1.6815249e-05
0.00014070674
0.00013886398
0.00013536253
0.00013083177
0.00012544407
0.00011901903
0.00011119653
0.00010158122
8.9817651e-05
7.5623023e-05
5.883416e-05
3.9587447e-05
1.681368e-05
0.00014059009
0.00013873092
0.00013519402
0.0001306168
0.00012518525
0.0001187325
0.00011090685
0.00010131508
8.9598394e-05
7.5466181e-05
5.8743519e-05
3.955354e-05
1.6812029e-05
0.00014044201
0.00013856822
0.0001350001
0.00013038263
0.00012491435
0.00011844067
0.0001106174
0.00010105293
8.9384885e-05
7.5314705e-05
5.8657092e-05
3.9521504e-05
1.6810316e-05
0.00014026662
0.00013837987
0.00013478444
0.00013013249
0.00012463406
0.00011814571
0.00011032984
0.00010079592
8.9177753e-05
7.5169293e-05
5.8575024e-05
3.949139e-05
1.6808562e-05
0.00014006776
0.0001381696
0.00013455045
0.00012986934
0.00012434687
0.00011784957
0.00011004562
0.00010054504
8.8977542e-05
7.5030404e-05
5.8497441e-05
3.9463231e-05
1.6806782e-05
0.00013984897
0.00013794081
0.00013430128
0.00012959594
0.00012405504
0.00011755403
0.00010976598
0.00010030091
8.8785051e-05
7.4898285e-05
5.8424423e-05
3.9437036e-05
1.6804993e-05
0.00013961351
0.00013769666
0.00013403983
0.00012931479
0.00012376061
0.00011726062
0.00010949195
0.00010006451
8.8600743e-05
7.4773109e-05
5.8356005e-05
3.9412796e-05
1.6803207e-05
0.00013936441
0.00013744007
0.00013376876
0.00012902819
0.00012346542
0.0001169707
0.00010922452
9.9836602e-05
8.842496e-05
7.4654991e-05
5.8292183e-05
3.9390484e-05
1.6801436e-05
0.00013910441
0.00013717368
0.00013349049
0.00012873819
0.00012317108
0.00011668541
0.00010896478
9.9617744e-05
8.8257955e-05
7.4543983e-05
5.823292e-05
3.9370059e-05
1.6799691e-05
0.00013883603
0.00013689993
0.00013320721
0.00012844661
0.00012287899
0.00011640608
0.00010871351
9.9408369e-05
8.8099894e-05
7.4440087e-05
5.8178148e-05
3.9351466e-05
1.679798e-05
0.00013856155
0.00013662098
0.00013292084
0.0001281551
0.00012259067
0.00011613376
0.00010847138
9.920881e-05
8.7950871e-05
7.4343254e-05
5.8127774e-05
3.9334645e-05
1.6796312e-05
0.00013828301
0.00013633877
0.00013263321
0.00012786532
0.00012230741
0.00011586934
0.00010823892
9.9019306e-05
8.7810912e-05
7.4253391e-05
5.808168e-05
3.9319526e-05
1.6794691e-05
0.00013800225
0.00013605514
0.00013234602
0.00012757874
0.00012203033
0.0001156136
0.00010801656
9.8840012e-05
8.7679983e-05
7.4170371e-05
5.8039733e-05
3.9306033e-05
1.6793124e-05
0.00013772102
0.00013577177
0.00013206083
0.00012729664
0.00012176041
0.00011536716
0.00010780463
9.8671006e-05
8.7557996e-05
7.4094032e-05
5.8001785e-05
3.9294089e-05
1.6791614e-05
0.00013744087
0.00013549019
0.00013177902
0.00012702019
0.00012149849
0.00011513056
0.00010760336
9.8512295e-05
8.7444818e-05
7.4024187e-05
5.7967674e-05
3.9283612e-05
1.6790165e-05
0.00013716325
0.00013521177
0.00013150183
0.00012675038
0.0001212453
0.00011490421
0.00010741289
9.8363827e-05
8.7340272e-05
7.3960625e-05
5.7937231e-05
3.9274519e-05
1.678878e-05
0.00013688943
0.00013493774
0.00013123035
0.00012648809
0.00012100142
0.00011468843
0.00010723332
9.822549e-05
8.7244146e-05
7.3903116e-05
5.791028e-05
3.9266728e-05
1.6787461e-05
0.00013662055
0.0001346692
0.00013096555
0.00012623407
0.00012076736
0.00011448344
0.00010706463
9.8097126e-05
8.7156198e-05
7.3851415e-05
5.7886639e-05
3.9260156e-05
1.6786209e-05
0.00013635763
0.00013440711
0.00013070825
0.00012598896
0.00012054351
0.00011428941
0.00010690676
9.7978532e-05
8.7076159e-05
7.3805266e-05
5.7866125e-05
3.925472e-05
1.6785025e-05
0.00013610155
0.00013415229
0.00013045918
0.00012575329
0.00012033017
0.0001141064
0.00010675961
9.7869465e-05
8.700374e-05
7.3764403e-05
5.7848553e-05
3.925034e-05
1.6783908e-05
0.00013585307
0.00013390547
0.00013021892
0.00012552747
0.00012012754
0.00011393441
0.00010662301
9.7769651e-05
8.6938632e-05
7.3728554e-05
5.7833738e-05
3.9246937e-05
1.678286e-05
0.00013561284
0.00013366724
0.00012998799
0.00012531184
0.00011993577
0.00011377339
0.00010649673
9.7678787e-05
8.6880512e-05
7.3697444e-05
5.7821499e-05
3.9244433e-05
1.6781878e-05
0.00013538142
0.00013343813
0.00012976679
0.00012510666
0.00011975492
0.00011362321
0.00010638053
9.7596546e-05
8.6829049e-05
7.3670795e-05
5.7811655e-05
3.9242755e-05
1.6780964e-05
0.00013515924
0.00013321853
0.00012955562
0.00012491208
0.00011958498
0.00011348372
0.00010627412
9.7522584e-05
8.6783903e-05
7.3648332e-05
5.7804029e-05
3.9241831e-05
1.6780114e-05
0.00013494667
0.00013300877
0.00012935473
0.0001247282
0.00011942588
0.0001133547
0.00010617718
9.7456537e-05
8.6744731e-05
7.3629781e-05
5.7798451e-05
3.9241592e-05
1.6779328e-05
0.00013474398
0.00013280908
0.00012916426
0.00012455506
0.00011927751
0.0001132359
0.00010608939
9.7398036e-05
8.6711186e-05
7.3614871e-05
5.7794752e-05
3.9241972e-05
1.6778605e-05
0.00013455137
0.00013261964
0.00012898431
0.0001243926
0.00011913971
0.00011312703
0.00010601037
9.7346699e-05
8.6682924e-05
7.3603339e-05
5.7792772e-05
3.9242907e-05
1.6777941e-05
0.00013436897
0.00013244054
0.00012881489
0.00012424077
0.00011901226
0.00011302779
0.00010593975
9.7302142e-05
8.6659603e-05
7.3594925e-05
5.7792355e-05
3.924434e-05
1.6777335e-05
0.00013419684
0.00013227181
0.00012865597
0.0001240994
0.00011889492
0.00011293784
0.00010587714
9.7263978e-05
8.6640887e-05
7.3589379e-05
5.7793354e-05
3.9246212e-05
1.6776786e-05
0.00013403499
0.00013211343
0.00012850748
0.00012396834
0.00011878741
0.00011285682
0.00010582216
9.7231823e-05
8.6626445e-05
7.3586459e-05
5.7795626e-05
3.9248472e-05
1.677629e-05
0.00013388336
0.00013196533
0.00012836926
0.00012384736
0.00011868942
0.00011278435
0.00010577439
9.7205293e-05
8.6615955e-05
7.3585931e-05
5.7799036e-05
3.9251068e-05
1.6775846e-05
0.00013374187
0.00013182739
0.00012824116
0.00012373621
0.00011860064
0.00011272006
0.00010573343
9.718401e-05
8.6609102e-05
7.358757e-05
5.7803455e-05
3.9253953e-05
1.6775451e-05
0.00013361037
0.00013169944
0.00012812295
0.0001236346
0.0001185207
0.00011266356
0.00010569889
9.7167604e-05
8.6605583e-05
7.3591162e-05
5.7808764e-05
3.9257085e-05
1.6775102e-05
0.00013348867
0.00013158129
0.0001280144
0.00012354225
0.00011844925
0.00011261443
0.00010567036
9.7155713e-05
8.6605105e-05
7.3596502e-05
5.7814849e-05
3.9260422e-05
1.6774798e-05
0.00013337656
0.00013147269
0.00012791522
0.00012345881
0.0001183859
0.00011257227
0.00010564745
9.7147983e-05
8.6607386e-05
7.3603398e-05
5.7821602e-05
3.9263927e-05
1.6774535e-05
0.0001332738
0.00013137339
0.00012782512
0.00012338393
0.00011833028
0.00011253669
0.00010562976
9.7144071e-05
8.6612158e-05
7.3611665e-05
5.7828923e-05
3.9267565e-05
1.6774312e-05
0.00013318009
0.00013128308
0.00012774377
0.00012331727
0.00011828197
0.00011250727
0.00010561692
9.7143646e-05
8.6619162e-05
7.362113e-05
5.7836719e-05
3.9271303e-05
1.6774126e-05
0.00013309514
0.00013120146
0.00012767083
0.00012325842
0.00011824059
0.00011248361
0.00010560854
9.7146386e-05
8.662815e-05
7.3631628e-05
5.7844904e-05
3.9275112e-05
1.6773974e-05
0.00013301862
0.00013112818
0.00012760593
0.00012320702
0.00011820573
0.00011246532
0.00010560426
9.7151981e-05
8.6638888e-05
7.3643004e-05
5.7853394e-05
3.9278963e-05
1.6773855e-05
0.00013295018
0.00013106288
0.00012754869
0.00012316265
0.00011817697
0.00011245199
0.00010560371
9.7160131e-05
8.6651149e-05
7.365511e-05
5.7862112e-05
3.9282832e-05
1.6773766e-05
0.00013288947
0.0001310052
0.00012749874
0.00012312492
0.00011815392
0.00011244323
0.00010560656
9.7170547e-05
8.6664719e-05
7.3667808e-05
5.7870988e-05
3.9286694e-05
1.6773704e-05
0.00013283609
0.00013095475
0.00012745567
0.00012309342
0.00011813616
0.00011243867
0.00010561246
9.7182954e-05
8.6679394e-05
7.3680968e-05
5.7879954e-05
3.9290528e-05
1.6773668e-05
0.00013278969
0.00013091115
0.00012741909
0.00012306774
0.0001181233
0.00011243793
0.00010562108
9.719709e-05
8.6694984e-05
7.3694468e-05
5.7888949e-05
3.9294313e-05
1.6773655e-05
0.00013274987
0.00013087401
0.00012738861
0.0001230475
0.00011811495
0.00011244066
0.00010563213
9.7212708e-05
8.6711308e-05
7.3708196e-05
5.7897917e-05
3.9298032e-05
1.6773663e-05
0.00013271625
0.00013084294
0.00012736382
0.00012303229
0.00011811074
0.00011244651
0.0001056453
9.7229576e-05
8.6728204e-05
7.372205e-05
5.7906808e-05
3.9301669e-05
1.6773689e-05
0.00013268845
0.00013081757
0.00012734435
0.00012302174
0.00011811031
0.00011245516
0.00010566032
9.7247481e-05
8.674552e-05
7.3735942e-05
5.791558e-05
3.9305212e-05
1.6773733e-05
0.00013266611
0.00013079751
0.00012732983
0.00012301548
0.00011811331
0.0001124663
0.00010567694
9.7266229e-05
8.6763124e-05
7.3749789e-05
5.7924196e-05
3.930865e-05
1.6773792e-05
0.00013264887
0.00013078242
0.00012731989
0.00012301317
0.00011811942
0.00011247965
0.00010569492
9.728564e-05
8.6780892e-05
7.3763524e-05
5.7932624e-05
3.9311976e-05
1.6773864e-05
0.00013263636
0.00013077192
0.00012731417
0.00012301446
0.00011812832
0.00011249493
0.00010571404
9.7305551e-05
8.6798718e-05
7.3777084e-05
5.794084e-05
3.9315183e-05
1.6773948e-05
0.00013262823
0.00013076566
0.00012731234
0.00012301902
0.00011813973
0.00011251189
0.0001057341
9.732581e-05
8.6816501e-05
7.3790416e-05
5.7948819e-05
3.9318266e-05
1.6774043e-05
0.00013262415
0.00013076332
0.00012731406
0.00012302654
0.00011815334
0.00011253029
0.0001057549
9.734628e-05
8.6834152e-05
7.3803469e-05
5.795654e-05
3.9321203e-05
1.6774146e-05
0.00013262376
0.00013076454
0.00012731899
0.00012303671
0.00011816889
0.0001125499
0.00010577627
9.7366828e-05
8.6851586e-05
7.3816195e-05
5.7963979e-05
3.9323979e-05
1.6774257e-05
0.00013262674
0.000130769
0.00012732683
0.00012304922
0.00011818611
0.00011257048
0.00010579803
9.7387332e-05
8.6868724e-05
7.3828549e-05
5.7971098e-05
3.9326605e-05
1.6774374e-05
0.00013263276
0.00013077637
0.00012733724
0.0001230638
0.00011820475
0.00011259185
0.00010582001
9.7407675e-05
8.688549e-05
7.3840488e-05
5.7977885e-05
3.9329081e-05
1.6774496e-05
0.00013264149
0.00013078633
0.00012734994
0.00012308015
0.00011822456
0.00011261378
0.00010584207
9.742775e-05
8.6901813e-05
7.3851955e-05
5.7984342e-05
3.933141e-05
1.6774621e-05
0.00013265263
0.00013079858
0.00012736463
0.00012309802
0.00011824531
0.00011263611
0.00010586407
9.7447459e-05
8.6917633e-05
7.3862933e-05
5.7990461e-05
3.9333592e-05
1.6774748e-05
0.00013266588
0.00013081284
0.00012738103
0.00012311716
0.0001182668
0.00011265865
0.00010588587
9.746671e-05
8.6932877e-05
7.3873414e-05
5.799624e-05
3.933563e-05
1.6774877e-05
0.00013268097
0.00013082881
0.00012739889
0.00012313732
0.00011828882
0.00011268125
0.00010590736
9.7485421e-05
8.6947524e-05
7.3883382e-05
5.8001675e-05
3.9337525e-05
1.6775006e-05
0.00013269762
0.00013084626
0.00012741796
0.0001231583
0.00011831119
0.00011270377
0.00010592845
9.7503527e-05
8.6961555e-05
7.3892828e-05
5.8006768e-05
3.9339282e-05
1.6775136e-05
0.00013271561
0.00013086495
0.00012743802
0.0001231799
0.00011833375
0.00011272609
0.00010594902
9.7520997e-05
8.6974949e-05
7.390175e-05
5.8011526e-05
3.9340904e-05
1.6775264e-05
0.00013273471
0.00013088464
0.00012745886
0.00012320194
0.00011835636
0.00011274808
0.00010596903
9.7537796e-05
8.6987691e-05
7.3910148e-05
5.8015955e-05
3.9342397e-05
1.6775391e-05
0.0001327547
0.00013090514
0.0001274803
0.00012322424
0.00011837886
0.00011276966
0.00010598842
9.7553896e-05
8.6999775e-05
7.3918029e-05
5.8020064e-05
3.9343767e-05
1.6775516e-05
0.00013277538
0.00013092626
0.00012750214
0.00012324665
0.00011840114
0.00011279074
0.00010600714
9.7569274e-05
8.7011198e-05
7.3925399e-05
5.8023863e-05
3.9345018e-05
1.6775639e-05
0.00013279658
0.0001309478
0.00012752422
0.00012326902
0.00011842309
0.00011281126
0.00010602516
9.7583912e-05
8.7021958e-05
7.3932268e-05
5.8027361e-05
3.9346155e-05
1.6775759e-05
0.0001328181
0.00013096959
0.00012754638
0.00012329123
0.00011844462
0.00011283114
0.00010604243
9.7597793e-05
8.7032054e-05
7.3938641e-05
5.8030567e-05
3.9347184e-05
1.6775876e-05
0.00013283979
0.00013099149
0.00012756848
0.00012331317
0.00011846565
0.00011285034
0.00010605891
9.7610903e-05
8.7041488e-05
7.3944527e-05
5.8033488e-05
3.9348106e-05
1.677599e-05
0.0001328615
0.00013101334
0.0001275904
0.00012333472
0.00011848609
0.0001128688
0.00010607458
9.7623233e-05
8.705026e-05
7.3949932e-05
5.8036131e-05
3.9348927e-05
1.67761e-05
0.0001328831
0.00013103502
0.00012761203
0.00012335579
0.00011850587
0.00011288646
0.00010608942
9.7634778e-05
8.7058375e-05
7.3954865e-05
5.8038502e-05
3.9349648e-05
1.6776205e-05
0.00013290448
0.00013105643
0.00012763326
0.00012337631
0.00011852494
0.00011290331
0.00010610342
9.7645539e-05
8.7065844e-05
7.3959337e-05
5.804061e-05
3.9350273e-05
1.6776306e-05
0.00013292554
0.00013107748
0.00012765402
0.00012339622
0.00011854326
0.00011291932
0.00010611657
9.7655526e-05
8.7072682e-05
7.3963363e-05
5.8042467e-05
3.9350808e-05
1.6776402e-05
0.0001329462
0.00013109808
0.00012767424
0.00012341546
0.0001185608
0.00011293449
0.00010612888
9.7664758e-05
8.707891e-05
7.3966964e-05
5.8044085e-05
3.9351257e-05
1.6776494e-05
0.00013296639
0.00013111817
0.00012769387
0.000123434
0.00011857754
0.00011294881
0.00010614037
9.7673262e-05
8.7084559e-05
7.3970164e-05
5.8045482e-05
3.9351627e-05
1.677658e-05
0.00013298607
0.00013113771
0.00012771287
0.00012345182
0.00011859349
0.00011296231
0.00010615106
9.7681071e-05
8.708966e-05
7.3972991e-05
5.8046675e-05
3.9351926e-05
1.6776661e-05
0.00013300517
0.00013115665
0.0001277312
0.0001234689
0.00011860863
0.000112975
0.000106161
9.7688221e-05
8.7094249e-05
7.3975473e-05
5.8047682e-05
3.9352161e-05
1.6776737e-05
0.00013302365
0.00013117494