/*--------------------------------*- C++ -*----------------------------------*\
| =========                 |                                                 |
| \\      /  F ield         | OpenFOAM: The Open Source CFD Toolbox           |
|  \\    /   O peration     | Version:  2506                                  |
|   \\  /    A nd           | Website:  www.openfoam.com                      |
|    \\/     M anipulation  |                                                 |
\*---------------------------------------------------------------------------*/
FoamFile
{
    version     2.0;
    format      ascii;
    arch        "LSB;label=32;scalar=64";
    class       surfaceScalarField;
    location    "15000/water";
    object      phi;
}
// * * * * * * * * * * * * * * * * * * * * * * * * * * * * * * * * * * * * * //

dimensions      [1 0 -1 0 0 0 0];

oriented        oriented;

internalField   nonuniform List<scalar> 
4987
(
-6.9167736e-06
0.00085760419
-2.7656569e-05
0.0024926737
-6.1431121e-05
0.0040117068
-0.0001075903
0.0054211695
-0.00016565319
0.0067272392
-0.00023525167
0.0079357375
-0.00031606519
0.0090521266
-0.00040763483
0.010081416
-0.00050867084
0.011027654
-0.00061447105
0.011892066
-0.00070641237
0.012665127
-0.00069017742
0.01327532
0.013255156
-6.4252097e-06
0.00086402939
-2.4701717e-05
0.0025109502
-5.3973207e-05
0.0040409782
-9.3433184e-05
0.0054606295
-0.00014227852
0.0067760845
-0.00019970621
0.0079931652
-0.00026484255
0.0091172629
-0.00033648012
0.010153054
-0.00041221923
0.011103393
-0.0004856843
0.011965531
-0.00053558126
0.012715024
-0.00047144624
0.013211185
0.01278371
-6.1639689e-06
0.00087019336
-2.380905e-05
0.0025285953
-5.2164898e-05
0.0040693341
-9.0528704e-05
0.0054989933
-0.00013822172
0.0068237776
-0.00019455674
0.0080495002
-0.00025870612
0.0091814123
-0.00032929751
0.010223645
-0.00040329175
0.011177387
-0.00047276141
0.012035
-0.00051220841
0.012754471
-0.00042242592
0.013121403
0.012361284
-6.1054147e-06
0.00087629878
-2.3924376e-05
0.0025464143
-5.2620538e-05
0.0040980303
-9.1395558e-05
0.0055377683
-0.00013947504
0.006871857
-0.00019604176
0.0081060669
-0.00026004543
0.009245416
-0.00032969289
0.010293293
-0.00040116834
0.011248863
-0.00046497904
0.012098811
-0.00049117541
0.012780667
-0.00037835998
0.013008587
0.011982924
-5.9919784e-06
0.00088229076
-2.3432324e-05
0.0025638546
-5.1502782e-05
0.0041261007
-8.9417765e-05
0.0055756833
-0.0001363976
0.0069188369
-0.00019157934
0.0081612487
-0.00025377584
0.0093076125
-0.0003208868
0.010360404
-0.00038849227
0.011316468
-0.0004456482
0.012155967
-0.00045837524
0.012793394
-0.00033102689
0.012881239
0.011651897
-5.8197985e-06
0.00088811056
-2.2720415e-05
0.0025807553
-4.9911332e-05
0.0041532916
-8.6629801e-05
0.0056124017
-0.00013209822
0.0069643053
-0.00018540983
0.0082145603
-0.00024524283
0.0093674455
-0.00030921061
0.010424371
-0.00037232044
0.011379578
-0.00042207813
0.012205725
-0.00042081904
0.012792135
-0.00028517408
0.012745594
0.011366723
-5.6148951e-06
0.00089372545
-2.1923414e-05
0.0025970638
-4.8158186e-05
0.0041795264
-8.3570099e-05
0.0056478136
-0.00012737381
0.007008109
-0.00017860877
0.0082657952
-0.00023581604
0.0094246528
-0.00029633568
0.010484891
-0.00035458539
0.011437828
-0.00039630862
0.012247448
-0.00038067559
0.012776502
-0.00024201049
0.012606929
0.011124713
-5.4046946e-06
0.00089913014
-2.1106786e-05
0.0026127659
-4.6361914e-05
0.0042047815
-8.0433153e-05
0.0056818849
-0.00012252438
0.0070502002
-0.00017161842
0.0083148893
-0.0002261212
0.0094791555
-0.00028309872
0.010541869
-0.00033629459
0.011491024
-0.00036936757
0.012280521
-0.00033930313
0.012746438
-0.00020218079
0.012469807
0.010922532
-5.2040371e-06
0.00090433418
-2.0322449e-05
0.0026278843
-4.4632486e-05
0.0042290916
-7.7407183e-05
0.0057146596
-0.000117836
0.007090629
-0.00016484161
0.0083618949
-0.00021669175
0.0095310057
-0.00027015443
0.010595331
-0.00031814583
0.011539015
-0.00034189245
0.012304267
-0.00029797662
0.012702522
-0.0001662914
0.012338121
0.010756241
-5.0193754e-06
0.00090935356
-1.9599432e-05
0.0026424643
-4.3036007e-05
0.0042525281
-7.460817e-05
0.0057462317
-0.00011348606
0.0071295069
-0.00015852683
0.0084069356
-0.0002078498
0.0095803287
-0.00025787593
0.010645357
-0.00030047882
0.011581618
-0.00031421626
0.012318005
-0.00025799659
0.012646302
-0.00013488813
0.012215013
0.010621352
-4.8544121e-06
0.00091420797
-1.8953518e-05
0.0026565634
-4.1607992e-05
0.0042751826
-7.2098327e-05
0.0057767221
-0.00010956978
0.0071669784
-0.00015280648
0.0084501723
-0.00019976083
0.009627283
-0.00024643025
0.010692027
-0.00028338283
0.01161857
-0.00028657101
0.012321193
-0.00022065196
0.012580383
-0.00010831397
0.012102675
0.010513039
-4.7104907e-06
0.00091891846
-1.838964e-05
0.0026702426
-4.0359024e-05
0.004297152
-6.9895773e-05
0.0058062588
-0.00010611414
0.0072031967
-0.00014771517
0.0084917734
-0.00019245611
0.0096720239
-0.00023580475
0.010735375
-0.00026674607
0.011649512
-0.0002592037
0.012313651
-0.00018698908
0.012508168
-8.6549229e-05
0.012002235
0.010426489
-4.5864894e-06
0.00092350495
-1.7903118e-05
0.0026835592
-3.9278552e-05
0.0043185274
-6.7981783e-05
0.0058349621
-0.00010308929
0.0072383042
-0.00014320581
0.0085318899
-0.00018585427
0.0097146724
-0.00022583645
0.010775358
-0.0002503233
0.011673999
-0.00023244679
0.012295774
-0.00015760689
0.012433329
-6.9195203e-05
0.011913823
0.010357294
-4.47971e-06
0.00092798466
-1.7483378e-05
0.0026965629
-3.8343222e-05
0.0043393873
-6.6315361e-05
0.0058629342
-0.00010043089
0.0072724198
-0.00013918123
0.0085706402
-0.00017980338
0.0097552946
-0.00021627053
0.010811825
-0.0002338457
0.011691574
-0.00020673154
0.01226866
-0.0001326094
0.012359206
-5.5603114e-05
0.011836817
0.010301691
-4.3869483e-06
0.00093237161
-1.7117943e-05
0.0027092939
-3.7525518e-05
0.0043597948
-6.4848149e-05
0.0058902568
-9.8062774e-05
0.0073056344
-0.00013552609
0.0086081035
-0.00017412332
0.0097938918
-0.00020682319
0.010844525
-0.00021713163
0.011701882
-0.00018252416
0.012234053
-0.00011170491
0.012288387
-4.5044662e-05
0.011770157
0.010256646
-4.3051908e-06
0.0009366768
-1.6795059e-05
0.0027217838
-3.6799451e-05
0.0043797992
-6.3534223e-05
0.0059169916
-9.5911854e-05
0.007338012
-0.0001321276
0.0086443193
-0.00016863371
0.0098303979
-0.0001972305
0.010873121
-0.00020015794
0.01170481
-0.00016022091
0.012194115
-9.4372498e-05
0.012222539
-3.6838828e-05
0.011712623
0.010219807
-4.2319149e-06
0.00094090871
-1.6504851e-05
0.0027340567
-3.6143084e-05
0.0043994375
-6.2334437e-05
0.005943183
-9.3914665e-05
0.0073695922
-0.00012888455
0.0086792892
-0.00016316714
0.0098646805
-0.00018728236
0.010897237
-0.00018307196
0.011700599
-0.00014006425
0.012151108
-8.0017941e-05
0.012162492
-3.0412518e-05
0.011663018
0.010189395
-4.1651417e-06
0.00094507386
-1.6239538e-05
0.0027461311
-3.5538991e-05
0.0044187369
-6.1217188e-05
0.0059688612
-9.2018423e-05
0.0074003935
-0.00012570858
0.0087129793
-0.00015757395
0.0098965459
-0.00017684648
0.010916509
-0.00016614713
0.0116899
-0.00012211721
0.012107078
-6.8078247e-05
0.012108453
-2.5313029e-05
0.011620253
0.010164082
-4.1033745e-06
0.00094917723
-1.5993201e-05
0.0027580209
-3.4973725e-05
0.0044377174
-6.0157433e-05
0.0059940449
-9.0179431e-05
0.0074304155
-0.00012252186
0.0087453218
-0.00015172469
0.0099257487
-0.0001658846
0.010930669
-0.00014970629
0.011673722
-0.00010629217
0.012063664
-5.8071521e-05
0.012060233
-2.1196919e-05
0.011583378
0.010142885
-4.045497e-06
0.00095322273
-1.5761374e-05
0.0027697368
-3.4436918e-05
0.004456393
-5.9135101e-05
0.0060187431
-8.8360525e-05
0.0074596409
-0.00011925379
0.008776215
-0.00014551369
0.0099520086
-0.00015445694
0.010939612
-0.00013404493
0.01165331
-9.2406381e-05
0.012022025
-4.9608148e-05
0.012017435
-1.7811009e-05
0.011551581
0.010125074
-3.9906705e-06
0.0009572134
-1.5540649e-05
0.0027812868
-3.3920384e-05
0.0044747727
-5.8133471e-05
0.0060429561
-8.6528476e-05
0.0074880359
-0.00011583834
0.0088055249
-0.00013886506
0.0099750353
-0.00014270996
0.010943457
-0.0001193799
0.01162998
-8.0236217e-05
0.011982881
-4.2382113e-05
0.01197958
-1.4972578e-05
0.011524171
0.010110101
-3.938246e-06
0.00096115164
-1.5328322e-05
0.0027926768
-3.3417324e-05
0.0044928617
-5.7137748e-05
0.0060666766
-8.4651725e-05
0.0075155499
-0.00011221298
0.0088330861
-0.00013174064
0.009994563
-0.0001308474
0.010942564
-0.00010583198
0.011604964
-6.9555642e-05
0.011946605
-3.6155807e-05
0.011946181
-1.2551504e-05
0.011500567
0.01009755
-3.8876949e-06
0.00096503934
-1.512212e-05
0.0028039113
-3.2921708e-05
0.0045106613
-5.613392e-05
0.0060898888
-8.2698664e-05
0.0075421146
-0.00010831969
0.0088587072
-0.00012414735
0.010010391
-0.00011909197
0.010937509
-9.3435688e-05
0.011579308
-6.0156878e-05
0.011913326
-3.0745114e-05
0.011916769
-1.0455495e-05
0.011480277
0.010087094
-3.8385569e-06
0.00096887789
-1.4919993e-05
0.0028149927
-3.2427784e-05
0.0045281691
-5.510785e-05
0.0061125688
-8.0636493e-05
0.0075676433
-0.00010410814
0.0088821788
-0.00011614033
0.010022423
-0.00010764917
0.010929017
-8.2162708e-05
0.011553821
-5.1858097e-05
0.011883022
-2.6007005e-05
0.011890918
-8.6187502e-06
0.011462889
0.010078476
-3.7904019e-06
0.0009726683
-1.4719951e-05
0.0028259223
-3.1929704e-05
0.0045453789
-5.4044565e-05
0.0061346837
-7.8430837e-05
0.0075920295
-9.9540732e-05
0.0089032887
-0.00010781835
0.0100307
-9.6682477e-05
0.010917882
-7.1946841e-05
0.011529086
-4.4503958e-05
0.011855579
-2.1829746e-05
0.011868244
-6.9937059e-06
0.011448053
0.010071482
-3.7428e-06
0.0009764111
-1.4519945e-05
0.0028366994
-3.1421227e-05
0.0045622801
-5.2927708e-05
0.0061561902
-7.6046256e-05
0.0076151481
-9.4598625e-05
0.0089218411
-9.9310962e-05
0.010035413
-8.6303356e-05
0.010904874
-6.2703778e-05
0.011505486
-3.7963133e-05
0.011830838
-1.8125329e-05
0.011848406
-5.5452916e-06
0.011435473
0.010065937
-3.6952977e-06
0.00098010639
-1.4317763e-05
0.0028473219
-3.0895462e-05
0.0045788578
-5.1739149e-05
0.0061770339
-7.34478e-05
0.0076368567
-8.9287316e-05
0.0089376806
-9.0760483e-05
0.010036886
-7.6573765e-05
0.010890687
-5.4344026e-05
0.011483256
-3.2125056e-05
0.011808619
-1.4823689e-05
0.011831104
-4.2470009e-06
0.011424896
0.01006169
-3.6473963e-06
0.00098375379
-1.4110936e-05
0.0028577854
-3.0344641e-05
0.0045950915
-5.0458783e-05
0.006197148
-7.0603634e-05
0.0076570016
-8.3639733e-05
0.0089507167
-8.23036e-05
0.01003555
-6.7515805e-05
0.010875899
-4.678017e-05
0.011462521
-2.6896736e-05
0.011788736
-1.1868365e-05
0.011816076
-3.0782625e-06
0.011416106
0.010058611
-3.5985288e-06
0.00098735232
-1.3896642e-05
0.0028680835
-2.9759896e-05
0.0046109548
-4.906462e-05
0.0062164527
-6.7488585e-05
0.0076754255
-7.7715076e-05
0.0089609432
-7.4057343e-05
0.010031892
-5.9123316e-05
0.010860965
-3.9930404e-05
0.011443328
-2.2199863e-05
0.011771005
-9.2132893e-06
0.011803089
-2.0226649e-06
0.011408916
0.010056589
-3.5480256e-06
0.00099090035
-1.3671564e-05
0.0028782071
-2.9130949e-05
0.0046264142
-4.753311e-05
0.0062348549
-6.408791e-05
0.0076919803
-7.1592547e-05
0.0089684478
-6.6111092e-05
0.010026411
-5.1371384e-05
0.010846226
-3.3718976e-05
0.011425676
-1.7967101e-05
0.011755253
-6.819197e-06
0.011791942
-1.0665766e-06
0.011403163
0.010055522
-3.4950998e-06
0.00099439544
-1.343182e-05
0.0028881438
-2.8446031e-05
0.0046414284
-4.5840365e-05
0.0062522492
-6.0401303e-05
0.0077065413
-6.5362291e-05
0.0089734088
-5.8525786e-05
0.010019574
-4.4224384e-05
0.010831924
-2.8076927e-05
0.011409528
-1.4140033e-05
0.011741316
-4.6491682e-06
0.011782451
-1.6922768e-07
0.011398683
0.010055353
-3.4388796e-06
0.00099783432
-1.3173131e-05
0.002897878
-2.7692439e-05
0.0046559477
-4.3964995e-05
0.0062685218
-5.6447129e-05
0.0077190234
-5.9117561e-05
0.0089760792
-5.1340494e-05
0.010011797
-3.7645561e-05
0.010818229
-2.2947465e-05
0.01139483
-1.0674763e-05
0.011729044
-2.6810953e-06
0.011774457
6.6544856e-07
0.011395337
0.010056018
-3.3783149e-06
0.0010012126
-1.2890438e-05
0.0029073902
-2.6855996e-05
0.0046699133
-4.1889312e-05
0.0062835551
-5.226084e-05
0.0077293949
-5.2943431e-05
0.0089767618
-4.4574254e-05
0.010003428
-3.1595994e-05
0.010805251
-1.8279607e-05
0.011381514
-7.5311684e-06
0.011718295
-8.8301853e-07
0.011767809
1.4049936e-06
0.011393049
0.010057423
-3.3120984e-06
0.0010045247
-1.2577617e-05
0.0029166557
-2.5921007e-05
0.0046832566
-3.9601334e-05
0.0062972354
-4.7891272e-05
0.0077376849
-4.6909584e-05
0.0089757801
-3.8229282e-05
0.0099947476
-2.603392e-05
0.010793056
-1.402426e-05
0.011369504
-4.6695266e-06
0.011708941
7.7467305e-07
0.011762365
2.0667378e-06
0.011391757
0.01005949
-3.2386929e-06
0.0010077634
-1.2227714e-05
0.0029256447
-2.4871687e-05
0.0046959006
-3.7098718e-05
0.0063094625
-4.3397664e-05
0.0077439838
-4.1070811e-05
0.0089734533
-3.2299139e-05
0.0099859759
-2.092072e-05
0.010781677
-1.0139936e-05
0.011358723
-2.0591165e-06
0.01170086
2.2780104e-06
0.011758028
2.6638846e-06
0.011391371
0.010062154
-3.1562771e-06
0.0010109197
-1.1832823e-05
0.0029343212
-2.3693038e-05
0.0047077608
-3.4390253e-05
0.0063201597
-3.8842814e-05
0.0077484364
-3.5466325e-05
0.0089700768
-2.677048e-05
0.0099772801
-1.6218804e-05
0.010771126
-6.5853322e-06
0.01134909
3.4752976e-07
0.011693927
3.6322618e-06
0.011754743
3.20234e-06
0.011391801
0.010065356
-3.0627119e-06
0.0010139824
-1.1384178e-05
0.0029426427
-2.2372403e-05
0.0047187491
-3.1496501e-05
0.0063292838
-3.4287356e-05
0.0077512272
-3.0121862e-05
0.0089659113
-2.1625936e-05
0.0099687841
-1.1894058e-05
0.010761394
-3.3303248e-06
0.011340526
2.5510909e-06
0.011688046
4.8616724e-06
0.011752432
3.6898433e-06
0.011392972
0.010069046
-2.955534e-06
0.001016938
-1.0872488e-05
0.0029505597
-2.0901462e-05
0.004728778
-2.8448945e-05
0.0063368313
-2.9785797e-05
0.0077525641
-2.5052605e-05
0.0089611781
-1.6845476e-05
0.009960577
-7.9112287e-06
0.01075246
-3.267377e-07
0.011332941
4.543396e-06
0.011683175
5.9753592e-06
0.011751
4.131324e-06
0.011394816
0.010073178
-2.8319478e-06
0.0010197699
-1.0288358e-05
0.0029580161
-1.9277896e-05
0.0047377676
-2.5286902e-05
0.0063428403
-2.5383498e-05
0.0077526607
-2.0265004e-05
0.0089560596
-1.2407968e-05
0.00995272
-4.2418846e-06
0.010744293
2.4380241e-06
0.011326262
6.357006e-06
0.011679256
6.9857776e-06
0.011750372
4.5313284e-06
0.011397271
0.010077709
-2.6889072e-06
0.0010224588
-9.6232118e-06
0.0029649504
-1.750713e-05
0.0047456515
-2.2054214e-05
0.0063473874
-2.1116476e-05
0.0077517229
-1.5759127e-05
0.0089507023
-8.2896796e-06
0.0099452505
-8.467141e-07
0.01073685
4.9536776e-06
0.011320461
8.00649e-06
0.011676204
7.9030803e-06
0.011750475
4.893994e-06
0.01140028
0.010082603
-2.5232506e-06
0.0010249821
-8.8703651e-06
0.0029712975
-1.5602913e-05
0.004752384
-1.8795226e-05
0.0063505797
-1.7011664e-05
0.0077499394
-1.1530734e-05
0.0089452213
-4.4700321e-06
0.0099381898
2.2909482e-06
0.01073009
7.2494957e-06
0.011315503
9.506873e-06
0.011673946
8.735433e-06
0.011751246
5.2223308e-06
0.011403793
0.010087825
-2.3319752e-06
0.001027314
-8.0264261e-06
0.0029769919
-1.3587011e-05
0.0047579446
-1.5551706e-05
0.0063525444
-1.3087803e-05
0.0077474755
-7.57006e-06
0.0089397036
-9.1687659e-07
0.0099315366
5.1653252e-06
0.010724007
9.3448429e-06
0.011311323
1.0871946e-05
0.011672419
9.4906013e-06
0.011752628
5.5193415e-06
0.011407764
0.010093345
-2.1126551e-06
0.0010294267
-7.0926627e-06
0.002981972
-1.1487684e-05
0.0047623396
-1.2360771e-05
0.0063534174
-9.3574596e-06
0.0077444721
-3.8681108e-06
0.0089342143
2.3811743e-06
0.0099252874
7.7971044e-06
0.010718591
1.1256303e-05
0.011307864
1.2113233e-05
0.011671562
1.0174984e-05
0.011754566
5.7874213e-06
0.011412152
0.010099132
-1.8640281e-06
0.0010312907
-6.0761545e-06
0.0029861841
-9.3374844e-06
0.004765601
-9.2536039e-06
0.0063533336
-5.825602e-06
0.0077410441
-4.0089686e-07
0.0089287896
5.4171256e-06
0.0099194693
1.0206057e-05
0.010713802
1.2999107e-05
0.011305071
1.324101e-05
0.01167132
1.079426e-05
0.011757013
6.0287144e-06
0.011416917
0.010105161
-1.5866535e-06
0.0010328774
-4.9902431e-06
0.0029895877
-7.1706393e-06
0.0047677814
-6.2552871e-06
0.0063524182
-2.4927565e-06
0.0077372816
2.8316633e-06
0.0089234651
8.2067735e-06
0.0099140942
1.2408922e-05
0.0107096
1.4586619e-05
0.011302893
1.4264247e-05
0.011671643
1.1353348e-05
0.011759924
6.2450601e-06
0.011422026
0.010111406
-1.2835194e-06
0.0010341609
-3.8541894e-06
0.0029921583
-5.0207915e-06
0.004768948
-3.3849602e-06
0.0063507824
6.4620628e-07
0.0077332504
5.8153602e-06
0.008918296
1.0765911e-05
0.0099091437
1.442082e-05
0.010705945
1.6030808e-05
0.011301283
1.5190985e-05
0.011672482
1.1856688e-05
0.011763258
6.4381548e-06
0.011427444
0.010117844
-9.6035226e-07
0.0010351212
-2.6918288e-06
0.0029938898
-2.9183502e-06
0.0047691745
-6.5061753e-07
0.0063485147
3.578244e-06
0.0077290216
8.5629112e-06
0.0089133113
1.310856e-05
0.009904598
1.6254515e-05
0.010702799
1.7341512e-05
0.011300196
1.602767e-05
0.011673796
1.2307708e-05
0.011766978
6.6092149e-06
0.011433143
0.010124453
-6.2535462e-07
0.0010357466
-1.529123e-06
0.0029947936
-8.8737207e-07
0.0047685327
1.9290902e-06
0.0063456982
6.2873096e-06
0.0077246634
1.1084058e-05
0.0089085146
1.5247483e-05
0.0099004346
1.7921701e-05
0.010700125
1.8527732e-05
0.01129959
1.6780233e-05
0.011675544
1.270962e-05
0.011771048
6.7594401e-06
0.011439093
0.010131213
-2.8821999e-07
0.0010360348
-3.9068147e-07
0.002994896
1.0457059e-06
0.0047670963
4.3266666e-06
0.0063424172
8.7771127e-06
0.0077202129
1.3387446e-05
0.0089039042
1.7193118e-05
0.0098966289
1.9431823e-05
0.010697887
1.9596609e-05
0.011299425
1.7453241e-05
0.011677687
1.3064768e-05
0.011775437
6.8896189e-06
0.011445268
0.010138102
4.0780258e-08
0.001035994
6.9665467e-07
0.0029942402
2.8485915e-06
0.0047649444
6.5296016e-06
0.0063387362
1.104951e-05
0.007715693
1.5480289e-05
0.0088994734
1.895405e-05
0.0098931552
2.0792533e-05
0.010696048
2.0553823e-05
0.011299664
1.805022e-05
0.011680191
1.3374872e-05
0.011780112
7.0002671e-06
0.011451643
0.010145102
3.5067377e-07
0.0010356434
1.704865e-06
0.002992886
4.4970858e-06
0.0047621522
8.5307814e-06
0.0063347025
1.3105717e-05
0.0077111181
1.7368008e-05
0.0088952112
2.0536731e-05
0.0098899864
2.2009471e-05
0.010694575
2.1403394e-05
0.01130027
1.8573474e-05
0.011683021
1.3640875e-05
0.011785045
7.0915446e-06
0.011458192
0.010152194
6.3199379e-07
0.0010350114
2.6137968e-06
0.0029909042
5.9771964e-06
0.0047587888
1.0324511e-05
0.0063303552
1.4946283e-05
0.0077064963
1.9054261e-05
0.0088911032
2.1945514e-05
0.0098870952
2.3086272e-05
0.010693435
2.214766e-05
0.011301209
1.9024051e-05
0.011686144
1.3862909e-05
0.011790206
7.1632292e-06
0.011464892
0.010159357
8.7876423e-07
0.0010341326
3.4113843e-06
0.0029883716
7.2795518e-06
0.0047549206
1.1906912e-05
0.0063257278
1.65715e-05
0.0077018317
2.0541348e-05
0.0088871333
2.3182987e-05
0.0098844535
2.4024832e-05
0.010692593
2.2787471e-05
0.011302446
1.9401868e-05
0.01168953
1.4040372e-05
0.011795568
7.2147516e-06
0.011471717
0.010166572
1.087904e-06
0.0010330447
4.0915585e-06
0.0029853679
8.3995156e-06
0.0047506127
1.3276261e-05
0.0063208511
1.7981838e-05
0.0076971261
2.1830616e-05
0.0088832846
2.4250316e-05
0.0098820338
2.4825555e-05
0.010692017
2.3322356e-05
0.011303949
1.9705816e-05
0.011693146
1.4171985e-05
0.011801101
7.2452278e-06
0.011478644
0.010173817
1.258899e-06
0.0010317858
4.6536696e-06
0.0029819731
9.3370994e-06
0.0047459292
1.443335e-05
0.0063157549
1.9178468e-05
0.007692381
2.2923002e-05
0.00887954
2.5147708e-05
0.0098798091
2.5487725e-05
0.010691677
2.3750798e-05
0.011305686
1.993395e-05
0.011696963
1.4255907e-05
0.011806779
7.2535009e-06
0.011485646
0.010181071
1.3932179e-06
0.0010303926
5.1015267e-06
0.0029782648
1.0096617e-05
0.0047409341
1.5381742e-05
0.0063104697
2.0163809e-05
0.007687599
2.3819624e-05
0.0088758842
2.5874952e-05
0.0098777538
2.6009955e-05
0.010691542
2.4070578e-05
0.011307626
2.0083729e-05
0.01170095
1.4289894e-05
0.011812573
7.2382303e-06
0.011492698
0.010188309
1.4936601e-06
0.0010288989
5.4422545e-06
0.0029743162
1.0686092e-05
0.0047356903
1.6127849e-05
0.006305028
2.094198e-05
0.0076827848
2.4522376e-05
0.0088723038
2.6432013e-05
0.0098758442
2.6390704e-05
0.010691584
2.42792e-05
0.011309737
2.0152346e-05
0.011705077
1.4271515e-05
0.011818454
7.1979967e-06
0.011499772
0.010195507
1.5637695e-06
0.0010273352
5.6851548e-06
0.0029701948
1.1116497e-05
0.004730259
1.6680795e-05
0.0062994637
2.1519097e-05
0.0076779465
2.5034427e-05
0.0088687885
2.6819585e-05
0.009874059
2.6628811e-05
0.010691775
2.4374344e-05
0.011311992
2.0137079e-05
0.011709314
1.4198402e-05
0.011824393
7.1314266e-06
0.011506839
0.010202638
1.6073784e-06
0.0010257278
5.8407007e-06
0.0029659615
1.1400901e-05
0.0047246988
1.7052086e-05
0.0062938125
2.1903392e-05
0.0076730952
2.5360597e-05
0.0088653313
2.7039571e-05
0.00987238
2.6723978e-05
0.01069209
2.4354315e-05
0.011314361
2.0035662e-05
0.011713633
1.4068503e-05
0.01183036
7.0373292e-06
0.01151387
0.010209676
1.6282901e-06
0.0010240995
5.9197332e-06
0.0029616701
1.155365e-05
0.0047190649
1.7255137e-05
0.006288111
2.2105127e-05
0.0076682452
2.5507552e-05
0.0088619288
2.7095435e-05
0.0098707922
2.6677184e-05
0.010692508
2.421844e-05
0.01131682
1.9846621e-05
0.011718005
1.388035e-05
0.011836326
6.9148359e-06
0.011520835
0.01021659
1.6300839e-06
0.0010224694
5.9328763e-06
0.0029573673
1.1589621e-05
0.0047134081
1.7304723e-05
0.0062823959
2.2136365e-05
0.0076634136
2.5483845e-05
0.0088585814
2.699242e-05
0.0098692836
2.6490992e-05
0.01069301
2.3967397e-05
0.011319344
1.9569581e-05
0.011722403
1.3633267e-05
0.011842262
6.7635112e-06
0.011527705
0.010223354
1.6160104e-06
0.0010208534
5.8901506e-06
0.0029530931
1.1523623e-05
0.0047077746
1.7216422e-05
0.0062767031
2.2010624e-05
0.0076586194
2.5299799e-05
0.0088552922
2.6737601e-05
0.0098678458
2.6169714e-05
0.010693578
2.3603435e-05
0.01132191
1.9205482e-05
0.011726801
1.3327558e-05
0.01184814
6.5834581e-06
0.011534449
0.010229937
1.5889514e-06
0.0010192644
5.8007489e-06
0.0029488813
1.1369938e-05
0.0047022054
1.7006096e-05
0.0062710669
2.1742468e-05
0.007653883
2.496727e-05
0.0088520674
2.6339817e-05
0.0098664732
2.5719456e-05
0.010694198
2.3130484e-05
0.011324499
1.8756709e-05
0.011731174
1.2964617e-05
0.011853932
6.3753718e-06
0.011541038
0.010236313
1.5514183e-06
0.001017713
5.6729343e-06
0.0029447598
1.1142005e-05
0.0046967364
1.6689447e-05
0.0062655195
2.1347087e-05
0.0076492254
2.4499339e-05
0.0088489151
2.5809484e-05
0.0098651631
2.5148042e-05
0.010694859
2.2554157e-05
0.011327093
1.8227133e-05
0.011735501
1.2546965e-05
0.011859613
6.1405697e-06
0.011547445
0.010242453
1.5055733e-06
0.0010162074
5.5140198e-06
0.0029407514
1.0852228e-05
0.0046913982
1.6281664e-05
0.0062600901
2.0839894e-05
0.0076446671
2.3909955e-05
0.0088458451
2.5158324e-05
0.0098639147
2.4464829e-05
0.010695553
2.1881635e-05
0.011329676
1.7622051e-05
0.011739761
1.2078225e-05
0.011865156
5.8809714e-06
0.011553642
0.010248334
1.4532619e-06
0.0010147542
5.3304031e-06
0.0029368742
1.051188e-05
0.0046862167
1.5797155e-05
0.0062548048
2.023617e-05
0.0076402281
2.3213571e-05
0.0088428677
2.439905e-05
0.0098627292
2.3680464e-05
0.010696272
2.1121485e-05
0.011332235
1.6948046e-05
0.011743934
1.1563022e-05
0.011870542
5.5990453e-06
0.011559606
0.010253933
1.3960494e-06
0.0010133581
5.1276306e-06
0.0029331427
1.0131075e-05
0.0046812132
1.5249371e-05
0.0062496865
1.9550763e-05
0.0076359267
2.24248e-05
0.0088399936
2.3545029e-05
0.009861609
2.2806569e-05
0.01069701
2.0283401e-05
0.011334758
1.6212791e-05
0.011748005
1.1006839e-05
0.011875747
5.2977268e-06
0.011565315
0.010259231
1.3352568e-06
0.0010120229
4.9104764e-06
0.0029295674
9.7187924e-06
0.0046764049
1.4650695e-05
0.0062447546
1.8797854e-05
0.0076317796
2.1558104e-05
0.0088372334
2.2609946e-05
0.0098605572
2.1855433e-05
0.010697765
1.9377916e-05
0.011337236
1.5424798e-05
0.011751958
1.0415832e-05
0.011880756
4.9803152e-06
0.011570751
0.010264211
1.271995e-06
0.0010107509
4.6830259e-06
0.0029261564
9.2829386e-06
0.004671805
1.4012391e-05
0.0062400251
1.7990782e-05
0.0076278012
2.0627531e-05
0.0088345966
2.1607495e-05
0.0098595772
2.0839682e-05
0.010698532
1.84161e-05
0.011339659
1.459316e-05
0.011755781
9.7966219e-06
0.011885553
4.6503521e-06
0.011575897
0.010268862
1.2071946e-06
0.0010095437
4.4487573e-06
0.0029229148
8.8304178e-06
0.0046674234
1.3344595e-05
0.006235511
1.7141926e-05
0.0076240039
1.9646496e-05
0.0088320921
2.0551101e-05
0.0098586726
1.9771977e-05
0.010699311
1.7409255e-05
0.011342022
1.3727268e-05
0.011759463
9.1560787e-06
0.011890124
4.3115041e-06
0.011580742
0.010273173
1.1416327e-06
0.0010084021
4.2106177e-06
0.0029198459
8.3672179e-06
0.0046632668
1.2656347e-05
0.0062312218
1.6262632e-05
0.0076203976
1.8627623e-05
0.0088297271
1.9453693e-05
0.0098578465
1.866475e-05
0.0107001
1.636864e-05
0.011344318
1.2836563e-05
0.011762995
8.5011205e-06
0.01189446
3.9674423e-06
0.011585275
0.010277141
1.075956e-06
0.0010073261
3.9710921e-06
0.0029169507
7.8984985e-06
0.0046593393
1.1955631e-05
0.0062271647
1.5363184e-05
0.00761699
1.7582626e-05
0.0088275076
1.8327514e-05
0.0098571016
1.7529968e-05
0.010700898
1.5305223e-05
0.011346543
1.1930297e-05
0.01176637
7.8385293e-06
0.011898551
3.6217446e-06
0.011589492
0.010280763
1.0107e-06
0.0010063154
3.7322654e-06
0.0029142292
7.4286755e-06
0.0046556429
1.1249445e-05
0.0062233439
1.4452805e-05
0.0076137867
1.6522236e-05
0.0088254382
1.7183985e-05
0.0098564399
1.6378954e-05
0.010701703
1.4229478e-05
0.011348692
1.1017339e-05
0.011769582
7.174783e-06
0.011902394
3.2777936e-06
0.011593389
0.01028404
9.4630579e-07
0.0010053691
3.4958758e-06
0.0029116796
6.9615008e-06
0.0046521773
1.0543862e-05
0.0062197616
1.3539678e-05
0.0076107908
1.5456157e-05
0.0088235217
1.6033597e-05
0.0098558625
1.5222232e-05
0.010702514
1.3151206e-05
0.011350763
1.0106003e-05
0.011772627
6.5159324e-06
0.011905984
2.9387274e-06
0.011596966
0.010286979
8.8313433e-07
0.001004486
3.2633632e-06
0.0029092994
6.5001405e-06
0.0046489405
9.8441169e-06
0.0062164176
1.2630993e-05
0.007608004
1.4393068e-05
0.0088217597
1.4885869e-05
0.0098553697
1.4069443e-05
0.010703331
1.2079434e-05
0.011352753
9.2039347e-06
0.011775503
5.8674962e-06
0.01190932
2.6073525e-06
0.011600226
0.010289586
8.2147823e-07
0.0010036645
3.0359093e-06
0.0029070849
6.0472401e-06
0.0046459292
9.1546685e-06
0.0062133102
1.1732994e-05
0.0076054256
1.334063e-05
0.008820152
1.3749304e-05
0.009854961
1.2929267e-05
0.010704151
1.1022305e-05
0.01135466
8.3180149e-06
0.011778207
5.2343963e-06
0.011912404
2.2861451e-06
0.011603175
0.010291873
7.6157201e-07
0.0010029029
2.8144741e-06
0.002905032
5.6049901e-06
0.0046431387
8.4792839e-06
0.0062104359
1.0851052e-05
0.0076030539
1.2305527e-05
0.0088186975
1.2631401e-05
0.0098546351
1.1809404e-05
0.010704973
9.9870535e-06
0.011356483
7.4543177e-06
0.01178074
4.6209162e-06
0.011915237
1.9772016e-06
0.011605818
0.01029385
7.0360061e-07
0.0010021993
2.5998258e-06
0.0029031358
5.1751788e-06
0.0046405633
7.8211011e-06
0.0062077899
9.9897191e-06
0.0076008853
1.1293504e-05
0.0088173938
1.1538667e-05
0.0098543899
1.0716564e-05
0.010705795
8.9799645e-06
0.011358219
6.6180784e-06
0.011783102
4.0306907e-06
0.011917825
1.6822657e-06
0.011608167
0.010295532
6.4770691e-07
0.0010015516
2.3925688e-06
0.0029013909
4.7592459e-06
0.0046381967
7.1827018e-06
0.0062053665
9.1528082e-06
0.0075989152
1.0309439e-05
0.0088162371
1.0476667e-05
0.0098542227
9.6564986e-06
0.010706615
8.0064102e-06
0.011359869
5.8137104e-06
0.011785294
3.4667073e-06
0.011920172
1.4027079e-06
0.011610231
0.010296935
5.9399765e-07
0.0010009576
2.1931655e-06
0.0028997918
4.3583249e-06
0.0046360315
6.5661677e-06
0.0062031586
8.3434528e-06
0.0075971379
9.357388e-06
0.0088152232
9.4500649e-06
0.00985413
8.6340252e-06
0.010707431
7.070845e-06
0.011361432
5.0448144e-06
0.01178732
2.9313307e-06
0.011922285
1.1395644e-06
0.011612022
0.010298074
5.4254912e-07
0.0010004151
2.0019571e-06
0.0028983324
3.9732836e-06
0.0046340602
5.9731419e-06
0.0062011588
7.5641778e-06
0.0075955468
8.4406668e-06
0.0088143467
8.4626891e-06
0.009854108
7.6530889e-06
0.010708241
6.176882e-06
0.011362909
4.3142299e-06
0.011789183
2.4263402e-06
0.011924173
8.9354617e-07
0.011613555
0.010298968
4.9341158e-07
0.00099992165
1.8191815e-06
0.0028970066
3.6047595e-06
0.0046322746
5.4048794e-06
0.0061993587
6.8169622e-06
0.0075941348
7.5619089e-06
0.0088136018
7.5175941e-06
0.0098541523
6.7168186e-06
0.010709041
5.3273233e-06
0.011364298
3.624085e-06
0.011790886
1.9529767e-06
0.011925844
6.6508407e-07
0.011614843
0.010299633
4.4661349e-07
0.00099947503
1.644988e-06
0.0028958082
3.253193e-06
0.0046306664
4.8622991e-06
0.0061977496
6.1033046e-06
0.0075928937
6.7231426e-06
0.0088129819
6.6171409e-06
0.0098542583
5.8276056e-06
0.010709831
4.5242565e-06
0.011365601
2.9758677e-06
0.011792435
1.5120027e-06
0.011927308
4.543587e-07
0.011615901
0.010300087
4.021662e-07
0.00099907287
1.4794569e-06
0.0028947309
2.9188666e-06
0.004629227
4.3460464e-06
0.0061963224
5.4243082e-06
0.0075918155
5.9258964e-06
0.0088124803
5.7631201e-06
0.0098544211
4.9872467e-06
0.010710607
3.7692025e-06
0.01136682
2.3706062e-06
0.011793833
1.1038901e-06
0.011928575
2.6146514e-07
0.011616743
0.010300349
3.6006636e-07
0.0009987128
1.3226093e-06
0.0028937684
2.6019283e-06
0.0046279477
3.8565327e-06
0.0061950678
4.7807358e-06
0.0075908913
5.1712653e-06
0.0088120898
4.9568249e-06
0.0098546355
4.1970261e-06
0.010711367
3.0632167e-06
0.011367953
1.8090016e-06
0.011795088
7.2919637e-07
0.011929655
8.8923671e-08
0.011617384
0.010300438
3.2029383e-07
0.00099839251
1.1743967e-06
0.0028929143
2.3023645e-06
0.0046268197
3.3938838e-06
0.0061939763
4.1729228e-06
0.0075901122
4.4597758e-06
0.008811803
4.1988558e-06
0.0098548965
3.4574358e-06
0.010712108
2.4065091e-06
0.011369004
1.2909047e-06
0.011796203
3.8764822e-07
0.011930558
-6.2339428e-08
0.011617833
0.010300375
2.8281269e-07
0.00099810969
1.0347056e-06
0.0028921624
2.0200128e-06
0.0046258344
2.9579586e-06
0.0061930383
3.6007993e-06
0.0075894694
3.7914055e-06
0.0088116123
3.4891411e-06
0.0098551987
2.7682259e-06
0.010712829
1.7986e-06
0.011369974
8.1598232e-07
0.011797186
8.131669e-08
0.011931293