/*--------------------------------*- C++ -*----------------------------------*\
| =========                 |                                                 |
| \\      /  F ield         | OpenFOAM: The Open Source CFD Toolbox           |
|  \\    /   O peration     | Version:  2506                                  |
|   \\  /    A nd           | Website:  www.openfoam.com                      |
|    \\/     M anipulation  |                                                 |
\*---------------------------------------------------------------------------*/
FoamFile
{
    version     2.0;
    format      ascii;
    arch        "LSB;label=32;scalar=64";
    class       volScalarField;
    location    "8000/water";
    object      alphat;
}
// * * * * * * * * * * * * * * * * * * * * * * * * * * * * * * * * * * * * * //

dimensions      [1 -1 -1 0 0 0 0];

internalField   nonuniform List<scalar> 
2600
(
0.040489031
0.04048893
0.040488932
0.040488969
0.04048893
0.040488424
0.040485257
0.04046703
0.040362559
0.039762099
0.036475623
0.024118064
0.014862723
0.039376404
0.039376463
0.039376584
0.03937667
0.03937627
0.039373342
0.039357935
0.03928206
0.038918252
0.037247647
0.030707814
0.017504579
0.016810247
0.03845331
0.038453299
0.038453385
0.038453188
0.038451259
0.038441479
0.038397507
0.038208927
0.037432867
0.034484227
0.025768479
0.01464355
0.017680736
0.037674097
0.037673994
0.037673876
0.037672833
0.03766736
0.037643826
0.037549741
0.037190974
0.035896577
0.031717985
0.022022178
0.013507107
0.017935556
0.037006829
0.037006634
0.03700605
0.037003229
0.036991211
0.03694503
0.036777672
0.036201229
0.034343725
0.029136321
0.019390213
0.01332192
0.01787019
0.036428097
0.036427705
0.036426239
0.036420305
0.036397905
0.036319194
0.03605724
0.035231095
0.03281421
0.026833154
0.017684561
0.01376901
0.017658004
0.035920433
0.035919673
0.03591673
0.035905979
0.035868817
0.035747845
0.035374204
0.034281783
0.031338745
0.024847734
0.016751764
0.014701365
0.017395975
0.035470606
0.03546924
0.035464057
0.035446499
0.035390052
0.035218253
0.034721129
0.033357857
0.029935921
0.02320089
0.016491475
0.016024754
0.017137191
0.035068412
0.03506614
0.035057811
0.035031314
0.034951338
0.034722033
0.034094772
0.032463227
0.028616047
0.021918168
0.016839593
0.01764423
0.016909598
0.034705855
0.034702323
0.034689851
0.034652315
0.034545228
0.034254009
0.03349406
0.031599319
0.027389013
0.021039007
0.017742707
0.01944683
0.016725717
0.034376582
0.0343714
0.034353768
0.03430331
0.034166516
0.033811296
0.032918608
0.030765036
0.026274288
0.020612421
0.019134169
0.021310298
0.0165878
0.034075484
0.034068256
0.034044512
0.033979658
0.033811775
0.033392551
0.032367695
0.029958513
0.025310237
0.020682513
0.02092045
0.023125092
0.01649134
0.03379842
0.033788771
0.033758129
0.033677993
0.033478994
0.032997353
0.031839672
0.029180919
0.024557973
0.021270679
0.022983307
0.024813262
0.016428198
0.033542011
0.033529635
0.033491576
0.033396025
0.033167279
0.032625685
0.031331906
0.02844226
0.024095308
0.02236241
0.02519592
0.026333969
0.016389375
0.033303501
0.033288203
0.033242589
0.033132389
0.0328766
0.032277488
0.030841497
0.027768048
0.024001079
0.023903804
0.027443848
0.027676787
0.016366908
0.033080659
0.033062404
0.03300959
0.032886524
0.032607559
0.031952311
0.030367145
0.027204005
0.024336012
0.025808538
0.029640411
0.028850258
0.01635471
0.032871707
0.032850677
0.032791627
0.032658586
0.032361164
0.031649138
0.029912406
0.026815114
0.025128029
0.027972563
0.031731263
0.029871996
0.016348606
0.032675278
0.032651931
0.032588332
0.032449362
0.032138606
0.031366538
0.029490156
0.026676984
0.02636662
0.030291378
0.033689747
0.030762438
0.016345973
0.032490392
0.032465523
0.0323999
0.032260198
0.031941021
0.031103391
0.029127149
0.026861557
0.028006316
0.032674375
0.035508199
0.031541611
0.016345289
0.03231644
0.032291251
0.032227075
0.032092906
0.0317693
0.030860473
0.02886652
0.027422388
0.029976606
0.035052621
0.037189752
0.03222763
0.016345748
0.032153193
0.032129365
0.032071151
0.03194966
0.031623986
0.03064305
0.028765898
0.028384661
0.032194869
0.037379725
0.03874271
0.032836117
0.016346971
0.032000817
0.031980587
0.031933965
0.031832869
0.031505422
0.030464304
0.028890206
0.029742266
0.034578894
0.039628039
0.040177388
0.03338011
0.016348812
0.031859898
0.031846136
0.031817892
0.031745018
0.031414332
0.030348687
0.029300795
0.03146131
0.037056246
0.041783225
0.041504539
0.033870258
0.016351246
0.031731488
0.031727775
0.031725824
0.031688525
0.031353059
0.03033369
0.030044466
0.033487929
0.039569157
0.043839381
0.042734583
0.034315156
0.016354289
0.031617156
0.031627852
0.031661123
0.031665646
0.031327617
0.030468393
0.031145816
0.035757869
0.042075214
0.0457956
0.043877217
0.034721705
0.016357969
0.031519059
0.031549348
0.031627545
0.031678559
0.031350388
0.03080812
0.032604589
0.038205569
0.044545302
0.047653855
0.044941235
0.035095454
0.016362308
0.03144002
0.031495925
0.031629137
0.031729782
0.031442849
0.031406237
0.034397786
0.040771064
0.046960466
0.049417769
0.045934482
0.035440884
0.01636731
0.031383622
0.031471952
0.031670109
0.031823121
0.031637182
0.03230549
0.036485152
0.043403916
0.049308922
0.051091861
0.046863891
0.035761634
0.016372969
0.031354311
0.031482519
0.031754745
0.031965286
0.031975486
0.033531429
0.038816233
0.046064359
0.051583766
0.052681063
0.047735558
0.036060689
0.016379266
0.031357497
0.031533412
0.031887428
0.032168114
0.032505947
0.03508941
0.041337345
0.04872249
0.053781403
0.054190402
0.048554835
0.036340515
0.016386173
0.03139966
0.031631057
0.032072923
0.032450917
0.033276477
0.036965354
0.04399717
0.051356525
0.055900496
0.055624812
0.049326442
0.03660325
0.016393659
0.031488427
0.031782429
0.032317112
0.032842103
0.034327515
0.03912942
0.046750337
0.053950907
0.057941214
0.056988878
0.050054083
0.036848499
0.016401672
0.031632621
0.031994974
0.032628311
0.033378949
0.035685995
0.041541308
0.049558974
0.056494692
0.059904727
0.058286912
0.050741233
0.037078065
0.016410157
0.031842265
0.032276622
0.033019166
0.034104846
0.037361937
0.044155845
0.052392724
0.058980335
0.061792823
0.059522764
0.051390031
0.037293996
0.016419061
0.03212853
0.032636023
0.033508776
0.035064188
0.03934812
0.046927814
0.055227867
0.06140279
0.063607648
0.060699941
0.052002679
0.037497697
0.016428334
0.03250367
0.033083206
0.034124301
0.036296106
0.041622411
0.049815364
0.05804614
0.063758864
0.065351548
0.061821639
0.05258258
0.037690193
0.016437945
0.032981001
0.033630797
0.034901061
0.037828737
0.044151819
0.052781871
0.060833586
0.066046679
0.067026699
0.062889498
0.053132466
0.037872529
0.016447871
0.033575092
0.034295803
0.035880365
0.039675449
0.046897154
0.055796502
0.063579596
0.068265327
0.068635564
0.063907351
0.053654299
0.038045472
0.016458088
0.034302364
0.0351016
0.037105064
0.041833715
0.04981734
0.058833927
0.066276146
0.070414386
0.070179102
0.064878392
0.054149991
0.038209781
0.016468569
0.035182271
0.036079346
0.038613753
0.044286494
0.052872725
0.061873587
0.068917167
0.072494017
0.071660181
0.065805204
0.05462116
0.038366083
0.016479288
0.036239031
0.037267798
0.040435141
0.047005422
0.056027163
0.064898905
0.071498017
0.074503812
0.073081475
0.066690094
0.055069322
0.038514915
0.016490218
0.037503401
0.038710772
0.042584028
0.049954848
0.059248925
0.067896454
0.074015174
0.076444635
0.074445471
0.067535114
0.055495815
0.03865674
0.016501334
0.039013478
0.040452246
0.045059698
0.053095817
0.062510836
0.070855327
0.076465319
0.078317607
0.075754302
0.068342164
0.055901824
0.038791951
0.01651261
0.040813276
0.042530134
0.04784679
0.056389286
0.065789801
0.073766502
0.078846463
0.080124251
0.077009867
0.069112938
0.056288384
0.038920881
0.016524019
0.04294828
0.044970292
0.050918033
0.059798367
0.069066315
0.076621966
0.081156916
0.081865795
0.078213926
0.069848944
0.056656396
0.039043805
0.016535536
0.045458331
0.047782256
0.054237922
0.063289375
0.072323483
0.079415204
0.083396342
0.083543329
0.079368022
0.070551493
0.057006631
0.039160951
0.016547136
0.048369439
0.050957521
0.057766434
0.066832224
0.075546547
0.08214074
0.085564132
0.085157808
0.080473486
0.071221711
0.057339738
0.039272499
0.016558794
0.051686859
0.054470365
0.061462083
0.070399905
0.078721979
0.084794904
0.08765969
0.086709988
0.081531429
0.071860533
0.057656249
0.039378586
0.016570485
0.05539142
0.058280499
0.065283643
0.073967524
0.081839595
0.087374096
0.089682316
0.088200388
0.082542723
0.072468712
0.057956585
0.039479308
0.016582185
0.059439979
0.062336458
0.06919077
0.077513985
0.084890555
0.089874864
0.091631132
0.08962927
0.083507993
0.073046812
0.058241055
0.039574721
0.016593867
0.063769419
0.066579682
0.07314627
0.081021454
0.087866718
0.09229379
0.093505033
0.090996607
0.084427612
0.073595214
0.058509864
0.03966484
0.016605506
0.068304113
0.070949094
0.077116097
0.084473695
0.090760469
0.094627419
0.095302661
0.09230208
0.085301695
0.07411411
0.058763104
0.039749643
0.016617075
0.072963919
0.075384311
0.08106851
0.087855766
0.093564612
0.09687224
0.097022404
0.093545079
0.086130104
0.074603511
0.059000767
0.039829068
0.016628545
0.077671188
0.079828338
0.084974028
0.091153816
0.096272325
0.099024708
0.098662435
0.094724732
0.086912468
0.075063254
0.059222741
0.039903016
0.016639885
0.082355837
0.084229572
0.088805533
0.094355004
0.098877165
0.10108131
0.10022078
0.09583995
0.087648207
0.075493022
0.059428826
0.039971352
0.016651062
0.086958215
0.088543088
0.092538496
0.09744751
0.10137314
0.10303865
0.10169539
0.096889499
0.088336586
0.075892372
0.059618743
0.040033916
0.016662042
0.091430108
0.092731287
0.096151264
0.10042063
0.1037548
0.10489361
0.10308428
0.09787209
0.088976773
0.07626077
0.059792158
0.040090525
0.016672786
0.095734394
0.096763959
0.0996253
0.10326494
0.10601736
0.10664342
0.10438567
0.098786481
0.089567912
0.076597642
0.059948707
0.040140987
0.016683257
0.099843928
0.10061793
0.10294535
0.10597238
0.10815678
0.10828581
0.10559803
0.099631583
0.090109209
0.076902429
0.060088029
0.040185113
0.016693412
0.10374007
0.10427639
0.10609945
0.10853646
0.11016992
0.10981912
0.10672029
0.10040657
0.090600012
0.077174642
0.060209796
0.040222733
0.016703212
0.1074112
0.10772813
0.10907887
0.11095228
0.11205458
0.11124236
0.10775186
0.10111095
0.09103989
0.077413923
0.060313753
0.040253708
0.016712613
0.11085126
0.11096663
0.11187783
0.11321655
0.11380955
0.11255529
0.10869272
0.10174468
0.091428702
0.077620096
0.060399748
0.040277946
0.016721578
0.1140586
0.11398927
0.11449331
0.11532757
0.1154346
0.11375841
0.10954346
0.10230815
0.091766646
0.077793209
0.06046776
0.040295418
0.016730069
0.11703494
0.11679658
0.11692465
0.11728514
0.1169305
0.11485295
0.11030528
0.10280228
0.092054294
0.07793357
0.060517926
0.040306162
0.016738053
0.11978454
0.11939156
0.11917321
0.11909044
0.11829894
0.11584087
0.11097999
0.10322848
0.092292609
0.078041762
0.060550551
0.040310292
0.016745501
0.12231358
0.12177915
0.12124209
0.12074586
0.11954244
0.11672478
0.11156993
0.10358862
0.092482942
0.078118651
0.060566114
0.040308002
0.016752391
0.12462962
0.12396574
0.12313576
0.12225487
0.1206643
0.11750788
0.112078
0.10388505
0.09262701
0.078165379
0.060565271
0.040299562
0.016758705
0.12674123
0.12595882
0.12485982
0.12362181
0.12166845
0.11819388
0.11250749
0.10412048
0.092726869
0.078183343
0.06054884
0.040285317
0.016764435
0.12865763
0.12776667
0.1264207
0.1248518
0.1225594
0.11878695
0.11286212
0.104298
0.09278487
0.078174171
0.060517786
0.040265676
0.016769575
0.13038849
0.12939807
0.1278255
0.12595051
0.1233421
0.11929158
0.11314588
0.10442095
0.09280361
0.078139684
0.060473202
0.040241101
0.016774131
0.13194375
0.13086218
0.12908177
0.12692408
0.12402186
0.11971255
0.11336301
0.1044929
0.092785881
0.07808186
0.060416281
0.040212099
0.01677811
0.13333341
0.13216831
0.13019735
0.12777896
0.12460424
0.12005483
0.1135179
0.10451757
0.092734614
0.078002791
0.060348287
0.040179204
0.016781529
0.13456747
0.13332583
0.13118026
0.12852183
0.12509497
0.12032353
0.11361507
0.10449876
0.092652831
0.077904643
0.060270535
0.040142968
0.016784409
0.13565582
0.13434406
0.13203861
0.12915945
0.12549989
0.12052378
0.11365903
0.10444035
0.092543595
0.077789616
0.060184356
0.040103948
0.016786773
0.13660817
0.1352322
0.13278043
0.12969866
0.12582485
0.12066077
0.11365434
0.10434616
0.092409961
0.077659908
0.060091075
0.040062692
0.016788649
0.13743396
0.13599923
0.13341368
0.13014622
0.12607568
0.12073958
0.11360545
0.10421998
0.092254942
0.077517682
0.059991993
0.040019731
0.016790069
0.13814237
0.1366539
0.13394617
0.13050881
0.12625813
0.12076525
0.11351674
0.1040655
0.092081472
0.077365036
0.059888362
0.039975572
0.016791066
0.13874224
0.13720467
0.13438546
0.13079297
0.1263778
0.12074265
0.11339245
0.10388631
0.091892377
0.077203986
0.059781373
0.039930689
0.016791671
0.13924208
0.13765969
0.1347389
0.13100504
0.12644017
0.12067653
0.11323667
0.10368581
0.091690356
0.077036439
0.059672142
0.039885517
0.016791921
0.13965001
0.13802676
0.13501354
0.13115116
0.1264505
0.12057144
0.11305332
0.10346729
0.09147796
0.076864185
0.059561705
0.039840454
0.016791849
0.13997378
0.13831332
0.13521616
0.1312372
0.12641386
0.12043174
0.11284611
0.10323381
0.091257578
0.076688885
0.059451006
0.039795855
0.016791488
0.14022077
0.13852647
0.1353532
0.13126882
0.12633509
0.12026157
0.11261856
0.10298826
0.091031435
0.076512063
0.0593409
0.039752031
0.016790872
0.14039794
0.13867292
0.1354308
0.13125137
0.12621879
0.12006487
0.11237399
0.10273335
0.09080158
0.076335107
0.059232149
0.039709255
0.016790031
0.14051187
0.13875903
0.13545476
0.13118994
0.12606933
0.11984534
0.11211549
0.10247155
0.090569888
0.076159263
0.059125421
0.039667755
0.016788995
0.14056879
0.13879078
0.13543058
0.13108936
0.12589083
0.11960646
0.11184594
0.10220518
0.090338061
0.075985644
0.059021298
0.039627721
0.016787792
0.14057451
0.1387738
0.13536343
0.13095415
0.12568717
0.11935148
0.11156801
0.10193633
0.090107623
0.075815212
0.058920226
0.039589096
0.016786448
0.1405345
0.13871337
0.13525814
0.13078859
0.12546196
0.11908342
0.11128416
0.10166689
0.089879927
0.07564879
0.05882256
0.039551831
0.016784983
0.14045388
0.13861443
0.13511927
0.13059664
0.12521861
0.1188051
0.11099664
0.10139859
0.089656142
0.075487014
0.058728322
0.039516214
0.016783417
0.14033742
0.13848159
0.13495105
0.13038206
0.12496026
0.11851909
0.11070749
0.10113294
0.089437293
0.075330464
0.058637852
0.039482372
0.016781769
0.14018955
0.13831914
0.13475745
0.13014828
0.12468983
0.11822778
0.11041856
0.10087127
0.08922417
0.075179264
0.058551583
0.039450396
0.01678006
0.14001441
0.13813108
0.13454212
0.12989854
0.12441001
0.11793332
0.11013149
0.10061471
0.089017403
0.075034109
0.058469661
0.039420336
0.016778309
0.13981582
0.1379211
0.13430849
0.12963581
0.12412329
0.11763768
0.10984775
0.10036424
0.088817533
0.074895458
0.05839221
0.039392224
0.016776532
0.13959732
0.13769262
0.13405968
0.12936283
0.12383191
0.11734261
0.10956857
0.10012052
0.088625362
0.074763557
0.058319313
0.039366072
0.016774746
0.13936218
0.13744881
0.1337986
0.1290821
0.12353793
0.11704967
0.10929498
0.0998845
0.088441352
0.074638583
0.058251004
0.03934187
0.016772962
0.13911341
0.13719257
0.13352792
0.12879592
0.12324319
0.11676019
0.10902797
0.099656956
0.088265849
0.074520652
0.058187282
0.039319592
0.016771195
0.13885377
0.13692656
0.13325004
0.12850635
0.12294931
0.11647534
0.10876864
0.099438441
0.088099105
0.074409817
0.05812811
0.039299198
0.016769452
0.13858577
0.13665319
0.13296717
0.12821521
0.12265766
0.11619644
0.10851776
0.099229394
0.087941291
0.074306082
0.058073422
0.039280633
0.016767744
0.13831169
0.13637465
0.13268124
0.12792414
0.12236979
0.11592455
0.10827601
0.099030148
0.087792501
0.074209399
0.058023124
0.039263837
0.016766078
0.13803356
0.13609287
0.13239404
0.12763481
0.12208697
0.11566055
0.10804392
0.098840944
0.087652762
0.074119676
0.0579771
0.03924874
0.01676446
0.13775325
0.13580969
0.13210731
0.12734869
0.12181034
0.11540522
0.10782192
0.098661939
0.087522042
0.074036786
0.057935218
0.039235266
0.016762895
0.13747248
0.13552678
0.13182259
0.12706705
0.12154086
0.11515919
0.10761033
0.098493209
0.087400254
0.07396057
0.057897329
0.039223339
0.016761387
0.13719282
0.13524568
0.13154126
0.12679107
0.12127939
0.11492299
0.1074094
0.098334765
0.087287264
0.07389084
0.057863273
0.039212877
0.016759941
0.13691569
0.13496775
0.13126456
0.12652173
0.12102663
0.11469703
0.10721927
0.098186553
0.087182897
0.073827387
0.057832881
0.039203798
0.016758558
0.13664238
0.13469423
0.13099357
0.12625992
0.1207832
0.11448164
0.10704001
0.098048463
0.087086943
0.07376998
0.057805976
0.03919602
0.016757241
0.13637402
0.13442621
0.13072927
0.12600638
0.12054957
0.11427703
0.10687163
0.097920336
0.086999158
0.073718376
0.057782379
0.039189459
0.016755991
0.13611163
0.13416463
0.13047248
0.12576174
0.12032615
0.11408337
0.10671407
0.097801969
0.086919275
0.073672318
0.057761907
0.039184034
0.016754809
0.13585609
0.13391034
0.13022391
0.12552653
0.12011323
0.11390072
0.10656721
0.097693119
0.086847002
0.07363154
0.057744373
0.039179665
0.016753695
0.13560815
0.13366404
0.12998416
0.12530118
0.11991102
0.11372908
0.10643088
0.097593512
0.086782032
0.07359577
0.057729595
0.039176271
0.016752649
0.13536846
0.13342635
0.12975373
0.12508602
0.11971966
0.1135684
0.10630487
0.097502843
0.086724041
0.073564733
0.057717389
0.039173777
0.016751669
0.13513757
0.13319776
0.12953302
0.12488128
0.11953919
0.11341855
0.10618892
0.097420784
0.086672697
0.073538151
0.057707574
0.039172108
0.016750757
0.13491592
0.13297867
0.12932233
0.12468714
0.11936963
0.11327936
0.10608275
0.09734699
0.086627659
0.073515748
0.057699975
0.039171192
0.016749909
0.13470386
0.13276941
0.12912191
0.12450368
0.11921089
0.11315063
0.10598604
0.097281097
0.086588583
0.073497249
0.057694418
0.039170959
0.016749125
0.13450167
0.13257021
0.12893189
0.12433093
0.11906286
0.11303209
0.10589844
0.097222733
0.086555122
0.073482382
0.057690737
0.039171345
0.016748403
0.13430954
0.13238123
0.12875236
0.12416886
0.11892537
0.11292348
0.1058196
0.097171517
0.08652693
0.073470883
0.057688768
0.039172284
0.016747741
0.13412758
0.13220256
0.12858335
0.12401737
0.11879821
0.11282446
0.10574914
0.097127062
0.086503666
0.073462493
0.057688357
0.039173717
0.016747137
0.13395586
0.13203423
0.1284248
0.12387633
0.11868113
0.11273471
0.10568667
0.097088983
0.086484991
0.07345696
0.057689355
0.039175586
0.016746589
0.13379438
0.13187621
0.12827664
0.12374556
0.11857385
0.11265386
0.10563181
0.097056895
0.086470577
0.073454043
0.057691619
0.039177839
0.016746094
0.1336431
0.13172844
0.12813873
0.12362484
0.11847608
0.11258155
0.10558414
0.097030417
0.086460104
0.07345351
0.057695016
0.039180426
0.016745651
0.1335019
0.13159079
0.1280109
0.12351392
0.11838748
0.1125174
0.10554327
0.097009177
0.086453262
0.07345514
0.057699421
0.0391833
0.016745256
0.13337065
0.1314631
0.12789293
0.12341253
0.11830771
0.11246101
0.1055088
0.096992808
0.086449752
0.073458724
0.057704716
0.039186421
0.016744908
0.13324917
0.13134516
0.12778458
0.12332036
0.11823641
0.11241199
0.10548034
0.096980953
0.086449285
0.073464062
0.05771079
0.03918975
0.016744604
0.13313725
0.13123675
0.12768559
0.12323708
0.1181732
0.11236993
0.1054575
0.09697326
0.086451584
0.07347096
0.05771754
0.03919325
0.016744342
0.13303463
0.1311376
0.12759564
0.12316235
0.11811769
0.11233444
0.10543987
0.096969387
0.086456376
0.073479237
0.057724865
0.039196888
0.016744119
0.13294104
0.13104742
0.12751441
0.12309579
0.11806948
0.11230509
0.10542708
0.096968995
0.086463401
0.073488714
0.057732669
0.039200632
0.016743934
0.13285616
0.13096588
0.12744155
0.12303703
0.11802817
0.11228148
0.10541873
0.096971757
0.086472402
0.073499221
0.057740861
0.039204448
0.016743783
0.13277968
0.13089264
0.1273767
0.12298567
0.11799334
0.11226321
0.10541446
0.096977351
0.086483134
0.073510593
0.057749352
0.039208306
0.016743665
0.13271123
0.13082734
0.12731947
0.12294131
0.11796457
0.11224986
0.10541389
0.096985467
0.086495363
0.073522674
0.057758059
0.039212176
0.016743576
0.13265047
0.13076962
0.12726948
0.12290354
0.11794147
0.11224105
0.10541666
0.096995813
0.086508868
0.073535321
0.057766903
0.03921603
0.016743515
0.13259701
0.1307191
0.12722634
0.12287196
0.11792362
0.11223639
0.10542246
0.097008112
0.086523445
0.073548401
0.057775818
0.039219842
0.016743478
0.13255051
0.13067539
0.12718966
0.12284617
0.11791064
0.11223552
0.10543094
0.097022111
0.086538909
0.073561799
0.057784744
0.039223596
0.016743464
0.13251058
0.13063814
0.12715906
0.1228258
0.11790216
0.1122381
0.10544183
0.097037579
0.086555097
0.073575416
0.057793634
0.039227275
0.01674347
0.13247686
0.13060698
0.12713417
0.12281048
0.11789782
0.11224381
0.10545486
0.097054305
0.086571864
0.073589165
0.05780245
0.039230871
0.016743494
0.13244901
0.13058153
0.12711463
0.12279984
0.11789729
0.11225235
0.10546977
0.097072099
0.08658908
0.073602973
0.057811161
0.039234377
0.016743536
0.13242666
0.13056146
0.12710008
0.12279355
0.11790024
0.11226343
0.10548632
0.097090783
0.086606626
0.073616775
0.057819741
0.039237791
0.016743593
0.13240946
0.1305464
0.12709017
0.12279126
0.11790637
0.11227679
0.1055043
0.097110192
0.086624393
0.073630508
0.057828167
0.039241109
0.016743664
0.13239707
0.13053601
0.12708455
0.12279264
0.11791535
0.11229214
0.10552349
0.097130161
0.086642272
0.073644113
0.057836413
0.039244328
0.016743748
0.13238912
0.13052993
0.12708287
0.12279735
0.11792689
0.11230923
0.10554366
0.09715053
0.086660154
0.073657527
0.057844452
0.03924744
0.016743844
0.13238526
0.13052779
0.12708479
0.12280505
0.11794068
0.11232779
0.10556462
0.097171139
0.086677928
0.073670681
0.057852245
0.039250412
0.01674395
0.13238511
0.13052924
0.12708994
0.12281542
0.11795641
0.11234756
0.10558614
0.09719183
0.086695487
0.073683511
0.057859759
0.039253228
0.016744064
0.13238832
0.13053392
0.12709798
0.12282812
0.1179738
0.1123683
0.10560803
0.097212452
0.086712727
0.073695948
0.057866939
0.03925589
0.016744183
0.13239453
0.13054147
0.12710856
0.12284284
0.11799256
0.11238976
0.1056301
0.097232868
0.086729554
0.073707935
0.057873763
0.039258394
0.016744307
0.13240338
0.13055156
0.12712136
0.12285927
0.11801242
0.11241174
0.10565218
0.097252954
0.086745883
0.073719407
0.057880226
0.039260736
0.016744434
0.13241456
0.13056385
0.12713608
0.12287714
0.11803316
0.11243402
0.10567413
0.09727261
0.086761652
0.073730344
0.057886322
0.039262915
0.016744562
0.13242776
0.13057805
0.12715242
0.1228962
0.11805454
0.11245645
0.10569582
0.097291748
0.086776797
0.073740747
0.057892051
0.039264934
0.01674469
0.13244271
0.1305939
0.12717013
0.12291621
0.1180764
0.11247888
0.10571714
0.097310306
0.086791312
0.073750612
0.05789742
0.0392668
0.016744818
0.13245915
0.13061114
0.12718899
0.12293698
0.11809856
0.1125012
0.10573803
0.097328235
0.086805195
0.073759945
0.057902439
0.039268521
0.016744945
0.13247687
0.13062956
0.1272088
0.12295833
0.11812088
0.11252329
0.1057584
0.097345526
0.086818441
0.073768757
0.057907124
0.039270107
0.016745071
0.13249566
0.13064896
0.12722936
0.1229801
0.11814324
0.11254505
0.10577821
0.09736216
0.086831052
0.073777059
0.057911491
0.039271568
0.016745196
0.13251533
0.13066915
0.12725051
0.12300214
0.1181655
0.11256642
0.10579743
0.097378118
0.086843029
0.073784865
0.057915553
0.039272913
0.016745319
0.13253571
0.13068997
0.12727208
0.12302431
0.11818757
0.11258733
0.10581601
0.097393384
0.08685437
0.073792182
0.057919322
0.039274149
0.01674544
0.13255663
0.13071125
0.12729392
0.12304648
0.11820935
0.11260771
0.10583391
0.097407939
0.086865073
0.073799016
0.057922803
0.039275281
0.016745559
0.13257792
0.13073283
0.12731589
0.12306852
0.11823076
0.11262749
0.1058511
0.097421762
0.086875133
0.073805371
0.057926003
0.039276309
0.016745676
0.13259945
0.13075456
0.12733785
0.12309034
0.11825169
0.11264662
0.10586753
0.097434835
0.086884544
0.073811247
0.057928924
0.039277236
0.016745789
0.13262105
0.13077631
0.12735968
0.12311181
0.11827207
0.11266503
0.10588317
0.097447145
0.086893305
0.073816649
0.057931569
0.039278062
0.016745899
0.13264261
0.13079795
0.12738126
0.12313285
0.11829182
0.11268268
0.105898
0.097458682
0.086901417
0.073821582
0.057933944
0.039278789
0.016746004
0.13266399
0.13081936
0.12740249
0.12315338
0.1183109
0.11269953
0.105912
0.097469447
0.08690889
0.073826057
0.057936057
0.039279418
0.016746105
0.1326851
0.13084044
0.12742328
0.12317331
0.11832924
0.11271556
0.10592516
0.097479448
0.086915737
0.07383009
0.057937917
0.039279954
0.016746202
0.13270584
0.13086111
0.12744356
0.1231926
0.11834682
0.11273076
0.1059375
0.097488703
0.086921983
0.073833703
0.057939541
0.039280403
0.016746293
0.13272614
0.13088129
0.12746327
0.1232112
0.11836361
0.11274513
0.10594902
0.097497236
0.086927654
0.073836919
0.057940946
0.039280773
0.016746379
0.13274592
0.13090093
0.12748234
0.12322908
0.11837961
0.11275866
0.10595976
0.097505076
0.086932782
0.073839766
0.057942149
0.039281072
0.016746461
0.13276514
0.13091996
0.12750075
0.12324622
0.11839479
0.11277138
0.10596972
0.097512254
0.086937398
0.07384227
0.057943168
0.039281307
0.016746537
0.13278373
0.13093835
0.12751846
0.12326259
0.11840918
0.1127833
0.10597894
0.097518801
0.086941531
0.073844454
0.05794402
0.039281488
0.01674661
0.13280166
0.13095605
0.12753544
0.12327818
0.11842275
0.11279443
0.10598744
0.097524744
0.086945209
0.073846343
0.057944718
0.03928162
0.016746678
0.13281887
0.13097302
0.12755165
0.12329297
0.11843551
0.11280477
0.10599524
0.097530107
0.086948455
0.073847952
0.057945275
0.039281707
0.016746741
0.13283533
0.13098922
0.12756707
0.12330695
0.11844747
0.11281435
0.10600236
0.097534911
0.086951287
0.073849297
0.0579457
0.039281755
0.016746801
0.132851
0.13100462
0.12758167
0.1233201
0.11845861
0.11282317
0.1060088
0.097539173
0.086953722
0.07385039
0.057945997
0.039281762
0.016746856
0.13286584
0.13101918
0.12759543
0.1233324
0.11846893
0.11283123
0.1060146
0.097542909
0.086955773
0.073851241
0.057946172
0.039281732
0.016746908
0.13287981
0.13103288
0.12760832
0.12334385
0.11847844
0.11283855
0.10601975
0.097546135
0.086957457
0.07385186
0.057946232
0.039281665
0.016746955
0.13289289
0.13104569
0.12762032
0.12335444
0.11848713
0.11284514
0.10602429
0.09754887
0.086958788
0.07385226
0.057946183
0.039281563
0.016746998
0.13290506
0.1310576
0.12763144
0.12336417
0.11849502
0.11285101
0.10602822
0.097551134
0.086959785
0.073852453
0.05794603
0.039281428
0.016747036
0.13291632
0.1310686
0.12764166
0.12337304
0.11850212
0.11285619
0.10603157
0.097552948
0.086960466
0.073852452
0.057945782
0.039281262
0.01674707
0.13292667
0.13107869
0.12765101
0.12338108
0.11850846
0.11286069
0.10603437
0.09755434
0.086960853
0.073852274
0.057945448
0.039281068
0.0167471
0.13293613
0.13108791
0.12765949
0.1233883
0.11851405
0.11286456
0.10603664
0.097555335
0.086960967
0.073851933
0.057945038
0.039280852
0.016747127
0.13294473
0.13109626
0.12766713
0.12339474
0.11851894
0.11286781
0.10603843
0.097555963
0.086960833
0.073851447
0.057944559
0.039280615
0.016747149
0.13295251
0.1311038
0.12767399
0.12340043
0.11852316
0.1128705
0.10603976
0.097556252
0.086960471
0.073850828
0.057944021
0.03928036
0.016747168
0.13295952
0.13111057
0.12768009
0.12340542
0.11852675
0.11287266
0.10604067
0.097556232
0.086959904
0.073850093
0.057943429
0.039280089
0.016747183
0.13296583
0.13111663
0.1276855
0.12340976
0.11852977
0.11287434
0.1060412
0.097555936
0.086959156
0.073849255
0.057942791
0.039279804
0.016747195
0.13297149
0.13112204
0.12769028
0.12341352
0.11853226
0.11287558
0.10604139
0.097555397
0.086958252
0.073848332
0.057942117
0.039279507
0.016747205
0.13297659
0.13112689
0.1276945
0.12341675
0.1185343
0.11287645
0.10604129
0.097554654
0.08695722
0.073847341
0.057941413
0.0392792
0.016747211
0.13298121
0.13113124
0.12769824
0.12341953
0.11853594
0.11287699
0.10604095
0.097553747
0.086956092
0.073846304
0.057940693
0.039278886
0.016747215
0.13298542
0.13113519
0.12770157
0.12342193
0.11853726
0.11287727
0.10604042
0.097552722
0.086954901
0.073845242
0.057939967
0.039278569
0.016747217
0.13298931
0.13113879
0.12770456
0.12342402
0.11853831
0.11287736
0.10603976
0.097551624
0.086953685
0.073844184
0.057939254
0.039278259
0.016747216
0.13299293
0.13114212
0.12770728
0.12342586
0.11853917
0.1128773
0.10603902
0.097550499
0.086952479
0.073843155
0.05793857
0.039277963
0.016747215
0.13299634
0.13114524
0.12770979
0.12342752
0.11853988
0.11287716
0.10603825
0.097549385
0.086951314
0.073842179
0.057937931
0.03927769
0.016747214
0.13299956
0.13114817
0.12771213
0.12342903
0.11854049
0.11287696
0.10603747
0.09754831
0.086950212
0.07384127
0.057937347
0.039277446
0.016747212
0.13300261
0.13115093
0.12771431
0.12343041
0.11854101
0.11287673
0.10603671
0.097547288
0.086949183
0.073840437
0.057936824
0.039277236
0.016747211
0.13300546
0.1311535
0.12771632
0.12343166
0.11854145
0.11287647
0.10603597
0.097546316
0.086948225
0.073839676
0.05793636
0.039277062
0.01674721
0.13300806
0.13115585
0.12771814
0.12343276
0.11854178
0.11287616
0.10603522
0.097545379
0.086947321
0.073838973
0.057935945
0.039276918
0.016747211
0.13301035
0.13115792
0.12771971
0.12343366
0.11854198
0.11287577
0.10603445
0.097544448
0.086946445
0.073838307
0.057935564
0.039276798
0.016747212
0.13301227
0.13115964
0.12772098
0.12343431
0.118542
0.11287526
0.1060336
0.097543487
0.086945565
0.073837649
0.057935196
0.039276688
0.016747212
0.13301372
0.13116094
0.12772189
0.12343467
0.11854178
0.11287458
0.10603265
0.097542465
0.086944654
0.073836979
0.057934824
0.03927658
0.016747212
0.13301465
0.13116175
0.12772237
0.12343468
0.1185413
0.11287371
0.10603156
0.097541356
0.086943689
0.073836276
0.057934435
0.039276464
0.016747211
0.13301499
0.13116203
0.12772238
0.1234343
0.11854052
0.11287262
0.10603033
0.097540149
0.086942662
0.073835537
0.057934025
0.039276332
0.016747207
0.13301472
0.13116173
0.1277219
0.12343352
0.11853943
0.11287131
0.10602894
0.097538843
0.086941576
0.073834764
0.05793359
0.039276179
0.016747202
0.13301382
0.13116085
0.12772092
0.12343233
0.11853803
0.11286978
0.1060274
0.097537446
0.08694044