/*--------------------------------*- C++ -*----------------------------------*\
| =========                 |                                                 |
| \\      /  F ield         | OpenFOAM: The Open Source CFD Toolbox           |
|  \\    /   O peration     | Version:  2506                                  |
|   \\  /    A nd           | Website:  www.openfoam.com                      |
|    \\/     M anipulation  |                                                 |
\*---------------------------------------------------------------------------*/
FoamFile
{
    version     2.0;
    format      ascii;
    arch        "LSB;label=32;scalar=64";
    class       volScalarField;
    location    "8000/water";
    object      epsilon;
}
// * * * * * * * * * * * * * * * * * * * * * * * * * * * * * * * * * * * * * //

dimensions      [0 2 -3 0 0 0 0];

internalField   nonuniform List<scalar> 
2600
(
8.8079773e-05
8.8079245e-05
8.8079271e-05
8.807949e-05
8.8079744e-05
8.8080245e-05
8.8082926e-05
8.8104349e-05
8.8272771e-05
8.9512908e-05
9.8428186e-05
0.00017145296
0.0010138716
6.7789348e-05
6.7791881e-05
6.7793339e-05
6.7794963e-05
6.7796901e-05
6.7799886e-05
6.7810178e-05
6.7875511e-05
6.8312468e-05
7.1039872e-05
8.7857083e-05
0.00021159534
0.0014669324
5.3500886e-05
5.3503148e-05
5.3504846e-05
5.3506859e-05
5.3509287e-05
5.3513643e-05
5.3532992e-05
5.3656306e-05
5.4399641e-05
5.8506995e-05
8.1500797e-05
0.00023956052
0.0017068244
4.3127504e-05
4.3128883e-05
4.3130503e-05
4.3132598e-05
4.3135149e-05
4.3140834e-05
4.3171684e-05
4.3362646e-05
4.4413342e-05
4.9710824e-05
7.7552644e-05
0.00025818579
0.0017816909
3.539909e-05
3.5400132e-05
3.5401605e-05
3.5403513e-05
3.5405834e-05
3.5412916e-05
3.5457613e-05
3.5722605e-05
3.7073304e-05
4.3450503e-05
7.5629286e-05
0.00027290618
0.0017622817
2.9510599e-05
2.9511446e-05
2.95127e-05
2.9514227e-05
2.9516143e-05
2.9525119e-05
2.9586798e-05
2.9933924e-05
3.159515e-05
3.9095388e-05
7.5939385e-05
0.00028837858
0.0017002497
2.4935213e-05
2.4935877e-05
2.4936847e-05
2.4937875e-05
2.4939416e-05
2.4951342e-05
2.503458e-05
2.5477125e-05
2.7489448e-05
3.6318413e-05
7.8818158e-05
0.0003073199
0.0016256765
2.1318423e-05
2.1318913e-05
2.1319549e-05
2.132003e-05
2.1321464e-05
2.1338095e-05
2.144948e-05
2.2008273e-05
2.4447975e-05
3.4968795e-05
8.4593389e-05
0.00033066897
0.0015541994
1.8415642e-05
1.8415958e-05
1.8416233e-05
1.8416208e-05
1.8418091e-05
1.8442025e-05
1.8590687e-05
1.9295945e-05
2.2279378e-05
3.5010665e-05
9.3512814e-05
0.00035786641
0.0014930959
1.6054297e-05
1.6054439e-05
1.6054351e-05
1.6053968e-05
1.6057197e-05
1.6092028e-05
1.6290179e-05
1.7183376e-05
2.0872546e-05
3.6486908e-05
0.00010564207
0.00038720676
0.0014449141
1.411016e-05
1.4110129e-05
1.4109712e-05
1.4109249e-05
1.4115119e-05
1.4165612e-05
1.4429188e-05
1.5565379e-05
2.0175367e-05
3.9486471e-05
0.00012074249
0.00041640752
0.0014094648
1.249217e-05
1.2491978e-05
1.249131e-05
1.24912e-05
1.2501471e-05
1.2573786e-05
1.2923263e-05
1.4374121e-05
2.0181311e-05
4.4103574e-05
0.00013819401
0.00044331751
0.0013850187
1.1132483e-05
1.1132152e-05
1.1131368e-05
1.1132227e-05
1.1149209e-05
1.1251189e-05
1.1712642e-05
1.3570321e-05
2.0918928e-05
5.0386673e-05
0.00015703479
0.00046647967
0.0013691707
9.9797899e-06
9.9793621e-06
9.9786681e-06
9.9813266e-06
1.0007987e-05
1.0149541e-05
1.0756002e-05
1.3137755e-05
2.2440689e-05
5.8285038e-05
0.00017613324
0.00048532287
0.0013594869
8.994766e-06
8.994305e-06
8.9939894e-06
8.9995396e-06
9.0396464e-06
9.2332357e-06
1.0026406e-05
1.3079617e-05
2.4808572e-05
6.7609618e-05
0.00019442665
0.00050000485
0.0013539038
8.1468971e-06
8.1464947e-06
8.1469469e-06
8.1567947e-06
8.2150975e-06
8.4763588e-06
9.5087284e-06
1.3415553e-05
2.8075259e-05
7.8026839e-05
0.0002111215
0.00051110136
0.0013508788
7.4122408e-06
7.412023e-06
7.4137548e-06
7.4296903e-06
7.5121568e-06
7.8606834e-06
9.1980663e-06
1.4178291e-05
3.226233e-05
8.9094586e-05
0.00022578146
0.00051932557
0.0013493668
6.7718206e-06
6.7719549e-06
6.7756276e-06
6.7999151e-06
6.9140283e-06
7.3743439e-06
9.0987624e-06
1.5408887e-05
3.7339828e-05
0.00010033155
0.00023829849
0.00052535582
0.0013487149
6.2104575e-06
6.2111621e-06
6.2176208e-06
6.2531142e-06
6.4082476e-06
7.0110033e-06
9.2236697e-06
1.7149875e-05
4.3213605e-05
0.00011129559
0.0002487951
0.00052976263
0.0013485457
5.7159095e-06
5.7174657e-06
5.7277834e-06
5.7780724e-06
5.9859581e-06
6.7693776e-06
9.5932706e-06
1.9436233e-05
4.9726068e-05
0.00012164394
0.0002575155
0.00053299528
0.0013486594
5.2782322e-06
5.2809984e-06
5.2965329e-06
5.3661281e-06
5.6414368e-06
6.6530083e-06
1.0234238e-05
2.2285131e-05
5.6672018e-05
0.00013115953
0.0002647416
0.00053539452
0.0013489619
4.889296e-06
4.893728e-06
4.9161934e-06
5.0107595e-06
5.3718124e-06
6.6701646e-06
1.1177042e-05
2.5686554e-05
6.382568e-05
0.00013974422
0.00027074338
0.00053721259
0.0013494179
4.5424222e-06
4.549097e-06
4.5806559e-06
4.707302e-06
5.1769357e-06
6.8337317e-06
1.2452336e-05
2.9597477e-05
7.0970791e-05
0.00014739148
0.0002757568
0.0005386328
0.0013500205
4.2321037e-06
4.2417515e-06
4.2851315e-06
4.4527719e-06
5.0593678e-06
7.1609029e-06
1.4086152e-05
3.394183e-05
7.7925113e-05
0.00015415332
0.00027997823
0.0005397864
0.0013507744
3.9537926e-06
3.9673375e-06
4.0259782e-06
4.2457763e-06
5.0244499e-06
7.6724686e-06
1.6094424e-05
3.8616918e-05
8.455395e-05
0.00016011197
0.00028356674
0.00054076614
0.0013516866
3.7037376e-06
3.7223496e-06
3.8005873e-06
4.0864974e-06
5.0804009e-06
8.3914976e-06
1.8477844e-05
4.350491e-05
9.0772059e-05
0.00016536002
0.00028664926
0.00054163684
0.0013527623
3.4788613e-06
3.504022e-06
3.6073203e-06
3.9767408e-06
5.2383695e-06
9.3412706e-06
2.1218351e-05
4.8486363e-05
9.6537093e-05
0.00016998886
0.00028932619
0.00054244334
0.0013540034
3.2766694e-06
3.3102566e-06
3.4454921e-06
3.9200366e-06
5.5123349e-06
1.0542478e-05
2.427837e-05
5.3452376e-05
0.00010183911
0.00017408281
0.00029167657
0.00054321638
0.0013554083
3.0951868e-06
3.1395803e-06
3.315394e-06
3.9217755e-06
5.9187331e-06
1.2009945e-05
2.7603266e-05
5.8312862e-05
0.0001066899
0.0001777168
0.00029376258
0.00054397677
0.0013569729
2.9329181e-06
2.991133e-06
3.2183574e-06
3.9893517e-06
6.4756801e-06
1.3749403e-05
3.112658e-05
6.3000085e-05
0.00011111418
0.00018095591
0.00029563313
0.00054473838
0.0013586904
2.7888292e-06
2.8646819e-06
3.1568532e-06
4.132263e-06
7.2016968e-06
1.5755029e-05
3.4776808e-05
6.7468124e-05
0.00011514329
0.00018385586
0.00029732666
0.00054550993
0.0013605531
2.6623516e-06
2.7606641e-06
3.1346228e-06
4.362102e-06
8.1139275e-06
1.8008404e-05
3.8484156e-05
7.1689805e-05
0.00011881108
0.00018646428
0.00029887505
0.00054629401
0.0013625492
2.5534087e-06
2.680258e-06
3.1568304e-06
4.6923496e-06
9.2259799e-06
2.0479254e-05
4.21859e-05
7.5652555e-05
0.00012215122
0.00018882083
0.00030030031
0.00054708343
0.001364665
2.4624667e-06
2.6254826e-06
3.2302146e-06
5.1378782e-06
1.0545684e-05
2.3127917e-05
4.5829652e-05
7.9354438e-05
0.00012519597
0.00019095973
0.00030162121
0.00054787011
0.0013668874
2.3906118e-06
2.5993266e-06
3.3632044e-06
5.7140888e-06
1.2073206e-05
2.5908984e-05
4.9374526e-05
8.2800766e-05
0.00012797521
0.0001929092
0.00030285018
0.00054865286
0.0013692048
2.3396576e-06
2.6059009e-06
3.5659449e-06
6.4356561e-06
1.379994e-05
2.8775318e-05
5.2790668e-05
8.6001442e-05
0.00013051585
0.00019469159
0.00030399376
0.00054944272
0.0013716092
2.3122834e-06
2.6506067e-06
3.8501615e-06
7.3149526e-06
1.5708512e-05
3.1681691e-05
5.6057926e-05
8.896944e-05
0.00013284315
0.00019632773
0.00030505437
0.00055025018
0.0013740956
2.3122039e-06
2.740297e-06
4.2287852e-06
8.3603374e-06
1.777392e-05
3.4587407e-05
5.9163894e-05
9.1718484e-05
0.000134977
0.0001978295
0.00030604752
0.00055107622
0.0013766577
2.3443664e-06
2.8833942e-06
4.7152656e-06
9.5746038e-06
1.9965608e-05
3.7457894e-05
6.2102575e-05
9.4263947e-05
0.00013693775
0.00019920349
0.00030698675
0.00055192215
0.0013792894
2.4151612e-06
3.0899098e-06
5.3225439e-06
1.0953904e-05
2.2249993e-05
4.026506e-05
6.4872079e-05
9.6618924e-05
0.00013873802
0.00020046565
0.00030788006
0.00055278756
0.0013819844
2.5326204e-06
3.371289e-06
6.0617304e-06
1.2487421e-05
2.4593018e-05
4.2987257e-05
6.7474462e-05
9.8797812e-05
0.00014038632
0.00020163083
0.00030873382
0.00055367122
0.0013847362
2.7065544e-06
3.7399968e-06
6.9406286e-06
1.4157863e-05
2.6962172e-05
4.5608169e-05
6.9912765e-05
0.00010081055
0.00014189658
0.00020271014
0.00030955281
0.00055457138
0.0013875384
2.94855e-06
4.2087759e-06
7.96235e-06
1.5942734e-05
2.9328091e-05
4.8116704e-05
7.2192973e-05
0.00010266311
0.00014328329
0.00020371267
0.00031034059
0.00055548596
0.0013903847
3.2717206e-06
4.7895533e-06
9.124282e-06
1.7815986e-05
3.1665001e-05
5.0504533e-05
7.431848e-05
0.00010436656
0.00014455809
0.0002046458
0.00031109971
0.0005564126
0.0013932687
3.6900857e-06
5.4920728e-06
1.0417683e-05
1.9750012e-05
3.3951699e-05
5.2768183e-05
7.6289669e-05
0.00010593299
0.00014573089
0.00020551555
0.00031183197
0.00055734877
0.0013961839
4.2174848e-06
6.3224279e-06
1.1827952e-05
2.171714e-05
3.6170246e-05
5.4901159e-05
7.8113757e-05
0.00010737249
0.00014680993
0.00020632674
0.00031253851
0.0005582918
0.0013991244
4.8660262e-06
7.2817746e-06
1.3335593e-05
2.3691123e-05
3.8306687e-05
5.6898167e-05
7.9798304e-05
0.00010869389
0.00014780214
0.00020708321
0.00031321993
0.00055923889
0.0014020836
5.6442497e-06
8.3655567e-06
1.4917866e-05
2.564878e-05
4.0344257e-05
5.8760206e-05
8.1350098e-05
0.00010990478
0.00014871321
0.00020778792
0.00031387635
0.00056018711
0.0014050556
6.5553599e-06
9.5634602e-06
1.6550686e-05
2.756532e-05
4.2272541e-05
6.0488808e-05
8.2775227e-05
0.00011101156
0.00014954783
0.00020844308
0.00031450744
0.00056113339
0.0014080338
7.5961543e-06
1.0860442e-05
1.8207369e-05
2.9419102e-05
4.4084529e-05
6.2085814e-05
8.4079034e-05
0.0001120196
0.00015030969
0.00020905022
0.00031511249
0.00056207453
0.0014110119
8.7563165e-06
1.2235551e-05
1.9861232e-05
3.1193216e-05
4.5774965e-05
6.3553181e-05
8.5266112e-05
0.00011293328
0.00015100165
0.00020961024
0.00031569039
0.00056300713
0.0014139831
1.0017523e-05
1.3664335e-05
2.1488449e-05
3.2873859e-05
4.7340054e-05
6.4892868e-05
8.6340348e-05
0.00011375612
0.00015162581
0.00021012348
0.00031623968
0.00056392758
0.0014169405
1.1355903e-05
1.5121212e-05
2.3068172e-05
3.4450179e-05
4.877729e-05
6.6106813e-05
8.7304986e-05
0.00011449085
0.00015218355
0.00021058976
0.00031675854
0.00056483208
0.0014198766
1.2744266e-05
1.6581082e-05
2.4582903e-05
3.5914124e-05
5.0085355e-05
6.7196971e-05
8.816274e-05
0.00011513953
0.00015267569
0.00021100844
0.00031724484
0.00056571658
0.0014227835
1.4154483e-05
1.8020638e-05
2.6018604e-05
3.7260265e-05
5.1264092e-05
6.8165414e-05
8.8915933e-05
0.0001157037
0.00015310253
0.00021137849
0.00031769617
0.00056657679
0.0014256525
1.5559581e-05
1.9419302e-05
2.7364606e-05
3.8485597e-05
5.2314489e-05
6.9014449e-05
8.9566664e-05
0.0001161845
0.00015346401
0.00021169859
0.00031810989
0.00056740824
0.0014284745
1.6935339e-05
2.0759787e-05
2.8613377e-05
3.9589302e-05
5.3238668e-05
6.9746755e-05
9.0116986e-05
0.00011658288
0.00015375982
0.00021196723
0.00031848322
0.00056820631
0.0014312397
1.8261268e-05
2.2028325e-05
2.9760205e-05
4.0572476e-05
5.403984e-05
7.0365493e-05
9.0569074e-05
0.00011689975
0.0001539896
0.00021218283
0.00031881335
0.00056896634
0.0014339378
1.9521047e-05
2.3214635e-05
3.0802833e-05
4.1437839e-05
5.4722225e-05
7.0874389e-05
9.0925387e-05
0.00011713613
0.00015415306
0.00021234388
0.00031909755
0.00056968371
0.0014365579
2.0702514e-05
2.4311687e-05
3.1741084e-05
4.2189434e-05
5.5290935e-05
7.1277769e-05
9.1188786e-05
0.00011729336
0.00015425014
0.00021244914
0.00031933337
0.00057035403
0.0014390892
2.1797369e-05
2.5315352e-05
3.2576488e-05
4.2832331e-05
5.5751826e-05
7.1580555e-05
9.1362622e-05
0.00011737318
0.00015428119
0.00021249772
0.0003195187
0.00057097324
0.0014415207
2.2800693e-05
2.6223983e-05
3.3311941e-05
4.3372361e-05
5.6111336e-05
7.1788217e-05
9.1450775e-05
0.00011737786
0.00015424703
0.00021248926
0.00031965199
0.00057153784
0.0014438417
2.3710404e-05
2.7037978e-05
3.3951388e-05
4.3815874e-05
5.6376316e-05
7.1906691e-05
9.1457656e-05
0.00011731022
0.00015414911
0.000212424
0.00031973233
0.00057204498
0.0014460425
2.4526703e-05
2.7759362e-05
3.4499556e-05
4.416953e-05
5.6553871e-05
7.1942285e-05
9.1388172e-05
0.00011717368
0.00015398952
0.00021230292
0.00031975956
0.00057249259
0.0014481138
2.5251564e-05
2.8391406e-05
3.4961709e-05
4.4440132e-05
5.6651215e-05
7.1901562e-05
9.124766e-05
0.00011697222
0.000153771
0.0002121277
0.00031973431
0.00057287952
0.0014500479
2.5888281e-05
2.8938289e-05
3.5343458e-05
4.4634489e-05
5.6675549e-05
7.1791239e-05
9.1041809e-05
0.00011671035
0.00015349696
0.00021190078
0.00031965804
0.00057320551
0.0014518386
2.6441086e-05
2.940482e-05
3.5650595e-05
4.4759307e-05
5.6633953e-05
7.1618073e-05
9.0776561e-05
0.000116393
0.00015317138
0.00021162529
0.000319533
0.00057347126
0.0014534809
2.6914838e-05
2.9796201e-05
3.5888961e-05
4.4821111e-05
5.6533309e-05
7.1388771e-05
9.045802e-05
0.00011602549
0.00015279875
0.000211305
0.00031936217
0.00057367836
0.0014549721
2.7314775e-05
3.011784e-05
3.6064349e-05
4.4826187e-05
5.6380241e-05
7.110991e-05
9.0092349e-05
0.00011561336
0.000152384
0.00021094421
0.00031914917
0.00057382919
0.0014563109
2.7646314e-05
3.0375214e-05
3.6182419e-05
4.478054e-05
5.6181063e-05
7.0787861e-05
8.9685684e-05
0.00011516233
0.00015193235
0.00021054766
0.00031889815
0.00057392685
0.0014574979
2.7914914e-05
3.0573749e-05
3.6248647e-05
4.4689866e-05
5.5941757e-05
7.0428745e-05
8.9244051e-05
0.00011467816
0.0001514492
0.00021012035
0.00031861364
0.00057397503
0.0014585354
2.8125957e-05
3.0718742e-05
3.6268276e-05
4.4559538e-05
5.5667948e-05
7.0038382e-05
8.87733e-05
0.00011416656
0.00015094006
0.0002096675
0.00031830044
0.00057397784
0.0014594272
2.8284675e-05
3.0815303e-05
3.6246294e-05
4.4394595e-05
5.5364899e-05
6.9622266e-05
8.8279042e-05
0.00011363314
0.00015041038
0.00020919437
0.00031796348
0.00057393969
0.0014601784
2.8396092e-05
3.0868313e-05
3.6187413e-05
4.4199746e-05
5.5037504e-05
6.9185539e-05
8.77666e-05
0.00011308327
0.00014986551
0.00020870615
0.00031760768
0.00057386517
0.0014607954
2.846499e-05
3.0882398e-05
3.609606e-05
4.3979367e-05
5.4690292e-05
6.8732984e-05
8.7240981e-05
0.00011252209
0.0001493106
0.00020820788
0.00031723786
0.0005737589
0.0014612854
2.8495887e-05
3.0861914e-05
3.5976372e-05
4.3737512e-05
5.4327436e-05
6.8269013e-05
8.6706839e-05
0.00011195443
0.00014875052
0.00020770437
0.00031685863
0.00057362544
0.0014616562
2.849302e-05
3.0810941e-05
3.58322e-05
4.3477921e-05
5.3952762e-05
6.7797674e-05
8.6168468e-05
0.00011138474
0.00014818982
0.00020720011
0.00031647435
0.0005734692
0.0014619164
2.8460349e-05
3.0733278e-05
3.5667114e-05
4.3204029e-05
5.3569755e-05
6.732265e-05
8.5629785e-05
0.00011081715
0.00014763269
0.00020669922
0.00031608902
0.00057329434
0.0014620747
2.8401554e-05
3.0632452e-05
3.5484409e-05
4.2918982e-05
5.3181584e-05
6.684727e-05
8.5094334e-05
0.00011025536
0.0001470829
0.00020620547
0.00031570626
0.00057310478
0.00146214
2.832004e-05
3.0511723e-05
3.5287114e-05
4.2625646e-05
5.2791105e-05
6.6374522e-05
8.4565287e-05
0.0001097027
0.00014654385
0.00020572216
0.00031532932
0.0005729041
0.0014621212
2.821895e-05
3.0374091e-05
3.5078006e-05
4.2326625e-05
5.2400885e-05
6.5907063e-05
8.4045453e-05
0.00010916211
0.0001460185
0.00020525221
0.000314961
0.00057269556
0.0014620271
2.8101172e-05
3.022231e-05
3.4859619e-05
4.202427e-05
5.2013212e-05
6.5447241e-05
8.3537291e-05
0.00010863613
0.00014550942
0.00020479809
0.00031460373
0.00057248206
0.0014618662
2.7969351e-05
3.0058896e-05
3.4634256e-05
4.1720696e-05
5.1630115e-05
6.4997104e-05
8.3042928e-05
0.00010812695
0.00014501878
0.00020436188
0.00031425951
0.00057226618
0.0014616465
2.7825904e-05
2.9886145e-05
3.4404004e-05
4.1417796e-05
5.1253381e-05
6.4558427e-05
8.2564172e-05
0.0001076364
0.00014454835
0.00020394524
0.00031392999
0.00057205015
0.001461376
2.7673029e-05
2.9706139e-05
3.4170745e-05
4.1117254e-05
5.0884564e-05
6.413272e-05
8.2102535e-05
0.00010716597
0.00014409958
0.0002035495
0.00031361641
0.00057183582
0.001461062
2.7512723e-05
2.9520763e-05
3.3936167e-05
4.0820558e-05
5.052501e-05
6.3721255e-05
8.1659253e-05
0.00010671686
0.00014367355
0.00020317563
0.00031331983
0.00057162458
0.001460711
2.7346791e-05
2.9331715e-05
3.3701779e-05
4.0529015e-05
5.0175865e-05
6.3325078e-05
8.1235304e-05
0.00010628996
0.00014327105
0.00020282426
0.00031304075
0.0005714165
0.0014603286
2.7176857e-05
2.9140521e-05
3.3468923e-05
4.0243762e-05
4.9838097e-05
6.2945033e-05
8.0831437e-05
0.00010588594
0.00014289263
0.0002024959
0.00031277957
0.00057120937
0.0014599199
2.7004381e-05
2.8948545e-05
3.3238783e-05
3.996578e-05
4.9512502e-05
6.2581771e-05
8.0448184e-05
0.00010550518
0.0001425385
0.00020219045
0.00031253537
0.00057100477
0.0014594899
2.683067e-05
2.8756998e-05
3.3012399e-05
3.9695905e-05
4.9199727e-05
6.2235783e-05
8.0085902e-05
0.00010514794
0.00014220887
0.00020190802
0.00031230614
0.00057080577
0.001459044
2.6656885e-05
2.8566954e-05
3.2790675e-05
3.943484e-05
4.8900281e-05
6.1907403e-05
7.9744775e-05
0.00010481424
0.00014190344
0.00020164699
0.00031209276
0.00057061395
0.0014585872
2.6484054e-05
2.8379358e-05
3.2574393e-05
3.918317e-05
4.8614543e-05
6.1596828e-05
7.942482e-05
0.00010450389
0.00014162171
0.00020140639
0.00031189575
0.00057043045
0.0014581238
2.6313086e-05
2.8195036e-05
3.2364224e-05
3.8941365e-05
4.8342787e-05
6.1304148e-05
7.9125973e-05
0.00010421666
0.0001413622
0.0002011862
0.00031171519
0.00057025604
0.001457658
2.6144775e-05
2.8014705e-05
3.2160731e-05
3.8709801e-05
4.8085187e-05
6.1029341e-05
7.8847986e-05
0.00010395152
0.00014112445
0.00020098611
0.00031155092
0.00057009121
0.0014571932
2.5979814e-05
2.7838983e-05
3.1964388e-05
3.8488762e-05
4.7841822e-05
6.0772273e-05
7.8590331e-05
0.00010370763
0.00014090796
0.00020080562
0.0003114026
0.0005699362
0.0014567324
2.58188e-05
2.7668397e-05
3.1775581e-05
3.8278453e-05
4.7612702e-05
6.05327e-05
7.8352148e-05
0.00010348448
0.00014071214
0.0002006441
0.00031126971
0.00056979112
0.0014562784
2.5662247e-05
2.7503394e-05
3.1594628e-05
3.8079029e-05
4.7397752e-05
6.0309951e-05
7.8132953e-05
0.00010328146
0.00014053626
0.00020050081
0.00031115167
0.00056965593
0.0014558334
2.5510594e-05
2.7344355e-05
3.1421795e-05
3.7890529e-05
4.7196568e-05
6.0103635e-05
7.7932197e-05
0.00010309787
0.00014037954
0.00020037493
0.0003110478
0.00056953048
0.0014553994
2.5364223e-05
2.7191599e-05
3.1257208e-05
3.7712805e-05
4.7008892e-05
5.9913319e-05
7.7749281e-05
0.00010293297
0.00014024111
0.00020026557
0.00031095736
0.00056941457
0.001454978
2.5223412e-05
2.7045316e-05
3.110091e-05
3.7545744e-05
4.6834432e-05
5.9738529e-05
7.7583559e-05
0.00010278596
0.00014012009
0.00020017183
0.00031087958
0.00056930793
0.0014545706
2.5088363e-05
2.6905642e-05
3.0952912e-05
3.7389198e-05
4.6672864e-05
5.9578757e-05
7.7434348e-05
0.00010265601
0.00014001552
0.00020009277
0.00031081369
0.00056921024
0.0014541783
2.4959228e-05
2.6772665e-05
3.0813186e-05
3.7242989e-05
4.6523831e-05
5.9433464e-05
7.7300935e-05
0.00010254227
0.00013992647
0.00020002742
0.00031075889
0.00056912117
0.001453802
2.4836109e-05
2.6646435e-05
3.0681672e-05
3.7106904e-05
4.6386951e-05
5.9302088e-05
7.7182586e-05
0.00010244385
0.00013985198
0.00019997485
0.00031071439
0.00056904033
0.0014534423
2.4719071e-05
2.6526965e-05
3.0558276e-05
3.6980707e-05
4.6261817e-05
5.9184044e-05
7.7078551e-05
0.00010235987
0.00013979108
0.00019993411
0.00031067942
0.00056896735
0.0014530997
2.4608144e-05
2.6414235e-05
3.0442876e-05
3.6864135e-05
4.6147999e-05
5.907873e-05
7.6988066e-05
0.00010228944
0.00013974281
0.00019990428
0.00031065322
0.00056890185
0.0014527746
2.4503323e-05
2.6308193e-05
3.0335324e-05
3.6756904e-05
4.6045055e-05
5.8985536e-05
7.6910367e-05
0.00010223168
0.00013970625
0.00019988446
0.00031063504
0.00056884341
0.0014524672
2.4404579e-05
2.6208763e-05
3.0235449e-05
3.6658709e-05
4.5952524e-05
5.890384e-05
7.6844687e-05
0.00010218571
0.00013968048
0.00019987378
0.00031062418
0.00056879166
0.0014521775
2.4311853e-05
2.6115844e-05
3.0143058e-05
3.6569232e-05
4.5869937e-05
5.8833019e-05
7.6790264e-05
0.00010215068
0.00013966459
0.00019987139
0.00031061996
0.00056874619
0.0014519055
2.4225066e-05
2.6029313e-05
3.005794e-05
3.6488139e-05
4.5796817e-05
5.8772447e-05
7.6746345e-05
0.00010212575
0.00013965772
0.00019987648
0.00031062172
0.00056870664
0.001451651
2.4144114e-05
2.5949027e-05
2.9979869e-05
3.6415085e-05
4.573268e-05
5.8721505e-05
7.6712189e-05
0.00010211008
0.00013965905
0.00019988829
0.00031062886
0.00056867262
0.0014514137
2.4068879e-05
2.5874828e-05
2.9908604e-05
3.6349717e-05
4.5677044e-05
5.8679575e-05
7.668707e-05
0.0001021029
0.00013966776
0.00019990608
0.00031064077
0.00056864377
0.0014511934
2.3999225e-05
2.5806542e-05
2.9843893e-05
3.6291674e-05
4.5629422e-05
5.8646049e-05
7.6670278e-05
0.00010210343
0.0001396831
0.00019992915
0.00031065691
0.00056861973
0.0014509896
2.3934999e-05
2.5743981e-05
2.9785476e-05
3.6240594e-05
4.5589334e-05
5.8620332e-05
7.6661126e-05
0.00010211094
0.00013970432
0.00019995686
0.00031067677
0.00056860016
0.0014508019
2.387604e-05
2.5686948e-05
2.9733082e-05
3.6196108e-05
4.5556301e-05
5.8601839e-05
7.6658946e-05
0.00010212472
0.00013973075
0.00019998858
0.00031069985
0.00056858474
0.0014506297
2.3822172e-05
2.5635237e-05
2.9686439e-05
3.6157851e-05
4.5529852e-05
5.8590001e-05
7.6663097e-05
0.00010214409
0.00013976172
0.00020002374
0.00031072571
0.00056857315
0.0014504727
2.3773212e-05
2.5588631e-05
2.9645266e-05
3.6125455e-05
4.5509525e-05
5.8584265e-05
7.6672962e-05
0.00010216841
0.00013979663
0.0002000618
0.00031075393
0.0005685651
0.0014503302
2.3728969e-05
2.5546911e-05
2.9609282e-05
3.6098559e-05
4.5494866e-05
5.8584096e-05
7.6687947e-05
0.00010219708
0.00013983489
0.00020010226
0.00031078411
0.0005685603
0.0014502016
2.3689245e-05
2.5509852e-05
2.9578206e-05
3.6076802e-05
4.5485433e-05
5.8588977e-05
7.670749e-05
0.00010222951
0.00013987596
0.00020014466
0.00031081591
0.00056855847
0.0014500863
2.3653839e-05
2.5477224e-05
2.9551754e-05
3.6059832e-05
4.5480796e-05
5.8598413e-05
7.6731052e-05
0.00010226518
0.00013991934
0.00020018857
0.00031084897
0.00056855935
0.0014499838
2.3622544e-05
2.5448797e-05
2.9529647e-05
3.6047301e-05
4.5480537e-05
5.8611927e-05
7.6758124e-05
0.00010230356
0.00013996456
0.00020023359
0.000310883
0.00056856268
0.0014498935
2.3595154e-05
2.5424341e-05
2.9511607e-05
3.6038871e-05
4.5484255e-05
5.8629065e-05
7.6788224e-05
0.00010234419
0.00014001119
0.00020027935
0.0003109177
0.0005685682
0.0014498147
2.3571457e-05
2.5403623e-05
2.9497358e-05
3.603421e-05
4.5491561e-05
5.8649395e-05
7.6820898e-05
0.00010238662
0.00014005883
0.00020032553
0.00031095281
0.00056857566
0.0014497467
2.3551246e-05
2.5386416e-05
2.9486632e-05
3.6032999e-05
4.5502084e-05
5.8672505e-05
7.6855721e-05
0.00010243044
0.0001401071
0.00020037181
0.00031098808
0.00056858483
0.001449689
2.3534311e-05
2.537249e-05
2.9479164e-05
3.6034926e-05
4.5515467e-05
5.8698007e-05
7.6892294e-05
0.00010247527
0.00014015567
0.00020041792
0.00031102329
0.00056859548
0.0014496409
2.3520445e-05
2.5361623e-05
2.9474697e-05
3.6039694e-05
4.5531372e-05
5.8725535e-05
7.6930246e-05
0.00010252075
0.00014020424
0.00020046362
0.00031105826
0.0005686074
0.0014496017
2.3509444e-05
2.5353595e-05
2.9472981e-05
3.6047013e-05
4.5549478e-05
5.8754747e-05
7.6969235e-05
0.00010256658
0.00014025253
0.00020050869
0.0003110928
0.0005686204
0.0014495707
2.3501106e-05
2.534819e-05
2.9473774e-05
3.6056609e-05
4.5569479e-05
5.8785322e-05
7.7008944e-05
0.00010261246
0.0001403003
0.00020055293
0.00031112678
0.00056863434
0.0014495474
2.3495235e-05
2.5345198e-05
2.9476841e-05
3.606822e-05
4.5591089e-05
5.8816962e-05
7.7049081e-05
0.00010265812
0.00014034732
0.00020059618
0.00031116006
0.00056864906
0.0014495311
2.3491638e-05
2.5344416e-05
2.9481957e-05
3.6081596e-05
4.5614038e-05
5.8849389e-05
7.7089381e-05
0.00010270333
0.00014039341
0.0002006383
0.00031119255
0.00056866446
0.0014495213
2.3490128e-05
2.5345646e-05
2.9488907e-05
3.6096499e-05
4.5638074e-05
5.888235e-05
7.7129603e-05
0.00010274788
0.0001404384
0.00020067916
0.00031122415
0.00056868042
0.0014495174
2.3490522e-05
2.5348698e-05
2.9497483e-05
3.6112706e-05
4.5662962e-05
5.8915608e-05
7.7169527e-05
0.00010279158
0.00014048214
0.00020071866
0.00031125478
0.00056869683
0.001449519
2.3492645e-05
2.5353388e-05
2.9507489e-05
3.6130007e-05
4.5688483e-05
5.894895e-05
7.7208955e-05
0.00010283427
0.0001405245
0.00020075671
0.00031128438
0.00056871357
0.0014495257
2.3496327e-05
2.5359541e-05
2.9518738e-05
3.6148203e-05
4.5714435e-05
5.8982177e-05
7.7247712e-05
0.00010287579
0.00014056537
0.00020079324
0.00031131286
0.00056873053
0.0014495369
2.3501405e-05
2.5366988e-05
2.9531052e-05
3.6167109e-05
4.574063e-05
5.9015113e-05
7.7285639e-05
0.00010291602
0.00014060467
0.00020082817
0.00031134017
0.00056874758
0.0014495523
2.3507723e-05
2.5375569e-05
2.9544264e-05
3.6186552e-05
4.5766897e-05
5.9047597e-05
7.7322597e-05
0.00010295486
0.00014064231
0.00020086145
0.00031136626
0.00056876457
0.0014495714
2.3515132e-05
2.5385132e-05
2.9558217e-05
3.6206373e-05
4.579308e-05
5.9079485e-05
7.7358466e-05
0.00010299221
0.00014067823
0.00020089304
0.00031139106
0.00056878137
0.0014495938
2.3523491e-05
2.5395532e-05
2.9572764e-05
3.6226424e-05
4.5819037e-05
5.911065e-05
7.739314e-05
0.00010302798
0.00014071238
0.00020092292
0.00031141454
0.00056879786
0.001449619
2.3532664e-05
2.5406635e-05
2.9587767e-05
3.6246569e-05
4.584464e-05
5.9140981e-05
7.7426534e-05
0.00010306214
0.00014074474
0.00020095106
0.0003114367
0.00056881396
0.0014496465
2.3542526e-05
2.5418311e-05
2.9603099e-05
3.6266685e-05
4.5869777e-05
5.9170382e-05
7.7458574e-05
0.00010309462
0.00014077528
0.00020097747
0.00031145751
0.00056882946
0.0014496758
2.3552958e-05
2.5430444e-05
2.9618643e-05
3.628666e-05
4.5894347e-05
5.9198772e-05
7.7489205e-05
0.00010312541
0.000140804
0.00020100218
0.00031147698
0.00056884413
0.0014497065
2.3563849e-05
2.5442921e-05
2.9634291e-05
3.6306393e-05
4.5918262e-05
5.9226083e-05
7.7518385e-05
0.00010315449
0.00014083092
0.00020102518
0.00031149507
0.00056885796
0.001449738
2.3575095e-05
2.5455642e-05
2.9649944e-05
3.6325795e-05
4.5941448e-05
5.9252262e-05
7.7546085e-05
0.00010318185
0.00014085606
0.00020104654
0.00031151169
0.00056887113
0.0014497703
2.3586601e-05
2.5468511e-05
2.9665514e-05
3.6344787e-05
4.5963842e-05
5.9277265e-05
7.7572288e-05
0.00010320751
0.00014087944
0.00020106623
0.00031152691
0.00056888372
0.001449803
2.3598277e-05
2.5481443e-05
2.9680921e-05
3.6363298e-05
4.5985389e-05
5.9301062e-05
7.7596987e-05
0.00010323149
0.0001409011
0.00020108421
0.00031154085
0.0005688958
0.0014498359
2.3610042e-05
2.5494359e-05
2.9696092e-05
3.6381269e-05
4.6006047e-05
5.9323631e-05
7.7620188e-05
0.0001032538
0.00014092103
0.00020110057
0.00031155358
0.00056890739
0.001449869
2.3621822e-05
2.5507187e-05
2.9710963e-05
3.6398648e-05
4.6025782e-05
5.934496e-05
7.7641896e-05
0.00010327448
0.00014093923
0.0002011154
0.00031156518
0.0005689185
0.001449902
2.3633549e-05
2.5519864e-05
2.9725479e-05
3.6415392e-05
4.604457e-05
5.9365047e-05
7.7662137e-05
0.00010329349
0.00014095579
0.00020112878
0.0003115757
0.00056892913
0.001449935
2.3645161e-05
2.5532331e-05
2.9739589e-05
3.6431466e-05
4.6062394e-05
5.9383897e-05
7.7680895e-05
0.00010331089
0.00014097076
0.00020114076
0.00031158518
0.00056893926
0.0014499677
2.3656604e-05
2.5544538e-05
2.9753253e-05
3.6446843e-05
4.6079244e-05
5.9401502e-05
7.7698186e-05
0.00010332673
0.00014098421
0.00020115142
0.00031159368
0.00056894887
0.00145
2.3667829e-05
2.555644e-05
2.9766436e-05
3.6461502e-05
4.6095109e-05
5.9417858e-05
7.7714049e-05
0.00010334107
0.00014099622
0.00020116082
0.00031160123
0.00056895793
0.0014500318
2.3678793e-05
2.5567999e-05
2.977911e-05
3.6475422e-05
4.6109976e-05
5.9432988e-05
7.7728526e-05
0.00010335397
0.00014100686
0.00020116903
0.00031160788
0.00056896643
0.0014500629
2.3689459e-05
2.5579184e-05
2.9791246e-05
3.6488586e-05
4.612385e-05
5.9446916e-05
7.7741664e-05
0.0001033655
0.00014101619
0.00020117611
0.00031161366
0.00056897437
0.0014500933
2.3699794e-05
2.5589961e-05
2.9802821e-05
3.6500983e-05
4.6136742e-05
5.9459676e-05
7.7753515e-05
0.0001033757
0.00014102428
0.00020118213
0.00031161864
0.00056898176
0.0014501227
2.3709767e-05
2.5600305e-05
2.9813818e-05
3.6512613e-05
4.6148667e-05
5.9471303e-05
7.7764132e-05
0.00010338467
0.00014103122
0.00020118717
0.00031162286
0.0005689886
0.0014501511
2.3719353e-05
2.5610195e-05
2.9824226e-05
3.652348e-05
4.6159648e-05
5.9481836e-05
7.7773571e-05
0.00010339245
0.00014103706
0.00020119129
0.00031162637
0.00056899493
0.0014501784
2.3728531e-05
2.5619614e-05
2.9834039e-05
3.6533589e-05
4.6169709e-05
5.9491318e-05
7.778189e-05
0.00010339913
0.00014104189
0.00020119455
0.00031162924
0.00056900077
0.0014502045
2.3737285e-05
2.5628551e-05
2.9843254e-05
3.6542955e-05
4.6178878e-05
5.9499794e-05
7.7789148e-05
0.00010340476
0.00014104577
0.00020119703
0.00031163151
0.00056900616
0.0014502295
2.3745603e-05
2.5636999e-05
2.9851873e-05
3.6551591e-05
4.6187187e-05
5.950731e-05
7.7795405e-05
0.00010340943
0.00014104878
0.00020119879
0.00031163323
0.0005690111
0.0014502532
2.3753477e-05
2.5644954e-05
2.9859903e-05
3.6559516e-05
4.6194667e-05
5.9513914e-05
7.7800719e-05
0.00010341318
0.00014105098
0.00020119988
0.00031163445
0.00056901563
0.0014502757
2.3760903e-05
2.5652415e-05
2.9867351e-05
3.6566752e-05
4.6201355e-05
5.9519654e-05
7.7805149e-05
0.00010341609
0.00014105243
0.00020120036
0.0003116352
0.00056901976
0.0014502971
2.3767878e-05
2.5659384e-05
2.9874228e-05
3.6573319e-05
4.6207286e-05
5.9524578e-05
7.7808754e-05
0.00010341822
0.0001410532
0.00020120029
0.00031163552
0.00056902348
0.0014503173
2.3774405e-05
2.5665868e-05
2.9880548e-05
3.6579244e-05
4.6212496e-05
5.9528735e-05
7.7811589e-05
0.00010341963
0.00014105335
0.00020119972
0.00031163544
0.00056902681