/*--------------------------------*- C++ -*----------------------------------*\
| =========                 |                                                 |
| \\      /  F ield         | OpenFOAM: The Open Source CFD Toolbox           |
|  \\    /   O peration     | Version:  2506                                  |
|   \\  /    A nd           | Website:  www.openfoam.com                      |
|    \\/     M anipulation  |                                                 |
\*---------------------------------------------------------------------------*/
FoamFile
{
    version     2.0;
    format      ascii;
    arch        "LSB;label=32;scalar=64";
    class       volScalarField;
    location    "8000/water";
    object      k;
}
// * * * * * * * * * * * * * * * * * * * * * * * * * * * * * * * * * * * * * //

dimensions      [0 2 -2 0 0 0 0];

internalField   nonuniform List<scalar> 
2600
(
0.0001992401
0.00019923925
0.00019923929
0.00019923963
0.00019923982
0.00019923914
0.00019923438
0.00019921375
0.00019914651
0.00019904325
0.00019990841
0.00021454267
0.00040955349
0.00017237279
0.00017237614
0.00017237826
0.00017238051
0.0001723821
0.00017237949
0.00017235884
0.00017227555
0.000172027
0.00017162102
0.00017329371
0.00020304806
0.00052391648
0.00015132731
0.00015133049
0.00015133306
0.00015133552
0.00015133516
0.00015132207
0.00015126283
0.00015106462
0.00015055477
0.00014985944
0.0001528957
0.00019760629
0.00057958156
0.00013448336
0.00013448533
0.00013448764
0.00013448905
0.00013448325
0.00013445009
0.00013432997
0.00013398205
0.00013321503
0.00013247936
0.00013787909
0.00019702317
0.00059640815
0.00012075551
0.00012075697
0.00012075853
0.00012075718
0.00012074152
0.0001206782
0.00012048052
0.00011997843
0.0001190486
0.00011870929
0.00012776334
0.00020116854
0.00059206885
0.0001093899
0.00010939088
0.000109391
0.00010938492
0.00010935483
0.00010925313
0.00010897207
0.00010834649
0.00010742643
0.0001080609
0.00012226457
0.00021023394
0.00057809221
9.984982e-05
9.9850093e-05
9.9847944e-05
9.9835056e-05
9.9786463e-05
9.9641865e-05
9.9284958e-05
9.859999e-05
9.7925044e-05
0.00010022517
0.00012123091
0.00022425603
0.00056106272
9.1744874e-05
9.174416e-05
9.1738826e-05
9.1717148e-05
9.1647174e-05
9.1460104e-05
9.1049018e-05
9.0398665e-05
9.0258419e-05
9.5030413e-05
0.00012461431
0.00024286356
0.00054449405
8.4785472e-05
8.4783454e-05
8.4774018e-05
8.4741918e-05
8.4649457e-05
8.4426122e-05
8.3996574e-05
8.3502376e-05
8.4241543e-05
9.2421343e-05
0.00013239492
0.00026511347
0.00053012765
7.8752977e-05
7.8749319e-05
7.8734951e-05
7.8691403e-05
7.8577619e-05
7.8330528e-05
7.7932172e-05
7.7743318e-05
7.9771153e-05
9.2438123e-05
0.00014444361
0.00028951151
0.0005186607
7.3479682e-05
7.3474066e-05
7.3454131e-05
7.3398964e-05
7.3267704e-05
7.3016085e-05
7.2712929e-05
7.3009357e-05
7.6815021e-05
9.5182833e-05
0.00016036324
0.00031428525
0.00051014247
6.8835097e-05
6.8827266e-05
6.8801436e-05
6.8735571e-05
6.8593744e-05
6.836405e-05
6.8235745e-05
6.9234209e-05
7.5403716e-05
0.00010076472
0.00017939076
0.00033780739
0.0005042266
6.4716374e-05
6.4706175e-05
6.4674551e-05
6.4600233e-05
6.4458202e-05
6.4284863e-05
6.4429045e-05
6.6391811e-05
7.5619872e-05
0.0001092241
0.00020043528
0.00035894529
0.00050037283
6.1041501e-05
6.1028932e-05
6.0992164e-05
6.091321e-05
6.0785257e-05
6.0711783e-05
6.1247563e-05
6.4493003e-05
7.7580808e-05
0.00012045028
0.00022225715
0.00037717552
0.0004980107
5.7744396e-05
5.7729653e-05
5.7689074e-05
5.7611142e-05
5.751606e-05
5.7596592e-05
5.8669223e-05
6.3582873e-05
8.1411589e-05
0.00013412437
0.00024370832
0.00039247763
0.00049664628
5.4771313e-05
5.4754847e-05
5.4712615e-05
5.4643526e-05
5.4605384e-05
5.4906753e-05
5.6693486e-05
6.3736862e-05
8.7208047e-05
0.00014971788
0.00026392365
0.00040513367
0.00049590625
5.2078186e-05
5.206076e-05
5.2020025e-05
5.1970154e-05
5.2019282e-05
5.2623661e-05
5.5340605e-05
6.5053659e-05
9.4994188e-05
0.00016655656
0.0002823955
0.00041554871
0.00049553614
4.9628635e-05
4.9611393e-05
4.9576492e-05
4.9559258e-05
4.9733503e-05
5.0741692e-05
5.4651195e-05
6.7643172e-05
0.00010468473
0.00018392817
0.00029893687
0.00042413793
0.00049537652
4.7392458e-05
4.7377004e-05
4.7353699e-05
4.7386176e-05
4.773248e-05
4.9267885e-05
5.4685328e-05
7.160874e-05
0.00011606685
0.00020119287
0.00031358494
0.00043127328
0.0004953351
4.5344476e-05
4.5332971e-05
4.5328746e-05
4.5432431e-05
4.600877e-05
4.8222044e-05
5.5520136e-05
7.7024457e-05
0.00012881109
0.00021785897
0.00032650008
0.00043726612
0.00049536293
4.3463657e-05
4.3458933e-05
4.3483358e-05
4.3685127e-05
4.4562867e-05
4.7637064e-05
5.7244885e-05
8.3911101e-05
0.00014251075
0.00023360812
0.00033789056
0.0004423671
0.00049543702
4.1732429e-05
4.173814e-05
4.1803329e-05
4.2136614e-05
4.3403328e-05
4.7559126e-05
5.9952697e-05
9.2216771e-05
0.00015673762
0.00024827797
0.00034796834
0.00044677301
0.00049554866
4.0136167e-05
4.015697e-05
4.0278148e-05
4.0784372e-05
4.2547129e-05
4.8047288e-05
6.3728702e-05
0.00010180889
0.00017109625
0.0002618226
0.00035692821
0.00045063572
0.00049569618
3.8662802e-05
3.8704582e-05
3.8900797e-05
3.9631107e-05
4.2020194e-05
4.9171842e-05
6.8635434e-05
0.00011248166
0.00018526231
0.0002742702
0.0003649403
0.00045407116
0.0004958807
3.7302531e-05
3.7372692e-05
3.7667676e-05
3.8685008e-05
4.1857945e-05
5.1010819e-05
7.4697753e-05
0.00012397799
0.00019899863
0.00028568914
0.00037214925
0.00045716737
0.00049610392
3.6047628e-05
3.6155447e-05
3.6578682e-05
3.7960182e-05
4.2105654e-05
5.3644142e-05
8.1890774e-05
0.0001360199
0.00021215194
0.00029616534
0.00037867608
0.00045999117
0.00049636709
3.4892327e-05
3.5049398e-05
3.5637398e-05
3.7477201e-05
4.2818256e-05
5.7145349e-05
9.0134495e-05
0.00014833915
0.00022463802
0.00030578893
0.00038462122
0.00046259339
0.00049667064
3.383279e-05
3.4053569e-05
3.4851411e-05
3.7263737e-05
4.4059205e-05
6.1571465e-05
9.9297384e-05
0.00016070076
0.00023642316
0.00031464713
0.00039006763
0.00046501297
0.00049701416
3.2867148e-05
3.316962e-05
3.4232755e-05
3.7355162e-05
4.5897911e-05
6.6952454e-05
0.00010920861
0.00017291579
0.00024750737
0.00032282077
0.00039508378
0.00046727995
0.00049739654
3.1995627e-05
3.2402111e-05
3.3798455e-05
3.7794963e-05
4.8405429e-05
7.3282439e-05
0.00011967597
0.00018484396
0.00025791153
0.00033038288
0.00039972633
0.00046941773
0.00049781615
3.1220754e-05
3.1758868e-05
3.3571166e-05
3.863469e-05
5.1648302e-05
8.0515038e-05
0.00013050501
0.00019638897
0.0002676684
0.00033739837
0.00040404225
0.00047144509
0.00049827105
3.0547674e-05
3.1251459e-05
3.357986e-05
3.993313e-05
5.5680959e-05
8.8564419e-05
0.00014151527
0.00020749041
0.00027681666
0.00034392428
0.00040806989
0.00047336167
0.00049875827
2.9984563e-05
3.0895779e-05
3.3860462e-05
4.1754325e-05
6.0537589e-05
9.731216e-05
0.0001525509
0.00021811503
0.000285397
0.00035000999
0.00041183984
0.00047517685
0.00049927448
2.9543172e-05
3.0712741e-05
3.4456305e-05
4.4164154e-05
6.6225012e-05
0.00010661844
0.00016348531
0.00022824916
0.00029345003
0.0003556988
0.00041537499
0.00047690099
0.00049981639
2.9239499e-05
3.0729041e-05
3.541815e-05
4.7225368e-05
7.2718222e-05
0.00011633498
0.00017422103
0.00023789274
0.0003010146
0.00036102773
0.000418694
0.00047854313
0.00050038114
2.9094595e-05
3.0977952e-05
3.6803503e-05
5.0991337e-05
7.9959887e-05
0.00012631697
0.00018468653
0.0002470547
0.00030812684
0.00036602759
0.00042181619
0.00048011509
0.00050096676
2.9135496e-05
3.1500046e-05
3.867486e-05
5.549919e-05
8.7864166e-05
0.00013643209
0.00019483195
0.00025575014
0.00031482083
0.00037072327
0.00042475507
0.00048162854
0.000501572
2.939623e-05
3.2343668e-05
4.1096629e-05
6.0763501e-05
9.6324069e-05
0.00014656574
0.00020462431
0.00026399669
0.00032112525
0.00037513786
0.00042753006
0.00048308915
0.00050219529
2.9918839e-05
3.3564905e-05
4.413058e-05
6.6771877e-05
0.00010522078
0.00015662301
0.00021404416
0.00027181503
0.00032706605
0.00037928745
0.00043015896
0.00048450264
0.0005028351
3.0754237e-05
3.5226718e-05
4.7830023e-05
7.3483542e-05
0.00011443286
0.00016652782
0.000223081
0.00027922361
0.00033266466
0.0003831952
0.00043265448
0.00048587306
0.00050348988
3.1962688e-05
3.7396833e-05
5.2233335e-05
8.083144e-05
0.00012384406
0.00017622135
0.00023173235
0.00028624168
0.00033793721
0.00038688251
0.00043502772
0.00048720351
0.00050415803
3.3613495e-05
4.0144079e-05
5.7357833e-05
8.8727377e-05
0.00013334835
0.0001856585
0.00023999853
0.00029288456
0.00034290598
0.00039036648
0.0004372879
0.00048849633
0.00050483796
3.5783395e-05
4.3533059e-05
6.3195294e-05
9.7069216e-05
0.00014285305
0.00019480682
0.00024788467
0.0002991623
0.00034759329
0.00039366186
0.00043944269
0.00048975324
0.00050552811
3.8553054e-05
4.7617418e-05
6.9710101e-05
0.00010574825
0.00015227864
0.00020364077
0.00025539329
0.00030509327
0.00035201758
0.00039678117
0.00044149842
0.00049097544
0.00050622692
4.200114e-05
5.2432547e-05
7.6840706e-05
0.0001146564
0.00016156001
0.00021214494
0.00026252193
0.00031069682
0.000356195
0.00039973505
0.00044346031
0.00049216367
0.00050693283
4.6195904e-05
5.7988948e-05
8.4503802e-05
0.0001236906
0.00017064177
0.00022029901
0.00026928194
0.00031598928
0.00036013925
0.00040253239
0.00044533253
0.00049331827
0.00050764432
5.1185e-05
6.4267695e-05
9.2600623e-05
0.00013275648
0.00017947938
0.00022808588
0.0002756847
0.00032098503
0.00036386202
0.00040518056
0.00044711837
0.00049443922
0.00050835989
5.698534e-05
7.1219272e-05
0.00010102455
0.00014177164
0.00018802207
0.00023550303
0.0002817403
0.00032569629
0.00036737303
0.00040768556
0.00044882026
0.00049552615
0.00050907799
6.3575456e-05
7.876606e-05
0.00010966806
0.000150651
0.00019623699
0.00024254863
0.00028745745
0.00033013329
0.00037068022
0.00041005204
0.00045043986
0.00049657836
0.00050979712
7.089346e-05
8.6809003e-05
0.00011841798
0.00015932161
0.00020409988
0.00024922137
0.00029284334
0.00033430425
0.00037378982
0.00041228346
0.0004519781
0.00049759481
0.0005105157
7.8838239e-05
9.5225354e-05
0.00012716545
0.00016772587
0.0002115905
0.00025551997
0.00029790356
0.00033821552
0.00037670645
0.00041438211
0.00045343515
0.00049857416
0.00051123213
8.7271727e-05
0.00010388137
0.00013581415
0.00017581505
0.0002186919
0.00026144296
0.00030264212
0.00034187165
0.00037943322
0.00041634917
0.00045481052
0.00049951467
0.00051194472
9.6036177e-05
0.00011264288
0.00014427884
0.0001835485
0.00022538998
0.00026698862
0.00030706159
0.00034527555
0.00038197181
0.00041818477
0.00045610303
0.0005004143
0.00051265169
0.00010496811
0.00012138218
0.00015248589
0.00019089301
0.00023167335
0.00027215518
0.00031116333
0.00034842867
0.00038432263
0.0004198881
0.00045731084
0.00050127065
0.00051335113
0.0001139106
0.00012998323
0.00016037327
0.00019782237
0.00023753335
0.00027694111
0.00031494784
0.00035133132
0.00038648502
0.00042145748
0.00045843158
0.00050208098
0.00051404101
0.00012272251
0.0001383452
0.00016789037
0.00020431698
0.00024296427
0.00028134556
0.0003184152
0.00035398301
0.00038845752
0.00042289058
0.00045946238
0.00050284232
0.00051471914
0.00013128392
0.00014638432
0.00017499757
0.00021036349
0.00024796344
0.0002853688
0.00032156555
0.00035638284
0.00039023815
0.00042418462
0.00046040004
0.00050355146
0.00051538318
0.00013949846
0.00015403433
0.00018166562
0.00021595445
0.00025253145
0.00028901265
0.00032439964
0.00035853
0.00039182477
0.00042533662
0.00046124123
0.00050420515
0.00051603069
0.00014729308
0.00016124586
0.00018787485
0.00022108784
0.00025667213
0.00029228087
0.00032691922
0.00036042417
0.0003932155
0.00042634372
0.00046198266
0.00050480014
0.00051665911
0.00015461613
0.000167985
0.00019361429
0.00022576657
0.00026039249
0.00029517936
0.00032912751
0.00036206599
0.00039440906
0.00042720346
0.00046262137
0.0005053334
0.00051726585
0.00016143466
0.00017423143
0.00019888059
0.00022999793
0.00026370254
0.00029771629
0.00033102945
0.00036345739
0.00039540514
0.00042791414
0.00046315492
0.00050580228
0.00051784833
0.00016773137
0.00017997637
0.00020367698
0.00023379297
0.00026661502
0.0002999021
0.00033263189
0.00036460188
0.00039620472
0.00042847505
0.00046358165
0.00050620463
0.00051840406
0.00017350159
0.0001852205
0.00020801219
0.00023716591
0.00026914499
0.00030174937
0.00033394368
0.00036550474
0.00039681027
0.00042888672
0.00046390087
0.000506539
0.00051893069
0.00017875052
0.00018997207
0.00021189941
0.00024013355
0.00027130953
0.00030327259
0.00033497555
0.00036617305
0.00039722591
0.0004291511
0.00046411302
0.00050680468
0.00051942611
0.00018349088
0.00019424517
0.00021535532
0.0002427147
0.00027312724
0.0003044879
0.00033574006
0.00036661573
0.00039745746
0.00042927163
0.00046421977
0.00050700189
0.00051988851
0.00018774091
0.00019805821
0.00021839927
0.00024492966
0.00027461793
0.00030541279
0.00033625131
0.00036684337
0.00039751239
0.00042925327
0.00046422405
0.00050713172
0.00052031641
0.0001915227
0.00020143274
0.00022105251
0.00024679975
0.00027580224
0.00030606578
0.00033652475
0.00036686807
0.00039739975
0.00042910242
0.00046413001
0.00050719616
0.00052070873
0.00019486095
0.00020439238
0.00022333756
0.00024834695
0.00027670127
0.00030646608
0.00033657684
0.00036670324
0.00039712997
0.00042882685
0.00046394298
0.00050719807
0.00052106481
0.0001977819
0.00020696202
0.00022527765
0.0002495935
0.00027733631
0.00030663335
0.00033642481
0.0003663633
0.00039671465
0.00042843547
0.0004636693
0.00050714106
0.0005213844
0.00020031258
0.00020916718
0.00022689635
0.00025056165
0.00027772861
0.00030658736
0.00033608637
0.00036586343
0.0003961663
0.00042793814
0.00046331616
0.00050702942
0.00052166769
0.00020248018
0.00021103349
0.00022821717
0.00025127339
0.0002778991
0.00030634781
0.00033557939
0.00036521929
0.0003954981
0.00042734546
0.00046289143
0.00050686795
0.00052191523
0.00020431164
0.00021258633
0.00022926327
0.00025175029
0.00027786828
0.00030593406
0.00033492173
0.00036444674
0.00039472365
0.00042666852
0.00046240344
0.00050666183
0.00052212796
0.00020583328
0.00021385053
0.0002300573
0.0002520133
0.00027765605
0.00030536504
0.00033413097
0.00036356163
0.00039385667
0.00042591862
0.0004618608
0.00050641648
0.00052230713
0.00020707061
0.00021485014
0.00023062119
0.00025208265
0.00027728156
0.000304659
0.00033322424
0.00036257954
0.00039291082
0.00042510714
0.00046127218
0.00050613743
0.00052245425
0.00020804813
0.00021560832
0.00023097602
0.00025197775
0.00027676317
0.00030383346
0.00033221806
0.00036151564
0.00039189947
0.00042424524
0.00046064616
0.00050583019
0.00052257106
0.00020878922
0.0002161472
0.00023114198
0.00025171714
0.00027611833
0.00030290512
0.00033112824
0.00036038448
0.00039083553
0.00042334376
0.00045999105
0.0005055001
0.00052265947
0.00020931611
0.00021648781
0.00023113826
0.00025131839
0.00027536356
0.00030188974
0.00032996973
0.0003591999
0.00038973129
0.00042241304
0.0004593148
0.00050515232
0.00052272149
0.00020964979
0.00021665008
0.00023098304
0.00025079813
0.00027451444
0.00030080214
0.00032875658
0.00035797492
0.00038859836
0.0004214628
0.00045862488
0.00050479168
0.00052275922
0.00020981004
0.00021665277
0.00023069344
0.00025017199
0.00027358554
0.00029965616
0.00032750191
0.00035672167
0.00038744752
0.00042050208
0.00045792819
0.00050442266
0.00052277479
0.00020981541
0.00021651349
0.00023028556
0.0002494546
0.00027259044
0.00029846464
0.00032621782
0.00035545135
0.00038628869
0.00041953917
0.00045723103
0.00050404936
0.00052277031
0.00020968325
0.00021624875
0.00022977444
0.00024865962
0.00027154176
0.00029723943
0.00032491545
0.00035417418
0.00038513091
0.00041858156
0.00045653908
0.00050367546
0.00052274787
0.00020942974
0.00021587392
0.0002291741
0.00024779973
0.00027045113
0.00029599139
0.00032360494
0.00035289944
0.00038398231
0.00041763594
0.00045585735
0.00050330422
0.0005227095
0.0002090699
0.00021540328
0.00022849758
0.00024688667
0.00026932925
0.00029473041
0.00032229546
0.00035163545
0.00038285012
0.00041670821
0.00045519022
0.00050293849
0.00052265715
0.00020861768
0.00021485009
0.00022775693
0.00024593125
0.0002681859
0.00029346547
0.00032099523
0.00035038959
0.00038174069
0.00041580348
0.00045454144
0.00050258072
0.00052259266
0.00020808595
0.00021422659
0.00022696326
0.00024494339
0.00026702999
0.00029220464
0.00031971157
0.00034916834
0.00038065953
0.0004149261
0.00045391416
0.00050223294
0.00052251779
0.00020748659
0.00021354406
0.00022612679
0.00024393216
0.00026586957
0.00029095513
0.00031845092
0.00034797734
0.00037961131
0.0004140797
0.00045331084
0.00050189539
0.00052243409
0.00020683052
0.00021281285
0.00022525689
0.00024290581
0.00026471188
0.00028972334
0.00031721889
0.00034682139
0.00037859994
0.00041326716
0.00045273322
0.0005015678
0.00052234292
0.00020612774
0.00021204247
0.00022436209
0.00024187181
0.00026356341
0.00028851489
0.00031602033
0.00034570453
0.00037762862
0.00041249074
0.00045218166
0.00050125104
0.00052224545
0.00020538741
0.00021124155
0.00022345016
0.00024083689
0.00026242992
0.00028733468
0.00031485935
0.00034463007
0.0003766998
0.00041175189
0.00045165683
0.00050094661
0.0005221429
0.00020461786
0.00021041799
0.00022252812
0.0002398071
0.00026131649
0.00028618694
0.00031373938
0.00034360074
0.00037581539
0.00041105107
0.00045115892
0.00050065646
0.00052203655
0.00020382668
0.00020957894
0.00022160231
0.00023878781
0.00026022757
0.00028507525
0.00031266325
0.00034261853
0.00037497635
0.00041038852
0.00045068915
0.00050038158
0.00052192758
0.00020302071
0.00020873083
0.00022067842
0.00023778379
0.000259167
0.00028400263
0.00031163316
0.00034168483
0.00037418315
0.00040976449
0.00045024837
0.00050012269
0.00052181705
0.00020220617
0.00020787948
0.00021976152
0.00023679924
0.00025813809
0.00028297155
0.00031065081
0.0003408004
0.00037343552
0.00040917966
0.00044983697
0.00049988022
0.00052170591
0.0002013886
0.0002070301
0.00021885613
0.00023583782
0.00025714364
0.00028198395
0.00030971723
0.00033996518
0.0003727338
0.00040863417
0.00044945497
0.0004996543
0.00052159499
0.00020057301
0.00020618731
0.00021796622
0.00023490268
0.00025618594
0.00028104127
0.00030883285
0.00033917914
0.00037207807
0.00040812784
0.00044910213
0.00049944491
0.00052148504
0.00019976381
0.00020535525
0.00021709528
0.00023399654
0.00025526685
0.00028014442
0.00030799755
0.00033844237
0.00037146807
0.00040766017
0.00044877794
0.0004992518
0.00052137669
0.00019896497
0.00020453753
0.00021624636
0.00023312168
0.00025438774
0.00027929353
0.00030721152
0.00033775463
0.0003709032
0.00040723042
0.00044848172
0.00049907465
0.00052127048
0.00019817994
0.00020373734
0.00021542208
0.00023227986
0.00025354922
0.000278489
0.00030647464
0.00033711534
0.0003703826
0.00040683762
0.00044821262
0.000498913
0.00052116687
0.00019741179
0.00020295747
0.00021462449
0.00023147226
0.00025275202
0.00027773095
0.00030578651
0.0003365237
0.00036990521
0.00040648064
0.00044796968
0.00049876631
0.00052106627
0.00019666307
0.0002022001
0.00021385526
0.00023069998
0.00025199659
0.00027701925
0.00030514646
0.00033597865
0.00036946975
0.0004061582
0.00044775185
0.00049863399
0.000520969
0.0001959359
0.00020146713
0.00021311579
0.00022996382
0.00025128314
0.00027635351
0.00030455362
0.00033547897
0.00036907481
0.00040586891
0.00044755797
0.00049851542
0.00052087531
0.0001952321
0.00020076013
0.00021240721
0.00022926436
0.00025061162
0.00027573313
0.00030400693
0.00033502326
0.00036871886
0.00040561129
0.00044738688
0.00049840993
0.00052078544
0.00019455319
0.00020008039
0.0002117304
0.00022860193
0.00024998178
0.0002751573
0.00030350514
0.00033460999
0.00036840025
0.00040538381
0.00044723735
0.00049831684
0.00052069953
0.00019390042
0.00019942897
0.00021108598
0.00022797662
0.00024939317
0.00027462508
0.00030304687
0.00033423753
0.00036811728
0.00040518489
0.00044710814
0.00049823545
0.0005206177
0.00019327479
0.00019880667
0.00021047437
0.00022738837
0.00024884518
0.00027413534
0.00030263064
0.00033390414
0.00036786818
0.00040501293
0.00044699802
0.00049816506
0.00052054005
0.00019267709
0.00019821408
0.0002098958
0.00022683689
0.00024833702
0.00027368683
0.00030225483
0.00033360804
0.00036765115
0.00040486632
0.00044690575
0.000498105
0.00052046661
0.00019210788
0.00019765158
0.00020935027
0.00022632176
0.00024786778
0.00027327821
0.00030191778
0.00033334737
0.00036746437
0.00040474344
0.00044683011
0.00049805457
0.00052039741
0.00019156752
0.00019711937
0.00020883766
0.0002258424
0.0002474364
0.00027290802
0.00030161774
0.00033312028
0.000367306
0.00040464269
0.00044676989
0.0004980131
0.00052033241
0.00019105622
0.00019661748
0.00020835767
0.00022539808
0.00024704174
0.00027257474
0.00030135292
0.00033292486
0.00036717423
0.00040456252
0.00044672393
0.00049797993
0.0005202716
0.000190574
0.00019614578
0.00020790985
0.00022498797
0.00024668256
0.00027227677
0.0003011215
0.00033275921
0.00036706727
0.00040450137
0.00044669107
0.00049795442
0.00052021491
0.00019012074
0.000195704
0.00020749364
0.00022461115
0.00024635755
0.00027201248
0.00030092164
0.00033262146
0.00036698333
0.00040445774
0.00044667022
0.00049793597
0.00052016226
0.00018969618
0.00019529174
0.00020710838
0.00022426658
0.00024606532
0.00027178021
0.0003007515
0.00033250973
0.00036692069
0.00040443019
0.00044666032
0.00049792397
0.00052011356
0.00018929996
0.0001949085
0.00020675328
0.00022395317
0.00024580445
0.00027157825
0.00030060925
0.00033242219
0.00036687766
0.0004044173
0.00044666034
0.00049791785
0.0005200687
0.00018893157
0.00019455367
0.00020642749
0.00022366975
0.00024557347
0.00027140491
0.00030049306
0.00033235704
0.0003668526
0.00040441773
0.00044666931
0.00049791706
0.00052002757
0.00018859044
0.00019422653
0.00020613008
0.0002234151
0.00024537088
0.00027125849
0.00030040113
0.00033231252
0.00036684393
0.00040443019
0.00044668631
0.0004979211
0.00051999005
0.00018827591
0.00019392632
0.00020586006
0.00022318798
0.00024519519
0.00027113731
0.00030033172
0.00033228692
0.00036685013
0.00040445343
0.00044671045
0.00049792945
0.00051995598
0.00018798722
0.00019365218
0.00020561637
0.00022298708
0.00024504488
0.00027103968
0.00030028309
0.00033227862
0.00036686975
0.0004044863
0.00044674092
0.00049794166
0.00051992525
0.00018772358
0.00019340322
0.00020539794
0.00022281112
0.00024491843
0.00027096396
0.00030025357
0.00033228601
0.00036690141
0.00040452768
0.00044677692
0.0004979573
0.00051989771
0.00018748412
0.00019317849
0.00020520364
0.00022265875
0.00024481436
0.00027090856
0.00030024156
0.00033230759
0.00036694378
0.00040457654
0.00044681774
0.00049797595
0.00051987321
0.00018726794
0.00019297699
0.00020503234
0.00022252867
0.00024473117
0.0002708719
0.00030024548
0.00033234191
0.00036699562
0.0004046319
0.0004468627
0.00049799724
0.00051985161
0.00018707408
0.0001927977
0.00020488286
0.00022241954
0.00024466741
0.00027085245
0.00030026384
0.00033238758
0.00036705576
0.00040469284
0.00044691116
0.00049802081
0.00051983276
0.00018690158
0.00019263959
0.00020475403
0.00022233005
0.00024462164
0.00027084872
0.00030029519
0.00033244328
0.00036712308
0.00040475849
0.00044696252
0.00049804632
0.00051981651
0.00018674942
0.00019250157
0.00020464468
0.00022225889
0.00024459246
0.00027085929
0.00030033814
0.00033250777
0.00036719651
0.00040482805
0.00044701623
0.00049807345
0.00051980271
0.00018661659
0.00019238258
0.00020455362
0.00022220477
0.00024457851
0.00027088276
0.00030039137
0.00033257986
0.00036727508
0.00040490074
0.00044707176
0.0004981019
0.00051979121
0.00018650204
0.00019228153
0.00020447968
0.00022216643
0.00024457844
0.00027091779
0.0003004536
0.0003326584
0.00036735783
0.00040497584
0.00044712861
0.00049813136
0.00051978184
0.00018640474
0.00019219733
0.0002044217
0.0002221426
0.00024459096
0.00027096311
0.00030052364
0.00033274233
0.00036744389
0.00040505269
0.00044718631
0.00049816157
0.00051977446
0.00018632364
0.0001921289
0.00020437852
0.0002221321
0.00024461484
0.00027101749
0.00030060033
0.00033283067
0.00036753244
0.00040513066
0.00044724444
0.00049819226
0.0005197689
0.00018625771
0.00019207517
0.00020434903
0.00022213373
0.00024464887
0.00027107977
0.00030068262
0.00033292247
0.00036762272
0.00040520919
0.00044730261
0.00049822319
0.00051976503
0.00018620592
0.0001920351
0.00020433212
0.00022214637
0.00024469192
0.00027114886
0.00030076951
0.00033301688
0.00036771405
0.00040528777
0.00044736047
0.00049825415
0.0005197627
0.00018616728
0.00019200766
0.00020432674
0.00022216893
0.00024474291
0.00027122373
0.00030086007
0.00033311313
0.00036780583
0.00040536595
0.00044741774
0.00049828499
0.00051976178
0.0001861408
0.00019199185
0.00020433187
0.00022220037
0.00024480083
0.00027130343
0.00030095347
0.00033321053
0.0003678975
0.00040544337
0.00044747418
0.00049831554
0.00051976216
0.00018612552
0.0001919867
0.00020434652
0.00022223973
0.00024486472
0.0002713871
0.00030104894
0.00033330843
0.0003679886
0.00040551968
0.00044752958
0.00049834572
0.00051976373
0.00018612054
0.0001919913
0.00020436975
0.00022228606
0.0002449337
0.0002714739
0.00030114577
0.00033340627
0.00036807871
0.00040559462
0.00044758378
0.00049837542
0.00051976638
0.00018612494
0.00019200472
0.00020440067
0.00022233848
0.00024500694
0.00027156309
0.00030124333
0.00033350355
0.00036816746
0.00040566792
0.00044763663
0.00049840457
0.00051977003
0.00018613788
0.00019202612
0.00020443842
0.00022239617
0.00024508364
0.00027165398
0.00030134103
0.00033359981
0.0003682545
0.00040573938
0.00044768799
0.00049843309
0.00051977456
0.0001861585
0.00019205466
0.00020448218
0.00022245831
0.00024516308
0.0002717459
0.00030143832
0.00033369461
0.00036833953
0.00040580877
0.00044773774
0.00049846089
0.00051977988
0.00018618599
0.00019208952
0.00020453114
0.00022252417
0.00024524455
0.00027183824
0.00030153469
0.00033378756
0.00036842225
0.0004058759
0.00044778574
0.00049848789
0.00051978589
0.00018621957
0.00019212993
0.00020458456
0.00022259301
0.0002453274
0.00027193044
0.00030162967
0.00033387829
0.00036850239
0.00040594057
0.00044783184
0.00049851381
0.00051979246
0.00018625849
0.00019217515
0.0002046417
0.00022266417
0.00024541102
0.00027202197
0.00030172283
0.00033396646
0.00036857969
0.0004060026
0.00044787588
0.00049853849
0.00051979948
0.00018630201
0.00019222445
0.0002047019
0.000222737
0.00024549483
0.00027211233
0.00030181376
0.00033405176
0.00036865395
0.00040606181
0.00044791767
0.00049856182
0.00051980683
0.00018634944
0.00019227716
0.00020476449
0.0002228109
0.0002455783
0.00027220108
0.00030190213
0.00033413393
0.00036872495
0.00040611807
0.00044795709
0.00049858378
0.00051981442
0.00018640014
0.00019233265
0.00020482887
0.00022288534
0.00024566097
0.00027228785
0.00030198762
0.00033421276
0.00036879257
0.00040617125
0.00044799405
0.00049860443
0.00051982216
0.00018645349
0.00019239032
0.0002048945
0.00022295981
0.00024574242
0.00027237228
0.00030207001
0.00033428809
0.0003688567
0.00040622127
0.00044802859
0.00049862378
0.00051983001
0.00018650893
0.00019244962
0.00020496087
0.00022303387
0.00024582228
0.00027245412
0.00030214909
0.00033435981
0.00036891725
0.00040626809
0.00044806078
0.00049864189
0.00051983791
0.00018656595
0.00019251007
0.00020502753
0.00022310714
0.00024590025
0.00027253314
0.00030222474
0.00033442783
0.00036897419
0.0004063118
0.00044809071
0.00049865882
0.00051984582
0.00018662407
0.00019257121
0.00020509406
0.00022317927
0.00024597607
0.00027260917
0.00030229686
0.00033449212
0.00036902754
0.00040635249
0.00044811847
0.00049867462
0.00051985372
0.00018668287
0.00019263264
0.00020516013
0.00022324998
0.00024604951
0.00027268207
0.00030236538
0.00033455262
0.00036907736
0.00040639027
0.00044814417
0.00049868935
0.00051986158
0.00018674196
0.00019269399
0.0002052254
0.00022331902
0.00024612042
0.00027275173
0.00030243021
0.00033460938
0.00036912377
0.00040642524
0.00044816789
0.00049870306
0.00051986938
0.00018680101
0.00019275494
0.0002052896
0.00022338615
0.00024618863
0.00027281806
0.00030249135
0.00033466246
0.00036916684
0.00040645751
0.00044818972
0.00049871582
0.00051987708
0.00018685969
0.0001928152
0.00020535248
0.00022345121
0.000246254
0.00027288095
0.00030254879
0.00033471192
0.00036920667
0.00040648716
0.00044820973
0.00049872764
0.00051988467
0.00018691771
0.0001928745
0.00020541382
0.00022351399
0.0002463164
0.00027294039
0.00030260256
0.00033475782
0.00036924335
0.00040651428
0.00044822798
0.00049873854
0.0005198921
0.00018697483
0.00019293261
0.0002054734
0.00022357435
0.00024637576
0.00027299635
0.0003026527
0.00033480023
0.00036927694
0.00040653894
0.00044824452
0.00049874856
0.00051989935
0.00018703079
0.00019298929
0.00020553103
0.00022363214
0.000246432
0.00027304882
0.00030269926
0.00033483923
0.00036930754
0.00040656121
0.0004482594
0.00049875768
0.00051990638
0.00018708538
0.00019304434
0.00020558657
0.00022368728
0.00024648508
0.00027309783
0.00030274229
0.0003348749
0.00036933524
0.00040658118
0.00044827267
0.00049876592
0.00051991318
0.0001871384
0.0001930976
0.00020563987
0.00022373968
0.00024653499
0.00027314341
0.00030278186
0.00033490733
0.00036936013
0.00040659892
0.00044828439
0.00049877331
0.00051991971
0.00018718969
0.00019314891
0.00020569084
0.00022378929
0.00024658174
0.0002731856
0.00030281807
0.00033493664
0.00036938234
0.00040661454
0.00044829462
0.00049877986
0.00051992596
0.00018723911
0.00019319816
0.00020573939
0.00022383608
0.00024662534
0.0002732245
0.00030285102
0.00033496295
0.00036940197
0.00040662816
0.00044830345
0.00049878563
0.00051993192
0.00018728655
0.00019324526
0.00020578547
0.00022388006
0.00024666584
0.00027326018
0.00030288084
0.0003349864
0.00036941918
0.00040663988
0.00044831097
0.00049879065
0.00051993759
0.00018733192
0.00019329015
0.00020582905
0.00022392124
0.00024670332
0.00027329275
0.00030290766
0.00033500714
0.00036943411
0.00040664984
0.00044831728
0.00049879498
0.00051994297
0.00018737517
0.00019333276
0.00020587013
0.00022395964
0.00024673784
0.00027332234
0.00030293162
0.00033502532
0.00036944691
0.00040665817
0.00044832247
0.00049879868
0.00051994806
0.00018741623
0.00019337308
0.00020590869
0.00022399533
0.00024676951
0.00027334906
0.00030295288
0.0003350411
0.00036945773
0.00040666499
0.00044832665
0.00049880181
0.00051995287
0.00018745508
0.00019341109