/*--------------------------------*- C++ -*----------------------------------*\
| =========                 |                                                 |
| \\      /  F ield         | OpenFOAM: The Open Source CFD Toolbox           |
|  \\    /   O peration     | Version:  2506                                  |
|   \\  /    A nd           | Website:  www.openfoam.com                      |
|    \\/     M anipulation  |                                                 |
\*---------------------------------------------------------------------------*/
FoamFile
{
    version     2.0;
    format      ascii;
    arch        "LSB;label=32;scalar=64";
    class       volScalarField;
    location    "8000/water";
    object      nut;
}
// * * * * * * * * * * * * * * * * * * * * * * * * * * * * * * * * * * * * * //

dimensions      [0 2 -1 0 0 0 0];

internalField   nonuniform List<scalar> 
2600
(
4.0562043e-05
4.0561942e-05
4.0561944e-05
4.0561981e-05
4.0561942e-05
4.0561434e-05
4.0558261e-05
4.0540002e-05
4.0435343e-05
3.98338e-05
3.6541397e-05
2.4161555e-05
1.4889524e-05
3.944741e-05
3.9447468e-05
3.944759e-05
3.9447676e-05
3.9447275e-05
3.9444342e-05
3.9428907e-05
3.9352895e-05
3.8988431e-05
3.7314814e-05
3.0763187e-05
1.7536144e-05
1.684056e-05
3.852265e-05
3.852264e-05
3.8522725e-05
3.8522528e-05
3.8520597e-05
3.8510798e-05
3.8466747e-05
3.8277827e-05
3.7500368e-05
3.454641e-05
2.5814945e-05
1.4669956e-05
1.7712619e-05
3.7742032e-05
3.774193e-05
3.7741811e-05
3.7740766e-05
3.7735283e-05
3.7711707e-05
3.7617453e-05
3.7258039e-05
3.5961308e-05
3.177518e-05
2.2061889e-05
1.3531464e-05
1.7967898e-05
3.7073562e-05
3.7073366e-05
3.7072781e-05
3.7069955e-05
3.7057916e-05
3.7011651e-05
3.6843992e-05
3.6266509e-05
3.4405655e-05
2.9188861e-05
1.9425178e-05
1.3345943e-05
1.7902414e-05
3.6493786e-05
3.6493393e-05
3.6491924e-05
3.648598e-05
3.646354e-05
3.6384687e-05
3.612226e-05
3.5294625e-05
3.2873382e-05
2.6881541e-05
1.771645e-05
1.3793839e-05
1.7689846e-05
3.5985207e-05
3.5984445e-05
3.5981496e-05
3.5970726e-05
3.5933497e-05
3.5812307e-05
3.5437992e-05
3.4343601e-05
3.1395257e-05
2.4892541e-05
1.6781972e-05
1.4727875e-05
1.7427344e-05
3.5534568e-05
3.55332e-05
3.5528007e-05
3.5510417e-05
3.5453869e-05
3.5281761e-05
3.478374e-05
3.3418009e-05
2.9989903e-05
2.3242727e-05
1.6521213e-05
1.605365e-05
1.7168093e-05
3.5131649e-05
3.5129373e-05
3.5121029e-05
3.5094485e-05
3.5014364e-05
3.4784646e-05
3.4156253e-05
3.2521766e-05
2.8667649e-05
2.1957692e-05
1.6869959e-05
1.7676047e-05
1.694009e-05
3.4768438e-05
3.47649e-05
3.4752406e-05
3.4714802e-05
3.4607522e-05
3.4315777e-05
3.3554458e-05
3.16563e-05
2.7438403e-05
2.1076946e-05
1.7774701e-05
1.9481897e-05
1.6755877e-05
3.4438571e-05
3.443338e-05
3.4415717e-05
3.4365168e-05
3.4228127e-05
3.3872266e-05
3.2977968e-05
3.0820513e-05
2.6321667e-05
2.0649591e-05
1.9168673e-05
2.1348725e-05
1.6617712e-05
3.4136931e-05
3.4129689e-05
3.4105903e-05
3.4040932e-05
3.3872746e-05
3.3452766e-05
3.2426062e-05
3.0012536e-05
2.5355877e-05
2.0719809e-05
2.0958175e-05
2.3166792e-05
1.6521078e-05
3.3859367e-05
3.3849701e-05
3.3819003e-05
3.3738723e-05
3.3539365e-05
3.3056856e-05
3.1897087e-05
2.923354e-05
2.4602257e-05
2.1309035e-05
2.3024752e-05
2.4858006e-05
1.6457822e-05
3.3602495e-05
3.3590098e-05
3.355197e-05
3.3456247e-05
3.3227088e-05
3.2684517e-05
3.1388405e-05
2.8493549e-05
2.4138758e-05
2.2402735e-05
2.5241354e-05
2.6381455e-05
1.6418929e-05
3.3363555e-05
3.334823e-05
3.3302533e-05
3.3192135e-05
3.2935885e-05
3.2335692e-05
3.0897111e-05
2.781812e-05
2.4044359e-05
2.3946908e-05
2.7493336e-05
2.7726695e-05
1.6396422e-05
3.3140311e-05
3.3122024e-05
3.3069114e-05
3.2945826e-05
3.2666358e-05
3.2009929e-05
3.0421904e-05
2.7253061e-05
2.4379896e-05
2.5855077e-05
2.969386e-05
2.8902282e-05
1.6384202e-05
3.2930983e-05
3.2909915e-05
3.2850758e-05
3.2717477e-05
3.2419519e-05
3.1706209e-05
2.9966345e-05
2.6863468e-05
2.5173341e-05
2.8023005e-05
3.1788482e-05
2.9925862e-05
1.6378087e-05
3.27342e-05
3.2710811e-05
3.2647097e-05
3.2507877e-05
3.2196559e-05
3.1423099e-05
2.9543334e-05
2.6725089e-05
2.6414166e-05
3.0346001e-05
3.3750498e-05
3.0817911e-05
1.6375449e-05
3.254898e-05
3.2524066e-05
3.2458325e-05
3.2318371e-05
3.1998619e-05
3.1159479e-05
2.9179672e-05
2.6909995e-05
2.8056818e-05
3.2733295e-05
3.5572229e-05
3.1598488e-05
1.6374764e-05
3.2374714e-05
3.234948e-05
3.2285189e-05
3.2150777e-05
3.1826587e-05
3.0916122e-05
2.8918573e-05
2.7471837e-05
3.0030661e-05
3.511583e-05
3.7256814e-05
3.2285744e-05
1.6375224e-05
3.2211173e-05
3.2187303e-05
3.2128983e-05
3.2007273e-05
3.1681012e-05
3.0698307e-05
2.881777e-05
2.8435846e-05
3.2252924e-05
3.744713e-05
3.8812572e-05
3.2895329e-05
1.6376448e-05
3.2058522e-05
3.2038256e-05
3.199155e-05
3.1890271e-05
3.1562234e-05
3.0519239e-05
2.8942302e-05
2.9795898e-05
3.4641248e-05
3.9699498e-05
4.0249838e-05
3.3440303e-05
1.6378293e-05
3.1917349e-05
3.1903563e-05
3.1875268e-05
3.1802262e-05
3.147098e-05
3.0403413e-05
2.9353631e-05
3.1518042e-05
3.7123068e-05
4.185857e-05
4.1579382e-05
3.3931335e-05
1.6380731e-05
3.1788707e-05
3.1784988e-05
3.1783034e-05
3.1745668e-05
3.1409597e-05
3.0388389e-05
3.0098643e-05
3.3548316e-05
3.964051e-05
4.3918434e-05
4.2811644e-05
3.4377034e-05
1.638378e-05
3.167417e-05
3.1684884e-05
3.1718216e-05
3.1722747e-05
3.1384109e-05
3.0523335e-05
3.120198e-05
3.5822349e-05
4.2151086e-05
4.587818e-05
4.3956338e-05
3.4784316e-05
1.6387467e-05
3.1575896e-05
3.160624e-05
3.1684577e-05
3.1735683e-05
3.1406921e-05
3.0863675e-05
3.2663383e-05
3.8274463e-05
4.4625629e-05
4.7739787e-05
4.5022275e-05
3.515874e-05
1.6391813e-05
3.1496715e-05
3.155272e-05
3.1686172e-05
3.1786999e-05
3.1499549e-05
3.146287e-05
3.4459814e-05
4.0844584e-05
4.7045147e-05
4.9506882e-05
4.6017313e-05
3.5504792e-05
1.6396824e-05
3.1440215e-05
3.1528704e-05
3.1727218e-05
3.1880505e-05
3.1694231e-05
3.2363745e-05
3.6550943e-05
4.3482184e-05
4.9397838e-05
5.1183992e-05
4.6948398e-05
3.5826121e-05
1.6402493e-05
3.141085e-05
3.1539289e-05
3.1812007e-05
3.2022928e-05
3.2033146e-05
3.3591895e-05
3.8886228e-05
4.6147425e-05
5.1676784e-05
5.2776059e-05
4.7821637e-05
3.6125715e-05
1.6408802e-05
3.1414042e-05
3.1590275e-05
3.1944928e-05
3.2226121e-05
3.2564564e-05
3.5152685e-05
4.1411886e-05
4.8810348e-05
5.3878384e-05
5.4288121e-05
4.8642392e-05
3.6406046e-05
1.6415722e-05
3.1456281e-05
3.1688096e-05
3.2130758e-05
3.2509434e-05
3.3336483e-05
3.7032011e-05
4.4076508e-05
5.1449134e-05
5.6001298e-05
5.5725117e-05
4.941539e-05
3.6669255e-05
1.642322e-05
3.1545208e-05
3.183974e-05
3.2375387e-05
3.2901325e-05
3.4389416e-05
3.919998e-05
4.6834639e-05
5.4048194e-05
5.8045696e-05
5.7091643e-05
5.0144343e-05
3.6914946e-05
1.6431248e-05
3.1689662e-05
3.2052669e-05
3.2687148e-05
3.3439139e-05
3.5750346e-05
4.1616217e-05
4.9648341e-05
5.6596566e-05
6.001275e-05
5.8392018e-05
5.0832732e-05
3.7144926e-05
1.6439749e-05
3.1899684e-05
3.2334824e-05
3.3078707e-05
3.4166346e-05
3.742931e-05
4.4235469e-05
5.2487201e-05
5.9086691e-05
6.1904251e-05
5.9630098e-05
5.14827e-05
3.7361246e-05
1.6448668e-05
3.2186466e-05
3.2694874e-05
3.35692e-05
3.5127418e-05
3.9419074e-05
4.7012437e-05
5.5327457e-05
6.1513514e-05
6.3722348e-05
6.0809398e-05
5.2096453e-05
3.7565315e-05
1.6457959e-05
3.2562282e-05
3.3142863e-05
3.4185835e-05
3.6361557e-05
4.1697466e-05
4.9905194e-05
5.8150811e-05
6.3873837e-05
6.5469393e-05
6.1933118e-05
5.26774e-05
3.7758158e-05
1.6467586e-05
3.3040474e-05
3.3691441e-05
3.4963996e-05
3.7896952e-05
4.4231436e-05
5.287705e-05
6.0943284e-05
6.6165777e-05
6.7147565e-05
6.3002903e-05
5.3228277e-05
3.7940822e-05
1.6477531e-05
3.3635637e-05
3.4357647e-05
3.5945066e-05
3.9746994e-05
4.6981721e-05
5.5897117e-05
6.3694246e-05
6.8388427e-05
6.8759331e-05
6.4022591e-05
5.3751051e-05
3.8114077e-05
1.6487766e-05
3.4364219e-05
3.5164897e-05
3.7171973e-05
4.1909152e-05
4.9907173e-05
5.8940019e-05
6.6395658e-05
7.0541361e-05
7.0305652e-05
6.4995384e-05
5.4247636e-05
3.8278683e-05
1.6498265e-05
3.5245713e-05
3.6144406e-05
3.8683383e-05
4.4366354e-05
5.2968067e-05
6.1985161e-05
6.9041441e-05
7.2624742e-05
7.1789402e-05
6.5923867e-05
5.4719656e-05
3.8435266e-05
1.6509004e-05
3.6304378e-05
3.7335001e-05
4.0508056e-05
4.7090184e-05
5.6128194e-05
6.5015933e-05
7.1626945e-05
7.463816e-05
7.3213259e-05
6.6810353e-05
5.5168626e-05
3.8584367e-05
1.6519954e-05
3.7571028e-05
3.8780577e-05
4.2660817e-05
5.0044929e-05
5.9355766e-05
6.8018888e-05
7.4148642e-05
7.6582484e-05
7.4579714e-05
6.7656896e-05
5.5595888e-05
3.8726448e-05
1.653109e-05
3.9083829e-05
4.0525192e-05
4.5140952e-05
5.3191562e-05
6.2623558e-05
7.0983097e-05
7.6603204e-05
7.8458833e-05
7.5890905e-05
6.8465402e-05
5.6002629e-05
3.8861903e-05
1.6542386e-05
4.0886872e-05
4.2606826e-05
4.7933069e-05
5.6490969e-05
6.5908436e-05
7.3899522e-05
7.8988642e-05
8.0268734e-05
7.7148734e-05
6.9237566e-05
5.6389886e-05
3.8991065e-05
1.6553815e-05
4.3025727e-05
4.5051384e-05
5.1009851e-05
5.9906198e-05
6.9190859e-05
7.6760134e-05
8.1303262e-05
8.2013419e-05
7.8354965e-05
6.9974898e-05
5.6758561e-05
3.9114211e-05
1.6565353e-05
4.5540304e-05
4.7868419e-05
5.4335726e-05
6.3403501e-05
7.24539e-05
7.9558409e-05
8.3546726e-05
8.3693978e-05
7.9511142e-05
7.0678715e-05
5.7109428e-05
3.9231568e-05
1.6576974e-05
4.8456661e-05
5.104941e-05
5.7870601e-05
6.6952739e-05
7.5682776e-05
8.2288859e-05
8.5718425e-05
8.5311369e-05
8.06186e-05
7.1350141e-05
5.7443135e-05
3.9343317e-05
1.6588653e-05
5.1780063e-05
5.4568589e-05
6.1572914e-05
7.0526853e-05
7.8863934e-05
8.494781e-05
8.7817762e-05
8.6866347e-05
8.167845e-05
7.1990115e-05
5.7760217e-05
3.9449595e-05
1.6600366e-05
5.5491304e-05
5.8385593e-05
6.5401366e-05
7.4100905e-05
8.1987172e-05
8.7531653e-05
8.9844035e-05
8.8359435e-05
8.2691567e-05
7.259939e-05
5.8061095e-05
3.9550499e-05
1.6612087e-05
5.9547164e-05
6.2448866e-05
6.9315538e-05
7.7653761e-05
8.5043634e-05
9.0036931e-05
9.1796366e-05
8.9790893e-05
8.3658578e-05
7.3178533e-05
5.8346078e-05
3.9646083e-05
1.662379e-05
6.3884411e-05
6.6699742e-05
7.3278171e-05
8.1167555e-05
8.8025163e-05
9.2460218e-05
9.3673646e-05
9.1160696e-05
8.4579856e-05
7.3727924e-05
5.8615371e-05
3.9736365e-05
1.663545e-05
6.8427282e-05
7.1077033e-05
7.7255156e-05
8.4626022e-05
9.0924132e-05
9.4798056e-05
9.5474515e-05
9.2468523e-05
8.5455515e-05
7.4247756e-05
5.8869068e-05
3.9821322e-05
1.664704e-05
7.309549e-05
7.5520247e-05
8.1214696e-05
8.8014191e-05
9.3733332e-05
9.7046925e-05
9.7197359e-05
9.3713764e-05
8.6285418e-05
7.4738039e-05
5.9107159e-05
3.990089e-05
1.665853e-05
7.7811249e-05
7.9972288e-05
8.5127257e-05
9.1318189e-05
9.6445927e-05
9.9203274e-05
9.8840348e-05
9.4895544e-05
8.7069192e-05
7.5198611e-05
5.9329534e-05
3.997497e-05
1.6669891e-05
8.2504344e-05
8.4381458e-05
8.8965671e-05
9.452515e-05
9.9055465e-05
0.00010126358
0.0001004015
9.6012773e-05
8.7806258e-05
7.5629155e-05
5.953599e-05
4.004343e-05
1.6681088e-05
8.7115022e-05
8.8702753e-05
9.2705366e-05
9.7623232e-05
0.00010155594
0.00010322446
0.00010187877
9.7064215e-05
8.8495879e-05
7.6029225e-05
5.972625e-05
4.0106107e-05
1.6692087e-05
9.1594979e-05
9.2898504e-05
9.6324648e-05
0.00010060172
0.0001039419
0.00010508276
0.00010327017
9.8048578e-05
8.913722e-05
7.6398287e-05
5.9899978e-05
4.0162818e-05
1.6702852e-05
9.5907027e-05
9.6938448e-05
9.9804949e-05
0.00010345115
0.00010620853
0.00010683572
0.0001045739
9.8964617e-05
8.9729425e-05
7.6735767e-05
6.0056809e-05
4.0213371e-05
1.6713341e-05
0.00010002397
0.00010079937
0.00010313098
0.00010616348
0.00010835181
0.00010848107
0.00010578845
9.9811243e-05
9.0271698e-05
7.7041103e-05
6.0196382e-05
4.0257577e-05
1.6723515e-05
0.00010392714
0.00010446443
0.00010629078
0.00010873218
0.00011036859
0.00011001715
0.00010691273
0.00010058762
9.0763386e-05
7.7313807e-05
6.0318369e-05
4.0295264e-05
1.6733332e-05
0.00010760489
0.00010792239
0.00010927556
0.00011115235
0.00011225664
0.00011144296
0.00010794616
0.00010129328
9.1204057e-05
7.7553519e-05
6.0422513e-05
4.0326295e-05
1.674275e-05
0.00011105115
0.00011116673
0.00011207958
0.0001134207
0.00011401477
0.00011275826
0.00010888872
0.00010192815
9.159357e-05
7.7760064e-05
6.0508663e-05
4.0350577e-05
1.6751731e-05
0.00011426428
0.00011419482
0.00011469977
0.00011553553
0.00011564276
0.00011396354
0.00010974099
0.00010249264
9.1932123e-05
7.7933489e-05
6.0576798e-05
4.0368081e-05
1.6760238e-05
0.00011724598
0.00011700719
0.00011713549
0.00011749663
0.00011714136
0.00011506006
0.00011050419
0.00010298766
9.222029e-05
7.8074103e-05
6.0627055e-05
4.0378844e-05
1.6768236e-05
0.00012000054
0.00011960685
0.00011938811
0.00011930519
0.00011851226
0.00011604976
0.00011118011
0.00010341463
9.2459035e-05
7.818249e-05
6.0659738e-05
4.0382981e-05
1.6775698e-05
0.00012253414
0.00012199874
0.00012146072
0.0001209636
0.00011975801
0.00011693526
0.00011177112
0.00010377542
9.2649711e-05
7.8259518e-05
6.067533e-05
4.0380687e-05
1.67826e-05
0.00012485436
0.00012418928
0.00012335781
0.00012247532
0.00012088189
0.00011771977
0.0001122801
0.00010407238
9.2794039e-05
7.830633e-05
6.0674485e-05
4.0372232e-05
1.6788926e-05
0.00012696977
0.00012618596
0.00012508497
0.00012384473
0.00012188785
0.00011840702
0.00011271037
0.00010430824
9.2894079e-05
7.8324327e-05
6.0658024e-05
4.0357962e-05
1.6794665e-05
0.00012888963
0.00012799706
0.00012664867
0.00012507694
0.00012278041
0.00011900115
0.00011306564
0.00010448608
9.2952184e-05
7.8315138e-05
6.0626915e-05
4.0338285e-05
1.6799815e-05
0.00013062362
0.00012963141
0.000128056
0.00012617763
0.00012356452
0.00011950669
0.00011334991
0.00010460925
9.2970958e-05
7.8280589e-05
6.058225e-05
4.0313666e-05
1.6804378e-05
0.00013218168
0.00013109816
0.00012931453
0.00012715296
0.0001242455
0.00011992842
0.00011356743
0.00010468132
9.2953196e-05
7.8222661e-05
6.0525226e-05
4.0284611e-05
1.6808365e-05
0.00013357384
0.00013240664
0.00013043212
0.00012800938
0.00012482893
0.00012027132
0.0001137226
0.00010470604
9.2901837e-05
7.8143449e-05
6.045711e-05
4.0251657e-05
1.6811791e-05
0.00013481013
0.00013356625
0.00013141682
0.00012875358
0.00012532055
0.0001205405
0.00011381994
0.0001046872
9.2819907e-05
7.8045124e-05
6.0379218e-05
4.0215356e-05
1.6814675e-05
0.00013590044
0.00013458632
0.0001322767
0.00012939236
0.00012572619
0.00012074112
0.00011386399
0.00010462868
9.2710474e-05
7.792989e-05
6.0292883e-05
4.0176265e-05
1.6817043e-05
0.0001368545
0.00013547605
0.00013301986
0.00012993254
0.00012605174
0.00012087835
0.00011385929
0.00010453432
9.2576599e-05
7.7799948e-05
6.0199434e-05
4.0134935e-05
1.6818923e-05
0.00013768178
0.00013624447
0.00013365426
0.00013038091
0.00012630303
0.0001209573
0.00011381031
0.00010440791
9.24213e-05
7.7657465e-05
6.0100173e-05
4.0091897e-05
1.6820346e-05
0.00013839147
0.00013690032
0.0001341877
0.00013074415
0.0001264858
0.00012098302
0.00011372144
0.00010425316
9.2247517e-05
7.7504545e-05
5.9996355e-05
4.0047658e-05
1.6821344e-05
0.00013899243
0.00013745209
0.00013462779
0.00013102883
0.00012660569
0.00012096038
0.00011359692
0.00010407364
9.2058082e-05
7.7343204e-05
5.9889173e-05
4.0002693e-05
1.6821951e-05
0.00013949317
0.00013790792
0.00013498186
0.00013124128
0.00012666817
0.00012089414
0.00011344087
0.00010387279
9.1855697e-05
7.7175355e-05
5.9779746e-05
3.995744e-05
1.6822201e-05
0.00013990183
0.00013827565
0.00013525701
0.00013138765
0.00012667852
0.00012078886
0.00011325718
0.00010365387
9.1642917e-05
7.700279e-05
5.9669109e-05
3.9912296e-05
1.6822129e-05
0.00014022619
0.00013856273
0.00013545999
0.00013147386
0.00012664182
0.00012064891
0.0001130496
0.00010341996
9.1422138e-05
7.6827174e-05
5.9558211e-05
3.9867616e-05
1.6821768e-05
0.00014047362
0.00013877627
0.00013559727
0.00013150553
0.0001265629
0.00012047843
0.00011282164
0.00010317398
9.1195587e-05
7.6650033e-05
5.9447906e-05
3.9823714e-05
1.682115e-05
0.00014065111
0.00013892298
0.00013567501
0.00013148804
0.0001264464
0.00012028138
0.00011257663
0.0001029186
9.0965318e-05
7.6472758e-05
5.9338959e-05
3.978086e-05
1.6820307e-05
0.00014076525
0.00013900925
0.00013569902
0.00013142651
0.00012629667
0.00012006145
0.00011231766
0.00010265633
9.0733208e-05
7.6296597e-05
5.9232039e-05
3.9739285e-05
1.681927e-05
0.00014082227
0.00013904105
0.0001356748
0.00013132575
0.00012611785
0.00011982214
0.00011204762
0.00010238948
9.0500963e-05
7.6122665e-05
5.9127728e-05
3.9699179e-05
1.6818065e-05
0.000140828
0.00013902404
0.00013560752
0.0001311903
0.00012591381
0.0001195667
0.00011176919
0.00010212014
9.0270109e-05
7.5951925e-05
5.9026473e-05
3.9660485e-05
1.6816718e-05
0.00014078792
0.00013896351
0.00013550204
0.00013102443
0.0001256882
0.00011929816
0.00011148483
0.00010185023
9.0042002e-05
7.5785203e-05
5.8928631e-05
3.9623152e-05
1.681525e-05
0.00014070716
0.00013886439
0.00013536292
0.00013083214
0.00012544441
0.00011901933
0.00011119679
0.00010158144
8.9817814e-05
7.5623135e-05
5.8834224e-05
3.9587471e-05
1.6813681e-05
0.00014059048
0.00013873131
0.0001351944
0.00013061717
0.00012518559
0.00011873281
0.00011090712
0.00010131531
8.9598571e-05
7.5466303e-05
5.8743591e-05
3.9553568e-05
1.6812031e-05
0.00014044235
0.00013856856
0.00013500045
0.00013038297
0.00012491467
0.00011844097
0.00011061767
0.00010105316
8.9385063e-05
7.5314831e-05
5.8657166e-05
3.9521534e-05
1.6810319e-05
0.00014026689
0.00013838016
0.00013478474
0.00013013278
0.00012463435
0.00011814598
0.00011033009
0.00010079614
8.9177923e-05
7.5169414e-05
5.8575096e-05
3.949142e-05
1.6808564e-05
0.00014006794
0.0001381698
0.00013455068
0.00012986958
0.00012434711
0.00011784981
0.00011004583
0.00010054522
8.8977693e-05
7.5030512e-05
5.8497506e-05
3.9463258e-05
1.6806784e-05
0.00013984905
0.00013794092
0.00013430142
0.0001295961
0.00012405521
0.00011755421
0.00010976615
0.00010030106
8.8785175e-05
7.4898374e-05
5.8424477e-05
3.9437058e-05
1.6804995e-05
0.00013961349
0.00013769667
0.00013403988
0.00012931487
0.0001237607
0.00011726074
0.00010949206
0.00010006462
8.8600833e-05
7.4773175e-05
5.8356045e-05
3.9412813e-05
1.6803208e-05
0.00013936427
0.00013743996
0.0001337687
0.00012902817
0.00012346543
0.00011697074
0.00010922458
9.9836662e-05
8.8425014e-05
7.4655031e-05
5.8292208e-05
3.9390495e-05
1.6801437e-05
0.00013910415
0.00013717347
0.00013349032
0.00012873808
0.00012317101
0.00011668538
0.00010896478
9.9617753e-05
8.8257969e-05
7.4543997e-05
5.823293e-05
3.9370064e-05
1.6799692e-05
0.00013883567
0.00013689961
0.00013320695
0.00012844641
0.00012287884
0.00011640598
0.00010871345
9.9408329e-05
8.8099871e-05
7.4440074e-05
5.8178143e-05
3.9351466e-05
1.6797981e-05
0.0001385611
0.00013662057
0.00013292049
0.00012815482
0.00012259045
0.00011613359
0.00010847126
9.9208724e-05
8.7950812e-05
7.4343216e-05
5.8127754e-05
3.9334639e-05
1.6796311e-05
0.00013828247
0.00013633828
0.00013263278
0.00012786497
0.00012230713
0.00011586912
0.00010823875
9.9019179e-05
8.7810822e-05
7.4253332e-05
5.8081647e-05
3.9319515e-05
1.679469e-05
0.00013800165
0.00013605459
0.00013234553
0.00012757833
0.00012202999
0.00011561333
0.00010801635
9.883985e-05
8.7679866e-05
7.4170293e-05
5.803969e-05
3.9306017e-05
1.6793122e-05
0.00013772037
0.00013577117
0.0001320603
0.00012729619
0.00012176003
0.00011536685
0.00010780438
9.8670817e-05
8.7557858e-05
7.4093939e-05
5.8001732e-05
3.9294069e-05
1.6791612e-05
0.00013744021
0.00013548956
0.00013177846
0.0001270197
0.00012149808
0.00011513022
0.00010760309
9.8512087e-05
8.7444664e-05
7.4024084e-05
5.7967615e-05
3.9283588e-05
1.6790163e-05
0.00013716258
0.00013521113
0.00013150126
0.00012674988
0.00012124487
0.00011490386
0.00010741261
9.8363607e-05
8.734011e-05
7.3960516e-05
5.7937168e-05
3.9274492e-05
1.6788778e-05
0.00013688878
0.00013493712
0.00013122979
0.00012648759
0.000121001
0.00011468807
0.00010723303
9.8225268e-05
8.7243982e-05
7.3903005e-05
5.7910215e-05
3.92667e-05
1.6787459e-05
0.00013661994
0.00013466861
0.00013096501
0.0001262336
0.00012076695
0.0001144831
0.00010706435
9.8096911e-05
8.7156039e-05
7.3851308e-05
5.7886575e-05
3.9260127e-05
1.6786207e-05
0.00013635708
0.00013440656
0.00013070775
0.00012598852
0.00012054313
0.00011428909
0.00010690651
9.797833e-05
8.7076012e-05
7.3805167e-05
5.7866066e-05
3.9254693e-05
1.6785022e-05
0.00013610107
0.00013415181
0.00013045873
0.00012575289
0.00012032982
0.00011410611
0.00010675938
9.7869284e-05
8.7003609e-05
7.3764315e-05
5.7848501e-05
3.9250315e-05
1.6783906e-05
0.00013585268
0.00013390507
0.00013021855
0.00012552713
0.00012012725
0.00011393417
0.00010662281
9.7769497e-05
8.6938521e-05
7.3728481e-05
5.7833696e-05
3.9246916e-05
1.6782858e-05
0.00013561256
0.00013366695
0.00012998771
0.00012531158
0.00011993554
0.00011377319
0.00010649657
9.7678664e-05
8.6880426e-05
7.3697389e-05
5.7821467e-05
3.9244417e-05
1.6781877e-05
0.00013538126
0.00013343795
0.0001297666
0.00012510647
0.00011975475
0.00011362307
0.00010638041
9.7596458e-05
8.6828989e-05
7.3670759e-05
5.7811635e-05
3.9242745e-05
1.6780962e-05
0.00013515921
0.00013321847
0.00012955553
0.00012491198
0.00011958488
0.00011348363
0.00010627404
9.752253e-05
8.678387e-05
7.3648315e-05
5.7804022e-05
3.9241827e-05
1.6780113e-05
0.00013494677
0.00013300883
0.00012935475
0.00012472819
0.00011942585
0.00011335466
0.00010617716
9.7456519e-05
8.6744724e-05
7.3629782e-05
5.7798456e-05
3.9241594e-05
1.6779328e-05
0.00013474421
0.00013280927
0.00012916439
0.00012455513
0.00011927756
0.00011323592
0.0001060894
9.739805e-05
8.6711202e-05
7.3614889e-05
5.7794767e-05
3.924198e-05
1.6778605e-05
0.00013455173
0.00013261994
0.00012898454
0.00012439277
0.00011913982
0.00011312711
0.00010601042
9.7346741e-05
8.668296e-05
7.3603369e-05
5.7792795e-05
3.9242921e-05
1.6777942e-05
0.00013436944
0.00013244095
0.00012881521
0.00012424101
0.00011901243
0.00011302791
0.00010593983
9.7302206e-05
8.6659653e-05
7.3594964e-05
5.7792384e-05
3.9244356e-05
1.6777336e-05
0.00013419742
0.00013227232
0.00012865638
0.00012409971
0.00011889514
0.000112938
0.00010587725
9.7264058e-05
8.6640945e-05
7.3589421e-05
5.7793383e-05
3.9246229e-05
1.6776787e-05
0.00013403565
0.00013211402
0.00012850795
0.0001239687
0.00011878767
0.000112857
0.00010582229
9.7231912e-05
8.6626505e-05
7.3586498e-05
5.7795651e-05
3.9248486e-05
1.6776292e-05
0.00013388409
0.00013196598
0.00012836979
0.00012384777
0.00011868972
0.00011278457
0.00010577453
9.7205387e-05
8.6616013e-05
7.3585965e-05
5.7799054e-05
3.9251078e-05
1.6775847e-05
0.00013374263
0.00013182808
0.00012824173
0.00012373665
0.00011860096
0.0001127203
0.00010573359
9.7184108e-05
8.6609158e-05
7.3587598e-05
5.7803467e-05
3.9253957e-05
1.6775452e-05
0.00013361115
0.00013170016
0.00012812355
0.00012363507
0.00011852105
0.0001126638
0.00010569906
9.716771e-05
8.6605642e-05
7.3591188e-05
5.7808772e-05
3.9257084e-05
1.6775103e-05
0.00013348945
0.00013158201
0.00012801501
0.00012354274
0.00011844962
0.00011261469
0.00010567055
9.7155833e-05
8.6605175e-05
7.3596535e-05
5.7814857e-05
3.9260418e-05
1.6774798e-05
0.00013337733
0.00013147341
0.00012791584
0.00012345931
0.00011838629
0.00011257256
0.00010564766
9.7148127e-05
8.6607477e-05
7.3603447e-05
5.7821619e-05
3.9263925e-05
1.6774536e-05
0.00013327453
0.00013137408
0.00012782572
0.00012338444
0.00011833068
0.000112537
0.00010563
9.7144246e-05
8.6612278e-05
7.3611738e-05
5.7828957e-05
3.926757e-05
1.6774313e-05
0.00013318077
0.00013128373
0.00012774435
0.00012331776
0.00011828239
0.0001125076
0.00010561719
9.7143854e-05
8.6619315e-05
7.3621232e-05
5.7836776e-05
3.927132e-05
1.6774127e-05
0.00013309574
0.00013120204
0.00012767136
0.0001232589
0.000118241
0.00011248396
0.00010560883
9.7146621e-05
8.6628333e-05
7.3631758e-05
5.7844982e-05
3.9275143e-05
1.6773977e-05
0.00013301911
0.00013112867
0.00012760639
0.00012320744
0.00011820611
0.00011246565
0.00010560454
9.7152225e-05
8.6639085e-05
7.364315e-05
5.7853489e-05
3.9279009e-05
1.6773858e-05
0.00013295054
0.00013106325
0.00012754906
0.000123163
0.00011817729
0.00011245228
0.00010560397
9.7160356e-05
8.6651336e-05
7.3655253e-05
5.7862211e-05
3.9282885e-05
1.6773769e-05
0.00013288967
0.00013100543
0.00012749898
0.00012312516
0.00011815415
0.00011244345
0.00010560676
9.717072e-05
8.6664865e-05
7.3667923e-05
5.7871071e-05
3.9286746e-05
1.6773708e-05
0.00013283612
0.00013095481
0.00012745576
0.00012309352
0.00011813626
0.00011243878
0.00010561256
9.7183042e-05
8.6679468e-05
7.3681027e-05
5.7880002e-05
3.9290565e-05
1.6773671e-05
0.00013278953
0.00013091103
0.00012741902
0.00012306769
0.00011812326
0.0001124379
0.00010562106
9.7197066e-05
8.669496e-05
7.3694449e-05
5.7888944e-05
3.9294326e-05
1.6773657e-05
0.00013274952
0.00013087372
0.00012738836
0.00012304729
0.00011811476
0.00011244049
0.00010563197
9.7212561e-05
8.6711177e-05
7.370809e-05
5.789785e-05
3.9298011e-05
1.6773663e-05
0.00013271575
0.00013084249
0.00012736342
0.00012303194
0.00011811042
0.00011244621
0.00010564502
9.7229318e-05
8.6727974e-05
7.3721865e-05
5.7906682e-05
3.9301614e-05
1.6773687e-05
0.00013268784
0.000130817
0.00012734385
0.00012302128
0.00011810989
0.00011245477
0.00010565995
9.7247144e-05
8.6745221e-05
7.3735697e-05
5.7915409e-05
3.9305127e-05
1.6773729e-05
0.00013266545
0.00013079689
0.00012732927
0.00012301498
0.00011811285
0.00011246587
0.00010567654
9.7265862e-05
8.6762799e-05
7.3749524e-05
5.7924004e-05
3.9308546e-05
1.6773786e-05
0.00013264823
0.00013078181
0.00012731934
0.00012301268
0.00011811898
0.00011247925
0.00010569455
9.7285305e-05
8.6780598e-05
7.3763282e-05
5.7932445e-05
3.9311871e-05
1.6773857e-05
0.00013263582
0.0001307714
0.00012731371
0.00012301406
0.00011812798
0.00011249463
0.00010571377
9.7305311e-05
8.6798509e-05
7.3776912e-05
5.7940706e-05
3.9315095e-05
1.6773942e-05
0.00013262785
0.0001307653
0.00012731204
0.00012301878
0.00011813954
0.00011251175
0.00010573399
9.7325717e-05
8.6816423e-05
7.379035e-05
5.794876e-05
3.9318213e-05
1.6774038e-05
0.00013262398
0.00013076317
0.00012731396
0.0001230265
0.00011815335
0.00011253034
0.00010575498
9.7346363e-05
8.683423e-05
7.3803528e-05
5.7956567e-05
3.9321191e-05
1.6774144e-05
0.00013262384
0.00013076462
0.00012731912
0.00012303688
0.00011816912
0.00011255015
0.00010577654
9.7367091e-05
8.6851821e-05
7.381638e-05
5.7964094e-05
3.9324012e-05
1.6774257e-05
0.00013262705
0.00013076931
0.00012732717
0.00012304961
0.00011818654
0.00011257093
0.00010579847
9.738775e-05
8.6869092e-05
7.3828839e-05
5.7971288e-05
3.9326678e-05
1.6774377e-05
0.00013263327
0.00013077687
0.00012733777
0.00012306435
0.00011820533
0.00011259243
0.00010582058
9.7408203e-05
8.6885948e-05
7.3840848e-05
5.7978124e-05
3.9329186e-05
1.6774501e-05
0.00013264214
0.00013078697
0.0001273506
0.00012308082
0.00011822523
0.00011261444
0.0001058427
9.7428325e-05
8.6902307e-05
7.3852342e-05
5.7984598e-05
3.9331533e-05
1.6774628e-05
0.00013265334
0.00013079929
0.00012736533
0.00012309872
0.000118246
0.00011263677
0.00010586469
9.7448016e-05
8.6918105e-05
7.3863298e-05
5.7990706e-05
3.9333716e-05
1.6774756e-05
0.00013266656
0.00013081352
0.0001273817
0.00012311781
0.00011826743
0.00011265924
0.00010588641
9.7467189e-05
8.6933277e-05
7.387372e-05
5.7996445e-05
3.9335738e-05
1.6774885e-05
0.00013268154
0.00013082939
0.00012739945
0.00012313786
0.00011828932
0.00011268171
0.00010590778
9.748578e-05
8.6947818e-05
7.3883603e-05
5.8001823e-05
3.9337608e-05
1.6775013e-05
0.00013269801
0.00013084666
0.00012741835
0.00012315866
0.00011831152
0.00011270407
0.0001059287
9.7503741e-05
8.6961726e-05
7.3892953e-05
5.8006851e-05
3.9339331e-05
1.6775141e-05
0.00013271576
0.00013086512
0.00012743819
0.00012318005
0.00011833388
0.0001127262
0.00010594911
9.7521064e-05
8.6974996e-05
7.390178e-05
5.8011545e-05
3.934092e-05
1.6775267e-05
0.00013273458
0.00013088455
0.00012745878
0.00012320186
0.00011835628
0.000112748
0.00010596895
9.7537727e-05
8.698763e-05
7.3910097e-05
5.801592e-05
3.9342384e-05
1.6775392e-05
0.00013275428
0.00013090478
0.00012747997
0.00012322394
0.00011837858
0.00011276941
0.0001059882
9.7553715e-05
8.6999628e-05
7.3917917e-05
5.8019989e-05
3.9343732e-05
1.6775515e-05
0.0001327747
0.00013092564
0.00012750158
0.00012324615
0.00011840069
0.00011279035
0.00010600682
9.7569008e-05
8.701099e-05
7.3925247e-05
5.8023764e-05
3.934497e-05
1.6775636e-05
0.00013279566
0.00013094696
0.00012752346
0.00012326836
0.00011842251
0.00011281077
0.00010602475
9.7583589e-05
8.7021712e-05
7.3932094e-05
5.8027252e-05
3.9346104e-05
1.6775756e-05
0.000132817
0.00013096857
0.00012754547
0.00012329045
0.00011844395
0.00011283059
0.00010604197
9.7597437e-05
8.703179e-05
7.393846e-05
5.8030458e-05
3.9347134e-05
1.6775872e-05
0.00013283856
0.00013099034
0.00012756747
0.0001233123
0.00011846492
0.00011284974
0.00010605843
9.7610534e-05
8.7041219e-05
7.3944347e-05
5.8033384e-05
3.9348062e-05
1.6775986e-05
0.0001328602
0.00013101213
0.00012758934
0.00012333381
0.00011848534
0.00011286819
0.0001060741
9.7622866e-05
8.7049995e-05
7.3949758e-05
5.8036034e-05
3.934889e-05
1.6776096e-05
0.0001328818
0.00013103381
0.00012761096
0.00012335489
0.00011850513
0.00011288587
0.00010608896
9.7634424e-05
8.7058122e-05
7.39547e-05
5.8038413e-05
3.9349618e-05
1.6776202e-05
0.00013290322
0.00013105526
0.00012763223
0.00012337545
0.00011852424
0.00011290276
0.00010610298
9.7645209e-05
8.7065608e-05
7.3959184e-05
5.804053e-05
3.9350249e-05
1.6776303e-05
0.00013292437
0.00013107638
0.00012765306
0.00012339542
0.00011854262
0.00011291882
0.00010611617
9.7655228e-05
8.7072468e-05
7.3963224e-05
5.8042394e-05
3.9350785e-05
1.6776399e-05
0.00013294515
0.00013109709
0.00012767337
0.00012341475
0.00011856023
0.00011293404
0.00010612853
9.7664499e-05
8.7078725e-05
7.3966843e-05
5.8044021e-05
3.9351235e-05
1.6776491e-05
0.00013296548
0.00013111731
0.00012769311
0.00012343338
0.00011857705
0.00011294844
0.00010614008
9.7673047e-05
8.7084406e-05
7.3970065e-05
5.8045427e-05
3.9351606e-05
1.6776577e-05
0.0001329853
0.00013113698
0.00012771223
0.0001234513
0.00011859307
0.000112962
0.00010615083
9.7680901e-05
8.7089543e-05
7.3972917e-05
5.8046633e-05
3.9351905e-05
1.6776659e-05
0.00013300455
0.00013115604
0.00012773067
0.00012346846
0.00011860829
0.00011297474
0.00010616081
9.7688093e-05
8.7094167e-05
7.3975425e-05
5.8047654e-05
3.9352141e-05
1.6776735e-05
0.00013302317