/*--------------------------------*- C++ -*----------------------------------*\
| =========                 |                                                 |
| \\      /  F ield         | OpenFOAM: The Open Source CFD Toolbox           |
|  \\    /   O peration     | Version:  2506                                  |
|   \\  /    A nd           | Website:  www.openfoam.com                      |
|    \\/     M anipulation  |                                                 |
\*---------------------------------------------------------------------------*/
FoamFile
{
    version     2.0;
    format      ascii;
    arch        "LSB;label=32;scalar=64";
    class       surfaceScalarField;
    location    "8000/water";
    object      phi;
}
// * * * * * * * * * * * * * * * * * * * * * * * * * * * * * * * * * * * * * //

dimensions      [1 0 -1 0 0 0 0];

oriented        oriented;

internalField   nonuniform List<scalar> 
4987
(
-6.9167736e-06
0.00085760419
-2.7656569e-05
0.0024926737
-6.1431121e-05
0.0040117068
-0.0001075903
0.0054211695
-0.00016565319
0.0067272392
-0.00023525167
0.0079357375
-0.00031606519
0.0090521266
-0.00040763483
0.010081416
-0.00050867084
0.011027654
-0.00061447105
0.011892066
-0.00070641237
0.012665127
-0.00069017742
0.01327532
0.013255156
-6.4252097e-06
0.00086402939
-2.4701717e-05
0.0025109502
-5.3973207e-05
0.0040409782
-9.3433184e-05
0.0054606295
-0.00014227852
0.0067760845
-0.00019970621
0.0079931652
-0.00026484255
0.0091172629
-0.00033648012
0.010153054
-0.00041221923
0.011103393
-0.0004856843
0.011965531
-0.00053558126
0.012715024
-0.00047144624
0.013211185
0.01278371
-6.163969e-06
0.00087019336
-2.380905e-05
0.0025285953
-5.2164898e-05
0.0040693341
-9.0528704e-05
0.0054989933
-0.00013822172
0.0068237776
-0.00019455674
0.0080495002
-0.00025870612
0.0091814123
-0.00032929751
0.010223645
-0.00040329175
0.011177387
-0.00047276141
0.012035
-0.00051220841
0.012754471
-0.00042242592
0.013121403
0.012361284
-6.1054147e-06
0.00087629878
-2.3924376e-05
0.0025464143
-5.2620538e-05
0.0040980303
-9.1395558e-05
0.0055377683
-0.00013947504
0.006871857
-0.00019604176
0.0081060669
-0.00026004543
0.009245416
-0.00032969289
0.010293293
-0.00040116834
0.011248863
-0.00046497904
0.012098811
-0.00049117541
0.012780667
-0.00037835998
0.013008587
0.011982924
-5.9919784e-06
0.00088229076
-2.3432324e-05
0.0025638546
-5.1502782e-05
0.0041261007
-8.9417765e-05
0.0055756833
-0.0001363976
0.0069188369
-0.00019157934
0.0081612487
-0.00025377584
0.0093076125
-0.0003208868
0.010360404
-0.00038849227
0.011316468
-0.0004456482
0.012155967
-0.00045837524
0.012793394
-0.00033102689
0.012881239
0.011651897
-5.8197985e-06
0.00088811056
-2.2720415e-05
0.0025807553
-4.9911333e-05
0.0041532916
-8.6629801e-05
0.0056124017
-0.00013209822
0.0069643053
-0.00018540983
0.0082145603
-0.00024524283
0.0093674455
-0.00030921061
0.010424371
-0.00037232044
0.011379578
-0.00042207813
0.012205725
-0.00042081904
0.012792135
-0.00028517408
0.012745594
0.011366723
-5.6148952e-06
0.00089372545
-2.1923414e-05
0.0025970638
-4.8158186e-05
0.0041795264
-8.35701e-05
0.0056478136
-0.00012737381
0.007008109
-0.00017860877
0.0082657952
-0.00023581604
0.0094246528
-0.00029633568
0.010484891
-0.00035458539
0.011437828
-0.00039630862
0.012247448
-0.00038067559
0.012776502
-0.00024201049
0.012606929
0.011124713
-5.4046946e-06
0.00089913014
-2.1106786e-05
0.0026127659
-4.6361914e-05
0.0042047815
-8.0433154e-05
0.0056818849
-0.00012252438
0.0070502002
-0.00017161842
0.0083148893
-0.0002261212
0.0094791555
-0.00028309872
0.010541869
-0.00033629459
0.011491024
-0.00036936757
0.012280521
-0.00033930313
0.012746438
-0.00020218079
0.012469807
0.010922532
-5.2040372e-06
0.00090433418
-2.0322449e-05
0.0026278843
-4.4632487e-05
0.0042290916
-7.7407183e-05
0.0057146596
-0.000117836
0.007090629
-0.00016484161
0.0083618949
-0.00021669175
0.0095310057
-0.00027015443
0.010595331
-0.00031814583
0.011539015
-0.00034189245
0.012304267
-0.00029797663
0.012702522
-0.0001662914
0.012338121
0.010756241
-5.0193754e-06
0.00090935356
-1.9599432e-05
0.0026424643
-4.3036007e-05
0.0042525281
-7.4608171e-05
0.0057462317
-0.00011348606
0.0071295069
-0.00015852683
0.0084069356
-0.0002078498
0.0095803287
-0.00025787593
0.010645357
-0.00030047882
0.011581618
-0.00031421626
0.012318005
-0.00025799659
0.012646302
-0.00013488814
0.012215013
0.010621352
-4.8544122e-06
0.00091420797
-1.8953518e-05
0.0026565634
-4.1607992e-05
0.0042751826
-7.2098328e-05
0.0057767221
-0.00010956978
0.0071669784
-0.00015280648
0.0084501723
-0.00019976083
0.009627283
-0.00024643025
0.010692027
-0.00028338283
0.01161857
-0.00028657101
0.012321193
-0.00022065197
0.012580383
-0.00010831398
0.012102675
0.010513039
-4.7104907e-06
0.00091891846
-1.838964e-05
0.0026702426
-4.0359024e-05
0.004297152
-6.9895773e-05
0.0058062588
-0.00010611414
0.0072031967
-0.00014771517
0.0084917734
-0.00019245611
0.0096720239
-0.00023580475
0.010735375
-0.00026674607
0.011649512
-0.00025920371
0.012313651
-0.00018698909
0.012508168
-8.6549233e-05
0.012002235
0.010426489
-4.5864893e-06
0.00092350495
-1.7903118e-05
0.0026835592
-3.9278552e-05
0.0043185274
-6.7981782e-05
0.0058349621
-0.00010308929
0.0072383042
-0.0001432058
0.0085318899
-0.00018585427
0.0097146724
-0.00022583645
0.010775358
-0.0002503233
0.011673999
-0.00023244679
0.012295774
-0.00015760688
0.012433329
-6.9195202e-05
0.011913823
0.010357294
-4.47971e-06
0.00092798466
-1.7483378e-05
0.0026965629
-3.8343222e-05
0.0043393873
-6.6315361e-05
0.0058629342
-0.00010043089
0.0072724198
-0.00013918123
0.0085706402
-0.00017980338
0.0097552946
-0.00021627053
0.010811825
-0.0002338457
0.011691574
-0.00020673153
0.01226866
-0.00013260939
0.012359206
-5.5603105e-05
0.011836817
0.010301691
-4.3869483e-06
0.00093237161
-1.7117944e-05
0.0027092939
-3.7525518e-05
0.0043597948
-6.4848149e-05
0.0058902568
-9.8062775e-05
0.0073056344
-0.00013552609
0.0086081035
-0.00017412332
0.0097938918
-0.00020682319
0.010844525
-0.00021713162
0.011701882
-0.00018252415
0.012234052
-0.00011170489
0.012288387
-4.5044652e-05
0.011770157
0.010256646
-4.3051909e-06
0.0009366768
-1.679506e-05
0.0027217838
-3.6799452e-05
0.0043797992
-6.3534223e-05
0.0059169916
-9.5911856e-05
0.007338012
-0.0001321276
0.0086443193
-0.00016863372
0.0098303979
-0.0001972305
0.010873121
-0.00020015794
0.01170481
-0.0001602209
0.012194115
-9.437249e-05
0.012222539
-3.6838823e-05
0.011712623
0.010219807
-4.2319149e-06
0.00094090871
-1.6504851e-05
0.0027340567
-3.6143084e-05
0.0043994375
-6.2334438e-05
0.005943183
-9.3914666e-05
0.0073695922
-0.00012888455
0.0086792892
-0.00016316714
0.0098646805
-0.00018728236
0.010897237
-0.00018307196
0.011700599
-0.00014006426
0.012151108
-8.0017949e-05
0.012162492
-3.0412524e-05
0.011663018
0.010189395
-4.1651417e-06
0.00094507386
-1.6239539e-05
0.0027461311
-3.5538992e-05
0.0044187369
-6.1217189e-05
0.0059688612
-9.2018424e-05
0.0074003935
-0.00012570858
0.0087129793
-0.00015757395
0.0098965459
-0.00017684648
0.010916509
-0.00016614714
0.0116899
-0.00012211722
0.012107078
-6.8078265e-05
0.012108453
-2.5313042e-05
0.011620253
0.010164082
-4.1033745e-06
0.00094917723
-1.5993201e-05
0.0027580209
-3.4973724e-05
0.0044377174
-6.0157433e-05
0.0059940449
-9.0179431e-05
0.0074304155
-0.00012252186
0.0087453218
-0.00015172469
0.0099257487
-0.0001658846
0.010930669
-0.0001497063
0.011673722
-0.00010629219
0.012063664
-5.8071534e-05
0.012060233
-2.119693e-05
0.011583378
0.010142885
-4.0454969e-06
0.00095322273
-1.5761374e-05
0.0027697368
-3.4436918e-05
0.004456393
-5.9135101e-05
0.006018743
-8.8360525e-05
0.0074596409
-0.00011925379
0.008776215
-0.00014551369
0.0099520086
-0.00015445694
0.010939612
-0.00013404493
0.01165331
-9.2406382e-05
0.012022025
-4.9608146e-05
0.012017435
-1.7811009e-05
0.011551581
0.010125074
-3.9906704e-06
0.0009572134
-1.5540649e-05
0.0027812868
-3.3920383e-05
0.0044747727
-5.813347e-05
0.0060429561
-8.6528474e-05
0.0074880359
-0.00011583834
0.0088055249
-0.00013886506
0.0099750353
-0.00014270996
0.010943457
-0.00011937989
0.01162998
-8.0236201e-05
0.011982881
-4.2382095e-05
0.01197958
-1.4972566e-05
0.011524171
0.010110101
-3.938246e-06
0.00096115164
-1.5328322e-05
0.0027926768
-3.3417324e-05
0.0044928617
-5.7137747e-05
0.0060666766
-8.4651725e-05
0.0075155499
-0.00011221298
0.0088330861
-0.00013174063
0.009994563
-0.00013084739
0.010942564
-0.00010583196
0.011604964
-6.9555618e-05
0.011946605
-3.615578e-05
0.011946181
-1.2551483e-05
0.011500567
0.01009755
-3.8876948e-06
0.00096503934
-1.512212e-05
0.0028039113
-3.2921708e-05
0.0045106613
-5.613392e-05
0.0060898888
-8.2698664e-05
0.0075421146
-0.00010831969
0.0088587072
-0.00012414735
0.010010391
-0.00011909196
0.010937509
-9.3435672e-05
0.011579308
-6.0156859e-05
0.011913326
-3.0745095e-05
0.011916769
-1.045548e-05
0.011480277
0.010087094
-3.838557e-06
0.00096887789
-1.4919993e-05
0.0028149927
-3.2427784e-05
0.0045281691
-5.5107851e-05
0.0061125688
-8.0636494e-05
0.0075676432
-0.00010410814
0.0088821788
-0.00011614033
0.010022423
-0.00010764917
0.010929017
-8.2162706e-05
0.011553821
-5.1858097e-05
0.011883022
-2.6007005e-05
0.011890918
-8.6187486e-06
0.011462889
0.010078476
-3.790402e-06
0.0009726683
-1.4719951e-05
0.0028259223
-3.1929705e-05
0.0045453789
-5.4044566e-05
0.0061346837
-7.8430838e-05
0.0075920295
-9.9540734e-05
0.0089032887
-0.00010781835
0.0100307
-9.6682483e-05
0.010917882
-7.1946853e-05
0.011529086
-4.4503975e-05
0.011855579
-2.1829765e-05
0.011868244
-6.9937195e-06
0.011448053
0.010071482
-3.7428e-06
0.0009764111
-1.4519945e-05
0.0028366994
-3.1421228e-05
0.0045622801
-5.2927708e-05
0.0061561902
-7.6046257e-05
0.0076151481
-9.4598626e-05
0.0089218411
-9.9310967e-05
0.010035413
-8.6303368e-05
0.010904874
-6.2703798e-05
0.011505486
-3.7963159e-05
0.011830838
-1.8125356e-05
0.011848406
-5.5453106e-06
0.011435473
0.010065937
-3.6952977e-06
0.00098010639
-1.4317762e-05
0.0028473219
-3.0895462e-05
0.0045788578
-5.1739148e-05
0.0061770339
-7.3447799e-05
0.0076368567
-8.9287318e-05
0.0089376806
-9.0760488e-05
0.010036886
-7.6573776e-05
0.010890687
-5.4344041e-05
0.011483256
-3.2125074e-05
0.011808619
-1.4823705e-05
0.011831104
-4.2470137e-06
0.011424896
0.01006169
-3.6473963e-06
0.00098375379
-1.4110936e-05
0.0028577854
-3.034464e-05
0.0045950915
-5.0458782e-05
0.006197148
-7.0603633e-05
0.0076570016
-8.3639733e-05
0.0089507167
-8.2303602e-05
0.01003555
-6.7515807e-05
0.010875899
-4.6780171e-05
0.011462521
-2.6896734e-05
0.011788736
-1.186836e-05
0.011816076
-3.0782599e-06
0.011416106
0.010058611
-3.5985287e-06
0.00098735232
-1.3896642e-05
0.0028680835
-2.9759895e-05
0.0046109548
-4.9064618e-05
0.0062164527
-6.7488582e-05
0.0076754255
-7.771507e-05
0.0089609432
-7.4057334e-05
0.010031892
-5.9123302e-05
0.010860965
-3.9930383e-05
0.011443328
-2.2199837e-05
0.011771005
-9.2132636e-06
0.011803089
-2.0226477e-06
0.011408916
0.010056589
-3.5480255e-06
0.00099090034
-1.3671564e-05
0.0028782071
-2.9130948e-05
0.0046264142
-4.7533108e-05
0.0062348549
-6.4087905e-05
0.0076919803
-7.1592538e-05
0.0089684478
-6.6111078e-05
0.010026411
-5.1371363e-05
0.010846226
-3.3718946e-05
0.011425676
-1.7967065e-05
0.011755253
-6.8191595e-06
0.011791942
-1.0665499e-06
0.011403163
0.010055522
-3.4950998e-06
0.00099439544
-1.343182e-05
0.0028881438
-2.8446031e-05
0.0046414284
-4.5840363e-05
0.0062522492
-6.0401298e-05
0.0077065413
-6.5362281e-05
0.0089734088
-5.8525769e-05
0.010019574
-4.422436e-05
0.010831924
-2.8076898e-05
0.011409528
-1.4140001e-05
0.011741316
-4.6491364e-06
0.011782451
-1.6920389e-07
0.011398683
0.010055353
-3.4388797e-06
0.00099783432
-1.3173132e-05
0.002897878
-2.7692439e-05
0.0046559477
-4.3964994e-05
0.0062685218
-5.6447125e-05
0.0077190234
-5.9117553e-05
0.0089760792
-5.1340483e-05
0.010011797
-3.7645547e-05
0.010818229
-2.2947449e-05
0.01139483
-1.0674747e-05
0.011729044
-2.6810801e-06
0.011774457
6.6545873e-07
0.011395337
0.010056018
-3.3783151e-06
0.0010012126
-1.2890439e-05
0.0029073902
-2.6855996e-05
0.0046699133
-4.1889312e-05
0.0062835551
-5.2260838e-05
0.0077293949
-5.2943429e-05
0.0089767618
-4.4574253e-05
0.010003428
-3.1595996e-05
0.010805251
-1.8279612e-05
0.011381514
-7.5311768e-06
0.011718295
-8.8302785e-07
0.011767809
1.4049879e-06
0.011393049
0.010057423
-3.3120985e-06
0.0010045247
-1.2577618e-05
0.0029166557
-2.5921008e-05
0.0046832566
-3.9601336e-05
0.0062972354
-4.7891276e-05
0.0077376848
-4.6909591e-05
0.0089757801
-3.8229296e-05
0.0099947476
-2.603394e-05
0.010793056
-1.4024285e-05
0.011369504
-4.6695565e-06
0.011708941
7.7464392e-07
0.011762365
2.0667202e-06
0.011391757
0.01005949
-3.238693e-06
0.0010077634
-1.2227715e-05
0.0029256447
-2.4871689e-05
0.0046959006
-3.7098723e-05
0.0063094625
-4.3397674e-05
0.0077439838
-4.1070828e-05
0.0089734533
-3.2299163e-05
0.0099859759
-2.0920754e-05
0.010781677
-1.0139977e-05
0.011358723
-2.0591599e-06
0.01170086
2.2779711e-06
0.011758028
2.66386e-06
0.011391371
0.010062154
-3.1562773e-06
0.0010109197
-1.1832824e-05
0.0029343212
-2.3693041e-05
0.0047077608
-3.4390261e-05
0.0063201597
-3.8842829e-05
0.0077484364
-3.5466349e-05
0.0089700768
-2.6770514e-05
0.0099772801
-1.6218844e-05
0.010771126
-6.5853786e-06
0.01134909
3.4748264e-07
0.011693927
3.6322218e-06
0.011754743
3.202315e-06
0.011391801
0.010065356
-3.0627121e-06
0.0010139824
-1.138418e-05
0.0029426427
-2.2372407e-05
0.0047187491
-3.1496512e-05
0.0063292838
-3.4287375e-05
0.0077512272
-3.012189e-05
0.0089659113
-2.1625971e-05
0.0099687841
-1.1894099e-05
0.010761394
-3.3303686e-06
0.011340526
2.5510481e-06
0.011688046
4.8616356e-06
0.011752432
3.6898216e-06
0.011392972
0.010069046
-2.9555343e-06
0.001016938
-1.087249e-05
0.0029505597
-2.0901467e-05
0.004728778
-2.8448959e-05
0.0063368313
-2.9785818e-05
0.0077525641
-2.5052633e-05
0.0089611781
-1.6845509e-05
0.009960577
-7.9112651e-06
0.01075246
-3.2677542e-07
0.011332941
4.5433617e-06
0.011683175
5.975331e-06
0.011751
4.1313068e-06
0.011394816
0.010073177
-2.8319482e-06
0.0010197699
-1.0288361e-05
0.0029580161
-1.9277903e-05
0.0047377676
-2.5286916e-05
0.0063428403
-2.5383518e-05
0.0077526607
-2.0265029e-05
0.0089560596
-1.2407994e-05
0.00995272
-4.2419126e-06
0.010744293
2.437997e-06
0.011326262
6.3569817e-06
0.011679256
6.985757e-06
0.011750371
4.5313158e-06
0.011397271
0.010077709
-2.6889077e-06
0.0010224588
-9.6232147e-06
0.0029649504
-1.7507138e-05
0.0047456515
-2.2054227e-05
0.0063473874
-2.1116491e-05
0.007751723
-1.5759143e-05
0.0089507023
-8.2896957e-06
0.0099452505
-8.4672902e-07
0.01073685
4.9536634e-06
0.011320461
8.0064777e-06
0.011676204
7.9030696e-06
0.011750475
4.8939874e-06
0.01140028
0.010082603
-2.5232511e-06
0.0010249821
-8.8703678e-06
0.0029712975
-1.560292e-05
0.0047523841
-1.8795234e-05
0.0063505797
-1.7011673e-05
0.0077499394
-1.153074e-05
0.0089452214
-4.470036e-06
0.0099381898
2.2909472e-06
0.01073009
7.2494976e-06
0.011315503
9.506876e-06
0.011673946
8.7354355e-06
0.011751246
5.2223304e-06
0.011403793
0.010087825
-2.3319756e-06
0.001027314
-8.0264284e-06
0.002976992
-1.3587015e-05
0.0047579446
-1.5551709e-05
0.0063525444
-1.3087803e-05
0.0077474755
-7.5700562e-06
0.0089397036
-9.1686718e-07
0.0099315366
5.1653391e-06
0.010724007
9.3448595e-06
0.011311323
1.0871963e-05
0.011672419
9.4906163e-06
0.011752628
5.5193503e-06
0.011407764
0.010093344
-2.1126553e-06
0.0010294267
-7.092664e-06
0.002981972
-1.1487685e-05
0.0047623397
-1.2360768e-05
0.0063534175
-9.3574516e-06
0.0077444722
-3.8680966e-06
0.0089342143
2.3811951e-06
0.0099252874
7.7971306e-06
0.010718591
1.1256333e-05
0.011307864
1.2113263e-05
0.011671562
1.0175011e-05
0.011754566
5.7874379e-06
0.011412152
0.010099132
-1.864028e-06
0.0010312907
-6.0761543e-06
0.0029861841
-9.3374816e-06
0.004765601
-9.2535954e-06
0.0063533336
-5.8255869e-06
0.0077410442
-4.0087426e-07
0.0089287896
5.4171544e-06
0.0099194693
1.020609e-05
0.010713802
1.2999143e-05
0.011305071
1.3241047e-05
0.01167132
1.0794292e-05
0.011757013
6.0287349e-06
0.011416917
0.010105161
-1.5866529e-06
0.0010328774
-4.9902408e-06
0.0029895877
-7.1706326e-06
0.0047677814
-6.2552736e-06
0.0063524182
-2.4927364e-06
0.0077372816
2.8316898e-06
0.0089234651
8.2068044e-06
0.0099140942
1.2408955e-05
0.0107096
1.4586654e-05
0.011302893
1.4264281e-05
0.011671643
1.1353377e-05
0.011759924
6.2450792e-06
0.011422026
0.010111406
-1.2835183e-06
0.0010341609
-3.854185e-06
0.0029921583
-5.0207814e-06
0.004768948
-3.3849436e-06
0.0063507824
6.4622889e-07
0.0077332504
5.815387e-06
0.008918296
1.076594e-05
0.0099091437
1.4420848e-05
0.010705945
1.6030834e-05
0.011301283
1.5191006e-05
0.011672482
1.1856704e-05
0.011763258
6.4381644e-06
0.011427444
0.010117844
-9.6035056e-07
0.0010351212
-2.6918225e-06
0.0029938898
-2.9183376e-06
0.0047691745
-6.5059867e-07
0.0063485147
3.5782671e-06
0.0077290216
8.562936e-06
0.0089133113
1.3108584e-05
0.009904598
1.6254534e-05
0.010702799
1.7341525e-05
0.011300196
1.6027675e-05
0.011673796
1.2307708e-05
0.011766978
6.6092137e-06
0.011433143
0.010124453
-6.2535236e-07
0.0010357466
-1.5291151e-06
0.0029947936
-8.8735721e-07
0.0047685327
1.9291106e-06
0.0063456982
6.2873332e-06
0.0077246634
1.1084082e-05
0.0089085146
1.5247504e-05
0.0099004346
1.7921717e-05
0.010700125
1.8527738e-05
0.01129959
1.6780229e-05
0.011675544
1.2709608e-05
0.011771048
6.7594293e-06
0.011439093
0.010131213
-2.882172e-07
0.0010360348
-3.9067185e-07
0.002994896
1.0457232e-06
0.0047670963
4.3266901e-06
0.0063424172
8.7771404e-06
0.0077202129
1.3387474e-05
0.0089039042
1.7193145e-05
0.0098966289
1.9431844e-05
0.010697887
1.9596621e-05
0.011299425
1.7453242e-05
0.011677687
1.3064759e-05
0.011775437
6.8896057e-06
0.011445268
0.010138102
4.0783372e-08
0.001035994
6.966655e-07
0.0029942402
2.8486109e-06
0.0047649444
6.5296287e-06
0.0063387362
1.1049543e-05
0.007715693
1.5480327e-05
0.0088994734
1.8954089e-05
0.0098931552
2.0792571e-05
0.010696048
2.0553855e-05
0.011299664
1.8050243e-05
0.011680191
1.3374883e-05
0.011780112
7.000267e-06
0.011451643
0.010145102
3.5067695e-07
0.0010356434
1.7048766e-06
0.002992886
4.4971076e-06
0.0047621522
8.5308135e-06
0.0063347025
1.3105759e-05
0.007711118
1.736806e-05
0.0088952111
2.0536791e-05
0.0098899864
2.2009536e-05
0.010694575
2.1403461e-05
0.01130027
1.8573536e-05
0.011683021
1.3640923e-05
0.011785045
7.0915678e-06
0.011458192
0.010152194
6.3199661e-07
0.0010350114
2.6138082e-06
0.0029909041
5.9772191e-06
0.0047587888
1.0324547e-05
0.0063303552
1.4946332e-05
0.0077064963
1.9054326e-05
0.0088911031
2.1945593e-05
0.0098870952
2.3086365e-05
0.010693435
2.2147762e-05
0.011301209
1.9024156e-05
0.011686144
1.3863e-05
0.011790206
7.1632837e-06
0.011464892
0.010159357
8.7876616e-07
0.0010341326
3.411394e-06
0.0029883715
7.2795728e-06
0.0047549206
1.1906947e-05
0.0063257278
1.6571552e-05
0.0077018317
2.0541418e-05
0.0088871333
2.3183078e-05
0.0098844535
2.4024944e-05
0.010692593
2.2787601e-05
0.011302446
1.9402006e-05
0.01168953
1.4040497e-05
0.011795568
7.2148323e-06
0.011471717
0.010166572
1.0879044e-06
0.0010330447
4.0915639e-06
0.0029853679
8.3995301e-06
0.0047506126
1.3276287e-05
0.006320851
1.798188e-05
0.0076971261
2.1830677e-05
0.0088832845
2.42504e-05
0.0098820338
2.4825663e-05
0.010692017
2.3322487e-05
0.011303949
1.9705961e-05
0.011693146
1.4172124e-05
0.011801101
7.2453216e-06
0.011478644
0.010173817
1.2588972e-06
0.0010317858
4.6536681e-06
0.0029819731
9.3371015e-06
0.0047459292
1.4433358e-05
0.0063157548
1.9178486e-05
0.0076923809
2.2923034e-05
0.0088795399
2.5147758e-05
0.0098798091
2.5487797e-05
0.010691677
2.3750893e-05
0.011305686
1.9934063e-05
0.011696963
1.4256024e-05
0.011806779
7.2535865e-06
0.011485647
0.010181071
1.3932136e-06
0.0010303926
5.1015162e-06
0.0029782648
1.0096602e-05
0.0047409341
1.5381724e-05
0.0063104697
2.0163791e-05
0.0076875989
2.3819609e-05
0.0088758841
2.5874945e-05
0.0098777537
2.6009962e-05
0.010691542
2.4070604e-05
0.011307626
2.0083773e-05
0.01170095
1.4289952e-05
0.011812573
7.2382811e-06
0.011492698
0.010188309
1.4936532e-06
0.0010288989
5.4422338e-06
0.0029743162
1.0686056e-05
0.0047356903
1.6127797e-05
0.0063050279
2.0941913e-05
0.0076827848
2.4522297e-05
0.0088723037
2.6431927e-05
0.0098758441
2.639062e-05
0.010691584
2.4279123e-05
0.011309737
2.0152289e-05
0.011705077
1.4271488e-05
0.011818454
7.1980001e-06
0.011499772
0.010195507
1.5637608e-06
0.0010273352
5.6851257e-06
0.0029701948
1.1116442e-05
0.004730259
1.6680712e-05
0.0062994636
2.1518986e-05
0.0076779465
2.503429e-05
0.0088687884
2.6819427e-05
0.009874059
2.6628639e-05
0.010691774
2.4374171e-05
0.011311991
2.0136919e-05
0.011709314
1.4198277e-05
0.011824393
7.1313604e-06
0.011506839
0.010202639
1.6073689e-06
0.0010257278
5.8406657e-06
0.0029659615
1.1400832e-05
0.0047246988
1.7051978e-05
0.0062938125
2.1903242e-05
0.0076730952
2.5360407e-05
0.0088653313
2.7039344e-05
0.00987238
2.6723723e-05
0.01069209
2.4354046e-05
0.011314361
2.0035403e-05
0.011713633
1.4068291e-05
0.01183036
7.0372069e-06
0.01151387
0.010209676
1.6282813e-06
0.0010240995
5.9196973e-06
0.0029616701
1.1553575e-05
0.0047190649
1.7255017e-05
0.0062881111
2.210496e-05
0.0076682453
2.5507337e-05
0.0088619289
2.7095176e-05
0.0098707922
2.6676888e-05
0.010692508
2.4218124e-05
0.01131682
1.9846307e-05
0.011718005
1.3880079e-05
0.011836326
6.9146671e-06
0.011520835
0.01021659
1.6300767e-06
0.0010224694
5.932844e-06
0.0029573674
1.1589551e-05
0.0047134082
1.7304607e-05
0.006282396
2.21362e-05
0.0076634137
2.5483631e-05
0.0088585815
2.6992159e-05
0.0098692836
2.6490692e-05
0.01069301
2.3967071e-05
0.011319344
1.9569256e-05
0.011722402
1.3632983e-05
0.011842262
6.7633334e-06
0.011527705
0.010223354
1.6160062e-06
0.0010208534
5.8901271e-06
0.0029530932
1.1523568e-05
0.0047077748
1.7216329e-05
0.0062767032
2.2010489e-05
0.0076586195
2.5299622e-05
0.0088552923
2.6737384e-05
0.0098678459
2.6169463e-05
0.010693578
2.360316e-05
0.01132191
1.9205204e-05
0.0117268
1.332731e-05
0.01184814
6.583295e-06
0.011534449
0.010229937
1.5889507e-06
0.0010192645
5.8007376e-06
0.0029488814
1.1369906e-05
0.0047022056
1.7006038e-05
0.0062710671
2.1742382e-05
0.0076538832
2.4967155e-05
0.0088520675
2.6339676e-05
0.0098664734
2.571929e-05
0.010694198
2.3130302e-05
0.011324499
1.8756523e-05
0.011731174
1.2964447e-05
0.011853932
6.3752548e-06
0.011541038
0.010236312
1.5514211e-06
0.0010177131
5.6729361e-06
0.0029447599
1.1142e-05
0.0046967365
1.6689432e-05
0.0062655197
2.134706e-05
0.0076492256
2.4499302e-05
0.0088489153
2.5809435e-05
0.0098651632
2.5147982e-05
0.01069486
2.255409e-05
0.011327093
1.8227063e-05
0.011735501
1.2546897e-05
0.011859612
6.1405179e-06
0.011547444
0.010242453
1.5055791e-06
0.0010162075
5.5140344e-06
0.0029407515
1.0852251e-05
0.0046913983
1.6281693e-05
0.0062600902
2.0839931e-05
0.0076446673
2.3909999e-05
0.0088458452
2.5158374e-05
0.0098639148
2.4464884e-05
0.010695553
2.1881693e-05
0.011329676
1.7622103e-05
0.011739761
1.2078261e-05
0.011865156
5.8809808e-06
0.011553642
0.010248334
1.4532697e-06
0.0010147542
5.3304273e-06
0.0029368743
1.0511924e-05
0.0046862168
1.579722e-05
0.0062548049
2.0236257e-05
0.0076402283
2.3213679e-05
0.0088428678
2.4399178e-05
0.0098627293
2.3680608e-05
0.010696272
2.1121638e-05
0.011332235
1.6948197e-05
0.011743934
1.1563149e-05
0.011870541
5.5991178e-06
0.011559606
0.010253933
1.3960581e-06
0.0010133581
5.1276609e-06
0.0029331427
1.0131133e-05
0.0046812133
1.5249462e-05
0.0062496866
1.9550886e-05
0.0076359269
2.2424955e-05
0.0088399937
2.3545213e-05
0.0098616091
2.2806777e-05
0.01069701
2.0283623e-05
0.011334758
1.6213008e-05
0.011748005
1.1007025e-05
0.011875747
5.2978379e-06
0.011565315
0.010259231
1.3352653e-06
0.0010120229
4.9105082e-06
0.0029295675
9.7188566e-06
0.004676405
1.4650796e-05
0.0062447547
1.8797991e-05
0.0076317797
2.1558275e-05
0.0088372335
2.2610147e-05
0.0098605572
2.1855659e-05
0.010697765
1.9378154e-05
0.011337236
1.5425034e-05
0.011751958
1.0416035e-05
0.011880756
4.9804436e-06
0.011570751
0.010264211
1.2720024e-06
0.0010107509
4.6830557e-06
0.0029261564
9.2830006e-06
0.004671805
1.4012488e-05
0.0062400252
1.7990915e-05
0.0076278012
2.0627694e-05
0.0088345967
2.1607684e-05
0.0098595772
2.083989e-05
0.010698532
1.8416318e-05
0.011339659
1.459337e-05
0.011755781
9.7968011e-06
0.011885553
4.6504637e-06
0.011575897
0.010268862
1.2072002e-06
0.0010095437
4.4487818e-06
0.0029229148
8.8304699e-06
0.0046674234
1.3344677e-05
0.006235511
1.7142035e-05
0.0076240039
1.9646627e-05
0.0088320921
2.0551248e-05
0.0098586726
1.9772131e-05
0.010699311
1.7409409e-05
0.011342022
1.3727412e-05
0.011759463
9.1561998e-06
0.011890124
4.3115819e-06
0.011580741
0.010273173
1.1416365e-06
0.001008402
4.2106355e-06
0.0029198458
8.3672565e-06
0.0046632667
1.2656407e-05
0.0062312218
1.6262708e-05
0.0076203976
1.862771e-05
0.0088297271
1.9453783e-05
0.0098578465
1.8664834e-05
0.0107001
1.6368715e-05
0.011344318
1.2836623e-05
0.011762995
8.5011663e-06
0.01189446
3.9674727e-06
0.011585275
0.010277141
1.075958e-06
0.0010073261
3.9711029e-06
0.0029169507
7.8985226e-06
0.0046593393
1.1955667e-05
0.0062271647
1.5363226e-05
0.00761699
1.7582666e-05
0.0088275076
1.8327544e-05
0.0098571017
1.752998e-05
0.010700898
1.5305215e-05
0.011346543
1.1930271e-05
0.01176637
7.8384959e-06
0.011898551
3.6217231e-06
0.011589492
0.010280763
1.0107005e-06
0.0010063154
3.7322701e-06
0.0029142291
7.4286862e-06
0.0046556429
1.1249459e-05
0.0062233439
1.4452815e-05
0.0076137867
1.6522233e-05
0.0088254382
1.718396e-05
0.0098564399
1.6378902e-05
0.010701703
1.4229396e-05
0.011348692
1.1017237e-05
0.011769582
7.174684e-06
0.011902394
3.2777345e-06
0.011593389
0.01028404
9.4630543e-07
0.0010053691
3.4958767e-06
0.0029116796
6.9615032e-06
0.0046521773
1.0543863e-05
0.0062197615
1.3539669e-05
0.0076107909
1.545613e-05
0.0088235218
1.6033543e-05
0.0098558625
1.5222144e-05
0.010702514
1.3151084e-05
0.011350763
1.0105856e-05
0.011772627
6.5157885e-06
0.011905984
2.9386313e-06
0.011596966
0.010286979
8.8313366e-07
0.0010044859
3.2633623e-06
0.0029092993
6.5001388e-06
0.0046489405
9.8441107e-06
0.0062164176
1.2630976e-05
0.007608004
1.4393031e-05
0.0088217597
1.4885803e-05
0.0098553697
1.4069342e-05
0.010703331
1.2079295e-05
0.011352753
9.2037719e-06
0.011775503
5.8673367e-06
0.01190932
2.6072468e-06
0.011600226
0.010289586
8.2147783e-07
0.0010036645
3.0359091e-06
0.0029070849
6.04724e-06
0.0046459292
9.1546661e-06
0.0062133101
1.1732985e-05
0.0076054257
1.3340606e-05
0.0088201521
1.3749257e-05
0.0098549611
1.2929188e-05
0.010704151
1.1022194e-05
0.01135466
8.317876e-06
0.011778207
5.2342534e-06
0.011912404
2.2860418e-06
0.011603174
0.010291872
7.6157213e-07
0.0010029029
2.8144758e-06
0.002905032
5.6049945e-06
0.0046431387
8.4792907e-06
0.0062104358
1.0851059e-05
0.0076030539
1.2305527e-05
0.0088186976
1.2631387e-05
0.0098546352
1.1809368e-05
0.010704973
9.9869895e-06
0.011356483
7.45423e-06
0.01178074
4.62082e-06
0.011915237
1.9771325e-06
0.011605818
0.010293849
7.0360158e-07
0.0010021993
2.5998312e-06
0.0029031358
5.1751922e-06
0.0046405633
7.8211252e-06
0.0062077899
9.9897541e-06
0.0076008853
1.1293547e-05
0.0088173938
1.1538711e-05
0.0098543901
1.0716601e-05
0.010705795
8.9799857e-06
0.011358219
6.618074e-06
0.011783102
4.0306644e-06
0.011917825
1.6822333e-06
0.011608166
0.010295532
6.4770862e-07
0.0010015516
2.3925778e-06
0.0029013909
4.7592688e-06
0.0046381966
7.1827442e-06
0.0062053664
9.1528736e-06
0.0075989151
1.0309527e-05
0.0088162372
1.0476773e-05
0.0098542228
9.6566128e-06
0.010706615
8.0065185e-06
0.011359869
5.8138002e-06
0.011785295
3.4667653e-06
0.011920172
1.4027281e-06
0.011610231
0.010296934
5.9399992e-07
0.0010009576
2.1931776e-06
0.0028997917
4.3583565e-06
0.0046360314
6.5662279e-06
0.0062031586
8.3435484e-06
0.0075971378
9.3575221e-06
0.0088152232
9.4502347e-06
0.0098541301
8.6342201e-06
0.010707431
7.0710505e-06
0.011361433
5.0450033e-06
0.011787321
2.9314768e-06
0.011922285
1.1396371e-06
0.011612022
0.010298074
5.4255155e-07
0.001000415
2.0019711e-06
0.0028983323
3.9733208e-06
0.0046340601
5.9732147e-06
0.0062011587
7.5642964e-06
0.0075955467
8.4408373e-06
0.0088143467
8.4629106e-06
0.009854108
7.6533529e-06
0.010708241
6.1771682e-06
0.011362909
4.3145098e-06
0.011789183
2.4265704e-06
0.011924173
8.9367524e-07
0.011613555
0.010298968
4.9341376e-07
0.00099992162
1.8191954e-06
0.0028970065
3.6047987e-06
0.0046322745
5.4049587e-06
0.0061993585
6.8170948e-06
0.0075941346
7.5621037e-06
0.0088136017
7.517853e-06
0.0098541523
6.7171342e-06
0.010709042
5.3276767e-06
0.011364298
3.6244386e-06
0.011790887
1.9532764e-06
0.011925845
6.6525914e-07
0.011614843
0.010299633
4.4661493e-07
0.000999475
1.645e-06
0.0028958081
3.2532296e-06
0.0046306662
4.862376e-06
0.0061977494
6.1034373e-06
0.0075928935
6.7233433e-06
0.0088129817
6.6174148e-06
0.0098542582
5.827947e-06
0.010709831
4.5246458e-06
0.011365602
2.9762673e-06
0.011792435
1.5123498e-06
0.011927308
4.5456672e-07
0.011615901
0.010300087
4.0216639e-07
0.00099907284
1.4794645e-06
0.0028947308
2.9188949e-06
0.0046292268
4.3461114e-06
0.0061963221
5.4244262e-06
0.0075918152
5.9260817e-06
0.0088124801
5.7633805e-06
0.0098544209
4.9875808e-06
0.010710607
3.7695935e-06
0.01136682
2.3710162e-06
0.011793833
1.1042549e-06
0.011928575
2.6169126e-07
0.011616744
0.010300349
3.60065e-07
0.00099871277
1.322611e-06
0.0028937683
2.6019438e-06
0.0046279475
3.8565774e-06
0.0061950675
4.7808263e-06
0.007590891
5.1714168e-06
0.0088120895
4.9570485e-06
0.0098546353
4.1973231e-06
0.010711367
3.0635767e-06
0.011367953
1.8093883e-06
0.011795088
7.2954522e-07
0.011929655
8.9134229e-08
0.011617384
0.010300438
3.2029059e-07
0.00099839248
1.1743904e-06
0.0028929142
2.3023626e-06
0.0046268195
3.3938984e-06
0.006193976
4.1729693e-06
0.0075901119
4.4598699e-06
0.0088118026
4.1990103e-06
0.0098548961
3.457658e-06
0.010712108
2.4067926e-06
0.011369004
1.2912252e-06
0.011796203
3.8795001e-07
0.011930558
-6.214559e-08
0.011617834
0.010300376
2.8280762e-07
0.00099810967
1.0346909e-06
0.0028921623
2.0199913e-06
0.0046258342
2.9579391e-06
0.006193038
3.6007951e-06
0.0075894691
3.7914325e-06
0.008811612
3.4892141e-06
0.0098551984
2.7683568e-06
0.010712829
1.7987912e-06
0.011369974
8.1621336e-07
0.011797186
8.1546694e-08
0.011931293