/*--------------------------------*- C++ -*----------------------------------*\
| =========                 |                                                 |
| \\      /  F ield         | OpenFOAM: The Open Source CFD Toolbox           |
|  \\    /   O peration     | Version:  2506                                  |
|   \\  /    A nd           | Website:  www.openfoam.com                      |
|    \\/     M anipulation  |                                                 |
\*---------------------------------------------------------------------------*/
FoamFile
{
    version     2.0;
    format      ascii;
    arch        "LSB;label=32;scalar=64";
    class       volScalarField;
    location    "8000/water";
    object      T;
}
// * * * * * * * * * * * * * * * * * * * * * * * * * * * * * * * * * * * * * //

dimensions      [0 0 0 1 0 0 0];

internalField   nonuniform List<scalar> 
2600
(
333.15
333.15
333.15
333.15
333.15
333.15
333.15
333.14999
333.14998
333.14991
333.14959
333.14804
333.13783
333.15
333.15
333.15
333.15
333.15
333.15
333.14999
333.14998
333.14992
333.14971
333.14893
333.14549
333.12879
333.15
333.15
333.15
333.15
333.15
333.15
333.14999
333.14995
333.14983
333.14942
333.14806
333.14258
333.12149
333.15
333.15
333.15
333.15
333.15
333.14999
333.14997
333.1499
333.14969
333.14905
333.14703
333.13947
333.11531
333.15
333.15
333.15
333.15
333.14999
333.14998
333.14994
333.14983
333.14951
333.14861
333.14585
333.13627
333.10996
333.15
333.15
333.15
333.15
333.14999
333.14997
333.14991
333.14974
333.1493
333.1481
333.14452
333.13306
333.10529
333.15
333.15
333.15
333.14999
333.14998
333.14995
333.14987
333.14963
333.14904
333.14751
333.14306
333.12989
333.1012
333.15
333.15
333.15
333.14999
333.14998
333.14993
333.14981
333.1495
333.14876
333.14684
333.14144
333.12682
333.09766
333.15
333.15
333.15
333.14999
333.14996
333.1499
333.14974
333.14935
333.14843
333.14608
333.13967
333.12389
333.09463
333.15
333.15
333.14999
333.14998
333.14995
333.14987
333.14966
333.14918
333.14805
333.14522
333.13777
333.12113
333.09208
333.15
333.15
333.14999
333.14997
333.14993
333.14983
333.14957
333.14898
333.14762
333.14423
333.13575
333.11859
333.08995
333.15
333.14999
333.14999
333.14997
333.14991
333.14978
333.14946
333.14876
333.14713
333.14311
333.13367
333.11627
333.08819
333.14999
333.14999
333.14998
333.14995
333.14988
333.14972
333.14934
333.1485
333.14656
333.14186
333.13158
333.11418
333.08674
333.14999
333.14999
333.14998
333.14994
333.14985
333.14965
333.1492
333.1482
333.1459
333.14047
333.12953
333.11231
333.08555
333.14999
333.14999
333.14997
333.14992
333.14982
333.14957
333.14904
333.14786
333.14514
333.13899
333.12756
333.11063
333.08456
333.14999
333.14998
333.14996
333.1499
333.14977
333.14949
333.14886
333.14746
333.14427
333.13744
333.12571
333.10914
333.08374
333.14999
333.14998
333.14995
333.14988
333.14973
333.14938
333.14864
333.147
333.1433
333.13585
333.12398
333.10781
333.08305
333.14998
333.14997
333.14994
333.14985
333.14967
333.14927
333.1484
333.14647
333.14223
333.13426
333.12237
333.10661
333.08246
333.14998
333.14996
333.14992
333.14982
333.1496
333.14913
333.14811
333.14585
333.14108
333.13271
333.1209
333.10553
333.08196
333.14997
333.14995
333.1499
333.14979
333.14953
333.14898
333.14778
333.14515
333.13986
333.13121
333.11954
333.10455
333.08153
333.14996
333.14994
333.14988
333.14974
333.14944
333.1488
333.14739
333.14437
333.13861
333.12978
333.11829
333.10367
333.08116
333.14995
333.14993
333.14986
333.1497
333.14934
333.14859
333.14695
333.14351
333.13734
333.12842
333.11714
333.10287
333.08083
333.14994
333.14991
333.14983
333.14964
333.14923
333.14834
333.14644
333.14258
333.13608
333.12714
333.11607
333.10213
333.08054
333.14993
333.1499
333.1498
333.14958
333.14909
333.14806
333.14586
333.1416
333.13484
333.12593
333.11508
333.10146
333.08029
333.14992
333.14988
333.14976
333.1495
333.14894
333.14773
333.14521
333.14058
333.13363
333.1248
333.11417
333.10084
333.08008
333.1499
333.14985
333.14972
333.14941
333.14876
333.14735
333.1445
333.13953
333.13247
333.12373
333.11332
333.10027
333.07988
333.14988
333.14983
333.14967
333.14931
333.14854
333.14692
333.14373
333.13847
333.13135
333.12272
333.11252
333.09974
333.07971
333.14986
333.1498
333.14961
333.14919
333.1483
333.14643
333.14291
333.13742
333.13027
333.12177
333.11178
333.09925
333.07956
333.14984
333.14976
333.14954
333.14905
333.14802
333.14589
333.14205
333.13638
333.12925
333.12088
333.11108
333.09879
333.07943
333.14981
333.14972
333.14946
333.14889
333.14769
333.14528
333.14116
333.13537
333.12826
333.12004
333.11043
333.09837
333.07932
333.14977
333.14967
333.14937
333.14871
333.14731
333.14463
333.14026
333.13437
333.12733
333.11924
333.10982
333.09797
333.07922
333.14973
333.14961
333.14926
333.14849
333.14689
333.14392
333.13934
333.13341
333.12643
333.11848
333.10924
333.0976
333.07913
333.14968
333.14954
333.14913
333.14823
333.14641
333.14318
333.13843
333.13247
333.12557
333.11776
333.10869
333.09725
333.07905
333.14963
333.14946
333.14898
333.14794
333.14589
333.14241
333.13753
333.13157
333.12476
333.11708
333.10817
333.09692
333.07899
333.14956
333.14936
333.1488
333.14761
333.14531
333.14161
333.13663
333.13069
333.12397
333.11643
333.10768
333.09661
333.07893
333.14948
333.14925
333.1486
333.14723
333.14469
333.1408
333.13575
333.12985
333.12322
333.11581
333.10721
333.09632
333.07888
333.14939
333.14911
333.14836
333.1468
333.14403
333.13998
333.13489
333.12903
333.12251
333.11522
333.10676
333.09604
333.07883
333.14928
333.14896
333.14808
333.14632
333.14334
333.13916
333.13405
333.12824
333.12182
333.11465
333.10634
333.09577
333.07879
333.14915
333.14877
333.14777
333.1458
333.14262
333.13834
333.13323
333.12748
333.12116
333.11411
333.10593
333.09552
333.07876
333.149
333.14856
333.1474
333.14523
333.14188
333.13752
333.13242
333.12675
333.12052
333.11359
333.10554
333.09528
333.07873
333.14881
333.1483
333.14699
333.14462
333.14113
333.13672
333.13164
333.12604
333.11991
333.11309
333.10517
333.09505
333.0787
333.14859
333.148
333.14653
333.14398
333.14036
333.13592
333.13088
333.12535
333.11932
333.11262
333.10481
333.09483
333.07867
333.14833
333.14766
333.14602
333.1433
333.13959
333.13514
333.13014
333.12469
333.11875
333.11215
333.10447
333.09462
333.07864
333.14802
333.14726
333.14547
333.1426
333.13882
333.13437
333.12942
333.12404
333.1182
333.11171
333.10413
333.09442
333.07862
333.14766
333.14681
333.14487
333.14188
333.13805
333.13361
333.12871
333.12342
333.11767
333.11128
333.10381
333.09422
333.07859
333.14724
333.14631
333.14423
333.14114
333.13728
333.13286
333.12803
333.12281
333.11715
333.11086
333.1035
333.09403
333.07857
333.14676
333.14575
333.14355
333.14039
333.13651
333.13213
333.12736
333.12223
333.11666
333.11046
333.1032
333.09384
333.07854
333.14621
333.14513
333.14284
333.13963
333.13575
333.13142
333.12671
333.12165
333.11617
333.11006
333.1029
333.09366
333.07852
333.14559
333.14445
333.1421
333.13886
333.135
333.13071
333.12608
333.1211
333.1157
333.10968
333.10262
333.09348
333.07849
333.1449
333.14373
333.14133
333.13808
333.13426
333.13002
333.12546
333.12056
333.11524
333.10931
333.10234
333.0933
333.07846
333.14415
333.14296
333.14054
333.1373
333.13352
333.12934
333.12485
333.12003
333.11479
333.10895
333.10206
333.09313
333.07843
333.14335
333.14215
333.13974
333.13652
333.13279
333.12868
333.12425
333.11951
333.11435
333.10859
333.10179
333.09296
333.07839
333.14249
333.1413
333.13891
333.13574
333.13206
333.12802
333.12367
333.119
333.11393
333.10824
333.10153
333.09278
333.07836
333.1416
333.14042
333.13808
333.13496
333.13134
333.12737
333.1231
333.11851
333.11351
333.1079
333.10127
333.09262
333.07831
333.14068
333.13953
333.13723
333.13418
333.13063
333.12673
333.12253
333.11802
333.11309
333.10756
333.10101
333.09245
333.07827
333.13973
333.13861
333.13638
333.1334
333.12993
333.1261
333.12198
333.11754
333.11269
333.10723
333.10075
333.09228
333.07822
333.13877
333.13769
333.13552
333.13262
333.12923
333.12548
333.12143
333.11706
333.11229
333.1069
333.1005
333.09211
333.07817
333.1378
333.13676
333.13466
333.13184
333.12853
333.12487
333.12089
333.1166
333.11189
333.10658
333.10025
333.09194
333.07811
333.13682
333.13582
333.1338
333.13107
333.12784
333.12426
333.12036
333.11614
333.1115
333.10625
333.1
333.09176
333.07804
333.13585
333.13489
333.13295
333.1303
333.12716
333.12365
333.11983
333.11568
333.11111
333.10593
333.09974
333.09159
333.07797
333.13489
333.13397
333.1321
333.12954
333.12648
333.12306
333.11931
333.11523
333.11073
333.10562
333.09949
333.09141
333.0779
333.13394
333.13306
333.13126
333.12878
333.12581
333.12246
333.11879
333.11478
333.11035
333.1053
333.09924
333.09123
333.07782
333.133
333.13216
333.13042
333.12803
333.12514
333.12188
333.11828
333.11433
333.10996
333.10498
333.09899
333.09105
333.07773
333.13207
333.13127
333.1296
333.12729
333.12448
333.12129
333.11777
333.11389
333.10959
333.10466
333.09873
333.09086
333.07763
333.13117
333.13039
333.12879
333.12655
333.12383
333.12072
333.11726
333.11345
333.10921
333.10434
333.09847
333.09066
333.07752
333.13027
333.12953
333.12799
333.12583
333.12318
333.12014
333.11676
333.11301
333.10883
333.10403
333.09821
333.09047
333.07741
333.1294
333.12869
333.12721
333.12512
333.12254
333.11958
333.11626
333.11258
333.10845
333.10371
333.09795
333.09026
333.07729
333.12855
333.12786
333.12644
333.12441
333.12191
333.11901
333.11576
333.11214
333.10808
333.10338
333.09768
333.09006
333.07716
333.12772
333.12706
333.12568
333.12372
333.12128
333.11846
333.11527
333.11171
333.1077
333.10306
333.09741
333.08984
333.07702
333.1269
333.12627
333.12493
333.12304
333.12067
333.1179
333.11478
333.11128
333.10732
333.10273
333.09714
333.08962
333.07688
333.1261
333.12549
333.12421
333.12236
333.12006
333.11736
333.11429
333.11085
333.10694
333.10241
333.09686
333.0894
333.07672
333.12533
333.12474
333.12349
333.1217
333.11946
333.11682
333.11381
333.11042
333.10656
333.10208
333.09658
333.08917
333.07656
333.12457
333.124
333.12279
333.12106
333.11887
333.11628
333.11333
333.10999
333.10619
333.10174
333.09629
333.08893
333.07639
333.12383
333.12327
333.12211
333.12042
333.11828
333.11575
333.11285
333.10956
333.10581
333.10141
333.096
333.08868
333.07621
333.1231
333.12257
333.12143
333.11979
333.11771
333.11523
333.11238
333.10914
333.10543
333.10107
333.0957
333.08844
333.07602
333.12239
333.12188
333.12077
333.11918
333.11714
333.11471
333.11191
333.10871
333.10504
333.10073
333.09541
333.08818
333.07582
333.1217
333.1212
333.12013
333.11857
333.11658
333.1142
333.11144
333.10829
333.10466
333.10039
333.0951
333.08792
333.07562
333.12103
333.12054
333.1195
333.11797
333.11603
333.11369
333.11098
333.10787
333.10428
333.10005
333.0948
333.08765
333.0754
333.12037
333.11989
333.11887
333.11739
333.11548
333.11319
333.11052
333.10745
333.1039
333.0997
333.09448
333.08738
333.07518
333.11972
333.11926
333.11827
333.11681
333.11494
333.11269
333.11006
333.10703
333.10351
333.09935
333.09417
333.0871
333.07495
333.11909
333.11864
333.11767
333.11625
333.11441
333.1122
333.1096
333.10661
333.10313
333.099
333.09385
333.08682
333.07472
333.11847
333.11803
333.11708
333.11569
333.11389
333.11171
333.10915
333.10619
333.10275
333.09865
333.09353
333.08653
333.07447
333.11787
333.11743
333.11651
333.11514
333.11338
333.11123
333.1087
333.10577
333.10236
333.09829
333.0932
333.08624
333.07422
333.11728
333.11685
333.11594
333.1146
333.11287
333.11075
333.10826
333.10536
333.10197
333.09793
333.09288
333.08594
333.07397
333.11669
333.11628
333.11539
333.11407
333.11236
333.11028
333.10781
333.10494
333.10159
333.09757
333.09254
333.08564
333.07371
333.11612
333.11571
333.11484
333.11355
333.11187
333.10981
333.10737
333.10453
333.1012
333.09721
333.09221
333.08533
333.07344
333.11556
333.11516
333.1143
333.11303
333.11137
333.10934
333.10693
333.10412
333.10081
333.09685
333.09187
333.08502
333.07316
333.11501
333.11462
333.11377
333.11252
333.11089
333.10888
333.1065
333.10371
333.10043
333.09649
333.09153
333.08471
333.07288
333.11447
333.11408
333.11325
333.11202
333.11041
333.10842
333.10606
333.1033
333.10004
333.09612
333.09119
333.08439
333.0726
333.11394
333.11356
333.11274
333.11152
333.10993
333.10797
333.10563
333.10289
333.09965
333.09575
333.09084
333.08407
333.07231
333.11342
333.11304
333.11223
333.11104
333.10946
333.10752
333.1052
333.10248
333.09926
333.09539
333.0905
333.08374
333.07202
333.1129
333.11253
333.11174
333.11055
333.10899
333.10707
333.10478
333.10207
333.09887
333.09502
333.09015
333.08342
333.07172
333.11239
333.11203
333.11124
333.11007
333.10853
333.10663
333.10435
333.10166
333.09849
333.09465
333.08979
333.08309
333.07142
333.11189
333.11153
333.11076
333.1096
333.10807
333.10619
333.10393
333.10126
333.0981
333.09427
333.08944
333.08275
333.07111
333.1114
333.11104
333.11028
333.10913
333.10762
333.10575
333.10351
333.10085
333.09771
333.0939
333.08909
333.08242
333.0708
333.11091
333.11056
333.1098
333.10867
333.10717
333.10531
333.10309
333.10045
333.09732
333.09353
333.08873
333.08208
333.07049
333.11043
333.11008
333.10933
333.10821
333.10672
333.10488
333.10267
333.10004
333.09693
333.09315
333.08837
333.08174
333.07017
333.10996
333.10961
333.10887
333.10775
333.10628
333.10445
333.10225
333.09964
333.09654
333.09278
333.08801
333.08139
333.06986
333.10949
333.10914
333.10841
333.1073
333.10584
333.10402
333.10184
333.09924
333.09615
333.0924
333.08765
333.08105
333.06953
333.10902
333.10868
333.10795
333.10685
333.1054
333.1036
333.10142
333.09884
333.09576
333.09203
333.08729
333.0807
333.06921
333.10856
333.10822
333.1075
333.10641
333.10497
333.10317
333.10101
333.09844
333.09537
333.09165
333.08692
333.08036
333.06888
333.1081
333.10777
333.10705
333.10597
333.10454
333.10275
333.1006
333.09804
333.09498
333.09127
333.08656
333.08001
333.06855
333.10765
333.10732
333.10661
333.10553
333.10411
333.10233
333.10019
333.09764
333.09459
333.09089
333.08619
333.07965
333.06822
333.10721
333.10688
333.10617
333.1051
333.10368
333.10191
333.09978
333.09724
333.0942
333.09052
333.08583
333.0793
333.06788
333.10676
333.10643
333.10573
333.10467
333.10326
333.1015
333.09937
333.09684
333.09382
333.09014
333.08546
333.07895
333.06754
333.10632
333.106
333.10529
333.10424
333.10283
333.10108
333.09896
333.09644
333.09343
333.08976
333.08509
333.07859
333.0672
333.10588
333.10556
333.10486
333.10381
333.10241
333.10067
333.09856
333.09604
333.09304
333.08938
333.08472
333.07823
333.06686
333.10545
333.10513
333.10443
333.10339
333.102
333.10026
333.09815
333.09565
333.09265
333.089
333.08435
333.07787
333.06652
333.10502
333.1047
333.10401
333.10296
333.10158
333.09985
333.09775
333.09525
333.09226
333.08862
333.08398
333.07751
333.06617
333.10459
333.10427
333.10358
333.10254
333.10116
333.09944
333.09735
333.09485
333.09187
333.08824
333.08361
333.07715
333.06583
333.10416
333.10385
333.10316
333.10213
333.10075
333.09903
333.09694
333.09446
333.09148
333.08786
333.08324
333.07679
333.06548
333.10374
333.10342
333.10274
333.10171
333.10034
333.09862
333.09654
333.09406
333.0911
333.08748
333.08287
333.07643
333.06513
333.10332
333.103
333.10232
333.10129
333.09993
333.09822
333.09614
333.09367
333.09071
333.0871
333.08249
333.07607
333.06477
333.1029
333.10258
333.1019
333.10088
333.09952
333.09781
333.09574
333.09327
333.09032
333.08672
333.08212
333.0757
333.06442
333.10248
333.10217
333.10149
333.10047
333.09911
333.09741
333.09534
333.09288
333.08993
333.08634
333.08175
333.07534
333.06407
333.10206
333.10175
333.10107
333.10006
333.0987
333.097
333.09494
333.09249
333.08954
333.08595
333.08137
333.07497
333.06371
333.10165
333.10134
333.10066
333.09965
333.09829
333.0966
333.09455
333.09209
333.08916
333.08557
333.081
333.0746
333.06335
333.10124
333.10093
333.10025
333.09924
333.09789
333.0962
333.09415
333.0917
333.08877
333.08519
333.08062
333.07424
333.06299
333.10082
333.10051
333.09984
333.09883
333.09749
333.0958
333.09375
333.09131
333.08838
333.08481
333.08025
333.07387
333.06263
333.10041
333.1001
333.09943
333.09843
333.09708
333.0954
333.09336
333.09092
333.088
333.08443
333.07987
333.0735
333.06227
333.1
333.0997
333.09903
333.09802
333.09668
333.095
333.09296
333.09052
333.08761
333.08405
333.0795
333.07313
333.0619
333.0996
333.09929
333.09862
333.09762
333.09628
333.0946
333.09256
333.09013
333.08722
333.08366
333.07912
333.07276
333.06154
333.09919
333.09888
333.09822
333.09721
333.09588
333.0942
333.09217
333.08974
333.08683
333.08328
333.07874
333.07239
333.06117
333.09878
333.09848
333.09781
333.09681
333.09548
333.0938
333.09177
333.08935
333.08645
333.0829
333.07836
333.07201
333.06081
333.09838
333.09807
333.09741
333.09641
333.09508
333.09341
333.09138
333.08896
333.08606
333.08252
333.07799
333.07164
333.06044
333.09798
333.09767
333.09701
333.09601
333.09468
333.09301
333.09099
333.08857
333.08567
333.08214
333.07761
333.07127
333.06007
333.09757
333.09727
333.0966
333.09561
333.09428
333.09261
333.09059
333.08818
333.08529
333.08175
333.07723
333.07089
333.05969
333.09717
333.09686
333.0962
333.09521
333.09388
333.09222
333.0902
333.08779
333.0849
333.08137
333.07685
333.07052
333.05932
333.09677
333.09646
333.0958
333.09481
333.09348
333.09182
333.08981
333.0874
333.08452
333.08099
333.07647
333.07014
333.05895
333.09637
333.09606
333.0954
333.09441
333.09309
333.09143
333.08942
333.08701
333.08413
333.0806
333.07609
333.06976
333.05857
333.09597
333.09566
333.095
333.09401
333.09269
333.09103
333.08902
333.08662
333.08374
333.08022
333.07571
333.06938
333.05819
333.09557
333.09526
333.0946
333.09361
333.09229
333.09064
333.08863
333.08623
333.08336
333.07984
333.07533
333.06901
333.05782
333.09517
333.09486
333.09421
333.09322
333.0919
333.09024
333.08824
333.08584
333.08297
333.07945
333.07495
333.06863
333.05744
333.09477
333.09447
333.09381
333.09282
333.0915
333.08985
333.08785
333.08545
333.08258
333.07907
333.07457
333.06825
333.05705
333.09437
333.09407
333.09341
333.09242
333.09111
333.08946
333.08746
333.08506
333.0822
333.07868
333.07418
333.06787
333.05667
333.09397
333.09367
333.09301
333.09203
333.09071
333.08906
333.08706
333.08467
333.08181
333.0783
333.0738
333.06748
333.05629
333.09357
333.09327
333.09262
333.09163
333.09032
333.08867
333.08667
333.08429
333.08142
333.07792
333.07342
333.0671
333.0559
333.09318
333.09287
333.09222
333.09124
333.08992
333.08828
333.08628
333.0839
333.08103
333.07753
333.07303
333.06672
333.05551
333.09278
333.09248
333.09182
333.09084
333.08953
333.08789
333.08589
333.08351
333.08065
333.07714
333.07265
333.06633
333.05512
333.09238
333.09208
333.09143
333.09045
333.08913
333.08749
333.0855
333.08312
333.08026
333.07676
333.07226
333.06595
333.05473
333.09199
333.09169
333.09103
333.09005
333.08874
333.0871
333.08511
333.08273
333.07987
333.07637
333.07188
333.06556
333.05434
333.09159
333.09129
333.09064
333.08966
333.08835
333.08671
333.08472
333.08234
333.07948
333.07598
333.07149
333.06517
333.05395
333.0912
333.09089
333.09024
333.08926
333.08795
333.08632
333.08433
333.08195
333.0791
333.0756
333.0711
333.06478
333.05355
333.0908
333.0905
333.08985
333.08887
333.08756
333.08592
333.08394
333.08156
333.07871
333.07521
333.07072
333.06439
333.05316
333.0904
333.0901
333.08945
333.08847
333.08717
333.08553
333.08355
333.08117
333.07832
333.07482
333.07033
333.064
333.05276
333.09001
333.08971
333.08906
333.08808
333.08678
333.08514
333.08316
333.08078
333.07793
333.07443
333.06994
333.06361
333.05236
333.08962
333.08932
333.08867
333.08769
333.08638
333.08475
333.08277
333.08039
333.07754
333.07404
333.06955
333.06322
333.05195
333.08922
333.08892
333.08827
333.08729
333.08599
333.08436
333.08238
333.08
333.07715
333.07365
333.06916
333.06282
333.05155
333.08883
333.08853
333.08788
333.0869
333.0856
333.08397
333.08198
333.07961
333.07676
333.07326
333.06877
333.06243
333.05114
333.08843
333.08813
333.08748
333.08651
333.08521
333.08357
333.08159
333.07922
333.07637
333.07287
333.06837
333.06203
333.05073
333.08804
333.08774
333.08709
333.08611
333.08481
333.08318
333.0812
333.07883
333.07598
333.07248
333.06798
333.06163
333.05032
333.08764
333.08735
333.0867
333.08572
333.08442
333.08279
333.08081
333.07844
333.07559
333.07209
333.06758
333.06123
333.04991
333.08725
333.08695
333.0863
333.08533
333.08403
333.0824
333.08042
333.07805
333.0752
333.0717
333.06719
333.06083
333.0495
333.08686
333.08656
333.08591
333.08494
333.08364
333.08201
333.08003
333.07766
333.0748
333.0713
333.06679
333.06043
333.04908
333.08646
333.08616
333.08552
333.08454
333.08324
333.08161
333.07963
333.07726
333.07441
333.07091
333.06639
333.06002
333.04866
333.08607
333.08577
333.08512
333.08415
333.08285
333.08122
333.07924
333.07687
333.07402
333.07051
333.066
333.05962
333.04824
333.08568
333.08538
333.08473
333.08376
333.08246
333.08083
333.07885
333.07648
333.07362
333.07012
333.06559
333.05921
333.04781
333.08528
333.08498
333.08434
333.08336
333.08207
333.08044
333.07846
333.07608
333.07323
333.06972
333.06519
333.0588
333.04739
333.08489
333.08459
333.08394
333.08297
333.08167
333.08004
333.07806
333.07569
333.07283
333.06932
333.06479
333.05839
333.04696
333.0845
333.0842
333.08355
333.08258
333.08128
333.07965
333.07767
333.0753
333.07244
333.06892
333.06439
333.05798
333.04653
333.0841
333.0838
333.08316
333.08218
333.08089
333.07926
333.07728
333.0749
333.07204
333.06852
333.06398
333.05756
333.04609
333.08371
333.08341
333.08276
333.08179
333.08049
333.07886
333.07688
333.0745
333.07164
333.06812
333.06358
333.05715
333.04565
333.08332
333.08302
333.08237
333.0814
333.0801
333.07847
333.07649
333.07411
333.07124
333.06772
333.06317
333.05673
333.04521
333.08292
333.08262
333.08198
333.081
333.0797
333.07807
333.07609
333.07371
333.07084
333.06732
333.06276
333.05631
333.04477
333.08253
333.08223
333.08158
333.08061
333.07931
333.07768
333.0757
333.07331
333.07044
333.06691
333.06235
333.05589
333.04432
333.08213
333.08184
333.08119
333.08022
333.07892
333.07728
333.0753
333.07292
333.07004
333.06651
333.06194
333.05546
333.04387
333.08174
333.08144
333.0808
333.07982
333.07852
333.07689
333.0749
333.07252
333.06964
333.0661
333.06152
333.05504
333.04342
333.08135
333.08105
333.0804
333.07943
333.07813
333.07649
333.0745
333.07212
333.06924
333.06569
333.06111
333.05461
333.04296
333.08095
333.08065
333.08001
333.07903
333.07773
333.0761
333.07411
333.07172
333.06883
333.06528
333.06069
333.05418
333.04251
333.08056
333.08026
333.07961
333.07864
333.07733
333.0757
333.07371
333.07132
333.06843
333.06487
333.06027
333.05374
333.04204
333.08016
333.07987
333.07922
333.07824
333.07694
333.0753
333.07331
333.07091
333.06802
333.06446
333.05985
333.05331
333.04157
333.07977
333.07947
333.07882
333.07785
333.07654
333.0749
333.07291
333.07051
333.06762
333.06405
333.05943
333.05287
333.0411
333.07937
333.07908
333.07843
333.07745
333.07614
333.0745
333.07251
333.07011
333.06721
333.06363
333.059
333.05243
333.04063
333.07898
333.07868
333.07803
333.07705
333.07575
333.0741
333.0721
333.0697
333.0668
333.06321
333.05858
333.05199
333.04015
333.07858
333.07828
333.07763
333.07666
333.07535
333.0737
333.0717
333.06929
333.06639
333.0628
333.05815
333.05154
333.03966
333.07819
333.07789
333.07724
333.07626
333.07495
333.0733
333.0713
333.06889
333.06597
333.06238
333.05772
333.05109
333.03918
333.07779
333.07749
333.07684
333.07586
333.07455
333.0729
333.07089
333.06848
333.06556
333.06195
333.05728
333.05064
333.03868
333.07739
333.07709
333.07644
333.07546
333.07415
333.0725
333.07049
333.06807
333.06515
333.06153
333.05685
333.05018
333.03818
333.077
333.0767
333.07604
333.07506
333.07375
333.0721
333.07008
333.06766
333.06473
333.06111
333.05641
333.04972
333.03768
333.0766
333.0763
333.07565
333.07466
333.07335
333.07169
333.06968
333.06725
333.06431
333.06068
333.05597
333.04926
333.03717
333.0762
333.0759
333.07525
333.07426
333.07294
333.07129
333.06927
333.06683
333.06389
333.06025
333.05553
333.04879
333.03666
333.0758
333.0755
333.07485
333.07386
333.07254
333.07088
333.06886
333.06642
333.06347
333.05982
333.05508
333.04832
333.03614
333.0754
333.0751
333.07445
333.07346
333.07214
333.07047
333.06845
333.066
333.06304
333.05938
333.05463
333.04785
333.03561
333.075
333.0747
333.07405
333.07306
333.07173
333.07007
333.06803
333.06558
333.06262
333.05895
333.05418
333.04737
333.03508
333.0746
333.0743
333.07364
333.07265
333.07133
333.06966
333.06762
333.06516
333.06219
333.05851
333.05372
333.04689
333.03454
333.0742
333.0739
333.07324
333.07225
333.07092
333.06925
333.06721
333.06474
333.06176
333.05807
333.05326
333.0464
333.03399
333.0738
333.0735
333.07284
333.07184
333.07051
333.06884
333.06679
333.06432
333.06133
333.05762
333.0528
333.04591
333.03344
333.0734
333.07309
333.07243
333.07144
333.0701
333.06842
333.06637
333.0639
333.0609
333.05718
333.05234
333.04541
333.03288
333.073
333.07269
333.07203
333.07103
333.06969
333.06801
333.06595
333.06347
333.06046
333.05673
333.05187
333.04491
333.0323
333.07259
333.07229
333.07162
333.07062
333.06928
333.06759
333.06553
333.06304
333.06002
333.05628
333.05139
333.0444
333.03172
333.07219
333.07188
333.07122
333.07021
333.06887
333.06718
333.06511
333.06261
333.05958
333.05582
333.05092
333.04389
333.03113
333.07178
333.07147
333.07081
333.0698
333.06846
333.06676
333.06468
333.06218
333.05914
333.05536
333.05043
333.04337
333.03053
333.07137
333.07107
333.0704
333.06939
333.06804
333.06634
333.06426
333.06174
333.05869
333.0549
333.04995
333.04284
333.02991
333.07097
333.07066
333.06999
333.06898
333.06763
333.06592
333.06383
333.06131
333.05824
333.05443
333.04945
333.04231
333.02928
333.07056
333.07025
333.06958
333.06856
333.06721
333.06549
333.0634
333.06087
333.05779
333.05396
333.04895
333.04176
333.02863
333.07015
333.06984
333.06917
333.06815
333.06679
333.06507
333.06297
333.06042
333.05733
333.05348
333.04845
333.04121
333.02797
333.06974
333.06943
333.06875
333.06773
333.06637
333.06464
333.06253
333.05998
333.05687
333.053
333.04794
333.04064
333.02728
333.06933
333.06901
333.06834
333.06731
333.06594
333.06421
333.06209
333.05953
333.05641
333.05252
333.04742
333.04006
333.02655
333.06891
333.0686
333.06792
333.06689
333.06552
333.06378
333.06165
333.05908
333.05594
333.05202
333.04689
333.03946
333.02578
333.0685
333.06819
333.0675
333.06648
333.06509
333.06335
333.06121
333.05862
333.05547
333.05152
333.04634
333.03883
333.02491
)
;

boundaryField
{
    water_inlet
    {
        type            fixedValue;
        value           uniform 333.15;
    }
    water_outlet
    {
        type            zeroGradient;
    }
    water_wedge1
    {
        type            wedge;
    }
    water_wedge2
    {
        type            wedge;
    }
    water_to_rock
    {
        type            compressible::turbulentTemperatureRadCoupledMixed;
        refValue        nonuniform List<scalar> 
200
(
315.50136
319.11848
320.92465
322.02151
322.7816
323.35467
323.81133
324.1895
324.5116
324.79189
325.03989
325.26226
325.46378
325.648
325.81761
325.97471
326.12098
326.25775
326.38613
326.50704
326.62124
326.72937
326.832
326.9296
327.02256
327.11125
327.19598
327.27702
327.35461
327.42896
327.50028
327.56874
327.63449
327.69768
327.75843
327.81687
327.87311
327.92725
327.97938
328.02959
328.07796
328.12458
328.1695
328.21281
328.25456
328.29482
328.33364
328.37108
328.40718
328.442
328.47559
328.50798
328.53923
328.56937
328.59844
328.62647
328.65352
328.6796
328.70475
328.729
328.75239
328.77494
328.79668
328.81763
328.83783
328.8573
328.87606
328.89413
328.91154
328.92831
328.94446
328.96001
328.97498
328.98939
329.00326
329.0166
329.02943
329.04177
329.05363
329.06504
329.07599
329.08651
329.09661
329.10631
329.11561
329.12453
329.13308
329.14127
329.14911
329.15661
329.16379
329.17065
329.17719
329.18344
329.18939
329.19506
329.20044
329.20556
329.21042
329.21501
329.21936
329.22346
329.22732
329.23095
329.23435
329.23752
329.24047
329.24321
329.24573
329.24805
329.25016
329.25206
329.25377
329.25528
329.2566
329.25772
329.25865
329.2594
329.25995
329.26032
329.2605
329.2605
329.26031
329.25994
329.25938
329.25864
329.25772
329.2566
329.2553
329.25382
329.25214
329.25028
329.24822
329.24596
329.24351
329.24086
329.238
329.23495
329.23168
329.2282
329.2245
329.22058
329.21644
329.21207
329.20746
329.20261
329.19752
329.19217
329.18657
329.18071
329.17457
329.16815
329.16145
329.15446
329.14716
329.13954
329.13161
329.12335
329.11474
329.10579
329.09647
329.08677
329.07668
329.06619
329.05529
329.04395
329.03216
329.01991
329.00718
328.99394
328.98018
328.96588
328.95101
328.93554
328.91946
328.90272
328.8853
328.86715
328.84825
328.82854
328.80798
328.78651
328.76407
328.74058
328.71597
328.69013
328.66295
328.6343
328.604
328.57185
328.53758
328.50085
328.46121
328.418
328.3703
328.31663
328.25445
328.17877
328.07805
327.91992
)
;
        refGradient     uniform 0;
        valueFraction   nonuniform List<scalar> 
200
(
0.021313587
0.018349032
0.017286587
0.016999676
0.017072311
0.017312679
0.017619574
0.017934173
0.018220835
0.018459614
0.01864309
0.018773723
0.018860286
0.018913928
0.018945118
0.018962099
0.018970608
0.018974281
0.018975235
0.018974594
0.018972889
0.01897032
0.018966927
0.018962686
0.018957559
0.018951519
0.01894456
0.018936694
0.018927949
0.018918366
0.018907993
0.018896903
0.018885173
0.018872882
0.018860098
0.018846868
0.018833224
0.018819204
0.018804843
0.018790181
0.018775253
0.018760098
0.018744752
0.018729251
0.018713631
0.018697926
0.018682171
0.018666398
0.018650643
0.018634938
0.01861932
0.018603823
0.018588486
0.018573349
0.018558454
0.018543848
0.018529577
0.018515693
0.018502248
0.018489294
0.018476883
0.018465065
0.018453886
0.018443387
0.018433605
0.018424566
0.018416289
0.018408788
0.018402062
0.018396107
0.018390908
0.018386443
0.018382685
0.018379601
0.018377154
0.018375302
0.018374003
0.018373213
0.018372887
0.018372981
0.01837345
0.018374254
0.01837535
0.018376701
0.018378269