/*--------------------------------*- C++ -*----------------------------------*\
| =========                 |                                                 |
| \\      /  F ield         | OpenFOAM: The Open Source CFD Toolbox           |
|  \\    /   O peration     | Version:  2506                                  |
|   \\  /    A nd           | Website:  www.openfoam.com                      |
|    \\/     M anipulation  |                                                 |
\*---------------------------------------------------------------------------*/
FoamFile
{
    version     2.0;
    format      ascii;
    arch        "LSB;label=32;scalar=64";
    class       volScalarField;
    location    "26000/water";
    object      alphat;
}
// * * * * * * * * * * * * * * * * * * * * * * * * * * * * * * * * * * * * * //

dimensions      [1 -1 -1 0 0 0 0];

internalField   nonuniform List<scalar> 
1000
(
0.038690245
0.038689577
0.038688046
0.038679677
0.038634252
0.038395956
0.037190881
0.031863289
0.019099264
0.016301307
0.036437656
0.036436968
0.036430539
0.036397696
0.036243742
0.035561449
0.032798674
0.02447636
0.014644257
0.017654592
0.034756095
0.034752688
0.034735392
0.034658264
0.034338316
0.033096044
0.028914329
0.020078531
0.014287394
0.017671293
0.033455039
0.033447371
0.03341324
0.03327659
0.032760729
0.030940106
0.025769936
0.018272064
0.015952022
0.017301527
0.032418332
0.032405139
0.032350677
0.032150522
0.031437415
0.029070328
0.023556054
0.018635767
0.018861495
0.016925708
0.031571667
0.031552637
0.031479595
0.031226156
0.030328082
0.02748515
0.022554926
0.020803573
0.022278851
0.016666249
0.030866455
0.030843489
0.030761496
0.030477939
0.029402055
0.02629215
0.023061834
0.024243923
0.025541402
0.016525212
0.030270851
0.030249447
0.030178158
0.029894489
0.028644309
0.025787435
0.025138489
0.02828052
0.028304985
0.016463212
0.029764734
0.029755542
0.029725679
0.029468666
0.028107147
0.026357191
0.028508351
0.032334466
0.03051918
0.016442689
0.029337065
0.029357538
0.029409801
0.029196828
0.027981184
0.028237467
0.032681279
0.036080655
0.032267587
0.016440708
0.028984755
0.029060654
0.029241408
0.02909978
0.028583784
0.031375262
0.037164808
0.039413695
0.033659215
0.016446406
0.02871255
0.028878723
0.029233249
0.029270627
0.03021559
0.035478734
0.041608754
0.042341593
0.03478776
0.01645561
0.02853364
0.028833101
0.029403478
0.029913158
0.033002913
0.04016143
0.045827998
0.044910462
0.035723343
0.016467068
0.028470726
0.028950964
0.029795699
0.031303894
0.036852209
0.045075425
0.049751452
0.047172205
0.036515336
0.016480521
0.028557113
0.029264049
0.030516111
0.033675948
0.041512143
0.049977154
0.05336576
0.049174011
0.037197801
0.01649591
0.028837278
0.029812373
0.031757604
0.037114305
0.046676597
0.054726267
0.056681902
0.050955573
0.037793756
0.016513137
0.029366662
0.030660683
0.033764718
0.041531444
0.052071346
0.059253083
0.059719706
0.052547873
0.03831296
0.016531938
0.030212349
0.031928237
0.036741958
0.046714772
0.057495404
0.0635273
0.0625007
0.053971517
0.038771724
0.016552024
0.031460441
0.033808107
0.040769099
0.052403169
0.06282031
0.06753864
0.06504369
0.055249837
0.039180736
0.0165732
0.033237132
0.036537445
0.045775124
0.058353372
0.067969539
0.071286702
0.067367311
0.056402297
0.039547784
0.016595303
0.035734866
0.040316166
0.051570567
0.064374382
0.072897178
0.074772336
0.069492023
0.057443685
0.039878828
0.016618156
0.039205701
0.045224587
0.057909006
0.070330045
0.077571182
0.078005454
0.071434673
0.058385868
0.040178184
0.016641569
0.043887951
0.051189916
0.064545159
0.076123387
0.081973328
0.080996935
0.073208837
0.05923811
0.040448947
0.016665344
0.049892339
0.058009428
0.071267764
0.081682879
0.086094624
0.083755128
0.074825023
0.060007305
0.040693222
0.016689276
0.057120901
0.065404879
0.077906222
0.086957917
0.089928175
0.086285395
0.076290537
0.060698155
0.040912266
0.016713155
0.065269249
0.073077702
0.084333574
0.091910724
0.093465468
0.08858969
0.077609561
0.061313376
0.041106598
0.016736759
0.073908181
0.08075545
0.090455026
0.09650802
0.096696183
0.090666776
0.0787835
0.061853973
0.041276117
0.016759848
0.082594113
0.088208324
0.096194284
0.10072096
0.099609226
0.092513162
0.079811647
0.062319645
0.041420264
0.01678216
0.090954617
0.09525469
0.10149055
0.10452635
0.10219464
0.09412464
0.080692222
0.062709363
0.041538248
0.016803418
0.098726227
0.10176176
0.1062985
0.10790836
0.10444589
0.095498193
0.081423661
0.063022103
0.041629336
0.016823338
0.10575299
0.1076434
0.11058913
0.11086008
0.10636185
0.096633845
0.082005981
0.063257644
0.041693179
0.016841649
0.11196522
0.11285527
0.11435011
0.1133843
0.10794813
0.097536072
0.082441918
0.063417276
0.041730095
0.016858113
0.11735399
0.11738775
0.11758501
0.11549341
0.10921739
0.098214485
0.082737615
0.063504264
0.041741263
0.016872552
0.12194938
0.12125792
0.12031127
0.11720833
0.11018888
0.098683729
0.082902733
0.063523967
0.041728761
0.016884861
0.12580434
0.12450173
0.12255752
0.11855693
0.11088715
0.09896272
0.08295004
0.06348363
0.041695461
0.016895017
0.12898384
0.12716725
0.1243605
0.11957208
0.11134057
0.099073472
0.082894625
0.063391911
0.041644813
0.016903072
0.13155778
0.12930932
0.12576204
0.12028965
0.11157961
0.099039774
0.082752937
0.063258294
0.04158058
0.016909147
0.13359652
0.13098544
0.12680652
0.12074674
0.11163543
0.098885923
0.082541827
0.063092473
0.041506564
0.01691341
0.13516809
0.13225294
0.1275387
0.12098024
0.11153856
0.098635658
0.082277717
0.062903822
0.041426378
0.016916068
0.13633656
0.13316697
0.12800221
0.12102563
0.11131804
0.09831135
0.081975956
0.062700989
0.041343276
0.01691734
0.13716112
0.13377932
0.12823838
0.12091625
0.11100074
0.097933445
0.081650381
0.062491615
0.04126005
0.016917451
0.13769567
0.13413771
0.1282856
0.12068276
0.11061097
0.097520128
0.081313061
0.062282191
0.041178981
0.01691662
0.13798873
0.13428543
0.12817889
0.12035286
0.11017029
0.097087183
0.080974195
0.062078013
0.041101839
0.016915049
0.13808351
0.13426133
0.12794974
0.11995119
0.10969748
0.096647969
0.080642123
0.061883212
0.04102991
0.016912922
0.13801822
0.13409986
0.1276261
0.11949934
0.10920853
0.096213461
0.080323318
0.061700568
0.040962965
0.016910386
0.13782631
0.13383126
0.12723245
0.11901589
0.10871681
0.095792343
0.080022394
0.061531153
0.04090214
0.01690757
0.13753687
0.13348186
0.12678999
0.11851657
0.1082331
0.095391065
0.079741894
0.061377051
0.040847907
0.016904598
0.13717494
0.13307429
0.12631677
0.11801441
0.10776577
0.095013767
0.079484929
0.061239051
0.040800425
0.016901574
0.13676189
0.13262782
0.12582792
0.11751979
0.10732071
0.094664717
0.079252935
0.061117363
0.040759606
0.016898582
0.13631573
0.13215854
0.12533566
0.11704064
0.1069036
0.0943463
0.079046433
0.061011739
0.040725176
0.016895686
0.13585129
0.13167956
0.12485003
0.11658426
0.10651812
0.094059718
0.078865246
0.060921571
0.040696732
0.016892934
0.13538085
0.13120202
0.12437978
0.11615592
0.10616657
0.093805242
0.078708644
0.06084599
0.040673793
0.01689036
0.1349148
0.13073523
0.12393165
0.11575934
0.1058501
0.093582394
0.078575477
0.060783945
0.040655835
0.016887986
0.13446159
0.13028658
0.12351071
0.11539689
0.10556893
0.093390105
0.078464291
0.060734272
0.040642314
0.016885825
0.13402792
0.12986179
0.12312057
0.11506984
0.1053225
0.093226853
0.078373418
0.06069575
0.040632693
0.016883885
0.13361894
0.12946508
0.1227636
0.11477852
0.10510963
0.093090777
0.078301059
0.06066714
0.040626449
0.016882165
0.1332384
0.12909938
0.12244108
0.11452247
0.10492869
0.092979783
0.07824535
0.060647221
0.040623087
0.01688066
0.13288884
0.12876651
0.12215339
0.11430062
0.10477764
0.092891633
0.078204418
0.060634813
0.040622141
0.016879362
0.13257174
0.1284673
0.12190014
0.11411137
0.10465423
0.092824014
0.078176419
0.060628795
0.040623185
0.01687826
0.1322877
0.12820179
0.12168033
0.11395276
0.10455601
0.092774608
0.078159578
0.060628122
0.040625829
0.01687734
0.13203654
0.12796934
0.12149246
0.11382255
0.10448048
0.092741139
0.078152214
0.060631829
0.040629725
0.016876589
0.1318175
0.12776878
0.12133467
0.11371832
0.1044251
0.092721418
0.078152758
0.060639042
0.040634563
0.01687599
0.1316293
0.12759851
0.1212048
0.11363757
0.1043874
0.092713375
0.078159771
0.060648977
0.040640073
0.016875528
0.13147027
0.12745661
0.12110056
0.11357775
0.104365
0.09271508
0.078171946
0.060660942
0.040646023
0.016875189
0.1313385
0.12734095
0.12101951
0.11353637
0.10435561
0.09272476
0.078188115
0.060674331
0.040652215
0.016874956
0.13123185
0.12724925
0.12095921
0.11351102
0.10435713
0.0927408
0.078207238
0.060688623
0.040658483
0.016874817
0.13114808
0.12717916
0.12091724
0.11349936
0.10436759
0.092761744
0.078228404
0.060703368
0.040664687
0.016874756
0.13108487
0.12712831
0.1208912
0.11349921
0.10438519
0.092786292
0.078250817
0.060718187
0.040670713
0.016874762
0.13103989
0.12709433
0.12087881
0.11350852
0.10440828
0.092813297
0.078273796
0.060732762
0.04067647
0.016874823
0.13101085
0.12707496
0.1208779
0.11352543
0.10443543
0.092841764
0.078296767
0.060746838
0.040681887
0.016874927
0.13099554
0.127068
0.12088646
0.11354822
0.10446533
0.092870849
0.078319262
0.060760217
0.040686917
0.016875064
0.13099186
0.12707141
0.12090263
0.11357539
0.10449691
0.092899849
0.078340907
0.060772744
0.040691482
0.016875226
0.13099783
0.12708329
0.12092474
0.11360562
0.10452921
0.092928189
0.078361402
0.060784271
0.040695562
0.016875404
0.13101165
0.12710192
0.1209513
0.11363774
0.10456145
0.0929554
0.078380497
0.060794735
0.040699182
0.016875591
0.13103167
0.12712574
0.12098098
0.11367077
0.10459297
0.092981092
0.078398036
0.060804134
0.040702358
0.016875783
0.1310564
0.12715335
0.12101263
0.11370386
0.10462323
0.093004982
0.078413959
0.060812468
0.040705111
0.016875974
0.13108451
0.12718352
0.12104523
0.11373628
0.10465178
0.093026924
0.07842823
0.06081976
0.040707463
0.016876162
0.13111482
0.12721515
0.1210779
0.11376745
0.10467838
0.093046817
0.078440852
0.060826051
0.040709442
0.016876343
0.13114628
0.1272473
0.12110995
0.11379698
0.10470282
0.093064619
0.078451863
0.060831393
0.040711074
0.016876514
0.13117804
0.12727923
0.12114085
0.11382457
0.10472501
0.093080349
0.078461333
0.060835852
0.040712392
0.016876675
0.13120939
0.12731032
0.12117018
0.11385
0.10474489
0.093094064
0.078469354
0.060839502
0.040713427
0.016876823
0.13123978
0.1273401
0.12119763
0.11387316
0.10476249
0.093105857
0.078476031
0.06084242
0.040714212
0.016876959
0.13126875
0.12736821
0.121223
0.11389399
0.10477786
0.093115837
0.078481473
0.06084468
0.040714776
0.016877082
0.13129598
0.12739437
0.12124612
0.11391248
0.10479109
0.093124124
0.078485789
0.060846354
0.040715148
0.016877191
0.13132119
0.12741838
0.12126692
0.11392864
0.10480228
0.093130843
0.078489088
0.060847508
0.040715352
0.016877287
0.1313442
0.1274401
0.12128536
0.11394256
0.10481155
0.093136127
0.078491475
0.060848207
0.040715412
0.01687737
0.1313649
0.12745946
0.12130145
0.11395433
0.10481903
0.093140112
0.078493058
0.060848514
0.04071535
0.016877441
0.13138325
0.12747646
0.12131528
0.11396407
0.1048249
0.093142946
0.078493946
0.060848491
0.040715188
0.016877499
0.13139926
0.12749117
0.12132695
0.11397195
0.10482931
0.093144781
0.078494249
0.060848201
0.040714951
0.016877546
0.13141302
0.12750368
0.12133662
0.11397816
0.10483245
0.093145771
0.078494076
0.060847704
0.040714658
0.016877583
0.13142466
0.12751415
0.12134446
0.11398287
0.10483451
0.09314606
0.078493525
0.060847053
0.040714329
0.016877612
0.13143435
0.12752274
0.12135065
0.11398628
0.10483564
0.093145778
0.078492683
0.060846294
0.040713978
0.016877633
0.13144223
0.12752963
0.12135537
0.11398856
0.10483599
0.093145033
0.078491618
0.060845461
0.040713616
0.016877648
0.13144849
0.12753498
0.12135879
0.11398985
0.10483569
0.093143915
0.078490386
0.060844579
0.04071325
0.016877657
0.13145327
0.12753894
0.12136105
0.11399029
0.10483484
0.093142502
0.078489032
0.06084367
0.040712886
0.016877661
0.13145673
0.12754168
0.1213623
0.11399001
0.10483355
0.093140864
0.078487597
0.06084275
0.040712527
0.01687766
0.13145903
0.12754334
0.12136269
0.11398914
0.10483191
0.093139069
0.07848612
0.060841839
0.040712181
0.016877656
0.13146033
0.12754409
0.12136237
0.1139878
0.10483002
0.093137185
0.078484644
0.060840956
0.040711852
0.016877648
0.1314608
0.12754409
0.12136148
0.11398612
0.10482799
0.093135283
0.078483208
0.06084012
0.040711547
0.016877638
0.13146063
0.12754352
0.12136019
0.11398423
0.10482591
0.093133417
0.078481842
0.060839344
0.040711267
0.016877627
)
;

boundaryField
{
    water_inlet
    {
        type            calculated;
        value           uniform 0.041850807;
    }
    water_outlet
    {
        type            calculated;
        value           nonuniform List<scalar> 10(0.13146063 0.12754352 0.12136019 0.11398423 0.10482591 0.093133417 0.078481842 0.060839344 0.040711267 0.016877627);
    }
    water_wedge1
    {
        type            wedge;
    }
    water_wedge2
    {
        type            wedge;
    }
    water_to_rock
    {
        type            compressible::alphatWallFunction;
        value           nonuniform List<scalar> 
100
(
0.0020384971
0.0022594581
0.0022621707
0.0022020354
0.0021407403
0.0020983177
0.0020752202
0.0020650581
0.0020616931
0.0020613682
0.0020623021
0.0020638113
0.0020656904
0.0020678958
0.002070418
0.0020732406
0.0020763212
0.0020796121
0.0020830813
0.0020867017
0.0020904443
0.0020942777
0.0020981693
0.0021020857
0.0021059926
0.0021098538
0.0021136301
0.0021172791
0.0021207554
0.0021240123
0.0021270054
0.0021296962
0.0021320556
0.0021340668
0.0021357261
0.0021370422
0.0021380347
0.0021387314
0.0021391656
0.0021393734
0.0021393915
0.0021392556
0.0021389989
0.0021386514
0.0021382372
0.0021377773
0.0021372917
0.0021367978
0.0021363089
0.0021358357
0.0021353859
0.0021349652
0.0021345773
0.0021342243
0.0021339073
0.0021336263
0.0021333805
0.0021331684
0.0021329883
0.002132838
0.0021327151
0.0021326172
0.0021325417
0.0021324862
0.0021324482
0.0021324254
0.0021324156
0.0021324166
0.0021324265
0.0021324435
0.002132466
0.0021324925
0.0021325216
0.0021325523
0.0021325836
0.0021326149
0.0021326456
0.0021326752
0.0021327033
0.0021327296
0.0021327539
0.0021327761
0.0021327962
0.002132814
0.0021328296
0.002132843
0.0021328544
0.0021328638
0.0021328714
0.0021328775
0.0021328822
0.0021328857
0.0021328881
0.0021328896
0.0021328901
0.00213289
0.0021328893
0.0021328881
0.0021328866
0.002132885
)
;
    }
}


// ************************************************************************* //
