/*--------------------------------*- C++ -*----------------------------------*\
| =========                 |                                                 |
| \\      /  F ield         | OpenFOAM: The Open Source CFD Toolbox           |
|  \\    /   O peration     | Version:  2506                                  |
|   \\  /    A nd           | Website:  www.openfoam.com                      |
|    \\/     M anipulation  |                                                 |
\*---------------------------------------------------------------------------*/
FoamFile
{
    version     2.0;
    format      ascii;
    arch        "LSB;label=32;scalar=64";
    class       volScalarField;
    location    "26000/water";
    object      epsilon;
}
// * * * * * * * * * * * * * * * * * * * * * * * * * * * * * * * * * * * * * //

dimensions      [0 2 -3 0 0 0 0];

internalField   nonuniform List<scalar> 
1000
(
7.2399316e-05
7.2397808e-05
7.2397502e-05
7.2398682e-05
7.2424146e-05
7.2686938e-05
7.4736184e-05
8.8973294e-05
0.00019794853
0.0013048048
4.7739543e-05
4.7745807e-05
4.7746168e-05
4.7748745e-05
4.7810065e-05
4.8371229e-05
5.2145897e-05
7.5319326e-05
0.00023607341
0.0016574914
3.3261229e-05
3.326441e-05
3.3263962e-05
3.3272039e-05
3.3396639e-05
3.4348944e-05
3.9973157e-05
7.1502164e-05
0.00026550004
0.0016622
2.4212884e-05
2.4213778e-05
2.421353e-05
2.4236018e-05
2.4468827e-05
2.5979953e-05
3.4086616e-05
7.6374819e-05
0.00030233447
0.0015600257
1.8263229e-05
1.8263302e-05
1.8265922e-05
1.8318446e-05
1.8730722e-05
2.1090709e-05
3.2935487e-05
9.0422659e-05
0.00035053437
0.0014605591
1.4183053e-05
1.4183388e-05
1.4193788e-05
1.4301414e-05
1.5003323e-05
1.8678174e-05
3.616802e-05
0.00011337716
0.00040230486
0.0013944161
1.1285033e-05
1.1287109e-05
1.1313192e-05
1.1514089e-05
1.2672061e-05
1.8360679e-05
4.3854209e-05
0.00014255069
0.00044702312
0.0013593139
9.1651308e-06
9.1712238e-06
9.2251475e-06
9.5765196e-06
1.1437682e-05
2.0107234e-05
5.5828206e-05
0.00017322839
0.00047957491
0.0013440709
7.5754963e-06
7.5890769e-06
7.6892458e-06
8.2761079e-06
1.1198236e-05
2.404128e-05
7.1187007e-05
0.00020099019
0.00050080702
0.0013390504
6.3585386e-06
6.3848727e-06
6.5589465e-06
7.5064295e-06
1.1984561e-05
3.0236194e-05
8.8277418e-05
0.00022355901
0.00051393023
0.0013385663
5.4111025e-06
5.4581715e-06
5.7474944e-06
7.2369361e-06
1.3906701e-05
3.8515461e-05
0.00010524302
0.00024078266
0.0005219785
0.0013399579
4.6642397e-06
4.7441299e-06
5.210052e-06
7.4969439e-06
1.7086992e-05
4.8355482e-05
0.00012068212
0.00025359489
0.0005270798
0.001342209
4.0714677e-06
4.2024397e-06
4.934979e-06
8.3622566e-06
2.1575437e-05
5.8975442e-05
0.00013393046
0.00026313388
0.00053055238
0.0013450158
3.6019035e-06
3.8114129e-06
4.9402446e-06
9.9351217e-06
2.7272253e-05
6.9567164e-05
0.0001449264
0.00027035452
0.00053316316
0.0013483153
3.2363933e-06
3.5653614e-06
5.2715602e-06
1.2311492e-05
3.3901802e-05
7.9510881e-05
0.00015392471
0.00027595666
0.00053534144
0.0013520953
2.9656645e-06
3.4742265e-06
5.9984263e-06
1.5537558e-05
4.1062844e-05
8.8461117e-05
0.00016127372
0.00028042552
0.00053731691
0.0013563345
2.7900133e-06
3.5645563e-06
7.2040836e-06
1.9570002e-05
4.8330089e-05
9.6307005e-05
0.00016730368
0.00028408895
0.0005391773
0.001360972
2.7202643e-06
3.8804144e-06
8.9663841e-06
2.4261405e-05
5.5349947e-05
0.00010308366
0.00017229209
0.0002871575
0.00054093634
0.0013659388
2.7797342e-06
4.4819504e-06
1.1330764e-05
2.9382981e-05
6.1887376e-05
0.00010889359
0.00017645177
0.00028975354
0.00054267203
0.0013711888
3.0065573e-06
5.4386712e-06
1.4283554e-05
3.4674977e-05
6.7820782e-05
0.00011385653
0.00017993842
0.00029198021
0.00054443416
0.0013766829
3.4547774e-06
6.8148275e-06
1.7738588e-05
3.9899711e-05
7.3111853e-05
0.00011808673
0.00018285391
0.00029394159
0.00054623659
0.0013823789
4.1911408e-06
8.6475915e-06
2.1546245e-05
4.4874768e-05
7.7769241e-05
0.0001216589
0.00018531803
0.00029569767
0.00054807424
0.0013882303
5.2835925e-06
1.0924879e-05
2.5521789e-05
4.9478128e-05
8.1803786e-05
0.00012466955
0.00018741302
0.00029728431
0.0005499332
0.0013941884
6.7799446e-06
1.3574457e-05
2.9480328e-05
5.3622653e-05
8.5253231e-05
0.00012719944
0.00018919539
0.00029872134
0.00055179452
0.0014002027
8.6832691e-06
1.64741e-05
3.3250048e-05
5.7259585e-05
8.8167113e-05
0.00012930779
0.00019070239
0.00030001697
0.00055363557
0.0014062207
1.0937845e-05
1.9464238e-05
3.669413e-05
6.0377178e-05
9.0586597e-05
0.0001310365
0.00019195671
0.00030117061
0.00055543044
0.0014121863
1.3423266e-05
2.2384305e-05
3.972693e-05
6.297781e-05
9.2544689e-05
0.00013241409
0.00019297005
0.00030217497
0.00055715036
0.0014180383
1.5988076e-05
2.5103455e-05
4.2303093e-05
6.5074323e-05
9.4068556e-05
0.0001334597
0.00019374657
0.00030301824
0.00055876432
0.0014237096
1.8484471e-05
2.7531332e-05
4.4410639e-05
6.6689179e-05
9.5183069e-05
0.00013418749
0.00019428657
0.00030368665
0.00056024075
0.0014291275
2.0793584e-05
2.9617688e-05
4.6063501e-05
6.7854254e-05
9.5914423e-05
0.0001346109
0.00019459026
0.00030416765
0.00056155005
0.0014342169
2.2836393e-05
3.1345661e-05
4.7294015e-05
6.8609949e-05
9.6292836e-05
0.00013474632
0.00019466131
0.00030445316
0.00056266777
0.0014389053
2.457267e-05
3.2722991e-05
4.8145974e-05
6.9003239e-05
9.6353738e-05
0.00013461548
0.00019450954
0.00030454215
0.00056357754
0.0014431293
2.5993405e-05
3.3773692e-05
4.8668804e-05
6.9085005e-05
9.6137433e-05
0.00013424626
0.00019415215
0.00030444222
0.00056427303
0.0014468403
2.711141e-05
3.4531236e-05
4.8913167e-05
6.8907215e-05
9.5687629e-05
0.00013367218
0.00019361361
0.00030416959
0.00056475853
0.001450009
2.795281e-05
3.503346e-05
4.8927966e-05
6.8520454e-05
9.50494e-05
0.00013293066
0.00019292426
0.00030374784
0.00056504794
0.0014526269
2.8550488e-05
3.5319033e-05
4.875852e-05
6.7972047e-05
9.4267097e-05
0.00013206097
0.00019211815
0.00030320574
0.00056516276
0.0014547058
2.8939532e-05
3.5425161e-05
4.8445601e-05
6.7304838e-05
9.3382549e-05
0.00013110199
0.00019123057
0.00030257463
0.00056512939
0.0014562751
2.9154346e-05
3.5386243e-05
4.8025058e-05
6.6556539e-05
9.2433733e-05
0.00013009034
0.00019029584
0.00030188597
0.00056497652
0.0014573774
2.9226984e-05
3.5233163e-05
4.752782e-05
6.5759526e-05
9.1453946e-05
0.00012905894
0.00018934548
0.0003011692
0.00056473271
0.0014580646
2.9186297e-05
3.4993038e-05
4.6980126e-05
6.4940953e-05
9.0471417e-05
0.00012803617
0.00018840693
0.00030045032
0.00056442462
0.0014583936
2.9057629e-05
3.4689244e-05
4.6403876e-05
6.4123062e-05
8.9509284e-05
0.00012704541
0.00018750283
0.00029975094
0.00056407582
0.0014584224
2.8862819e-05
3.4341602e-05
4.5817048e-05
6.3323617e-05
8.8585827e-05
0.00012610502
0.00018665087
0.00029908802
0.0005637062
0.0014582072
2.8620392e-05
3.396667e-05
4.523413e-05
6.2556393e-05
8.7714862e-05
0.00012522861
0.00018586388
0.00029847389
0.00056333176
0.0014578007
2.834584e-05
3.357807e-05
4.4666548e-05
6.1831676e-05
8.6906235e-05
0.00012442548
0.00018515025
0.00029791661
0.00056296464
0.0014572507
2.8051945e-05
3.3186826e-05
4.4123076e-05
6.1156753e-05
8.6166343e-05
0.00012370112
0.00018451443
0.00029742029
0.00056260918
0.0014565955
2.7749104e-05
3.2801697e-05
4.3610216e-05
6.0536378e-05
8.5498707e-05
0.00012305793
0.00018395781
0.000296985
0.00056226347
0.001455868
2.7445648e-05
3.2429488e-05
4.3132552e-05
5.9973224e-05
8.4904521e-05
0.00012249583
0.0001834786
0.00029660458
0.00056194033
0.0014551004
2.7148131e-05
3.2075345e-05
4.269307e-05
5.9468271e-05
8.4383093e-05
0.00012201234
0.00018307008
0.00029628036
0.00056164644
0.0014543197
2.6861603e-05
3.1743013e-05
4.229345e-05
5.9021159e-05
8.3932105e-05
0.00012160126
0.00018272943
0.00029601106
0.00056138464
0.0014535474
2.6589853e-05
3.1435096e-05
4.1934377e-05
5.8630297e-05
8.3546444e-05
0.00012125852
0.00018245258
0.00029579347
0.00056115552
0.0014528
2.633565e-05
3.1153276e-05
4.1615331e-05
5.8292291e-05
8.3222235e-05
0.00012097932
0.00018223434
0.00029562327
0.00056095826
0.00145209
2.6100791e-05
3.0898113e-05
4.1334812e-05
5.8004163e-05
8.2955049e-05
0.00012075818
0.00018206894
0.00029549555
0.00056079117
0.001451426
2.5886174e-05
3.0669495e-05
4.1091141e-05
5.7762573e-05
8.2740087e-05
0.00012058933
0.00018195036
0.00029540524
0.0005606521
0.0014508139
2.5692153e-05
3.0466901e-05
4.0882326e-05
5.7563921e-05
8.2572349e-05
0.00012046687
0.00018187256
0.00029534728
0.0005605386
0.0014502573
2.5518656e-05
3.0289468e-05
4.0706125e-05
5.7404441e-05
8.2446769e-05
0.00012038495
0.00018182971
0.00029531682
0.00056044814
0.0014497575
2.5365268e-05
3.0136052e-05
4.0560112e-05
5.7280292e-05
8.2358333e-05
0.00012033794
0.00018181627
0.00029530931
0.00056037819
0.0014493145
2.5231293e-05
3.0005293e-05
4.0441743e-05
5.7187637e-05
8.2302171e-05
0.00012032045
0.0001818271
0.00029532058
0.00056032626
0.001448927
2.5115821e-05
2.9895668e-05
4.0348413e-05
5.712271e-05
8.2273635e-05
0.00012032751
0.00018185748
0.00029534685
0.00056029001
0.0014485929
2.501777e-05
2.9805538e-05
4.027751e-05
5.7081872e-05
8.2268348e-05
0.00012035449
0.00018190317
0.00029538475
0.00056026724
0.0014483091
2.4935936e-05
2.97332e-05
4.0226454e-05
5.7061657e-05
8.2282249e-05
0.00012039724
0.00018196041
0.00029543131
0.00056025588
0.0014480723
2.4869033e-05
2.9676915e-05
4.0192745e-05
5.7058806e-05
8.2311619e-05
0.00012045202
0.00018202589
0.00029548396
0.00056025406
0.0014478787
2.4815724e-05
2.9634953e-05
4.0173984e-05
5.7070293e-05
8.2353091e-05
0.00012051552
0.00018209675
0.00029554049
0.00056026009
0.0014477244
2.4774653e-05
2.9605614e-05
4.0167903e-05
5.7093343e-05
8.2403659e-05
0.00012058488
0.00018217057
0.00029559906
0.00056027245
0.0014476055
2.4744473e-05
2.9587252e-05
4.0172387e-05
5.712544e-05
8.246067e-05
0.00012065763
0.0001822453
0.0002956581
0.00056028977
0.0014475181
2.4723864e-05
2.95783e-05
4.0185479e-05
5.7164331e-05
8.2521815e-05
0.00012073167
0.00018231925
0.00029571633
0.00056031084
0.0014474583
2.471155e-05
2.9577279e-05
4.0205396e-05
5.7208022e-05
8.2585112e-05
0.00012080526
0.00018239106
0.00029577274
0.00056033459
0.0014474224
2.4706321e-05
2.9582813e-05
4.023053e-05
5.7254773e-05
8.2648885e-05
0.00012087698
0.00018245966
0.00029582651
0.00056036008
0.001447407
2.4707035e-05
2.9593635e-05
4.025945e-05
5.7303091e-05
8.2711749e-05
0.00012094569
0.00018252421
0.00029587702
0.00056038647
0.0014474086
2.4712633e-05
2.9608596e-05
4.0290899e-05
5.735171e-05
8.2772581e-05
0.00012101055
0.00018258413
0.00029592383
0.00056041308
0.0014474241
2.4722144e-05
2.9626664e-05
4.0323788e-05
5.7399585e-05
8.28305e-05
0.0001210709
0.00018263904
0.00029596667
0.00056043934
0.0014474509
2.4734689e-05
2.9646923e-05
4.0357193e-05
5.744587e-05
8.2884843e-05
0.00012112633
0.00018268871
0.00029600538
0.0005604648
0.0014474863
2.4749479e-05
2.9668576e-05
4.0390342e-05
5.7489902e-05
8.2935137e-05
0.00012117658
0.00018273308
0.0002960399
0.0005604889
0.0014475281
2.476582e-05
2.9690937e-05
4.0422601e-05
5.753118e-05
8.2981076e-05
0.00012122156
0.00018277218
0.00029607023
0.00056051094
0.001447574
2.4783106e-05
2.9713424e-05
4.045347e-05
5.7569348e-05
8.3022497e-05
0.00012126129
0.00018280614
0.00029609625
0.00056053083
0.0014476223
2.480082e-05
2.9735557e-05
4.0482562e-05
5.7604179e-05
8.305936e-05
0.00012129589
0.00018283505
0.00029611811
0.00056054888
0.0014476717
2.4818524e-05
2.9756946e-05
4.0509599e-05
5.7635556e-05
8.3091725e-05
0.00012132549
0.00018285911
0.00029613626
0.00056056518
0.0014477211
2.4835859e-05
2.9777287e-05
4.0534394e-05
5.7663457e-05
8.3119684e-05
0.00012135028
0.00018287876
0.00029615106
0.00056057979
0.0014477694
2.4852537e-05
2.9796352e-05
4.0556849e-05
5.7687898e-05
8.314338e-05
0.00012137064
0.00018289444
0.00029616288
0.00056059276
0.001447816
2.4868341e-05
2.9813986e-05
4.0576893e-05
5.7708952e-05
8.3163095e-05
0.00012138697
0.00018290657
0.00029617203
0.00056060414
0.0014478603
2.4883096e-05
2.9830064e-05
4.0594524e-05
5.7726787e-05
8.3179145e-05
0.00012139967
0.00018291557
0.00029617884
0.00056061401
0.0014479017
2.4896677e-05
2.9844521e-05
4.0609802e-05
5.774161e-05
8.3191864e-05
0.00012140915
0.00018292182
0.00029618359
0.00056062245
0.00144794
2.4909003e-05
2.985734e-05
4.0622827e-05
5.7753657e-05
8.3201592e-05
0.0001214158
0.0001829257
0.00029618657
0.00056062955
0.001447975
2.492004e-05
2.9868544e-05
4.0633731e-05
5.7763177e-05
8.3208671e-05
0.00012142
0.00018292755
0.00029618803
0.00056063539
0.0014480066
2.4929784e-05
2.9878186e-05
4.0642668e-05
5.7770429e-05
8.3213432e-05
0.00012142209
0.00018292771
0.0002961882
0.00056064005
0.0014480346
2.4938262e-05
2.9886345e-05
4.0649805e-05
5.777567e-05
8.3216194e-05
0.00012142243
0.00018292647
0.0002961873
0.00056064363
0.0014480592
2.4945524e-05
2.9893117e-05
4.0655317e-05
5.7779155e-05
8.3217262e-05
0.00012142131
0.00018292411
0.00029618554
0.00056064623
0.0014480802
2.4951636e-05
2.9898609e-05
4.0659384e-05
5.778113e-05
8.3216922e-05
0.00012141902
0.00018292087
0.00029618311
0.00056064799
0.0014480981
2.4956679e-05
2.990294e-05
4.0662183e-05
5.778183e-05
8.3215439e-05
0.00012141584
0.000182917
0.0002961802
0.00056064904
0.0014481128
2.4960742e-05
2.990623e-05
4.0663888e-05
5.7781473e-05
8.3213055e-05
0.00012141198
0.0001829127
0.00029617697
0.0005606495
0.0014481249
2.4963918e-05
2.9908599e-05
4.0664661e-05
5.778026e-05
8.3209986e-05
0.00012140767
0.00018290813
0.00029617355
0.00056064949
0.0014481345
2.4966303e-05
2.9910167e-05
4.0664658e-05
5.7778373e-05
8.3206418e-05
0.00012140306
0.00018290345
0.00029617004
0.0005606491
0.0014481419
2.4967992e-05
2.9911047e-05
4.0664019e-05
5.7775973e-05
8.3202517e-05
0.00012139831
0.00018289876
0.00029616653
0.00056064841
0.0014481474
2.4969075e-05
2.9911344e-05
4.0662871e-05
5.7773199e-05
8.3198419e-05
0.00012139354
0.00018289416
0.00029616308
0.00056064745
0.0014481512
2.4969641e-05
2.9911159e-05
4.0661331e-05
5.7770176e-05
8.3194242e-05
0.00012138884
0.00018288971
0.00029615974
0.00056064627
0.0014481534
2.4969771e-05
2.9910582e-05
4.0659499e-05
5.7767011e-05
8.3190086e-05
0.0001213843
0.00018288548
0.00029615654
0.00056064493
0.0014481543
2.4969542e-05
2.9909697e-05
4.0657467e-05
5.7763794e-05
8.3186033e-05
0.00012137998
0.00018288152
0.00029615354
0.00056064349
0.0014481541
2.4969025e-05
2.9908578e-05
4.0655316e-05
5.7760604e-05
8.3182151e-05
0.00012137594
0.00018287787
0.00029615077
0.00056064201
0.0014481529
2.4968284e-05
2.9907293e-05
4.0653112e-05
5.7757505e-05
8.3178494e-05
0.00012137221
0.00018287456
0.00029614826
0.00056064055
0.0014481511
2.4967378e-05
2.9905901e-05
4.0650915e-05
5.7754549e-05
8.3175102e-05
0.00012136882
0.0001828716
0.00029614603
0.00056063917
0.0014481488
2.496636e-05
2.9904457e-05
4.0648779e-05
5.7751785e-05
8.3172011e-05
0.00012136579
0.00018286897
0.00029614405
0.00056063785
0.0014481463
)
;

boundaryField
{
    water_inlet
    {
        type            turbulentMixingLengthDissipationRateInlet;
        mixingLength    0.005;
        phi             phi;
        k               k;
        value           uniform 0.00011791765;
    }
    water_outlet
    {
        type            inletOutlet;
        inletValue      uniform 0.0001;
        value           nonuniform List<scalar> 10(2.496636e-05 2.9904457e-05 4.0648779e-05 5.7751785e-05 8.3172011e-05 0.00012136579 0.00018286897 0.00029614405 0.00056063785 0.0014481463);
    }
    water_wedge1
    {
        type            wedge;
    }
    water_wedge2
    {
        type            wedge;
    }
    water_to_rock
    {
        type            epsilonWallFunction;
        blending        stepwise;
        value           nonuniform List<scalar> 
100
(
0.0013048048
0.0016574914
0.0016622
0.0015600257
0.0014605591
0.0013944161
0.0013593139
0.0013440709
0.0013390504
0.0013385663
0.0013399579
0.001342209
0.0013450158
0.0013483153
0.0013520953
0.0013563345
0.001360972
0.0013659388
0.0013711888
0.0013766829
0.0013823789
0.0013882303
0.0013941884
0.0014002027
0.0014062207
0.0014121863
0.0014180383
0.0014237096
0.0014291275
0.0014342169
0.0014389053
0.0014431293
0.0014468403
0.001450009
0.0014526269
0.0014547058
0.0014562751
0.0014573774
0.0014580646
0.0014583936
0.0014584224
0.0014582072
0.0014578007
0.0014572507
0.0014565955
0.001455868
0.0014551004
0.0014543197
0.0014535474
0.0014528
0.00145209
0.001451426
0.0014508139
0.0014502573
0.0014497575
0.0014493145
0.001448927
0.0014485929
0.0014483091
0.0014480723
0.0014478787
0.0014477244
0.0014476055
0.0014475181
0.0014474583
0.0014474224
0.001447407
0.0014474086
0.0014474241
0.0014474509
0.0014474863
0.0014475281
0.001447574
0.0014476223
0.0014476717
0.0014477211
0.0014477694
0.001447816
0.0014478603
0.0014479017
0.00144794
0.001447975
0.0014480066
0.0014480346
0.0014480592
0.0014480802
0.0014480981
0.0014481128
0.0014481249
0.0014481345
0.0014481419
0.0014481474
0.0014481512
0.0014481534
0.0014481543
0.0014481541
0.0014481529
0.0014481511
0.0014481488
0.0014481463
)
;
    }
}


// ************************************************************************* //
