/*--------------------------------*- C++ -*----------------------------------*\
| =========                 |                                                 |
| \\      /  F ield         | OpenFOAM: The Open Source CFD Toolbox           |
|  \\    /   O peration     | Version:  2506                                  |
|   \\  /    A nd           | Website:  www.openfoam.com                      |
|    \\/     M anipulation  |                                                 |
\*---------------------------------------------------------------------------*/
FoamFile
{
    version     2.0;
    format      ascii;
    arch        "LSB;label=32;scalar=64";
    class       volScalarField;
    location    "26000/water";
    object      k;
}
// * * * * * * * * * * * * * * * * * * * * * * * * * * * * * * * * * * * * * //

dimensions      [0 2 -2 0 0 0 0];

internalField   nonuniform List<scalar> 
1000
(
0.00017657855
0.00017657518
0.00017657131
0.00017655365
0.00017648098
0.00017625478
0.00017589507
0.00017764177
0.00020514192
0.00048657967
0.00013915035
0.00013915817
0.00013914642
0.00013908743
0.00013888206
0.0001383736
0.00013797747
0.00014325065
0.00019616755
0.00057072178
0.00011343696
0.00011343683
0.00011340783
0.00011329561
0.00011298241
0.0001124902
0.00011342551
0.0001264141
0.00020548436
0.00057180212
9.4956345e-05
9.4947216e-05
9.4898274e-05
9.4747989e-05
9.4461169e-05
9.4591048e-05
9.8882304e-05
0.00012463467
0.00023169767
0.00054812303
8.1180941e-05
8.1164581e-05
8.1102164e-05
8.0967046e-05
8.0960025e-05
8.2611501e-05
9.2929431e-05
0.00013695637
0.00027128346
0.00052456939
7.0599818e-05
7.0579371e-05
7.0523472e-05
7.0504805e-05
7.1168229e-05
7.5593807e-05
9.5291252e-05
0.00016203234
0.00031585954
0.00050861024
6.2267978e-05
6.2250533e-05
6.2239523e-05
6.2499645e-05
6.439949e-05
7.3303951e-05
0.00010610175
0.00019613544
0.00035649818
0.0005000384
5.5571435e-05
5.5570247e-05
5.5667662e-05
5.6450706e-05
6.0389041e-05
7.5971413e-05
0.00012498744
0.00023351952
0.00038871352
0.00049629321
5.0098706e-05
5.0135848e-05
5.0440307e-05
5.2103065e-05
5.9190656e-05
8.3984341e-05
0.0001502991
0.00026896158
0.00041246927
0.00049505659
4.5567684e-05
4.5677876e-05
4.6337548e-05
4.939176e-05
6.1096181e-05
9.748693e-05
0.00017920259
0.0002996424
0.00042964058
0.00049493728
4.1782812e-05
4.2019051e-05
4.3252218e-05
4.8416366e-05
6.6518413e-05
0.00011597949
0.00020865681
0.00032501705
0.00044223006
0.00049528028
3.8609686e-05
3.9051456e-05
4.1174614e-05
4.9422887e-05
7.580857e-05
0.00013819008
0.00023641976
0.00034571945
0.00045177416
0.00049583483
3.5960361e-05
3.6725387e-05
4.0189441e-05
5.2767053e-05
8.9027854e-05
0.00016237163
0.00026138164
0.0003626871
0.00045931449
0.00049652577
3.3785882e-05
3.5046486e-05
4.047818e-05
5.8837707e-05
0.00010576993
0.00018682803
0.00028330002
0.00037677309
0.00046551929
0.00049733744
3.2074342e-05
3.4079165e-05
4.2315955e-05
6.7933692e-05
0.00012516097
0.0002103144
0.00030238168
0.00038864959
0.00047080821
0.00049826659
3.085376e-05
3.3954496e-05
4.6048182e-05
8.0118351e-05
0.0001460643
0.00023213685
0.00031898772
0.00039881784
0.00047543948
0.00049930758
3.0199544e-05
3.4878967e-05
5.2034442e-05
9.5116073e-05
0.00016737021
0.00025203124
0.00033348902
0.00040763804
0.00047952209
0.00050044511
3.0245987e-05
3.7136116e-05
6.0556363e-05
0.00011231947
0.00018821106
0.00026998839
0.00034621435
0.00041534822
0.00048317071
0.00050166192
3.1199957e-05
4.1068979e-05
7.1707589e-05
0.00013091719
0.00020802764
0.00028611938
0.00035742552
0.00042213352
0.00048649118
0.00050294649
3.3351585e-05
4.7031134e-05
8.5310575e-05
0.00015007593
0.00022652103
0.00030057523
0.00036733011
0.00042814913
0.00048955752
0.00050428901
3.7070298e-05
5.5301512e-05
0.00010090913
0.00016908745
0.00024356743
0.00031350248
0.00037608808
0.00043353247
0.00049241531
0.000505679
4.2767189e-05
6.5978866e-05
0.00011784979
0.00018743104
0.00025913382
0.00032501573
0.00038386926
0.00043837702
0.00049509075
0.00050710496
5.0805095e-05
7.8898815e-05
0.00013541206
0.00020475553
0.00027320771
0.0003352621
0.00039079734
0.00044274794
0.0004975979
0.00050855488
6.1362065e-05
9.3622556e-05
0.00015292648
0.00022080537
0.00028583368
0.00034436442
0.00039696175
0.00044668888
0.00049994208
0.00051001643
7.4303473e-05
0.00010951557
0.00016980566
0.00023542286
0.00029707846
0.00035241221
0.00040242353
0.00045022604
0.00050212139
0.00051147679
8.9143598e-05
0.00012582911
0.00018559596
0.00024853609
0.00030699233
0.0003594659
0.00040722012
0.00045337114
0.00050412771
0.00051292237
0.00010508611
0.00014184946
0.00019999946
0.00026010305
0.00031560973
0.00036556209
0.00041136994
0.00045612409
0.00050594765
0.00051433843
0.00012123907
0.00015699705
0.00021282893
0.00027010631
0.00032295498
0.00037072067
0.00041487772
0.00045847624
0.0005075639
0.00051570886
0.00013679992
0.00017085463
0.00022398879
0.00027855473
0.00032905151
0.0003749537
0.00041774108
0.00046041451
0.00050895736
0.00051701634
0.00015116488
0.00018316304
0.00023345974
0.00028548681
0.00033393167
0.00037827502
0.00041995796
0.00046192655
0.00051011012
0.00051824303
0.00016395703
0.00019379938
0.00024128441
0.00029097194
0.00033764467
0.00038070892
0.00042153394
0.0004630061
0.00051100893
0.0005193718
0.00017499986
0.00020274837
0.00024755303
0.00029510813
0.00034026071
0.0003822963
0.00042248808
0.00046365769
0.00051164824
0.00052038774
0.00018426824
0.00021007319
0.00025238949
0.0002980166
0.00034187089
0.00038309708
0.00042285606
0.00046389944
0.00051203235
0.00052127949
0.00019183852
0.00021588928
0.00025593873
0.00029983446
0.00034258373
0.00038318919
0.00042269034
0.00046376361
0.00051217586
0.00052204033
0.00019784747
0.00022034295
0.00025835599
0.00030070701
0.00034251947
0.00038266466
0.00042205756
0.00046329481
0.00051210262
0.00052266849
0.0002024624
0.00022359495
0.00025979839
0.00030078075
0.00034180368
0.0003816242
0.00042103417
0.00046254671
0.0005118435
0.00052316704
0.00020586096
0.00022580876
0.00026041856
0.00030019761
0.00034056126
0.00038017139
0.00041970131
0.00046157785
0.00051143351
0.00052354319
0.00020821844
0.00022714266
0.00026036026
0.00029909079
0.00033891144
0.00037840748
0.00041813994
0.00046044759
0.000510909
0.00052380733
0.0002097003
0.00022774479
0.00025975559
0.0002975819
0.00033696415
0.00037642719
0.00041642669
0.00045921256
0.00051030511
0.00052397198
0.00021045809
0.00022775035
0.00025872344
0.00029577943
0.00033481772
0.00037431578
0.00041463088
0.00045792409
0.00050965393
0.00052405079
0.00021062774
0.00022728034
0.00025736892
0.0002937781
0.00033255765
0.00037214738
0.00041281264
0.0004566265
0.00050898335
0.00052405767
0.00021032916
0.00022644132
0.00025578347
0.00029165903
0.00033025635
0.00036998428
0.00041102206
0.00045535637
0.00050831645
0.00052400613
0.00020966674
0.00022532579
0.0002540454
0.0002894903
0.00032797353
0.00036787705
0.0004092991
0.00045414239
0.00050767141
0.00052390877
0.00020873032
0.00022401304
0.00025222078
0.00028732787
0.00032575699
0.0003658651
0.00040767408
0.00045300578
0.0005070617
0.00052377699
0.00020759632
0.00022257018
0.00025036441
0.00028521668
0.00032364364
0.00036397763
0.00040616823
0.00045195983
0.00050648789
0.00052361997
0.00020632911
0.00022105325
0.00024852096
0.00028319178
0.00032166076
0.0003622348
0.00040479472
0.00045100852
0.00050595619
0.00052344561
0.00020498226
0.00021950839
0.00024672606
0.00028127958
0.00031982722
0.00036064877
0.00040355799
0.00045015481
0.00050547533
0.00052326161
0.00020359979
0.000217973
0.00024500738
0.00027949892
0.00031815452
0.00035922381
0.00040245845
0.00044940264
0.00050504934
0.00052307443
0.00020221738
0.0002164768
0.00024338568
0.00027786211
0.00031664729
0.00035795882
0.00040149662
0.00044875183
0.00050467898
0.00052288923
0.00020086345
0.00021504284
0.00024187578
0.00027637538
0.00031530446
0.00035685233
0.00040066933
0.00044819908
0.00050436282
0.00052270999
0.00019956017
0.00021368843
0.00024048665
0.00027503976
0.0003141242
0.00035589949
0.00039997045
0.00044773889
0.00050409803
0.00052253968
0.00019832407
0.00021242528
0.00023922295
0.00027385472
0.00031310159
0.00035509274
0.00039939177
0.0004473644
0.00050388089
0.00052238038
0.00019716675
0.00021126113
0.00023808673
0.00027281688
0.00031222925
0.00035442266
0.00039892379
0.00044706792
0.00050370717
0.00052223352
0.00019609627
0.0002102006
0.00023707736
0.00027192065
0.00031149805
0.00035387853
0.00039855621
0.00044684136
0.00050357242
0.00052209993
0.00019511763
0.00020924567
0.00023619199
0.00027115865
0.00031089759
0.00035344886
0.00039827843
0.00044667659
0.00050347219
0.00052197997
0.0001942333
0.00020839604
0.00023542596
0.00027052218
0.00031041664
0.00035312183
0.00039807982
0.00044656563
0.00050340208
0.00052187363
0.00019344363
0.00020764955
0.00023477317
0.00027000164
0.00031004357
0.00035288562
0.00039795003
0.00044650083
0.00050335793
0.00052178061
0.00019274712
0.00020700248
0.00023422646
0.00026958682
0.00030976662
0.00035272864
0.00039787916
0.00044647501
0.00050333579
0.00052170038
0.00019214086
0.00020644993
0.00023377785
0.00026926725
0.00030957419
0.00035263977
0.0003978579
0.00044648149
0.00050333202
0.00052163224
0.00019162075
0.00020598606
0.0002334189
0.0002690324
0.00030945503
0.00035260851
0.00039787762
0.0004465142
0.0005033433
0.00052157538
0.00019118177
0.00020560435
0.0002331409
0.00026887193
0.00030939843
0.00035262509
0.00039793046
0.00044656764
0.00050336662
0.0005215289
0.00019081828
0.00020529788
0.00023293506
0.00026877585
0.00030939434
0.00035268054
0.0003980093
0.00044663692
0.00050339929
0.00052149187
0.00019052415
0.00020505945
0.00023279276
0.00026873465
0.00030943345
0.00035276671
0.00039810782
0.00044671777
0.00050343897
0.00052146332
0.00019029302
0.00020488183
0.00023270561
0.00026873942
0.00030950725
0.00035287635
0.00039822048
0.00044680644
0.00050348361
0.00052144233
0.0001901184
0.00020475787
0.00023266563
0.00026878191
0.00030960806
0.00035300302
0.00039834246
0.00044689976
0.00050353143
0.00052142797
0.00018999387
0.0002046806
0.0002326653
0.00026885458
0.00030972903
0.00035314113
0.00039846962
0.00044699501
0.00050358092
0.00052141935
0.00018991312
0.00020464336
0.00023269762
0.0002689506
0.00030986412
0.00035328582
0.00039859847
0.00044708995
0.00050363079
0.00052141563
0.00018987009
0.00020463987
0.00023275618
0.00026906388
0.00031000807
0.00035343298
0.00039872608
0.00044718268
0.00050367997
0.00052141601
0.00018985902
0.00020466424
0.00023283514
0.00026918905
0.00031015636
0.00035357917
0.00039885007
0.00044727173
0.00050372757
0.00052141976
0.00018987451
0.00020471107
0.00023292928
0.00026932143
0.00031030518
0.00035372156
0.00039896857
0.00044735593
0.00050377292
0.00052142618
0.00018991158
0.00020477544
0.00023303399
0.00026945704
0.0003104514
0.00035385794
0.00039908014
0.00044743445
0.0005038155
0.00052143469
0.00018996568
0.00020485295
0.00023314526
0.00026959254
0.0003105925
0.0003539866
0.00039918374
0.00044750667
0.00050385459
0.00052144471
0.00019003271
0.00020493972
0.00023325968
0.00026972519
0.00031072652
0.00035410629
0.00039927867
0.00044757203
0.00050388976
0.00052145572
0.00019010905
0.00020503234
0.00023337435
0.00026985279
0.00031085199
0.00035421616
0.00039936441
0.00044763023
0.00050392111
0.00052146731
0.00019019151
0.00020512791
0.00023348689
0.00026997364
0.00031096786
0.00035431565
0.00039944067
0.00044768135
0.00050394889
0.00052147917
0.00019027733
0.00020522395
0.00023359539
0.00027008646
0.00031107342
0.0003544044
0.00039950752
0.00044772574
0.00050397326
0.00052149102
0.00019036418
0.00020531843
0.00023369835
0.00027019033
0.00031116821
0.00035448241
0.00039956534
0.00044776378
0.00050399439
0.00052150263
0.0001904501
0.00020540969
0.00023379462
0.00027028462
0.0003112521
0.00035455004
0.00039961462
0.00044779587
0.00050401247
0.00052151382
0.00019053351
0.00020549643
0.00023388333
0.00027036902
0.00031132535
0.00035460781
0.00039965592
0.00044782245
0.00050402769
0.00052152444
0.0001906131
0.00020557761
0.00023396398
0.00027044357
0.00031138837
0.00035465633
0.00039968987
0.00044784401
0.00050404028
0.00052153438
0.00019068789
0.00020565254
0.00023403633
0.00027050851
0.00031144173
0.00035469631
0.00039971712
0.00044786104
0.00050405048
0.00052154358
0.00019075717
0.00020572076
0.00023410037
0.00027056424
0.00031148611
0.00035472849
0.00039973837
0.00044787403
0.00050405853
0.00052155198
0.00019082049
0.00020578206
0.00023415629
0.00027061129
0.00031152221
0.00035475363
0.00039975426
0.00044788345
0.00050406465
0.00052155956
0.00019087758
0.00020583641
0.00023420437
0.00027065023
0.00031155079
0.00035477248
0.00039976542
0.00044788974
0.00050406905
0.0005215663
0.00019092837
0.00020588391
0.00023424502
0.00027068172
0.0003115726
0.00035478576
0.00039977247
0.00044789331
0.00050407192
0.0005215722
0.00019097289
0.00020592478
0.00023427871
0.00027070641
0.00031158837
0.00035479419
0.00039977596
0.00044789455
0.00050407346
0.00052157728
0.00019101134
0.00020595934
0.00023430598
0.00027072502
0.00031159886
0.00035479844
0.00039977646
0.00044789385
0.00050407387
0.00052158158
0.00019104398
0.000205988
0.00023432739
0.00027073823
0.0003116048
0.00035479918
0.00039977449
0.00044789156
0.00050407334
0.00052158514
0.00019107117
0.00020601121
0.00023434358
0.00027074676
0.0003116069
0.00035479705
0.00039977056
0.00044788805
0.00050407207
0.00052158804
0.00019109333
0.00020602948
0.00023435514
0.00027075128
0.00031160582
0.00035479263
0.00039976513
0.00044788363
0.00050407026
0.00052159034
0.00019111093
0.00020604334
0.0002343627
0.00027075246
0.0003116022
0.00035478645
0.00039975861
0.00044787859
0.00050406805
0.00052159212
0.00019112443
0.00020605331
0.00023436684
0.00027075089
0.00031159657
0.00035477898
0.00039975134
0.00044787314
0.00050406556
0.00052159344
0.00019113431
0.0002060599
0.00023436809
0.00027074709
0.00031158942
0.00035477058
0.0003997436
0.00044786746
0.00050406289
0.00052159434
0.00019114102
0.00020606358
0.00023436695
0.00027074154
0.00031158115
0.00035476159
0.0003997356
0.00044786169
0.0005040601
0.00052159489
0.000191145
0.0002060648
0.00023436386
0.00027073465
0.00031157211
0.00035475226
0.00039972754
0.00044785593
0.00050405724
0.00052159511
0.00019114664
0.00020606396
0.00023435921
0.00027072678
0.00031156259
0.00035474283
0.00039971955
0.00044785028
0.00050405437
0.00052159505
0.00019114633
0.00020606144
0.00023435339
0.00027071827
0.00031155289
0.0003547335
0.0003997118
0.00044784483
0.00050405156
0.00052159478
0.00019114444
0.00020605762
0.00023434672
0.00027070941
0.00031154324
0.00035472447
0.00039970442
0.00044783968
0.00050404887
0.00052159433
0.00019114132
0.00020605283
0.00023433953
0.00027070049
0.00031153387
0.00035471589
0.00039969753
0.00044783492
0.00050404636
0.00052159377
0.00019113729
0.00020604739
0.00023433213
0.00027069177
0.00031152498
0.00035470791
0.00039969119
0.00044783056
0.00050404403
0.00052159315
)
;

boundaryField
{
    water_inlet
    {
        type            turbulentIntensityKineticEnergyInlet;
        intensity       0.05;
        value           uniform 0.000234375;
    }
    water_outlet
    {
        type            inletOutlet;
        inletValue      uniform 0.0001;
        value           nonuniform List<scalar> 10(0.00019113729 0.00020604739 0.00023433213 0.00027069177 0.00031152498 0.00035470791 0.00039969119 0.00044783056 0.00050404403 0.00052159315);
    }
    water_wedge1
    {
        type            wedge;
    }
    water_wedge2
    {
        type            wedge;
    }
    water_to_rock
    {
        type            kqRWallFunction;
        value           nonuniform List<scalar> 
100
(
0.00048657967
0.00057072178
0.00057180212
0.00054812303
0.00052456939
0.00050861024
0.0005000384
0.00049629321
0.00049505659
0.00049493728
0.00049528028
0.00049583483
0.00049652577
0.00049733744
0.00049826659
0.00049930758
0.00050044511
0.00050166192
0.00050294649
0.00050428901
0.000505679
0.00050710496
0.00050855488
0.00051001643
0.00051147679
0.00051292237
0.00051433843
0.00051570886
0.00051701634
0.00051824303
0.0005193718
0.00052038774
0.00052127949
0.00052204033
0.00052266849
0.00052316704
0.00052354319
0.00052380733
0.00052397198
0.00052405079
0.00052405767
0.00052400613
0.00052390877
0.00052377699
0.00052361997
0.00052344561
0.00052326161
0.00052307443
0.00052288923
0.00052270999
0.00052253968
0.00052238038
0.00052223352
0.00052209993
0.00052197997
0.00052187363
0.00052178061
0.00052170038
0.00052163224
0.00052157538
0.0005215289
0.00052149187
0.00052146332
0.00052144233
0.00052142797
0.00052141935
0.00052141563
0.00052141601
0.00052141976
0.00052142618
0.00052143469
0.00052144471
0.00052145572
0.00052146731
0.00052147917
0.00052149102
0.00052150263
0.00052151382
0.00052152444
0.00052153438
0.00052154358
0.00052155198
0.00052155956
0.0005215663
0.0005215722
0.00052157728
0.00052158158
0.00052158514
0.00052158804
0.00052159034
0.00052159212
0.00052159344
0.00052159434
0.00052159489
0.00052159511
0.00052159505
0.00052159478
0.00052159433
0.00052159377
0.00052159315
)
;
    }
}


// ************************************************************************* //
