/*--------------------------------*- C++ -*----------------------------------*\
| =========                 |                                                 |
| \\      /  F ield         | OpenFOAM: The Open Source CFD Toolbox           |
|  \\    /   O peration     | Version:  2506                                  |
|   \\  /    A nd           | Website:  www.openfoam.com                      |
|    \\/     M anipulation  |                                                 |
\*---------------------------------------------------------------------------*/
FoamFile
{
    version     2.0;
    format      ascii;
    arch        "LSB;label=32;scalar=64";
    class       volScalarField;
    location    "26000/water";
    object      nut;
}
// * * * * * * * * * * * * * * * * * * * * * * * * * * * * * * * * * * * * * //

dimensions      [0 2 -1 0 0 0 0];

internalField   nonuniform List<scalar> 
1000
(
3.8760013e-05
3.8759344e-05
3.875781e-05
3.8749425e-05
3.8703919e-05
3.8465194e-05
3.7257946e-05
3.1920746e-05
1.9133704e-05
1.6330702e-05
3.6503362e-05
3.6502673e-05
3.6496233e-05
3.646333e-05
3.6309099e-05
3.5625575e-05
3.2857818e-05
2.4520497e-05
1.4670664e-05
1.7686427e-05
3.4818769e-05
3.4815355e-05
3.4798028e-05
3.4720761e-05
3.4400236e-05
3.3155724e-05
2.8966469e-05
2.0114737e-05
1.4313157e-05
1.7703159e-05
3.3515366e-05
3.3507685e-05
3.3473492e-05
3.3336595e-05
3.2819805e-05
3.0995898e-05
2.5816406e-05
1.8305013e-05
1.5980787e-05
1.7332726e-05
3.2476791e-05
3.2463573e-05
3.2409013e-05
3.2208497e-05
3.1494104e-05
2.9122749e-05
2.3598532e-05
1.8669372e-05
1.8895507e-05
1.6956229e-05
3.1628598e-05
3.1609534e-05
3.1536361e-05
3.1282464e-05
3.0382771e-05
2.7534712e-05
2.2595598e-05
2.0841087e-05
2.2319025e-05
1.6696303e-05
3.0922115e-05
3.0899107e-05
3.0816966e-05
3.0532898e-05
2.9455074e-05
2.6339561e-05
2.310342e-05
2.4287641e-05
2.5587459e-05
1.6555011e-05
3.0325437e-05
3.0303995e-05
3.0232576e-05
2.9948396e-05
2.8695961e-05
2.5833936e-05
2.518382e-05
2.8331516e-05
2.8356026e-05
1.6492899e-05
2.9818407e-05
2.9809198e-05
2.9779282e-05
2.9521805e-05
2.8157831e-05
2.6404719e-05
2.8559758e-05
3.2392773e-05
3.0574214e-05
1.6472339e-05
2.9389967e-05
2.9410477e-05
2.9462834e-05
2.9249477e-05
2.803164e-05
2.8288387e-05
3.2740211e-05
3.6145717e-05
3.2325774e-05
1.6470355e-05
2.9037022e-05
2.9113057e-05
2.9294137e-05
2.9152254e-05
2.8635327e-05
3.143184e-05
3.7231826e-05
3.9484768e-05
3.3719911e-05
1.6476062e-05
2.8764325e-05
2.8930798e-05
2.9285964e-05
2.9323409e-05
3.0270076e-05
3.5542711e-05
4.1683785e-05
4.2417945e-05
3.4850491e-05
1.6485283e-05
2.8585093e-05
2.8885094e-05
2.9456499e-05
2.9967099e-05
3.3062425e-05
4.0233851e-05
4.5910637e-05
4.4991447e-05
3.5787761e-05
1.6496762e-05
2.8522065e-05
2.900317e-05
2.9849428e-05
3.1360343e-05
3.6918663e-05
4.5156707e-05
4.9841167e-05
4.7257268e-05
3.6581182e-05
1.6510239e-05
2.8608608e-05
2.9316819e-05
3.0571139e-05
3.3736674e-05
4.1587e-05
5.0067275e-05
5.3461991e-05
4.9262684e-05
3.7264878e-05
1.6525656e-05
2.8889278e-05
2.9866132e-05
3.181487e-05
3.7181231e-05
4.6760766e-05
5.4824952e-05
5.6784114e-05
5.1047459e-05
3.7861907e-05
1.6542914e-05
2.9419617e-05
3.0715971e-05
3.3825604e-05
4.1606335e-05
5.2165243e-05
5.9359931e-05
5.9827396e-05
5.2642629e-05
3.8382048e-05
1.6561749e-05
3.0266829e-05
3.1985811e-05
3.6808213e-05
4.679901e-05
5.7599082e-05
6.3641856e-05
6.2613404e-05
5.406884e-05
3.8841639e-05
1.6581871e-05
3.1517172e-05
3.3869071e-05
4.0842616e-05
5.2497664e-05
6.293359e-05
6.7660429e-05
6.516098e-05
5.5349466e-05
3.9251388e-05
1.6603086e-05
3.3297067e-05
3.6603331e-05
4.5857668e-05
5.8458597e-05
6.8092104e-05
7.1415249e-05
6.7488791e-05
5.6504004e-05
3.9619098e-05
1.6625228e-05
3.5799305e-05
4.0388866e-05
5.1663561e-05
6.4490465e-05
7.3028629e-05
7.4907169e-05
6.9617335e-05
5.754727e-05
3.9950739e-05
1.6648123e-05
3.9276399e-05
4.5306138e-05
5.801343e-05
7.0456868e-05
7.7711062e-05
7.8146117e-05
7.1563488e-05
5.8491152e-05
4.0250635e-05
1.6671578e-05
4.3967092e-05
5.1282224e-05
6.466155e-05
7.6260656e-05
8.2121146e-05
8.1142993e-05
7.3340851e-05
5.9344931e-05
4.0521886e-05
1.6695395e-05
4.9982307e-05
5.8114033e-05
7.1396277e-05
8.1830174e-05
8.6249874e-05
8.3906159e-05
7.4959951e-05
6.0115513e-05
4.0766602e-05
1.6719371e-05
5.7223904e-05
6.552282e-05
7.8046706e-05
8.7114723e-05
9.0090338e-05
8.6440989e-05
7.6428107e-05
6.0807609e-05
4.0986041e-05
1.6743293e-05
6.5386945e-05
7.3209479e-05
8.4485648e-05
9.2076461e-05
9.3634009e-05
8.8749439e-05
7.774951e-05
6.1423939e-05
4.1180724e-05
1.676694e-05
7.4041455e-05
8.0901072e-05
9.0618138e-05
9.6682048e-05
9.687055e-05
9.0830271e-05
7.8925566e-05
6.1965511e-05
4.1350548e-05
1.679007e-05
8.274305e-05
8.8367385e-05
9.6367746e-05
0.00010090259
9.9788846e-05
9.2679986e-05
7.9955567e-05
6.2432022e-05
4.1494954e-05
1.6812422e-05
9.1118631e-05
9.5426458e-05
0.00010167356
0.00010471484
0.00010237893
9.429437e-05
8.083773e-05
6.2822443e-05
4.1613151e-05
1.6833719e-05
9.8904255e-05
0.00010194526
0.00010649018
0.00010810295
0.00010463424
9.56704e-05
8.1570488e-05
6.3135747e-05
4.1704404e-05
1.6853675e-05
0.00010594369
0.00010783751
0.00011078854
0.00011105999
0.00010655365
9.68081e-05
8.2153858e-05
6.3371713e-05
4.1768362e-05
1.6872018e-05
0.00011216712
0.00011305877
0.00011455631
0.00011358876
0.00010814278
9.7711954e-05
8.2590581e-05
6.3531633e-05
4.1805345e-05
1.6888512e-05
0.00011756561
0.00011759943
0.00011779704
0.00011570167
0.00010941434
9.839159e-05
8.2886811e-05
6.3618778e-05
4.1816533e-05
1.6902977e-05
0.00012216928
0.00012147658
0.00012052822
0.00011741969
0.00011038757
9.886168e-05
8.3052227e-05
6.3638517e-05
4.1804008e-05
1.6915309e-05
0.00012603119
0.00012472623
0.00012277853
0.00011877072
0.00011108711
9.9141174e-05
8.3099619e-05
6.3598106e-05
4.1770648e-05
1.6925483e-05
0.00012921643
0.00012739656
0.00012458475
0.0001197877
0.00011154134
9.9252126e-05
8.3044104e-05
6.3506223e-05
4.1719909e-05
1.6933553e-05
0.00013179502
0.00012954249
0.00012598882
0.00012050656
0.00011178082
9.9218367e-05
8.2902161e-05
6.3372364e-05
4.165556e-05
1.6939638e-05
0.00013383743
0.00013122164
0.00012703518
0.00012096448
0.00011183673
9.9064239e-05
8.269067e-05
6.3206244e-05
4.1581411e-05
1.6943909e-05
0.00013541183
0.00013249142
0.00012776868
0.0001211984
0.00011173969
9.8813522e-05
8.2426084e-05
6.3017253e-05
4.150108e-05
1.6946571e-05
0.00013658241
0.0001334071
0.00012823303
0.00012124387
0.00011151878
9.848863e-05
8.2123779e-05
6.2814054e-05
4.1417828e-05
1.6947846e-05
0.00013740846
0.00013402056
0.00012846963
0.00012113429
0.0001112009
9.8110043e-05
8.1797617e-05
6.2604303e-05
4.1334452e-05
1.6947958e-05
0.00013794397
0.00013437959
0.00012851693
0.00012090038
0.00011081043
9.7695981e-05
8.1459689e-05
6.2394501e-05
4.1253236e-05
1.6947125e-05
0.00013823755
0.00013452758
0.00012841003
0.00012056988
0.00011036895
9.7262255e-05
8.1120212e-05
6.2189955e-05
4.1175956e-05
1.6945551e-05
0.00013833251
0.00013450344
0.00012818046
0.00012016749
0.00010989529
9.6822249e-05
8.0787541e-05
6.1994802e-05
4.1103897e-05
1.694342e-05
0.0001382671
0.00013434167
0.00012785624
0.00011971482
0.00010940546
9.6386958e-05
8.046816e-05
6.181183e-05
4.1036831e-05
1.694088e-05
0.00013807485
0.00013407259
0.00012746188
0.0001192305
0.00010891285
9.596508e-05
8.0166694e-05
6.1642109e-05
4.0975897e-05
1.6938059e-05
0.00013778488
0.00013372256
0.00012701862
0.00011873029
0.00010842827
9.5563078e-05
7.9885688e-05
6.1487728e-05
4.0921566e-05
1.6935081e-05
0.0001374223
0.00013331426
0.00012654455
0.00011822722
0.0001079601
9.5185101e-05
7.962826e-05
6.134948e-05
4.0873998e-05
1.6932052e-05
0.00013700851
0.00013286698
0.00012605482
0.00011773171
0.00010751423
9.483542e-05
7.9395847e-05
6.1227572e-05
4.0833105e-05
1.6929055e-05
0.00013656154
0.00013239686
0.00012556167
0.00011725169
0.00010709637
9.4516429e-05
7.9188973e-05
6.1121758e-05
4.0798613e-05
1.6926154e-05
0.00013609626
0.00013191701
0.00012507517
0.00011679449
0.0001067102
9.4229331e-05
7.9007459e-05
6.1031428e-05
4.0770118e-05
1.6923396e-05
0.00013562497
0.00013143861
0.00012460407
0.00011636538
0.00010635801
9.3974396e-05
7.8850575e-05
6.0955711e-05
4.0747138e-05
1.6920817e-05
0.00013515808
0.00013097098
0.00012415513
0.00011596808
0.00010604098
9.3751146e-05
7.8717168e-05
6.0893553e-05
4.0729147e-05
1.6918439e-05
0.00013470405
0.00013052152
0.00012373343
0.00011560498
0.0001057593
9.355851e-05
7.8605781e-05
6.0843791e-05
4.0715602e-05
1.6916275e-05
0.00013426961
0.00013009596
0.00012334259
0.00011527734
0.00010551242
9.3394964e-05
7.8514744e-05
6.0805199e-05
4.0705964e-05
1.6914331e-05
0.00013385989
0.00012969854
0.00012298497
0.00011498549
0.00010529917
9.3258642e-05
7.8442255e-05
6.0776538e-05
4.0699709e-05
1.6912608e-05
0.00013347866
0.00012933218
0.00012266187
0.00011472899
0.0001051179
9.3147449e-05
7.8386446e-05
6.0756583e-05
4.069634e-05
1.69111e-05
0.00013312847
0.0001289987
0.00012237366
0.00011450673
0.00010496658
9.3059139e-05
7.834544e-05
6.0744152e-05
4.0695393e-05
1.69098e-05
0.0001328108
0.00012869895
0.00012211995
0.00011431714
0.00010484295
9.2991399e-05
7.831739e-05
6.0738124e-05
4.0696438e-05
1.6908695e-05
0.00013252624
0.00012843297
0.00012189975
0.00011415825
0.00010474455
9.2941904e-05
7.8300519e-05
6.0737449e-05
4.0699088e-05
1.6907774e-05
0.00013227464
0.0001282001
0.00012171154
0.0001140278
0.00010466888
9.2908374e-05
7.8293141e-05
6.0741163e-05
4.070299e-05
1.6907021e-05
0.0001320552
0.00012799918
0.00012155346
0.00011392339
0.0001046134
9.2888618e-05
7.8293687e-05
6.0748389e-05
4.0707837e-05
1.6906421e-05
0.00013186666
0.0001278286
0.00012142337
0.00011384248
0.00010457564
9.288056e-05
7.8300712e-05
6.0758342e-05
4.0713357e-05
1.6905959e-05
0.00013170735
0.00012768644
0.00012131893
0.00011378256
0.00010455319
9.2882269e-05
7.831291e-05
6.0770328e-05
4.0719318e-05
1.6905619e-05
0.00013157534
0.00012757057
0.00012123774
0.00011374111
0.00010454379
9.2891966e-05
7.8329107e-05
6.0783742e-05
4.0725521e-05
1.6905386e-05
0.0001314685
0.00012747871
0.00012117733
0.0001137157
0.00010454532
9.2908035e-05
7.8348265e-05
6.079806e-05
4.07318e-05
1.6905246e-05
0.00013138457
0.00012740849
0.00012113528
0.00011370402
0.00010455579
9.2929017e-05
7.8369469e-05
6.0812831e-05
4.0738015e-05
1.6905186e-05
0.00013132125
0.00012735755
0.00012110919
0.00011370387
0.00010457342
9.2953609e-05
7.8391922e-05
6.0827676e-05
4.0744052e-05
1.6905192e-05
0.00013127619
0.00012732352
0.00012109678
0.00011371321
0.00010459656
9.2980662e-05
7.8414943e-05
6.0842278e-05
4.074982e-05
1.6905252e-05
0.0001312471
0.00012730411
0.00012109587
0.00011373014
0.00010462375
9.300918e-05
7.8437955e-05
6.0856379e-05
4.0755247e-05
1.6905357e-05
0.00013123176
0.00012729713
0.00012110445
0.00011375298
0.00010465371
9.3038318e-05
7.8460491e-05
6.0869783e-05
4.0760286e-05
1.6905494e-05
0.00013122807
0.00012730055
0.00012112064
0.0001137802
0.00010468534
9.306737e-05
7.8482175e-05
6.0882332e-05
4.0764859e-05
1.6905656e-05
0.00013123405
0.00012731245
0.00012114279
0.00011381047
0.0001047177
9.3095762e-05
7.8502707e-05
6.089388e-05
4.0768946e-05
1.6905835e-05
0.0001312479
0.00012733111
0.0001211694
0.00011384266
0.00010475
9.3123022e-05
7.8521837e-05
6.0904363e-05
4.0772572e-05
1.6906022e-05
0.00013126795
0.00012735497
0.00012119914
0.00011387575
0.00010478158
9.3148759e-05
7.8539406e-05
6.0913778e-05
4.0775754e-05
1.6906214e-05
0.00013129273
0.00012738264
0.00012123084
0.00011390889
0.00010481189
9.3172693e-05
7.8555359e-05
6.0922128e-05
4.0778512e-05
1.6906405e-05
0.00013132089
0.00012741286
0.0001212635
0.00011394137
0.0001048405
9.3194675e-05
7.8569656e-05
6.0929433e-05
4.0780869e-05
1.6906594e-05
0.00013135125
0.00012744455
0.00012129623
0.0001139726
0.00010486714
9.3214603e-05
7.85823e-05
6.0935735e-05
4.0782851e-05
1.6906775e-05
0.00013138277
0.00012747676
0.00012132834
0.00011400219
0.00010489163
9.3232438e-05
7.8593331e-05
6.0941087e-05
4.0784486e-05
1.6906947e-05
0.00013141459
0.00012750874
0.0001213593
0.00011402982
0.00010491385
9.3248195e-05
7.8602819e-05
6.0945554e-05
4.0785806e-05
1.6907108e-05
0.00013144599
0.00012753989
0.00012138868
0.0001140553
0.00010493377
9.3261936e-05
7.8610854e-05
6.0949211e-05
4.0786843e-05
1.6907256e-05
0.00013147643
0.00012756973
0.00012141618
0.0001140785
0.0001049514
9.327375e-05
7.8617542e-05
6.0952134e-05
4.078763e-05
1.6907392e-05
0.00013150546
0.00012759789
0.00012144159
0.00011409937
0.0001049668
9.3283747e-05
7.8622994e-05
6.0954398e-05
4.0788195e-05
1.6907515e-05
0.00013153274
0.0001276241
0.00012146476
0.00011411789
0.00010498006
9.329205e-05
7.8627318e-05
6.0956075e-05
4.0788568e-05
1.6907625e-05
0.00013155799
0.00012764814
0.00012148559
0.00011413409
0.00010499126
9.3298781e-05
7.8630623e-05
6.0957231e-05
4.0788772e-05
1.6907721e-05
0.00013158105
0.0001276699
0.00012150406
0.00011414803
0.00010500055
9.3304074e-05
7.8633015e-05
6.0957932e-05
4.0788832e-05
1.6907804e-05
0.00013160179
0.0001276893
0.00012152019
0.00011415981
0.00010500805
9.3308066e-05
7.86346e-05
6.0958239e-05
4.0788769e-05
1.6907875e-05
0.00013162016
0.00012770633
0.00012153404
0.00011416958
0.00010501392
9.3310905e-05
7.8635489e-05
6.0958215e-05
4.0788608e-05
1.6907933e-05
0.0001316362
0.00012772107
0.00012154573
0.00011417747
0.00010501834
9.3312744e-05
7.8635793e-05
6.0957925e-05
4.078837e-05
1.690798e-05
0.00013164999
0.0001277336
0.00012155542
0.00011418369
0.00010502149
9.3313736e-05
7.863562e-05
6.0957427e-05
4.0788076e-05
1.6908018e-05
0.00013166166
0.00012774409
0.00012156327
0.00011418841
0.00010502355
9.3314026e-05
7.8635068e-05
6.0956775e-05
4.0787747e-05
1.6908046e-05
0.00013167135
0.0001277527
0.00012156947
0.00011419183
0.00010502469
9.3313743e-05
7.8634224e-05
6.0956015e-05
4.0787395e-05
1.6908068e-05
0.00013167925
0.0001277596
0.0001215742
0.00011419411
0.00010502504
9.3312996e-05
7.8633158e-05
6.095518e-05
4.0787033e-05
1.6908082e-05
0.00013168552
0.00012776495
0.00012157763
0.0001141954
0.00010502473
9.3311877e-05
7.8631924e-05
6.0954297e-05
4.0786666e-05
1.6908091e-05
0.00013169031
0.00012776893
0.00012157989
0.00011419585
0.00010502388
9.3310461e-05
7.8630567e-05
6.0953386e-05
4.0786301e-05
1.6908095e-05
0.00013169378
0.00012777167
0.00012158115
0.00011419557
0.00010502259
9.330882e-05
7.8629129e-05
6.0952464e-05
4.0785942e-05
1.6908095e-05
0.00013169608
0.00012777333
0.00012158154
0.00011419469
0.00010502095
9.3307021e-05
7.862765e-05
6.0951552e-05
4.0785595e-05
1.690809e-05
0.00013169738
0.00012777408
0.00012158121
0.00011419335
0.00010501906
9.3305135e-05
7.8626171e-05
6.0950667e-05
4.0785265e-05
1.6908083e-05
0.00013169786
0.00012777408
0.00012158033
0.00011419166
0.00010501702
9.3303228e-05
7.8624732e-05
6.094983e-05
4.0784959e-05
1.6908073e-05
0.00013169769
0.00012777351
0.00012157903
0.00011418977
0.00010501493
9.330136e-05
7.8623364e-05
6.0949052e-05
4.078468e-05
1.6908062e-05
)
;

boundaryField
{
    water_inlet
    {
        type            calculated;
        value           uniform 4.1926275e-05;
    }
    water_outlet
    {
        type            calculated;
        value           nonuniform List<scalar> 10(0.00013169769 0.00012777351 0.00012157903 0.00011418977 0.00010501493 9.330136e-05 7.8623364e-05 6.0949052e-05 4.078468e-05 1.6908062e-05);
    }
    water_wedge1
    {
        type            wedge;
    }
    water_wedge2
    {
        type            wedge;
    }
    water_to_rock
    {
        type            nutkWallFunction;
        blending        stepwise;
        value           nonuniform List<scalar> 
100
(
1.7358471e-06
1.9240026e-06
1.9263124e-06
1.8751053e-06
1.8229105e-06
1.7867863e-06
1.767118e-06
1.7584646e-06
1.7555992e-06
1.7553225e-06
1.7561178e-06
1.757403e-06
1.759003e-06
1.7608811e-06
1.7630288e-06
1.7654323e-06
1.7680555e-06
1.7708578e-06
1.773812e-06
1.7768948e-06
1.7800818e-06
1.7833461e-06
1.7866599e-06
1.7899948e-06
1.7933217e-06
1.7966096e-06
1.7998252e-06
1.8029325e-06
1.8058927e-06
1.8086661e-06
1.8112148e-06
1.8135061e-06
1.8155152e-06
1.8172278e-06
1.8186407e-06
1.8197614e-06
1.8206066e-06
1.8211998e-06
1.8215696e-06
1.8217465e-06
1.821762e-06
1.8216463e-06
1.8214276e-06
1.8211317e-06
1.820779e-06
1.8203874e-06
1.8199739e-06
1.8195533e-06
1.819137e-06
1.8187341e-06
1.8183511e-06
1.8179928e-06
1.8176625e-06
1.8173619e-06
1.817092e-06
1.8168527e-06
1.8166434e-06
1.8164628e-06
1.8163094e-06
1.8161814e-06
1.8160768e-06
1.8159934e-06
1.8159291e-06
1.8158819e-06
1.8158495e-06
1.8158301e-06
1.8158218e-06
1.8158226e-06
1.815831e-06
1.8158455e-06
1.8158647e-06
1.8158872e-06
1.815912e-06
1.8159381e-06
1.8159648e-06
1.8159915e-06
1.8160176e-06
1.8160428e-06
1.8160667e-06
1.8160891e-06
1.8161098e-06
1.8161287e-06
1.8161458e-06
1.816161e-06
1.8161743e-06
1.8161857e-06
1.8161954e-06
1.8162034e-06
1.8162099e-06
1.8162151e-06
1.8162191e-06
1.8162221e-06
1.8162241e-06
1.8162253e-06
1.8162258e-06
1.8162257e-06
1.8162251e-06
1.8162241e-06
1.8162228e-06
1.8162214e-06
)
;
    }
}


// ************************************************************************* //
