/*--------------------------------*- C++ -*----------------------------------*\
| =========                 |                                                 |
| \\      /  F ield         | OpenFOAM: The Open Source CFD Toolbox           |
|  \\    /   O peration     | Version:  2506                                  |
|   \\  /    A nd           | Website:  www.openfoam.com                      |
|    \\/     M anipulation  |                                                 |
\*---------------------------------------------------------------------------*/
FoamFile
{
    version     2.0;
    format      ascii;
    arch        "LSB;label=32;scalar=64";
    class       volVectorField;
    location    "26000/water";
    object      U;
}
// * * * * * * * * * * * * * * * * * * * * * * * * * * * * * * * * * * * * * //

dimensions      [0 1 -1 0 0 0 0];

internalField   nonuniform List<vector> 
1000
(
(0.25225587 -0.00012859768 3.7950219e-18)
(0.25226258 -0.00027067837 9.386454e-19)
(0.25227485 -0.00041450541 1.8761344e-18)
(0.25228819 -0.00055572717 2.852126e-19)
(0.25229018 -0.00068575791 1.8564592e-19)
(0.25223998 -0.00079863173 3.4034745e-20)
(0.25200713 -0.00089615195 -7.8661515e-20)
(0.25115686 -0.0010460356 -3.1024346e-19)
(0.24780473 -0.0012820719 -2.9074785e-19)
(0.23308261 0.0010121611 -4.3559037e-19)
(0.25653043 -7.7330461e-05 1.9084895e-18)
(0.25653977 -0.00018903832 9.8275544e-19)
(0.25655871 -0.00029096539 2.5411716e-18)
(0.25657276 -0.0003902449 5.7507935e-19)
(0.25654377 -0.00048175043 -2.5607905e-20)
(0.25636039 -0.00055898447 -7.0662075e-20)
(0.25570613 -0.00060536503 -1.5449454e-19)
(0.25355952 -0.00065441369 -4.5278387e-19)
(0.24574266 -0.00084724775 -4.440163e-19)
(0.21968686 0.00025718801 -4.9189221e-19)
(0.26021787 -7.3910013e-05 -2.225829e-18)
(0.26022468 -0.00018059838 -7.2880366e-19)
(0.26023383 -0.00027741918 1.5599998e-18)
(0.26021807 -0.00037159751 4.4242522e-19)
(0.26010153 -0.00045735786 -2.8165848e-19)
(0.25968006 -0.00053044621 -2.9617511e-19)
(0.25840621 -0.0005709314 -2.5549792e-19)
(0.25452353 -0.00056554817 -4.8564863e-19)
(0.24186464 -0.00061987725 -5.3319214e-19)
(0.20839343 1.1252173e-05 -4.251484e-19)
(0.26340526 -6.894599e-05 -8.5339159e-20)
(0.26340956 -0.00017058511 -2.2580376e-24)
(0.26340597 -0.00026279232 1.0681624e-18)
(0.2633478 -0.00035138372 6.1839315e-19)
(0.26310913 -0.00042951149 -2.6970303e-19)
(0.26237282 -0.00049395021 -5.0419379e-19)
(0.26030373 -0.0005275105 -4.0788178e-19)
(0.25430847 -0.0004929002 -5.1525082e-19)
(0.23723183 -0.00045934336 -4.302017e-19)
(0.19958841 -4.8876269e-05 -3.6298545e-19)
(0.26641628 -6.4388915e-05 -3.7838946e-19)
(0.26641555 -0.00015946865 1.2115933e-18)
(0.266392 -0.00024539844 6.065825e-19)
(0.26627267 -0.00032748748 6.4772418e-19)
(0.26586989 -0.00039791728 -1.5875556e-19)
(0.26472853 -0.00045250612 -2.6510775e-19)
(0.26164543 -0.00047360873 -2.9030224e-19)
(0.2532125 -0.00041483836 -4.8877619e-19)
(0.23271015 -0.00033459346 -5.1367669e-19)
(0.1932951 -5.0632519e-05 -4.449997e-19)
(0.26927573 -6.0867434e-05 1.0374703e-19)
(0.26926716 -0.00015024309 1.0098324e-18)
(0.2692148 -0.00023070414 7.0424114e-19)
(0.26901237 -0.00030702695 3.9866114e-19)
(0.26839647 -0.00037049945 1.4654747e-19)
(0.26673518 -0.00041493176 -1.0737808e-19)
(0.2623679 -0.00041871787 -1.5747514e-19)
(0.2513628 -0.00033834991 -3.6511476e-19)
(0.22869802 -0.00023662917 -2.9166878e-19)
(0.18902126 -3.9494323e-05 -3.9375317e-19)
(0.27197991 -5.805749e-05 2.4328146e-18)
(0.27196006 -0.00014287123 1.7322829e-18)
(0.27186829 -0.00021894815 -8.5808553e-20)
(0.2715565 -0.00029030323 -2.1683663e-21)
(0.27066608 -0.00034728944 -6.3159232e-20)
(0.26833153 -0.00038068218 -2.3168738e-19)
(0.2623985 -0.000364372 -2.0675754e-19)
(0.24902642 -0.00026852445 -2.1711884e-19)
(0.225361 -0.0001627271 -1.4788437e-19)
(0.18616823 -2.8774018e-05 -3.5484862e-19)
(0.27455816 -5.5861834e-05 5.05466e-19)
(0.2745228 -0.00013703208 1.5365874e-18)
(0.27437848 -0.00020952012 8.860841e-20)
(0.27392442 -0.00027640494 -3.8079582e-20)
(0.27267856 -0.00032682068 -1.2473664e-19)
(0.26947686 -0.00034738385 7.9851475e-20)
(0.26178468 -0.00031092628 -3.5316494e-20)
(0.24657383 -0.00020816827 -1.6424956e-19)
(0.2227152 -0.00011050061 -3.1625018e-19)
(0.18425835 -2.0836129e-05 -2.9015658e-19)
(0.27704027 -5.408575e-05 3.4928943e-19)
(0.27698407 -0.00013225441 9.8028358e-19)
(0.27677057 -0.00020162581 1.0549595e-18)
(0.2761317 -0.00026417292 2.6004248e-19)
(0.27442312 -0.00030720567 2.8731617e-20)
(0.27014171 -0.00031294731 3.0864105e-19)
(0.26068999 -0.00025925743 -9.7707923e-20)
(0.24429835 -0.0001583641 -1.017718e-19)
(0.22067583 -7.5408218e-05 5.3224017e-20)
(0.18296196 -1.5153126e-05 -9.2672794e-21)
(0.27944341 -5.2555785e-05 2.3605133e-18)
(0.27935955 -0.00012814143 1.9759325e-18)
(0.27905543 -0.00019460764 1.8194062e-19)
(0.27817574 -0.00025259245 2.1915477e-19)
(0.27586795 -0.00028673443 2.1325201e-19)
(0.27032642 -0.00027659188 2.1208226e-19)
(0.25933502 -0.00021094025 -1.5799981e-19)
(0.24234217 -0.00011891223 -1.3374012e-19)
(0.21912383 -5.2171913e-05 -8.3206148e-20)
(0.18206599 -1.0945777e-05 -1.2025145e-19)
(0.28177654 -5.1166703e-05 1.713704e-18)
(0.28165619 -0.00012441982 1.7898393e-19)
(0.2812333 -0.00018797317 -3.5104691e-19)
(0.280039 -0.00024077479 6.096062e-19)
(0.27697396 -0.0002641767 2.6868884e-19)
(0.27008761 -0.00023880455 -1.3911127e-19)
(0.25792268 -0.00016762405 -1.095101e-19)
(0.24073181 -8.848222e-05 -1.4997821e-19)
(0.21795022 -3.6446285e-05 -3.3223805e-19)
(0.18143936 -7.6995049e-06 -1.7765988e-19)
(0.28404477 -4.9854775e-05 1.8605555e-18)
(0.28387626 -0.00012089429 -1.1192189e-19)
(0.28329739 -0.00018132928 -2.2532011e-19)
(0.28169343 -0.00022787744 5.0083309e-19)
(0.27771471 -0.00023897438 1.509459e-19)
(0.26953509 -0.00020087642 -3.1318871e-20)
(0.25659139 -0.00013036631 -2.1758042e-19)
(0.23943782 -6.5172402e-05 -1.2553348e-19)
(0.21706901 -2.5326154e-05 -1.793115e-19)
(0.18100321 -5.1221026e-06 -2.1292454e-19)
(0.28625049 -4.8572076e-05 9.5869787e-19)
(0.28601827 -0.00011740094 1.525304e-19)
(0.28523427 -0.00017430201 5.5968205e-20)
(0.28310493 -0.00021314211 4.747666e-19)
(0.27809438 -0.00021129088 2.4897528e-19)
(0.26879942 -0.00016439854 -2.192079e-20)
(0.25541094 -9.9329703e-05 -1.3965375e-19)
(0.23841401 -4.7155843e-05 -1.9948882e-19)
(0.21641537 -1.7078959e-05 -1.460754e-19)
(0.18070889 -3.0434159e-06 -1.7615753e-19)
(0.28839355 -4.727092e-05 6.2512418e-19)
(0.28807682 -0.00011377569 1.044525e-18)
(0.28702342 -0.00016645971 3.4648463e-19)
(0.28424077 -0.0001960257 5.8157688e-19)
(0.27815548 -0.00018188476 3.5703581e-19)
(0.267996 -0.00013078889 -1.0847086e-19)
(0.25440308 -7.3936015e-05 -3.9079669e-19)
(0.23761477 -3.3002574e-05 -3.6094799e-19)
(0.21594074 -1.0714967e-05 -2.8158762e-19)
(0.18052447 -1.3524153e-06 -2.9622064e-19)
(0.29047097 -4.5891403e-05 1.7610686e-18)
(0.29004195 -0.00010982897 3.3606578e-18)
(0.28863779 -0.00015729272 7.0350895e-19)
(0.28508022 -0.00017633778 -8.7616361e-20)
(0.2779708 -0.00015188602 3.1779344e-20)
(0.26720624 -0.00010094531 -2.2104577e-19)
(0.25356401 -5.3257195e-05 -3.1037166e-19)
(0.23700054 -2.1696988e-05 -2.1359779e-19)
(0.21560863 -5.6582049e-06 -3.0447495e-19)
(0.1804276 3.4383913e-08 -1.6113488e-19)
(0.29247637 -4.4351513e-05 1.369768e-18)
(0.29189831 -0.00010531327 2.6148455e-19)
(0.2900463 -0.00014628172 1.0095576e-18)
(0.28562468 -0.00015430593 8.2291958e-19)
(0.27762405 -0.00012253879 8.2740491e-20)
(0.26647731 -7.5147419e-05 -2.5221369e-19)
(0.25287923 -3.6357447e-05 1.177048e-20)
(0.23653863 -1.2543992e-05 -4.9965373e-20)
(0.21539113 -1.5271083e-06 -1.3827602e-19)
(0.18040207 1.2059234e-06 9.9716225e-20)
(0.294399 -4.2542679e-05 3.0462205e-19)
(0.2936244 -9.989461e-05 6.0762944e-19)
(0.29121908 -0.00013303043 7.7208345e-19)
(0.2859017 -0.00013054565 8.623149e-19)
(0.27719082 -9.4944792e-05 5.6367762e-19)
(0.26583133 -5.3199444e-05 2.2754155e-19)
(0.25233097 -2.2454067e-05 1.4639321e-19)
(0.23620236 -5.0215002e-06 -6.4849001e-20)
(0.21526452 1.8968381e-06 -7.1025489e-20)
(0.18043775 2.1934837e-06 -1.6734878e-19)
(0.29622248 -4.0322366e-05 1.0247848e-18)
(0.29519258 -9.3155661e-05 5.0780725e-19)
(0.29213502 -0.00011739376 6.2109029e-19)
(0.28595986 -0.00010594481 9.8234063e-19)
(0.2767282 -6.985918e-05 7.2933233e-19)
(0.26527516 -3.4651653e-05 5.0837513e-19)
(0.25190111 -1.0913091e-05 1.7050564e-19)
(0.23596807 1.2299037e-06 -8.023775e-21)
(0.21521692 4.7046332e-06 -2.2538667e-20)
(0.18052213 2.9882616e-06 -1.2896477e-19)
(0.29792335 -3.7501518e-05 6.6914521e-19)
(0.29657069 -8.4661019e-05 3.556741e-19)
(0.29278918 -9.9553378e-05 -1.194104e-19)
(0.28585701 -8.1497996e-05 8.781292e-19)
(0.27627358 -4.7621587e-05 3.3482251e-19)
(0.26480714 -1.8986191e-05 5.0444648e-19)
(0.25157194 -1.2559461e-06 -1.5239735e-19)
(0.23582161 6.4189305e-06 -1.5644897e-19)
(0.21523435 6.9878966e-06 -1.5962595e-19)
(0.1806461 3.6199552e-06 -2.5548312e-19)
(0.29946984 -3.3841871e-05 -1.5564945e-18)
(0.29772605 -7.4080899e-05 8.7163506e-19)
(0.29319631 -8.0020844e-05 -6.871161e-19)
(0.28564805 -5.8127243e-05 -2.017225e-18)
(0.27584862 -2.8226566e-05 -5.1234969e-19)
(0.26442121 -5.6914432e-06 -5.51665e-19)
(0.25132937 6.855314e-06 -1.3324063e-19)
(0.23575037 1.0704124e-05 -5.3735184e-21)
(0.21530522 8.8444474e-06 -6.790373e-20)
(0.1808024 4.1232786e-06 -6.8064896e-20)
(0.30082186 -2.9095035e-05 5.9002418e-19)
(0.29863178 -6.1332594e-05 7.648272e-19)
(0.29338826 -5.956754e-05 -1.9783676e-19)
(0.2853772 -3.6522744e-05 -1.1980198e-18)
(0.27546385 -1.141708e-05 -4.0969114e-19)
(0.26410765 5.6167161e-06 -7.5683319e-19)
(0.2511654 1.3623646e-05 -3.4638714e-19)
(0.2357418 1.4219922e-05 3.2167934e-20)
(0.21542009 1.0354978e-05 9.7520407e-20)
(0.18098516 4.5263018e-06 1.7553869e-19)
(0.30193377 -2.3108599e-05 1.7936706e-18)
(0.29927341 -4.6684422e-05 1.0045779e-18)
(0.29340605 -3.9090979e-05 -5.9750156e-19)
(0.28507548 -1.7046517e-05 6.7416151e-19)
(0.27512088 3.0851893e-06 5.8152324e-19)
(0.26386444 1.5141738e-05 8.4260929e-20)
(0.25106782 1.9211236e-05 -2.33943e-19)
(0.23578539 1.7095892e-05 -1.5119504e-19)
(0.21557118 1.1581626e-05 1.2842061e-20)
(0.18118945 4.8479819e-06 3.9597208e-20)
(0.30276113 -1.5976386e-05 -2.3907995e-18)
(0.2996529 -3.0772092e-05 -1.0655709e-18)
(0.29329057 -1.9434646e-05 -1.2832052e-18)
(0.28476121 1.6982511e-07 -1.1576267e-18)
(0.27482456 1.5443e-05 8.6036718e-20)
(0.26368338 2.3073832e-05 1.1675659e-19)
(0.25102649 2.3804556e-05 2.3748137e-19)
(0.2358724 1.9436189e-05 -1.8285626e-20)
(0.215752 1.2566304e-05 -4.0458992e-20)
(0.18141108 5.0994593e-06 1.7270546e-19)
(0.30327134 -8.127123e-06 1.2015728e-18)
(0.29978734 -1.4484686e-05 1.1280835e-18)
(0.29307476 -1.3035688e-06 -7.1879087e-19)
(0.28444916 1.5041608e-05 -9.2747612e-19)
(0.27457431 2.5806201e-05 -7.9794591e-19)
(0.26355614 2.9615822e-05 -1.6397716e-19)
(0.25103262 2.7546718e-05 -2.2206059e-19)
(0.23599544 2.1313123e-05 -5.0149863e-20)
(0.21595699 1.33374e-05 4.4721627e-20)
(0.18164633 5.2878848e-06 9.0275498e-20)
(0.30345393 -2.4181851e-07 5.8948417e-19)
(0.2997026 1.1339347e-06 1.3876442e-18)
(0.29278634 1.4663471e-05 -5.1780855e-19)
(0.2841489 2.7526832e-05 -9.8729904e-19)
(0.27436558 3.4337663e-05 -6.7208098e-19)
(0.26347495 3.4930723e-05 -3.1100006e-19)
(0.25107851 3.0536843e-05 -1.4163457e-19)
(0.23614812 2.27749e-05 -4.2597369e-20)
(0.21618133 1.3913317e-05 3.7108372e-20)
(0.18189186 5.4174477e-06 3.3616825e-20)
(0.30332508 6.880834e-06 -3.5217343e-18)
(0.29943291 1.4984733e-05 -1.050887e-18)
(0.29244685 2.7993628e-05 -1.2118878e-18)
(0.28386229 3.7675951e-05 -2.0851132e-18)
(0.27419301 4.1186119e-05 -9.2020966e-19)
(0.26343256 3.9126755e-05 -7.8242687e-19)
(0.2511573 3.2834964e-05 1.474113e-19)
(0.23632477 2.3848297e-05 1.3720373e-19)
(0.21642061 1.4302381e-05 5.9273747e-20)
(0.1821445 5.4889527e-06 1.5478365e-19)
(0.30293047 1.2606088e-05 1.3823011e-18)
(0.29901528 2.6251405e-05 -6.9538443e-19)
(0.29206921 3.8506036e-05 -1.9810297e-19)
(0.28358875 4.5587443e-05 4.3420876e-19)
(0.27405095 4.6449381e-05 2.3346466e-19)
(0.2634222 4.2264277e-05 -7.6740906e-21)
(0.25126272 3.4469834e-05 1.3782833e-19)
(0.23652016 2.4541758e-05 1.4696473e-19)
(0.21667067 1.4503706e-05 1.6094274e-19)
(0.1824011 5.5000536e-06 4.4340051e-20)
(0.30233163 1.668497e-05 1.9908014e-19)
(0.29848532 3.4598658e-05 -5.743961e-19)
(0.29166294 4.6228772e-05 -4.4034712e-19)
(0.28332653 5.1357288e-05 4.080436e-19)
(0.27393383 5.0192034e-05 1.4036639e-19)
(0.26343755 4.4375465e-05 1.1912477e-19)
(0.25138895 3.5450026e-05 1.4639049e-19)
(0.23672934 2.4851176e-05 1.4944719e-19)
(0.21692738 1.4510015e-05 1.1618248e-19)
(0.18265837 5.4463209e-06 6.2470156e-20)
(0.30159327 1.9180955e-05 1.6358897e-18)
(0.2978766 4.0082178e-05 2.1027128e-18)
(0.29123638 5.132466e-05 -3.69307e-19)
(0.28307386 5.5100409e-05 -9.8586452e-20)
(0.2738365 5.2475541e-05 -4.8913887e-19)
(0.26347282 4.5484634e-05 -4.0441263e-19)
(0.25153053 3.5777112e-05 -4.8279567e-19)
(0.23694748 2.4768249e-05 -9.8092309e-20)
(0.21718657 1.4312245e-05 5.1834159e-20)
(0.18291284 5.3230128e-06 2.4679011e-20)
(0.30077413 2.0343247e-05 4.7659015e-19)
(0.29721998 4.3028311e-05 1.1840933e-18)
(0.29079792 5.4061623e-05 6.4462997e-19)
(0.28282965 5.6973409e-05 1.2967021e-19)
(0.27375461 5.3381256e-05 7.8374672e-20)
(0.26352282 4.5626559e-05 -1.4888375e-19)
(0.25168237 3.5459517e-05 -3.8619634e-19)
(0.2371699 2.4289892e-05 -2.2801583e-19)
(0.21744398 1.3904909e-05 1.1911932e-21)
(0.18316086 5.127098e-06 2.8148697e-20)
(0.2999223 2.0483588e-05 -4.2140172e-18)
(0.29654267 4.3898392e-05 -2.8893528e-18)
(0.29035629 5.4779957e-05 -6.9536139e-19)
(0.28259387 5.7181269e-05 -1.7811916e-18)
(0.27368476 5.3023958e-05 -5.4037422e-19)
(0.26358307 4.4860252e-05 -1.1535701e-19)
(0.25183982 3.4524007e-05 3.4408326e-19)
(0.23739209 2.3426392e-05 1.2373651e-19)
(0.21769541 1.3290889e-05 3.0797015e-20)
(0.18339876 4.8589825e-06 1.2867876e-19)
(0.29907432 1.9896856e-05 2.5648223e-18)
(0.29586753 4.3179376e-05 -1.2488588e-18)
(0.28992025 5.3855015e-05 -8.0696376e-19)
(0.28236752 5.5969405e-05 2.5856605e-19)
(0.27362456 5.1554637e-05 9.9262347e-19)
(0.26364988 4.3275272e-05 6.3618603e-19)
(0.25199878 3.3022071e-05 4.6155699e-19)
(0.23760989 2.220635e-05 1.9825731e-19)
(0.21793686 1.2484547e-05 -3.486094e-20)
(0.18362302 4.5236716e-06 -5.6605868e-20)
(0.29825623 1.8826406e-05 2.583713e-18)
(0.2952127 4.1316635e-05 3.0837989e-19)
(0.28949801 5.1661775e-05 -3.506033e-19)
(0.28215238 5.3606288e-05 7.6884838e-19)
(0.27357256 4.9153564e-05 3.8077872e-19)
(0.26372034 4.0989796e-05 3.0230366e-19)
(0.2521557 3.1029936e-05 1.3817734e-20)
(0.23781957 2.0677136e-05 -7.0238652e-20)
(0.2181647 1.1512137e-05 -6.8160109e-20)
(0.18383052 4.1308874e-06 -5.492983e-20)
(0.2974855 1.7458128e-05 1.1039329e-18)
(0.29459172 3.8683858e-05 3.3365437e-18)
(0.28909673 4.8547632e-05 8.8379307e-19)
(0.28195055 5.0363354e-05 2.2251528e-19)
(0.27352799 4.6017492e-05 -7.0809898e-19)
(0.26379222 3.8142544e-05 2.59458e-19)
(0.25230767 2.8643268e-05 -4.1202846e-19)
(0.23801799 1.8901375e-05 -2.6328e-19)
(0.21837591 1.0409697e-05 -1.6059846e-19)
(0.18401874 3.6942114e-06 -6.3874377e-20)
(0.29677297 1.5927661e-05 2.7187266e-19)
(0.29401401 3.5577353e-05 2.611617e-18)
(0.28872213 4.4815966e-05 1.4139241e-18)
(0.28176414 4.649751e-05 -2.0363087e-19)
(0.27349055 4.2345425e-05 -2.9057923e-20)
(0.26386388 3.4881847e-05 8.9369953e-20)
(0.2524524 2.596896e-05 1.9367053e-20)
(0.23820262 1.6951087e-05 2.9554235e-20)
(0.21856814 9.2194392e-06 -4.4477334e-20)
(0.1841859 3.229692e-06 -1.6525879e-20)
(0.29612454 1.4331083e-05 -3.4804948e-18)
(0.29348545 3.2222778e-05 -1.9555304e-18)
(0.28837838 4.0719277e-05 -9.1453477e-19)
(0.28159493 4.2238644e-05 -1.1407608e-18)
(0.27346019 3.8325913e-05 -6.1503236e-19)
(0.26393414 3.1354497e-05 -4.600034e-19)
(0.25258814 2.311602e-05 2.7357671e-19)
(0.23837163 1.4900881e-05 1.3076561e-19)
(0.21873982 7.9853703e-06 1.728814e-19)
(0.18433103 2.7540532e-06 1.3347546e-19)
(0.2955425 1.2735024e-05 2.8769682e-18)
(0.29300909 2.8786772e-05 1.0450211e-19)
(0.28806811 3.6459514e-05 -8.2782882e-19)
(0.28144417 3.7782928e-05 1.2676702e-18)
(0.27343688 3.4128021e-05 1.3726364e-18)
(0.26400216 2.7696773e-05 7.7956568e-19)
(0.25271369 2.018778e-05 3.3473574e-19)
(0.23852381 1.2822005e-05 1.6887749e-19)
(0.21889016 6.7494867e-06 1.2586649e-19)
(0.18445393 2.2832027e-06 -3.7241521e-20)
(0.29502663 1.1184678e-05 2.3529338e-18)
(0.29258579 2.5388994e-05 9.3007612e-19)
(0.28779259 3.2192487e-05 6.3864697e-19)
(0.28131255 3.329075e-05 3.8361722e-19)
(0.27342053 2.9895987e-05 4.9668375e-19)
(0.26406734 2.4028171e-05 1.736711e-19)
(0.25282826 1.7276052e-05 2.1221523e-19)
(0.23865856 1.0777739e-05 2.3423653e-19)
(0.21901903 5.5487506e-06 1.2082766e-21)
(0.18455512 1.8309714e-06 1.761613e-20)
(0.29457491 9.7098478e-06 2.0892064e-18)
(0.29221473 2.211288e-05 4.6152007e-18)
(0.2875519 2.8034307e-05 2.4962155e-18)
(0.28120014 2.8888074e-05 1.0281059e-18)
(0.27341091 2.5747344e-05 -3.5454547e-19)
(0.26412921 2.0448119e-05 -2.0930095e-20)
(0.25293145 1.4457699e-05 -2.9615403e-19)
(0.23877583 8.8206433e-06 -1.1772005e-19)
(0.21912696 4.4133346e-06 6.8130961e-21)
(0.1846357 1.4084389e-06 9.0496994e-20)
(0.29418416 8.3292854e-06 4.4626768e-18)
(0.29189391 1.9014417e-05 5.7506993e-18)
(0.28734518 2.4068186e-05 4.2771235e-18)
(0.28110652 2.4669719e-05 3.5748078e-18)
(0.27340762 2.1773417e-05 2.409939e-18)
(0.26418745 1.7035004e-05 1.3754699e-18)
(0.25302316 1.1793205e-05 4.3691886e-19)
(0.238876 6.9913341e-06 7.0879688e-20)
(0.21921495 3.3658451e-06 1.3866662e-19)
(0.1846972 1.0236051e-06 -8.532217e-20)
(0.2938504 7.0538658e-06 2.7738325e-18)
(0.2916205 1.6129115e-05 1.1526046e-18)
(0.28717087 2.0350906e-05 4.2674621e-18)
(0.2810308 2.0703648e-05 2.7046356e-18)
(0.27341012 1.8041507e-05 2.0593172e-18)
(0.26424178 1.3847029e-05 1.5957065e-18)
(0.25310354 9.3269451e-06 1.1622067e-18)
(0.23895979 5.3186474e-06 5.6506363e-19)
(0.21928439 2.4215216e-06 4.1039679e-19)
(0.18474148 6.8153582e-07 1.1428892e-19)
(0.29356924 5.8887976e-06 2.0560608e-18)
(0.29139115 1.3477272e-05 7.8328203e-19)
(0.28702688 1.6918388e-05 1.6729181e-18)
(0.28097178 1.7035335e-05 2.0558397e-18)
(0.27341773 1.459778e-05 2.3412067e-18)
(0.26429201 1.0924022e-05 1.7365265e-18)
(0.25317295 7.0883839e-06 1.2410443e-18)
(0.23902822 3.8205242e-06 8.238224e-19)
(0.21933694 1.5888587e-06 4.3986169e-19)
(0.18477055 3.8463054e-07 2.3999093e-19)
(0.29333605 4.8353202e-06 1.3350465e-18)
(0.29120215 1.1068147e-05 2.4018757e-18)
(0.28691079 1.3790585e-05 2.3616654e-18)
(0.28092798 1.3692198e-05 4.4361736e-18)
(0.2734297 1.1470811e-05 3.967506e-18)
(0.264338 8.2902174e-06 2.051905e-18)
(0.25323191 5.0943209e-06 1.5133727e-18)
(0.23908249 2.5058405e-06 1.1097043e-18)
(0.2193744 8.7099978e-07 6.3679495e-19)
(0.18478651 1.3329175e-07 4.6143261e-19)
(0.29314617 3.8918036e-06 7.1642409e-19)
(0.29104968 8.9028712e-06 1.7353739e-18)
(0.28681997 1.0975171e-05 3.37614e-18)
(0.28089782 1.0687159e-05 3.9579616e-18)
(0.27344523 8.67456e-06 2.9996586e-18)
(0.26437968 5.9565782e-06 2.2416391e-18)
(0.25328105 3.350506e-06 1.5196492e-18)
(0.23912394 1.37527e-06 1.2217992e-18)
(0.21939866 2.7167317e-07 8.3404517e-19)
(0.18479142 -6.9723587e-08 6.1891008e-19)
(0.29299497 3.0545057e-06 -5.290429e-19)
(0.29092989 6.9764243e-06 8.3302811e-19)
(0.2867517 8.4700962e-06 8.2126352e-19)
(0.2808796 8.0211589e-06 1.2561165e-18)
(0.2734635 6.2104397e-06 1.7729702e-18)
(0.26441702 3.9224511e-06 1.5928039e-18)
(0.2533211 1.8538045e-06 1.4785875e-18)
(0.23915394 4.2858412e-07 1.0732981e-18)
(0.21941124 -2.1399815e-07 7.0321562e-19)
(0.18478766 -2.2847196e-07 4.551117e-19)
(0.29287801 2.3182675e-06 2.6699046e-18)
(0.29083901 5.2795146e-06 1.5019479e-18)
(0.28670328 6.2663048e-06 2.6676069e-18)
(0.28087166 5.6862792e-06 1.5699078e-18)
(0.27348375 4.0706609e-06 5.7577034e-19)
(0.26445005 2.1797e-06 1.3461561e-18)
(0.25335276 5.9953908e-07 1.5264477e-18)
(0.23917357 -3.432012e-07 1.2257695e-18)
(0.21941461 -6.0425972e-07 1.0525507e-18)
(0.18477677 -3.539684e-07 6.2299196e-19)
(0.29279107 1.677134e-06 1.9754226e-18)
(0.29077342 3.8002534e-06 8.8561808e-19)
(0.28667207 4.3502805e-06 1.4694561e-18)
(0.28087235 3.6690138e-06 1.4762993e-18)
(0.27350524 2.242536e-06 9.8968121e-19)
(0.2644788 7.1916971e-07 1.4110152e-18)
(0.25337661 -4.2669286e-07 1.5086396e-18)
(0.23918485 -9.6313977e-07 1.4129235e-18)
(0.21941035 -9.1293158e-07 1.165382e-18)
(0.18476023 -4.5096988e-07 8.2210206e-19)
(0.29273016 1.1247012e-06 1.4941978e-18)
(0.29072969 2.5251111e-06 2.550454e-18)
(0.28665555 2.7056477e-06 2.21143e-18)
(0.28088012 1.9529583e-06 3.6062683e-18)
(0.27352726 7.1276632e-07 3.0418375e-18)
(0.2645032 -4.7801871e-07 1.6669866e-18)
(0.25339402 -1.2528642e-06 1.5169487e-18)
(0.23918904 -1.4507489e-06 1.3126341e-18)
(0.21939992 -1.1467608e-06 1.1938478e-18)
(0.18473942 -5.2117517e-07 9.7923051e-19)
(0.29269156 6.5438299e-07 1.255115e-18)
(0.29070461 1.4399561e-06 2.6914428e-18)
(0.28665135 1.3158416e-06 3.5451455e-18)
(0.28089346 5.222383e-07 3.3965232e-18)
(0.27354903 -5.4116558e-07 2.8487197e-18)
(0.26452391 -1.4433738e-06 2.0828488e-18)
(0.25340578 -1.9033852e-06 1.7636545e-18)
(0.23918732 -1.8190954e-06 1.4064855e-18)
(0.21938465 -1.3127683e-06 1.2984927e-18)
(0.18471558 -5.6709744e-07 1.0146737e-18)
(0.29267184 2.6005125e-07 -6.0981005e-19)
(0.29069516 5.317351e-07 7.5011887e-19)
(0.28665718 1.6351729e-07 5.7101736e-19)
(0.28091092 -6.4872966e-07 2.2183591e-20)
(0.2735705 -1.5529111e-06 1.7008981e-18)
(0.26454118 -2.2046214e-06 2.1259928e-18)
(0.25341265 -2.3961765e-06 1.8347507e-18)
(0.23918076 -2.0810109e-06 1.6313735e-18)
(0.21936575 -1.4193214e-06 1.237369e-18)
(0.18468981 -5.9197051e-07 1.0157667e-18)
(0.29266781 -6.4794954e-08 1.4868829e-18)
(0.29069855 -2.1541272e-07 2.5583992e-18)
(0.28667104 -7.7648321e-07 2.4049794e-18)
(0.28093162 -1.5927274e-06 4.5154205e-19)
(0.27359125 -2.3510379e-06 1.1391149e-18)
(0.26455525 -2.7828809e-06 2.384898e-18)
(0.25341534 -2.7487314e-06 1.8841699e-18)
(0.23917037 -2.2501558e-06 1.7674864e-18)
(0.21934428 -1.4751718e-06 1.6164149e-18)
(0.18466302 -5.9918421e-07 1.1973011e-18)
(0.29267659 -3.2817227e-07 2.2893322e-18)
(0.29071234 -8.2070184e-07 3.2995716e-18)
(0.28669128 -1.5305999e-06 2.4460994e-18)
(0.28095455 -2.3351503e-06 2.245204e-18)
(0.27361097 -2.9576689e-06 1.9713355e-18)
(0.26456636 -3.1987764e-06 2.3354694e-18)
(0.25341451 -2.9790803e-06 2.043991e-18)
(0.23915705 -2.340123e-06 1.6956741e-18)
(0.21932118 -1.4887111e-06 1.6516894e-18)
(0.184636 -5.9195099e-07 1.236124e-18)
(0.29269569 -5.3749121e-07 1.2019478e-18)
(0.29073441 -1.3005804e-06 2.6119629e-18)
(0.28671635 -2.1189525e-06 2.2906563e-18)
(0.28097884 -2.897463e-06 2.841649e-18)
(0.27362941 -3.3947419e-06 1.8216885e-18)
(0.26457479 -3.4730984e-06 2.1257934e-18)
(0.2534108 -3.1048452e-06 2.0291866e-18)
(0.2391416 -2.3638088e-06 1.8503185e-18)
(0.21929722 -1.46774e-06 1.5304784e-18)
(0.18460937 -5.7324254e-07 1.2975039e-18)
(0.29272287 -6.9866701e-07 5.1543339e-19)
(0.29076283 -1.6687577e-06 2.2699796e-18)
(0.28674487 -2.5598784e-06 1.9348808e-18)
(0.28100373 -3.3006953e-06 1.9512989e-18)
(0.27364641 -3.6838824e-06 1.0556225e-18)
(0.26458082 -3.6259036e-06 1.4822022e-18)
(0.25340479 -3.1426478e-06 1.7885759e-18)
(0.23912473 -2.333115e-06 1.8568316e-18)
(0.21927309 -1.4192875e-06 1.5170833e-18)
(0.18458363 -5.4567869e-07 1.3326751e-18)
(0.29275615 -8.1733918e-07 2.0469277e-18)
(0.2907959 -1.9382832e-06 1.3243461e-18)
(0.28677566 -2.8711424e-06 3.3893645e-18)
(0.28102859 -3.5652973e-06 1.9346995e-18)
(0.27366186 -3.845887e-06 2.4211656e-18)
(0.26458475 -3.6761816e-06 4.1466479e-19)
(0.25339701 -3.1079553e-06 1.081524e-18)
(0.23910704 -2.258918e-06 1.2907844e-18)
(0.21924931 -1.3496712e-06 1.2839746e-18)
(0.18455916 -5.1159436e-07 1.1899822e-18)
(0.29279379 -8.9882197e-07 3.2520498e-18)
(0.29083215 -2.1215548e-06 2.3325563e-18)
(0.28680768 -3.069734e-06 4.3385815e-18)
(0.28105291 -3.7107555e-06 2.1241659e-18)
(0.27367568 -3.9003548e-06 1.7003143e-18)
(0.26458684 -3.641564e-06 1.5194918e-18)
(0.25338792 -3.0148803e-06 1.191145e-18)
(0.23908904 -2.1509355e-06 1.3375219e-18)
(0.21922633 -1.2643888e-06 1.5445865e-18)
(0.18453625 -4.7295952e-07 1.1813323e-18)
(0.29283427 -9.4815621e-07 2.5985333e-18)
(0.29087027 -2.230345e-06 2.8577586e-18)
(0.28684006 -3.1717796e-06 -1.1637684e-19)
(0.28107628 -3.7554521e-06 1.6624102e-18)
(0.27368789 -3.8655817e-06 1.6537986e-18)
(0.26458738 -3.5382851e-06 2.2968157e-18)
(0.25337794 -2.8762039e-06 1.8416836e-18)
(0.23907117 -2.0178242e-06 1.6966266e-18)
(0.21920447 -1.1682756e-06 1.6070146e-18)
(0.18451509 -4.3150112e-07 1.2571817e-18)
(0.2928763 -9.7004074e-07 1.1259357e-18)
(0.29090918 -2.2756701e-06 1.665714e-18)
(0.28687209 -3.1923487e-06 1.1205248e-18)
(0.28109838 -3.716442e-06 2.2488745e-18)
(0.27369849 -3.7583355e-06 2.0075311e-18)
(0.26458661 -3.3809855e-06 2.0103953e-18)
(0.25336745 -2.70324e-06 2.0421314e-18)
(0.23905377 -1.8670829e-06 1.8007299e-18)
(0.21918399 -1.0654116e-06 1.6424653e-18)
(0.18449579 -3.8863123e-07 1.3450456e-18)
(0.29291876 -9.6887128e-07 -4.6425268e-19)
(0.29094797 -2.2678113e-06 1.6378215e-18)
(0.28690317 -3.1454358e-06 1.6308095e-18)
(0.28111898 -3.6094247e-06 1.8166832e-18)
(0.27370757 -3.5938641e-06 1.0857342e-18)
(0.2645848 -3.1827803e-06 1.9522419e-18)
(0.25335673 -2.5059496e-06 1.8628807e-18)
(0.23903712 -1.7051997e-06 1.6225869e-18)
(0.21916506 -9.5927771e-07 1.5042505e-18)
(0.18447843 -3.455485e-07 1.3264031e-18)
(0.29296073 -9.4867459e-07 1.07209e-19)
(0.29098588 -2.2162063e-06 3.0816135e-18)
(0.28693284 -3.0438263e-06 3.8702919e-18)
(0.28113792 -3.4486035e-06 1.8732631e-18)
(0.27371518 -3.3857656e-06 2.4507605e-18)
(0.26458215 -2.9551576e-06 1.0407308e-18)
(0.25334606 -2.29288e-06 1.4349012e-18)
(0.23902142 -1.537609e-06 1.4206525e-18)
(0.21914779 -8.5269963e-07 1.1565816e-18)
(0.18446301 -3.0318585e-07 1.1216222e-18)
(0.29300147 -9.131522e-07 3.3353879e-18)
(0.2910223 -2.1294931e-06 2.7607639e-18)
(0.28696076 -2.8991305e-06 5.8123919e-18)
(0.28115511 -3.246731e-06 2.8601089e-18)
(0.27372145 -3.1460743e-06 2.0529042e-18)
(0.26457887 -2.7081096e-06 1.7446248e-18)
(0.25333564 -2.0713193e-06 1.7270254e-18)
(0.23900683 -1.3688493e-06 1.7312505e-18)
(0.21913223 -7.4799694e-07 1.5101416e-18)
(0.18444948 -2.6230687e-07 1.1993503e-18)
(0.29304038 -8.6563336e-07 3.2122664e-18)
(0.29105677 -2.0154445e-06 1.2526688e-18)
(0.28698666 -2.7217215e-06 7.7076137e-19)
(0.28117051 -3.0150625e-06 2.1923664e-18)
(0.27372648 -2.8852316e-06 1.7532872e-18)
(0.26457515 -2.4501253e-06 2.2830969e-18)
(0.25332565 -1.8473063e-06 1.8388793e-18)
(0.23899344 -1.2025652e-06 1.7068927e-18)
(0.2191184 -6.4695321e-07 1.5960468e-18)
(0.18443778 -2.2346769e-07 1.2815089e-18)
(0.293077 -8.0911894e-07 1.0962572e-18)
(0.29108893 -1.8810298e-06 1.9203194e-18)
(0.28701038 -2.520806e-06 7.554328e-19)
(0.28118413 -2.7634518e-06 1.1323864e-18)
(0.27373038 -2.6122251e-06 1.6087952e-18)
(0.26457113 -2.1883632e-06 1.7143896e-18)
(0.2533162 -1.6258057e-06 1.684695e-18)
(0.23898132 -1.0416637e-06 1.693487e-18)
(0.21910626 -5.5094629e-07 1.5684972e-18)
(0.18442782 -1.8709248e-07 1.2304898e-18)
(0.293111 -7.4625139e-07 -5.2561804e-19)
(0.29111856 -1.7323866e-06 9.0803199e-19)
(0.28703182 -2.3044214e-06 -4.0006011e-19)
(0.281196 -2.5003792e-06 4.7146837e-19)
(0.27373329 -2.3346392e-06 9.0087104e-19)
(0.26456695 -1.9287127e-06 1.6229616e-18)
(0.25330741 -1.4107735e-06 1.7041822e-18)
(0.23897048 -8.8835823e-07 1.6578744e-18)
(0.21909576 -4.60944e-07 1.495328e-18)
(0.18441949 -1.5344317e-07 1.2784901e-18)
(0.29314216 -6.7937103e-07 8.9739972e-19)
(0.29114548 -1.5749136e-06 5.28358e-19)
(0.28705096 -2.0795563e-06 2.2307908e-18)
(0.28120619 -2.2331078e-06 2.0401858e-18)
(0.27373531 -2.0588499e-06 2.3043565e-18)
(0.26456273 -1.676015e-06 1.16511e-18)
(0.25329933 -1.2053683e-06 1.5120536e-18)
(0.23896092 -7.443528e-07 1.4519023e-18)
(0.21908682 -3.7766196e-07 1.3806738e-18)
(0.18441267 -1.227079e-07 1.2143354e-18)
(0.29317035 -6.1048845e-07 1.778849e-18)
(0.29116965 -1.4132533e-06 3.0178086e-18)
(0.28706781 -1.8521607e-06 4.478649e-18)
(0.28121479 -1.9677216e-06 2.7215399e-18)
(0.27373657 -1.7900766e-06 1.9499096e-18)
(0.26455857 -1.4341122e-06 1.821851e-18)
(0.253292 -1.0119941e-06 1.7272985e-18)
(0.2389526 -6.1085833e-07 1.6419385e-18)
(0.21907934 -3.015389e-07 1.6986404e-18)
(0.18440723 -9.4963286e-08 1.3276473e-18)
(0.29319551 -5.4133803e-07 2.0100357e-19)
(0.29119104 -1.2513818e-06 1.3483343e-18)
(0.28708243 -1.6272627e-06 -6.867466e-19)
(0.28122192 -1.7092673e-06 1.3021174e-18)
(0.27373718 -1.5325497e-06 1.9220137e-18)
(0.26455453 -1.2060266e-06 2.3296406e-18)
(0.25328544 -8.3246194e-07 1.9308704e-18)
(0.23894548 -4.8873318e-07 1.7930585e-18)
(0.21907322 -2.3285798e-07 1.5564373e-18)
(0.18440302 -7.0242619e-08 1.3148583e-18)
(0.29321767 -4.7334912e-07 1.0276447e-19)
(0.29120973 -1.0925849e-06 -5.2119424e-19)
(0.28709492 -1.4089624e-06 8.0172317e-19)
(0.28122768 -1.4617639e-06 2.0047737e-18)
(0.27373724 -1.2895168e-06 2.5542411e-18)
(0.26455069 -9.9394972e-07 2.5415632e-18)
(0.25327964 -6.6796647e-07 2.1661378e-18)
(0.23893948 -3.7843869e-07 1.8457379e-18)
(0.21906833 -1.7168626e-07 1.5759674e-18)
(0.18439993 -4.8497216e-08 1.2560325e-18)
(0.29323691 -4.0769826e-07 4.3764597e-19)
(0.29122579 -9.3954494e-07 4.5388361e-19)
(0.28710541 -1.2005403e-06 8.2576945e-19)
(0.28123221 -1.2283272e-06 1.5750037e-18)
(0.27373685 -1.0633779e-06 1.2329817e-18)
(0.26454708 -7.9937944e-07 2.1225527e-18)
(0.25327459 -5.192049e-07 1.9904397e-18)
(0.23893453 -2.8013623e-07 1.7085108e-18)
(0.21906456 -1.1795378e-07 1.5926606e-18)
(0.1843978 -2.9645771e-08 1.387184e-18)
(0.29325334 -3.4529785e-07 3.126929e-18)
(0.29123938 -7.9433805e-07 3.8349046e-18)
(0.28711403 -1.0044689e-06 3.7353443e-18)
(0.28123563 -1.0111911e-06 2.3021575e-18)
(0.2737361 -8.557039e-07 1.8715456e-18)
(0.26454375 -6.2312103e-07 6.8438946e-19)
(0.25327027 -3.8635821e-07 1.3918903e-18)
(0.23893054 -1.9365048e-07 1.5349287e-18)
(0.21906179 -7.1408836e-08 1.4202388e-18)
(0.18439652 -1.3548443e-08 1.335802e-18)
(0.29326714 -2.868386e-07 2.5812918e-18)