/*--------------------------------*- C++ -*----------------------------------*\
| =========                 |                                                 |
| \\      /  F ield         | OpenFOAM: The Open Source CFD Toolbox           |
|  \\    /   O peration     | Version:  2506                                  |
|   \\  /    A nd           | Website:  www.openfoam.com                      |
|    \\/     M anipulation  |                                                 |
\*---------------------------------------------------------------------------*/
FoamFile
{
    version     2.0;
    format      ascii;
    arch        "LSB;label=32;scalar=64";
    class       volScalarField;
    location    "8000/water";
    object      alphat;
}
// * * * * * * * * * * * * * * * * * * * * * * * * * * * * * * * * * * * * * //

dimensions      [1 -1 -1 0 0 0 0];

internalField   nonuniform List<scalar> 
1000
(
0.038690245
0.038689577
0.038688046
0.038679676
0.038634252
0.038395956
0.037190881
0.031863289
0.019099263
0.016301307
0.036437656
0.036436968
0.036430539
0.036397696
0.036243742
0.035561449
0.032798674
0.024476363
0.01464426
0.017654592
0.034756095
0.034752687
0.034735392
0.034658264
0.034338315
0.03309604
0.028914309
0.020078483
0.014287351
0.017671293
0.033455039
0.033447371
0.03341324
0.03327659
0.032760734
0.030940119
0.02576996
0.018272109
0.015952088
0.01730153
0.032418332
0.032405139
0.032350677
0.032150526
0.031437441
0.029070445
0.02355637
0.018636216
0.018861813
0.016925718
0.031571667
0.031552637
0.031479594
0.031226155
0.0303281
0.027485268
0.022555219
0.020803901
0.022279009
0.016666262
0.030866454
0.030843487
0.030761487
0.030477908
0.029401968
0.026291989
0.023061671
0.024243843
0.025541361
0.016525216
0.03027085
0.030249443
0.030178139
0.029894415
0.028644094
0.025787063
0.025138198
0.028280476
0.02830502
0.016463214
0.029764732
0.029755535
0.029725652
0.029468569
0.028106909
0.026356907
0.028508291
0.032334649
0.030519332
0.016442694
0.029337064
0.029357532
0.029409773
0.029196725
0.027980961
0.028237255
0.032681298
0.036080848
0.03226772
0.016440715
0.028984755
0.02906065
0.029241381
0.029099659
0.028583503
0.031374971
0.037164739
0.039413782
0.033659283
0.01644641
0.028712553
0.028878726
0.029233236
0.029270513
0.030215307
0.035478467
0.041608713
0.042341682
0.03478783
0.016455614
0.028533649
0.028833123
0.029403522
0.029913165
0.033002806
0.04016136
0.045828108
0.044910637
0.035723456
0.016467076
0.028470745
0.028951018
0.029795848
0.031304081
0.036852279
0.045075484
0.049751618
0.04717239
0.036515447
0.016480529
0.028557135
0.029264123
0.030516318
0.033676155
0.041512151
0.049977108
0.05336579
0.049174077
0.037197846
0.016495915
0.028837274
0.0298124
0.031757698
0.037114279
0.046676347
0.054726
0.056681737
0.050955491
0.037793722
0.016513135
0.029366576
0.030660557
0.03376454
0.041531123
0.052070912
0.059252715
0.059719463
0.052547729
0.038312884
0.016531933
0.03021212
0.031927893
0.036741562
0.046714389
0.057495063
0.063527068
0.062500566
0.053971433
0.038771672
0.016552019
0.031460056
0.033807634
0.040768764
0.05240305
0.062820307
0.067538713
0.065043785
0.0552499
0.039180757
0.016573199
0.033236672
0.03653706
0.045775117
0.058353658
0.067969901
0.071287064
0.067367613
0.056402502
0.039547884
0.016595308
0.035734455
0.040316014
0.051570878
0.064374906
0.072897692
0.07477279
0.069492383
0.057443931
0.039878955
0.016618165
0.039205336
0.04522453
0.057909313
0.070330437
0.077571518
0.078005727
0.071434881
0.058386009
0.040178258
0.016641577
0.043887358
0.051189564
0.064545042
0.076123303
0.081973223
0.080996826
0.073208745
0.059238045
0.04044891
0.016665345
0.049891082
0.058008415
0.071266987
0.081682209
0.086094026
0.08375462
0.07482463
0.060007038
0.04069308
0.016689269
0.057118737
0.065403152
0.0779049
0.086956838
0.089927279
0.086284676
0.076289999
0.0606978
0.040912084
0.016713142
0.065266416
0.073075598
0.084332091
0.091909608
0.093464611
0.088589047
0.077609106
0.06131309
0.041106459
0.016736746
0.073905328
0.080753507
0.090453826
0.096507239
0.096695669
0.090666447
0.0787833
0.061853866
0.041276076
0.016759839
0.082591932
0.088206997
0.096193659
0.10072071
0.099609175
0.092513215
0.079811738
0.062319731
0.04142032
0.016782159
0.090953501
0.095254168
0.10149053
0.10452657
0.10219496
0.094124968
0.080692503
0.062709565
0.041538356
0.016803423
0.098726149
0.10176193
0.1062989
0.10790884
0.10444636
0.095498596
0.081423971
0.063022309
0.041629439
0.016823346
0.10575363
0.107644
0.11058969
0.11086057
0.10636225
0.096634145
0.082006189
0.063257771
0.041693236
0.016841655
0.11196619
0.112856
0.11435062
0.11338465
0.10794834
0.097536195
0.082441979
0.063417301
0.0417301
0.016858116
0.11735502
0.11738846
0.1175854
0.1154936
0.10921745
0.098214471
0.08273757
0.063504219
0.041741234
0.016872552
0.12195038
0.1212586
0.12031161
0.11720846
0.11018889
0.098683685
0.08290267
0.063523913
0.04172873
0.016884861
0.12580538
0.12450245
0.12255793
0.11855715
0.11088725
0.098962756
0.082950042
0.06348362
0.041695452
0.016895017
0.12898503
0.12716814
0.12436108
0.11957247
0.11134083
0.099073646
0.082894734
0.063391972
0.04164484
0.016903075
0.13155917
0.12931041
0.12576282
0.12029021
0.11158003
0.099040074
0.082753138
0.063258414
0.041580636
0.016909152
0.13359807
0.13098669
0.12680744
0.12074742
0.11163592
0.09888628
0.082542065
0.063092614
0.04150663
0.016913417
0.13516967
0.13225423
0.12753964
0.12098092
0.11153904
0.098635989
0.082277927
0.06290394
0.041426429
0.016916074
0.13633803
0.13316817
0.12800306
0.12102622
0.11131844
0.098311599
0.081976096
0.062701055
0.041343298
0.016917344
0.13716237
0.13378034
0.1282391
0.12091672
0.11100104
0.097933609
0.081650453
0.062491631
0.041260044
0.016917453
0.13769667
0.13413853
0.12828619
0.12068315
0.11061121
0.09752026
0.081313109
0.062282189
0.041178964
0.01691662
0.1379895
0.13428611
0.12817941
0.12035324
0.11017056
0.097087354
0.080974279
0.062078037
0.041101838
0.016915049
0.13808412
0.13426191
0.12795024
0.11995162
0.10969782
0.096648224
0.080642283
0.061883292
0.041029941
0.016912923
0.13801869
0.13410036
0.12762659
0.11949981
0.10920895
0.096213791
0.080323546
0.061700701
0.040963025
0.016910389
0.13782661
0.13383164
0.12723288
0.11901633
0.10871722
0.095792679
0.080022633
0.061531296
0.040902207
0.016907574
0.13753691
0.13348202
0.12679025
0.11851689
0.10823341
0.095391319
0.07974207
0.061377149
0.040847949
0.016904601
0.13717464
0.13307416
0.12631679
0.11801452
0.1077659
0.095013883
0.079484999
0.061239077
0.040800427
0.016901575
0.13676121
0.13262736
0.12582767
0.11751969
0.10732067
0.094664703
0.079252912
0.06111733
0.040759578
0.016898581
0.13631471
0.1321578
0.12533519
0.11704038
0.10690346
0.094346224
0.079046377
0.061011692
0.040725144
0.016895683
0.13585004
0.13167862
0.12484945
0.11658395
0.10651798
0.094059657
0.078865219
0.060921556
0.040696724
0.016892931
0.13537949
0.131201
0.12437917
0.11615563
0.10616647
0.093805238
0.078708676
0.060846024
0.040673818
0.016890358
0.13491339
0.13073419
0.12393105
0.11575907
0.10585004
0.093582434
0.07857555
0.060784012
0.04065588
0.016887986
0.13446015
0.13028552
0.12351009
0.11539661
0.10556886
0.093390136
0.078464357
0.060734335
0.040642356
0.016885826
0.13402642
0.12986066
0.12311988
0.11506948
0.10532235
0.093226817
0.07837343
0.060695774
0.040632711
0.016883885
0.13361733
0.12946383
0.12276279
0.11477804
0.10510938
0.093090649
0.078301
0.060667113
0.040626437
0.016882164
0.13323665
0.129098
0.12244014
0.11452188
0.10492833
0.092979577
0.078245235
0.060647158
0.040623055
0.016880657
0.13288697
0.12876501
0.12215235
0.11429995
0.10477723
0.092891384
0.078204278
0.060634739
0.040622106
0.016879358
0.13256979
0.12846572
0.12189904
0.11411066
0.10465378
0.092823754
0.07817628
0.060628729
0.040623158
0.016878256
0.13228571
0.12820017
0.1216792
0.11395203
0.10455555
0.092774343
0.078159442
0.060628065
0.040625812
0.016877337
0.13203455
0.12796771
0.12149131
0.11382179
0.10447999
0.092740852
0.078152065
0.060631767
0.040629709
0.016876586
0.13181553
0.12776715
0.12133349
0.11371752
0.10442457
0.092721089
0.078152576
0.060638959
0.040634536
0.016875987
0.13162737
0.12759689
0.12120361
0.11363672
0.10438682
0.092713
0.078159551
0.060648867
0.040640031
0.016875524
0.13146842
0.12745503
0.12109937
0.11357689
0.10436439
0.092714681
0.078171705
0.060660816
0.040645971
0.016875184
0.1313368
0.12733948
0.12101839
0.11353555
0.10435503
0.092724374
0.078187881
0.060674209
0.040652164
0.016874952
0.13123037
0.12724795
0.12095822
0.11351029
0.10435662
0.092740461
0.078207037
0.060688521
0.040658441
0.016874813
0.1311469
0.12717811
0.12091642
0.11349875
0.10436717
0.092761466
0.078228243
0.060703291
0.040664658
0.016874753
0.13108403
0.12712753
0.12089058
0.11349874
0.10438485
0.092786067
0.078250687
0.060718126
0.040670693
0.016874761
0.13103942
0.12709385
0.12087839
0.11350817
0.10440801
0.092813107
0.078273681
0.060732706
0.04067645
0.016874822
0.13101075
0.12707477
0.12087767
0.11352519
0.10443522
0.092841601
0.078296659
0.06074678
0.040681864
0.016874926
0.1309958
0.1270681
0.12088642
0.11354811
0.10446519
0.092870722
0.078319169
0.060760162
0.040686891
0.016875064
0.13099248
0.1270718
0.12090281
0.11357542
0.10449687
0.092899786
0.07834085
0.060772704
0.040691458
0.016875226
0.13099882
0.127084
0.12092515
0.11360582
0.10452929
0.092928217
0.078361404
0.060784261
0.040695549
0.016875405
0.131013
0.12710294
0.12095195
0.11363813
0.10456168
0.092955533
0.078380568
0.060794765
0.040699188
0.016875593
0.13103333
0.12712703
0.12098185
0.11367133
0.10459333
0.092981321
0.078398172
0.060804205
0.040702387
0.016875786
0.13105826
0.12715482
0.12101364
0.11370453
0.10462367
0.093005275
0.078414142
0.06081257
0.040705158
0.016875979
0.13108642
0.12718504
0.12104629
0.11373698
0.10465225
0.093027234
0.078428427
0.060819875
0.040707519
0.016876167
0.1311166
0.12721658
0.12107888
0.1137681
0.1046788
0.093047094
0.078441027
0.060826153
0.040709492
0.016876348
0.13114778
0.1272485
0.12111076
0.11379749
0.10470315
0.093064824
0.078451989
0.060831464
0.040711108
0.016876519
0.13117912
0.12728009
0.12114141
0.1138249
0.1047252
0.093080461
0.078461396
0.060835883
0.040712403
0.016876678
0.13121
0.1273108
0.12117046
0.11385014
0.10474495
0.093094086
0.078469357
0.060839495
0.040713416
0.016876824
0.13123991
0.1273402
0.12119765
0.11387313
0.10476244
0.093105808
0.07847599
0.060842386
0.040714187
0.016876958
0.13126845
0.12736797
0.12122279
0.11389382
0.10477773
0.093115743
0.078481408
0.060844636
0.040714748
0.01687708
0.13129531
0.12739383
0.12124572
0.1139122
0.1047909
0.093124005
0.078485718
0.060846313
0.040715127
0.016877189
0.13132021
0.12741759
0.12126636
0.11392827
0.10480204
0.093130703
0.078489014
0.060847475
0.040715342
0.016877285
0.13134295
0.12743909
0.12128464
0.11394208
0.10481124
0.09313595
0.078491387
0.060848176
0.04071541
0.016877368
0.13136341
0.12745823
0.12130057
0.11395372
0.10481864
0.093139874
0.078492935
0.060848469
0.040715345
0.016877438
0.13138153
0.12747503
0.12131421
0.11396331
0.10482438
0.093142617
0.078493763
0.060848412
0.040715169
0.016877496
0.13139736
0.12748955
0.12132571
0.11397104
0.10482866
0.093144346
0.07849399
0.060848073
0.040714904
0.016877542
0.13141103
0.12750195
0.12133525
0.11397712
0.10483169
0.093145235
0.078493739
0.060847523
0.040714579
0.016877577
0.13142273
0.12751242
0.12134306
0.11398177
0.10483367
0.093145454
0.078493129
0.060846828
0.040714223
0.016877605
0.13143267
0.12752119
0.12134935
0.11398523
0.1048348
0.093145156
0.078492265
0.060846048
0.040713857
0.016877625
0.13144105
0.12752845
0.12135432
0.11398766
0.10483525
0.093144459
0.078491222
0.060845223
0.040713498
0.01687764
0.13144802
0.12753436
0.12135813
0.11398921
0.10483512
0.09314345
0.078490054
0.060844377
0.040713151
0.01687765
0.13145371
0.12753905
0.12136091
0.11399001
0.1048345
0.09314219
0.078488793
0.060843522
0.040712815
0.016877657
0.1314582
0.12754262
0.12136276
0.11399013
0.10483348
0.093140725
0.078487464
0.060842662
0.040712488
0.016877659
0.13146158
0.12754516
0.12136377
0.11398968
0.10483212
0.093139107
0.078486092
0.060841806
0.040712166
0.016877657
0.13146394
0.12754678
0.12136407
0.11398876
0.10483051
0.093137392
0.07848471
0.060840969
0.040711854
0.016877652
0.13146542
0.12754761
0.12136378
0.11398748
0.10482874
0.093135649
0.07848336
0.06084017
0.040711558
0.016877644
0.13146617
0.12754781
0.12136304
0.11398597
0.10482691
0.093133945
0.078482084
0.060839431
0.040711288
0.016877634
)
;

boundaryField
{
    water_inlet
    {
        type            calculated;
        value           uniform 0.041850807;
    }
    water_outlet
    {
        type            calculated;
        value           nonuniform List<scalar> 10(0.13146617 0.12754781 0.12136304 0.11398597 0.10482691 0.093133945 0.078482084 0.060839431 0.040711288 0.016877634);
    }
    water_wedge1
    {
        type            wedge;
    }
    water_wedge2
    {
        type            wedge;
    }
    water_to_rock
    {
        type            compressible::alphatWallFunction;
        value           nonuniform List<scalar> 
100
(
0.0020384971
0.0022594581
0.0022621707
0.0022020356
0.0021407409
0.0020983179
0.0020752199
0.002065058
0.0020616933
0.0020613683
0.0020623022
0.0020638118
0.002065691
0.0020678961
0.0020704177
0.00207324
0.0020763208
0.0020796122
0.0020830819
0.0020867025
0.0020904449
0.0020942777
0.0020981686
0.0021020845
0.0021059913
0.0021098529
0.00211363
0.0021172798
0.0021207564
0.0021240132
0.002127006
0.0021296965
0.0021320557
0.002134067
0.0021357265
0.0021370428
0.0021380354
0.002138732
0.002139166
0.0021393736
0.0021393916
0.0021392556
0.002138999
0.0021386516
0.0021382375
0.0021377774
0.0021372917
0.0021367974
0.0021363084
0.0021358352
0.0021353856
0.002134965
0.0021345771
0.0021342241
0.002133907
0.0021336259
0.00213338
0.0021331679
0.0021329878
0.0021328375
0.0021327146
0.0021326167
0.0021325412
0.0021324858
0.0021324479
0.0021324253
0.0021324156
0.0021324167
0.0021324266
0.0021324437
0.0021324663
0.0021324929
0.0021325221
0.0021325529
0.0021325843
0.0021326156
0.0021326462
0.0021326756
0.0021327035
0.0021327296
0.0021327538
0.0021327759
0.0021327958
0.0021328136
0.0021328292
0.0021328425
0.0021328538
0.0021328631
0.0021328708
0.0021328769
0.0021328817
0.0021328854
0.002132888
0.0021328897
0.0021328906
0.0021328908
0.0021328904
0.0021328894
0.0021328882
0.0021328867
)
;
    }
}


// ************************************************************************* //
