/*--------------------------------*- C++ -*----------------------------------*\
| =========                 |                                                 |
| \\      /  F ield         | OpenFOAM: The Open Source CFD Toolbox           |
|  \\    /   O peration     | Version:  2506                                  |
|   \\  /    A nd           | Website:  www.openfoam.com                      |
|    \\/     M anipulation  |                                                 |
\*---------------------------------------------------------------------------*/
FoamFile
{
    version     2.0;
    format      ascii;
    arch        "LSB;label=32;scalar=64";
    class       volScalarField;
    location    "8000/water";
    object      epsilon;
}
// * * * * * * * * * * * * * * * * * * * * * * * * * * * * * * * * * * * * * //

dimensions      [0 2 -3 0 0 0 0];

internalField   nonuniform List<scalar> 
1000
(
7.2399316e-05
7.2397808e-05
7.2397502e-05
7.2398682e-05
7.2424146e-05
7.2686938e-05
7.4736184e-05
8.8973295e-05
0.00019794853
0.0013048048
4.7739543e-05
4.7745807e-05
4.7746167e-05
4.7748745e-05
4.7810065e-05
4.8371229e-05
5.2145896e-05
7.5319315e-05
0.00023607336
0.0016574915
3.3261229e-05
3.326441e-05
3.3263962e-05
3.3272039e-05
3.3396639e-05
3.4348945e-05
3.997317e-05
7.150224e-05
0.00026550035
0.0016622
2.4212884e-05
2.4213778e-05
2.421353e-05
2.4236018e-05
2.4468828e-05
2.5979962e-05
3.4086683e-05
7.6375203e-05
0.00030233575
0.0015600258
1.8263229e-05
1.8263302e-05
1.8265922e-05
1.8318446e-05
1.873072e-05
2.1090698e-05
3.2935451e-05
9.042255e-05
0.00035053405
0.0014605593
1.4183053e-05
1.4183388e-05
1.4193787e-05
1.4301413e-05
1.5003315e-05
1.8678129e-05
3.6167813e-05
0.0001133765
0.00040230372
0.0013944154
1.1285033e-05
1.1287109e-05
1.1313191e-05
1.1514088e-05
1.2672054e-05
1.8360647e-05
4.3854107e-05
0.00014255055
0.00044702323
0.0013593128
9.1651308e-06
9.1712238e-06
9.2251473e-06
9.5765187e-06
1.1437679e-05
2.0107234e-05
5.5828253e-05
0.0001732286
0.00047957541
0.0013440706
7.5754963e-06
7.5890768e-06
7.6892455e-06
8.2761056e-06
1.1198224e-05
2.4041239e-05
7.1186903e-05
0.00020099001
0.00050080676
0.0013390503
6.3585386e-06
6.3848727e-06
6.5589457e-06
7.5064238e-06
1.198453e-05
3.0236086e-05
8.8277186e-05
0.00022355867
0.00051392974
0.0013385659
5.4111024e-06
5.4581714e-06
5.7474936e-06
7.23693e-06
1.3906675e-05
3.8515408e-05
0.00010524298
0.00024078272
0.00052197872
0.0013399578
4.6642397e-06
4.7441298e-06
5.2100517e-06
7.4969437e-06
1.7087003e-05
4.835555e-05
0.00012068231
0.00025359529
0.00052708053
0.0013422095
4.0714677e-06
4.2024396e-06
4.9349783e-06
8.3622566e-06
2.1575453e-05
5.8975497e-05
0.00013393056
0.00026313405
0.00053055265
0.0013450163
3.6019034e-06
3.811412e-06
4.9402383e-06
9.9350965e-06
2.7272195e-05
6.9567061e-05
0.00014492622
0.0002703542
0.00053316256
0.001348315
3.2363928e-06
3.5653583e-06
5.2715405e-06
1.2311421e-05
3.3901661e-05
7.951067e-05
0.00015392438
0.00027595615
0.00053534057
0.0013520943
2.9656636e-06
3.4742202e-06
5.9983916e-06
1.5537461e-05
4.1062708e-05
8.8460967e-05
0.00016127353
0.00028042529
0.00053731652
0.0013563334
2.7900123e-06
3.5645484e-06
7.2040472e-06
1.9569935e-05
4.8330055e-05
9.6307028e-05
0.00016730377
0.00028408917
0.00053917773
0.0013609717
2.7202646e-06
3.8804101e-06
8.9663668e-06
2.4261403e-05
5.5350021e-05
0.00010308382
0.00017229237
0.00028715801
0.00054093721
0.0013659394
2.779738e-06
4.4819556e-06
1.1330774e-05
2.9383023e-05
6.1887481e-05
0.00010889376
0.00017645204
0.00028975398
0.00054267277
0.0013711901
3.0065668e-06
5.4386854e-06
1.428357e-05
3.4675005e-05
6.7820832e-05
0.00011385659
0.00017993852
0.00029198034
0.00054443438
0.0013766841
3.4547916e-06
6.8148391e-06
1.7738578e-05
3.989968e-05
7.3111806e-05
0.00011808665
0.0001828538
0.0002939414
0.00054623624
0.0013823794
4.1911534e-06
8.6475834e-06
2.1546188e-05
4.4874672e-05
7.7769112e-05
0.00012165872
0.00018531778
0.00029569727
0.00054807357
0.0013882297
5.283594e-06
1.0924843e-05
2.5521696e-05
4.9478001e-05
8.1803631e-05
0.00012466935
0.00018741275
0.0002972839
0.00054993252
0.0013941868
6.7799311e-06
1.3574404e-05
2.9480232e-05
5.3622543e-05
8.5253108e-05
0.0001271993
0.0001891952
0.00029872107
0.00055179409
0.0014002008
8.6832502e-06
1.6474055e-05
3.3249987e-05
5.7259529e-05
8.8167065e-05
0.00012930775
0.00019070235
0.00030001694
0.00055363553
0.0014062191
1.0937842e-05
1.9464226e-05
3.6694123e-05
6.0377191e-05
9.0586636e-05
0.00013103657
0.00019195683
0.00030117081
0.00055543079
0.0014121858
1.3423297e-05
2.2384334e-05
3.9726972e-05
6.2977878e-05
9.2544791e-05
0.00013241424
0.00019297027
0.00030217532
0.00055715094
0.001418039
1.5988144e-05
2.5103517e-05
4.2303162e-05
6.5074414e-05
9.4068678e-05
0.00013345987
0.0001937468
0.00030301859
0.00055876492
0.0014237111
1.8484566e-05
2.7531407e-05
4.4410709e-05
6.668926e-05
9.5183168e-05
0.00013418762
0.00019428673
0.00030368688
0.00056024117
0.0014291291
2.0793688e-05
2.9617761e-05
4.6063554e-05
6.7854306e-05
9.5914479e-05
0.00013461096
0.00019459032
0.00030416773
0.00056155021
0.0014342181
2.2836493e-05
3.1345724e-05
4.7294048e-05
6.8609973e-05
9.6292853e-05
0.00013474633
0.0001946613
0.00030445312
0.00056266774
0.0014389059
2.4572759e-05
3.2723045e-05
4.8145997e-05
6.900325e-05
9.6353742e-05
0.00013461547
0.00019450951
0.00030454209
0.00056357747
0.0014431295
2.5993486e-05
3.3773743e-05
4.8668829e-05
6.9085022e-05
9.613745e-05
0.00013424628
0.00019415216
0.00030444223
0.00056427309
0.0014468405
2.7111485e-05
3.453129e-05
4.8913203e-05
6.8907251e-05
9.5687674e-05
0.00013367224
0.00019361369
0.00030416971
0.00056475877
0.0014500094
2.795288e-05
3.5033519e-05
4.8928014e-05
6.8520509e-05
9.5049472e-05
0.00013293076
0.0001929244
0.00030374804
0.00056504831
0.0014526277
2.8550551e-05
3.5319092e-05
4.8758575e-05
6.7972112e-05
9.4267181e-05
0.00013206108
0.00019211829
0.00030320595
0.00056516313
0.0014547069
2.8939583e-05
3.5425215e-05
4.8445654e-05
6.7304901e-05
9.3382629e-05
0.00013110209
0.00019123069
0.00030257479
0.00056512964
0.0014562762
2.9154381e-05
3.5386284e-05
4.8025102e-05
6.6556591e-05
9.2433798e-05
0.00013009041
0.00019029592
0.00030188605
0.0005649766
0.0014573782
2.9226997e-05
3.5233188e-05
4.7527851e-05
6.5759566e-05
9.1453995e-05
0.000129059
0.00018934553
0.00030116922
0.00056473266
0.0014580651
2.9186289e-05
3.4993046e-05
4.6980145e-05
6.4940984e-05
9.0471459e-05
0.00012803622
0.00018840697
0.00030045034
0.00056442456
0.0014583937
2.9057602e-05
3.4689236e-05
4.6403886e-05
6.4123089e-05
8.9509329e-05
0.00012704547
0.00018750291
0.00029975101
0.00056407584
0.0014584222
2.8862776e-05
3.434158e-05
4.5817051e-05
6.3323643e-05
8.8585876e-05
0.00012610509
0.00018665098
0.00029908815
0.00056370632
0.0014582071
2.8620334e-05
3.3966636e-05
4.5234124e-05
6.2556414e-05
8.771491e-05
0.00012522869
0.000185864
0.00029847405
0.00056333193
0.0014578009
2.8345768e-05
3.3578022e-05
4.466653e-05
6.1831687e-05
8.6906272e-05
0.00012442554
0.00018515035
0.00029791673
0.00056296474
0.001457251
2.805186e-05
3.3186764e-05
4.4123043e-05
6.1156745e-05
8.6166357e-05
0.00012370115
0.00018451448
0.00029742032
0.00056260911
0.0014565957
2.7749008e-05
3.280162e-05
4.3610167e-05
6.053635e-05
8.5498693e-05
0.00012305793
0.0001839578
0.00029698494
0.00056226321
0.0014558679
2.7445543e-05
3.24294e-05
4.3132488e-05
5.9973178e-05
8.4904486e-05
0.00012249579
0.00018347856
0.00029660448
0.00056194001
0.0014551
2.7148022e-05
3.2075249e-05
4.2692997e-05
5.9468215e-05
8.4383047e-05
0.0001220123
0.00018307003
0.00029628027
0.00056164619
0.0014543189
2.6861493e-05
3.1742914e-05
4.2293372e-05
5.9021098e-05
8.3932056e-05
0.00012160122
0.0001827294
0.00029601102
0.00056138451
0.0014535465
2.6589746e-05
3.1434997e-05
4.1934297e-05
5.8630234e-05
8.3546395e-05
0.00012125849
0.00018245256
0.00029579347
0.00056115546
0.0014527993
2.6335548e-05
3.1153179e-05
4.161525e-05
5.8292225e-05
8.3222181e-05
0.00012097927
0.00018223432
0.00029562325
0.00056095817
0.0014520895
2.6100695e-05
3.0898018e-05
4.133473e-05
5.8004092e-05
8.2954985e-05
0.00012075812
0.00018206889
0.00029549548
0.00056079098
0.0014514256
2.5886083e-05
3.0669403e-05
4.1091057e-05
5.7762495e-05
8.274001e-05
0.00012058925
0.00018195027
0.00029540511
0.0005606518
0.0014508135
2.5692068e-05
3.0466812e-05
4.0882241e-05
5.7563838e-05
8.2572261e-05
0.00012046678
0.00018187245
0.00029534712
0.00056053827
0.0014502567
2.551858e-05
3.0289384e-05
4.0706041e-05
5.7404355e-05
8.2446676e-05
0.00012038485
0.0001818296
0.00029531668
0.00056044787
0.0014497567
2.5365201e-05
3.0135975e-05
4.0560031e-05
5.7280207e-05
8.235824e-05
0.00012033784
0.00018181617
0.00029530921
0.00056037802
0.0014493137
2.5231237e-05
3.0005224e-05
4.0441667e-05
5.7187554e-05
8.2302079e-05
0.00012032035
0.000181827
0.0002953205
0.00056032618
0.0014489262
2.5115775e-05
2.9895607e-05
4.0348342e-05
5.7122627e-05
8.2273539e-05
0.0001203274
0.00018185737
0.00029534676
0.00056028993
0.0014485922
2.5017734e-05
2.9805485e-05
4.0277441e-05
5.7081787e-05
8.2268244e-05
0.00012035437
0.00018190304
0.00029538461
0.00056026707
0.0014483084
2.4935911e-05
2.9733154e-05
4.0226389e-05
5.706157e-05
8.2282138e-05
0.00012039711
0.00018196025
0.00029543111
0.00056025561
0.0014480716
2.4869017e-05
2.9676878e-05
4.0192684e-05
5.705872e-05
8.2311507e-05
0.00012045188
0.00018202571
0.00029548374
0.00056025375
0.0014478779
2.4815719e-05
2.9634926e-05
4.0173931e-05
5.7070216e-05
8.2352988e-05
0.00012051539
0.00018209659
0.0002955403
0.00056025983
0.0014477237
2.4774662e-05
2.9605599e-05
4.0167864e-05
5.7093281e-05
8.2403575e-05
0.00012058478
0.00018217045
0.00029559893
0.00056027231
0.0014476048
2.4744497e-05
2.9587253e-05
4.0172364e-05
5.7125396e-05
8.2460609e-05
0.00012065756
0.00018224523
0.00029565805
0.00056028979
0.0014475176
2.4723903e-05
2.9578317e-05
4.0185473e-05
5.7164305e-05
8.2521776e-05
0.00012073162
0.00018231921
0.00029571634
0.00056031097
0.001447458
2.4711606e-05
2.9577312e-05
4.0205405e-05
5.7208011e-05
8.2585088e-05
0.00012080523
0.00018239104
0.00029577276
0.00056033475
0.0014474224
2.470639e-05
2.958286e-05
4.0230552e-05
5.7254773e-05
8.2648871e-05
0.00012087695
0.00018245963
0.00029582652
0.0005603602
0.0014474071
2.4707115e-05
2.9593694e-05
4.0259482e-05
5.73031e-05
8.2711741e-05
0.00012094567
0.00018252419
0.00029587702
0.00056038656
0.0014474088
2.4712722e-05
2.9608665e-05
4.029094e-05
5.7351728e-05
8.2772583e-05
0.00012101054
0.00018258412
0.00029592384
0.00056041319
0.0014474245
2.472224e-05
2.9626741e-05
4.0323839e-05
5.7399615e-05
8.2830517e-05
0.00012107091
0.00018263905
0.00029596672
0.00056043953
0.0014474513
2.473479e-05
2.9647008e-05
4.0357254e-05
5.7445913e-05
8.2884878e-05
0.00012112636
0.00018268876
0.00029600548
0.0005604651
0.0014474869
2.4749582e-05
2.9668667e-05
4.039041e-05
5.7489956e-05
8.2935188e-05
0.00012117664
0.00018273316
0.00029604006
0.00056048929
0.0014475289
2.476592e-05
2.9691028e-05
4.0422673e-05
5.753124e-05
8.2981134e-05
0.00012122163
0.00018277227
0.0002960704
0.00056051134
0.001447575
2.4783199e-05
2.9713512e-05
4.045354e-05
5.7569406e-05
8.3022553e-05
0.00012126136
0.00018280623
0.0002960964
0.00056053117
0.0014476234
2.48009e-05
2.9735635e-05
4.0482624e-05
5.7604229e-05
8.3059405e-05
0.00012129594
0.00018283511
0.0002961182
0.00056054908
0.0014476728
2.4818588e-05
2.9757009e-05
4.0509648e-05
5.7635593e-05
8.3091755e-05
0.00012132552
0.00018285914
0.00029613628
0.00056056522
0.0014477219
2.4835904e-05
2.9777333e-05
4.0534429e-05
5.7663482e-05
8.3119702e-05
0.00012135029
0.00018287876
0.00029615103
0.0005605797
0.00144777
2.4852563e-05
2.9796381e-05
4.0556871e-05
5.7687913e-05
8.314339e-05
0.00012137064
0.00018289442
0.00029616281
0.00056059261
0.0014478163
2.4868349e-05
2.9814e-05
4.0576905e-05
5.7708962e-05
8.3163102e-05
0.00012138697
0.00018290655
0.00029617197
0.00056060399
0.0014478602
2.4883091e-05
2.9830066e-05
4.059453e-05
5.7726794e-05
8.3179152e-05
0.00012139967
0.00018291556
0.0002961788
0.00056061392
0.0014479014
2.4896661e-05
2.9844514e-05
4.0609803e-05
5.7741616e-05
8.3191872e-05
0.00012140916
0.00018292182
0.00029618358
0.00056062242
0.0014479396
2.490898e-05
2.9857326e-05
4.0622823e-05
5.7753659e-05
8.3201598e-05
0.00012141581
0.0001829257
0.00029618657
0.00056062953
0.0014479746
2.492001e-05
2.9868523e-05
4.0633721e-05
5.7763173e-05
8.3208668e-05
0.00012141999
0.00018292754
0.000296188
0.00056063531
0.0014480061
2.492975e-05
2.987816e-05
4.0642651e-05
5.7770416e-05
8.3213417e-05
0.00012142207
0.00018292767
0.00029618811
0.00056063986
0.001448034
2.4938228e-05
2.9886315e-05
4.0649783e-05
5.7775649e-05
8.3216167e-05
0.00012142238
0.00018292639
0.00029618715
0.00056064332
0.0014480584
2.4945493e-05
2.9893087e-05
4.0655293e-05
5.777913e-05
8.3217227e-05
0.00012142125
0.00018292401
0.00029618535
0.00056064583
0.0014480794
2.4951614e-05
2.9898586e-05
4.0659364e-05
5.7781108e-05
8.3216889e-05
0.00012141896
0.00018292077
0.00029618292
0.00056064758
0.001448097
2.4956674e-05
2.990293e-05
4.0662175e-05
5.7781819e-05
8.3215419e-05
0.00012141579
0.00018291692
0.00029618005
0.00056064871
0.0014481118
2.496076e-05
2.9906241e-05
4.0663899e-05
5.7781483e-05
8.3213058e-05
0.00012141197
0.00018291266
0.00029617689
0.00056064935
0.0014481238
2.4963965e-05
2.9908638e-05
4.0664698e-05
5.7780297e-05
8.3210018e-05
0.00012140769
0.00018290815
0.00029617357
0.00056064957
0.0014481336
2.4966383e-05
2.9910237e-05
4.0664725e-05
5.777844e-05
8.3206485e-05
0.00012140313
0.00018290353
0.00029617017
0.00056064941
0.0014481414
2.4968104e-05
2.991115e-05
4.0664116e-05
5.7776069e-05
8.3202617e-05
0.00012139842
0.00018289889
0.00029616675
0.00056064889
0.0014481473
2.4969219e-05
2.9911479e-05
4.0662997e-05
5.7773324e-05
8.3198551e-05
0.00012139369
0.00018289434
0.00029616336
0.00056064804
0.0014481516
2.4969811e-05
2.9911322e-05
4.0661483e-05
5.7770329e-05
8.3194405e-05
0.00012138902
0.00018288993
0.00029616005
0.00056064692
0.0014481544
2.4969961e-05
2.9910768e-05
4.0659675e-05
5.7767189e-05
8.3190279e-05
0.00012138452
0.00018288574
0.00029615689
0.00056064561
0.0014481557
2.4969746e-05
2.9909901e-05
4.0657665e-05
5.7763998e-05
8.3186258e-05
0.00012138024
0.00018288183
0.00029615394
0.0005606442
0.0014481559
2.4969236e-05
2.9908796e-05
4.0655531e-05
5.7760832e-05
8.3182409e-05
0.00012137624
0.00018287823
0.00029615122
0.00056064279
0.0014481551
2.4968495e-05
2.9907518e-05
4.0653342e-05
5.7757756e-05
8.3178784e-05
0.00012137255
0.00018287497
0.00029614879
0.00056064143
0.0014481536
2.4967582e-05
2.9906128e-05
4.0651155e-05
5.7754818e-05
8.317542e-05
0.0001213692
0.00018287206
0.00029614663
0.00056064018
0.0014481516
2.4966549e-05
2.9904678e-05
4.0649022e-05
5.7752065e-05
8.3172347e-05
0.0001213662
0.00018286948
0.00029614471
0.00056063895
0.0014481494
)
;

boundaryField
{
    water_inlet
    {
        type            turbulentMixingLengthDissipationRateInlet;
        mixingLength    0.005;
        phi             phi;
        k               k;
        value           uniform 0.00011791765;
    }
    water_outlet
    {
        type            inletOutlet;
        inletValue      uniform 0.0001;
        value           nonuniform List<scalar> 10(2.4966549e-05 2.9904678e-05 4.0649022e-05 5.7752065e-05 8.3172347e-05 0.0001213662 0.00018286948 0.00029614471 0.00056063895 0.0014481494);
    }
    water_wedge1
    {
        type            wedge;
    }
    water_wedge2
    {
        type            wedge;
    }
    water_to_rock
    {
        type            epsilonWallFunction;
        blending        stepwise;
        value           nonuniform List<scalar> 
100
(
0.0013048048
0.0016574915
0.0016622
0.0015600258
0.0014605593
0.0013944154
0.0013593128
0.0013440706
0.0013390503
0.0013385659
0.0013399578
0.0013422095
0.0013450163
0.001348315
0.0013520943
0.0013563334
0.0013609717
0.0013659394
0.0013711901
0.0013766841
0.0013823794
0.0013882297
0.0013941868
0.0014002008
0.0014062191
0.0014121858
0.001418039
0.0014237111
0.0014291291
0.0014342181
0.0014389059
0.0014431295
0.0014468405
0.0014500094
0.0014526277
0.0014547069
0.0014562762
0.0014573782
0.0014580651
0.0014583937
0.0014584222
0.0014582071
0.0014578009
0.001457251
0.0014565957
0.0014558679
0.0014551
0.0014543189
0.0014535465
0.0014527993
0.0014520895
0.0014514256
0.0014508135
0.0014502567
0.0014497567
0.0014493137
0.0014489262
0.0014485922
0.0014483084
0.0014480716
0.0014478779
0.0014477237
0.0014476048
0.0014475176
0.001447458
0.0014474224
0.0014474071
0.0014474088
0.0014474245
0.0014474513
0.0014474869
0.0014475289
0.001447575
0.0014476234
0.0014476728
0.0014477219
0.00144777
0.0014478163
0.0014478602
0.0014479014
0.0014479396
0.0014479746
0.0014480061
0.001448034
0.0014480584
0.0014480794
0.001448097
0.0014481118
0.0014481238
0.0014481336
0.0014481414
0.0014481473
0.0014481516
0.0014481544
0.0014481557
0.0014481559
0.0014481551
0.0014481536
0.0014481516
0.0014481494
)
;
    }
}


// ************************************************************************* //
