/*--------------------------------*- C++ -*----------------------------------*\
| =========                 |                                                 |
| \\      /  F ield         | OpenFOAM: The Open Source CFD Toolbox           |
|  \\    /   O peration     | Version:  2506                                  |
|   \\  /    A nd           | Website:  www.openfoam.com                      |
|    \\/     M anipulation  |                                                 |
\*---------------------------------------------------------------------------*/
FoamFile
{
    version     2.0;
    format      ascii;
    arch        "LSB;label=32;scalar=64";
    class       volScalarField;
    location    "8000/water";
    object      k;
}
// * * * * * * * * * * * * * * * * * * * * * * * * * * * * * * * * * * * * * //

dimensions      [0 2 -2 0 0 0 0];

internalField   nonuniform List<scalar> 
1000
(
0.00017657855
0.00017657518
0.00017657131
0.00017655365
0.00017648098
0.00017625478
0.00017589507
0.00017764177
0.00020514192
0.00048657967
0.00013915035
0.00013915817
0.00013914641
0.00013908743
0.00013888206
0.0001383736
0.00013797747
0.00014325065
0.00019616755
0.00057072179
0.00011343696
0.00011343683
0.00011340783
0.00011329561
0.00011298241
0.0001124902
0.00011342549
0.00012641402
0.00020548417
0.00057180213
9.4956345e-05
9.4947216e-05
9.4898274e-05
9.4747991e-05
9.4461177e-05
9.4591085e-05
9.8882447e-05
0.00012463514
0.00023169864
0.0005481231
8.1180941e-05
8.1164581e-05
8.1102165e-05
8.096705e-05
8.0960054e-05
8.2611647e-05
9.2930002e-05
0.00013695794
0.00027128563
0.0005245696
7.0599818e-05
7.0579371e-05
7.052347e-05
7.0504801e-05
7.1168232e-05
7.559388e-05
9.5291599e-05
0.00016203315
0.00031586021
0.0005086103
6.2267977e-05
6.2250531e-05
6.2239514e-05
6.249961e-05
6.4399377e-05
7.3303663e-05
0.00010610125
0.00019613502
0.00035649795
0.00050003827
5.5571434e-05
5.5570243e-05
5.5667644e-05
5.6450634e-05
6.0388807e-05
7.5970866e-05
0.00012498677
0.00023351948
0.00038871397
0.00049629318
5.0098705e-05
5.0135843e-05
5.0440284e-05
5.2102972e-05
5.9190375e-05
8.3983816e-05
0.00015029883
0.00026896222
0.00041247019
0.00049505665
4.5567682e-05
4.5677871e-05
4.6337523e-05
4.9391655e-05
6.109586e-05
9.7486388e-05
0.00017920241
0.00029964297
0.00042964125
0.00049493731
4.1782812e-05
4.2019048e-05
4.3252194e-05
4.8416245e-05
6.6518026e-05
0.00011597887
0.00020865658
0.00032501745
0.0004422306
0.00049528032
3.8609688e-05
3.9051459e-05
4.1174603e-05
4.942279e-05
7.580824e-05
0.00013818966
0.00023641983
0.00034572008
0.00045177492
0.00049583499
3.5960367e-05
3.6725401e-05
4.0189469e-05
5.276706e-05
8.9027741e-05
0.00016237156
0.00026138205
0.00036268792
0.00045931532
0.00049652599
3.3785893e-05
3.5046515e-05
4.0478256e-05
5.8837808e-05
0.00010576992
0.00018682801
0.00028330031
0.0003767736
0.00046551974
0.00049733752
3.2074352e-05
3.4079193e-05
4.2316019e-05
6.7933704e-05
0.00012516072
0.00021031402
0.00030238145
0.00038864949
0.00047080811
0.00049826646
3.0853753e-05
3.3954482e-05
4.6048117e-05
8.0118073e-05
0.00014606366
0.00023213609
0.00031898708
0.00039881735
0.00047543909
0.00049930735
3.0199495e-05
3.4878857e-05
5.2034173e-05
9.5115543e-05
0.00016736945
0.00025203049
0.00033348843
0.00040763764
0.00047952181
0.00050044496
3.0245874e-05
3.7135896e-05
6.0555978e-05
0.00011231901
0.00018821062
0.0002699881
0.00034621426
0.00041534827
0.00048317077
0.00050166196
3.1199788e-05
4.1068716e-05
7.1707324e-05
0.00013091713
0.00020802781
0.00028611976
0.00035742605
0.00042213408
0.00048649165
0.00050294671
3.3351407e-05
4.7030948e-05
8.5310617e-05
0.00015007635
0.00022652171
0.00030057608
0.00036733102
0.00042815
0.00048955823
0.00050428932
3.7070161e-05
5.5301455e-05
0.0001009094
0.00016908807
0.00024356821
0.00031350333
0.00037608894
0.00043353325
0.00049241594
0.00050567923
4.2767054e-05
6.5978794e-05
0.00011784995
0.00018743136
0.00025913417
0.00032501607
0.00038386955
0.00043837726
0.0004950909
0.00050710497
5.080476e-05
7.8898414e-05
0.00013541169
0.00020475515
0.00027320727
0.0003352616
0.00039079681
0.0004427474
0.00049759737
0.00050855462
6.1361231e-05
9.3621553e-05
0.00015292539
0.00022080424
0.00028583248
0.00034436318
0.00039696051
0.00044668769
0.00049994101
0.00051001597
7.4301986e-05
0.00010951398
0.00016980407
0.00023542128
0.0002970769
0.00035241069
0.00040242207
0.00045022471
0.00050212025
0.00051147631
8.9141651e-05
0.00012582726
0.00018559431
0.00024853461
0.00030699099
0.00035946469
0.00040721905
0.00045337023
0.00050412702
0.00051292207
0.0001050842
0.00014184785
0.00019999824
0.00026010214
0.00031560906
0.00036556163
0.00041136965
0.00045612396
0.00050594767
0.00051433842
0.00012123773
0.00015699606
0.00021282841
0.00027010616
0.00032295511
0.00037072101
0.0004148782
0.00045847682
0.00050756452
0.00051570911
0.00013679943
0.0001708544
0.00022398895
0.0002785552
0.00032905219
0.00037495453
0.00041774199
0.00046041543
0.00050895821
0.00051701672
0.0001511652
0.00018316342
0.00023346032
0.00028548756
0.00033393251
0.0003782759
0.00041995883
0.00046192736
0.00051011083
0.00051824338
0.00016395789
0.00019380011
0.00024128511
0.00029097262
0.00033764533
0.00038070952
0.00042153446
0.00046300653
0.00051100927
0.00051937203
0.00017500093
0.0002027492
0.00024755364
0.0002951086
0.00034026105
0.00038229652
0.0004224882
0.00046365773
0.00051164824
0.00052038784
0.00018426933
0.00021007398
0.00025238998
0.00029801688
0.00034187101
0.00038309707
0.00042285596
0.00046389928
0.0005120322
0.00052127954
0.00019183957
0.00021589005
0.00025593918
0.00029983471
0.00034258384
0.00038318919
0.00042269027
0.0004637635
0.00051217578
0.0005220404
0.00019784854
0.00022034378
0.00025835655
0.0003007074
0.00034251976
0.00038266487
0.00042205771
0.00046329493
0.00051210274
0.00052266864
0.00020246356
0.00022359593
0.00025979914
0.00030078137
0.00034180424
0.00038162469
0.00042103461
0.00046254709
0.00051184383
0.00052316728
0.00020586223
0.00022580989
0.00026041951
0.00030019846
0.00034056204
0.00038017211
0.00041970196
0.0004615784
0.00051143397
0.00052354347
0.00020821977
0.00022714388
0.00026036132
0.00029909175
0.00033891231
0.00037840828
0.00041814063
0.00046044816
0.00051090944
0.00052380757
0.00020970158
0.00022774598
0.00025975664
0.00029758283
0.00033696498
0.0003764279
0.00041642727
0.00045921301
0.0005103054
0.00052397214
0.0002104592
0.0002277514
0.00025872436
0.00029578022
0.0003348184
0.00037431633
0.00041463128
0.00045792435
0.00050965404
0.00052405086
0.0002106286
0.00022728118
0.00025736967
0.00029377874
0.00033255818
0.00037214778
0.0004128129
0.00045662661
0.00050898332
0.00052405768
0.00021032976
0.00022644195
0.00025578406
0.00029165957
0.00033025681
0.00036998465
0.0004110223
0.00045535646
0.0005083164
0.00052400613
0.00020966712
0.00022532624
0.0002540459
0.00028949081
0.00032797403
0.00036787749
0.00040929944
0.00045414259
0.00050767148
0.0005239088
0.00020873052
0.00022401337
0.00025222122
0.00028732841
0.00032575758
0.00036586568
0.00040767459
0.00045300617
0.00050706193
0.00052377706
0.00020759636
0.00022257039
0.0002503648
0.00028521722
0.00032364429
0.0003639783
0.00040616886
0.00045196034
0.00050648823
0.00052362006
0.00020632898
0.0002210533
0.00024852124
0.00028319225
0.00032166134
0.00036223543
0.00040479532
0.000451009
0.00050595649
0.00052344567
0.0002049819
0.00021950823
0.00024672614
0.00028127984
0.00031982761
0.0003606492
0.00040355839
0.00045015509
0.00050547545
0.00052326157
0.00020359915
0.00021797257
0.00024500718
0.00027949892
0.00031815463
0.00035922397
0.00040245857
0.00044940267
0.00050504924
0.0005230743
0.00020221646
0.00021647608
0.00024338522
0.00027786185
0.00031664715
0.00035795873
0.00040149653
0.00044875168
0.00050467874
0.00052288905
0.0002008623
0.00021504189
0.0002418751
0.00027637493
0.00031530417
0.00035685213
0.00040066917
0.0004481989
0.0005043626
0.00052270981
0.00019955887
0.00021368734
0.00024048586
0.00027503924
0.00031412389
0.00035589931
0.00039997035
0.00044773882
0.00050409795
0.00052253954
0.0001983227
0.00021242413
0.00023922213
0.0002738542
0.00031310131
0.00035509265
0.00039939179
0.00044736447
0.00050388095
0.00052238029
0.00019716538
0.00021125997
0.0002380859
0.00027281638
0.00031222901
0.00035442262
0.00039892388
0.00044706807
0.00050370731
0.00052223345
0.0001960949
0.00021019943
0.00023707651
0.00027192012
0.00031149778
0.00035387844
0.00039855626
0.00044684147
0.00050357253
0.00052209984
0.00019511624
0.00020924447
0.00023619108
0.00027115802
0.0003108972
0.00035344864
0.00039827833
0.00044667657
0.00050347217
0.00052197984
0.00019423188
0.00020839477
0.00023542495
0.00027052142
0.00031041609
0.00035312144
0.00039807955
0.00044656545
0.00050340193
0.00052187346
0.00019344214
0.00020764819
0.00023477205
0.00027000075
0.00031004287
0.00035288508
0.00039794963
0.00044650054
0.00050335769
0.00052178042
0.00019274559
0.00020700106
0.00023422525
0.00026958583
0.00030976582
0.00035272801
0.00039787868
0.00044647467
0.00050333553
0.00052170019
0.00019213931
0.00020644848
0.0002337766
0.0002692662
0.00030957333
0.0003526391
0.0003978574
0.00044648115
0.00050333178
0.00052163207
0.00019161921
0.0002059846
0.00023341763
0.00026903132
0.00030945414
0.00035260781
0.0003978771
0.00044651385
0.00050334308
0.00052157521
0.00019118027
0.00020560292
0.00023313961
0.00026887082
0.0003093975
0.00035262434
0.00039792989
0.00044656725
0.00050336638
0.00052152872
0.00019081684
0.00020529648
0.00023293378
0.00026877471
0.00030939336
0.00035267972
0.00039800866
0.00044663647
0.00050339901
0.00052149168
0.00019052279
0.0002050581
0.00023279149
0.0002687335
0.00030943243
0.00035276584
0.00039810713
0.00044671727
0.00050343866
0.00052146314
0.00019029177
0.00020488057
0.0002327044
0.0002687383
0.00030950624
0.00035287548
0.00039821979
0.00044680594
0.0005034833
0.00052144217
0.00019011732
0.00020475675
0.00023266453
0.00026878088
0.00030960712
0.00035300222
0.00039834182
0.00044689931
0.00050353117
0.00052142785
0.00018999301
0.00020467968
0.00023266437
0.00026885369
0.00030972822
0.00035314044
0.00039846908
0.00044699465
0.00050358073
0.00052141929
0.00018991253
0.00020464268
0.0002326969
0.00026894988
0.00030986346
0.00035328526
0.00039859803
0.00044708967
0.00050363067
0.00052141561
0.00018986979
0.00020463945
0.00023275568
0.00026906334
0.00031000755
0.00035343253
0.00039872572
0.00044718246
0.00050367988
0.00052141603
0.00018985902
0.00020466409
0.00023283485
0.00026918868
0.00031015596
0.0003535788
0.00039884977
0.00044727153
0.0005037275
0.00052141979
0.0001898748
0.00020471118
0.0002329292
0.00026932122
0.0003103049
0.00035372127
0.00039896831
0.00044735576
0.00050377286
0.00052142625
0.00018991215
0.00020477581
0.00023303413
0.000269457
0.00031045126
0.00035385775
0.00039907996
0.00044743433
0.00050381547
0.00052143479
0.00018996652
0.00020485359
0.00023314563
0.0002695927
0.00031059253
0.00035398656
0.00039918369
0.00044750664
0.00050385462
0.00052144485
0.00019003382
0.00020494061
0.00023326028
0.00026972557
0.00031072676
0.00035410644
0.00039927877
0.00044757212
0.00050388986
0.00052145591
0.00019011039
0.00020503346
0.00023337518
0.00026985339
0.00031085244
0.00035421651
0.00039936468
0.00044763045
0.0005039213
0.00052146754
0.00019019302
0.00020512921
0.00023348791
0.00026997442
0.00031096848
0.00035431615
0.00039944109
0.00044768168
0.00050394916
0.00052147942
0.00019027892
0.00020522535
0.00023359652
0.00027008734
0.00031107414
0.000354405
0.00039950801
0.00044772614
0.00050397357
0.00052149125
0.00019036574
0.00020531982
0.00023369947
0.00027019122
0.00031116894
0.00035448302
0.00039956584
0.00044776418
0.00050399469
0.00052150282
0.0001904515
0.00020541095
0.00023379563
0.00027028542
0.00031125275
0.00035455057
0.00039961504
0.0004477962
0.00050401271
0.00052151395
0.00019053462
0.00020549744
0.00023388415
0.00027036965
0.00031132584
0.0003546082
0.00039965622
0.00044782267
0.00050402783
0.0005215245
0.00019061386
0.00020557832
0.00023396453
0.00027044398
0.00031138867
0.00035465655
0.00039969002
0.0004478441
0.00050404031
0.00052153437
0.00019068827
0.0002056529
0.0002340366
0.00027050869
0.00031144184
0.00035469636
0.00039971713
0.00044786101
0.0005040504
0.00052154352
0.00019075718
0.00020572079
0.00023410038
0.00027056421
0.00031148605
0.0003547284
0.00039973827
0.0004478739
0.00050405837
0.00052155189
0.00019082016
0.00020578179
0.00023415606
0.00027061107
0.00031152202
0.00035475344
0.00039975408
0.00044788327
0.00050406444
0.00052155944
0.00019087697
0.00020583589
0.00023420394
0.00027064987
0.00031155049
0.00035477222
0.0003997652
0.00044788953
0.00050406883
0.00052156616
0.00019092752
0.00020588317
0.00023424441
0.00027068122
0.00031157219
0.00035478543
0.0003997722
0.00044789308
0.00050407172
0.00052157204
0.00019097187
0.00020592386
0.00023427795
0.00027070579
0.00031158785
0.00035479377
0.00039977563
0.0004478943
0.00050407327
0.00052157709
0.00019101017
0.00020595827
0.00023430506
0.00027072425
0.00031159821
0.0003547979
0.00039977604
0.00044789354
0.00050407365
0.00052158136
0.00019104271
0.0002059868
0.00023432634
0.00027073731
0.00031160399
0.0003547985
0.00039977394
0.00044789116
0.00050407307
0.0005215849
0.00019106986
0.00020600994
0.00023434241
0.0002707457
0.00031160593
0.0003547962
0.00039976986
0.00044788752
0.00050407172
0.00052158778
0.00019109206
0.00020602821
0.00023435393
0.00027075014
0.00031160474
0.00035479164
0.00039976429
0.00044788299
0.00050406981
0.00052159009
0.00019110983
0.00020604218
0.00023436154
0.00027075131
0.00031160107
0.0003547854
0.00039975769
0.00044787786
0.00050406753
0.00052159191
0.00019112364
0.00020605241
0.00023436586
0.00027074986
0.00031159552
0.00035477795
0.00039975042
0.0004478724
0.00050406503
0.0005215933
0.000191134
0.00020605941
0.00023436744
0.00027074631
0.00031158856
0.00035476971
0.00039974279
0.0004478668
0.00050406243
0.0005215943
0.00019114133
0.00020606364
0.00023436676
0.00027074114
0.0003115806
0.00035476097
0.000399735
0.00044786119
0.00050405978
0.00052159496
0.00019114604
0.00020606552
0.00023436423
0.00027073473
0.00031157197
0.00035475198
0.00039972721
0.00044785565
0.00050405711
0.0005215953
0.00019114848
0.00020606542
0.00023436022
0.0002707274
0.00031156291
0.00035474294
0.00039971955
0.00044785025
0.00050405444
0.00052159537
0.00019114899
0.00020606367
0.00023435505
0.00027071944
0.00031155369
0.00035473401
0.00039971212
0.00044784505
0.00050405182
0.0005215952
0.00019114788
0.00020606057
0.00023434903
0.00027071114
0.0003115445
0.00035472536
0.00039970504
0.00044784013
0.00050404928
0.00052159484
0.00019114546
0.00020605646
0.00023434244
0.00027070274
0.00031153557
0.00035471715
0.00039969842
0.00044783555
0.00050404688
0.00052159436
0.00019114204
0.00020605162
0.00023433558
0.00027069449
0.0003115271
0.00035470952
0.00039969235
0.00044783138
0.00050404466
0.00052159381
)
;

boundaryField
{
    water_inlet
    {
        type            turbulentIntensityKineticEnergyInlet;
        intensity       0.05;
        value           uniform 0.000234375;
    }
    water_outlet
    {
        type            inletOutlet;
        inletValue      uniform 0.0001;
        value           nonuniform List<scalar> 10(0.00019114204 0.00020605162 0.00023433558 0.00027069449 0.0003115271 0.00035470952 0.00039969235 0.00044783138 0.00050404466 0.00052159381);
    }
    water_wedge1
    {
        type            wedge;
    }
    water_wedge2
    {
        type            wedge;
    }
    water_to_rock
    {
        type            kqRWallFunction;
        value           nonuniform List<scalar> 
100
(
0.00048657967
0.00057072179
0.00057180213
0.0005481231
0.0005245696
0.0005086103
0.00050003827
0.00049629318
0.00049505665
0.00049493731
0.00049528032
0.00049583499
0.00049652599
0.00049733752
0.00049826646
0.00049930735
0.00050044496
0.00050166196
0.00050294671
0.00050428932
0.00050567923
0.00050710497
0.00050855462
0.00051001597
0.00051147631
0.00051292207
0.00051433842
0.00051570911
0.00051701672
0.00051824338
0.00051937203
0.00052038784
0.00052127954
0.0005220404
0.00052266864
0.00052316728
0.00052354347
0.00052380757
0.00052397214
0.00052405086
0.00052405768
0.00052400613
0.0005239088
0.00052377706
0.00052362006
0.00052344567
0.00052326157
0.0005230743
0.00052288905
0.00052270981
0.00052253954
0.00052238029
0.00052223345
0.00052209984
0.00052197984
0.00052187346
0.00052178042
0.00052170019
0.00052163207
0.00052157521
0.00052152872
0.00052149168
0.00052146314
0.00052144217
0.00052142785
0.00052141929
0.00052141561
0.00052141603
0.00052141979
0.00052142625
0.00052143479
0.00052144485
0.00052145591
0.00052146754
0.00052147942
0.00052149125
0.00052150282
0.00052151395
0.0005215245
0.00052153437
0.00052154352
0.00052155189
0.00052155944
0.00052156616
0.00052157204
0.00052157709
0.00052158136
0.0005215849
0.00052158778
0.00052159009
0.00052159191
0.0005215933
0.0005215943
0.00052159496
0.0005215953
0.00052159537
0.0005215952
0.00052159484
0.00052159436
0.00052159381
)
;
    }
}


// ************************************************************************* //
