/*--------------------------------*- C++ -*----------------------------------*\
| =========                 |                                                 |
| \\      /  F ield         | OpenFOAM: The Open Source CFD Toolbox           |
|  \\    /   O peration     | Version:  2506                                  |
|   \\  /    A nd           | Website:  www.openfoam.com                      |
|    \\/     M anipulation  |                                                 |
\*---------------------------------------------------------------------------*/
FoamFile
{
    version     2.0;
    format      ascii;
    arch        "LSB;label=32;scalar=64";
    class       surfaceScalarField;
    location    "8000/water";
    object      phi;
}
// * * * * * * * * * * * * * * * * * * * * * * * * * * * * * * * * * * * * * //

dimensions      [1 0 -1 0 0 0 0];

oriented        oriented;

internalField   nonuniform List<scalar> 
1890
(
-4.1736246e-05
0.0022168351
-0.00015753622
0.0059586937
-0.00032930669
0.0087985477
-0.00054203243
0.010900937
-0.00078239503
0.012402155
-0.0010351826
0.013412336
-0.0012746193
0.014013996
-0.0014359745
0.014245356
-0.001284859
0.0140006
0.012745539
-3.145582e-05
0.002248291
-0.00011269722
0.0060399351
-0.00023219387
0.0089180443
-0.00037999424
0.011048737
-0.00054594259
0.012568103
-0.00071649908
0.013582893
-0.00086674525
0.014164243
-0.00093361978
0.01431223
-0.00073394534
0.013800926
0.012011594
-2.9138824e-05
0.0022774298
-0.00010672995
0.0061175262
-0.00022105542
0.0090323698
-0.0003616033
0.011189285
-0.00051700147
0.012723501
-0.00067116241
0.013737054
-0.00079396192
0.014287042
-0.00081139797
0.014329666
-0.00056729949
0.013556827
0.011444294
-2.7339932e-05
0.0023047697
-0.00010102596
0.0061912122
-0.00020924235
0.0091405862
-0.00034097894
0.011321022
-0.00048374661
0.012866269
-0.00061911468
0.013872422
-0.00071088127
0.014378809
-0.00067659822
0.014295383
-0.0004202604
0.01330049
0.011024034
-2.5625226e-05
0.0023303949
-9.438613e-05
0.0062599732
-0.00019506688
0.009241267
-0.00031669856
0.011442653
-0.00044589488
0.012995465
-0.0005613237
0.013987851
-0.00061882712
0.014436312
-0.00053651239
0.014213069
-0.0002956549
0.013059632
0.010728379
-2.4159481e-05
0.0023545544
-8.8799461e-05
0.0063246131
-0.00018306041
0.0093355279
-0.00029574164
0.011555335
-0.00041210895
0.013111833
-0.00050662381
0.014082366
-0.00052703831
0.014456727
-0.0004087872
0.014094818
-0.00020043472
0.01285128
0.010527944
-2.2965462e-05
0.0023775199
-8.4333397e-05
0.0063859811
-0.00017335329
0.0094245478
-0.00027826852
0.01166025
-0.00038232713
0.013215891
-0.00045437983
0.014154418
-0.00043820737
0.014440554
-0.00030321852
0.013959829
-0.00013378966
0.012681851
0.010394154
-2.202382e-05
0.0023995437
-8.0769704e-05
0.006444727
-0.0001654056
0.0095091837
-0.00026327184
0.011758116
-0.00035472688
0.013307346
-0.00040244389
0.014202135
-0.00035545902
0.014393569
-0.00022236895
0.013826739
-8.9855112e-05
0.012549337
0.010304299
-2.1260556e-05
0.0024208043
-7.7812559e-05
0.006501279
-0.00015855225
0.0095899234
-0.00024948521
0.011849049
-0.00032712225
0.013384983
-0.00034954563
0.014224559
-0.00028212824
0.014326152
-0.00016300118
0.013707612
-6.142535e-05
0.012447761
0.010242874
-2.0607159e-05
0.0024414114
-7.5216672e-05
0.0065558885
-0.00015223237
0.0096669391
-0.00023577769
0.011932595
-0.00029784625
0.013447052
-0.00029644766
0.01422316
-0.00022023861
0.014249943
-0.00011980481
0.013607178
-4.2689165e-05
0.012370646
0.010200185
-2.0018287e-05
0.0024614297
-7.2804709e-05
0.006608675
-0.00014600132
0.0097401358
-0.0002212057
0.012007799
-0.0002661352
0.013491982
-0.00024531984
0.014202345
-0.00016974833
0.014174371
-8.7951816e-05
0.013525381
-2.9806187e-05
0.0123125
0.010170379
-1.9463545e-05
0.0024808933
-7.0441421e-05
0.0066596528
-0.00013947748
0.0098091718
-0.00020502189
0.012073343
-0.00023228103
0.013519241
-0.00019838511
0.014168449
-0.0001291976
0.014105184
-6.3918703e-05
0.013460103
-2.0486085e-05
0.012269067
0.010149893
-1.8918755e-05
0.002499812
-6.800814e-05
0.0067087422
-0.00013229873
0.0098734624
-0.00018675566
0.0121278
-0.00019748169
0.013529967
-0.00015698003
0.014127947
-9.6700086e-05
0.014044904
-4.5354629e-05
0.013408757
-1.3426459e-05
0.012237139
0.010136466
-1.8360421e-05
0.0025181724
-6.5381896e-05
0.0067557637
-0.00012410707
0.0099321875
-0.00016633467
0.012170028
-0.00016333311
0.013526965
-0.00012140679
0.014086021
-7.0530151e-05
0.013994027
-3.0719671e-05
0.013368947
-7.8894196e-06
0.012214309
0.010128577
-1.7761457e-05
0.0025359339
-6.2419786e-05
0.006800422
-0.0001145772
0.0099843449
-0.00014416304
0.012199614
-0.00013124063
0.013514043
-9.1273819e-05
0.014046054
-4.9296624e-05
0.01395205
-1.89866e-05
0.013338637
-3.4327922e-06
0.012198755
0.010125144
-1.7087958e-05
0.0025530218
-5.8952689e-05
0.0068422867
-0.00010349079
0.010028883
-0.00012105345
0.012217176
-0.0001020843
0.013495073
-6.5900238e-05
0.01400987
-3.1933104e-05
0.013918083
-9.4517569e-06
0.013316155
2.8622811e-07
0.012189017
0.01012543
-1.6296501e-05
0.0025693183
-5.479343e-05
0.0068807836
-9.0832712e-05
0.010064922
-9.7999458e-05
0.012224343
-7.6210665e-05
0.013473285
-4.4572575e-05
0.013978232
-1.7627605e-05
0.013891138
-1.5576279e-06
0.013300085
3.3714129e-06
0.012184088
0.010128802
-1.5331796e-05
0.0025846501
-4.9762141e-05
0.0069152139
-7.6852945e-05
0.010092013
-7.5898826e-05
0.012223389
-5.3588965e-05
0.013450975
-2.6634325e-05
0.013951277
-5.7250415e-06
0.013870228
4.9982865e-06
0.013289362
5.8496777e-06
0.012183237
0.010134651
-1.4126781e-05
0.0025987769
-4.3732878e-05
0.00694482
-6.2044405e-05
0.010110324
-5.5379523e-05
0.012216724
-3.3985581e-05
0.013429581
-1.1511182e-05
0.013928803
4.2385177e-06
0.013854479
1.0369142e-05
0.013283231
7.8676368e-06
0.012185738
0.010142519
-1.2609194e-05
0.0026113861
-3.6694903e-05
0.0069689057
-4.7031513e-05
0.010120661
-3.6775356e-05
0.012206468
-1.7080444e-05
0.013409886
1.3285903e-06
0.013910394
1.2527487e-05
0.01384328
1.4774484e-05
0.013280984
9.5161851e-06
0.012190996
0.010152035
-1.0718683e-05
0.0026221048
-2.8801063e-05
0.0069869881
-3.2420568e-05
0.010124281
-2.0182032e-05
0.012194229
-2.4819693e-06
0.013392186
1.2170594e-05
0.013895741
1.937538e-05
0.013836075
1.8388543e-05
0.013281971
1.0860908e-05
0.012198524
0.010162896
-8.4363416e-06
0.0026305411
-2.0369557e-05
0.0069989213
-1.8685217e-05
0.010122596
-5.518861e-06
0.012181063
1.002956e-05
0.013376637
2.1195049e-05
0.013884576
2.5021441e-05
0.013832249
2.1342902e-05
0.01328565
1.1949905e-05
0.012207917
0.010174846
-5.818997e-06
0.0026363601
-1.1825632e-05
0.007004928
-6.1110679e-06
0.010116882
7.2759236e-06
0.012167676
2.0569337e-05
0.013363344
2.8682783e-05
0.013876462
2.9652263e-05
0.013831279
2.3736117e-05
0.013291566
1.2817848e-05
0.012218835
0.010187664
-3.0142639e-06
0.0026393744
-3.5961685e-06
0.0070055099
5.1023825e-06
0.010108183
1.8190316e-05
0.012154588
2.9353642e-05
0.013352181
3.4838928e-05
0.013870977
3.3405682e-05
0.013832712
2.56397e-05
0.013299332
1.3489278e-05
0.012230986
0.010201153
-2.3412235e-07
0.0026396085
3.9070063e-06
0.0070013687
1.4740176e-05
0.01009735
2.7285068e-05
0.012142043
3.6559642e-05
0.013342906
3.9812111e-05
0.013867725
3.6377241e-05
0.013836147
2.7100737e-05
0.013308608
1.3978888e-05
0.012244108
0.010215132
2.2771196e-06
0.0026373314
1.030901e-05
0.0069933369
2.2682214e-05
0.010084977
3.4656579e-05
0.012130069
4.2309642e-05
0.013335253
4.3698086e-05
0.013866336
3.862308e-05
0.013841222
2.8142678e-05
0.013319089
1.4291448e-05
0.012257959
0.010229423
4.3219441e-06
0.0026330095
1.5395759e-05
0.0069822631
2.8921646e-05
0.010071451
4.0374823e-05
0.012118616
4.6679313e-05
0.013328949
4.6547872e-05
0.013866468
4.0165597e-05
0.013847605
2.876828e-05
0.013330486
1.442273e-05
0.012272304
0.010243846
5.8174376e-06
0.002627192
1.9124377e-05
0.0069689561
3.3494222e-05
0.010057081
4.4500949e-05
0.012107609
4.9717092e-05
0.013323732
4.8384355e-05
0.0138678
4.1005655e-05
0.013854983
2.8967354e-05
0.013342524
1.4363284e-05
0.012286909
0.010258209
6.7757371e-06
0.0026204163
2.1562649e-05
0.0069541692
3.6487395e-05
0.010042156
4.7108721e-05
0.012096988
5.1467351e-05
0.013319374
4.9222419e-05
0.013870045
4.1137864e-05
0.013863068
2.8726779e-05
0.013354935
1.4103254e-05
0.012301532
0.010272313
7.2691606e-06
0.0026131471
2.2857271e-05
0.0069385811
3.8041493e-05
0.010026972
4.8301215e-05
0.012086728
5.1991147e-05
0.013315684
4.9088296e-05
0.013872948
4.0566075e-05
0.01387159
2.8041027e-05
0.01336746
1.3637467e-05
0.012315936
0.01028595
7.3944166e-06
0.0026057527
2.3198529e-05
0.006922777
3.83407e-05
0.01001183
4.8218167e-05
0.01207685
5.1380112e-05
0.013312522
4.8034438e-05
0.013876294
3.9316211e-05
0.013880308
2.6921321e-05
0.013379855
1.2970144e-05
0.012329887
0.01029892
7.2475432e-06
0.0025985052
2.2788742e-05
0.0069072358
3.7596251e-05
0.0099970225
4.7032606e-05
0.012067414
4.9760411e-05
0.013309794
4.6146278e-05
0.013879908
3.7443017e-05
0.013889012
2.5400575e-05
0.013391898
1.2117099e-05
0.01234317
0.010311037
6.9114617e-06
0.0025915937
2.1819648e-05
0.0068923276
3.6027562e-05
0.0099828146
4.4940021e-05
0.012058502
4.7288074e-05
0.013307446
4.3541053e-05
0.013883655
3.503036e-05
0.013897522
2.3533967e-05
0.013403394
1.1106185e-05
0.012355598
0.010322144
6.4522988e-06
0.0025851414
2.0459423e-05
0.0068783205
3.3845625e-05
0.0099694284
4.2144068e-05
0.012050203
4.4138134e-05
0.013305452
4.0359807e-05
0.013887433
3.2185309e-05
0.013905697
2.1394624e-05
0.013414185
9.9746013e-06
0.012367018
0.010332118
5.9203487e-06
0.0025792211
1.8847705e-05
0.0068653932
3.1241435e-05
0.0099570347
3.8843035e-05
0.012042602
4.0491857e-05
0.013303803
3.6756232e-05
0.013891169
2.9028973e-05
0.013913424
1.9066893e-05
0.013424147
8.7654313e-06
0.01237732
0.010340884
5.3526727e-06
0.0025738684
1.7095678e-05
0.0068536501
2.8379462e-05
0.0099457509
3.5219123e-05
0.012035762
3.6524526e-05
0.013302498
3.2884711e-05
0.013894809
2.5685936e-05
0.013920623
1.6638266e-05
0.013433195
7.5229998e-06
0.012386435
0.010348407
4.77597e-06
0.0025690924
1.5288965e-05
0.0068431372
2.5395552e-05
0.0099356443
3.1431676e-05
0.012029726
3.2396148e-05
0.013301533
2.8890297e-05
0.013898315
2.227504e-05
0.013927238
1.4192315e-05
0.013441277
6.2892736e-06
0.012394338
0.010354696
4.2090331e-06
0.0025648834
1.3491489e-05
0.0068338547
2.2397674e-05
0.0099267381
2.7613856e-05
0.01202451
2.8245226e-05
0.013300902
2.4901207e-05
0.013901659
1.8902076e-05
0.013933237
1.1802937e-05
0.013448376
5.1006138e-06
0.01240104
0.010359796
3.6647534e-06
0.0025612186
1.1749505e-05
0.0068257699
1.9468539e-05
0.0099190191
2.3872273e-05
0.012020106
2.4185892e-05
0.013300588
2.1024591e-05
0.01390482
1.565544e-05
0.013938606
9.5310197e-06
0.013454501
3.9862657e-06
0.012406585
0.010363783
3.1516163e-06
0.002558067
1.0095183e-05
0.0068188264
1.6668909e-05
0.0099124453
2.0288414e-05
0.012016486
2.0307365e-05
0.013300569
1.7344722e-05
0.013907783
1.260396e-05
0.013943347
7.4227151e-06
0.013459682
2.9673693e-06
0.01241104
0.01036675
2.6748783e-06
0.0025553921
8.549753e-06
0.0068129515
1.404125e-05
0.0099069538
1.692137e-05
0.012013606
1.6675438e-05
0.013300815
1.3923566e-05
0.013910534
9.7970913e-06
0.013947474
5.5096918e-06
0.013463969
2.0574472e-06
0.012414493
0.010368808
2.2374132e-06
0.0025531547
7.1260329e-06
0.0068080629
1.1613128e-05
0.0099024667
1.3811004e-05
0.012011408
1.3334911e-05
0.013301291
1.0802581e-05
0.013913067
7.2663294e-06
0.01395101
3.8102706e-06
0.013467426
1.263017e-06
0.01241704
0.010370071
1.840388e-06
0.0025513143
5.8305643e-06
0.0068040727
9.400448e-06
0.0098988968
1.0981505e-05
0.012009827
1.0313043e-05
0.01330196
8.0059237e-06
0.013915374
5.0281629e-06
0.013953988
2.3319927e-06
0.013470122
5.8534273e-07
0.012418786
0.010370656
1.4837358e-06
0.0025498306
4.6652111e-06
0.0068008912
7.4100615e-06
0.009896152
8.444435e-06
0.012008793
7.6225771e-06
0.013302782
5.5432681e-06
0.013917453
3.0866402e-06
0.013956444
1.0746004e-06
0.013472134
3.2112766e-08
0.012419829
0.010370688
1.1664624e-06
0.0025486641
3.6282115e-06
0.0067984295
5.641509e-06
0.0098941387
6.2007877e-06
0.012008234
5.2638395e-06
0.013303719
3.4120553e-06
0.013919305
1.4368583e-06
0.013958419
3.9525872e-08
0.013473531
-4.1155095e-07
0.01242028
0.010370276
8.8694054e-07
0.0025477772
2.7152586e-06
0.0067966011
4.0890699e-06
0.0098927649
4.2439198e-06
0.012008079
3.2285832e-06
0.013304734
1.6028157e-06
0.013920931
7.3741599e-08
0.013959949
-7.9652548e-07
0.013474401
-7.705915e-07
0.012420254
0.010369506
6.4315439e-07
0.002547134
1.9204508e-06
0.0067953238
2.7436808e-06
0.0098919416
2.5625409e-06
0.01200826
1.5042988e-06
0.013305792
1.0560534e-07
0.013922329
-1.0306665e-06
0.013961085
-1.4661018e-06
0.013474837
-1.0493972e-06
0.012419837
0.010368456
4.3284868e-07
0.0025467012
1.2368492e-06
0.0067945198
1.5941382e-06
0.0098915844
1.1428575e-06
0.012008711
7.7616258e-08
0.013306857
-1.109717e-06
0.013923517
-1.9132162e-06
0.013961888
-1.9824098e-06
0.013474906
-1.2541389e-06
0.012419109
0.010367202
2.5367262e-07
0.0025464475
6.5712322e-07
0.0067941164
6.289274e-07
0.0098916125
-2.9505415e-08
0.01200937
-1.0813209e-06
0.013307909
-2.0810934e-06
0.013924516
-2.5943611e-06
0.013962402
-2.3608052e-06
0.013474672
-1.3930701e-06
0.012418141
0.010365809
1.0335383e-07
0.0025463442
1.7417627e-07
0.0067940456
-1.6558997e-07
0.0098919523
-9.8140353e-07
0.012010185
-2.0080756e-06
0.013308936
-2.832679e-06
0.013925341
-3.0956853e-06
0.013962665
-2.6181131e-06
0.013474195
-1.4752772e-06
0.012416998
0.010364334
-2.0602584e-08
0.0025463648
-2.2130046e-07
0.0067942463
-8.0950473e-07
0.0098925405
-1.7420795e-06
0.012011118
-2.7262673e-06
0.01330992
-3.3885979e-06
0.013926003
-3.4395391e-06
0.013962715
-2.7714696e-06
0.013473527
-1.5099055e-06
0.012415737
0.010362824
-1.2121211e-07
0.002546486
-5.4014851e-07
0.0067946652
-1.3216135e-06
0.009893322
-2.3307319e-06
0.012012127
-3.2588974e-06
0.013310848
-3.7730141e-06
0.013926517
-3.6478671e-06
0.01396259
-2.837306e-06
0.013472716
-1.5054782e-06
0.012414405
0.010361319
-2.0125355e-07
0.0025466872
-7.9108007e-07
0.006795255
-1.7155463e-06
0.0098942465
-2.766536e-06
0.012013178
-3.628647e-06
0.01331171
-4.0092741e-06
0.013926898
-3.7414111e-06
0.013962323
-2.8307882e-06
0.013471806
-1.4696974e-06
0.012413044
0.010359849
-2.6296802e-07
0.0025469502
-9.8145551e-07
0.0067959735
-2.0046889e-06
0.0098952697
-3.0681205e-06
0.012014242
-3.8572736e-06
0.0133125
-4.1193756e-06
0.01392716
-3.7393049e-06
0.013961942
-2.7655428e-06
0.013470832
-1.4092618e-06
0.012411688
0.01035844
-3.0847662e-07
0.0025472587
-1.1183978e-06
0.0067967834
-2.2020015e-06
0.0098963533
-3.2533829e-06
0.012015293
-3.9654433e-06
0.013313212
-4.1238898e-06
0.013927319
-3.659103e-06
0.013961478
-2.6538079e-06
0.013469827
-1.3300301e-06
0.012410364
0.01035711
-3.3979943e-07
0.0025475985
-1.2087441e-06
0.0067976524
-2.3199102e-06
0.0098974645
-3.339371e-06
0.012016312
-3.9726357e-06
0.013313845
-4.0419479e-06
0.013927388
-3.5168758e-06
0.013960953
-2.5066036e-06
0.013468816
-1.2372242e-06
0.012409095
0.010355872
-3.5884937e-07
0.0025479573
-1.2589937e-06
0.0067985525
-2.3702035e-06
0.0098985757
-3.3421491e-06
0.012017284
-3.8970119e-06
0.0133144
-3.8911498e-06
0.013927382
-3.3271979e-06
0.013960389
-2.3337705e-06
0.013467823
-1.1353976e-06
0.012407896
0.010354737
-3.6742951e-07
0.0025483247
-1.2752696e-06
0.0067994604
-2.3639397e-06
0.0098996644
-3.2766569e-06
0.012018197
-3.7552718e-06
0.013314878
-3.6874535e-06
0.013927314
-3.1030861e-06
0.013959804
-2.1439886e-06
0.013466864
-1.0285797e-06
0.012406781
0.010353708
-3.6721228e-07
0.002548692
-1.2632505e-06
0.0068003564
-2.3113104e-06
0.0099007124
-3.1565181e-06
0.012019042
-3.5624086e-06
0.013315284
-3.4449353e-06
0.013927197
-2.855793e-06
0.013959215
-1.944593e-06
0.013465953
-9.2006607e-07
0.012405756
0.010352788
-3.5973963e-07
0.0025490517
-1.2281427e-06
0.0068012248
-2.2215799e-06
0.0099017059
-2.9939498e-06
0.012019815
-3.3316508e-06
0.013315622
-3.1757569e-06
0.013927041
-2.5948127e-06
0.013958634
-1.74162e-06
0.013465099
-8.1252922e-07
0.012404827
0.010351976
-3.4641168e-07
0.0025493981
-1.1746552e-06
0.0068020531
-2.1030365e-06
0.0099026342
-2.7997199e-06
0.012020511
-3.0744193e-06
0.013315897
-2.8901644e-06
0.013926857
-2.3279039e-06
0.013958072
-1.5398063e-06
0.013464311
-7.0792835e-07
0.012403995
0.010351268
-3.2849891e-07
0.0025497266
-1.1070191e-06
0.0068028316
-1.9630455e-06
0.0099034903
-2.5832507e-06
0.012021132
-2.8005273e-06
0.013316114
-2.5967655e-06
0.013926653
-2.0614066e-06
0.013957537
-1.3428983e-06
0.013463593
-6.0777723e-07
0.01240326
0.01035066
-3.0713749e-07
0.0025500338
-1.0290012e-06
0.0068035534
-1.8080884e-06
0.0099042693
-2.3527158e-06
0.012021676
-2.5183332e-06
0.01331628
-2.3027328e-06
0.013926437
-1.8004597e-06
0.013957034
-1.1538059e-06
0.013462946
-5.1313663e-07
0.012402619
0.010350147
-2.8334662e-07
0.0025503171
-9.4394431e-07
0.006804214
-1.6438618e-06
0.0099049693
-2.1152047e-06
0.012022148
-2.2349824e-06
0.013316399
-2.014101e-06
0.013926216
-1.5493164e-06
0.01395657
-9.7491803e-07
0.013462372
-4.2492252e-07
0.012402069
0.010349722
-2.5801783e-07
0.0025505751
-8.5476824e-07
0.0068048108
-1.4752874e-06
0.0099055898
-1.8767559e-06
0.012022549
-1.9564519e-06
0.013316479
-1.7358095e-06
0.013925996
-1.3113754e-06
0.013956145
-8.080714e-07
0.013461868
-3.4376491e-07
0.012401605
0.010349378
-2.3192868e-07
0.002550807
-7.6399376e-07
0.0068053428
-1.3065628e-06
0.0099061323
-1.6424314e-06
0.012022885
-1.6876457e-06
0.013316524
-1.4718091e-06
0.01392578
-1.0892571e-06
0.013955763
-6.5463427e-07
0.013461434
-2.7014663e-07
0.012401221
0.010349108
-2.0573371e-07
0.0025510128
-6.7373309e-07
0.0068058108
-1.1411437e-06
0.0099065998
-1.4162964e-06
0.01202316
-1.4323598e-06
0.01331654
-1.2249942e-06
0.013925573
-8.8472705e-07
0.013955422
-5.1539465e-07
0.013461064
-2.0424977e-07
0.01240091
0.010348904
-1.7997898e-07
0.0025511928
-5.8572052e-07
0.0068062166
-9.8180694e-07
0.0099069958
-1.2015015e-06
0.01202338
-1.1933896e-06
0.013316532
-9.973209e-07
0.013925377
-6.9880489e-07
0.013955124
-3.9065042e-07
0.013460756
-1.4606218e-07
0.012400665
0.010348758
-1.5510168e-07
0.0025513479
-5.0132672e-07
0.0068065628
-8.3067936e-07
0.0099073252
-1.0003454e-06
0.012023549
-9.7260476e-07
0.013316504
-7.8989031e-07
0.013925194
-5.3180976e-07
0.013954866
-2.8021889e-07
0.013460505
-9.5289182e-08
0.01240048
0.010348663
-1.3144883e-07
0.0025514793
-4.2161015e-07
0.006806853
-6.893407e-07
0.0099075929
-8.14425e-07
0.012023674
-7.7114484e-07
0.013316461
-6.0315833e-07
0.013925026
-3.8358976e-07
0.013954646
-1.8363448e-07
0.013460305
-5.1566744e-08
0.012400348
0.010348611
-1.0928208e-07
0.0025515886
-3.4735214e-07
0.006807091
-5.5889764e-07
0.0099078044
-6.4475637e-07
0.01202376
-5.8957949e-07
0.013316406
-4.3711934e-07
0.013924873
-2.5367278e-07
0.013954463
-1.0021753e-07
0.013460151
-1.3946728e-08
0.012400262
0.010348597
-8.8795261e-08
0.0025516774
-2.7911213e-07
0.0068072813
-4.4009775e-07
0.0099079654
-4.9193792e-07
0.012023812
-4.2810152e-07
0.013316342
-2.9149407e-07
0.013924737
-1.4140215e-07
0.013954312
-2.8895037e-08
0.013460039
1.7912526e-08
0.012400215
0.010348615
-7.0118716e-08
0.0025517475
-2.1724878e-07
0.0068074285
-3.3336411e-07
0.0099080815
-3.5619149e-07
0.012023835
-2.8654672e-07
0.013316272
-1.6568988e-07
0.013924616
-4.5707032e-08
0.013954193
3.0918115e-08
0.013459962
4.3505781e-08
0.012400202
0.010348658
-5.3319071e-08
0.0025518008
-1.6192421e-07
0.0068075371
-2.3879122e-07
0.0099081584
-2.3732869e-07
0.012023833
-1.6429793e-07
0.013316199
-5.857374e-08
0.01392451
3.4371199e-08
0.0139541
7.9174691e-08
0.013459917
6.3161384e-08
0.012400218
0.010348722
-3.8413193e-08
0.0025518392
-1.1312804e-07
0.0068076118
-1.5617874e-07
0.0099082014
-1.3476619e-07
0.012023812
-6.0238679e-08
0.013316125
3.1068329e-08
0.013924419
9.9199529e-08
0.013954031
1.1655002e-07
0.0134599
7.7652353e-08
0.012400257
0.010348799
-2.5361873e-08
0.0025518646
-7.0677087e-08
0.0068076571
-8.5014861e-08
0.0099082158
-4.7453748e-08
0.012023774
2.6953432e-08
0.013316051
1.0397667e-07
0.013924342
1.4980405e-07
0.013953986
1.4440698e-07
0.013459905
8.7753656e-08
0.012400314
0.010348887
-1.409381e-08
0.0025518787
-3.4255979e-08
0.0068076773
-2.4513423e-08
0.0099082061
2.5693302e-08
0.012023724
9.8078875e-08
0.013315978
1.6126619e-07
0.013924279
1.8789477e-07
0.013953959
1.6404335e-07
0.013459929
9.4105975e-08
0.012400384
0.010348981
-4.4921049e-09
0.0025518832
-3.4139561e-09
0.0068076762
2.6036998e-08
0.0099081766
8.5396605e-08
0.012023665
1.5425751e-07
0.013315909
2.0482143e-07
0.013924228
2.1519803e-07
0.013953949
1.7675052e-07
0.013459968
9.7377183e-08
0.012400463
0.010349078
3.5420648e-09
0.0025518796
2.2148962e-08
0.0068076576
6.7121585e-08
0.0099081316
1.3260318e-07
0.012023599
1.9719999e-07
0.013315845
2.3641985e-07
0.013924189
2.3330114e-07
0.013953952
1.8368405e-07
0.013460017
9.8161141e-08
0.012400549
0.010349177
1.0083284e-08
0.0025518695
4.2692228e-08
0.006807625
9.9453828e-08
0.0099080749
1.6865026e-07
0.01202353
2.2847788e-07
0.013315785
2.5765701e-07
0.01392416
2.4358464e-07
0.013953966
1.8582309e-07
0.013460075
9.6923677e-08
0.012400638
0.010349274
1.5243158e-08
0.0025518543
5.8667203e-08
0.0068075816
1.2394112e-07
0.0099080096
1.9479523e-07
0.012023459
2.4953676e-07
0.01331573
2.6994284e-07
0.013924139
2.472231e-07
0.013953989
1.8398049e-07
0.013460138
9.4076792e-08
0.012400727
0.010349368
1.9150885e-08
0.0025518352
7.053576e-08
0.0068075302
1.4143424e-07
0.0099079387
2.1219299e-07
0.012023389
2.6165979e-07
0.013315681
2.7449028e-07
0.013924126
2.4519151e-07
0.013954018
1.7877805e-07
0.013460205
8.9890672e-08
0.012400816
0.010349458
2.1943536e-08
0.0025518132
7.8761531e-08
0.0068074733
1.5276825e-07
0.0099078647
2.2195363e-07
0.012023319
2.6605782e-07
0.013315637
2.724197e-07
0.01392412
2.3835992e-07
0.013954052
1.7076541e-07
0.013460272
8.4585971e-08
0.012400902
0.010349542
2.3761514e-08
0.0025517894
8.3810558e-08
0.0068074133
1.5876981e-07
0.0099077897
2.2516844e-07
0.012023253
2.639159e-07
0.013315598
2.6481853e-07
0.013924119
2.2757373e-07
0.013954089
1.6046401e-07
0.013460339
7.8392469e-08
0.012400985
0.01034962
2.4743982e-08
0.0025517647
8.6147823e-08
0.0068073519
1.6026343e-07
0.0099077156
2.2292708e-07
0.01202319
2.5641294e-07
0.013315564
2.5277989e-07
0.013924123
2.1369048e-07
0.013954128
1.4841388e-07
0.013460405
7.151575e-08
0.012401061
0.010349692
2.5032468e-08
0.0025517397
8.6243759e-08
0.0068072907
1.5808259e-07
0.0099076438
2.1633115e-07
0.012023132
2.4476456e-07
0.013315536
2.3745283e-07
0.01392413
1.9764566e-07
0.013954168
1.3524587e-07
0.013460467
6.4258981e-08
0.012401132
0.010349756
2.4756418e-08
0.0025517149
8.4540984e-08
0.0068072309
1.5301742e-07
0.0099075753
2.0643212e-07
0.012023079
2.3012276e-07
0.013315512
2.1993317e-07
0.01392414
1.8034197e-07
0.013954208
1.2157463e-07
0.013460526
5.6903196e-08
0.012401197
0.010349813
2.4035559e-08
0.0025516909
8.1448267e-08
0.0068071735
1.4579609e-07
0.009907511
1.9419087e-07
0.01202303
2.1354443e-07
0.013315493
2.0122374e-07
0.013924153
1.6261395e-07
0.013954246
1.0798136e-07
0.01346058
4.9746908e-08
0.012401255
0.010349863
2.2971268e-08
0.0025516679
7.731345e-08
0.0068071192
1.3703085e-07
0.0099074512
1.8040263e-07
0.012022987
1.9587923e-07
0.013315477
1.8211384e-07
0.013924166
1.4510151e-07
0.013954283
9.4914629e-08
0.013460631
4.3024803e-08
0.012401307
0.010349906
2.1644741e-08
0.0025516463
7.2416484e-08
0.0068070684
1.2720379e-07
0.0099073965
1.656713e-07
0.012022948
1.7774647e-07
0.013315465
1.6314004e-07
0.013924181
1.2820018e-07
0.013954318
8.2621705e-08
0.013460676
3.683898e-08
0.012401353
0.010349943
2.0124565e-08
0.0025516261
6.697807e-08
0.0068070215
1.1667857e-07
0.0099073467
1.5042225e-07
0.012022915
1.5953928e-07
0.013315456
1.4459953e-07
0.013924196
1.1209049e-07
0.013954351
7.117765e-08
0.013460717
3.1226868e-08
0.012401393
0.010349974
1.8462338e-08
0.0025516077
6.1162258e-08
0.0068069788
1.0570902e-07
0.0099073022
1.349262e-07
0.012022886
1.414665e-07
0.01331545
1.2658473e-07
0.013924211
9.675031e-08
0.013954381
6.0496019e-08
0.013460753
2.6095533e-08
0.012401427
0.01035
1.6708137e-08
0.002551591
5.5112523e-08
0.0068069404
9.4506058e-08
0.0099072628
1.1939785e-07
0.012022861
1.2367653e-07
0.013315445
1.0914242e-07
0.013924225
8.21201e-08
0.013954408
5.0456527e-08
0.013460785
2.1349965e-08
0.012401456
0.010350021
1.4907908e-08
0.0025515761
4.8961624e-08
0.0068069064
8.326885e-08
0.0099072285
1.0404484e-07
0.01202284
1.0633199e-07
0.013315443
9.2348697e-08
0.013924239
6.8189737e-08
0.013954432
4.0988846e-08
0.013460812
1.6914038e-08
0.012401481
0.010350038
1.3107153e-08
0.002551563
4.2844277e-08
0.0068068766
7.2209056e-08
0.0099071991
8.9113026e-08
0.012022823
8.9655054e-08
0.013315443
7.6371497e-08
0.013924253
5.5054155e-08
0.013954453
3.2118016e-08
0.013460835
1.2767441e-08
0.0124015
0.010350051
1.1349273e-08
0.0025515516
3.6896335e-08
0.0068068511
6.1551985e-08
0.0099071745
7.488052e-08
0.01202281
7.3937493e-08
0.013315443
6.1470404e-08
0.013924265
4.2913934e-08
0.013954472
2.3974061e-08
0.013460854
8.9717134e-09
0.012401515
0.01035006
9.6718954e-09
0.0025515419
3.1241386e-08
0.0068068295
5.1509264e-08
0.0099071542
6.1619375e-08
0.0120228
5.9473312e-08
0.013315446
4.7933211e-08
0.013924277
3.2021794e-08
0.013954487
1.6747135e-08
0.013460869
5.6296693e-09
0.012401526
0.010350066
8.0969661e-09
0.0025515338
2.5964349e-08
0.0068068116
4.2233231e-08
0.0099071379
4.9529886e-08
0.012022792
4.6480261e-08
0.013315449
3.5967888e-08
0.013924287
2.2562187e-08
0.013954501
1.0578743e-08
0.013460881
2.8074007e-09
0.012401534
0.010350069
6.649415e-09
0.0025515272
2.1128119e-08
0.0068067972
3.3847578e-08
0.0099071252
3.8814224e-08
0.012022787
3.5249865e-08
0.013315452
2.5936789e-08
0.013924296
1.4915536e-08
0.013954512
5.813182e-09
0.01346089
7.6127681e-10
0.012401539
0.010350069
3.0051835e-09
9.5433109e-09
1.5183015e-08
1.7227049e-08
1.5381556e-08
1.1047609e-08
6.0529526e-09
2.0879951e-09
1.2574585e-11
)
;

boundaryField
{
    water_inlet
    {
        type            calculated;
        value           nonuniform List<scalar> 10(-0.0021750989 -0.0058428937 -0.0086267772 -0.010688211 -0.012161792 -0.013159549 -0.01377456 -0.014084001 -0.014151716 -0.014030398);
    }
    water_outlet
    {
        type            calculated;
        value           nonuniform List<scalar> 10(0.0025515242 0.0068067906 0.0099071195 0.012022785 0.013315454 0.013924301 0.013954517 0.013460894 0.012401541 0.010350069);
    }
    water_wedge1
    {
        type            wedge;
        value           nonuniform List<scalar> 
1000
(
-1.1296142e-13
-1.4267711e-13
-1.1216184e-13
-1.0631463e-13
-9.9356056e-14
-9.3390094e-14
-8.8694602e-14
-8.4955786e-14
-8.1976026e-14
-7.9490232e-14
-7.7281034e-14
-7.5236733e-14
-7.3265578e-14
-7.1280322e-14
-6.9183205e-14
-6.6853028e-14
-6.4133928e-14
-6.0817724e-14
-5.6666667e-14
-5.1409889e-14
-4.4794995e-14
-3.6657381e-14
-2.7078674e-14
-1.6560994e-14
-5.8634633e-15
4.0665561e-15
1.2372676e-14
1.8668319e-14
2.2900307e-14
2.5300403e-14
2.6220446e-14
2.6003669e-14
2.5023417e-14
2.3518197e-14
2.1691244e-14
1.9699534e-14
1.7620674e-14
1.5588071e-14
1.3613612e-14
1.17282e-14
9.99989e-15
8.3978958e-15
6.9295753e-15
5.6123682e-15
4.442801e-15
3.4008657e-15
2.4910406e-15
1.7143161e-15
1.0476716e-15
4.8356809e-16
1.4369667e-17
-3.6717101e-16
-6.721758e-16
-9.11893e-16
-1.0924192e-15
-1.2112787e-15
-1.2866744e-15
-1.326012e-15
-1.3320865e-15
-1.309064e-15
-1.2659784e-15
-1.208187e-15
-1.1271784e-15
-1.044725e-15
-9.5882209e-16
-8.6494679e-16
-7.6772534e-16
-6.7327919e-16
-5.8080957e-16
-4.9368726e-16
-4.1639319e-16
-3.4337117e-16
-2.7158647e-16
-2.0992659e-16
-1.5279382e-16
-1.0388605e-16
-6.3944026e-17
-2.9396146e-17
3.2597933e-18
2.9666344e-17
4.6254972e-17
6.3015751e-17
6.8338778e-17
7.7629249e-17
8.5888988e-17
8.9022968e-17
8.6457449e-17
8.3025978e-17
7.8722677e-17
7.3383751e-17
7.1150183e-17
6.7257447e-17
5.912501e-17
5.037187e-17
4.0191672e-17
3.4948243e-17
3.6681355e-17
2.4841995e-17
1.8119407e-17
1.0264445e-17
-6.8081291e-13
-1.0335451e-12
-8.3929052e-13
-7.9752918e-13
-7.4939977e-13
-7.0313765e-13
-6.6536429e-13
-6.3522859e-13
-6.1093744e-13
-5.9053044e-13
-5.7244993e-13
-5.5560494e-13
-5.3912339e-13
-5.2219857e-13
-5.0397679e-13
-4.8343468e-13
-4.5934369e-13
-4.301869e-13
-3.9436738e-13
-3.505566e-13
-2.9814041e-13
-2.3765569e-13
-1.7103337e-13
-1.0155309e-13
-3.3365973e-14
2.8950825e-14
8.1486466e-14
1.2215045e-13
1.5064081e-13
1.6797443e-13
1.7589027e-13
1.7635015e-13
1.7126728e-13
1.6227394e-13
1.5073281e-13
1.3769364e-13
1.2392443e-13
1.1004137e-13
9.644284e-14
8.3433946e-14
7.122357e-14
5.9904799e-14
4.9550413e-14
4.0195203e-14
3.1831555e-14
2.4422144e-14
1.792999e-14
1.2310638e-14
7.5107769e-15
3.4679489e-15
1.1699061e-16
-2.6179441e-15
-4.8073562e-15
-6.5039874e-15
-7.7720151e-15
-8.6619738e-15
-9.2165663e-15
-9.4938918e-15
-9.5343061e-15
-9.3749721e-15
-9.0593534e-15
-8.6190546e-15
-8.0845626e-15
-7.4761562e-15
-6.8295586e-15
-6.1635178e-15
-5.4778099e-15
-4.8026354e-15
-4.1567112e-15
-3.5395553e-15
-2.9573471e-15
-2.4180105e-15
-1.9232981e-15
-1.4743316e-15
-1.0816446e-15
-7.3895682e-16
-4.3074331e-16
-1.7027654e-16
4.7771897e-17
2.2068299e-16
3.5620753e-16
4.6704156e-16
5.4430608e-16
5.9791243e-16
6.288043e-16
6.3952698e-16
6.3657972e-16
6.20889e-16
5.9464086e-16
5.6325508e-16
5.2515693e-16
4.844353e-16
4.3615406e-16
3.8602963e-16
3.4073985e-16
2.9536712e-16
2.5420062e-16
2.1188312e-16
1.7367479e-16
9.9990907e-17
3.1339114e-12
4.8023013e-12
3.9072353e-12
3.7113896e-12
3.4900554e-12
3.2689318e-12
3.0860162e-12
2.9387785e-12
2.8176155e-12
2.7124761e-12
2.6152697e-12
2.5197172e-12
2.4205078e-12
2.3123595e-12
2.1894997e-12
2.0461199e-12
1.8774987e-12
1.6811042e-12
1.4574289e-12
1.2105555e-12
9.4809777e-13
6.8017088e-13
4.1759877e-13
1.7019337e-13
-5.3309332e-14
-2.4554811e-13
-4.0217625e-13
-5.2205059e-13
-6.0637075e-13
-6.5806995e-13
-6.8129486e-13
-6.8087026e-13
-6.6176239e-13
-6.2867603e-13
-5.8578408e-13
-5.3663174e-13
-4.8411532e-13
-4.3048998e-13
-3.7748452e-13