/*--------------------------------*- C++ -*----------------------------------*\
| =========                 |                                                 |
| \\      /  F ield         | OpenFOAM: The Open Source CFD Toolbox           |
|  \\    /   O peration     | Version:  2506                                  |
|   \\  /    A nd           | Website:  www.openfoam.com                      |
|    \\/     M anipulation  |                                                 |
\*---------------------------------------------------------------------------*/
FoamFile
{
    version     2.0;
    format      ascii;
    arch        "LSB;label=32;scalar=64";
    class       volVectorField;
    location    "8000/water";
    object      U;
}
// * * * * * * * * * * * * * * * * * * * * * * * * * * * * * * * * * * * * * //

dimensions      [0 1 -1 0 0 0 0];

internalField   nonuniform List<vector> 
1000
(
(0.25225587 -0.00012859767 2.5300007e-18)
(0.25226258 -0.00027067836 9.0572115e-19)
(0.25227485 -0.0004145054 1.9989759e-18)
(0.25228819 -0.00055572716 6.0410666e-19)
(0.25229018 -0.0006857579 6.7832473e-19)
(0.25223998 -0.00079863172 1.5782649e-19)
(0.25200713 -0.00089615194 -5.5914634e-21)
(0.25115686 -0.0010460356 -3.2132381e-19)
(0.24780473 -0.0012820719 -9.1485467e-20)
(0.23308261 0.0010121611 -4.3559037e-19)
(0.25653043 -7.733045e-05 1.9084895e-18)
(0.25653977 -0.00018903831 1.3075378e-18)
(0.25655871 -0.00029096537 2.478912e-18)
(0.25657276 -0.00039024488 9.0851412e-19)
(0.25654377 -0.0004817504 5.5600572e-19)
(0.25636039 -0.00055898444 2.2155726e-19)
(0.25570613 -0.00060536498 -4.4428075e-21)
(0.25355952 -0.0006544136 -4.1148142e-19)
(0.24574266 -0.00084724763 -2.2276942e-19)
(0.21968686 0.00025718807 -4.1872633e-19)
(0.26021787 -7.3909993e-05 -9.6119494e-19)
(0.26022468 -0.00018059835 3.0154844e-19)
(0.26023383 -0.00027741914 8.0847505e-19)
(0.26021807 -0.00037159745 4.0261547e-19)
(0.26010153 -0.00045735776 -1.9271433e-19)
(0.25968006 -0.000530446 -2.3036149e-19)
(0.25840621 -0.000570931 -9.087964e-20)
(0.25452354 -0.0005655476 -3.3423222e-19)
(0.24186464 -0.000619877 -3.2427629e-19)
(0.20839343 1.1252663e-05 -3.3565652e-19)
(0.26340527 -6.8945984e-05 -8.5339158e-20)
(0.26340956 -0.0001705851 6.6379438e-19)
(0.26340597 -0.00026279232 4.0556805e-19)
(0.2633478 -0.0003513837 4.893933e-19)
(0.26310913 -0.00042951139 1.3484886e-19)
(0.26237282 -0.00049394994 -5.3612511e-19)
(0.26030372 -0.00052751 -2.8162834e-19)
(0.25430845 -0.00049289979 -3.3053199e-19)
(0.23723183 -0.00045934341 -3.2966841e-19)
(0.19958845 -4.8876901e-05 -3.8291812e-19)
(0.26641629 -6.4388913e-05 -1.1178469e-18)
(0.26641556 -0.00015946867 1.3293885e-18)
(0.266392 -0.0002453985 1.0471833e-18)
(0.26627267 -0.00032748756 6.6559018e-19)
(0.26586989 -0.00039791738 3.5341451e-19)
(0.26472852 -0.00045250625 1.9838193e-19)
(0.2616454 -0.00047360888 -5.2702542e-20)
(0.25321244 -0.00041483906 -2.7693978e-19)
(0.23271017 -0.00033459433 -4.0204203e-19)
(0.1932952 -5.0634685e-05 -3.0433029e-19)
(0.26927574 -6.0867421e-05 4.6707283e-19)
(0.26926716 -0.00015024307 1.1024017e-18)
(0.26921481 -0.00023070414 1.4198964e-18)
(0.26901238 -0.00030702701 5.9123541e-19)
(0.26839648 -0.00037049965 1.5225862e-19)
(0.26673518 -0.00041493219 4.7621014e-19)
(0.26236788 -0.0004187185 7.2172373e-20)
(0.25136277 -0.00033835079 -2.1082522e-19)
(0.22869802 -0.00023662998 -1.6694413e-19)
(0.18902131 -3.9495644e-05 -1.8190812e-19)
(0.27197991 -5.8057435e-05 3.5623626e-18)
(0.27196007 -0.00014287112 2.6572958e-18)
(0.2718683 -0.00021894801 3.662811e-19)
(0.2715565 -0.00029030313 3.0280492e-19)
(0.27066609 -0.00034728946 3.4832296e-19)
(0.26833155 -0.0003806824 -4.371934e-23)
(0.26239852 -0.00036437219 -2.051166e-19)
(0.2490264 -0.00026852436 -1.7416239e-19)
(0.22536097 -0.00016272711 -6.6094904e-20)
(0.18616822 -2.8773986e-05 -2.4319356e-19)
(0.27455816 -5.5861795e-05 2.7885265e-19)
(0.27452281 -0.00013703198 1.9312336e-18)
(0.27437848 -0.00020951999 2.4291156e-19)
(0.27392442 -0.00027640483 4.3746473e-19)
(0.27267858 -0.00032682068 4.567219e-19)
(0.26947689 -0.00034738401 2.1532e-19)
(0.2617847 -0.0003109263 -4.0128689e-20)
(0.2465738 -0.00020816809 -2.2575273e-19)
(0.22271517 -0.00011050061 -2.7839591e-19)
(0.18425835 -2.0836221e-05 -2.6288949e-19)
(0.27704027 -5.4085732e-05 7.8596966e-19)
(0.27698407 -0.00013225437 7.7919713e-19)
(0.27677058 -0.00020162575 9.6942444e-19)
(0.27613171 -0.00026417291 7.1051337e-19)
(0.27442314 -0.00030720586 3.6223158e-19)
(0.27014174 -0.00031294777 3.4808463e-19)
(0.26069 -0.00025925798 -4.8059391e-20)
(0.24429831 -0.00015836468 -1.3953441e-19)
(0.22067581 -7.5408827e-05 -2.4044681e-20)
(0.18296198 -1.5153743e-05 -8.9700724e-20)
(0.27944341 -5.2555771e-05 3.2872544e-18)
(0.27935955 -0.00012814139 2.314308e-18)
(0.27905543 -0.00019460758 7.305397e-19)
(0.27817575 -0.00025259242 5.164872e-19)
(0.27586797 -0.0002867346 3.8080892e-19)
(0.27032645 -0.00027659229 1.4205942e-20)
(0.25933502 -0.00021094069 -1.4382885e-19)
(0.24234214 -0.00011891262 -1.0505522e-19)
(0.21912382 -5.2172373e-05 -7.6105527e-20)
(0.182066 -1.0946232e-05 -1.4341525e-19)
(0.28177654 -5.1166649e-05 1.3289831e-18)
(0.28165619 -0.00012441971 6.4936983e-19)
(0.2812333 -0.00018797298 1.7007343e-20)
(0.28003901 -0.00024077452 8.7433819e-19)
(0.27697398 -0.0002641764 2.8372098e-19)
(0.27008764 -0.00023880409 -6.9177127e-20)
(0.25792269 -0.00016762321 1.8547635e-20)
(0.24073179 -8.8481196e-05 -2.6657079e-20)
(0.2179502 -3.6445597e-05 -2.2275999e-19)
(0.18143936 -7.6993344e-06 -1.0981648e-19)
(0.28404477 -4.9854757e-05 6.4635618e-19)
(0.28387625 -0.00012089421 4.0201456e-19)
(0.28329739 -0.00018132909 3.099436e-20)
(0.28169344 -0.00022787705 5.5377782e-19)
(0.27771473 -0.00023897375 8.099481e-20)
(0.26953512 -0.00020087537 1.9449984e-19)
(0.25659139 -0.00013036474 7.2797915e-20)
(0.2394378 -6.5170706e-05 -3.5433419e-21)
(0.21706901 -2.5324865e-05 -8.6116001e-20)
(0.18100323 -5.1216767e-06 -1.357578e-19)
(0.28625049 -4.8572103e-05 1.1155838e-18)
(0.28601827 -0.00011740097 2.8847332e-20)
(0.28523426 -0.000174302 4.0285788e-19)
(0.28310493 -0.00021314203 4.8565406e-19)
(0.27809439 -0.00021129076 8.0602581e-20)
(0.26879943 -0.00016439826 7.4681869e-21)
(0.25541094 -9.9329216e-05 -5.4174261e-20)
(0.238414 -4.7155331e-05 -5.0337857e-20)
(0.21641537 -1.7078507e-05 -9.5346861e-20)
(0.18070892 -3.0432788e-06 -1.5586244e-19)
(0.28839355 -4.7271017e-05 1.450007e-18)
(0.28807682 -0.0001137759 2.9081732e-19)
(0.28702341 -0.00016646008 2.1898199e-19)
(0.28424077 -0.00019602637 5.0461082e-19)
(0.27815549 -0.00018188587 2.8077522e-19)
(0.26799601 -0.00013079032 -2.0975942e-19)
(0.25440307 -7.3937494e-05 -3.8061214e-19)
(0.23761477 -3.300397e-05 -1.5431692e-19)
(0.21594074 -1.0715998e-05 -2.1074746e-19)
(0.1805245 -1.3527719e-06 -2.4000491e-19)
(0.29047098 -4.58915e-05 8.0281295e-19)
(0.29004195 -0.00010982926 3.198109e-18)
(0.28863779 -0.0001572934 1.8889292e-19)
(0.28508023 -0.00017633907 -1.48142e-19)
(0.27797083 -0.00015188795 3.1242417e-19)
(0.26720626 -0.00010094756 2.3145689e-19)
(0.25356402 -5.3259386e-05 -1.6905831e-19)
(0.23700054 -2.1698948e-05 -1.9273118e-19)
(0.21560862 -5.6597114e-06 -1.0408319e-19)
(0.1804276 3.3920307e-08 -6.6882754e-20)
(0.29247638 -4.4351584e-05 1.7073856e-20)
(0.29189831 -0.00010531356 7.402236e-19)
(0.29004631 -0.00014628243 1.8307503e-19)
(0.2856247 -0.00015430712 8.3710805e-19)
(0.27762409 -0.00012254023 6.2417754e-19)
(0.26647733 -7.5148682e-05 3.0438033e-19)
(0.25287923 -3.6358348e-05 1.4396221e-19)
(0.23653862 -1.2544628e-05 -7.3319581e-20)
(0.21539111 -1.5276097e-06 -2.8436318e-20)
(0.18040204 1.2058705e-06 1.6100788e-19)
(0.29439901 -4.2542703e-05 1.0747622e-18)
(0.29362441 -9.9894778e-05 2.1444832e-19)
(0.2912191 -0.00013303078 6.0616642e-20)
(0.28590173 -0.00013054596 5.1741232e-19)
(0.27719086 -9.4944672e-05 3.6059988e-19)
(0.26583135 -5.3198685e-05 2.00529e-20)
(0.25233097 -2.2452807e-05 2.2415599e-19)
(0.23620235 -5.0201071e-06 9.185764e-20)
(0.21526449 1.8979097e-06 1.273978e-20)
(0.18043771 2.1940416e-06 -8.9088996e-20)
(0.29622249 -4.0322345e-05 1.2080925e-18)
(0.2951926 -9.3155626e-05 -1.9923248e-19)
(0.29213505 -0.00011739353 1.7710612e-19)
(0.28595989 -0.00010594402 4.4962147e-19)
(0.27672822 -6.9857618e-05 -1.8493408e-19)
(0.26527516 -3.4649439e-05 -1.5111789e-19)
(0.2519011 -1.0910546e-05 1.9021699e-19)
(0.23596806 1.2323334e-06 6.695611e-20)
(0.2152169 4.7064734e-06 2.4051356e-20)
(0.18052212 2.9890746e-06 -4.3924792e-20)
(0.29792336 -3.7501424e-05 4.8144759e-19)
(0.29657071 -8.4660753e-05 8.2228137e-19)
(0.2927892 -9.9552695e-05 3.806605e-19)
(0.28585702 -8.1496663e-05 4.9544674e-19)
(0.27627357 -4.761971e-05 -1.4237237e-19)
(0.26480713 -1.8984043e-05 -9.4851173e-20)
(0.25157193 -1.2538009e-06 -2.8046624e-19)
(0.23582161 6.4207806e-06 -1.9807782e-19)
(0.21523436 6.9892467e-06 -8.5271082e-20)
(0.18064611 3.6204531e-06 -1.7380552e-19)
(0.29946984 -3.3841762e-05 -1.4056201e-18)
(0.29772607 -7.4080602e-05 2.0598956e-18)
(0.29319631 -8.0020264e-05 -1.5133203e-19)
(0.28564804 -5.8126398e-05 -1.3351918e-18)
(0.2758486 -2.8225712e-05 1.0569625e-19)
(0.26442119 -5.6907521e-06 -3.0224438e-19)
(0.25132936 6.8557899e-06 -3.1914521e-19)
(0.23575037 1.070438e-05 -6.3609493e-20)
(0.21530524 8.8445702e-06 -7.7115228e-20)
(0.18080244 4.1231284e-06 -5.3872545e-20)
(0.30082187 -2.9095021e-05 7.6589183e-20)
(0.29863178 -6.1332611e-05 1.4286486e-18)
(0.29338825 -5.9567699e-05 -4.4427514e-19)
(0.28537718 -3.6523193e-05 -7.1744501e-19)
(0.27546383 -1.141797e-05 -2.0877864e-20)
(0.26410764 5.6154715e-06 1.0674488e-19)
(0.25116539 1.3622256e-05 -1.0236011e-19)
(0.23574181 1.4218614e-05 1.8812199e-20)
(0.21542012 1.0354001e-05 -2.9657297e-20)
(0.18098521 4.5256816e-06 1.3305261e-19)
(0.30193378 -2.3108899e-05 2.4965199e-18)
(0.29927342 -4.6685136e-05 1.338278e-18)
(0.29340605 -3.909225e-05 4.6399634e-19)
(0.28507548 -1.7048425e-05 8.0801101e-19)
(0.27512088 3.0827115e-06 1.0347398e-18)
(0.26386444 1.5138994e-05 7.3239608e-19)
(0.25106782 1.9208579e-05 6.9197217e-20)
(0.23578539 1.7093655e-05 -1.3218546e-19)
(0.21557119 1.1580089e-05 -1.5949318e-20)
(0.18118948 4.8473063e-06 -2.0360774e-20)
(0.30276115 -1.5977068e-05 -1.5085461e-18)
(0.29965292 -3.0773508e-05 -9.4217617e-19)
(0.29329059 -1.9436726e-05 -2.3320697e-19)
(0.28476123 1.6716475e-07 -9.4453333e-19)
(0.27482457 1.5439956e-05 1.2205643e-19)
(0.26368339 2.3070722e-05 -3.2852939e-19)
(0.25102649 2.3801707e-05 9.0489117e-20)
(0.23587239 1.9433903e-05 -5.6803034e-20)
(0.21575198 1.2564805e-05 -6.1689687e-20)
(0.18141105 5.0990595e-06 8.6921816e-20)
(0.30327139 -8.1278854e-06 1.2177836e-18)
(0.2997874 -1.4486173e-05 1.4384398e-18)
(0.29307482 -1.3054419e-06 -3.2562765e-19)
(0.2844492 1.5039525e-05 -6.6691142e-19)
(0.27457434 2.5804036e-05 -1.1149853e-18)
(0.26355616 2.9613744e-05 -5.8799753e-19)
(0.25103262 2.7544888e-05 -2.2817033e-19)
(0.23599542 2.1311682e-05 -2.0109923e-20)
(0.21595695 1.3336446e-05 -7.9911926e-20)
(0.18164626 5.28785e-06 2.7810134e-20)
(0.30345402 -2.421003e-07 -6.1603232e-20)
(0.29970269 1.1333563e-06 6.0335021e-19)
(0.29278641 1.4662988e-05 -1.600461e-19)
(0.28414895 2.752656e-05 -3.1206247e-19)
(0.27436561 3.4337551e-05 -2.0806521e-19)
(0.26347497 3.4930729e-05 -1.5180287e-19)
(0.25107851 3.0536895e-05 -8.1434212e-20)
(0.23614809 2.277491e-05 -9.2355112e-20)
(0.21618127 1.3913225e-05 -1.8299775e-20)
(0.18189177 5.41766e-06 4.3095697e-20)
(0.30332517 6.881426e-06 -3.9662193e-18)
(0.299433 1.4985746e-05 -1.6382888e-18)
(0.29244692 2.7995175e-05 -1.7647615e-18)
(0.28386233 3.7677979e-05 -1.8288508e-18)
(0.27419303 4.1188402e-05 -8.073073e-19)
(0.26343257 3.9129062e-05 -3.6748791e-19)
(0.25115729 3.2837027e-05 3.7552331e-20)
(0.23632474 2.3849842e-05 -6.1718315e-20)
(0.21642056 1.4303221e-05 5.1339886e-20)
(0.18214443 5.4892646e-06 1.0312135e-19)
(0.30293053 1.2607404e-05 2.3541429e-18)
(0.29901534 2.6253836e-05 4.3006801e-19)
(0.29206925 3.8509245e-05 -6.443157e-19)
(0.28358876 4.5591174e-05 2.1851543e-19)
(0.27405096 4.6453291e-05 4.3308673e-19)
(0.2634222 4.2268046e-05 4.1410103e-19)
(0.25126272 3.447313e-05 5.3913518e-20)
(0.23652015 2.4544252e-05 4.2148769e-21)
(0.21667065 1.4505177e-05 6.5804146e-20)
(0.18240107 5.5003622e-06 -1.956443e-20)
(0.30233163 1.6686426e-05 1.6608303e-18)
(0.29848533 3.4601549e-05 -2.2815316e-19)
(0.29166294 4.6232464e-05 -1.3659298e-19)
(0.28332652 5.1361347e-05 -5.2085087e-19)
(0.27393382 5.0196091e-05 8.2302755e-20)
(0.26343755 4.4379228e-05 5.2240155e-20)
(0.25138895 3.5453237e-05 1.488297e-19)
(0.23672935 2.4853604e-05 9.6111582e-20)
(0.21692739 1.4511513e-05 5.752393e-20)
(0.18265838 5.4465435e-06 3.5697532e-20)
(0.30159322 1.9182009e-05 8.2249231e-19)
(0.29787657 4.0084489e-05 1.2015463e-18)
(0.29123635 5.1327602e-05 -8.2788438e-19)
(0.28307383 5.510348e-05 -9.4620791e-19)
(0.27383648 5.2478428e-05 -1.5523576e-18)
(0.26347281 4.5487156e-05 -8.9868568e-19)
(0.25153053 3.5779167e-05 -5.6487782e-19)
(0.2369475 2.4769785e-05 -8.0524394e-20)
(0.2171866 1.4313253e-05 -6.5593284e-20)
(0.18291288 5.323147e-06 -4.2467123e-20)
(0.30077403 2.0343642e-05 -6.6728064e-19)
(0.29721991 4.302943e-05 8.0277534e-19)
(0.29079787 5.4063103e-05 -2.3931822e-20)
(0.28282961 5.6974812e-05 -3.2699949e-20)
(0.27375459 5.3382378e-05 -8.1047011e-19)
(0.26352281 4.5627348e-05 -5.8070229e-19)
(0.25168238 3.5460021e-05 -5.9049141e-19)
(0.23716992 2.4290216e-05 -2.9112021e-19)
(0.21744402 1.3905163e-05 -9.0556775e-20)
(0.18316091 5.1271267e-06 -2.4480119e-20)
(0.29992219 2.048346e-05 -2.674116e-18)
(0.29654259 4.389842e-05 -1.9229756e-18)
(0.29035624 5.4780096e-05 -5.6633962e-19)
(0.28259384 5.7181246e-05 -1.723146e-18)
(0.27368474 5.3023686e-05 -1.0563557e-18)
(0.26358307 4.4859767e-05 -1.0327699e-18)
(0.25183984 3.4523428e-05 -1.6375014e-19)
(0.23739212 2.3425886e-05 -2.440831e-19)
(0.21769545 1.3290604e-05 -7.9726223e-20)
(0.1833988 4.8589798e-06 8.320475e-20)
(0.29907422 1.9896474e-05 3.592332e-18)
(0.29586745 4.317879e-05 -1.2870459e-19)
(0.2899202 5.3854412e-05 -1.0095272e-18)
(0.2823675 5.5968692e-05 2.5092435e-19)
(0.27362456 5.1553809e-05 6.4885692e-19)
(0.26364989 4.3274387e-05 2.1807555e-19)
(0.2519988 3.3021233e-05 7.3007751e-20)
(0.23760992 2.2205679e-05 -3.2274675e-20)
(0.21793689 1.2484135e-05 -1.4616923e-19)
(0.18362305 4.5236989e-06 -9.6134505e-20)
(0.29825614 1.8826018e-05 1.5193583e-18)
(0.29521263 4.1315951e-05 -3.5978933e-19)
(0.28949797 5.1661089e-05 -7.6451569e-19)
(0.28215236 5.3605633e-05 4.814881e-19)
(0.27357256 4.915297e-05 9.6421356e-19)
(0.26372035 4.0989294e-05 5.5240665e-19)
(0.25215572 3.1029552e-05 2.5074738e-19)
(0.2378196 2.0676884e-05 1.5457884e-19)
(0.21816472 1.1512001e-05 -6.9853437e-20)
(0.18383054 4.1310086e-06 -8.6653102e-20)
(0.29748543 1.7457835e-05 2.9285538e-19)
(0.29459166 3.868334e-05 2.8953372e-18)
(0.28909669 4.8547207e-05 1.3938526e-18)
(0.28195053 5.0363112e-05 7.7496617e-19)
(0.27352799 4.6017458e-05 -2.17469e-19)
(0.26379223 3.81427e-05 3.6542257e-20)
(0.25230769 2.8643563e-05 -2.3236554e-19)
(0.23801801 1.8901723e-05 6.0182516e-20)
(0.21837593 1.0409979e-05 4.5563675e-20)
(0.18401876 3.6944264e-06 -7.5209581e-20)
(0.29677291 1.592743e-05 -2.1312491e-19)
(0.29401395 3.5576977e-05 2.3078265e-18)
(0.28872209 4.4815757e-05 1.2375785e-18)
(0.28176412 4.6497566e-05 1.0593417e-18)
(0.27349055 4.2345755e-05 3.1806761e-19)
(0.26386388 3.4882404e-05 1.7149922e-19)
(0.25245241 2.5969653e-05 -2.8263231e-19)
(0.23820265 1.6951785e-05 -1.4095659e-19)
(0.21856816 9.2199829e-06 2.8098876e-20)
(0.18418593 3.2299287e-06 1.079736e-20)
(0.29612448 1.4330826e-05 -2.3684613e-18)
(0.29348539 3.2222354e-05 -1.8164829e-18)
(0.28837834 4.0719001e-05 -6.1494185e-19)
(0.2815949 4.2238609e-05 -1.0962633e-18)
(0.27346018 3.8326129e-05 -2.9671203e-19)
(0.26393414 3.1354921e-05 -6.3642338e-19)
(0.25258815 2.3116577e-05 1.5050601e-19)
(0.23837165 1.4901465e-05 -7.1370872e-20)
(0.21873986 7.9858531e-06 9.7989431e-21)
(0.18433107 2.7542064e-06 1.4200664e-19)
(0.29554245 1.2734673e-05 4.7854319e-18)
(0.29300904 2.8786125e-05 1.1851573e-18)
(0.28806807 3.645889e-05 7.9177678e-19)
(0.28144414 3.7782435e-05 7.0714884e-19)
(0.27343686 3.4127691e-05 1.0273691e-18)
(0.26400216 2.7696606e-05 8.4617726e-19)
(0.2527137 2.0187755e-05 5.2501624e-19)
(0.23852383 1.2822088e-05 2.4223093e-19)
(0.21889019 6.7496265e-06 5.0674596e-20)
(0.18445398 2.2831951e-06 -1.6404148e-20)
(0.2950266 1.1184228e-05 1.1588357e-18)
(0.29258574 2.5388072e-05 -1.1046675e-19)
(0.28779256 3.2191413e-05 4.5283028e-19)
(0.28131252 3.3289666e-05 2.4899366e-19)
(0.27342051 2.989497e-05 1.0796537e-18)
(0.26406733 2.4027272e-05 1.0794914e-18)
(0.25282827 1.7275319e-05 5.3062458e-19)
(0.23865858 1.0777218e-05 4.2627018e-19)
(0.21901906 5.5484699e-06 1.769884e-19)
(0.18455517 1.830822e-06 4.6607101e-20)
(0.2945749 9.7093479e-06 1.240229e-18)
(0.2922147 2.2111776e-05 2.893554e-18)
(0.28755187 2.80329e-05 6.929624e-19)
(0.28120012 2.8886549e-05 7.0046479e-20)
(0.27341089 2.5745828e-05 -6.1959714e-19)
(0.26412921 2.0446707e-05 -1.9558486e-19)
(0.25293145 1.4456487e-05 -1.0114663e-19)
(0.23877585 8.8197282e-06 1.7031761e-19)
(0.21912698 4.412781e-06 1.3055155e-19)
(0.18463574 1.4082425e-06 9.6617858e-20)
(0.29418416 8.3288122e-06 6.5255486e-18)
(0.2918939 1.9013305e-05 5.2290824e-18)
(0.28734517 2.4066702e-05 2.4067519e-18)
(0.2811065 2.4668087e-05 2.8605836e-18)
(0.27340761 2.1771796e-05 1.3626858e-18)
(0.26418744 1.7033511e-05 6.5779607e-19)
(0.25302316 1.1791946e-05 3.3087513e-19)
(0.238876 6.9904028e-06 6.2965695e-20)
(0.21921496 3.3652906e-06 5.7191574e-21)
(0.18469722 1.0234878e-06 -2.9377904e-20)
(0.29385043 7.0534708e-06 7.5396653e-19)
(0.29162051 1.6128142e-05 1.2225886e-18)
(0.28717087 2.0349583e-05 3.7158619e-18)
(0.2810308 2.0702216e-05 3.2528018e-18)
(0.27341012 1.8040135e-05 2.6442965e-18)
(0.26424177 1.3845828e-05 2.0089356e-18)
(0.25310353 9.3259939e-06 1.1588546e-18)
(0.23895979 5.3179941e-06 4.3381076e-19)
(0.2192844 2.4211636e-06 3.70867e-19)
(0.18474149 6.8154472e-07 8.7966189e-20)
(0.29356928 5.8885015e-06 -6.899776e-19)
(0.29139116 1.3476514e-05 1.3655556e-18)
(0.28702689 1.6917355e-05 2.8734004e-18)
(0.28097177 1.7034261e-05 2.5748638e-18)
(0.27341773 1.4596824e-05 2.1523205e-18)
(0.264292 1.092327e-05 1.5623846e-18)
(0.25317294 7.0878682e-06 1.0620927e-18)
(0.23902821 3.8202332e-06 6.9156905e-19)
(0.21933694 1.5887404e-06 4.686363e-19)
(0.18477055 3.8472168e-07 2.5315221e-19)
(0.2933361 4.8350926e-06 1.6537365e-18)
(0.29120217 1.106756e-05 2.9196029e-18)
(0.2869108 1.3789791e-05 3.7489501e-18)
(0.28092798 1.3691405e-05 4.1295153e-18)
(0.27342969 1.1470158e-05 3.1670529e-18)
(0.26433799 8.2897623e-06 1.8031755e-18)
(0.2532319 5.0940605e-06 1.3513202e-18)
(0.23908249 2.5057245e-06 9.5831915e-19)
(0.2193744 8.7095978e-07 6.4444165e-19)
(0.18478651 1.3332362e-07 4.9547428e-19)
(0.29314623 3.8916157e-06 1.939197e-18)
(0.29104971 8.9023785e-06 2.2948893e-18)
(0.28681999 1.0974488e-05 3.2087305e-18)
(0.28089782 1.0686461e-05 3.3529644e-18)
(0.27344522 8.6739649e-06 3.1833685e-18)
(0.26437967 5.9561327e-06 2.3418534e-18)
(0.25328104 3.3501982e-06 1.713132e-18)
(0.23912394 1.3750536e-06 1.2856071e-18)
(0.21939866 2.7151923e-07 9.9400743e-19)
(0.18479143 -6.9857419e-08 6.4349924e-19)
(0.29299504 3.0543233e-06 4.221646e-19)
(0.29092993 6.9759384e-06 4.5999468e-19)
(0.28675172 8.4693788e-06 -1.107427e-19)
(0.2808796 8.0203504e-06 1.5351573e-18)
(0.27346349 6.2096509e-06 2.374642e-18)
(0.264417 3.9217385e-06 1.9398588e-18)
(0.25332108 1.8531841e-06 1.745951e-18)
(0.23915393 4.2806416e-07 1.5047547e-18)
(0.21941124 -2.143888e-07 1.0448293e-18)
(0.18478767 -2.2879112e-07 6.4236459e-19)
(0.29287809 2.3180916e-06 2.3050026e-18)
(0.29083906 5.279018e-06 1.3310473e-18)
(0.28670331 6.2655106e-06 2.868237e-18)
(0.28087166 5.6853028e-06 2.2042773e-18)
(0.27348374 4.069614e-06 1.4469095e-18)
(0.26445003 2.1786692e-06 2.4113593e-18)
(0.25335275 5.9859594e-07 1.7376432e-18)
(0.23917355 -3.4398908e-07 1.4816561e-18)
(0.21941461 -6.0483133e-07 1.3438799e-18)
(0.18477678 -3.5435769e-07 7.9949492e-19)
(0.29279116 1.6769856e-06 3.5464525e-18)
(0.29077348 3.7997904e-06 3.1090116e-18)
(0.28667211 4.3494768e-06 3.4573064e-18)
(0.28087237 3.6679688e-06 2.0027583e-18)
(0.27350524 2.2413682e-06 1.8220034e-18)
(0.26447878 7.1799352e-07 2.2163026e-18)
(0.25337659 -4.2776362e-07 1.7640347e-18)
(0.23918483 -9.6400062e-07 1.4843185e-18)
(0.21941034 -9.1351012e-07 1.2858658e-18)
(0.18476023 -4.5125589e-07 9.9537576e-19)
(0.29273025 1.1246106e-06 9.8458327e-19)
(0.29072976 2.5247643e-06 3.3451788e-18)
(0.2866556 2.7049778e-06 3.2117848e-18)
(0.28088015 1.9520473e-06 3.2799023e-18)
(0.27352726 7.1173001e-07 3.2779826e-18)
(0.26450319 -4.7905665e-07 1.7180615e-18)
(0.253394 -1.2537835e-06 1.8572523e-18)
(0.23918902 -1.4514419e-06 1.5819585e-18)
(0.2193999 -1.1471779e-06 1.3818953e-18)
(0.1847394 -5.212607e-07 1.2269989e-18)
(0.29269166 6.5437493e-07 -1.8794436e-19)
(0.29070469 1.4397986e-06 1.6197447e-18)
(0.28665141 1.3154371e-06 2.3133419e-18)
(0.28089349 5.2164891e-07 2.5688795e-18)
(0.27354904 -5.4184447e-07 2.7298172e-18)
(0.2645239 -1.4440406e-06 1.7020455e-18)
(0.25340577 -1.9039468e-06 1.9017818e-18)
(0.23918729 -1.8194787e-06 1.602145e-18)
(0.21938462 -1.3129605e-06 1.3749986e-18)
(0.18471555 -5.6701245e-07 1.0722197e-18)
(0.29267194 2.60121e-07 -1.1695354e-19)
(0.29069525 5.3177953e-07 8.5516379e-19)
(0.28665724 1.6342385e-07 -6.0375505e-19)
(0.28091095 -6.4892931e-07 3.9818825e-19)
(0.27357051 -1.5531608e-06 1.7527346e-18)
(0.26454118 -2.2048649e-06 2.0695457e-18)
(0.25341264 -2.3963719e-06 1.6764107e-18)
(0.23918074 -2.0811375e-06 1.5332537e-18)
(0.21936571 -1.4193827e-06 1.1869512e-18)
(0.18468977 -5.9186597e-07 9.14805e-19)
(0.2926679 -6.4667657e-08 7.0093155e-19)
(0.29069863 -2.1520569e-07 9.3016572e-19)
(0.2866711 -7.7631689e-07 2.1793209e-18)
(0.28093166 -1.5926097e-06 1.2275012e-18)
(0.27359126 -2.3509587e-06 6.3903438e-19)
(0.26455524 -2.7828327e-06 2.3722048e-18)
(0.25341532 -2.7487208e-06 1.77986e-18)
(0.23917035 -2.2501971e-06 1.6894013e-18)
(0.21934425 -1.4752531e-06 1.5867204e-18)
(0.18466299 -5.9921214e-07 1.1632312e-18)
(0.29267668 -3.2801655e-07 1.0159109e-18)
(0.29071243 -8.2040325e-07 1.6613656e-18)
(0.28669134 -1.5302853e-06 2.5917861e-18)
(0.28095459 -2.3348664e-06 2.1507715e-18)
(0.27361098 -2.9574435e-06 1.4000924e-18)
(0.26456635 -3.1986349e-06 1.4795815e-18)
(0.25341449 -2.9790527e-06 1.8431889e-18)
(0.23915703 -2.3402289e-06 1.7487603e-18)
(0.21932115 -1.4889095e-06 1.4710689e-18)
(0.18463597 -5.9217277e-07 1.1949172e-18)
(0.29269577 -5.3732594e-07 1.2350658e-18)
(0.29073449 -1.3002481e-06 3.0686978e-18)
(0.2867164 -2.1185901e-06 3.0700824e-18)
(0.28097887 -2.8971436e-06 2.3290378e-18)
(0.27362942 -3.3945128e-06 1.8489785e-18)
(0.26457478 -3.4729927e-06 1.4634284e-18)
(0.25341078 -3.1048855e-06 1.7228945e-18)
(0.23914158 -2.3639935e-06 1.5853346e-18)
(0.2192972 -1.4680098e-06 1.3761918e-18)
(0.18460935 -5.7356961e-07 1.1954991e-18)
(0.29272295 -6.9850299e-07 2.3543805e-18)
(0.2907629 -1.6684229e-06 2.3006103e-18)
(0.28674493 -2.5595193e-06 2.1520598e-18)
(0.28100376 -3.300397e-06 1.4539723e-18)
(0.27364642 -3.6836942e-06 4.0043897e-19)
(0.26458082 -3.6258452e-06 1.436296e-18)
(0.25340477 -3.1427158e-06 1.4851326e-18)
(0.2391247 -2.3332831e-06 1.5321608e-18)
(0.21927306 -1.4195052e-06 1.482732e-18)
(0.18458361 -5.4595803e-07 1.2707609e-18)
(0.29275622 -8.1716208e-07 3.7942478e-18)
(0.29079598 -1.9379264e-06 2.806275e-18)
(0.28677571 -2.8707627e-06 3.4019164e-18)
(0.28102862 -3.5649797e-06 1.9101898e-18)
(0.27366187 -3.8456724e-06 1.9202425e-18)
(0.26458474 -3.6760718e-06 6.09878e-19)
(0.25339699 -3.1079254e-06 1.1249351e-18)
(0.23910701 -2.258926e-06 1.3616304e-18)
(0.21924929 -1.3496914e-06 1.3509205e-18)
(0.18455913 -5.1167373e-07 1.2451159e-18)
(0.29279386 -8.9863667e-07 2.0639565e-18)
(0.29083222 -2.1211716e-06 3.6857434e-18)
(0.28680773 -3.0693121e-06 4.2857728e-18)
(0.28105294 -3.7103789e-06 2.8872554e-18)
(0.2736757 -3.9000617e-06 2.680663e-18)
(0.26458684 -3.6413476e-06 1.9523889e-18)
(0.25338791 -3.0147063e-06 1.6569955e-18)
(0.23908902 -2.1507653e-06 1.5631599e-18)
(0.2192263 -1.264222e-06 1.5032517e-18)
(0.18453621 -4.7283929e-07 1.1661227e-18)
(0.29283434 -9.479524e-07 1.133068e-18)
(0.29087034 -2.229916e-06 2.0239999e-18)
(0.28684012 -3.1712878e-06 -4.8129879e-19)
(0.28107631 -3.7549852e-06 2.1460016e-18)
(0.27368791 -3.8651823e-06 2.0972917e-18)
(0.26458738 -3.537952e-06 2.6762976e-18)
(0.25337793 -2.8759111e-06 1.9676836e-18)
(0.23907115 -2.0175431e-06 1.6845958e-18)
(0.21920444 -1.1680079e-06 1.5527287e-18)
(0.18451505 -4.3126307e-07 1.2266952e-18)
(0.29287635 -9.6983774e-07 1.2944651e-18)
(0.29090925 -2.2752274e-06 1.9450747e-18)
(0.28687214 -3.1918256e-06 2.233659e-18)
(0.28109841 -3.7159387e-06 2.5067716e-18)
(0.27369852 -3.7579096e-06 2.0003665e-18)
(0.26458662 -3.3806495e-06 2.2048303e-18)
(0.25336744 -2.7029798e-06 2.0179766e-18)
(0.23905375 -1.8668765e-06 1.7521935e-18)
(0.21918396 -1.0652365e-06 1.6773298e-18)
(0.18449576 -3.8844653e-07 1.340578e-18)
(0.2929188 -9.6866495e-07 1.3744763e-18)
(0.29094803 -2.2673619e-06 2.0146084e-18)
(0.28690322 -3.144905e-06 1.6689367e-18)
(0.28111901 -3.6089268e-06 1.5986853e-18)
(0.27370759 -3.5934708e-06 1.3285651e-18)
(0.2645848 -3.1825189e-06 1.7001917e-18)
(0.25335672 -2.5058169e-06 1.9469509e-18)
(0.2390371 -1.70517e-06 1.7985274e-18)
(0.21916503 -9.5929011e-07 1.5888119e-18)
(0.1844784 -3.4551049e-07 1.2401072e-18)
(0.29296076 -9.4847514e-07 8.5070811e-19)
(0.29098593 -2.2157689e-06 8.7657027e-19)
(0.28693289 -3.0433141e-06 2.6806885e-18)
(0.28113795 -3.4481429e-06 1.7071757e-18)
(0.2737152 -3.3854407e-06 2.2670488e-18)
(0.26458216 -2.9550045e-06 7.7669632e-19)
(0.25334605 -2.292898e-06 1.2730872e-18)
(0.2390214 -1.5377657e-06 1.4418102e-18)
(0.21914777 -8.5290959e-07 1.2402135e-18)
(0.18446297 -3.0331713e-07 1.1042719e-18)
(0.2930015 -9.1293711e-07 1.0973869e-18)
(0.29102234 -2.129029e-06 9.5558618e-19)
(0.2869608 -2.8985865e-06 4.4858277e-18)
(0.28115515 -3.2462392e-06 2.400664e-18)
(0.27372147 -3.1457238e-06 1.9643283e-18)
(0.26457888 -2.7079409e-06 1.4249684e-18)
(0.25333564 -2.0713358e-06 1.3141198e-18)
(0.23900681 -1.3690205e-06 1.3415751e-18)
(0.21913221 -7.4824437e-07 1.406805e-18)
(0.18444944 -2.6249987e-07 1.1739198e-18)
(0.2930404 -8.6539034e-07 2.3508907e-18)
(0.2910568 -2.0149135e-06 1.4200951e-18)
(0.2869867 -2.7210747e-06 -8.9501697e-19)
(0.28117055 -3.014435e-06 9.312748e-19)
(0.2737265 -2.884718e-06 1.474152e-18)
(0.26457516 -2.4497729e-06 2.3030057e-18)
(0.25332564 -1.8471275e-06 1.7636676e-18)
(0.23899343 -1.202548e-06 1.5999193e-18)
(0.21911838 -6.470593e-07 1.4210366e-18)
(0.18443775 -2.2359815e-07 1.1903805e-18)
(0.29307701 -8.0882402e-07 1.0045388e-19)
(0.29108896 -1.8803748e-06 2.3025684e-18)
(0.28701041 -2.5199669e-06 2.4766853e-19)
(0.28118416 -2.7625689e-06 1.1503079e-18)
(0.2737304 -2.611403e-06 1.5169188e-18)
(0.26457114 -2.1876627e-06 2.3990015e-18)
(0.25331621 -1.625261e-06 2.1174053e-18)
(0.23898131 -1.0412949e-06 1.784592e-18)
(0.21910624 -5.5076425e-07 1.5167623e-18)
(0.18442779 -1.8705607e-07 1.2825974e-18)
(0.293111 -7.4591731e-07 7.1664816e-19)
(0.29111858 -1.7316134e-06 9.5762312e-19)
(0.28703185 -2.3033812e-06 1.6042946e-18)
(0.28119603 -2.4992255e-06 1.52677e-18)
(0.27373331 -2.3334952e-06 1.196545e-18)
(0.26456697 -1.9276617e-06 1.904986e-18)
(0.25330741 -1.4098743e-06 2.0487959e-18)
(0.23897047 -8.8766264e-07 1.7220045e-18)
(0.21909574 -4.6050049e-07 1.5920964e-18)
(0.18441946 -1.5325564e-07 1.3283235e-18)
(0.29314214 -6.7901106e-07 2.3114178e-18)
(0.29114549 -1.5740529e-06 1.944621e-18)
(0.28705098 -2.078358e-06 3.5142618e-18)
(0.28120621 -2.2317445e-06 3.1595202e-18)
(0.27373533 -2.0574683e-06 3.3543587e-18)
(0.26456275 -1.6747216e-06 1.7404351e-18)
(0.25329933 -1.2042448e-06 1.7719384e-18)
(0.23896091 -7.4346944e-07 1.8321814e-18)
(0.2190868 -3.7707209e-07 1.4136879e-18)
(0.18441264 -1.2243988e-07 1.2219147e-18)
(0.29317031 -6.1014194e-07 2.2617292e-18)
(0.29116964 -1.4123886e-06 4.5194728e-18)
(0.28706782 -1.8509224e-06 4.9921748e-18)
(0.28121481 -1.9663012e-06 3.7930047e-18)
(0.27373658 -1.7886425e-06 2.7238183e-18)
(0.26455858 -1.4327877e-06 2.424819e-18)
(0.25329201 -1.0108694e-06 1.94424e-18)
(0.2389526 -6.1000277e-07 1.8485848e-18)
(0.21907933 -3.0098315e-07 1.7004221e-18)
(0.18440721 -9.4724876e-08 1.3211699e-18)
(0.29319546 -5.4102613e-07 1.3384289e-18)
(0.29119102 -1.2505758e-06 1.8398117e-18)
(0.28708243 -1.6260839e-06 1.1238057e-19)
(0.28122192 -1.7079171e-06 1.6300215e-18)
(0.27373719 -1.5312066e-06 1.783213e-18)
(0.26455455 -1.2048185e-06 1.999655e-18)
(0.25328545 -8.3147625e-07 1.8731005e-18)
(0.23894548 -4.880242e-07 1.6749651e-18)
(0.21907322 -2.3242604e-07 1.6357126e-18)
(0.18440302 -7.0082419e-08 1.3029262e-18)
(0.2932176 -4.7309373e-07 9.8640386e-19)
(0.29120969 -1.0918911e-06 -9.3101006e-20)
(0.28709491 -1.4079184e-06 -2.4581445e-19)
(0.28122768 -1.4605662e-06 9.8764476e-19)
(0.27373724 -1.2883396e-06 1.9122691e-18)
(0.2645507 -9.9291546e-07 1.7925239e-18)
(0.25327965 -6.6715196e-07 1.7160154e-18)
(0.23893949 -3.7788219e-07 1.6895608e-18)
(0.21906834 -1.7137586e-07 1.6173458e-18)
(0.18439993 -4.8407301e-08 1.3539578e-18)
(0.29323683 -4.0749877e-07 3.321489e-19)
(0.29122574 -9.3896928e-07 1.3376117e-18)
(0.28710538 -1.1996373e-06 1.4446906e-18)
(0.2812322 -1.2272712e-06 1.289967e-18)
(0.27373685 -1.0623269e-06 8.1653591e-19)
(0.2645471 -7.9844426e-07 1.5158924e-18)
(0.25327461 -5.1845431e-07 1.6765591e-18)
(0.23893454 -2.7960685e-07 1.7388935e-18)
(0.21906458 -1.1765028e-07 1.5857906e-18)
(0.18439781 -2.9549762e-08 1.3476968e-18)
(0.29325326 -3.4515472e-07 9.8546809e-20)
(0.29123932 -7.9387873e-07 2.2975095e-18)
(0.28711399 -1.0036933e-06 3.9644398e-18)
(0.28123561 -1.0102398e-06 2.709551e-18)
(0.2737361 -8.547108e-07 2.2878657e-18)
(0.26454376 -6.2218522e-07 1.2359722e-18)
(0.25327029 -3.8554815e-07 1.5736547e-18)
(0.23893056 -1.9301661e-07 1.5325293e-18)
(0.21906181 -7.0994144e-08 1.2772689e-18)
(0.18439653 -1.3370691e-08 1.1918773e-18)
(0.29326705 -2.8675537e-07 1.5089497e-18)