/*--------------------------------*- C++ -*----------------------------------*\
| =========                 |                                                 |
| \\      /  F ield         | OpenFOAM: The Open Source CFD Toolbox           |
|  \\    /   O peration     | Version:  2506                                  |
|   \\  /    A nd           | Website:  www.openfoam.com                      |
|    \\/     M anipulation  |                                                 |
\*---------------------------------------------------------------------------*/
FoamFile
{
    version     2.0;
    format      ascii;
    arch        "LSB;label=32;scalar=64";
    class       volScalarField;
    location    "25000/water";
    object      epsilon;
}
// * * * * * * * * * * * * * * * * * * * * * * * * * * * * * * * * * * * * * //

dimensions      [0 2 -3 0 0 0 0];

internalField   nonuniform List<scalar> 
2600
(
8.8079773e-05
8.8079245e-05
8.8079271e-05
8.807949e-05
8.8079744e-05
8.8080245e-05
8.8082926e-05
8.8104349e-05
8.8272771e-05
8.9512908e-05
9.8428186e-05
0.00017145296
0.0010138716
6.7789348e-05
6.7791881e-05
6.7793339e-05
6.7794963e-05
6.7796901e-05
6.7799886e-05
6.7810178e-05
6.7875511e-05
6.8312468e-05
7.1039872e-05
8.7857083e-05
0.00021159534
0.0014669324
5.3500886e-05
5.3503148e-05
5.3504846e-05
5.3506859e-05
5.3509287e-05
5.3513643e-05
5.3532992e-05
5.3656306e-05
5.4399641e-05
5.8506995e-05
8.1500797e-05
0.00023956052
0.0017068244
4.3127504e-05
4.3128883e-05
4.3130503e-05
4.3132598e-05
4.3135149e-05
4.3140834e-05
4.3171684e-05
4.3362646e-05
4.4413342e-05
4.9710824e-05
7.7552644e-05
0.00025818579
0.0017816909
3.539909e-05
3.5400132e-05
3.5401605e-05
3.5403513e-05
3.5405834e-05
3.5412916e-05
3.5457613e-05
3.5722605e-05
3.7073304e-05
4.3450503e-05
7.5629285e-05
0.00027290618
0.0017622817
2.9510599e-05
2.9511446e-05
2.95127e-05
2.9514227e-05
2.9516143e-05
2.9525119e-05
2.9586798e-05
2.9933924e-05
3.159515e-05
3.9095388e-05
7.5939385e-05
0.00028837858
0.0017002497
2.4935213e-05
2.4935877e-05
2.4936847e-05
2.4937875e-05
2.4939416e-05
2.4951342e-05
2.503458e-05
2.5477125e-05
2.7489448e-05
3.6318413e-05
7.8818158e-05
0.0003073199
0.0016256765
2.1318423e-05
2.1318913e-05
2.1319549e-05
2.132003e-05
2.1321464e-05
2.1338095e-05
2.144948e-05
2.2008273e-05
2.4447975e-05
3.4968795e-05
8.4593389e-05
0.00033066897
0.0015541994
1.8415642e-05
1.8415958e-05
1.8416233e-05
1.8416208e-05
1.8418091e-05
1.8442025e-05
1.8590687e-05
1.9295945e-05
2.2279378e-05
3.5010665e-05
9.3512814e-05
0.00035786641
0.0014930959
1.6054297e-05
1.6054439e-05
1.6054351e-05
1.6053968e-05
1.6057197e-05
1.6092028e-05
1.6290179e-05
1.7183376e-05
2.0872546e-05
3.6486908e-05
0.00010564207
0.00038720676
0.0014449141
1.411016e-05
1.4110129e-05
1.4109712e-05
1.4109249e-05
1.4115119e-05
1.4165612e-05
1.4429188e-05
1.5565379e-05
2.0175367e-05
3.9486471e-05
0.00012074249
0.00041640751
0.0014094648
1.249217e-05
1.2491978e-05
1.249131e-05
1.24912e-05
1.2501471e-05
1.2573786e-05
1.2923263e-05
1.4374121e-05
2.0181311e-05
4.4103574e-05
0.00013819401
0.0004433175
0.0013850187
1.1132483e-05
1.1132152e-05
1.1131368e-05
1.1132227e-05
1.1149209e-05
1.1251189e-05
1.1712642e-05
1.3570321e-05
2.0918928e-05
5.0386672e-05
0.00015703479
0.00046647967
0.0013691707
9.9797899e-06
9.9793621e-06
9.9786681e-06
9.9813266e-06
1.0007987e-05
1.0149541e-05
1.0756002e-05
1.3137755e-05
2.2440689e-05
5.8285037e-05
0.00017613324
0.00048532286
0.0013594869
8.994766e-06
8.994305e-06
8.9939894e-06
8.9995396e-06
9.0396464e-06
9.2332357e-06
1.0026406e-05
1.3079617e-05
2.4808572e-05
6.7609618e-05
0.00019442665
0.00050000486
0.0013539038
8.1468971e-06
8.1464947e-06
8.1469469e-06
8.1567947e-06
8.2150975e-06
8.4763588e-06
9.5087285e-06
1.3415553e-05
2.807526e-05
7.8026841e-05
0.0002111215
0.00051110137
0.0013508788
7.4122408e-06
7.412023e-06
7.4137548e-06
7.4296903e-06
7.5121568e-06
7.8606834e-06
9.1980663e-06
1.4178291e-05
3.2262331e-05
8.9094588e-05
0.00022578146
0.00051932558
0.0013493668
6.7718206e-06
6.7719549e-06
6.7756276e-06
6.7999151e-06
6.9140283e-06
7.3743439e-06
9.0987625e-06
1.5408888e-05
3.7339829e-05
0.00010033155
0.00023829849
0.00052535583
0.0013487149
6.2104575e-06
6.2111621e-06
6.2176208e-06
6.2531142e-06
6.4082476e-06
7.0110033e-06
9.2236697e-06
1.7149875e-05
4.3213605e-05
0.00011129559
0.0002487951
0.00052976262
0.0013485457
5.7159095e-06
5.7174657e-06
5.7277834e-06
5.7780724e-06
5.9859581e-06
6.7693776e-06
9.5932706e-06
1.9436232e-05
4.9726067e-05
0.00012164393
0.00025751549
0.00053299526
0.0013486594
5.2782322e-06
5.2809984e-06
5.2965329e-06
5.3661281e-06
5.6414368e-06
6.6530083e-06
1.0234238e-05
2.228513e-05
5.6672016e-05
0.00013115952
0.00026474159
0.0005353945
0.0013489619
4.889296e-06
4.893728e-06
4.9161934e-06
5.0107595e-06
5.3718124e-06
6.6701645e-06
1.1177042e-05
2.5686553e-05
6.3825677e-05
0.00013974422
0.00027074337
0.00053721257
0.0013494179
4.5424222e-06
4.549097e-06
4.5806559e-06
4.707302e-06
5.1769356e-06
6.8337316e-06
1.2452335e-05
2.9597476e-05
7.0970789e-05
0.00014739148
0.0002757568
0.0005386328
0.0013500205
4.2321037e-06
4.2417515e-06
4.2851315e-06
4.4527719e-06
5.0593678e-06
7.1609028e-06
1.4086152e-05
3.394183e-05
7.7925112e-05
0.00015415333
0.00027997823
0.00053978641
0.0013507744
3.9537926e-06
3.9673375e-06
4.0259782e-06
4.2457763e-06
5.0244498e-06
7.6724685e-06
1.6094424e-05
3.8616919e-05
8.4553951e-05
0.00016011197
0.00028356674
0.00054076616
0.0013516866
3.7037376e-06
3.7223496e-06
3.8005873e-06
4.0864974e-06
5.0804009e-06
8.3914976e-06
1.8477844e-05
4.3504911e-05
9.077206e-05
0.00016536002
0.00028664926
0.00054163685
0.0013527623
3.4788613e-06
3.504022e-06
3.6073203e-06
3.9767408e-06
5.2383695e-06
9.3412706e-06
2.1218352e-05
4.8486363e-05
9.6537094e-05
0.00016998886
0.00028932618
0.00054244334
0.0013540034
3.2766694e-06
3.3102566e-06
3.4454921e-06
3.9200366e-06
5.5123349e-06
1.0542478e-05
2.427837e-05
5.3452375e-05
0.00010183911
0.00017408281
0.00029167656
0.00054321637
0.0013554084
3.0951868e-06
3.1395803e-06
3.315394e-06
3.9217755e-06
5.9187331e-06
1.2009945e-05
2.7603266e-05
5.8312862e-05
0.0001066899
0.00017771679
0.00029376257
0.00054397675
0.0013569729
2.9329181e-06
2.991133e-06
3.2183574e-06
3.9893517e-06
6.47568e-06
1.3749403e-05
3.112658e-05
6.3000084e-05
0.00011111418
0.0001809559
0.00029563313
0.00054473837
0.0013586903
2.7888292e-06
2.8646819e-06
3.1568532e-06
4.132263e-06
7.2016967e-06
1.5755029e-05
3.4776807e-05
6.7468123e-05
0.00011514328
0.00018385585
0.00029732665
0.00054550992
0.0013605531
2.6623516e-06
2.7606641e-06
3.1346228e-06
4.362102e-06
8.1139275e-06
1.8008404e-05
3.8484155e-05
7.1689804e-05
0.00011881108
0.00018646428
0.00029887505
0.00054629402
0.0013625491
2.5534088e-06
2.680258e-06
3.1568304e-06
4.6923496e-06
9.22598e-06
2.0479254e-05
4.21859e-05
7.5652556e-05
0.00012215122
0.00018882083
0.00030030032
0.00054708344
0.001364665
2.4624667e-06
2.6254827e-06
3.2302147e-06
5.1378784e-06
1.0545685e-05
2.3127918e-05
4.5829652e-05
7.9354439e-05
0.00012519597
0.00019095973
0.00030162122
0.00054787013
0.0013668874
2.3906118e-06
2.5993266e-06
3.3632045e-06
5.7140891e-06
1.2073206e-05
2.5908984e-05
4.9374527e-05
8.2800767e-05
0.00012797522
0.0001929092
0.00030285018
0.00054865288
0.0013692048
2.3396576e-06
2.6059009e-06
3.565945e-06
6.4356565e-06
1.379994e-05
2.8775319e-05
5.2790668e-05
8.6001443e-05
0.00013051585
0.00019469159
0.00030399376
0.00054944273
0.0013716092
2.3122834e-06
2.6506068e-06
3.8501618e-06
7.3149531e-06
1.5708513e-05
3.1681692e-05
5.6057927e-05
8.8969441e-05
0.00013284315
0.00019632773
0.00030505437
0.00055025018
0.0013740956
2.312204e-06
2.7402971e-06
4.2287855e-06
8.360338e-06
1.7773921e-05
3.4587408e-05
5.9163895e-05
9.1718485e-05
0.000134977
0.0001978295
0.00030604752
0.00055107622
0.0013766577
2.3443664e-06
2.8833943e-06
4.7152659e-06
9.5746045e-06
1.9965609e-05
3.7457895e-05
6.2102575e-05
9.4263947e-05
0.00013693775
0.00019920349
0.00030698675
0.00055192215
0.0013792894
2.4151613e-06
3.0899099e-06
5.3225443e-06
1.0953905e-05
2.2249993e-05
4.026506e-05
6.4872079e-05
9.6618923e-05
0.00013873802
0.00020046565
0.00030788006
0.00055278756
0.0013819844
2.5326205e-06
3.3712892e-06
6.0617309e-06
1.2487421e-05
2.4593018e-05
4.2987257e-05
6.7474461e-05
9.8797812e-05
0.00014038632
0.00020163083
0.00030873382
0.00055367121
0.0013847362
2.7065545e-06
3.739997e-06
6.940629e-06
1.4157864e-05
2.6962172e-05
4.5608169e-05
6.9912765e-05
0.00010081055
0.00014189658
0.00020271014
0.00030955281
0.00055457138
0.0013875385
2.9485502e-06
4.2087762e-06
7.9623504e-06
1.5942734e-05
2.9328091e-05
4.8116704e-05
7.2192972e-05
0.0001026631
0.00014328329
0.00020371266
0.00031034058
0.00055548596
0.0013903847
3.2717207e-06
4.7895536e-06
9.1242823e-06
1.7815987e-05
3.1665001e-05
5.0504533e-05
7.431848e-05
0.00010436656
0.00014455809
0.0002046458
0.00031109971
0.0005564126
0.0013932686
3.6900858e-06
5.492073e-06
1.0417684e-05
1.9750012e-05
3.3951699e-05
5.2768183e-05
7.6289668e-05
0.00010593299
0.00014573089
0.00020551555
0.00031183197
0.00055734878
0.0013961839
4.2174848e-06
6.3224281e-06
1.1827952e-05
2.171714e-05
3.6170246e-05
5.4901159e-05
7.8113757e-05
0.00010737249
0.00014680993
0.00020632674
0.00031253852
0.00055829182
0.0013991244
4.8660262e-06
7.2817748e-06
1.3335593e-05
2.3691123e-05
3.8306688e-05
5.6898167e-05
7.9798304e-05
0.0001086939
0.00014780214
0.00020708321
0.00031321994
0.00055923891
0.0014020837
5.6442496e-06
8.3655568e-06
1.4917866e-05
2.564878e-05
4.0344257e-05
5.8760206e-05
8.1350099e-05
0.00010990478
0.00014871321
0.00020778792
0.00031387636
0.00056018713
0.0014050556
6.5553596e-06
9.5634601e-06
1.6550686e-05
2.756532e-05
4.2272541e-05
6.0488807e-05
8.2775227e-05
0.00011101156
0.00014954783
0.00020844308
0.00031450744
0.00056113341
0.0014080338
7.5961538e-06
1.0860441e-05
1.8207369e-05
2.9419101e-05
4.4084529e-05
6.2085813e-05
8.4079032e-05
0.0001120196
0.00015030968
0.00020905021
0.00031511248
0.00056207453
0.0014110119
8.7563156e-06
1.2235551e-05
1.9861232e-05
3.1193216e-05
4.5774964e-05
6.3553179e-05
8.526611e-05
0.00011293328
0.00015100165
0.00020961023
0.00031569037
0.0005630071
0.0014139831
1.0017522e-05
1.3664335e-05
2.1488448e-05
3.2873858e-05
4.7340053e-05
6.4892866e-05
8.6340346e-05
0.00011375612
0.0001516258
0.00021012347
0.00031623965
0.00056392754
0.0014169405
1.1355901e-05
1.5121211e-05
2.3068171e-05
3.4450178e-05
4.8777289e-05
6.6106811e-05
8.7304984e-05
0.00011449085
0.00015218355
0.00021058974
0.00031675851
0.00056483203
0.0014198766
1.2744265e-05
1.6581081e-05
2.4582903e-05
3.5914123e-05
5.0085355e-05
6.719697e-05
8.8162738e-05
0.00011513953
0.00015267569
0.00021100843
0.00031724482
0.00056571653
0.0014227834
1.4154482e-05
1.8020638e-05
2.6018604e-05
3.7260265e-05
5.1264092e-05
6.8165414e-05
8.8915932e-05
0.0001157037
0.00015310253
0.00021137849
0.00031769616
0.00056657676
0.0014256524
1.5559581e-05
1.9419302e-05
2.7364607e-05
3.8485598e-05
5.231449e-05
6.901445e-05
8.9566666e-05
0.0001161845
0.00015346401
0.0002116986
0.0003181099
0.00056740825
0.0014284744
1.693534e-05
2.0759787e-05
2.8613379e-05
3.9589304e-05
5.323867e-05
6.9746758e-05
9.0116989e-05
0.00011658289
0.00015375983
0.00021196724
0.00031848325
0.00056820636
0.0014312396
1.826127e-05
2.2028326e-05
2.9760207e-05
4.0572479e-05
5.4039843e-05
7.0365497e-05
9.0569079e-05
0.00011689975
0.00015398961
0.00021218285
0.00031881338
0.00056896642
0.0014339377
1.9521049e-05
2.3214636e-05
3.0802835e-05
4.1437842e-05
5.4722228e-05
7.0874393e-05
9.0925392e-05
0.00011713614
0.00015415307
0.00021234391
0.0003190976
0.00056968381
0.0014365579
2.0702516e-05
2.4311689e-05
3.1741086e-05
4.2189436e-05
5.5290937e-05
7.1277773e-05
9.1188791e-05
0.00011729337
0.00015425016
0.00021244916
0.00031933341
0.00057035413
0.0014390893
2.1797371e-05
2.5315354e-05
3.257649e-05
4.2832332e-05
5.5751828e-05
7.1580558e-05
9.1362625e-05
0.00011737319
0.0001542812
0.00021249774
0.00031951873
0.00057097332
0.0014415208
2.2800694e-05
2.6223984e-05
3.3311941e-05
4.3372362e-05
5.6111337e-05
7.1788218e-05
9.1450777e-05
0.00011737786
0.00015424704
0.00021248926
0.00031965201
0.00057153789
0.001443842
2.3710404e-05
2.7037978e-05
3.3951388e-05
4.3815874e-05
5.6376315e-05
7.1906691e-05
9.1457656e-05
0.00011731022
0.00015414911
0.000212424
0.00031973233
0.00057204498
0.0014460427
2.4526702e-05
2.7759361e-05
3.4499555e-05
4.4169529e-05
5.6553869e-05
7.1942283e-05
9.1388169e-05
0.00011717368
0.00015398951
0.00021230291
0.00031975954
0.00057249255
0.001448114
2.5251562e-05
2.8391404e-05
3.4961707e-05
4.444013e-05
5.6651213e-05
7.1901559e-05
9.1247655e-05
0.00011697222
0.00015377099
0.00021212768
0.00031973427
0.00057287945
0.0014500481
2.5888278e-05
2.8938287e-05
3.5343456e-05
4.4634486e-05
5.6675546e-05
7.1791235e-05
9.1041803e-05
0.00011671034
0.00015349695
0.00021190076
0.00031965799
0.00057320542
0.0014518386
2.6441083e-05
2.9404817e-05
3.5650592e-05
4.4759303e-05
5.6633949e-05
7.1618068e-05
9.0776555e-05
0.00011639299
0.00015317136
0.00021162527
0.00031953295
0.00057347116
0.0014534809
2.6914835e-05
2.9796197e-05
3.5888958e-05
4.4821108e-05
5.6533306e-05
7.1388767e-05
9.0458014e-05
0.00011602548
0.00015279874
0.00021130498
0.00031936213
0.00057367826
0.0014549719
2.7314771e-05
3.0117837e-05
3.6064346e-05
4.4826184e-05
5.6380237e-05
7.1109906e-05
9.0092344e-05
0.00011561335
0.00015238399
0.0002109442
0.00031914914
0.0005738291
0.0014563107
2.7646312e-05
3.0375211e-05
3.6182417e-05
4.4780538e-05
5.618106e-05
7.0787858e-05
8.968568e-05
0.00011516233
0.00015193234
0.00021054764
0.00031889813
0.00057392679
0.0014574976
2.7914912e-05
3.0573747e-05
3.6248645e-05
4.4689865e-05
5.5941755e-05
7.0428743e-05
8.9244049e-05
0.00011467816
0.0001514492
0.00021012035
0.00031861363
0.00057397499
0.0014585351
2.8125956e-05
3.0718741e-05
3.6268275e-05
4.4559537e-05
5.5667948e-05
7.0038382e-05
8.8773301e-05
0.00011416657
0.00015094006
0.00020966751
0.00031830045
0.00057397783
0.0014594269
2.8284675e-05
3.0815303e-05
3.6246294e-05
4.4394596e-05
5.53649e-05
6.9622267e-05
8.8279044e-05
0.00011363314
0.00015041038
0.00020919438
0.0003179635
0.00057393972
0.0014601782
2.8396093e-05
3.0868314e-05
3.6187415e-05
4.4199748e-05
5.5037506e-05
6.9185542e-05
8.7766605e-05
0.00011308328
0.00014986552
0.00020870617
0.00031760771
0.00057386524
0.0014607953
2.8464992e-05
3.08824e-05
3.6096062e-05
4.3979369e-05
5.4690295e-05
6.8732988e-05
8.7240986e-05
0.0001125221
0.00014931061
0.00020820791
0.0003172379
0.00057375899
0.0014612853
2.8495889e-05
3.0861917e-05
3.5976374e-05
4.3737515e-05
5.432744e-05
6.8269018e-05
8.6706845e-05
0.00011195443
0.00014875054
0.0002077044
0.00031685868
0.00057362555
0.0014616562
2.8493022e-05
3.0810943e-05
3.5832203e-05
4.3477923e-05
5.3952765e-05
6.7797679e-05
8.6168473e-05
0.00011138475
0.00014818984
0.00020720013
0.0003164744
0.0005734693
0.0014619165
2.8460351e-05
3.073328e-05
3.5667117e-05
4.3204031e-05
5.3569758e-05
6.7322654e-05
8.562979e-05
0.00011081716
0.0001476327
0.00020669924
0.00031608905
0.00057329443
0.0014620749
2.8401556e-05
3.0632455e-05
3.5484411e-05
4.2918984e-05
5.3181586e-05
6.6847273e-05
8.5094337e-05
0.00011025537
0.0001470829
0.00020620548
0.00031570628
0.00057310483
0.0014621402
2.8320042e-05
3.0511725e-05
3.5287116e-05
4.2625648e-05
5.2791107e-05
6.6374523e-05
8.4565288e-05
0.00010970271
0.00014654385
0.00020572216
0.00031532932
0.00057290412
0.0014621215
2.8218951e-05
3.0374092e-05
3.5078007e-05
4.2326626e-05
5.2400885e-05
6.5907064e-05
8.4045453e-05
0.00010916211
0.0001460185
0.0002052522
0.00031496099
0.00057269554
0.0014620273
2.8101172e-05
3.022231e-05
3.4859619e-05
4.202427e-05
5.2013212e-05
6.544724e-05
8.3537291e-05
0.00010863613
0.00014550942
0.00020479808
0.00031460371
0.00057248202
0.0014618663
2.7969351e-05
3.0058896e-05
3.4634256e-05
4.1720696e-05
5.1630115e-05
6.4997104e-05
8.3042927e-05
0.00010812695
0.00014501877
0.00020436186
0.00031425949
0.00057226613
0.0014616466
2.7825903e-05
2.9886144e-05
3.4404003e-05
4.1417795e-05
5.125338e-05
6.4558426e-05
8.256417e-05
0.00010763639
0.00014454835
0.00020394523
0.00031392997
0.0005720501
0.0014613761
2.7673028e-05
2.9706137e-05
3.4170743e-05
4.1117252e-05
5.0884562e-05
6.4132718e-05
8.2102533e-05
0.00010716597
0.00014409958
0.00020354949
0.0003136164
0.00057183579
0.001461062
2.7512721e-05
2.952076e-05
3.3936164e-05
4.0820555e-05
5.0525007e-05
6.3721252e-05
8.1659249e-05
0.00010671685
0.00014367355
0.00020317562
0.00031331982
0.00057162456
0.001460711
2.7346788e-05
2.9331712e-05
3.3701776e-05
4.0529011e-05
5.0175861e-05
6.3325074e-05
8.1235299e-05
0.00010628996
0.00014327104
0.00020282425
0.00031304074
0.00057141648
0.0014603286
2.7176853e-05
2.9140518e-05
3.3468919e-05
4.0243757e-05
4.9838092e-05
6.2945027e-05
8.0831431e-05
0.00010588593
0.00014289262
0.00020249589
0.00031277955
0.00057120933
0.0014599199
2.7004378e-05
2.8948541e-05
3.3238779e-05
3.9965775e-05
4.9512496e-05
6.2581765e-05
8.0448176e-05
0.00010550517
0.00014253849
0.00020219043
0.00031253533
0.00057100468
0.0014594899
2.6830667e-05
2.8756994e-05
3.3012394e-05
3.96959e-05
4.9199721e-05
6.2235775e-05
8.0085893e-05
0.00010514793
0.00014220885
0.00020190799
0.00031230608
0.00057080564
0.0014590439
2.6656883e-05
2.8566951e-05
3.2790671e-05
3.9434836e-05
4.8900275e-05
6.1907396e-05
7.9744766e-05
0.00010481423
0.00014190342
0.00020164696
0.00031209269
0.00057061378
0.0014585869
2.6484054e-05
2.8379357e-05
3.2574391e-05
3.9183167e-05
4.8614539e-05
6.1596823e-05
7.9424814e-05
0.00010450388
0.00014162169
0.00020140636
0.00031189568
0.00057043028
0.0014581235
2.6313088e-05
2.8195036e-05
3.2364224e-05
3.8941365e-05
4.8342787e-05
6.1304147e-05
7.9125971e-05
0.00010421666
0.00014136219
0.00020118618
0.00031171514
0.00057025591
0.0014576575
2.6144779e-05
2.8014708e-05
3.2160734e-05
3.8709804e-05
4.808519e-05
6.1029344e-05
7.884799e-05
0.00010395153
0.00014112445
0.00020098612
0.00031155092
0.00057009116
0.0014571927
2.5979819e-05
2.7838988e-05
3.1964393e-05
3.8488767e-05
4.7841828e-05
6.0772281e-05
7.8590341e-05
0.00010370765
0.00014090798
0.00020080566
0.00031140265
0.00056993628
0.001456732
2.5818807e-05
2.7668404e-05
3.1775588e-05
3.8278461e-05
4.7612711e-05
6.0532712e-05
7.8352164e-05
0.00010348451
0.00014071217
0.00020064417
0.00031126983
0.00056979133
0.0014562782
2.5662254e-05
2.7503402e-05
3.1594636e-05
3.8079038e-05
4.7397763e-05
6.0309965e-05
7.8132971e-05
0.00010328148
0.00014053631
0.00020050089
0.00031115183
0.00056965625
0.0014558334
2.5510601e-05
2.7344363e-05
3.1421803e-05
3.7890538e-05
4.7196579e-05
6.0103649e-05
7.7932216e-05
0.0001030979
0.00014037959
0.00020037501
0.00031104797
0.00056953086
0.0014553997
2.5364229e-05
2.7191606e-05
3.1257215e-05
3.7712813e-05
4.7008901e-05
5.991333e-05
7.7749296e-05
0.00010293299
0.00014024115
0.00020026565
0.00031095751
0.00056941493
0.0014549786
2.5223416e-05
2.7045322e-05
3.1100916e-05
3.754575e-05
4.6834438e-05
5.9738536e-05
7.7583568e-05
0.00010278597
0.00014012011
0.00020017188
0.00031087968
0.00056930819
0.0014545714
2.5088365e-05
2.6905644e-05
3.0952915e-05
3.7389201e-05
4.6672866e-05
5.9578758e-05
7.7434348e-05
0.00010265601
0.00014001552
0.00020009277
0.00031081371
0.00056921035
0.0014541791
2.4959227e-05
2.6772665e-05
3.0813186e-05
3.7242988e-05
4.6523829e-05
5.943346e-05
7.7300928e-05
0.00010254226
0.00013992646
0.00020002739
0.00031075883
0.00056912109
0.0014538026
2.4836105e-05
2.6646433e-05
3.0681669e-05
3.71069e-05
4.6386946e-05
5.930208e-05
7.7182574e-05
0.00010244383
0.00013985194
0.00019997479
0.00031071427
0.0005690401
0.0014534427
2.4719066e-05
2.6526961e-05
3.0558271e-05
3.6980702e-05
4.626181e-05
5.9184034e-05
7.7078536e-05
0.00010235984
0.00013979103
0.00019993404
0.00031067926
0.00056896703
0.0014530998
2.4608138e-05
2.6414229e-05
3.0442871e-05
3.686413e-05
4.6147993e-05
5.9078722e-05
7.6988054e-05
0.00010228942
0.00013974278
0.00019990421
0.00031065307
0.00056890152
0.0014527744
2.4503318e-05
2.6308188e-05
3.0335319e-05
3.6756899e-05
4.604505e-05
5.8985531e-05
7.691036e-05
0.00010223167
0.00013970623
0.00019988442
0.00031063494
0.00056884316
0.0014524668
2.4404575e-05
2.6208759e-05
3.0235445e-05
3.6658707e-05
4.5952522e-05
5.8903839e-05
7.6844687e-05
0.00010218571
0.00013968047
0.00019987377
0.00031062415
0.00056879154
0.0014521771
2.431185e-05
2.611584e-05
3.0143056e-05
3.6569232e-05
4.5869938e-05
5.8833022e-05
7.679027e-05
0.00010215069
0.0001396646
0.00019987141
0.00031061999
0.00056874622
0.0014519051
2.4225063e-05
2.602931e-05
3.0057939e-05
3.648814e-05
4.579682e-05
5.8772454e-05
7.6746356e-05
0.00010212576
0.00013965775
0.00019987653
0.00031062181
0.00056870679
0.0014516508
2.4144112e-05
2.5949025e-05
2.9979868e-05
3.6415087e-05
4.5732684e-05
5.8721512e-05
7.6712201e-05
0.0001021101
0.00013965908
0.00019988834
0.00031062897
0.00056867284
0.0014514138
2.4068877e-05
2.5874826e-05
2.9908603e-05
3.6349717e-05
4.5677046e-05
5.867958e-05
7.6687078e-05
0.00010210292
0.00013966779
0.00019990612
0.00031064086
0.00056864397
0.0014511936
2.3999222e-05
2.5806539e-05
2.9843891e-05
3.6291673e-05
4.5629422e-05
5.864605e-05
7.667028e-05
0.00010210344
0.00013968311
0.00019992917
0.00031065696
0.00056861985
0.0014509899
2.3934995e-05
2.5743977e-05
2.9785472e-05
3.624059e-05
4.558933e-05
5.8620328e-05
7.6661121e-05
0.00010211093
0.00013970431
0.00019995685
0.00031067675
0.00056860016
0.0014508022
2.3876035e-05
2.5686943e-05
2.9733077e-05
3.6196102e-05
4.5556294e-05
5.860183e-05
7.6658935e-05
0.0001021247
0.00013973072
0.00019998854
0.00031069978
0.00056858463
0.00145063
2.3822165e-05
2.563523e-05
2.9686431e-05
3.6157842e-05
4.5529842e-05
5.8589988e-05
7.6663081e-05
0.00010214406
0.00013976169
0.00020002368
0.00031072561
0.00056857296
0.0014504727
2.3773205e-05
2.5588624e-05
2.9645257e-05
3.6125445e-05
4.5509514e-05
5.8584251e-05
7.6672944e-05
0.00010216838
0.00013979659
0.00020006174
0.00031075382
0.00056856489
0.00145033
2.3728961e-05
2.5546903e-05
2.9609273e-05
3.6098549e-05
4.5494855e-05
5.8584082e-05
7.668793e-05
0.00010219705
0.00013983485
0.00020010221
0.00031078402
0.00056856012
0.0014502012
2.3689238e-05
2.5509844e-05
2.9578197e-05
3.6076793e-05
4.5485423e-05
5.8588965e-05
7.6707476e-05
0.0001022295
0.00013987594
0.00020014463
0.00031081585
0.00056855835
0.0014500859
2.3653833e-05
2.5477217e-05
2.9551747e-05
3.6059824e-05
4.5480787e-05
5.8598403e-05
7.6731041e-05
0.00010226517
0.00013991933
0.00020018855
0.00031084894
0.00056855929
0.0014499834
2.3622541e-05
2.5448792e-05
2.9529641e-05
3.6047295e-05
4.5480531e-05
5.861192e-05
7.6758116e-05
0.00010230355
0.00013996456
0.00020023358
0.00031088298
0.00056856263
0.0014498932
2.3595152e-05
2.5424338e-05
2.9511603e-05
3.6038866e-05
4.5484251e-05
5.8629061e-05
7.6788219e-05
0.00010234419
0.00014001119
0.00020027934
0.00031091767
0.00056856811
0.0014498144
2.3571459e-05
2.5403623e-05
2.9497357e-05
3.6034209e-05
4.5491559e-05
5.8649393e-05
7.6820895e-05
0.00010238662
0.00014005882
0.00020032551
0.00031095275
0.00056857549
0.0014497464
2.3551251e-05
2.5386419e-05
2.9486634e-05
3.6033001e-05
4.5502085e-05
5.8672506e-05
7.6855721e-05
0.00010243044
0.00014010709
0.00020037178
0.000310988
0.00056858458
0.0014496885
2.3534319e-05
2.5372497e-05
2.947917e-05
3.6034932e-05
4.5515473e-05
5.8698013e-05
7.68923e-05
0.00010247527
0.00014015567
0.0002004179
0.00031102322
0.00056859521
0.0014496402
2.3520457e-05
2.5361634e-05
2.9474708e-05
3.6039705e-05
4.5531384e-05
5.8725548e-05
7.6930261e-05
0.00010252077
0.00014020426
0.00020046363
0.00031105823
0.00056860722
0.0014496008
2.3509459e-05
2.535361e-05
2.9472997e-05
3.604703e-05
4.5549496e-05
5.8754769e-05
7.6969262e-05
0.00010256661
0.00014025257
0.00020050874
0.00031109287
0.00056862045
0.0014495698
2.3501124e-05
2.5348208e-05
2.9473794e-05
3.6056631e-05
4.5569504e-05
5.8785353e-05
7.7008983e-05
0.00010261251
0.00014030037
0.00020055305
0.00031112699
0.00056863471
0.0014495467
2.3495254e-05
2.5345218e-05
2.9476864e-05
3.6068246e-05
4.5591119e-05
5.8816999e-05
7.704913e-05
0.00010265819
0.00014034743
0.00020059636
0.00031116043
0.0005686498
0.0014495309
2.3491656e-05
2.5344436e-05
2.948198e-05
3.6081621e-05
4.5614069e-05
5.8849429e-05
7.7089434e-05
0.00010270341
0.00014039354
0.00020063853
0.00031119303
0.00056866551
0.0014495219
2.3490141e-05
2.5345663e-05
2.9488926e-05
3.6096521e-05
4.5638101e-05
5.8882384e-05
7.712965e-05
0.00010274795
0.00014043852
0.00020067939
0.00031122466
0.00056868162
0.0014495189
2.3490529e-05
2.5348708e-05
2.9497495e-05
3.611272e-05
4.5662978e-05
5.891563e-05
7.7169557e-05
0.00010279163
0.00014048223
0.00020071885
0.00031125521
0.00056869793
0.0014495213
2.3492642e-05
2.5353389e-05
2.9507491e-05
3.6130008e-05
4.5688484e-05
5.8948951e-05
7.7208958e-05
0.00010283428
0.00014052453
0.00020075679
0.0003112846
0.0005687143
0.0014495285
2.3496314e-05
2.5359531e-05
2.9518727e-05
3.614819e-05
4.5714417e-05
5.8982154e-05
7.7247681e-05
0.00010287575
0.00014056532
0.00020079317
0.00031131279
0.00056873064
0.0014495398
2.3501383e-05
2.5366968e-05
2.9531029e-05
3.6167081e-05
4.5740594e-05
5.9015066e-05
7.7285575e-05
0.00010291593
0.00014060453
0.00020082794
0.00031133976
0.00056874693
0.0014495546
2.3507694e-05
2.537554e-05
2.9544232e-05
3.6186513e-05
4.5766847e-05
5.9047531e-05
7.7322507e-05
0.00010295473
0.0001406421
0.00020086108
0.00031136554
0.00056876319
0.0014495726
2.35151e-05
2.5385098e-05
2.955818e-05
3.6206329e-05
4.5793024e-05
5.9079412e-05
7.7358364e-05
0.00010299206
0.00014067798
0.0002008926
0.00031139016
0.00056877947
0.0014495935
2.3523461e-05
2.5395499e-05
2.9572727e-05
3.6226382e-05
4.5818985e-05
5.9110583e-05
7.7393047e-05
0.00010302784
0.00014071215
0.00020092248
0.00031141362
0.00056879578
0.001449617
2.3532642e-05
2.5406608e-05
2.9587738e-05
3.6246537e-05
4.5844603e-05
5.9140934e-05
7.7426469e-05
0.00010306204
0.00014074456
0.00020095072
0.00031143593
0.00056881203
0.001449643
2.3542517e-05
2.5418296e-05
2.9603084e-05
3.6266671e-05
4.5869763e-05
5.9170367e-05
7.7458553e-05
0.00010309459
0.00014077521
0.00020097731
0.00031145706
0.00056882812
0.0014496715
2.3552963e-05
2.5430444e-05
2.9618645e-05
3.6286667e-05
4.589436e-05
5.9198794e-05
7.7489236e-05
0.00010312545
0.00014080406
0.00020100223
0.00031147697
0.00056884358
0.001449702
2.3563869e-05
2.5442938e-05
2.9634311e-05
3.6306422e-05
4.5918303e-05
5.922614e-05
7.7518465e-05
0.0001031546
0.00014083109
0.00020102546
0.00031149551
0.00056885832
0.0014497343
2.3575127e-05
2.5455673e-05
2.964998e-05
3.6325841e-05
4.594151e-05
5.9252345e-05
7.7546201e-05
0.00010318202
0.00014085633
0.00020104699
0.00031151247
0.00056887235
0.0014497679
2.358664e-05
2.5468551e-05
2.966556e-05
3.6344842e-05
4.5963913e-05
5.9277359e-05
7.7572419e-05
0.00010320771
0.00014087975
0.00020106677
0.00031152791
0.00056888557
0.0014498024
2.3598316e-05
2.5481485e-05
2.9680968e-05
3.6363353e-05
4.5985456e-05
5.9301149e-05
7.7597108e-05
0.00010323167
0.0001409014
0.00020108474
0.00031154189
0.00056889793
0.0014498373
2.3610075e-05
2.5494396e-05
2.9696132e-05
3.6381313e-05
4.6006098e-05
5.9323695e-05
7.7620274e-05
0.00010325394
0.00014092125
0.000201101
0.00031155448
0.00056890939
0.001449872
2.3621842e-05
2.5507212e-05
2.9710988e-05
3.6398672e-05
4.6025807e-05
5.9344987e-05
7.7641931e-05
0.00010327454
0.00014093935
0.00020111565
0.00031156577
0.00056892001
0.0014499061
2.3633553e-05
2.5519872e-05
2.9725484e-05
3.6415392e-05
4.6044562e-05
5.9365031e-05
7.7662112e-05
0.00010329347
0.00014095577
0.0002011288
0.00031157587
0.00056892987
0.0014499394
2.3645148e-05
2.553232e-05
2.9739574e-05
3.6431441e-05
4.6062354e-05
5.9383839e-05
7.7680818e-05
0.00010331079
0.00014097062
0.00020114056
0.00031158492
0.00056893911
0.0014499716
2.3656575e-05
2.554451e-05
2.9753219e-05
3.6446796e-05
4.6079179e-05
5.9401414e-05
7.769807e-05
0.00010332657
0.00014098398
0.00020115104
0.00031159304
0.00056894788
0.0014500026
2.366779e-05
2.55564e-05
2.9766389e-05
3.6461442e-05
4.6095032e-05
5.9417757e-05
7.7713914e-05
0.00010334089
0.00014099594
0.00020116034
0.00031160035
0.00056895632
0.0014500327
2.367875e-05
2.5567954e-05
2.9779059e-05
3.6475361e-05
4.61099e-05
5.943289e-05
7.7728398e-05
0.00010335379
0.00014100658
0.00020116853
0.00031160692
0.00056896452
0.0014500621
2.3689421e-05
2.5579142e-05
2.97912e-05
3.6488533e-05
4.6123788e-05
5.944684e-05
7.7741565e-05
0.00010336536
0.00014101596
0.0002011757
0.00031161281
0.00056897252
0.0014500908
2.3699767e-05
2.558993e-05
2.9802788e-05
3.6500949e-05
4.6136705e-05
5.9459634e-05
7.7753463e-05
0.00010337563
0.00014102416
0.00020118188
0.00031161805
0.00056898031
0.0014501191
2.3709757e-05
2.560029e-05
2.9813805e-05
3.6512604e-05
4.6148662e-05
5.9471302e-05
7.7764135e-05
0.00010338467
0.00014103121
0.00020118711
0.00031162263
0.00056898781
0.0014501471
2.3719361e-05
2.5610199e-05
2.9824234e-05
3.6523496e-05
4.6159675e-05
5.9481876e-05
7.7773629e-05
0.00010339253
0.00014103717
0.00020119144
0.00031162654
0.00056899491
0.0014501747
2.3728556e-05
2.5619638e-05
2.9834068e-05
3.6533629e-05
4.6169764e-05
5.9491392e-05
7.7781992e-05
0.00010339927
0.0001410421
0.00020119488
0.00031162976
0.0005690015
0.0014502019
2.3737324e-05
2.5628591e-05
2.9843299e-05
3.6543012e-05
4.6178952e-05
5.949989e-05
7.7789277e-05
0.00010340494
0.00014104604
0.00020119747
0.00031163228
0.00056900748
0.0014502283
2.374565e-05
2.5637048e-05
2.9851928e-05
3.6551656e-05
4.6187267e-05
5.9507412e-05
7.7795538e-05
0.00010340961
0.00014104907
0.00020119926
0.00031163411
0.00056901277
0.0014502536
2.3753525e-05
2.5645005e-05
2.9859959e-05
3.655958e-05
4.6194742e-05
5.9514006e-05
7.7800836e-05
0.00010341334
0.00014105123
0.00020120031
0.00031163528
0.00056901734
0.0014502777
2.3760944e-05
2.565246e-05
2.9867399e-05
3.6566804e-05
4.6201413e-05
5.9519721e-05
7.7805232e-05
0.0001034162
0.00014105261
0.00020120068
0.00031163585
0.00056902122
0.0014503002
2.3767907e-05
2.5659418e-05
2.9874262e-05
3.6573353e-05
4.6207318e-05
5.9524611e-05
7.7808789e-05
0.00010341827
0.00014105328
0.00020120045
0.00031163588
0.00056902446
0.001450321
2.3774417e-05
2.5665884e-05
2.9880563e-05
3.6579255e-05
4.62125e-05
5.952873e-05
7.7811574e-05
0.00010341961
0.00014105331
0.00020119969
0.00031163548
0.00056902717