/*--------------------------------*- C++ -*----------------------------------*\
| =========                 |                                                 |
| \\      /  F ield         | OpenFOAM: The Open Source CFD Toolbox           |
|  \\    /   O peration     | Version:  2506                                  |
|   \\  /    A nd           | Website:  www.openfoam.com                      |
|    \\/     M anipulation  |                                                 |
\*---------------------------------------------------------------------------*/
FoamFile
{
    version     2.0;
    format      ascii;
    arch        "LSB;label=32;scalar=64";
    class       volScalarField;
    location    "25000/water";
    object      k;
}
// * * * * * * * * * * * * * * * * * * * * * * * * * * * * * * * * * * * * * //

dimensions      [0 2 -2 0 0 0 0];

internalField   nonuniform List<scalar> 
2600
(
0.0001992401
0.00019923925
0.00019923929
0.00019923963
0.00019923982
0.00019923914
0.00019923438
0.00019921375
0.00019914651
0.00019904325
0.00019990841
0.00021454267
0.00040955349
0.00017237279
0.00017237614
0.00017237826
0.00017238051
0.0001723821
0.00017237949
0.00017235884
0.00017227555
0.000172027
0.00017162102
0.00017329371
0.00020304806
0.00052391648
0.00015132731
0.00015133049
0.00015133306
0.00015133552
0.00015133516
0.00015132207
0.00015126283
0.00015106462
0.00015055477
0.00014985944
0.0001528957
0.00019760629
0.00057958156
0.00013448336
0.00013448533
0.00013448764
0.00013448905
0.00013448325
0.00013445009
0.00013432997
0.00013398205
0.00013321503
0.00013247936
0.00013787909
0.00019702317
0.00059640815
0.00012075551
0.00012075697
0.00012075853
0.00012075718
0.00012074152
0.0001206782
0.00012048052
0.00011997843
0.0001190486
0.00011870929
0.00012776334
0.00020116854
0.00059206885
0.0001093899
0.00010939088
0.000109391
0.00010938492
0.00010935483
0.00010925313
0.00010897207
0.00010834649
0.00010742643
0.0001080609
0.00012226457
0.00021023394
0.00057809221
9.984982e-05
9.9850093e-05
9.9847944e-05
9.9835056e-05
9.9786463e-05
9.9641865e-05
9.9284958e-05
9.859999e-05
9.7925043e-05
0.00010022517
0.00012123091
0.00022425603
0.00056106272
9.1744874e-05
9.174416e-05
9.1738826e-05
9.1717148e-05
9.1647174e-05
9.1460104e-05
9.1049018e-05
9.0398665e-05
9.0258419e-05
9.5030413e-05
0.00012461431
0.00024286356
0.00054449405
8.4785472e-05
8.4783454e-05
8.4774018e-05
8.4741918e-05
8.4649457e-05
8.4426122e-05
8.3996574e-05
8.3502376e-05
8.4241543e-05
9.2421343e-05
0.00013239492
0.00026511347
0.00053012765
7.8752977e-05
7.8749319e-05
7.8734951e-05
7.8691403e-05
7.8577619e-05
7.8330528e-05
7.7932172e-05
7.7743318e-05
7.9771153e-05
9.2438122e-05
0.00014444361
0.00028951151
0.0005186607
7.3479682e-05
7.3474066e-05
7.3454131e-05
7.3398964e-05
7.3267704e-05
7.3016085e-05
7.2712929e-05
7.3009357e-05
7.6815021e-05
9.5182833e-05
0.00016036324
0.00031428525
0.00051014247
6.8835097e-05
6.8827266e-05
6.8801436e-05
6.8735571e-05
6.8593744e-05
6.836405e-05
6.8235745e-05
6.9234209e-05
7.5403716e-05
0.00010076472
0.00017939076
0.00033780739
0.0005042266
6.4716374e-05
6.4706175e-05
6.4674551e-05
6.4600233e-05
6.4458202e-05
6.4284863e-05
6.4429045e-05
6.6391811e-05
7.5619872e-05
0.0001092241
0.00020043528
0.00035894529
0.00050037283
6.1041501e-05
6.1028932e-05
6.0992164e-05
6.091321e-05
6.0785257e-05
6.0711783e-05
6.1247563e-05
6.4493002e-05
7.7580807e-05
0.00012045028
0.00022225715
0.00037717552
0.0004980107
5.7744396e-05
5.7729653e-05
5.7689074e-05
5.7611142e-05
5.751606e-05
5.7596592e-05
5.8669223e-05
6.3582872e-05
8.1411586e-05
0.00013412437
0.00024370832
0.00039247762
0.00049664628
5.4771313e-05
5.4754847e-05
5.4712615e-05
5.4643526e-05
5.4605384e-05
5.4906753e-05
5.6693486e-05
6.3736861e-05
8.7208043e-05
0.00014971788
0.00026392364
0.00040513366
0.00049590625
5.2078186e-05
5.206076e-05
5.2020025e-05
5.1970154e-05
5.2019282e-05
5.2623661e-05
5.5340604e-05
6.5053658e-05
9.4994185e-05
0.00016655656
0.0002823955
0.00041554871
0.00049553614
4.9628635e-05
4.9611393e-05
4.9576492e-05
4.9559258e-05
4.9733503e-05
5.0741692e-05
5.4651195e-05
6.7643172e-05
0.00010468473
0.00018392817
0.00029893687
0.00042413794
0.00049537652
4.7392458e-05
4.7377004e-05
4.7353699e-05
4.7386176e-05
4.773248e-05
4.9267885e-05
5.4685329e-05
7.1608742e-05
0.00011606686
0.00020119288
0.00031358495
0.0004312733
0.00049533511
4.5344476e-05
4.5332971e-05
4.5328746e-05
4.5432431e-05
4.600877e-05
4.8222045e-05
5.5520138e-05
7.7024461e-05
0.0001288111
0.00021785898
0.00032650009
0.00043726613
0.00049536294
4.3463657e-05
4.3458933e-05
4.3483358e-05
4.3685127e-05
4.4562868e-05
4.7637065e-05
5.7244887e-05
8.3911105e-05
0.00014251076
0.00023360813
0.00033789056
0.00044236711
0.00049543702
4.1732429e-05
4.173814e-05
4.1803329e-05
4.2136614e-05
4.3403329e-05
4.7559127e-05
5.9952699e-05
9.2216772e-05
0.00015673761
0.00024827796
0.00034796834
0.00044677301
0.00049554866
4.0136167e-05
4.015697e-05
4.0278148e-05
4.0784372e-05
4.2547129e-05
4.8047288e-05
6.3728701e-05
0.00010180889
0.00017109624
0.00026182258
0.0003569282
0.00045063571
0.00049569618
3.8662802e-05
3.8704582e-05
3.8900797e-05
3.9631107e-05
4.2020194e-05
4.9171841e-05
6.863543e-05
0.00011248165
0.0001852623
0.00027427018
0.00036494028
0.00045407114
0.00049588069
3.7302531e-05
3.7372692e-05
3.7667676e-05
3.8685008e-05
4.1857944e-05
5.1010816e-05
7.4697746e-05
0.00012397797
0.00019899861
0.00028568912
0.00037214923
0.00045716736
0.00049610392
3.6047628e-05
3.6155447e-05
3.6578682e-05
3.7960181e-05
4.2105652e-05
5.3644138e-05
8.1890766e-05
0.00013601988
0.00021215193
0.00029616534
0.00037867608
0.00045999117
0.00049636709
3.4892327e-05
3.5049398e-05
3.5637398e-05
3.7477201e-05
4.2818254e-05
5.7145345e-05
9.0134489e-05
0.00014833915
0.00022463802
0.00030578893
0.00038462123
0.00046259341
0.00049667064
3.383279e-05
3.4053569e-05
3.4851411e-05
3.7263736e-05
4.4059203e-05
6.1571462e-05
9.9297381e-05
0.00016070076
0.00023642316
0.00031464714
0.00039006764
0.00046501299
0.00049701416
3.2867148e-05
3.316962e-05
3.4232754e-05
3.7355161e-05
4.589791e-05
6.6952452e-05
0.00010920861
0.00017291579
0.00024750737
0.00032282077
0.00039508379
0.00046727997
0.00049739654
3.1995627e-05
3.2402111e-05
3.3798454e-05
3.7794962e-05
4.8405427e-05
7.3282436e-05
0.00011967597
0.00018484396
0.00025791153
0.00033038288
0.00039972633
0.00046941774
0.00049781615
3.1220754e-05
3.1758868e-05
3.3571166e-05
3.8634688e-05
5.16483e-05
8.0515034e-05
0.00013050501
0.00019638896
0.00026766839
0.00033739836
0.00040404224
0.00047144508
0.00049827105
3.0547674e-05
3.1251458e-05
3.3579859e-05
3.9933128e-05
5.5680955e-05
8.8564412e-05
0.00014151526
0.0002074904
0.00027681665
0.00034392427
0.00040806987
0.00047336165
0.00049875826
2.9984563e-05
3.0895778e-05
3.3860461e-05
4.1754322e-05
6.0537583e-05
9.731215e-05
0.00015255089
0.00021811501
0.00028539698
0.00035000997
0.00041183983
0.00047517684
0.00049927448
2.9543172e-05
3.071274e-05
3.4456303e-05
4.4164149e-05
6.6225004e-05
0.00010661843
0.00016348529
0.00022824915
0.00029345001
0.00035569879
0.00041537498
0.00047690098
0.00049981638
2.9239498e-05
3.072904e-05
3.5418148e-05
4.7225363e-05
7.2718214e-05
0.00011633497
0.00017422102
0.00023789273
0.00030101459
0.00036102773
0.000418694
0.00047854313
0.00050038114
2.9094595e-05
3.0977951e-05
3.6803501e-05
5.0991332e-05
7.9959881e-05
0.00012631696
0.00018468652
0.00024705469
0.00030812684
0.00036602759
0.00042181619
0.0004801151
0.00050096676
2.9135496e-05
3.1500046e-05
3.8674859e-05
5.5499187e-05
8.7864162e-05
0.00013643209
0.00019483195
0.00025575014
0.00031482084
0.00037072328
0.00042475509
0.00048162855
0.00050157201
2.9396231e-05
3.2343668e-05
4.109663e-05
6.0763501e-05
9.632407e-05
0.00014656574
0.00020462431
0.0002639967
0.00032112526
0.00037513788
0.00042753007
0.00048308916
0.00050219529
2.991884e-05
3.3564908e-05
4.4130583e-05
6.6771881e-05
0.00010522078
0.00015662302
0.00021404417
0.00027181504
0.00032706606
0.00037928747
0.00043015898
0.00048450266
0.00050283511
3.075424e-05
3.5226723e-05
4.7830029e-05
7.3483549e-05
0.00011443287
0.00016652783
0.00022308101
0.00027922363
0.00033266467
0.00038319522
0.0004326545
0.00048587307
0.00050348988
3.1962693e-05
3.7396839e-05
5.2233344e-05
8.0831451e-05
0.00012384407
0.00017622136
0.00023173237
0.00028624169
0.00033793722
0.00038688252
0.00043502773
0.00048720352
0.00050415803
3.3613502e-05
4.0144088e-05
5.7357845e-05
8.8727389e-05
0.00013334836
0.00018565851
0.00023999854
0.00029288456
0.00034290599
0.00039036649
0.00043728791
0.00048849634
0.00050483797
3.5783406e-05
4.3533071e-05
6.3195307e-05
9.7069228e-05
0.00014285306
0.00019480683
0.00024788468
0.00029916231
0.0003475933
0.00039366187
0.00043944269
0.00048975325
0.00050552812
3.8553068e-05
4.7617433e-05
6.9710116e-05
0.00010574826
0.00015227865
0.00020364078
0.00025539329
0.00030509327
0.00035201758
0.00039678117
0.00044149842
0.00049097544
0.00050622692
4.2001156e-05
5.2432564e-05
7.684072e-05
0.00011465641
0.00016156001
0.00021214494
0.00026252193
0.00031069682
0.00035619499
0.00039973504
0.0004434603
0.00049216367
0.00050693283
4.6195922e-05
5.7988965e-05
8.4503816e-05
0.0001236906
0.00017064178
0.00022029901
0.00026928194
0.00031598928
0.00036013925
0.00040253238
0.00044533252
0.00049331826
0.00050764432
5.1185021e-05
6.4267714e-05
9.2600637e-05
0.00013275649
0.00017947939
0.00022808588
0.0002756847
0.00032098503
0.00036386202
0.00040518056
0.00044711836
0.00049443921
0.00050835989
5.6985364e-05
7.1219293e-05
0.00010102457
0.00014177165
0.00018802208
0.00023550303
0.0002817403
0.0003256963
0.00036737304
0.00040768556
0.00044882027
0.00049552615
0.000509078
6.3575482e-05
7.8766083e-05
0.00010966808
0.00015065102
0.000196237
0.00024254864
0.00028745746
0.0003301333
0.00037068024
0.00041005206
0.00045043988
0.00049657837
0.00050979713
7.0893488e-05
8.6809027e-05
0.000118418
0.00015932163
0.0002040999
0.00024922138
0.00029284335
0.00033430427
0.00037378985
0.00041228349
0.00045197813
0.00049759484
0.00051051571
7.8838265e-05
9.5225377e-05
0.00012716547
0.00016772589
0.00021159052
0.00025551999
0.00029790357
0.00033821554
0.00037670648
0.00041438214
0.00045343518
0.00049857419
0.00051123214
8.7271747e-05
0.00010388138
0.00013581416
0.00017581506
0.00021869191
0.00026144296
0.00030264213
0.00034187166
0.00037943324
0.00041634918
0.00045481054
0.00049951469
0.00051194472
9.6036186e-05
0.00011264289
0.00014427884
0.0001835485
0.00022538997
0.00026698861
0.00030706158
0.00034527554
0.0003819718
0.00041818476
0.00045610302
0.00050041431
0.00051265168
0.0001049681
0.00012138217
0.00015248587
0.00019089299
0.00023167332
0.00027215515
0.0003111633
0.00034842863
0.00038432259
0.00041988806
0.00045731081
0.00050127062
0.00051335112
0.00011391058
0.00012998321
0.00016037324
0.00019782234
0.00023753331
0.00027694106
0.00031494779
0.00035133126
0.00038648496
0.00042145741
0.00045843152
0.00050208093
0.00051404099
0.00012272247
0.00013834517
0.00016789033
0.00020431693
0.00024296422
0.0002813455
0.00031841513
0.00035398294
0.00038845744
0.0004228905
0.0004594623
0.00050284225
0.00051471911
0.00013128387
0.00014638427
0.00017499753
0.00021036345
0.00024796339
0.00028536874
0.00032156549
0.00035638277
0.00039023807
0.00042418454
0.00046039996
0.00050355139
0.00051538316
0.00013949843
0.00015403429
0.00018166559
0.00021595442
0.00025253142
0.00028901261
0.0003243996
0.00035852995
0.00039182472
0.00042533657
0.00046124117
0.00050420509
0.00051603067
0.00014729306
0.00016124584
0.00018787484
0.00022108783
0.00025667212
0.00029228086
0.00032691921
0.00036042416
0.00039321549
0.00042634371
0.00046198265
0.00050480012
0.0005166591
0.00015461613
0.00016798501
0.0001936143
0.00022576659
0.00026039251
0.00029517939
0.00032912754
0.00036206602
0.0003944091
0.0004272035
0.00046262141
0.00050533342
0.00051726586
0.0001614347
0.00017423147
0.00019888063
0.00022999798
0.0002637026
0.00029771636
0.00033102952
0.00036345747
0.00039540523
0.00042791423
0.000463155
0.00050580234
0.00051784836
0.00016773144
0.00017997644
0.00020367706
0.00023379305
0.00026661511
0.0002999022
0.000332632
0.000364602
0.00039620484
0.00042847517
0.00046358176
0.00050620473
0.0005184041
0.00017350168
0.00018522059
0.00020801229
0.00023716601
0.0002691451
0.00030174949
0.0003339438
0.00036550487
0.00039681041
0.00042888686
0.000463901
0.00050653911
0.00051893074
0.00017875062
0.00018997217
0.00021189951
0.00024013366
0.00027130963
0.0003032727
0.00033497568
0.00036617318
0.00039722605
0.00042915124
0.00046411314
0.00050680479
0.00051942617
0.00018349098
0.00019424526
0.00021535541
0.00024271479
0.00027312733
0.000304488
0.00033574016
0.00036661584
0.00039745756
0.00042927174
0.00046421987
0.00050700198
0.00051988855
0.00018774098
0.00019805829
0.00021839935
0.00024492972
0.000274618
0.00030541286
0.00033625138
0.00036684344
0.00039751246
0.00042925333
0.00046422411
0.00050713177
0.00052031644
0.00019152274
0.00020143279
0.00022105255
0.00024679978
0.00027580228
0.0003060658
0.00033652477
0.0003668681
0.00039739977
0.00042910244
0.00046413002
0.00050719617
0.00052070874
0.00019486095
0.00020439239
0.00022333756
0.00024834694
0.00027670126
0.00030646607
0.00033657682
0.00036670322
0.00039712994
0.00042882681
0.00046394295
0.00050719804
0.0005210648
0.00019778186
0.00020696198
0.00022527761
0.00024959345
0.00027733626
0.00030663329
0.00033642475
0.00036636323
0.00039671457
0.00042843538
0.00046366922
0.000507141
0.00052138437
0.0002003125
0.0002091671
0.00022689628
0.00025056157
0.00027772852
0.00030658727
0.00033608626
0.00036586332
0.00039616618
0.00042793802
0.00046331604
0.00050702933
0.00052166764
0.00020248007
0.00021103338
0.00022821706
0.00025127328
0.00027789898
0.00030634768
0.00033557926
0.00036521915
0.00039549796
0.00042734532
0.00046289129
0.00050686784
0.00052191517
0.0002043115
0.0002125862
0.00022926314
0.00025175016
0.00027786815
0.00030593393
0.00033492159
0.00036444659
0.0003947235
0.00042666837
0.0004624033
0.00050666171
0.0005221279
0.00020583314
0.00021385039
0.00023005717
0.00025201317
0.00027765592
0.0003053649
0.00033413083
0.00036356148
0.00039385653
0.00042591848
0.00046186067
0.00050641637
0.00052230707
0.00020707048
0.00021485001
0.00023062106
0.00025208253
0.00027728145
0.00030465888
0.00033322412
0.00036257942
0.0003929107
0.00042510703
0.00046127208
0.00050613734
0.0005224542
0.00020804802
0.00021560822
0.00023097592
0.00025197766
0.00027676308
0.00030383338
0.00033221798
0.00036151556
0.00039189939
0.00042424517
0.00046064609
0.00050583013
0.00052257103
0.00020878915
0.00021614713
0.00023114192
0.00025171708
0.00027611828
0.00030290507
0.0003311282
0.00036038445
0.0003908355
0.00042334374
0.00045999103
0.00050550009
0.00052265946
0.00020931608
0.00021648779
0.00023113824
0.00025131838
0.00027536356
0.00030188974
0.00032996974
0.00035919992
0.00038973132
0.00042241307
0.00045931484
0.00050515235
0.00052272151
0.00020964981
0.0002166501
0.00023098306
0.00025079816
0.00027451448
0.00030080219
0.00032875665
0.00035797499
0.00038859844
0.00042146289
0.00045862496
0.00050479175
0.00052275926
0.0002098101
0.00021665283
0.00023069351
0.00025017206
0.00027358562
0.00029965625
0.00032750201
0.00035672178
0.00038744763
0.0004205022
0.0004579283
0.00050442276
0.00052277484
0.0002098155
0.00021651359
0.00023028565
0.0002494547
0.00027259054
0.00029846476
0.00032621794
0.00035545148
0.00038628882
0.00041953931
0.00045723116
0.00050404947
0.00052277037
0.00020968337
0.00021624887
0.00022977455
0.00024865973
0.00027154187
0.00029723955
0.00032491558
0.00035417431
0.00038513104
0.00041858169
0.00045653919
0.00050367555
0.00052274793
0.00020942986
0.00021587403
0.00022917422
0.00024779985
0.00027045124
0.0002959915
0.00032360506
0.00035289955
0.00038398241
0.00041763604
0.00045585744
0.00050330429
0.00052270955
0.00020907001
0.00021540339
0.00022849769
0.00024688678
0.00026932935
0.00029473051
0.00032229556
0.00035163554
0.00038285019
0.00041670828
0.00045519027
0.00050293853
0.00052265718
0.00020861778
0.00021485019
0.00022775702
0.00024593134
0.00026818599
0.00029346555
0.0003209953
0.00035038965
0.00038174074
0.00041580352
0.00045454146
0.00050258073
0.00052259268
0.00020808603
0.00021422667
0.00022696333
0.00024494346
0.00026703006
0.0002922047
0.00031971162
0.00034916839
0.00038065956
0.00041492612
0.00045391416
0.00050223293
0.0005225178
0.00020748664
0.00021354411
0.00022612685
0.00024393222
0.00026586962
0.00029095518
0.00031845096
0.00034797737
0.00037961133
0.00041407971
0.00045331084
0.00050189538
0.0005224341
0.00020683054
0.00021281288
0.00022525692
0.00024290584
0.00026471191
0.00028972337
0.00031721892
0.00034682141
0.00037859996
0.00041326718
0.00045273322
0.0005015678
0.00052234292
0.00020612774
0.00021204246
0.00022436209
0.00024187182
0.00026356343
0.00028851491
0.00031602035
0.00034570455
0.00037762864
0.00041249076
0.00045218168
0.00050125106
0.00052224546
0.00020538737
0.00021124152
0.00022345013
0.00024083687
0.00026242991
0.00028733468
0.00031485935
0.00034463008
0.00037669981
0.00041175191
0.00045165684
0.00050094663
0.0005221429
0.00020461778
0.00021041792
0.00022252805
0.00023980704
0.00026131644
0.00028618689
0.00031373935
0.00034360071
0.00037581537
0.00041105105
0.0004511589
0.00050065645
0.00052203654
0.00020382654
0.00020957881
0.00022160219
0.0002387877
0.00026022747
0.00028507516
0.00031266317
0.00034261845
0.00037497628
0.00041038844
0.00045068907
0.00050038151
0.00052192754
0.00020302053
0.00020873065
0.00022067825
0.00023778363
0.00025916684
0.00028400247
0.00031163301
0.00034168468
0.000374183
0.00040976433
0.00045024821
0.00050012255
0.00052181698
0.00020220595
0.00020787927
0.00021976131
0.00023679903
0.00025813788
0.00028297133
0.00031065059
0.00034080017
0.00037343528
0.00040917941
0.00044983672
0.00049988
0.00052170581
0.00020138836
0.00020702985
0.00021885588
0.00023583757
0.00025714339
0.00028198369
0.00030971696
0.0003399649
0.0003727335
0.00040863386
0.00044945467
0.00049965403
0.00052159487
0.00020057277
0.00020618707
0.00021796597
0.00023490243
0.00025618568
0.000281041
0.00030883257
0.00033917884
0.00037207776
0.00040812752
0.00044910182
0.00049944463
0.00052148492
0.00019976362
0.00020535504
0.00021709507
0.00023399632
0.00025526662
0.00028014418
0.0003079973
0.00033844211
0.00037146781
0.00040765991
0.00044877769
0.00049925159
0.00052137659
0.00019896484
0.00020453739
0.00021624621
0.00023312153
0.00025438758
0.00027929337
0.00030721136
0.00033775447
0.00037090305
0.00040723028
0.0004484816
0.00049907456
0.00052127043
0.00019817991
0.00020373731
0.00021542203
0.00023227981
0.00025354917
0.00027848896
0.00030647461
0.00033711533
0.00037038261
0.00040683766
0.00044821268
0.00049891307
0.00052116689
0.00019741188
0.00020295754
0.00021462456
0.00023147233
0.0002527521
0.00027773105
0.00030578663
0.00033652385
0.00036990539
0.00040648087
0.00044796993
0.00049876655
0.00052106636
0.00019666327
0.0002022003
0.00021385545
0.00023070017
0.0002519968
0.00027701949
0.00030514673
0.00033597896
0.00036947009
0.00040615859
0.00044775225
0.00049863437
0.00052096915
0.0001959362
0.00020146743
0.00021311608
0.00022996412
0.00025128345
0.00027635385
0.000304554
0.00033547938
0.00036907526
0.00040586938
0.00044755846
0.00049851586
0.0005208755
0.00019523246
0.00020076049
0.00021240757
0.00022926472
0.00025061198
0.00027573351
0.00030400734
0.0003350237
0.00036871932
0.00040561176
0.00044738734
0.00049841034
0.00052078562
0.00019455356
0.00020008077
0.00021173076
0.00022860229
0.00024998214
0.00027515767
0.00030350551
0.00033461037
0.00036840064
0.00040538418
0.00044723769
0.00049831712
0.00052069967
0.00019390076
0.00019942932
0.00021108631
0.00022797694
0.00024939348
0.00027462537
0.00030304715
0.00033423779
0.00036811752
0.00040518509
0.00044710829
0.00049823555
0.00052061779
0.00019327507
0.00019880695
0.00021047463
0.0002273886
0.00024884539
0.00027413551
0.00030263078
0.00033390424
0.00036786823
0.00040501293
0.00044699796
0.00049816498
0.00052054006
0.00019267728
0.00019821426
0.00020989596
0.00022683703
0.00024833712
0.00027368688
0.00030225483
0.00033360798
0.00036765103
0.00040486613
0.00044690551
0.00049810475
0.00052046656
0.00019210797
0.00019765167
0.00020935035
0.00022632181
0.00024786778
0.00027327816
0.00030191767
0.0003333472
0.00036746412
0.00040474313
0.00044682977
0.00049805424
0.00052039731
0.00019156754
0.00019711938
0.00020883767
0.00022584237
0.00024743634
0.00027290791
0.00030161758
0.00033312006
0.00036730573
0.00040464238
0.00044676955
0.00049801279
0.0005203323
0.00019105619
0.00019661744
0.00020835763
0.00022539802
0.00024704166
0.00027257463
0.00030135277
0.00033292467
0.00036717402
0.00040456228
0.00044672368
0.00049797972
0.00052027152
0.00019057395
0.00019614573
0.00020790981
0.00022498793
0.00024668251
0.00027227671
0.00030112142
0.00033275913
0.00036706718
0.00040450128
0.000446691
0.00049795438
0.00052021487
0.00019012069
0.00019570396
0.00020749362
0.00022461114
0.00024635755
0.0002720125
0.00030092167
0.0003326215
0.00036698339
0.00040445782
0.00044667033
0.00049793609
0.00052016228
0.00018969616
0.00019529173
0.00020710839
0.00022426661
0.00024606538
0.0002717803
0.00030075162
0.00033250989
0.00036692088
0.0004044304
0.00044666056
0.00049792421
0.00052011362
0.00018929994
0.00019490851
0.00020675331
0.00022395323
0.00024580455
0.00027157839
0.00030060943
0.00033242241
0.00036687791
0.00040441758
0.00044666064
0.00049791813
0.00052006879
0.00018893156
0.00019455367
0.00020642752
0.00022366982
0.00024557357
0.00027140506
0.00030049324
0.00033235726
0.00036685284
0.00040441799
0.00044666958
0.0004979173
0.00052002765
0.0001885904
0.00019422651
0.00020613009
0.00022341514
0.00024537096
0.0002712586
0.00030040126
0.00033231267
0.00036684409
0.00040443035
0.00044668646
0.00049792121
0.00051999008
0.00018827582
0.00019392625
0.00020586001
0.00022318796
0.0002451952
0.00027113733
0.00030033175
0.00033228696
0.00036685017
0.00040445345
0.00044671045
0.00049792942
0.00051995598
0.00018798707
0.00019365205
0.00020561626
0.00022298699
0.0002450448
0.0002710396
0.00030028301
0.00033227854
0.00036686966
0.00040448618
0.00044674078
0.00049794151
0.0005199252
0.00018772336
0.00019340302
0.00020539775
0.00022281094
0.00024491827
0.0002709638
0.00030025341
0.00033228583
0.00036690122
0.00040452747
0.0004467767
0.00049795708
0.00051989763
0.00018748384
0.00019317822
0.00020520339
0.00022265851
0.00024481413
0.00027090834
0.00030024133
0.00033230736
0.00036694354
0.0004045763
0.0004468175
0.00049797574
0.00051987312
0.0001872676
0.00019297666
0.00020503203
0.00022252838
0.00024473089
0.00027087164
0.00030024523
0.00033234166
0.00036699539
0.00040463168
0.0004468625
0.00049799708
0.00051985152
0.00018707372
0.00019279734
0.00020488251
0.00022241922
0.00024466711
0.00027085217
0.00030026359
0.00033238734
0.00036705556
0.00040469266
0.00044691102
0.00049802072
0.00051983268
0.00018690119
0.00019263921
0.00020475367
0.00022232971
0.00024462133
0.00027084843
0.00030029493
0.00033244306
0.00036712288
0.00040475834
0.00044696242
0.00049804627
0.00051981644
0.00018674903
0.00019250118
0.00020464431
0.00022225854
0.00024459213
0.00027085898
0.00030033786
0.00033250752
0.00036719629
0.00040482786
0.0004470161
0.00049807337
0.00051980262
0.00018661621
0.0001923822
0.00020455324
0.0002222044
0.00024457815
0.00027088241
0.00030039103
0.00033257953
0.00036727477
0.00040490045
0.00044707152
0.00049810172
0.00051979108
0.00018650169
0.00019228116
0.00020447931
0.00022216605
0.00024457805
0.0002709174
0.0003004532
0.00033265798
0.00036735741
0.00040497542
0.00044712822
0.00049813104
0.00051978166
0.00018640444
0.00019219701
0.00020442136
0.00022214224
0.00024459058
0.0002709627
0.00030052319
0.00033274185
0.00036744337
0.00040505216
0.0004471858
0.00049816112
0.00051977424
0.00018632344
0.00019212867
0.00020437826
0.0002221318
0.0002446145
0.00027101711
0.0003005999
0.00033283018
0.00036753191
0.00040513011
0.0004472439
0.00049819177
0.00051976869
0.00018625765
0.00019207508
0.0002043489
0.00022213356
0.00024464866
0.00027107952
0.00030068232
0.00033292211
0.00036762233
0.00040520878
0.00044730221
0.00049822282
0.00051976489
0.00018620607
0.00019203522
0.0002043322
0.00022214641
0.00024469193
0.00027114884
0.00030076946
0.00033301681
0.00036771397
0.00040528769
0.00044736041
0.0004982541
0.00051976269
0.00018616768
0.00019200803
0.00020432708
0.00022216925
0.00024474323
0.00027122405
0.0003008604
0.00033311349
0.00036780621
0.00040536637
0.00044741818
0.00049828538
0.00051976197
0.00018614147
0.0001919925
0.00020433251
0.00022220102
0.0002448015
0.00027130415
0.00030095424
0.00033321136
0.00036789842
0.00040544435
0.00044747519
0.00049831645
0.00051976257
0.00018612644
0.00019198762
0.00020434743
0.00022224068
0.00024486572
0.00027138818
0.00030105012
0.00033330972
0.00036799001
0.00040552117
0.00044753109
0.00049834707
0.00051976432
0.00018612162
0.00019199239
0.00020437086
0.00022228722
0.00024493494
0.00027147523
0.00030114722
0.00033340786
0.00036808042
0.00040559641
0.00044758556
0.00049837701
0.00051976708
0.00018612606
0.00019200586
0.00020440184
0.0002223397
0.00024500823
0.00027156447
0.00030124483
0.00033350517
0.00036816917
0.00040566968
0.00044763834
0.00049840608
0.0005197707
0.00018613885
0.00019202713
0.00020443946
0.00022239724
0.00024508476
0.00027165515
0.00030134227
0.00033360112
0.00036825585
0.00040574071
0.00044768924
0.00049843416
0.00051977506
0.00018615916
0.00019205536
0.00020448289
0.00022245903
0.0002451638
0.00027174661
0.00030143903
0.00033369531
0.00036834017
0.00040580933
0.00044773818
0.00049846121
0.00051978008
0.0001861862
0.00019208976
0.00020453138
0.00022252437
0.00024524469
0.0002718383
0.00030153466
0.00033378742
0.00036842196
0.00040587545
0.00044778515
0.00049848727
0.00051978571
0.00018621924
0.00019212962
0.00020458422
0.0002225926
0.00024532687
0.00027192977
0.00030162882
0.00033387724
0.00036850111
0.00040593909
0.00044783022
0.00049851236
0.00051979189
0.00018625763
0.0001921743
0.00020464081
0.00022266317
0.00024540986
0.00027202061
0.00030172124
0.00033396461
0.00036857759
0.00040600027
0.00044787347
0.0004985364
0.0005197986
0.00018630073
0.00019222317
0.00020470056
0.00022273555
0.00024549321
0.0002721105
0.00030181169
0.00033404942
0.00036865136
0.00040605904
0.00044791488
0.00049855943
0.00051980578
0.00018634794
0.00019227565
0.00020476292
0.00022280925
0.00024557651
0.00027219911
0.00030189994
0.00033413153
0.00036872236
0.00040611537
0.00044795442
0.00049858149
0.00051981338
0.00018639867
0.00019233116
0.00020482735
0.00022288377
0.00024565933
0.00027228609
0.00030198574
0.00033421076
0.00036879048
0.00040616912
0.00044799199
0.00049860265
0.00051982133
0.00018645231
0.00019238911
0.0002048933
0.00022295861
0.00024574124
0.0002723711
0.00030206881
0.00033428689
0.00036885552
0.00040622012
0.00044802751
0.00049862284
0.00051982953
0.00018650825
0.00019244892
0.00020496021
0.00022303329
0.0002458218
0.00027245375
0.00030214883
0.00033435966
0.00036891722
0.00040626814
0.0004480609
0.00049864198
0.00051983787
0.00018656589
0.00019251001
0.00020502753
0.00022310728
0.00024590057
0.00027253366
0.00030222548
0.00033442878
0.00036897532
0.00040631305
0.000448092
0.0004986599
0.00051984623
0.00018662465
0.0001925718
0.00020509474
0.00022318012
0.00024597714
0.0002726105
0.00030229846
0.00033449398
0.00036902961
0.0004063547
0.00044812068
0.00049867649
0.0005198545
0.00018668398
0.00019263376
0.00020516135
0.00022325137
0.00024605113
0.00027268396
0.00030236755
0.00033455506
0.00036908001
0.00040639303
0.00044814687
0.00049869165
0.00051986258
0.00018674338
0.00019269543
0.00020522693
0.00022332068
0.00024612228
0.00027275382
0.00030243255
0.00033461194
0.00036912649
0.00040642803
0.00044817057
0.00049870534
0.00051987041
0.00018680246
0.00019275643
0.00020529114
0.00022338778
0.00024619037
0.00027281996
0.00030249341
0.00033466467
0.00036916914
0.0004064598
0.00044819188
0.00049871765
0.00051987795
0.00018686089
0.00019281644
0.00020535373
0.00022345247
0.0002462553
0.00027288231
0.0003025502
0.00033471338
0.00036920813
0.00040648854
0.00044821096
0.00049872867
0.00051988521
0.00018691844
0.00019287525
0.00020541454
0.00022351466
0.00024631702
0.00027294096
0.00030260308
0.00033475828
0.00036924371
0.00040651451
0.00044822807
0.0004987386
0.00051989223
0.00018697493
0.00019293272
0.00020547346
0.0002235743
0.00024637558
0.00027299604
0.00030265226
0.00033479963
0.00036927617
0.000406538
0.00044824349
0.00049874764
0.00051989905
0.00018703026
0.00019298875
0.00020553042
0.00022363139
0.00024643107
0.00027304771
0.00030269795
0.00033483771
0.00036930582
0.00040655932
0.00044825746
0.00049875599
0.00051990573
0.00018708431
0.00019304326
0.0002055854
0.00022368596
0.00024648358
0.00027309613
0.00030274038
0.00033487277
0.00036933291
0.00040657871
0.0004482702
0.00049876379
0.0005199123
0.000187137
0.00019309617
0.00020563837
0.00022373805
0.00024653321
0.00027314145
0.00030277971
0.000334905
0.00036935765
0.00040659635
0.00044828187
0.00049877114
0.00051991877
0.00018718823
0.00019314741
0.00020568929
0.00022378765
0.00024657999
0.00027318375
0.00030281609
0.00033493454
0.00036938016
0.00040661235
0.00044829251
0.00049877806
0.00051992514
0.00018723786
0.00019319687
0.00020573807
0.00022383474
0.00024662396
0.00027322308
0.00030284956
0.00033496146
0.00036940049
0.00040662672
0.00044830213
0.0004987845
0.00051993136
0.00018728575
0.00019324442
0.00020578463
0.00022387925
0.00024666507
0.00027325945
0.00030288016
0.00033498578
0.00036941865
0.00040663945
0.00044831065
0.00049879038
0.00051993739
0.00018733172
0.00019328991
0.00020582885
0.0002239211
0.00024670328
0.00027329284
0.00030290787
0.00033500749
0.00036943461
0.00040665047
0.00044831799
0.0004987956
0.00051994315
0.00018737562
0.00019333319
0.0002058706
0.00022396021
0.00024673855
0.00027332321
0.00030293267
0.00033502656
0.00036944833
0.00040665972
0.00044832406
0.00049880005
0.00051994859
0.00018741727
0.00019337411
0.00020590977
0.00022399651
0.00024677084
0.00027335057
0.00030295458
0.000335043
0.0003694598
0.00040666718
0.00044832882
0.00049880368
0.00051995365
0.00018745656