/*--------------------------------*- C++ -*----------------------------------*\
| =========                 |                                                 |
| \\      /  F ield         | OpenFOAM: The Open Source CFD Toolbox           |
|  \\    /   O peration     | Version:  2506                                  |
|   \\  /    A nd           | Website:  www.openfoam.com                      |
|    \\/     M anipulation  |                                                 |
\*---------------------------------------------------------------------------*/
FoamFile
{
    version     2.0;
    format      ascii;
    arch        "LSB;label=32;scalar=64";
    class       volScalarField;
    location    "25000/water";
    object      nut;
}
// * * * * * * * * * * * * * * * * * * * * * * * * * * * * * * * * * * * * * //

dimensions      [0 2 -1 0 0 0 0];

internalField   nonuniform List<scalar> 
2600
(
4.0562043e-05
4.0561942e-05
4.0561944e-05
4.0561981e-05
4.0561942e-05
4.0561434e-05
4.0558261e-05
4.0540002e-05
4.0435343e-05
3.98338e-05
3.6541397e-05
2.4161555e-05
1.4889524e-05
3.944741e-05
3.9447468e-05
3.944759e-05
3.9447676e-05
3.9447275e-05
3.9444342e-05
3.9428907e-05
3.9352895e-05
3.8988431e-05
3.7314814e-05
3.0763187e-05
1.7536145e-05
1.684056e-05
3.852265e-05
3.852264e-05
3.8522725e-05
3.8522528e-05
3.8520597e-05
3.8510798e-05
3.8466747e-05
3.8277827e-05
3.7500368e-05
3.454641e-05
2.5814945e-05
1.4669956e-05
1.7712619e-05
3.7742032e-05
3.774193e-05
3.7741811e-05
3.7740766e-05
3.7735283e-05
3.7711707e-05
3.7617453e-05
3.7258039e-05
3.5961308e-05
3.177518e-05
2.2061889e-05
1.3531464e-05
1.7967898e-05
3.7073562e-05
3.7073366e-05
3.7072781e-05
3.7069955e-05
3.7057916e-05
3.7011651e-05
3.6843992e-05
3.6266509e-05
3.4405655e-05
2.9188861e-05
1.9425178e-05
1.3345943e-05
1.7902414e-05
3.6493786e-05
3.6493393e-05
3.6491924e-05
3.648598e-05
3.646354e-05
3.6384687e-05
3.612226e-05
3.5294625e-05
3.2873382e-05
2.6881541e-05
1.771645e-05
1.3793839e-05
1.7689846e-05
3.5985207e-05
3.5984445e-05
3.5981496e-05
3.5970726e-05
3.5933497e-05
3.5812307e-05
3.5437992e-05
3.4343601e-05
3.1395257e-05
2.4892541e-05
1.6781972e-05
1.4727875e-05
1.7427344e-05
3.5534568e-05
3.55332e-05
3.5528007e-05
3.5510417e-05
3.5453869e-05
3.5281761e-05
3.478374e-05
3.3418009e-05
2.9989903e-05
2.3242727e-05
1.6521213e-05
1.605365e-05
1.7168093e-05
3.5131649e-05
3.5129373e-05
3.5121029e-05
3.5094484e-05
3.5014364e-05
3.4784646e-05
3.4156253e-05
3.2521766e-05
2.8667649e-05
2.1957692e-05
1.6869959e-05
1.7676047e-05
1.694009e-05
3.4768438e-05
3.47649e-05
3.4752406e-05
3.4714802e-05
3.4607522e-05
3.4315777e-05
3.3554458e-05
3.16563e-05
2.7438403e-05
2.1076946e-05
1.7774701e-05
1.9481897e-05
1.6755877e-05
3.4438571e-05
3.443338e-05
3.4415717e-05
3.4365168e-05
3.4228127e-05
3.3872266e-05
3.2977968e-05
3.0820513e-05
2.6321667e-05
2.064959e-05
1.9168673e-05
2.1348725e-05
1.6617712e-05
3.4136931e-05
3.4129689e-05
3.4105903e-05
3.4040932e-05
3.3872746e-05
3.3452766e-05
3.2426062e-05
3.0012536e-05
2.5355877e-05
2.0719809e-05
2.0958175e-05
2.3166793e-05
1.6521078e-05
3.3859367e-05
3.3849701e-05
3.3819003e-05
3.3738723e-05
3.3539365e-05
3.3056856e-05
3.1897087e-05
2.923354e-05
2.4602257e-05
2.1309035e-05
2.3024752e-05
2.4858007e-05
1.6457822e-05
3.3602495e-05
3.3590098e-05
3.355197e-05
3.3456247e-05
3.3227088e-05
3.2684517e-05
3.1388405e-05
2.8493549e-05
2.4138757e-05
2.2402735e-05
2.5241354e-05
2.6381456e-05
1.6418929e-05
3.3363555e-05
3.334823e-05
3.3302533e-05
3.3192135e-05
3.2935885e-05
3.2335692e-05
3.0897111e-05
2.7818119e-05
2.4044358e-05
2.3946906e-05
2.7493335e-05
2.7726694e-05
1.6396422e-05
3.3140311e-05
3.3122024e-05
3.3069114e-05
3.2945826e-05
3.2666358e-05
3.2009929e-05
3.0421904e-05
2.725306e-05
2.4379894e-05
2.5855075e-05
2.9693858e-05
2.8902281e-05
1.6384202e-05
3.2930983e-05
3.2909915e-05
3.2850758e-05
3.2717477e-05
3.2419519e-05
3.1706209e-05
2.9966345e-05
2.6863467e-05
2.5173338e-05
2.8023002e-05
3.1788481e-05
2.9925862e-05
1.6378087e-05
3.27342e-05
3.2710811e-05
3.2647097e-05
3.2507877e-05
3.219656e-05
3.1423099e-05
2.9543334e-05
2.6725088e-05
2.6414165e-05
3.0346001e-05
3.3750499e-05
3.0817911e-05
1.6375449e-05
3.254898e-05
3.2524066e-05
3.2458325e-05
3.2318371e-05
3.1998619e-05
3.1159479e-05
2.9179673e-05
2.6909996e-05
2.805682e-05
3.2733297e-05
3.5572232e-05
3.159849e-05
1.6374764e-05
3.2374714e-05
3.234948e-05
3.2285189e-05
3.2150777e-05
3.1826588e-05
3.0916123e-05
2.8918575e-05
2.7471841e-05
3.0030665e-05
3.5115834e-05
3.7256818e-05
3.2285748e-05
1.6375224e-05
3.2211173e-05
3.2187303e-05
3.2128983e-05
3.2007273e-05
3.1681012e-05
3.0698308e-05
2.8817773e-05
2.843585e-05
3.2252928e-05
3.7447133e-05
3.8812576e-05
3.2895331e-05
1.6376448e-05
3.2058522e-05
3.2038256e-05
3.199155e-05
3.1890271e-05
3.1562235e-05
3.051924e-05
2.8942305e-05
2.9795901e-05
3.4641249e-05
3.9699498e-05
4.0249838e-05
3.3440303e-05
1.6378293e-05
3.1917349e-05
3.1903563e-05
3.1875268e-05
3.1802262e-05
3.147098e-05
3.0403414e-05
2.9353631e-05
3.1518041e-05
3.7123065e-05
4.1858566e-05
4.1579379e-05
3.3931333e-05
1.6380731e-05
3.1788707e-05
3.1784988e-05
3.1783034e-05
3.1745667e-05
3.1409596e-05
3.0388388e-05
3.009864e-05
3.3548311e-05
3.9640503e-05
4.3918428e-05
4.2811639e-05
3.4377031e-05
1.638378e-05
3.167417e-05
3.1684884e-05
3.1718215e-05
3.1722747e-05
3.1384107e-05
3.0523332e-05
3.1201974e-05
3.5822341e-05
4.2151078e-05
4.5878174e-05
4.3956334e-05
3.4784314e-05
1.6387467e-05
3.1575896e-05
3.1606239e-05
3.1684577e-05
3.1735682e-05
3.1406918e-05
3.086367e-05
3.2663377e-05
3.8274456e-05
4.4625623e-05
4.7739784e-05
4.5022274e-05
3.515874e-05
1.6391813e-05
3.1496714e-05
3.155272e-05
3.1686171e-05
3.1786997e-05
3.1499546e-05
3.1462866e-05
3.4459809e-05
4.0844581e-05
4.7045146e-05
4.9506882e-05
4.6017316e-05
3.5504795e-05
1.6396824e-05
3.1440215e-05
3.1528703e-05
3.1727217e-05
3.1880504e-05
3.1694229e-05
3.2363742e-05
3.6550941e-05
4.3482184e-05
4.9397839e-05
5.1183996e-05
4.6948402e-05
3.5826125e-05
1.6402494e-05
3.141085e-05
3.1539289e-05
3.1812006e-05
3.2022926e-05
3.2033144e-05
3.3591893e-05
3.8886228e-05
4.6147426e-05
5.1676787e-05
5.2776063e-05
4.7821641e-05
3.6125718e-05
1.6408802e-05
3.1414042e-05
3.1590274e-05
3.1944928e-05
3.2226119e-05
3.2564562e-05
3.5152683e-05
4.1411885e-05
4.8810348e-05
5.3878384e-05
5.4288122e-05
4.8642393e-05
3.6406048e-05
1.6415722e-05
3.1456281e-05
3.1688095e-05
3.2130757e-05
3.2509432e-05
3.333648e-05
3.7032008e-05
4.4076505e-05
5.144913e-05
5.6001296e-05
5.5725115e-05
4.9415388e-05
3.6669254e-05
1.642322e-05
3.1545208e-05
3.183974e-05
3.2375386e-05
3.2901322e-05
3.4389411e-05
3.9199974e-05
4.6834633e-05
5.4048187e-05
5.804569e-05
5.7091638e-05
5.0144339e-05
3.6914944e-05
1.6431248e-05
3.1689662e-05
3.2052668e-05
3.2687145e-05
3.3439134e-05
3.5750338e-05
4.1616208e-05
4.9648332e-05
5.6596557e-05
6.0012742e-05
5.8392011e-05
5.0832727e-05
3.7144923e-05
1.6439749e-05
3.1899684e-05
3.2334823e-05
3.3078704e-05
3.4166338e-05
3.74293e-05
4.4235458e-05
5.2487191e-05
5.9086682e-05
6.1904244e-05
5.9630092e-05
5.1482697e-05
3.7361244e-05
1.6448668e-05
3.2186465e-05
3.2694872e-05
3.3569195e-05
3.5127409e-05
3.9419063e-05
4.7012427e-05
5.5327448e-05
6.1513507e-05
6.3722343e-05
6.0809395e-05
5.2096451e-05
3.7565314e-05
1.6457958e-05
3.2562281e-05
3.3142861e-05
3.418583e-05
3.6361549e-05
4.1697457e-05
4.9905186e-05
5.8150806e-05
6.3873834e-05
6.5469391e-05
6.1933118e-05
5.26774e-05
3.7758158e-05
1.6467586e-05
3.3040474e-05
3.369144e-05
3.4963992e-05
3.7896945e-05
4.423143e-05
5.2877047e-05
6.0943282e-05
6.6165777e-05
6.7147567e-05
6.3002906e-05
5.3228279e-05
3.7940824e-05
1.6477531e-05
3.3635637e-05
3.4357647e-05
3.5945064e-05
3.9746991e-05
4.698172e-05
5.5897118e-05
6.3694248e-05
6.838843e-05
6.8759335e-05
6.4022596e-05
5.3751054e-05
3.8114079e-05
1.6487766e-05
3.4364222e-05
3.51649e-05
3.7171975e-05
4.1909154e-05
4.9907176e-05
5.8940023e-05
6.6395664e-05
7.0541367e-05
7.0305658e-05
6.4995389e-05
5.424764e-05
3.8278685e-05
1.6498266e-05
3.5245719e-05
3.6144412e-05
3.8683389e-05
4.4366361e-05
5.2968074e-05
6.1985168e-05
6.9041448e-05
7.2624749e-05
7.1789409e-05
6.5923872e-05
5.471966e-05
3.8435268e-05
1.6509004e-05
3.6304389e-05
3.7335013e-05
4.0508067e-05
4.7090195e-05
5.6128203e-05
6.5015942e-05
7.1626953e-05
7.4638167e-05
7.3213265e-05
6.6810358e-05
5.516863e-05
3.8584369e-05
1.6519954e-05
3.7571044e-05
3.8780593e-05
4.2660832e-05
5.0044941e-05
5.9355776e-05
6.8018896e-05
7.4148648e-05
7.6582489e-05
7.4579719e-05
6.7656901e-05
5.5595891e-05
3.872645e-05
1.653109e-05
3.908385e-05
4.0525212e-05
4.514097e-05
5.3191575e-05
6.2623567e-05
7.0983102e-05
7.6603208e-05
7.8458836e-05
7.5890908e-05
6.8465404e-05
5.6002631e-05
3.8861904e-05
1.6542386e-05
4.0886899e-05
4.260685e-05
4.7933087e-05
5.6490981e-05
6.5908442e-05
7.3899524e-05
7.8988643e-05
8.0268734e-05
7.7148734e-05
6.9237565e-05
5.6389886e-05
3.8991065e-05
1.6553815e-05
4.3025758e-05
4.505141e-05
5.1009868e-05
5.9906207e-05
6.9190862e-05
7.6760134e-05
8.130326e-05
8.2013417e-05
7.8354963e-05
6.9974896e-05
5.6758559e-05
3.9114209e-05
1.6565353e-05
4.5540339e-05
4.7868446e-05
5.4335743e-05
6.3403509e-05
7.2453903e-05
7.9558409e-05
8.3546724e-05
8.3693975e-05
7.9511138e-05
7.0678712e-05
5.7109425e-05
3.9231565e-05
1.6576974e-05
4.84567e-05
5.1049439e-05
5.7870617e-05
6.6952747e-05
7.568278e-05
8.228886e-05
8.5718425e-05
8.5311368e-05
8.0618598e-05
7.1350139e-05
5.7443133e-05
3.9343314e-05
1.6588653e-05
5.1780107e-05
5.456862e-05
6.1572932e-05
7.0526864e-05
7.8863941e-05
8.4947815e-05
8.7817766e-05
8.6866351e-05
8.1678453e-05
7.1990117e-05
5.7760218e-05
3.9449594e-05
1.6600366e-05
5.5491352e-05
5.8385628e-05
6.5401387e-05
7.4100919e-05
8.1987183e-05
8.7531663e-05
8.9844045e-05
8.8359444e-05
8.2691576e-05
7.2599398e-05
5.8061099e-05
3.95505e-05
1.6612087e-05
5.9547214e-05
6.2448903e-05
6.9315562e-05
7.7653778e-05
8.5043648e-05
9.0036944e-05
9.1796379e-05
8.9790907e-05
8.3658592e-05
7.3178545e-05
5.8346087e-05
3.9646088e-05
1.662379e-05
6.388446e-05
6.6699777e-05
7.3278193e-05
8.1167571e-05
8.8025177e-05
9.2460232e-05
9.3673659e-05
9.116071e-05
8.457987e-05
7.3727937e-05
5.8615382e-05
3.9736372e-05
1.6635451e-05
6.8427323e-05
7.1077061e-05
7.7255172e-05
8.4626032e-05
9.092414e-05
9.4798063e-05
9.5474522e-05
9.2468531e-05
8.5455524e-05
7.4247765e-05
5.8869078e-05
3.9821329e-05
1.664704e-05
7.3095513e-05
7.5520261e-05
8.12147e-05
8.801419e-05
9.3733329e-05
9.704692e-05
9.7197355e-05
9.3713761e-05
8.6285417e-05
7.473804e-05
5.9107163e-05
3.9900894e-05
1.6658531e-05
7.7811246e-05
7.9972282e-05
8.5127244e-05
9.1318172e-05
9.6445908e-05
9.9203254e-05
9.8840328e-05
9.4895526e-05
8.7069177e-05
7.5198601e-05
5.9329529e-05
3.997497e-05
1.6669891e-05
8.2504315e-05
8.438143e-05
8.896564e-05
9.4525117e-05
9.9055431e-05
0.00010126355
0.00010040146
9.6012741e-05
8.7806229e-05
7.5629132e-05
5.9535976e-05
4.0043424e-05
1.6681088e-05
8.7114969e-05
8.8702706e-05
9.2705322e-05
9.7623188e-05
0.0001015559
0.00010322441
0.00010187872
9.7064173e-05
8.8495841e-05
7.6029193e-05
5.9726228e-05
4.0106096e-05
1.6692087e-05
9.1594914e-05
9.2898448e-05
9.6324599e-05
0.00010060167
0.00010394185
0.00010508271
0.00010327013
9.8048535e-05
8.913718e-05
7.6398254e-05
5.9899953e-05
4.0162804e-05
1.6702851e-05
9.5906966e-05
9.6938397e-05
9.9804907e-05
0.00010345111
0.0001062085
0.00010683569
0.00010457387
9.8964584e-05
8.9729394e-05
7.673574e-05
6.0056788e-05
4.0213357e-05
1.671334e-05
0.00010002393
0.00010079933
0.00010313096
0.00010616346
0.0001083518
0.00010848106
0.00010578844
9.981123e-05
9.0271685e-05
7.7041091e-05
6.019637e-05
4.0257567e-05
1.6723514e-05
0.00010392714
0.00010446443
0.00010629078
0.00010873219
0.0001103686
0.00011001716
0.00010691275
0.00010058764
9.0763396e-05
7.7313813e-05
6.031837e-05
4.0295261e-05
1.6733331e-05
0.00010760493
0.00010792243
0.0001092756
0.0001111524
0.00011225669
0.00011144301
0.00010794621
0.00010129332
9.1204092e-05
7.7553546e-05
6.0422529e-05
4.0326299e-05
1.674275e-05
0.00011105124
0.00011116681
0.00011207965
0.00011342078
0.00011401485
0.00011275833
0.00010888879
0.00010192821
9.1593625e-05
7.7760106e-05
6.0508691e-05
4.0350589e-05
1.6751732e-05
0.0001142644
0.00011419493
0.00011469987
0.00011553563
0.00011564285
0.00011396363
0.00010974108
0.00010249271
9.1932189e-05
7.7933541e-05
6.0576834e-05
4.0368098e-05
1.6760239e-05
0.00011724612
0.00011700732
0.0001171356
0.00011749674
0.00011714145
0.00011506015
0.00011050427
0.00010298774
9.2220357e-05
7.8074156e-05
6.0627092e-05
4.0378864e-05
1.6768237e-05
0.00012000068
0.00011960698
0.00011938822
0.00011930528
0.00011851235
0.00011604984
0.00011118018
0.00010341469
9.2459093e-05
7.8182536e-05
6.0659771e-05
4.0383e-05
1.6775699e-05
0.00012253425
0.00012199885
0.00012146081
0.00012096367
0.00011975807
0.00011693532
0.00011177117
0.00010377547
9.2649751e-05
7.825955e-05
6.0675354e-05
4.0380702e-05
1.6782601e-05
0.00012485443
0.00012418935
0.00012335786
0.00012247536
0.00012088192
0.0001177198
0.00011228013
0.0001040724
9.2794056e-05
7.8306344e-05
6.0674497e-05
4.0372242e-05
1.6788926e-05
0.00012696979
0.00012618598
0.00012508499
0.00012384474
0.00012188785
0.00011840701
0.00011271037
0.00010430823
9.2894071e-05
7.8324322e-05
6.0658022e-05
4.0357964e-05
1.6794665e-05
0.00012888959
0.00012799703
0.00012664864
0.0001250769
0.00012278037
0.00011900111
0.0001130656
0.00010448604
9.2952154e-05
7.8315115e-05
6.06269e-05
4.0338281e-05
1.6799815e-05
0.00013062352
0.00012963132
0.00012805592
0.00012617756
0.00012356445
0.00011950662
0.00011334985
0.00010460919
9.2970908e-05
7.828055e-05
6.0582225e-05
4.0313655e-05
1.6804378e-05
0.00013218153
0.00013109803
0.00012931442
0.00012715285
0.0001242454
0.00011992833
0.00011356734
0.00010468125
9.2953131e-05
7.822261e-05
6.0525192e-05
4.0284595e-05
1.6808364e-05
0.00013357367
0.00013240648
0.00013043198
0.00012800925
0.00012482881
0.00012027121
0.00011372251
0.00010470595
9.2901764e-05
7.8143393e-05
6.0457072e-05
4.0251638e-05
1.681179e-05
0.00013480994
0.00013356608
0.00013141666
0.00012875345
0.00012532043
0.00012054039
0.00011381984
0.00010468712
9.2819835e-05
7.8045068e-05
6.0379179e-05
4.0215335e-05
1.6814674e-05
0.00013590027
0.00013458615
0.00013227656
0.00012939223
0.00012572608
0.00012074102
0.0001138639
0.0001046286
9.2710411e-05
7.7929841e-05
6.0292848e-05
4.0176245e-05
1.6817042e-05
0.00013685436
0.00013547591
0.00013301974
0.00012993244
0.00012605166
0.00012087827
0.00011385922
0.00010453426
9.2576554e-05
7.7799912e-05
6.0199408e-05
4.0134919e-05
1.6818922e-05
0.00013768168
0.00013624437
0.00013365418
0.00013038084
0.00012630297
0.00012095726
0.00011381027
0.00010440788
9.2421279e-05
7.7657448e-05
6.010016e-05
4.0091887e-05
1.6820345e-05
0.00013839143
0.00013690028
0.00013418767
0.00013074413
0.00012648579
0.00012098301
0.00011372144
0.00010425316
9.2247523e-05
7.7504549e-05
5.9996356e-05
4.0047655e-05
1.6821343e-05
0.00013899245
0.0001374521
0.00013462781
0.00013102885
0.00012660573
0.00012096041
0.00011359696
0.00010407367
9.2058113e-05
7.7343229e-05
5.9889188e-05
4.0002698e-05
1.6821951e-05
0.00013949324
0.00013790799
0.00013498193
0.00013124135
0.00012666824
0.00012089421
0.00011344093
0.00010387284
9.1855748e-05
7.7175395e-05
5.9779772e-05
3.9957452e-05
1.6822202e-05
0.00013990195
0.00013827576
0.00013525711
0.00013138775
0.00012667862
0.00012078895
0.00011325726
0.00010365394
9.1642979e-05
7.7002839e-05
5.9669142e-05
3.9912312e-05
1.682213e-05
0.00014022634
0.00013856287
0.00013546011
0.00013147397
0.00012664192
0.000120649
0.00011304968
0.00010342004
9.14222e-05
7.6827222e-05
5.9558243e-05
3.9867633e-05
1.6821769e-05
0.00014047378
0.00013877642
0.00013559741
0.00013150565
0.00012656301
0.00012047853
0.00011282172
0.00010317404
9.1195641e-05
7.6650073e-05
5.9447934e-05
3.9823729e-05
1.6821151e-05
0.00014065126
0.00013892313
0.00013567514
0.00013148816
0.00012644649
0.00012028146
0.0001125767
0.00010291865
9.0965358e-05
7.6472786e-05
5.9338977e-05
3.978087e-05
1.6820308e-05
0.00014076538
0.00013900938
0.00013569913
0.00013142661
0.00012629675
0.00012006152
0.00011231771
0.00010265637
9.0733235e-05
7.6296613e-05
5.9232048e-05
3.973929e-05
1.681927e-05
0.00014082238
0.00013904116
0.00013567489
0.00013132583
0.00012611791
0.00011982219
0.00011204766
0.00010238951
9.0500979e-05
7.6122673e-05
5.912773e-05
3.9699181e-05
1.6818065e-05
0.00014082808
0.00013902412
0.00013560759
0.00013119036
0.00012591386
0.00011956674
0.00011176923
0.00010212016
9.0270122e-05
7.5951931e-05
5.9026475e-05
3.9660486e-05
1.6816718e-05
0.00014078797
0.00013896356
0.00013550209
0.00013102447
0.00012568824
0.00011929819
0.00011148486
0.00010185025
9.0042016e-05
7.5785211e-05
5.8928635e-05
3.9623154e-05
1.681525e-05
0.00014070716
0.0001388644
0.00013536294
0.00013083217
0.00012544443
0.00011901936
0.00011119682
0.00010158146
8.9817831e-05
7.5623148e-05
5.8834232e-05
3.9587477e-05
1.6813682e-05
0.00014059044
0.00013873128
0.00013519439
0.00013061716
0.00012518559
0.00011873282
0.00011090714
0.00010131532
8.9598585e-05
7.5466316e-05
5.8743602e-05
3.9553576e-05
1.6812031e-05
0.00014044224
0.00013856848
0.00013500038
0.00013038292
0.00012491464
0.00011844095
0.00011061766
0.00010105316
8.9385065e-05
7.5314836e-05
5.8657173e-05
3.9521542e-05
1.6810319e-05
0.00014026672
0.00013838001
0.00013478461
0.00013013268
0.00012463427
0.00011814592
0.00011033004
0.0001007961
8.9177898e-05
7.5169398e-05
5.8575089e-05
3.9491421e-05
1.6808565e-05
0.0001400677
0.00013816958
0.00013455048
0.00012986941
0.00012434697
0.00011784969
0.00011004574
0.00010054514
8.8977629e-05
7.5030465e-05
5.8497477e-05
3.9463247e-05
1.6806784e-05
0.00013984874
0.00013794063
0.00013430116
0.00012959587
0.00012405501
0.00011755403
0.000109766
0.00010030093
8.8785066e-05
7.489829e-05
5.8424421e-05
3.9437033e-05
1.6804994e-05
0.00013961313
0.00013769633
0.00013403957
0.00012931459
0.00012376046
0.00011726052
0.00010949187
0.00010006444
8.8600688e-05
7.477306e-05
5.8355965e-05
3.9412773e-05
1.6803207e-05
0.00013936391
0.00013743962
0.00013376838
0.00012902787
0.00012346517
0.0001169705
0.00010922436
9.9836471e-05
8.8424851e-05
7.46549e-05
5.8292116e-05
3.9390447e-05
1.6801435e-05
0.00013910384
0.00013717316
0.00013349003
0.0001287378
0.00012317077
0.00011668515
0.00010896458
9.9617578e-05
8.8257821e-05
7.4543877e-05
5.8232843e-05
3.9370016e-05
1.6799689e-05
0.00013883545
0.00013689939
0.00013320673
0.00012844621
0.00012287866
0.00011640582
0.00010871331
9.9408208e-05
8.8099769e-05
7.4439993e-05
5.8178082e-05
3.9351429e-05
1.6797978e-05
0.00013856102
0.00013662048
0.0001329204
0.00012815473
0.00012259038
0.00011613353
0.00010847121
9.9208689e-05
8.7950787e-05
7.4343197e-05
5.8127737e-05
3.9334625e-05
1.6796309e-05
0.00013828257
0.00013633835
0.00013263284
0.00012786502
0.00012230718
0.00011586918
0.00010823882
9.9019248e-05
8.7810888e-05
7.4253387e-05
5.8081684e-05
3.9319528e-05
1.6794689e-05
0.00013800192
0.00013605483
0.00013234575
0.00012757852
0.00012203018
0.00011561351
0.00010801653
9.8840019e-05
8.7680017e-05
7.4170418e-05
5.8039777e-05
3.9306059e-05
1.6793123e-05
0.00013772079
0.00013577155
0.00013206064
0.00012729651
0.00012176033
0.00011536713
0.00010780464
9.8671057e-05
8.755807e-05
7.4094112e-05
5.8001854e-05
3.929413e-05
1.6791615e-05
0.00013744073
0.00013549004
0.0001317789
0.0001270201
0.00012149844
0.00011513055
0.00010760338
9.8512354e-05
8.7444895e-05
7.402427e-05
5.7967746e-05
3.9283657e-05
1.6790167e-05
0.00013716313
0.00013521165
0.00013150172
0.00012675029
0.00012124524
0.00011490418
0.00010741289
9.836385e-05
8.7340313e-05
7.3960675e-05
5.793728e-05
3.9274553e-05
1.6788783e-05
0.00013688929
0.00013493761
0.00013123022
0.00012648796
0.00012100131
0.00011468833
0.00010723325
9.8225441e-05
8.7244117e-05
7.3903106e-05
5.7910284e-05
3.9266739e-05
1.6787463e-05
0.00013662036
0.00013466901
0.00013096535
0.00012623387
0.00012076717
0.00011448326
0.00010706446
9.8096986e-05
8.7156084e-05
7.3851331e-05
5.7886588e-05
3.9260136e-05
1.6786209e-05
0.00013635737
0.00013440684
0.00013070798
0.00012598868
0.00012054323
0.00011428914
0.00010690651
9.7978305e-05
8.7075966e-05
7.3805115e-05
5.7866023e-05
3.9254671e-05
1.6785023e-05
0.00013610123
0.00013415196
0.00013045884
0.00012575295
0.00012032983
0.00011410607
0.0001067593
9.7869182e-05
8.7003497e-05
7.376421e-05
5.7848419e-05
3.9250272e-05
1.6783905e-05
0.00013585272
0.00013390511
0.00013021856
0.00012552711
0.00012012719
0.00011393407
0.00010662268
9.7769361e-05
8.6938383e-05
7.3728357e-05
5.7833601e-05
3.9246865e-05
1.6782855e-05
0.00013561253
0.00013366692
0.00012998766
0.00012531152
0.00011993545
0.00011377309
0.00010649645
9.7678542e-05
8.6880307e-05
7.3697284e-05
5.7821389e-05
3.9244374e-05
1.6781874e-05
0.00013538119
0.00013343789
0.00012976654
0.00012510642
0.00011975469
0.000113623
0.00010638034
9.7596391e-05
8.6828927e-05
7.3670706e-05
5.7811595e-05
3.9242723e-05
1.678096e-05
0.00013515915
0.00013321842
0.00012955551
0.00012491197
0.00011958488
0.00011348363
0.00010627405
9.7522541e-05
8.6783882e-05
7.3648327e-05
5.7804032e-05
3.9241833e-05
1.6780112e-05
0.00013494674
0.00013300882
0.00012935476
0.00012472823
0.00011942592
0.00011335474
0.00010617724
9.7456604e-05
8.6744805e-05
7.3629853e-05
5.7798509e-05
3.9241624e-05
1.6779328e-05
0.00013474421
0.00013280929
0.00012916444
0.00012455522
0.00011927767
0.00011323604
0.00010608953
9.7398183e-05
8.6711327e-05
7.3614996e-05
5.7794847e-05
3.9242025e-05
1.6778606e-05
0.00013455174
0.00013261997
0.0001289846
0.00012439287
0.00011913994
0.00011312724
0.00010601056
9.7346882e-05
8.6683089e-05
7.3603479e-05
5.7792876e-05
3.9242966e-05
1.6777944e-05
0.00013436942
0.00013244096
0.00012881526
0.00012424108
0.00011901253
0.00011302802
0.00010593995
9.7302314e-05
8.665975e-05
7.3595044e-05
5.7792442e-05
3.9244388e-05
1.6777339e-05
0.00013419733
0.00013227226
0.00012865636
0.00012409973
0.00011889517
0.00011293804
0.0001058773
9.7264104e-05
8.6640984e-05
7.3589451e-05
5.7793403e-05
3.924624e-05
1.6776789e-05
0.00013403547
0.00013211388
0.00012850785
0.00012396863
0.00011878762
0.00011285697
0.00010582226
9.7231886e-05
8.662648e-05
7.3586475e-05
5.7795632e-05
3.9248475e-05
1.6776292e-05
0.00013388381
0.00013196574
0.0001283696
0.00012384761
0.00011868959
0.00011278446
0.00010577443
9.72053e-05
8.6615936e-05
7.3585901e-05
5.7799007e-05
3.9251051e-05
1.6775847e-05
0.00013374226
0.00013182774
0.00012824144
0.00012373641
0.00011860076
0.00011272013
0.00010573344
9.7183984e-05
8.6609055e-05
7.3587517e-05
5.7803411e-05
3.9253927e-05
1.677545e-05
0.00013361069
0.00013169974
0.00012812319
0.00012363477
0.0001185208
0.0001126636
0.00010569889
9.7167575e-05
8.6605537e-05
7.3591113e-05
5.7808724e-05
3.9257062e-05
1.6775101e-05
0.00013348894
0.00013158154
0.0001280146
0.00012354239
0.00011844934
0.00011261447
0.00010567038
9.7155702e-05
8.6605081e-05
7.3596476e-05
5.7814827e-05
3.926041e-05
1.6774797e-05
0.00013337677
0.00013147289
0.00012791539
0.00012345894
0.00011838599
0.00011257233
0.00010564748
9.7147997e-05
8.6607391e-05
7.3603399e-05
5.7821602e-05
3.9263929e-05
1.6774535e-05
0.00013327395
0.00013137353
0.00012782525
0.00012338404
0.00011833036
0.00011253674
0.0001056298
9.7144098e-05
8.6612178e-05
7.3611681e-05
5.7828937e-05
3.9267574e-05
1.6774313e-05
0.00013318018
0.00013128317
0.00012774385
0.00012331733
0.00011828203
0.0001125073
0.00010561694
9.7143661e-05
8.6619172e-05
7.3621137e-05
5.7836727e-05
3.927131e-05
1.6774127e-05
0.00013309517
0.00013120149
0.00012767085
0.00012325844
0.0001182406
0.00011248361
0.00010560852
9.7146364e-05
8.6628125e-05
7.3631604e-05
5.7844887e-05
3.9275104e-05
1.6773975e-05
0.0001330186
0.00013112815
0.0001276059
0.00012320698
0.00011820569
0.00011246526
0.00010560419
9.715191e-05
8.6638815e-05
7.3642937e-05
5.7853341e-05
3.9278934e-05
1.6773855e-05
0.00013295015
0.00013106284
0.00012754865
0.00012316259
0.0001181769
0.0001124519
0.00010560362
9.7160025e-05
8.6651041e-05
7.3655009e-05
5.786203e-05
3.9282783e-05
1.6773764e-05
0.00013288948
0.0001310052
0.00012749872
0.00012312489
0.00011815387
0.00011244316
0.00010560648
9.7170449e-05
8.6664615e-05
7.3667706e-05
5.78709e-05
3.9286637e-05
1.6773701e-05
0.00013283624
0.00013095487
0.00012745576
0.00012309348
0.0001181362
0.00011243869
0.00010561245
9.7182928e-05
8.6679352e-05
7.3680914e-05
5.7879897e-05
3.9290483e-05
1.6773664e-05
0.00013279003
0.00013091145
0.00012741936
0.00012306798
0.0001181235
0.0001124381
0.00010562123
9.7197203e-05
8.6695064e-05
7.3694515e-05
5.7888963e-05
3.9294305e-05
1.6773652e-05
0.00013275045
0.00013087455
0.00012738911
0.00012304796
0.00011811537
0.00011244104
0.00010563247
9.7213005e-05
8.6711554e-05
7.3708381e-05
5.7898032e-05
3.9298079e-05
1.6773662e-05
0.00013271708
0.00013084373
0.00012736456
0.00012303298
0.00011811138
0.0001124471
0.00010564584
9.7230062e-05
8.6728619e-05
7.3722378e-05
5.790703e-05
3.9301777e-05
1.6773693e-05
0.00013268946
0.00013081854
0.00012734528
0.00012302261
0.00011811112
0.00011245591
0.00010566102
9.7248107e-05
8.6746059e-05
7.3736374e-05
5.7915884e-05
3.930537e-05
1.677374e-05
0.00013266717
0.00013079855
0.00012733082
0.00012301642
0.00011811418
0.00011246711
0.00010567768
9.7266888e-05
8.6763691e-05
7.3750247e-05
5.7924524e-05
3.9308829e-05
1.6773802e-05
0.00013264979
0.00013078334
0.00012732077
0.000123014
0.00011812019
0.00011248035
0.00010569555
9.7286194e-05
8.6781363e-05
7.3763903e-05
5.7932901e-05
3.9312134e-05
1.6773876e-05
0.00013263694
0.00013077253
0.00012731477
0.00012301501
0.00011812882
0.00011249536
0.00010571441
9.7305858e-05
8.6798965e-05
7.3777278e-05
5.7940986e-05
3.9315276e-05
1.6773958e-05
0.00013262831
0.0001307658
0.00012731249
0.00012301914
0.00011813981
0.00011251193
0.00010573409
9.7325763e-05
8.6816431e-05
7.3790347e-05
5.7948777e-05
3.9318259e-05
1.6774049e-05
0.00013262363
0.00013076289
0.00012731367
0.00012302615
0.00011815294
0.00011252987
0.00010575447
9.7345841e-05
8.6833736e-05
7.3803114e-05
5.7956292e-05
3.9321094e-05
1.6774146e-05
0.00013262267
0.00013076354
0.00012731807
0.00012303583
0.00011816804
0.00011254906
0.00010577545
9.7366048e-05
8.6850874e-05
7.3815598e-05
5.7963553e-05
3.9323774e-05
1.6774251e-05
0.0001326252
0.00013076756
0.0001273255
0.00012304799
0.00011818495
0.00011256938
0.00010579697
9.7386351e-05
8.6867842e-05
7.3827813e-05
5.7970566e-05
3.9326338e-05
1.6774361e-05
0.00013263102
0.00013077472
0.00012733574
0.00012306243
0.0001182035
0.00011259069
0.00010581894
9.7406696e-05
8.6884623e-05
7.3839765e-05
5.7977351e-05
3.93288e-05
1.6774478e-05
0.00013263986
0.00013078478
0.00012734855
0.00012307893
0.00011822349
0.00011261283
0.00010584123
9.7427e-05
8.6901158e-05
7.3851401e-05
5.7983919e-05
3.9331168e-05
1.6774602e-05
0.00013265143
0.00013079744
0.00012736364
0.00012309722
0.00011824468
0.00011263561
0.00010586367
9.7447135e-05
8.6917355e-05
7.3862682e-05
5.7990242e-05
3.933344e-05
1.6774732e-05
0.00013266537
0.00013081235
0.00012738068
0.00012311698
0.00011826679
0.00011265876
0.00010588606
9.7466934e-05
8.6933078e-05
7.3873544e-05
5.7996282e-05
3.9335605e-05
1.6774867e-05
0.00013268128
0.00013082912
0.00012739929
0.00012313787
0.0001182895
0.00011268202
0.00010590817
9.7486208e-05
8.6948208e-05
7.3883901e-05
5.8001989e-05
3.933764e-05
1.6775005e-05
0.00013269873
0.00013084734
0.00012741908
0.00012315952
0.00011831249
0.00011270511
0.00010592978
9.7504775e-05
8.6962633e-05
7.3893666e-05
5.8007313e-05
3.9339523e-05
1.6775143e-05
0.00013271731
0.0001308666
0.00012743968
0.00012318159
0.00011833546
0.00011272779
0.00010595066
9.7522507e-05
8.6976251e-05
7.3902773e-05
5.8012212e-05
3.9341232e-05
1.677528e-05
0.00013273667
0.00013088657
0.00012746075
0.00012320379
0.00011835817
0.00011274984
0.00010597069
9.7539313e-05
8.6988997e-05
7.3911181e-05
5.8016663e-05
3.9342754e-05
1.6775413e-05
0.00013275651
0.00013090694
0.00012748202
0.00012322589
0.00011838043
0.00011277115
0.00010598981
9.7555151e-05
8.7000853e-05
7.3918887e-05
5.8020667e-05
3.9344089e-05
1.677554e-05
0.00013277663
0.00013092752
0.00012750333
0.00012324775
0.00011840214
0.00011279167
0.000106008
9.7570035e-05
8.7011849e-05
7.3925924e-05
5.8024249e-05
3.9345245e-05
1.6775661e-05
0.00013279693
0.0001309482
0.00012752458
0.00012326931
0.0001184233
0.00011281142
0.0001060253
9.7584026e-05
8.7022055e-05
7.3932358e-05
5.8027456e-05
3.9346245e-05
1.6775774e-05
0.00013281736
0.00013096894
0.00012754574
0.00012329057
0.00011844394
0.00011283048
0.00010604179
9.759722e-05
8.7031567e-05
7.3938272e-05
5.8030349e-05
3.9347118e-05
1.6775882e-05
0.00013283795
0.00013098978
0.00012756685
0.00012331158
0.00011846413
0.0001128489
0.00010605758
9.760972e-05
8.7040485e-05
7.3943754e-05
5.8032991e-05
3.9347896e-05
1.6775985e-05
0.00013285875
0.00013101074
0.00012758795
0.0001233324
0.00011848391
0.00011286679
0.00010607276
9.7621622e-05
8.7048903e-05
7.3948882e-05
5.8035438e-05
3.9348609e-05
1.6776085e-05
0.00013287977
0.00013103185
0.00012760906
0.00012335304
0.00011850335
0.00011288417
0.00010608737
9.763299e-05
8.7056882e-05
7.395371e-05
5.803773e-05
3.9349277e-05
1.6776183e-05
0.000132901
0.00013105311
0.00012763018
0.00012337351
0.00011852243
0.00011290108
0.00010610146
9.7643852e-05
8.7064451e-05
7.3958264e-05
5.8039887e-05
3.9349913e-05
1.677628e-05
0.00013292237
0.00013107443
0.00012765123
0.00012339375
0.0001185411
0.00011291746
0.00010611498
9.7654194e-05
8.7071602e-05
7.396254e-05
5.8041908e-05
3.9350516e-05
1.6776377e-05
0.00013294374
0.0001310957
0.0001276721
0.00012341363
0.00011855928
0.00011293325
0.00010612788
9.7663966e-05
8.7078299e-05
7.3966512e-05
5.8043773e-05
3.9351078e-05
1.6776472e-05
0.00013296493
0.00013111673
0.00012769262
0.00012343302
0.00011857683
0.00011294833
0.00010614007
9.7673099e-05
8.7084485e-05
7.3970135e-05
5.8045455e-05
3.9351585e-05
1.6776566e-05
0.00013298571
0.00013113732
0.0001277126
0.00012345175
0.00011859361
0.00011296259
0.00010615145
9.7681517e-05
8.7090101e-05
7.3973365e-05
5.8046922e-05
3.935202e-05
1.6776657e-05
0.00013300587
0.00013115727
0.00012773186
0.00012346966
0.00011860949
0.00011297593
0.00010616195
9.7689156e-05
8.7095098e-05
7.3976164e-05
5.8048147e-05
3.9352368e-05
1.6776742e-05
0.0001330252