/*--------------------------------*- C++ -*----------------------------------*\
| =========                 |                                                 |
| \\      /  F ield         | OpenFOAM: The Open Source CFD Toolbox           |
|  \\    /   O peration     | Version:  2506                                  |
|   \\  /    A nd           | Website:  www.openfoam.com                      |
|    \\/     M anipulation  |                                                 |
\*---------------------------------------------------------------------------*/
FoamFile
{
    version     2.0;
    format      ascii;
    arch        "LSB;label=32;scalar=64";
    class       volScalarField;
    location    "20000/water";
    object      alphat;
}
// * * * * * * * * * * * * * * * * * * * * * * * * * * * * * * * * * * * * * //

dimensions      [1 -1 -1 0 0 0 0];

internalField   nonuniform List<scalar> 
2600
(
0.040489031
0.04048893
0.040488932
0.040488969
0.04048893
0.040488424
0.040485257
0.04046703
0.040362559
0.039762099
0.036475623
0.024118064
0.014862723
0.039376404
0.039376463
0.039376584
0.03937667
0.03937627
0.039373342
0.039357935
0.03928206
0.038918252
0.037247647
0.030707814
0.017504579
0.016810247
0.03845331
0.038453299
0.038453385
0.038453188
0.038451259
0.038441479
0.038397507
0.038208927
0.037432867
0.034484227
0.025768479
0.01464355
0.017680736
0.037674097
0.037673994
0.037673876
0.037672833
0.03766736
0.037643826
0.037549741
0.037190974
0.035896577
0.031717985
0.022022178
0.013507107
0.017935556
0.037006829
0.037006634
0.03700605
0.037003229
0.036991211
0.03694503
0.036777672
0.036201229
0.034343725
0.029136321
0.019390213
0.01332192
0.01787019
0.036428097
0.036427705
0.036426239
0.036420305
0.036397905
0.036319194
0.03605724
0.035231095
0.03281421
0.026833154
0.017684561
0.01376901
0.017658004
0.035920433
0.035919673
0.03591673
0.035905979
0.035868817
0.035747845
0.035374204
0.034281783
0.031338745
0.024847734
0.016751764
0.014701365
0.017395975
0.035470606
0.03546924
0.035464057
0.035446499
0.035390052
0.035218253
0.034721129
0.033357857
0.029935921
0.02320089
0.016491475
0.016024754
0.017137191
0.035068412
0.03506614
0.035057811
0.035031314
0.034951338
0.034722033
0.034094772
0.032463227
0.028616047
0.021918168
0.016839593
0.01764423
0.016909598
0.034705855
0.034702323
0.034689851
0.034652315
0.034545228
0.034254009
0.03349406
0.031599319
0.027389013
0.021039007
0.017742706
0.01944683
0.016725717
0.034376582
0.0343714
0.034353768
0.03430331
0.034166516
0.033811296
0.032918607
0.030765036
0.026274288
0.020612421
0.019134168
0.021310297
0.0165878
0.034075484
0.034068256
0.034044512
0.033979658
0.033811775
0.033392551
0.032367695
0.029958513
0.025310236
0.020682513
0.02092045
0.023125092
0.01649134
0.03379842
0.033788771
0.033758129
0.033677993
0.033478994
0.032997353
0.031839673
0.02918092
0.024557974
0.021270679
0.022983308
0.024813262
0.016428198
0.033542011
0.033529635
0.033491576
0.033396025
0.033167279
0.032625685
0.031331906
0.028442261
0.024095309
0.022362412
0.025195921
0.026333969
0.016389375
0.033303501
0.033288203
0.033242589
0.033132389
0.0328766
0.032277488
0.030841497
0.027768049
0.024001082
0.023903807
0.02744385
0.027676787
0.016366909
0.033080659
0.033062404
0.03300959
0.032886524
0.032607559
0.031952311
0.030367145
0.027204007
0.024336015
0.025808542
0.029640413
0.028850259
0.01635471
0.032871707
0.032850677
0.032791627
0.032658586
0.032361164
0.031649138
0.029912406
0.026815116
0.025128032
0.027972567
0.031731265
0.029871997
0.016348606
0.032675278
0.032651931
0.032588332
0.032449362
0.032138606
0.031366538
0.029490156
0.026676985
0.026366623
0.030291381
0.033689749
0.030762439
0.016345973
0.032490392
0.032465523
0.0323999
0.032260198
0.031941021
0.03110339
0.029127147
0.026861555
0.028006316
0.032674376
0.035508199
0.031541612
0.016345289
0.03231644
0.032291251
0.032227075
0.032092906
0.031769299
0.03086047
0.028866515
0.027422383
0.029976602
0.035052619
0.03718975
0.03222763
0.016345748
0.032153193
0.032129365
0.032071151
0.03194966
0.031623984
0.030643046
0.02876589
0.028384652
0.032194861
0.037379719
0.038742706
0.032836115
0.016346971
0.032000817
0.031980587
0.031933965
0.031832868
0.03150542
0.030464298
0.028890195
0.029742252
0.034578883
0.039628031
0.040177383
0.033380107
0.016348812
0.031859898
0.031846136
0.031817892
0.031745018
0.031414329
0.030348679
0.029300781
0.031461295
0.037056235
0.041783217
0.041504534
0.033870254
0.016351245
0.031731488
0.031727775
0.031725824
0.031688525
0.031353057
0.030333683
0.030044453
0.033487917
0.03956915
0.043839377
0.042734581
0.034315153
0.016354289
0.031617156
0.031627852
0.031661123
0.031665646
0.031327616
0.030468389
0.031145809
0.035757864
0.042075214
0.045795602
0.043877219
0.034721705
0.016357969
0.03151906
0.031549349
0.031627546
0.03167856
0.03135039
0.030808121
0.03260459
0.038205573
0.04454531
0.047653864
0.044941242
0.035095458
0.016362308
0.031440021
0.031495926
0.031629138
0.031729785
0.031442855
0.031406244
0.034397795
0.040771075
0.046960479
0.049417782
0.045934492
0.03544089
0.01636731
0.031383623
0.031471953
0.031670111
0.031823126
0.031637192
0.032305503
0.036485165
0.04340393
0.049308935
0.051091873
0.0468639
0.03576164
0.016372969
0.031354311
0.03148252
0.031754748
0.031965294
0.031975499
0.033531444
0.038816245
0.046064369
0.051583774
0.052681069
0.047735563
0.036060692
0.016379266
0.031357497
0.031533413
0.031887431
0.032168121
0.032505959
0.03508942
0.04133735
0.048722491
0.053781402
0.0541904
0.048554834
0.036340515
0.016386174
0.03139966
0.031631058
0.032072925
0.032450923
0.033276483
0.036965355
0.043997165
0.051356516
0.055900486
0.055624802
0.049326435
0.036603246
0.016393659
0.031488427
0.03178243
0.032317113
0.032842104
0.034327513
0.039129412
0.046750323
0.05395089
0.057941197
0.056988864
0.050054073
0.036848493
0.016401671
0.031632621
0.031994974
0.032628309
0.033378944
0.035685985
0.041541291
0.049558954
0.056494672
0.059904709
0.058286897
0.050741222
0.037078058
0.016410157
0.031842264
0.03227662
0.033019161
0.034104836
0.037361921
0.044155825
0.052392703
0.058980316
0.061792808
0.059522752
0.051390024
0.037293991
0.01641906
0.032128528
0.032636019
0.033508768
0.035064174
0.039348102
0.046927796
0.05522785
0.061402776
0.063607638
0.060699934
0.052002676
0.037497695
0.016428334
0.032503667
0.033083201
0.034124292
0.036296093
0.041622396
0.049815351
0.05804613
0.063758858
0.065351544
0.061821638
0.05258258
0.037690194
0.016437945
0.032980998
0.033630792
0.034901053
0.037828727
0.044151811
0.052781866
0.060833583
0.066046679
0.067026701
0.062889501
0.053132469
0.037872531
0.016447871
0.033575091
0.034295801
0.035880362
0.039675447
0.046897155
0.055796505
0.063579601
0.068265333
0.06863557
0.063907356
0.053654303
0.038045474
0.016458088
0.034302366
0.035101603
0.037105068
0.041833723
0.04981735
0.058833938
0.066276157
0.070414396
0.070179111
0.064878399
0.054149995
0.038209783
0.016468569
0.035182279
0.036079357
0.038613768
0.044286513
0.052872744
0.061873605
0.068917182
0.072494031
0.071660192
0.065805212
0.054621166
0.038366085
0.016479288
0.036239049
0.037267821
0.040435169
0.047005451
0.05602719
0.064898928
0.071498036
0.074503828
0.073081489
0.066690104
0.055069328
0.038514917
0.016490218
0.037503431
0.038710807
0.042584067
0.049954885
0.059248958
0.067896481
0.074015197
0.076444654
0.074445486
0.067535125
0.055495823
0.038656743
0.016501334
0.039013523
0.040452295
0.045059748
0.05309586
0.062510871
0.070855355
0.076465342
0.078317627
0.075754318
0.068342176
0.055901832
0.038791955
0.01651261
0.040813335
0.042530194
0.047846845
0.05638933
0.065789835
0.07376653
0.078846485
0.080124269
0.077009882
0.06911295
0.056288392
0.038920885
0.016524019
0.042948352
0.044970359
0.050918089
0.059798408
0.069066346
0.076621989
0.081156935
0.08186581
0.078213939
0.069848953
0.056656402
0.039043808
0.016535536
0.045458409
0.047782323
0.054237972
0.063289409
0.072323507
0.079415221
0.083396355
0.083543339
0.079368029
0.070551499
0.057006634
0.039160953
0.016547136
0.048369515
0.050957582
0.057766474
0.066832248
0.075546561
0.082140748
0.085564137
0.085157812
0.080473488
0.071221712
0.057339738
0.039272499
0.016558794
0.051686925
0.054470414
0.06146211
0.070399917
0.078721983
0.084794903
0.087659687
0.086709984
0.081531425
0.07186053
0.057656247
0.039378585
0.016570485
0.055391469
0.058280531
0.065283655
0.073967524
0.081839589
0.087374087
0.089682305
0.088200378
0.082542713
0.072468705
0.057956581
0.039479306
0.016582185
0.059440007
0.062336472
0.069190768
0.077513974
0.08489054
0.089874848
0.091631115
0.089629254
0.08350798
0.073046803
0.05824105
0.039574719
0.016593867
0.063769425
0.06657968
0.073146257
0.081021435
0.087866697
0.092293769
0.093505013
0.090996588
0.084427597
0.073595203
0.058509858
0.039664839
0.016605506
0.068304102
0.070949079
0.077116077
0.084473672
0.090760445
0.094627396
0.095302638
0.092302059
0.085301678
0.074114098
0.058763098
0.039749642
0.016617075
0.072963896
0.075384288
0.081068487
0.087855742
0.093564589
0.096872217
0.097022381
0.093545059
0.086130087
0.074603499
0.05900076
0.039829067
0.016628545
0.077671162
0.079828314
0.084974006
0.091153796
0.096272304
0.099024687
0.098662415
0.094724713
0.086912451
0.075063241
0.059222734
0.039903013
0.016639884
0.082355814
0.084229552
0.088805516
0.094354989
0.09887715
0.10108129
0.10022076
0.095839934
0.087648193
0.07549301
0.059428817
0.039971348
0.016651062
0.086958202
0.088543079
0.09253849
0.097447504
0.10137314
0.10303865
0.10169538
0.096889489
0.088336576
0.075892362
0.059618734
0.04003391
0.016662041
0.09143011
0.092731291
0.096151269
0.10042064
0.10375481
0.10489361
0.10308429
0.097872089
0.088976769
0.076260764
0.059792151
0.040090519
0.016672786
0.095734416
0.09676398
0.099625321
0.10326496
0.10601738
0.10664343
0.10438568
0.098786491
0.089567918
0.076597644
0.059948704
0.040140982
0.016683257
0.09984397
0.10061797
0.10294538
0.10597242
0.10815681
0.10828584
0.10559806
0.099631607
0.090109227
0.07690244
0.060088032
0.040185111
0.016693412
0.10374014
0.10427645
0.10609951
0.10853652
0.11016997
0.10981916
0.10672034
0.10040661
0.090600043
0.077174664
0.060209807
0.040222734
0.016703212
0.10741128
0.1077282
0.10907893
0.11095234
0.11205464
0.11124242
0.10775192
0.101111
0.091039934
0.077413955
0.060313772
0.040253714
0.016712614
0.11085135
0.11096671
0.11187791
0.11321662
0.11380961
0.11255536
0.10869278
0.10174473
0.091428753
0.077620135
0.060399773
0.040277958
0.016721579
0.11405869
0.11398935
0.11449339
0.11532764
0.11543467
0.11375848
0.10954352
0.10230821
0.091766698
0.077793251
0.06046779
0.040295433
0.01673007
0.11703501
0.11679665
0.11692471
0.1172852
0.11693056
0.11485301
0.11030534
0.10280234
0.09205434
0.077933608
0.060517955
0.040306179
0.016738054
0.11978459
0.11939161
0.11917325
0.11909048
0.11829898
0.11584091
0.11098002
0.10322851
0.092292642
0.078041791
0.060550574
0.040310307
0.016745502
0.12231359
0.12177916
0.1212421
0.12074587
0.11954245
0.11672479
0.11156994
0.10358863
0.092482954
0.078118664
0.060566128
0.040308013
0.016752392
0.12462959
0.12396571
0.12313574
0.12225484
0.12066427
0.11750785
0.11207798
0.10388503
0.092626997
0.078165372
0.060565271
0.040299567
0.016758706
0.12674115
0.12595875
0.12485975
0.12362175
0.12166839
0.11819382
0.11250744
0.10412044
0.092726831
0.078183316
0.060548826
0.040285315
0.016764435
0.1286575
0.12776655
0.12642059
0.1248517
0.12255931
0.11878686
0.11286204
0.10429793
0.092784808
0.078174125
0.060517759
0.040265667
0.016769575
0.13038833
0.12939792
0.12782536
0.12595038
0.12334198
0.11929146
0.11314577
0.10442085
0.09280353
0.078139623
0.060473164
0.040241085
0.01677413
0.13194356
0.130862
0.1290816
0.12692393
0.12402172
0.11971242
0.11336289
0.10449279
0.092785791
0.078081791
0.060416236
0.040212078
0.016778109
0.13333321
0.13216813
0.13019718
0.12777881
0.1246041
0.1200547
0.11351778
0.10451746
0.092734524
0.078002721
0.060348241
0.040179181
0.016781528
0.13456729
0.13332566
0.13118011
0.12852169
0.12509484
0.12032341
0.11361496
0.10449867
0.09265275
0.07790458
0.060270492
0.040142946
0.016784407
0.13565568
0.13434393
0.13203848
0.12915934
0.12549979
0.12052369
0.11365895
0.10444027
0.092543532
0.077789566
0.060184321
0.040103928
0.016786771
0.13660808
0.13523211
0.13278035
0.12969859
0.12582479
0.12066071
0.11365429
0.10434611
0.092409922
0.077659877
0.060091052
0.040062677
0.016788648
0.13743393
0.1359992
0.13341366
0.1301462
0.12607567
0.12073957
0.11360544
0.10421996
0.092254933
0.077517672
0.059991984
0.040019723
0.016790069
0.13814241
0.13665394
0.1339462
0.13050885
0.12625816
0.12076528
0.11351677
0.10406553
0.092081493
0.07736505
0.059888368
0.039975571
0.016791065
0.13874235
0.13720477
0.13438556
0.13079307
0.12637789
0.12074273
0.11339252
0.10388637
0.091892427
0.077204022
0.059781393
0.039930694
0.016791671
0.13924225
0.13765985
0.13473904
0.13100518
0.1264403
0.12067665
0.11323678
0.10368591
0.091690431
0.077036494
0.059672175
0.039885529
0.016791922
0.13965022
0.13802695
0.13501373
0.13115133
0.12645066
0.12057159
0.11305345
0.1034674
0.091478052
0.076864254
0.059561747
0.039840472
0.01679185
0.13997401
0.13831353
0.13521636
0.13123739
0.12641403
0.1204319
0.11284625
0.10323393
0.09125768
0.076688961
0.059451054
0.039795876
0.01679149
0.14022098
0.13852668
0.13535339
0.131269
0.12633525
0.12026172
0.1126187
0.10298838
0.091031535
0.076512138
0.059340949
0.039752054
0.016790874
0.14039812
0.1386731
0.13543096
0.13125152
0.12621893
0.120065
0.11237411
0.10273345
0.090801666
0.076335172
0.059232192
0.039709277
0.016790033
0.140512
0.13875916
0.13545488
0.13119005
0.12606943
0.11984543
0.11211557
0.10247163
0.090569951
0.076159311
0.059125454
0.039667774
0.016788997
0.14056885
0.13879084
0.13543064
0.13108941
0.12589088
0.1196065
0.11184598
0.10220521
0.09033809
0.075985668
0.059021316
0.039627734
0.016787794
0.1405745
0.13877379
0.13536342
0.13095414
0.12568715
0.11935146
0.111568
0.10193631
0.090107614
0.075815207
0.058920226
0.039589101
0.016786449
0.14053442
0.1387133
0.13525807
0.13078851
0.12546189
0.11908335
0.1112841
0.10166684
0.089879879
0.075648755
0.058822541
0.039551825
0.016784983
0.14045375
0.1386143
0.13511914
0.13059652
0.12521849
0.11880498
0.11099653
0.10139849
0.08965606
0.075486953
0.058728285
0.039516199
0.016783416
0.14033724
0.13848142
0.13495089
0.1303819
0.1249601
0.11851894
0.11070735
0.10113281
0.089437187
0.075330383
0.058637801
0.039482349
0.016781768
0.14018936
0.13831896
0.13475727
0.13014811
0.12468966
0.11822762
0.11041841
0.10087113
0.089224053
0.075179175
0.058551526
0.039450368
0.016780058
0.14001423
0.1381309
0.13454196
0.12989838
0.12440985
0.11793317
0.11013135
0.10061457
0.089017292
0.075034024
0.058469605
0.039420308
0.016778307
0.13981568
0.13792096
0.13430835
0.12963568
0.12412316
0.11763756
0.10984764
0.10036414
0.088817445
0.07489539
0.058392166
0.0393922
0.01677653
0.13959724
0.13769254
0.1340596
0.12936275
0.12383184
0.11734254
0.1095685
0.10012046
0.088625309
0.074763517
0.058319285
0.039366056
0.016774744
0.13936216
0.13744879
0.13379858
0.12908208
0.12353792
0.11704965
0.10929496
0.099884486
0.088441341
0.074638575
0.058250997
0.039341863
0.016772961
0.13911345
0.1371926
0.13352795
0.12879595
0.12324324
0.11676023
0.10902801
0.099656991
0.08826588
0.074520675
0.058187296
0.039319595
0.016771194
0.13885385
0.13692664
0.13325013
0.12850643
0.12294939
0.11647543
0.10876872
0.099438518
0.088099171
0.074409867
0.05812814
0.039299209
0.016769453
0.13858588
0.1366533
0.13296729
0.12821533
0.12265778
0.11619656
0.10851788
0.099229498
0.087941379
0.074306148
0.058073462
0.03928065
0.016767745
0.13831182
0.13637478
0.13268136
0.12792427
0.12236992
0.11592468
0.10827614
0.099030261
0.087792596
0.074209469
0.058023166
0.039263855
0.016766079
0.13803368
0.13609299
0.13239417
0.12763494
0.1220871
0.11566068
0.10804404
0.09884105
0.087652849
0.07411974
0.057977138
0.039248756
0.016764461
0.13775335
0.13580979
0.13210741
0.12734879
0.12181044
0.11540532
0.10782201
0.098662022
0.08752211
0.074036835
0.057935247
0.039235279
0.016762896
0.13747255
0.13552686
0.13182266
0.12706712
0.12154093
0.11515926
0.10761039
0.098493263
0.087400296
0.0739606
0.057897346
0.039223346
0.016761388
0.13719287
0.13524573
0.1315413
0.1267911
0.12127942
0.11492302
0.10740943
0.098334788
0.087287281
0.073890851
0.057863278
0.03921288
0.016759942
0.13691573
0.13496779
0.13126458
0.12652174
0.12102664
0.11469703
0.10721927
0.09818655
0.087182893
0.073827383
0.057832878
0.039203798
0.016758559
0.13664242
0.13469426
0.13099359
0.12625992
0.12078319
0.11448162
0.10704
0.098048445
0.087086927
0.073769968
0.057805971
0.039196018
0.016757241
0.13637408
0.13442625
0.13072929
0.12600638
0.12054956
0.11427701
0.10687161
0.097920313
0.086999139
0.073718363
0.057782375
0.039189459
0.016755991
0.13611171
0.1341647
0.13047252
0.12576176
0.12032615
0.11408336
0.10671406
0.09780195
0.08691926
0.07367231
0.057761906
0.039184037
0.016754809
0.1358562
0.13391043
0.13022397
0.12552657
0.12011325
0.11390072
0.10656721
0.097693109
0.086846995
0.073631538
0.057744378
0.039179671
0.016753695
0.13560829
0.13366417
0.12998425
0.12530125
0.11991106
0.1137291
0.10643089
0.09759351
0.08678203
0.073595773
0.057729603
0.03917628
0.016752649
0.13536863
0.1334265
0.12975384
0.1250861
0.11971971
0.11356843
0.10630488
0.097502845
0.086724041
0.073564735
0.057717396
0.039173786
0.01675167
0.13513775
0.13319792
0.12953315
0.12488137
0.11953925
0.11341858
0.10618893
0.097420782
0.08667269
0.073538146
0.057707575
0.039172114
0.016750757
0.13491609
0.13297883
0.12932246
0.12468723
0.11936968
0.11327938
0.10608275
0.097346975
0.086627638
0.073515729
0.057699964
0.039171192
0.01674991
0.13470402
0.13276956
0.12912203
0.12450376
0.11921093
0.11315064
0.10598602
0.097281066
0.086588544
0.073497212
0.057694394
0.039170951
0.016749125
0.13450181
0.13257034
0.128932
0.12433101
0.11906289
0.1130321
0.10589841
0.097222687
0.086555066
0.07348233
0.057690699
0.039171328
0.016748403
0.13430965
0.13238134
0.12875246
0.12416892
0.1189254
0.11292348
0.10581957
0.097171465
0.086526868
0.073470823
0.057688722
0.03917226
0.01674774
0.13412767
0.13220265
0.12858343
0.12401744
0.11879825
0.11282447
0.10574912
0.097127022
0.086503612
0.073462438
0.057688312
0.03917369
0.016747136
0.13395595
0.13203432
0.1284249
0.12387642
0.1186812
0.11273475
0.10568669
0.097088977
0.086484967
0.073456928
0.057689323
0.039175563
0.016746587
0.13379447
0.13187632
0.12827676
0.12374569
0.11857397
0.11265396
0.10563188
0.097056946
0.086470604
0.073454051
0.057691613
0.039177827
0.016746093
0.13364319
0.13172856
0.12813888
0.12362502
0.11847626
0.11258173
0.10558429
0.097030542
0.086460198
0.073453572
0.057695047
0.03918043
0.01674565
0.13350199
0.13159093
0.12801108
0.12351415
0.11838773
0.11251765
0.1055435
0.097009383
0.08645343
0.073455262
0.057699493
0.039183326
0.016745257
0.13337073
0.13146323
0.12789312
0.12341279
0.118308
0.11246132
0.10550911
0.096993085
0.086449986
0.073458901
0.057704826
0.039186467
0.01674491
0.1332492
0.13134525
0.12778476
0.12332061
0.11823672
0.11241233
0.10548069
0.096981276
0.086449564
0.073464276
0.057710928
0.039189812
0.016744607
0.13313717
0.13123675
0.12768569
0.12323728
0.11817347
0.11237025
0.10545784
0.096973587
0.086451871
0.073471184
0.057717685
0.03919332
0.016744346
0.1330344
0.13113745
0.12759561
0.12316243
0.11811787
0.11233468
0.10544015
0.096969667
0.086456628
0.073479434
0.057724994
0.039196953
0.016744124
0.13294059
0.13104707
0.12751419
0.12309571
0.11806951
0.1123052
0.10542724
0.096969177
0.086463572
0.07348885
0.057732759
0.039200678
0.016743938
0.13285547
0.13096528
0.1274411
0.12303673
0.11802799
0.11228141
0.10541873
0.096971796
0.086472454
0.073499266
0.05774089
0.039204465
0.016743786
0.13277873
0.13089178
0.127376
0.12298512
0.11799293
0.11226292
0.10541426
0.096977219
0.086483046
0.07351053
0.05774931
0.039208287
0.016743666
0.13271004
0.13082624
0.12731852
0.12294051
0.11796393
0.11224935
0.10541349
0.096985161
0.086495131
0.073522504
0.057757946
0.039212121
0.016743575
0.13264909
0.13076832
0.12726832
0.12290253
0.11794062
0.11224034
0.10541609
0.096995353
0.086508512
0.073535061
0.057766734
0.039215946
0.016743511
0.13259554
0.13071768
0.12722504
0.1228708
0.11792262
0.11223554
0.10542175
0.097007542
0.086523003
0.073548082
0.057775615
0.039219743
0.016743473
0.13254905
0.13067397
0.12718833
0.12284497
0.11790958
0.1122346
0.10543018
0.097021489
0.086538431
0.073561462
0.057784537
0.039223497
0.016743457
0.13250926
0.13063683
0.1271578
0.12282464
0.11790112
0.1122372
0.10544108
0.097036967
0.086554635
0.073575101
0.057793451
0.039227192
0.016743463
0.13247581
0.13060589
0.1271331
0.12280947
0.1178969
0.112243
0.10545418
0.097053761
0.086571463
0.073588905
0.057802313
0.039230817
0.016743488
0.13244831
0.13058077
0.12711384
0.12279907
0.11789656
0.1122517
0.10546922
0.097071664
0.08658877
0.073602788
0.057811082
0.039234359
0.016743531
0.1324264
0.1305611
0.12709963
0.12279307
0.11789976
0.11226298
0.10548593
0.097090478
0.086606419
0.073616669
0.057819719
0.039237807
0.01674359
0.13240967
0.13054648
0.1270901
0.1227911
0.11790615
0.11227655
0.10550408
0.097110014
0.086624281
0.073630469
0.057828188
0.03924115
0.016743663
0.13239772
0.13053651
0.12708486
0.12279279
0.11791538
0.1122921
0.10552341
0.097130091
0.086642232
0.073644118
0.057836457
0.039244379
0.016743749
0.13239017
0.1305308
0.12708352
0.12279777
0.11792714
0.11230935
0.10554371
0.097150537
0.086660156
0.073657546
0.057844494
0.039247487
0.016743846
0.13238661
0.13052896
0.1270857
0.1228057
0.1179411
0.11232804
0.10556474
0.097171189
0.086677943
0.073670691
0.057852267
0.039250443
0.016743952
0.13238667
0.13053062
0.12709104
0.12281622
0.11795695
0.11234789
0.10558631
0.097191897
0.086695494
0.073683495
0.057859748
0.039253235
0.016744065
0.13238998
0.13053541
0.12709918
0.12282901
0.11797441
0.11236868
0.10560823
0.097212522
0.086712718
0.073695903
0.057866895
0.039255871
0.016744184
0.13239619
0.13054299
0.1271098
0.12284377
0.1179932
0.11239017
0.10563031
0.097232941
0.086729536
0.073707871
0.057873695
0.039258355
0.016744307
0.13240499
0.13055303
0.12712259
0.12286021
0.11801309
0.11241216
0.10565242
0.097253045
0.086745875
0.073719345
0.057880151
0.039260685
0.016744433
0.13241605
0.13056524
0.12713725
0.12287807
0.11803383
0.11243448
0.1056744
0.097272741
0.086761681
0.073730308
0.057886261
0.039262864
0.01674456
0.13242913
0.13057934
0.12715354
0.12289711
0.11805524
0.11245696
0.10569615
0.097291948
0.086776889
0.073740762
0.057892021
0.039264895
0.016744689
0.13244394
0.13059508
0.1271712
0.12291711
0.11807713
0.11247946
0.10571756
0.097310594
0.086791487
0.073750695
0.057897435
0.039266781
0.016744818
0.13246027
0.13061223
0.12719002
0.12293789
0.11809934
0.11250185
0.10573855
0.097328624
0.086805463
0.073760105
0.057902507
0.039268528
0.016744946
0.13247788
0.13063058
0.12720979
0.12295926
0.11812172
0.11252402
0.10575901
0.097346017
0.086818804
0.073768993
0.057907246
0.039270141
0.016745073
0.13249658
0.13064991
0.12723032
0.12298104
0.11814413
0.11254586
0.10577891
0.097362741
0.086831499
0.073777364
0.057911661
0.039271627
0.0167452
0.13251617
0.13067004
0.12725144
0.12300309
0.11816642
0.11256729
0.1057982
0.097378769
0.08684354
0.073785223
0.05791576
0.039272993
0.016745324
0.13253645
0.13069078
0.12727296
0.12302523
0.1181885
0.11258821
0.10581681
0.097394076
0.086854922
0.073792574
0.057919552
0.039274241
0.016745446
0.13255724
0.13071195
0.12729471
0.12304733
0.11821024
0.11260857
0.10583471
0.097408637
0.086865636
0.073799419
0.057923043
0.039275378
0.016745566
0.13257837
0.13073337
0.12731654
0.12306927
0.11823155
0.11262829
0.10585185
0.097422429
0.086875677
0.073805763
0.057926237
0.039276405
0.016745683
0.13259968
0.1307549
0.12733832
0.12309092
0.11825234
0.1126473
0.10586819
0.097435434
0.086885038
0.073811606
0.057929138
0.039277326
0.016745796
0.13262103
0.1307764
0.12735992
0.12311218
0.11827253
0.11266555
0.1058837
0.097447638
0.08689372
0.073816954
0.057931753
0.039278141
0.016745906
0.13264229
0.13079775
0.12738122
0.12313297
0.11829206
0.112683
0.10589836
0.097459039
0.086901729
0.073821816
0.057934087
0.039278852
0.01674601
0.13266335
0.13081885
0.12740216
0.12315321
0.11831088
0.11269962
0.10591216
0.097469643
0.086909078
0.073826206
0.057936151
0.039279464
0.01674611
0.13268415
0.13083962
0.12742265
0.12317286
0.11832896
0.11271542
0.10592512
0.097479471
0.086915791
0.073830146
0.057937959
0.03927998
0.016746205
0.1327046
0.13086
0.12744264
0.12319188
0.11834628
0.11273039
0.10593725
0.097488552
0.0869219
0.073833664
0.05793953
0.039280409
0.016746294
0.13272465
0.13087994
0.1274621
0.12321025
0.11836285
0.11274454
0.10594859
0.097496925
0.086927445
0.073836792
0.057940884
0.039280759
0.016746379
0.13274426
0.13089939
0.12748099
0.12322794
0.11837866
0.11275791
0.10595917
0.097504631
0.086932466
0.073839564
0.057942045
0.039281041
0.016746458
0.13276337
0.1309183
0.12749928
0.12324495
0.11839373
0.11277051
0.10596902
0.09751171
0.086937002
0.073842012
0.057943032
0.039281263
0.016746534
0.13278193
0.13093665
0.12751693
0.12326126
0.11840804
0.11278235
0.10597817
0.097518196
0.086941086
0.073844162
0.057943864
0.039281434
0.016746605
0.13279989
0.13095436
0.12753391
0.12327684
0.1184216
0.11279346
0.10598664
0.097524116
0.086944745
0.073846037
0.057944555
0.039281562
0.016746672
0.13281719
0.1309714
0.12755018
0.12329167
0.11843439
0.11280382
0.10599445
0.097529485
0.086947995
0.07384765
0.057945114
0.03928165
0.016746735
0.13283377
0.13098771
0.12756568
0.12330572
0.11844639
0.11281344
0.1060016
0.097534312
0.086950845
0.073849007
0.057945544
0.039281699
0.016746795
0.13284957
0.13100323
0.12758038
0.12331894
0.11845759
0.1128223
0.10600808
0.097538601
0.0869533
0.073850113
0.057945848
0.03928171
0.016746851
0.13286455
0.13101792
0.12759424
0.12333133
0.11846798
0.11283041
0.10601391
0.097542358
0.086955364
0.073850969
0.057946025
0.03928168
0.016746903
0.13287867
0.13103175
0.12760723
0.12334285
0.11847754
0.11283776
0.10601908
0.09754559
0.086957046
0.073851583
0.057946078
0.03928161
0.01674695
0.13289192
0.1310447
0.12761935
0.12335352
0.11848628
0.11284437
0.10602362
0.097548318
0.086958362
0.073851964
0.057946011
0.039281498
0.016746993
0.1329043
0.13105678
0.1276306
0.12336334
0.11849423
0.11285027
0.10602756
0.09755057
0.086959337
0.073852132
0.057945837
0.039281349
0.016747031
0.13291582
0.13106801
0.12764101
0.12337235
0.11850142
0.1128555
0.10603093
0.097552386
0.086960004
0.073852111
0.057945569
0.039281168
0.016747064
0.13292651
0.13107841
0.1276506
0.12338058
0.1185079
0.11286011
0.10603379
0.097553809
0.086960401
0.073851929
0.057945224
0.039280962
0.016747094
0.13293641
0.13108802
0.12765942
0.12338808
0.11851371
0.11286414
0.10603619
0.097554886
0.086960566
0.073851613
0.057944819
0.039280739
0.016747119
0.13294556
0.13109688
0.1276675
0.12339488
0.1185189
0.11286764
0.10603817
0.097555659
0.086960533
0.07385119
0.057944371
0.039280505
0.016747142
0.13295397
0.13110501
0.12767489
0.12340104
0.11852352
0.11287066
0.10603977
0.097556164
0.086960333
0.07385068
0.057943891
0.039280267
0.016747161
0.13296167
0.13111244
0.12768161
0.12340658
0.11852759
0.11287324
0.10604103
0.097556428
0.086959984
0.073850097
0.057943387
0.039280028
0.016747178
0.13296868
0.1311192
0.12768767
0.12341152
0.11853114
0.11287538
0.10604196
0.097556469
0.0869595
0.073849447
0.057942862
0.039279789
0.016747194
0.13297501
0.13112528
0.12769309
0.12341587
0.11853419
0.11287712
0.10604259
0.097556298
0.086958888
0.073848734
0.057942316
0.039279548
0.016747207
0.13298066
0.1311307
0.12769788
0.12341966
0.11853675
0.11287847
0.10604292
0.097555924
0.086958155
0.073847961
0.057941749
0.039279304
0.016747217
0.13298564
0.13113546
0.12770206
0.12342289
0.11853883
0.11287943
0.10604297
0.09755536
0.086957307
0.073847131
0.057941162
0.039279055
0.016747226
0.13298997
0.13113958
0.12770563
0.12342557
0.11854046
0.11288004
0.10604275
0.097554617
0.086956354
0.073846253
0.057940559
0.039278803
0.016747232
0.13299365
0.13114307
0.12770861
0.12342773
0.11854165
0.11288029
0.10604228
0.09755371
0.086955309
0.073845331
0.057939943
0.039278549
0.016747236
0.13299671
0.13114596
0.12771102
0.12342939
0.11854241
0.11288023
0.10604158
0.097552655
0.086954184
0.073844378
0.057939321
0.039278297
0.016747238
0.13299919
0.13114827
0.1277129
0.12343057
0.11854278
0.11287985
0.10604067
0.097551463
0.086952987
0.073843398
0.057938697
0.039278048
0.016747239
0.13300111
0.13115004
0.12771426
0.12343129
0.11854277
0.11287919
0.10603955
0.097550144
0.086951724
0.073842396
0.057938074
0.039277807
0.016747238
0.13300252
0.13115131
0.12771515
0.12343159
0.11854241
0.11287825
0.10603823
0.097548699
0.086950392
0.073841367
0.05793745
0.039277572
0.016747236
0.13300348
0.13115212
0.1277156
0.1234315
0.11854172
0.11287704
0.10603672
0.097547127
0.086948986
0.073840303
0.057936815
0.03927734
0.016747232
0.13300405
0.13115254
0.12771567
0.12343106
0.11854073
0.11287561
0.10603503
0.097545428
0.086947499
0.073839194
0.057936162
0.039277102
0.016747227
0.1330043
0.13115264
0.12771542
0.12343033
0.11853949
0.11287396
0.10603319
0.097543614
0.086945932
0.073838035
0.057935482
0.039276849
0.01674722
0.13300433
0.13115251
0.12771494
0.12342938
0.11853806
0.11287217
0.10603123
0.097541714
0.086944305
0.073836838
0.057934779
0.039276583
0.01674721
0.13300423
0.13115223
0.12771432
0.12342831
0.11853653
0.1128703
0.10602921
0.097539779
0.086942656
0.073835624
0.057934062
0.039276305
0.016747198
0.13300409
0.13115191
0.12771366
0.12342721
0.11853499
0.11286844
0.10602723
0.097537885
0.086941044
0.073834439
0.057933357
0.039276025
0.016747184
0.133004
0.13115164
0.12771305
0.12342617
0.11853355
0.11286671
0.10602538
0.097536122
0.08693955
0.073833339
0.057932696
0.039275753
0.016747168
0.133004
0.13115146
0.12771256
0.12342529
0.11853228
0.11286518
0.10602375
0.097534581
0.086938254
0.073832395
0.05793213
0.039275512
0.016747153
0.13300409
0.1311514
0.12771222
0.12342459
0.11853125
0.11286392
0.10602242
0.097533334
0.086937227
0.073831665
0.057931703