/*--------------------------------*- C++ -*----------------------------------*\
| =========                 |                                                 |
| \\      /  F ield         | OpenFOAM: The Open Source CFD Toolbox           |
|  \\    /   O peration     | Version:  2506                                  |
|   \\  /    A nd           | Website:  www.openfoam.com                      |
|    \\/     M anipulation  |                                                 |
\*---------------------------------------------------------------------------*/
FoamFile
{
    version     2.0;
    format      ascii;
    arch        "LSB;label=32;scalar=64";
    class       volScalarField;
    location    "20000/water";
    object      epsilon;
}
// * * * * * * * * * * * * * * * * * * * * * * * * * * * * * * * * * * * * * //

dimensions      [0 2 -3 0 0 0 0];

internalField   nonuniform List<scalar> 
2600
(
8.8079773e-05
8.8079245e-05
8.8079271e-05
8.807949e-05
8.8079744e-05
8.8080245e-05
8.8082926e-05
8.8104349e-05
8.8272771e-05
8.9512908e-05
9.8428186e-05
0.00017145296
0.0010138716
6.7789348e-05
6.7791881e-05
6.7793339e-05
6.7794963e-05
6.7796901e-05
6.7799886e-05
6.7810178e-05
6.7875511e-05
6.8312468e-05
7.1039872e-05
8.7857083e-05
0.00021159534
0.0014669324
5.3500886e-05
5.3503148e-05
5.3504846e-05
5.3506859e-05
5.3509287e-05
5.3513643e-05
5.3532992e-05
5.3656306e-05
5.4399641e-05
5.8506995e-05
8.1500797e-05
0.00023956052
0.0017068244
4.3127504e-05
4.3128883e-05
4.3130503e-05
4.3132598e-05
4.3135149e-05
4.3140834e-05
4.3171684e-05
4.3362646e-05
4.4413342e-05
4.9710824e-05
7.7552644e-05
0.00025818579
0.0017816909
3.539909e-05
3.5400132e-05
3.5401605e-05
3.5403513e-05
3.5405834e-05
3.5412916e-05
3.5457613e-05
3.5722605e-05
3.7073304e-05
4.3450503e-05
7.5629285e-05
0.00027290618
0.0017622817
2.9510599e-05
2.9511446e-05
2.95127e-05
2.9514227e-05
2.9516143e-05
2.9525119e-05
2.9586798e-05
2.9933924e-05
3.159515e-05
3.9095388e-05
7.5939385e-05
0.00028837858
0.0017002497
2.4935213e-05
2.4935877e-05
2.4936847e-05
2.4937875e-05
2.4939416e-05
2.4951342e-05
2.503458e-05
2.5477125e-05
2.7489448e-05
3.6318413e-05
7.8818158e-05
0.0003073199
0.0016256765
2.1318423e-05
2.1318913e-05
2.1319549e-05
2.132003e-05
2.1321464e-05
2.1338095e-05
2.144948e-05
2.2008273e-05
2.4447975e-05
3.4968795e-05
8.4593388e-05
0.00033066896
0.0015541994
1.8415642e-05
1.8415958e-05
1.8416233e-05
1.8416208e-05
1.8418091e-05
1.8442025e-05
1.8590687e-05
1.9295945e-05
2.2279378e-05
3.5010665e-05
9.3512813e-05
0.00035786641
0.0014930959
1.6054297e-05
1.6054439e-05
1.6054351e-05
1.6053968e-05
1.6057197e-05
1.6092028e-05
1.6290179e-05
1.7183376e-05
2.0872546e-05
3.6486908e-05
0.00010564207
0.00038720677
0.0014449141
1.411016e-05
1.4110129e-05
1.4109712e-05
1.4109249e-05
1.4115119e-05
1.4165612e-05
1.4429188e-05
1.5565379e-05
2.0175367e-05
3.9486471e-05
0.0001207425
0.00041640752
0.0014094648
1.249217e-05
1.2491978e-05
1.249131e-05
1.24912e-05
1.2501471e-05
1.2573786e-05
1.2923263e-05
1.4374121e-05
2.0181311e-05
4.4103576e-05
0.00013819401
0.00044331752
0.0013850187
1.1132483e-05
1.1132152e-05
1.1131368e-05
1.1132227e-05
1.1149209e-05
1.1251189e-05
1.1712642e-05
1.3570321e-05
2.0918929e-05
5.0386675e-05
0.0001570348
0.00046647969
0.0013691707
9.9797899e-06
9.9793621e-06
9.9786681e-06
9.9813266e-06
1.0007987e-05
1.0149541e-05
1.0756002e-05
1.3137755e-05
2.244069e-05
5.8285041e-05
0.00017613325
0.00048532288
0.0013594869
8.994766e-06
8.994305e-06
8.9939894e-06
8.9995396e-06
9.0396464e-06
9.2332357e-06
1.0026406e-05
1.3079617e-05
2.4808572e-05
6.760962e-05
0.00019442666
0.00050000486
0.0013539038
8.1468971e-06
8.1464947e-06
8.1469469e-06
8.1567947e-06
8.2150975e-06
8.4763588e-06
9.5087284e-06
1.3415553e-05
2.8075259e-05
7.802684e-05
0.0002111215
0.00051110136
0.0013508788
7.4122408e-06
7.412023e-06
7.4137548e-06
7.4296903e-06
7.5121568e-06
7.8606834e-06
9.1980662e-06
1.4178291e-05
3.2262329e-05
8.9094583e-05
0.00022578145
0.00051932555
0.0013493668
6.7718206e-06
6.7719549e-06
6.7756276e-06
6.7999151e-06
6.9140283e-06
7.3743439e-06
9.0987623e-06
1.5408886e-05
3.7339825e-05
0.00010033155
0.00023829847
0.0005253558
0.0013487148
6.2104575e-06
6.2111621e-06
6.2176208e-06
6.2531142e-06
6.4082476e-06
7.0110032e-06
9.2236693e-06
1.7149874e-05
4.32136e-05
0.00011129558
0.00024879509
0.0005297626
0.0013485457
5.7159095e-06
5.7174657e-06
5.7277834e-06
5.7780724e-06
5.9859581e-06
6.7693775e-06
9.5932701e-06
1.9436231e-05
4.9726063e-05
0.00012164393
0.00025751549
0.00053299526
0.0013486593
5.2782322e-06
5.2809984e-06
5.2965329e-06
5.3661281e-06
5.6414368e-06
6.6530082e-06
1.0234238e-05
2.2285129e-05
5.6672014e-05
0.00013115952
0.0002647416
0.00053539452
0.0013489619
4.889296e-06
4.893728e-06
4.9161934e-06
5.0107595e-06
5.3718124e-06
6.6701646e-06
1.1177042e-05
2.5686553e-05
6.3825679e-05
0.00013974423
0.00027074339
0.00053721261
0.0013494179
4.5424222e-06
4.549097e-06
4.5806559e-06
4.707302e-06
5.1769357e-06
6.8337318e-06
1.2452336e-05
2.9597478e-05
7.0970794e-05
0.00014739149
0.00027575682
0.00053863284
0.0013500206
4.2321037e-06
4.2417515e-06
4.2851315e-06
4.4527719e-06
5.0593679e-06
7.1609033e-06
1.4086153e-05
3.3941832e-05
7.7925118e-05
0.00015415334
0.00027997825
0.00053978645
0.0013507744
3.9537926e-06
3.9673376e-06
4.0259782e-06
4.2457763e-06
5.02445e-06
7.6724692e-06
1.6094426e-05
3.8616922e-05
8.4553956e-05
0.00016011198
0.00028356675
0.00054076617
0.0013516866
3.7037376e-06
3.7223496e-06
3.8005873e-06
4.0864974e-06
5.0804011e-06
8.3914984e-06
1.8477846e-05
4.3504913e-05
9.0772063e-05
0.00016536002
0.00028664926
0.00054163684
0.0013527623
3.4788613e-06
3.504022e-06
3.6073203e-06
3.9767409e-06
5.2383697e-06
9.3412713e-06
2.1218353e-05
4.8486364e-05
9.6537093e-05
0.00016998886
0.00028932618
0.00054244332
0.0013540034
3.2766694e-06
3.3102566e-06
3.4454921e-06
3.9200366e-06
5.5123351e-06
1.0542479e-05
2.4278371e-05
5.3452374e-05
0.00010183911
0.00017408281
0.00029167655
0.00054321634
0.0013554083
3.0951868e-06
3.1395803e-06
3.315394e-06
3.9217755e-06
5.9187332e-06
1.2009945e-05
2.7603265e-05
5.8312859e-05
0.00010668989
0.00017771679
0.00029376256
0.00054397672
0.0013569728
2.9329181e-06
2.991133e-06
3.2183574e-06
3.9893517e-06
6.47568e-06
1.3749402e-05
3.1126579e-05
6.3000082e-05
0.00011111417
0.0001809559
0.00029563312
0.00054473835
0.0013586903
2.7888292e-06
2.8646819e-06
3.1568532e-06
4.1322629e-06
7.2016965e-06
1.5755029e-05
3.4776806e-05
6.7468121e-05
0.00011514328
0.00018385585
0.00029732665
0.00054550992
0.0013605531
2.6623516e-06
2.7606641e-06
3.1346228e-06
4.3621019e-06
8.1139273e-06
1.8008403e-05
3.8484155e-05
7.1689803e-05
0.00011881108
0.00018646428
0.00029887505
0.00054629402
0.0013625491
2.5534087e-06
2.680258e-06
3.1568304e-06
4.6923496e-06
9.2259798e-06
2.0479254e-05
4.21859e-05
7.5652556e-05
0.00012215122
0.00018882083
0.00030030032
0.00054708345
0.001364665
2.4624667e-06
2.6254826e-06
3.2302146e-06
5.1378783e-06
1.0545685e-05
2.3127918e-05
4.5829653e-05
7.935444e-05
0.00012519597
0.00019095974
0.00030162123
0.00054787014
0.0013668874
2.3906118e-06
2.5993266e-06
3.3632045e-06
5.7140891e-06
1.2073207e-05
2.5908985e-05
4.9374528e-05
8.2800768e-05
0.00012797522
0.0001929092
0.00030285019
0.00054865288
0.0013692048
2.3396576e-06
2.6059009e-06
3.5659451e-06
6.4356568e-06
1.3799941e-05
2.877532e-05
5.279067e-05
8.6001445e-05
0.00013051585
0.0001946916
0.00030399377
0.00054944273
0.0013716092
2.3122834e-06
2.6506068e-06
3.8501619e-06
7.3149535e-06
1.5708514e-05
3.1681693e-05
5.6057928e-05
8.8969443e-05
0.00013284315
0.00019632773
0.00030505438
0.00055025019
0.0013740956
2.312204e-06
2.7402971e-06
4.2287857e-06
8.3603386e-06
1.7773922e-05
3.4587409e-05
5.9163896e-05
9.1718486e-05
0.000134977
0.00019782951
0.00030604752
0.00055107623
0.0013766577
2.3443665e-06
2.8833944e-06
4.7152662e-06
9.5746052e-06
1.996561e-05
3.7457896e-05
6.2102576e-05
9.4263949e-05
0.00013693775
0.00019920349
0.00030698676
0.00055192216
0.0013792894
2.4151613e-06
3.0899101e-06
5.3225447e-06
1.0953905e-05
2.2249994e-05
4.0265061e-05
6.487208e-05
9.6618926e-05
0.00013873802
0.00020046565
0.00030788007
0.00055278757
0.0013819844
2.5326206e-06
3.3712893e-06
6.0617313e-06
1.2487422e-05
2.4593019e-05
4.2987258e-05
6.7474463e-05
9.8797814e-05
0.00014038632
0.00020163083
0.00030873382
0.00055367123
0.0013847362
2.7065546e-06
3.7399972e-06
6.9406294e-06
1.4157864e-05
2.6962173e-05
4.560817e-05
6.9912766e-05
0.00010081056
0.00014189658
0.00020271014
0.00030955282
0.00055457139
0.0013875385
2.9485502e-06
4.2087763e-06
7.9623507e-06
1.5942735e-05
2.9328092e-05
4.8116705e-05
7.2192974e-05
0.00010266311
0.00014328329
0.00020371267
0.00031034059
0.00055548597
0.0013903848
3.2717207e-06
4.7895536e-06
9.1242824e-06
1.7815987e-05
3.1665001e-05
5.0504533e-05
7.431848e-05
0.00010436656
0.0001445581
0.0002046458
0.00031109971
0.0005564126
0.0013932687
3.6900856e-06
5.4920729e-06
1.0417683e-05
1.9750012e-05
3.3951699e-05
5.2768183e-05
7.6289668e-05
0.00010593299
0.00014573089
0.00020551555
0.00031183196
0.00055734876
0.001396184
4.2174845e-06
6.3224276e-06
1.1827951e-05
2.171714e-05
3.6170245e-05
5.4901158e-05
7.8113756e-05
0.00010737249
0.00014680993
0.00020632674
0.0003125385
0.00055829179
0.0013991243
4.8660256e-06
7.281774e-06
1.3335592e-05
2.3691122e-05
3.8306687e-05
5.6898166e-05
7.9798302e-05
0.00010869389
0.00014780213
0.0002070832
0.00031321992
0.00055923887
0.0014020836
5.6442487e-06
8.3655558e-06
1.4917865e-05
2.5648779e-05
4.0344256e-05
5.8760205e-05
8.1350097e-05
0.00010990478
0.00014871321
0.00020778791
0.00031387634
0.00056018708
0.0014050555
6.5553585e-06
9.563459e-06
1.6550685e-05
2.7565319e-05
4.227254e-05
6.0488806e-05
8.2775225e-05
0.00011101156
0.00014954782
0.00020844307
0.00031450743
0.00056113337
0.0014080337
7.5961526e-06
1.086044e-05
1.8207368e-05
2.9419101e-05
4.4084528e-05
6.2085812e-05
8.4079031e-05
0.00011201959
0.00015030968
0.00020905021
0.00031511247
0.0005620745
0.0014110118
8.7563147e-06
1.223555e-05
1.9861231e-05
3.1193216e-05
4.5774964e-05
6.355318e-05
8.526611e-05
0.00011293328
0.00015100165
0.00020961023
0.00031569037
0.0005630071
0.0014139831
1.0017521e-05
1.3664334e-05
2.1488449e-05
3.2873859e-05
4.7340054e-05
6.4892867e-05
8.6340347e-05
0.00011375612
0.0001516258
0.00021012347
0.00031623966
0.00056392756
0.0014169405
1.1355901e-05
1.5121211e-05
2.3068172e-05
3.4450179e-05
4.877729e-05
6.6106813e-05
8.7304986e-05
0.00011449085
0.00015218355
0.00021058975
0.00031675853
0.00056483207
0.0014198766
1.2744266e-05
1.6581082e-05
2.4582903e-05
3.5914124e-05
5.0085356e-05
6.7196972e-05
8.8162741e-05
0.00011513953
0.00015267569
0.00021100844
0.00031724485
0.00056571658
0.0014227834
1.4154483e-05
1.8020638e-05
2.6018605e-05
3.7260266e-05
5.1264094e-05
6.8165416e-05
8.8915935e-05
0.0001157037
0.00015310254
0.0002113785
0.00031769619
0.00056657681
0.0014256525
1.5559582e-05
1.9419303e-05
2.7364608e-05
3.8485599e-05
5.2314492e-05
6.9014452e-05
8.9566668e-05
0.00011618451
0.00015346402
0.00021169861
0.00031810992
0.00056740829
0.0014284745
1.693534e-05
2.0759788e-05
2.8613379e-05
3.9589304e-05
5.3238671e-05
6.9746759e-05
9.0116991e-05
0.00011658289
0.00015375983
0.00021196725
0.00031848325
0.00056820638
0.0014312398
1.8261269e-05
2.2028326e-05
2.9760207e-05
4.0572479e-05
5.4039843e-05
7.0365497e-05
9.056908e-05
0.00011689975
0.00015398962
0.00021218285
0.00031881338
0.00056896642
0.0014339378
1.9521048e-05
2.3214636e-05
3.0802835e-05
4.1437842e-05
5.4722228e-05
7.0874393e-05
9.0925392e-05
0.00011713614
0.00015415307
0.0002123439
0.00031909759
0.00056968379
0.001436558
2.0702515e-05
2.4311688e-05
3.1741085e-05
4.2189435e-05
5.5290937e-05
7.1277772e-05
9.118879e-05
0.00011729336
0.00015425015
0.00021244916
0.0003193334
0.00057035409
0.0014390893
2.1797369e-05
2.5315352e-05
3.2576489e-05
4.2832331e-05
5.5751827e-05
7.1580557e-05
9.1362624e-05
0.00011737319
0.00015428119
0.00021249773
0.00031951872
0.00057097328
0.0014415208
2.2800692e-05
2.6223982e-05
3.331194e-05
4.3372361e-05
5.6111335e-05
7.1788217e-05
9.1450774e-05
0.00011737786
0.00015424703
0.00021248925
0.00031965199
0.00057153784
0.0014438419
2.3710402e-05
2.7037976e-05
3.3951387e-05
4.3815872e-05
5.6376314e-05
7.1906689e-05
9.1457653e-05
0.00011731022
0.00015414911
0.00021242399
0.00031973231
0.00057204494
0.0014460426
2.45267e-05
2.7759359e-05
3.4499553e-05
4.4169527e-05
5.6553867e-05
7.194228e-05
9.1388166e-05
0.00011717367
0.00015398951
0.0002123029
0.00031975952
0.00057249252
0.0014481139
2.5251561e-05
2.8391402e-05
3.4961706e-05
4.4440129e-05
5.6651211e-05
7.1901557e-05
9.1247652e-05
0.00011697221
0.00015377099
0.00021212767
0.00031973426
0.00057287942
0.001450048
2.5888277e-05
2.8938286e-05
3.5343455e-05
4.4634485e-05
5.6675544e-05
7.1791233e-05
9.10418e-05
0.00011671033
0.00015349694
0.00021190075
0.00031965798
0.0005732054
0.0014518385
2.6441083e-05
2.9404817e-05
3.5650591e-05
4.4759303e-05
5.6633948e-05
7.1618067e-05
9.0776552e-05
0.00011639299
0.00015317136
0.00021162526
0.00031953294
0.00057347114
0.0014534808
2.6914835e-05
2.9796197e-05
3.5888958e-05
4.4821107e-05
5.6533305e-05
7.1388766e-05
9.0458012e-05
0.00011602548
0.00015279873
0.00021130497
0.00031936212
0.00057367824
0.0014549719
2.7314772e-05
3.0117838e-05
3.6064346e-05
4.4826184e-05
5.6380237e-05
7.1109905e-05
9.0092343e-05
0.00011561335
0.00015238399
0.00021094419
0.00031914913
0.00057382909
0.0014563106
2.7646313e-05
3.0375212e-05
3.6182417e-05
4.4780539e-05
5.6181061e-05
7.0787859e-05
8.968568e-05
0.00011516233
0.00015193234
0.00021054764
0.00031889813
0.00057392679
0.0014574976
2.7914914e-05
3.0573748e-05
3.6248646e-05
4.4689866e-05
5.5941756e-05
7.0428744e-05
8.9244051e-05
0.00011467816
0.0001514492
0.00021012035
0.00031861364
0.000573975
0.0014585351
2.8125958e-05
3.0718742e-05
3.6268277e-05
4.4559539e-05
5.5667949e-05
7.0038384e-05
8.8773303e-05
0.00011416657
0.00015094006
0.00020966751
0.00031830046
0.00057397785
0.0014594269
2.8284677e-05
3.0815305e-05
3.6246296e-05
4.4394598e-05
5.5364902e-05
6.9622269e-05
8.8279046e-05
0.00011363314
0.00015041039
0.00020919439
0.00031796351
0.00057393974
0.0014601783
2.8396095e-05
3.0868316e-05
3.6187416e-05
4.4199749e-05
5.5037508e-05
6.9185544e-05
8.7766607e-05
0.00011308328
0.00014986552
0.00020870617
0.00031760772
0.00057386526
0.0014607953
2.8464994e-05
3.0882402e-05
3.6096064e-05
4.3979371e-05
5.4690297e-05
6.873299e-05
8.7240989e-05
0.0001125221
0.00014931062
0.00020820791
0.00031723791
0.00057375901
0.0014612854
2.849589e-05
3.0861918e-05
3.5976376e-05
4.3737517e-05
5.4327442e-05
6.826902e-05
8.6706848e-05
0.00011195444
0.00014875054
0.0002077044
0.00031685869
0.00057362557
0.0014616563
2.8493024e-05
3.0810945e-05
3.5832205e-05
4.3477925e-05
5.3952767e-05
6.7797681e-05
8.6168477e-05
0.00011138476
0.00014818984
0.00020720014
0.00031647441
0.00057346933
0.0014619166
2.8460352e-05
3.0733282e-05
3.5667118e-05
4.3204033e-05
5.356976e-05
6.7322656e-05
8.5629793e-05
0.00011081716
0.0001476327
0.00020669925
0.00031608907
0.00057329446
0.001462075
2.8401556e-05
3.0632455e-05
3.5484412e-05
4.2918985e-05
5.3181588e-05
6.6847275e-05
8.5094341e-05
0.00011025537
0.00014708291
0.00020620549
0.00031570631
0.00057310488
0.0014621403
2.8320042e-05
3.0511725e-05
3.5287116e-05
4.2625649e-05
5.2791108e-05
6.6374525e-05
8.4565291e-05
0.00010970271
0.00014654386
0.00020572218
0.00031532935
0.00057290417
0.0014621216
2.8218951e-05
3.0374092e-05
3.5078007e-05
4.2326626e-05
5.2400886e-05
6.5907064e-05
8.4045454e-05
0.00010916211
0.0001460185
0.00020525221
0.00031496101
0.00057269559
0.0014620274
2.8101172e-05
3.0222309e-05
3.4859618e-05
4.2024269e-05
5.2013211e-05
6.544724e-05
8.353729e-05
0.00010863613
0.00014550942
0.00020479808
0.00031460372
0.00057248204
0.0014618664
2.796935e-05
3.0058895e-05
3.4634254e-05
4.1720694e-05
5.1630113e-05
6.4997101e-05
8.3042924e-05
0.00010812694
0.00014501877
0.00020436186
0.00031425948
0.00057226611
0.0014616467
2.7825902e-05
2.9886143e-05
3.4404002e-05
4.1417793e-05
5.1253377e-05
6.4558422e-05
8.2564165e-05
0.00010763639
0.00014454834
0.00020394522
0.00031392993
0.00057205002
0.0014613761
2.7673027e-05
2.9706136e-05
3.4170741e-05
4.111725e-05
5.0884559e-05
6.4132714e-05
8.2102526e-05
0.00010716596
0.00014409956
0.00020354946
0.00031361634
0.00057183566
0.0014610619
2.7512721e-05
2.9520759e-05
3.3936163e-05
4.0820554e-05
5.0525004e-05
6.3721248e-05
8.1659243e-05
0.00010671684
0.00014367353
0.00020317558
0.00031331975
0.0005716244
0.0014607108
2.7346788e-05
2.9331712e-05
3.3701776e-05
4.0529011e-05
5.017586e-05
6.3325071e-05
8.1235294e-05
0.00010628995
0.00014327103
0.00020282421
0.00031304067
0.00057141633
0.0014603283
2.7176855e-05
2.9140519e-05
3.3468921e-05
4.0243758e-05
4.9838092e-05
6.2945027e-05
8.0831429e-05
0.00010588592
0.00014289261
0.00020249587
0.0003127795
0.00057120923
0.0014599195
2.700438e-05
2.8948543e-05
3.3238781e-05
3.9965777e-05
4.9512499e-05
6.2581767e-05
8.0448178e-05
0.00010550517
0.00014253849
0.00020219043
0.00031253534
0.00057100469
0.0014594895
2.683067e-05
2.8756997e-05
3.3012398e-05
3.9695904e-05
4.9199726e-05
6.2235781e-05
8.0085899e-05
0.00010514794
0.00014220886
0.00020190801
0.00031230614
0.00057080577
0.0014590437
2.6656885e-05
2.8566955e-05
3.2790675e-05
3.9434841e-05
4.8900282e-05
6.1907404e-05
7.9744777e-05
0.00010481425
0.00014190344
0.000201647
0.0003120928
0.00057061403
0.0014585869
2.6484056e-05
2.837936e-05
3.2574395e-05
3.9183172e-05
4.8614546e-05
6.1596832e-05
7.9424826e-05
0.0001045039
0.00014162172
0.00020140642
0.00031189581
0.00057043059
0.0014581238
2.6313089e-05
2.8195038e-05
3.2364227e-05
3.8941369e-05
4.8342792e-05
6.1304155e-05
7.9125983e-05
0.00010421667
0.00014136222
0.00020118624
0.00031171527
0.00057025623
0.0014576581
2.6144778e-05
2.8014708e-05
3.2160735e-05
3.8709806e-05
4.8085193e-05
6.1029349e-05
7.8847998e-05
0.00010395154
0.00014112448
0.00020098616
0.00031155102
0.0005700914
0.0014571934
2.5979817e-05
2.7838986e-05
3.1964392e-05
3.8488767e-05
4.7841828e-05
6.0772282e-05
7.8590344e-05
0.00010370765
0.00014090799
0.00020080568
0.00031140269
0.00056993638
0.0014567327
2.5818803e-05
2.76684e-05
3.1775585e-05
3.8278458e-05
4.7612708e-05
6.0532709e-05
7.8352161e-05
0.0001034845
0.00014071217
0.00020064415
0.00031126979
0.00056979125
0.0014562788
2.5662249e-05
2.7503397e-05
3.1594631e-05
3.8079033e-05
4.7397757e-05
6.0309958e-05
7.8132963e-05
0.00010328147
0.00014053629
0.00020050085
0.00031115173
0.000569656
0.0014558338
2.5510596e-05
2.7344358e-05
3.1421797e-05
3.7890532e-05
4.7196572e-05
6.010364e-05
7.7932205e-05
0.00010309788
0.00014037956
0.00020037495
0.00031104782
0.00056953049
0.0014553997
2.5364224e-05
2.7191601e-05
3.1257209e-05
3.7712807e-05
4.7008894e-05
5.9913322e-05
7.7749285e-05
0.00010293297
0.00014024112
0.00020026558
0.00031095735
0.00056941453
0.0014549782
2.5223412e-05
2.7045317e-05
3.1100911e-05
3.7545744e-05
4.6834433e-05
5.9738529e-05
7.7583559e-05
0.00010278596
0.00014012008
0.00020017183
0.00031087956
0.00056930786
0.0014545707
2.5088363e-05
2.6905642e-05
3.0952912e-05
3.7389198e-05
4.6672863e-05
5.9578755e-05
7.7434345e-05
0.00010265601
0.00014001551
0.00020009275
0.00031081365
0.00056921017
0.0014541783
2.4959227e-05
2.6772665e-05
3.0813186e-05
3.7242987e-05
4.652383e-05
5.9433461e-05
7.730093e-05
0.00010254226
0.00013992646
0.0002000274
0.00031075885
0.0005691211
0.0014538019
2.4836108e-05
2.6646435e-05
3.0681671e-05
3.7106903e-05
4.6386949e-05
5.9302084e-05
7.718258e-05
0.00010244384
0.00013985196
0.00019997483
0.00031071436
0.00056904029
0.0014534422
2.471907e-05
2.6526964e-05
3.0558274e-05
3.6980705e-05
4.6261814e-05
5.918404e-05
7.7078544e-05
0.00010235986
0.00013979106
0.00019993409
0.00031067939
0.00056896733
0.0014530997
2.4608142e-05
2.6414233e-05
3.0442875e-05
3.6864133e-05
4.6147997e-05
5.9078726e-05
7.698806e-05
0.00010228943
0.0001397428
0.00019990426
0.0003106532
0.00056890184
0.0014527746
2.4503322e-05
2.6308191e-05
3.0335323e-05
3.6756902e-05
4.6045053e-05
5.8985532e-05
7.6910361e-05
0.00010223167
0.00013970624
0.00019988444
0.00031063502
0.00056884341
0.0014524673
2.4404577e-05
2.6208761e-05
3.0235447e-05
3.6658708e-05
4.5952522e-05
5.8903837e-05
7.6844682e-05
0.0001021857
0.00013968046
0.00019987376
0.00031062416
0.00056879164
0.0014521777
2.4311851e-05
2.6115842e-05
3.0143056e-05
3.6569231e-05
4.5869935e-05
5.8833016e-05
7.679026e-05
0.00010215067
0.00013966457
0.00019987137
0.00031061993
0.00056874614
0.0014519056
2.4225063e-05
2.602931e-05
3.0057938e-05
3.6488137e-05
4.5796815e-05
5.8772445e-05
7.6746341e-05
0.00010212574
0.00013965771
0.00019987646
0.00031062168
0.00056870655
0.0014516511
2.4144111e-05
2.5949024e-05
2.9979866e-05
3.6415083e-05
4.5732678e-05
5.8721502e-05
7.6712186e-05
0.00010211008
0.00013965904
0.00019988826
0.0003106288
0.0005686725
0.0014514137
2.4068876e-05
2.5874825e-05
2.9908601e-05
3.6349715e-05
4.5677042e-05
5.8679572e-05
7.6687067e-05
0.0001021029
0.00013966775
0.00019990605
0.00031064071
0.00056864363
0.0014511933
2.3999221e-05
2.5806538e-05
2.984389e-05
3.6291672e-05
4.5629421e-05
5.8646048e-05
7.6670276e-05
0.00010210343
0.00013968309
0.00019992913
0.00031065686
0.00056861961
0.0014509894
2.3934995e-05
2.5743977e-05
2.9785473e-05
3.6240592e-05
4.5589333e-05
5.8620332e-05
7.6661127e-05
0.00010211094
0.00013970432
0.00019995685
0.00031067675
0.0005686001
0.0014508016
2.3876035e-05
2.5686944e-05
2.9733079e-05
3.6196107e-05
4.5556301e-05
5.8601841e-05
7.6658951e-05
0.00010212472
0.00013973076
0.00019998859
0.00031069987
0.00056858477
0.0014506295
2.3822167e-05
2.5635233e-05
2.9686436e-05
3.615785e-05
4.5529854e-05
5.8590005e-05
7.6663106e-05
0.0001021441
0.00013976174
0.00020002377
0.00031072578
0.00056857329
0.0014504726
2.3773207e-05
2.5588627e-05
2.9645263e-05
3.6125455e-05
4.5509528e-05
5.8584272e-05
7.6672974e-05
0.00010216843
0.00013979666
0.00020006186
0.00031075404
0.00056856534
0.0014503302
2.3728964e-05
2.5546907e-05
2.960928e-05
3.6098559e-05
4.549487e-05
5.8584104e-05
7.6687963e-05
0.0001021971
0.00013983493
0.00020010234
0.00031078426
0.00056856062
0.0014502019
2.368924e-05
2.5509848e-05
2.9578203e-05
3.6076802e-05
4.5485437e-05
5.8588986e-05
7.6707507e-05
0.00010222954
0.00013987601
0.00020014475
0.00031081607
0.00056855883
0.0014500869
2.3653834e-05
2.5477219e-05
2.9551751e-05
3.6059831e-05
4.5480798e-05
5.8598421e-05
7.6731068e-05
0.00010226521
0.00013991939
0.00020018866
0.00031084913
0.00056855968
0.0014499846
2.3622539e-05
2.5448792e-05
2.9529643e-05
3.6047298e-05
4.5480538e-05
5.8611932e-05
7.6758136e-05
0.00010230359
0.00013996461
0.00020023366
0.00031088312
0.00056856291
0.0014498944
2.3595148e-05
2.5424334e-05
2.95116e-05
3.6038865e-05
4.5484252e-05
5.8629066e-05
7.6788229e-05
0.00010234421
0.00014001122
0.0002002794
0.00031091776
0.00056856828
0.0014498155
2.3571451e-05
2.5403616e-05
2.949735e-05
3.6034202e-05
4.5491554e-05
5.8649389e-05
7.6820895e-05
0.00010238662
0.00014005884
0.00020032554
0.00031095279
0.00056857557
0.0014497474
2.355124e-05
2.5386407e-05
2.9486622e-05
3.6032988e-05
4.5502072e-05
5.8672492e-05
7.6855708e-05
0.00010243043
0.00014010708
0.00020037178
0.00031098798
0.00056858455
0.0014496893
2.3534305e-05
2.5372482e-05
2.9479153e-05
3.6034913e-05
4.5515451e-05
5.8697988e-05
7.6892272e-05
0.00010247524
0.00014015564
0.00020041786
0.00031102314
0.00056859505
0.0014496407
2.352044e-05
2.5361615e-05
2.9474686e-05
3.6039679e-05
4.5531353e-05
5.8725511e-05
7.6930217e-05
0.00010252072
0.00014020419
0.00020046353
0.00031105806
0.00056860688
0.001449601
2.3509441e-05
2.5353588e-05
2.9472971e-05
3.6046998e-05
4.5549457e-05
5.875472e-05
7.6969201e-05
0.00010256653
0.00014025247
0.00020050858
0.00031109259
0.00056861988
0.0014495696
2.3501106e-05
2.5348185e-05
2.9473765e-05
3.6056596e-05
4.5569459e-05
5.8785295e-05
7.7008907e-05
0.00010261241
0.00014030023
0.00020055282
0.00031112658
0.00056863388
0.0014495459
2.3495238e-05
2.5345197e-05
2.9476835e-05
3.6068209e-05
4.5591072e-05
5.8816937e-05
7.7049046e-05
0.00010265807
0.00014034725
0.00020059608
0.00031115991
0.00056864873
0.0014495295
2.3491645e-05
2.5344419e-05
2.9481956e-05
3.6081589e-05
4.5614025e-05
5.8849369e-05
7.7089351e-05
0.00010270329
0.00014039335
0.00020063821
0.00031119245
0.00056866429
0.0014495197
2.3490139e-05
2.5345654e-05
2.948891e-05
3.6096498e-05
4.5638067e-05
5.8882335e-05
7.7129578e-05
0.00010274784
0.00014043835
0.0002006791
0.00031122409
0.00056868039
0.001449516
2.3490537e-05
2.534871e-05
2.9497492e-05
3.611271e-05
4.566296e-05
5.89156e-05
7.7169509e-05
0.00010279155
0.00014048209
0.00020071861
0.00031125476
0.00056869692
0.001449518
2.3492663e-05
2.5353405e-05
2.9507503e-05
3.6130016e-05
4.5688487e-05
5.8948947e-05
7.7208943e-05
0.00010283424
0.00014052446
0.00020075667
0.00031128437
0.00056871372
0.0014495251
2.3496348e-05
2.5359562e-05
2.9518756e-05
3.6148217e-05
4.5714443e-05
5.898218e-05
7.7247705e-05
0.00010287577
0.00014056534
0.0002007932
0.00031131285
0.00056873068
0.0014495368
2.3501427e-05
2.5367011e-05
2.9531073e-05
3.6167126e-05
4.5740642e-05
5.901512e-05
7.7285636e-05
0.00010291601
0.00014060464
0.00020082812
0.00031134014
0.00056874767
0.0014495526
2.3507746e-05
2.5375594e-05
2.9544287e-05
3.6186572e-05
4.5766913e-05
5.9047607e-05
7.7322598e-05
0.00010295485
0.00014064228
0.0002008614
0.00031136619
0.00056876458
0.0014495719
2.3515154e-05
2.5385156e-05
2.9558241e-05
3.6206395e-05
4.5793098e-05
5.9079498e-05
7.735847e-05
0.0001029922
0.0001406782
0.00020089299
0.00031139097
0.0005687813
0.0014495945
2.3523511e-05
2.5395556e-05
2.9572788e-05
3.6226446e-05
4.5819056e-05
5.9110666e-05
7.739315e-05
0.00010302798
0.00014071236
0.00020092287
0.00031141445
0.00056879775
0.0014496196
2.3532682e-05
2.5406656e-05
2.958779e-05
3.6246592e-05
4.5844662e-05
5.9141001e-05
7.7426549e-05
0.00010306215
0.00014074473
0.00020095104
0.00031143663
0.00056881384
0.001449647
2.3542541e-05
2.541833e-05
2.960312e-05
3.6266707e-05
4.58698e-05
5.9170406e-05
7.7458597e-05
0.00010309464
0.00014077529
0.00020097748
0.00031145749
0.0005688294
0.0014496762
2.355297e-05
2.5430459e-05
2.9618662e-05
3.6286682e-05
4.5894372e-05
5.9198801e-05
7.7489238e-05
0.00010312545
0.00014080405
0.00020100222
0.00031147703
0.00056884417
0.0014497067
2.3563858e-05
2.5442934e-05
2.9634308e-05
3.6306415e-05
4.5918289e-05
5.9226117e-05
7.7518428e-05
0.00010315454
0.00014083099
0.00020102527
0.0003114952
0.00056885813
0.0014497381
2.3575101e-05
2.5455652e-05
2.9649959e-05
3.6325816e-05
4.5941477e-05
5.92523e-05
7.7546137e-05
0.00010318192
0.00014085616
0.00020104667
0.00031151189
0.00056887143
0.0014497704
2.3586603e-05
2.5468518e-05
2.9665527e-05
3.6344807e-05
4.5963871e-05
5.9277307e-05
7.7572346e-05
0.00010320759
0.00014087955
0.0002010664
0.00031152717
0.00056888413
0.0014498032
2.3598276e-05
2.5481447e-05
2.9680932e-05
3.6363317e-05
4.5985419e-05
5.9301105e-05
7.759705e-05
0.00010323158
0.00014090123
0.0002010844
0.00031154115
0.00056889629
0.0014498363
2.3610039e-05
2.5494361e-05
2.96961e-05
3.6381286e-05
4.6006076e-05
5.9323674e-05
7.7620251e-05
0.0001032539
0.00014092116
0.00020110077
0.00031155389
0.00056890792
0.0014498696
2.3621817e-05
2.5507186e-05
2.9710969e-05
3.6398663e-05
4.6025808e-05
5.9345001e-05
7.7641957e-05
0.00010327457
0.00014093936
0.0002011156
0.00031156549
0.00056891905
0.0014499029
2.3633541e-05
2.551986e-05
2.9725481e-05
3.6415403e-05
4.6044592e-05
5.9365083e-05
7.7662192e-05
0.00010329357
0.00014095591
0.00020112896
0.00031157599
0.00056892966
0.0014499361
2.3645151e-05
2.5532324e-05
2.9739588e-05
3.6431473e-05
4.606241e-05
5.9383926e-05
7.7680941e-05
0.00010331096
0.00014097086
0.00020114092
0.00031158545
0.00056893976
0.001449969
2.3656591e-05
2.5544528e-05
2.9753248e-05
3.6446844e-05
4.6079254e-05
5.9401523e-05
7.7698222e-05
0.00010332679
0.0001409843
0.00020115155
0.00031159391
0.0005689493
0.0014500014
2.3667813e-05
2.5556426e-05
2.9766426e-05
3.6461498e-05
4.6095112e-05
5.9417871e-05
7.7714074e-05
0.00010334112
0.00014099629
0.00020116093
0.00031160141
0.00056895829
0.0014500333
2.3678774e-05
2.5567982e-05
2.9779096e-05
3.6475412e-05
4.6109972e-05
5.9432991e-05
7.7728539e-05
0.000103354
0.00014100691
0.00020116911
0.00031160801
0.0005689667
0.0014500644
2.3689437e-05
2.5579162e-05
2.9791227e-05
3.6488569e-05
4.6123838e-05
5.9446909e-05
7.7741665e-05
0.00010336551
0.00014101622
0.00020117616
0.00031161374
0.00056897452
0.0014500946
2.369977e-05
2.5589936e-05
2.9802798e-05
3.6500961e-05
4.6136722e-05
5.9459659e-05
7.7753503e-05
0.0001033757
0.00014102429
0.00020118215
0.00031161865
0.00056898177
0.0014501237
2.3709741e-05
2.5600277e-05
2.9813791e-05
3.6512586e-05
4.614864e-05
5.9471276e-05
7.7764106e-05
0.00010338464
0.00014103119
0.00020118714
0.0003116228
0.00056898846
0.0014501518
2.3719325e-05
2.5610165e-05
2.9824195e-05
3.6523448e-05
4.6159615e-05
5.94818e-05
7.7773532e-05
0.00010339241
0.00014103701
0.00020119122
0.00031162624
0.00056899464
0.0014501786
2.3728503e-05
2.5619583e-05
2.9834006e-05
3.6533554e-05
4.616967e-05
5.9491274e-05
7.7781839e-05
0.00010339907
0.00014104181
0.00020119444
0.00031162903
0.00056900033
0.0014502043
2.3737257e-05
2.562852e-05
2.9843219e-05
3.6542917e-05
4.6178835e-05
5.9499743e-05
7.7789087e-05
0.00010340469
0.00014104567
0.00020119687
0.00031163124
0.0005690056
0.0014502288
2.3745577e-05
2.5636969e-05
2.9851839e-05
3.6551552e-05
4.6187141e-05
5.9507255e-05
7.7795336e-05
0.00010340934
0.00014104866
0.0002011986
0.00031163291
0.00056901048
0.0014502521
2.3753454e-05
2.5644925e-05
2.985987e-05
3.6559478e-05
4.6194622e-05
5.9513858e-05
7.7800646e-05
0.00010341308
0.00014105084
0.00020119967
0.00031163411
0.00056901499
0.0014502744
2.3760883e-05
2.5652389e-05
2.986732e-05
3.6566716e-05
4.6201311e-05
5.9519598e-05
7.7805076e-05
0.00010341599
0.00014105229
0.00020120015
0.00031163486
0.00056901915
0.0014502956
2.3767862e-05
2.5659363e-05
2.9874202e-05
3.6573288e-05
4.6207246e-05
5.9524526e-05
7.7808683e-05
0.00010341812
0.00014105307
0.00020120009
0.00031163521
0.00056902295
0.0014503158
2.3774393e-05
2.5665851e-05
2.9880526e-05
3.6579217e-05
4.6212461e-05
5.9528688e-05
7.7811526e-05
0.00010341954
0.00014105323
0.00020119954
0.00031163518