/*--------------------------------*- C++ -*----------------------------------*\
| =========                 |                                                 |
| \\      /  F ield         | OpenFOAM: The Open Source CFD Toolbox           |
|  \\    /   O peration     | Version:  2506                                  |
|   \\  /    A nd           | Website:  www.openfoam.com                      |
|    \\/     M anipulation  |                                                 |
\*---------------------------------------------------------------------------*/
FoamFile
{
    version     2.0;
    format      ascii;
    arch        "LSB;label=32;scalar=64";
    class       volScalarField;
    location    "20000/water";
    object      k;
}
// * * * * * * * * * * * * * * * * * * * * * * * * * * * * * * * * * * * * * //

dimensions      [0 2 -2 0 0 0 0];

internalField   nonuniform List<scalar> 
2600
(
0.0001992401
0.00019923925
0.00019923929
0.00019923963
0.00019923982
0.00019923914
0.00019923438
0.00019921375
0.00019914651
0.00019904325
0.00019990841
0.00021454267
0.00040955349
0.00017237279
0.00017237614
0.00017237826
0.00017238051
0.0001723821
0.00017237949
0.00017235884
0.00017227555
0.000172027
0.00017162102
0.00017329371
0.00020304806
0.00052391648
0.00015132731
0.00015133049
0.00015133306
0.00015133552
0.00015133516
0.00015132207
0.00015126283
0.00015106462
0.00015055477
0.00014985944
0.0001528957
0.00019760629
0.00057958156
0.00013448336
0.00013448533
0.00013448764
0.00013448905
0.00013448325
0.00013445009
0.00013432997
0.00013398205
0.00013321503
0.00013247936
0.00013787909
0.00019702317
0.00059640815
0.00012075551
0.00012075697
0.00012075853
0.00012075718
0.00012074152
0.0001206782
0.00012048052
0.00011997843
0.0001190486
0.00011870929
0.00012776334
0.00020116854
0.00059206885
0.0001093899
0.00010939088
0.000109391
0.00010938492
0.00010935483
0.00010925313
0.00010897207
0.00010834649
0.00010742643
0.0001080609
0.00012226457
0.00021023394
0.00057809221
9.984982e-05
9.9850093e-05
9.9847944e-05
9.9835056e-05
9.9786463e-05
9.9641865e-05
9.9284958e-05
9.859999e-05
9.7925043e-05
0.00010022517
0.00012123091
0.00022425603
0.00056106272
9.1744874e-05
9.174416e-05
9.1738826e-05
9.1717148e-05
9.1647174e-05
9.1460104e-05
9.1049018e-05
9.0398665e-05
9.0258419e-05
9.5030413e-05
0.00012461431
0.00024286356
0.00054449405
8.4785472e-05
8.4783454e-05
8.4774018e-05
8.4741918e-05
8.4649457e-05
8.4426122e-05
8.3996574e-05
8.3502376e-05
8.4241543e-05
9.2421343e-05
0.00013239492
0.00026511347
0.00053012765
7.8752977e-05
7.8749319e-05
7.8734951e-05
7.8691403e-05
7.8577619e-05
7.8330528e-05
7.7932172e-05
7.7743318e-05
7.9771153e-05
9.2438122e-05
0.00014444361
0.00028951151
0.0005186607
7.3479682e-05
7.3474066e-05
7.3454131e-05
7.3398964e-05
7.3267704e-05
7.3016085e-05
7.2712929e-05
7.3009357e-05
7.6815021e-05
9.5182833e-05
0.00016036324
0.00031428525
0.00051014247
6.8835097e-05
6.8827266e-05
6.8801436e-05
6.8735571e-05
6.8593744e-05
6.836405e-05
6.8235745e-05
6.9234209e-05
7.5403717e-05
0.00010076472
0.00017939077
0.00033780739
0.0005042266
6.4716374e-05
6.4706175e-05
6.4674551e-05
6.4600233e-05
6.4458202e-05
6.4284863e-05
6.4429045e-05
6.6391811e-05
7.5619873e-05
0.0001092241
0.00020043529
0.00035894529
0.00050037283
6.1041501e-05
6.1028932e-05
6.0992164e-05
6.091321e-05
6.0785257e-05
6.0711783e-05
6.1247563e-05
6.4493004e-05
7.7580812e-05
0.00012045029
0.00022225716
0.00037717553
0.0004980107
5.7744396e-05
5.7729653e-05
5.7689074e-05
5.7611142e-05
5.7516061e-05
5.7596592e-05
5.8669223e-05
6.3582874e-05
8.1411594e-05
0.00013412439
0.00024370834
0.00039247763
0.00049664628
5.4771313e-05
5.4754847e-05
5.4712615e-05
5.4643526e-05
5.4605384e-05
5.4906753e-05
5.6693487e-05
6.3736864e-05
8.7208053e-05
0.00014971789
0.00026392366
0.00040513367
0.00049590626
5.2078186e-05
5.206076e-05
5.2020025e-05
5.1970154e-05
5.2019282e-05
5.2623661e-05
5.5340605e-05
6.5053661e-05
9.4994193e-05
0.00016655657
0.00028239551
0.00041554871
0.00049553614
4.9628636e-05
4.9611393e-05
4.9576492e-05
4.9559258e-05
4.9733503e-05
5.0741692e-05
5.4651194e-05
6.7643171e-05
0.00010468473
0.00018392817
0.00029893687
0.00042413793
0.00049537652
4.7392458e-05
4.7377004e-05
4.7353699e-05
4.7386176e-05
4.773248e-05
4.9267884e-05
5.4685325e-05
7.1608735e-05
0.00011606685
0.00020119287
0.00031358493
0.00043127328
0.0004953351
4.5344476e-05
4.5332971e-05
4.5328746e-05
4.543243e-05
4.6008769e-05
4.8222042e-05
5.552013e-05
7.7024445e-05
0.00012881107
0.00021785896
0.00032650007
0.00043726611
0.00049536293
4.3463657e-05
4.3458933e-05
4.3483358e-05
4.3685127e-05
4.4562866e-05
4.7637061e-05
5.7244875e-05
8.3911082e-05
0.00014251073
0.0002336081
0.00033789054
0.00044236709
0.00049543701
4.1732429e-05
4.173814e-05
4.1803329e-05
4.2136613e-05
4.3403327e-05
4.7559122e-05
5.9952684e-05
9.2216748e-05
0.00015673759
0.00024827795
0.00034796833
0.000446773
0.00049554866
4.0136167e-05
4.015697e-05
4.0278148e-05
4.0784372e-05
4.2547127e-05
4.8047282e-05
6.3728688e-05
0.00010180887
0.00017109623
0.00026182258
0.0003569282
0.00045063571
0.00049569618
3.8662802e-05
3.8704582e-05
3.8900797e-05
3.9631106e-05
4.2020193e-05
4.9171837e-05
6.8635423e-05
0.00011248165
0.0001852623
0.0002742702
0.00036494031
0.00045407116
0.0004958807
3.7302531e-05
3.7372692e-05
3.7667676e-05
3.8685008e-05
4.1857945e-05
5.1010817e-05
7.4697749e-05
0.00012397798
0.00019899863
0.00028568916
0.00037214927
0.00045716739
0.00049610393
3.6047628e-05
3.6155447e-05
3.6578683e-05
3.7960183e-05
4.2105656e-05
5.3644145e-05
8.1890779e-05
0.00013601991
0.00021215197
0.00029616538
0.00037867612
0.0004599912
0.00049636711
3.4892327e-05
3.5049398e-05
3.5637399e-05
3.7477203e-05
4.2818261e-05
5.7145358e-05
9.0134509e-05
0.00014833917
0.00022463806
0.00030578897
0.00038462126
0.00046259342
0.00049667065
3.383279e-05
3.4053569e-05
3.4851412e-05
3.726374e-05
4.4059213e-05
6.1571479e-05
9.9297403e-05
0.00016070078
0.00023642319
0.00031464716
0.00039006765
0.00046501299
0.00049701416
3.2867149e-05
3.3169621e-05
3.4232757e-05
3.7355166e-05
4.589792e-05
6.6952468e-05
0.00010920863
0.00017291581
0.00024750738
0.00032282078
0.00039508378
0.00046727995
0.00049739654
3.1995627e-05
3.2402112e-05
3.3798456e-05
3.7794967e-05
4.8405437e-05
7.3282448e-05
0.00011967597
0.00018484396
0.00025791152
0.00033038286
0.00039972631
0.00046941772
0.00049781614
3.1220755e-05
3.1758869e-05
3.3571168e-05
3.8634693e-05
5.1648306e-05
8.0515038e-05
0.000130505
0.00019638895
0.00026766837
0.00033739833
0.00040404222
0.00047144506
0.00049827104
3.0547674e-05
3.1251459e-05
3.357986e-05
3.993313e-05
5.5680957e-05
8.8564408e-05
0.00014151525
0.00020749038
0.00027681662
0.00034392424
0.00040806985
0.00047336163
0.00049875825
2.9984563e-05
3.0895779e-05
3.3860461e-05
4.1754322e-05
6.053758e-05
9.7312141e-05
0.00015255087
0.00021811499
0.00028539696
0.00035000995
0.00041183981
0.00047517682
0.00049927447
2.9543171e-05
3.071274e-05
3.4456302e-05
4.4164148e-05
6.6224998e-05
0.00010661842
0.00016348528
0.00022824913
0.00029344999
0.00035569877
0.00041537497
0.00047690097
0.00049981638
2.9239498e-05
3.0729039e-05
3.5418146e-05
4.722536e-05
7.2718208e-05
0.00011633496
0.000174221
0.00023789272
0.00030101458
0.00036102772
0.000418694
0.00047854313
0.00050038114
2.9094594e-05
3.097795e-05
3.6803499e-05
5.099133e-05
7.9959877e-05
0.00012631695
0.00018468651
0.00024705469
0.00030812684
0.00036602759
0.0004218162
0.0004801151
0.00050096676
2.9135495e-05
3.1500044e-05
3.8674858e-05
5.5499186e-05
8.7864162e-05
0.00013643209
0.00019483195
0.00025575015
0.00031482084
0.00037072329
0.00042475509
0.00048162855
0.00050157201
2.939623e-05
3.2343667e-05
4.109663e-05
6.0763504e-05
9.6324075e-05
0.00014656574
0.00020462432
0.00026399671
0.00032112527
0.00037513788
0.00042753008
0.00048308917
0.0005021953
2.991884e-05
3.3564908e-05
4.4130586e-05
6.6771888e-05
0.00010522079
0.00015662303
0.00021404418
0.00027181505
0.00032706607
0.00037928747
0.00043015898
0.00048450266
0.00050283511
3.0754242e-05
3.5226726e-05
4.7830037e-05
7.3483562e-05
0.00011443288
0.00016652784
0.00022308102
0.00027922364
0.00033266469
0.00038319523
0.00043265451
0.00048587308
0.00050348989
3.1962697e-05
3.7396846e-05
5.2233356e-05
8.0831469e-05
0.0001238441
0.00017622138
0.00023173239
0.00028624171
0.00033793724
0.00038688254
0.00043502775
0.00048720353
0.00050415804
3.361351e-05
4.0144099e-05
5.7357863e-05
8.8727413e-05
0.00013334839
0.00018565854
0.00023999857
0.00029288459
0.00034290602
0.00039036651
0.00043728793
0.00048849635
0.00050483798
3.5783417e-05
4.3533087e-05
6.3195331e-05
9.7069257e-05
0.00014285309
0.00019480686
0.00024788471
0.00029916234
0.00034759333
0.0003936619
0.00043944272
0.00048975327
0.00050552813
3.8553083e-05
4.7617453e-05
6.9710143e-05
0.00010574829
0.00015227868
0.00020364081
0.00025539332
0.00030509331
0.00035201762
0.00039678121
0.00044149845
0.00049097547
0.00050622693
4.2001175e-05
5.2432587e-05
7.6840748e-05
0.00011465644
0.00016156004
0.00021214497
0.00026252196
0.00031069685
0.00035619502
0.00039973507
0.00044346033
0.00049216369
0.00050693284
4.6195942e-05
5.7988988e-05
8.4503841e-05
0.00012369063
0.0001706418
0.00022029903
0.00026928196
0.0003159893
0.00036013927
0.0004025324
0.00044533254
0.00049331828
0.00050764433
5.1185037e-05
6.4267731e-05
9.2600653e-05
0.00013275651
0.0001794794
0.00022808589
0.00027568471
0.00032098503
0.00036386202
0.00040518056
0.00044711836
0.00049443921
0.00050835988
5.6985371e-05
7.12193e-05
0.00010102457
0.00014177165
0.00018802207
0.00023550302
0.00028174029
0.00032569628
0.00036737301
0.00040768554
0.00044882024
0.00049552613
0.00050907799
6.3575477e-05
7.8766076e-05
0.00010966806
0.000150651
0.00019623698
0.00024254861
0.00028745742
0.00033013326
0.00037068019
0.00041005201
0.00045043984
0.00049657833
0.00050979711
7.0893469e-05
8.6809008e-05
0.00011841797
0.0001593216
0.00020409986
0.00024922134
0.0002928433
0.00033430422
0.00037378978
0.00041228342
0.00045197806
0.00049759479
0.00051051569
7.8838235e-05
9.5225347e-05
0.00012716544
0.00016772585
0.00021159048
0.00025551994
0.00029790352
0.00033821548
0.00037670641
0.00041438207
0.00045343512
0.00049857414
0.00051123211
8.7271712e-05
0.00010388135
0.00013581413
0.00017581503
0.00021869187
0.00026144292
0.00030264208
0.00034187161
0.00037943318
0.00041634913
0.00045481049
0.00049951466
0.0005119447
9.6036157e-05
0.00011264286
0.00014427882
0.00018354847
0.00022538995
0.00026698858
0.00030706156
0.00034527551
0.00038197177
0.00041818474
0.000456103
0.00050041429
0.00051265168
0.00010496808
0.00012138216
0.00015248587
0.00019089299
0.00023167332
0.00027215515
0.0003111633
0.00034842864
0.00038432259
0.00041988807
0.00045731082
0.00050127063
0.00051335112
0.00011391059
0.00012998322
0.00016037325
0.00019782236
0.00023753334
0.00027694109
0.00031494782
0.0003513313
0.000386485
0.00042145745
0.00045843156
0.00050208097
0.00051404101
0.0001227225
0.0001383452
0.00016789037
0.00020431697
0.00024296427
0.00028134555
0.00031841519
0.000353983
0.00038845751
0.00042289057
0.00045946236
0.0005028423
0.00051471914
0.00013128392
0.00014638432
0.00017499758
0.0002103635
0.00024796346
0.00028536881
0.00032156557
0.00035638285
0.00039023815
0.00042418462
0.00046040004
0.00050355145
0.00051538319
0.00013949848
0.00015403435
0.00018166564
0.00021595448
0.00025253148
0.00028901268
0.00032439967
0.00035853003
0.0003918248
0.00042533665
0.00046124124
0.00050420515
0.0005160307
0.00014729311
0.0001612459
0.00018787489
0.00022108789
0.00025667217
0.00029228092
0.00032691927
0.00036042423
0.00039321555
0.00042634377
0.0004619827
0.00050480015
0.00051665912
0.00015461617
0.00016798505
0.00019361434
0.00022576663
0.00026039255
0.00029517943
0.00032912758
0.00036206607
0.00039440914
0.00042720354
0.00046262143
0.00050533344
0.00051726587
0.00016143472
0.00017423149
0.00019888065
0.000229998
0.00026370262
0.00029771637
0.00033102954
0.00036345748
0.00039540524
0.00042791424
0.000463155
0.00050580234
0.00051784836
0.00016773143
0.00017997643
0.00020367705
0.00023379304
0.0002666151
0.00029990219
0.00033263199
0.00036460199
0.00039620483
0.00042847516
0.00046358174
0.00050620471
0.00051840409
0.00017350165
0.00018522056
0.00020801226
0.00023716598
0.00026914507
0.00030174945
0.00033394377
0.00036550484
0.00039681038
0.00042888683
0.00046390096
0.00050653908
0.00051893072
0.00017875056
0.00018997212
0.00021189946
0.00024013361
0.00027130959
0.00030327265
0.00033497562
0.00036617313
0.00039722599
0.00042915119
0.0004641131
0.00050680476
0.00051942614
0.00018349091
0.00019424519
0.00021535535
0.00024271473
0.00027312727
0.00030448793
0.0003357401
0.00036661578
0.0003974575
0.00042927168
0.00046421982
0.00050700195
0.00051988853
0.0001877409
0.00019805821
0.00021839927
0.00024492966
0.00027461793
0.00030541279
0.00033625131
0.00036684337
0.00039751239
0.00042925327
0.00046422406
0.00050713174
0.00052031642
0.00019152266
0.00020143271
0.00022105248
0.00024679971
0.0002758022
0.00030606573
0.0003365247
0.00036686802
0.0003973997
0.00042910237
0.00046412997
0.00050719614
0.00052070872
0.00019486087
0.00020439231
0.00022333749
0.00024834687
0.00027670119
0.00030646599
0.00033657674
0.00036670314
0.00039712987
0.00042882675
0.00046394289
0.00050719801
0.00052106478
0.00019778179
0.00020696192
0.00022527755
0.00024959339
0.0002773362
0.00030663322
0.00033642468
0.00036636316
0.0003967145
0.00042843532
0.00046366916
0.00050714096
0.00052138435
0.00020031244
0.00020916705
0.00022689622
0.00025056151
0.00027772846
0.00030658721
0.0003360862
0.00036586326
0.00039616612
0.00042793796
0.00046331599
0.0005070293
0.00052166762
0.00020248004
0.00021103335
0.00022821702
0.00025127324
0.00027789894
0.00030634764
0.00033557921
0.0003652191
0.00039549791
0.00042734527
0.00046289125
0.00050686781
0.00052191516
0.00020431149
0.00021258619
0.00022926313
0.00025175014
0.00027786813
0.0003059339
0.00033492156
0.00036444656
0.00039472346
0.00042666833
0.00046240328
0.00050666169
0.00052212789
0.00020583316
0.0002138504
0.00023005717
0.00025201317
0.00027765592
0.0003053649
0.00033413082
0.00036356147
0.00039385651
0.00042591847
0.00046186066
0.00050641636
0.00052230707
0.00020707052
0.00021485004
0.00023062109
0.00025208255
0.00027728146
0.00030465889
0.00033322413
0.00036257943
0.00039291071
0.00042510703
0.00046127208
0.00050613735
0.00052245421
0.00020804807
0.00021560827
0.00023097596
0.0002519777
0.00027676311
0.00030383341
0.00033221801
0.00036151558
0.00039189941
0.00042424519
0.00046064611
0.00050583014
0.00052257104
0.00020878922
0.00021614719
0.00023114197
0.00025171713
0.00027611832
0.00030290512
0.00033112824
0.00036038448
0.00039083553
0.00042334377
0.00045999106
0.00050550011
0.00052265947
0.00020931615
0.00021648786
0.00023113831
0.00025131844
0.00027536362
0.00030188979
0.00032996979
0.00035919997
0.00038973136
0.00042241311
0.00045931487
0.00050515237
0.00052272152
0.00020964988
0.00021665017
0.00023098313
0.00025079823
0.00027451455
0.00030080225
0.0003287567
0.00035797505
0.00038859849
0.00042146293
0.00045862499
0.00050479177
0.00052275928
0.00020981017
0.0002166529
0.00023069358
0.00025017213
0.00027358569
0.00029965632
0.00032750207
0.00035672185
0.00038744769
0.00042050226
0.00045792834
0.00050442278
0.00052277486
0.00020981557
0.00021651366
0.00023028572
0.00024945477
0.00027259062
0.00029846483
0.00032621802
0.00035545155
0.0003862889
0.00041953937
0.00045723121
0.0005040495
0.00052277039
0.00020968342
0.00021624892
0.00022977461
0.0002486598
0.00027154194
0.00029723963
0.00032491566
0.0003541744
0.00038513112
0.00041858177
0.00045653927
0.0005036756
0.00052274795
0.0002094299
0.00021587408
0.00022917427
0.0002477999
0.0002704513
0.00029599157
0.00032360514
0.00035289965
0.00038398251
0.00041763614
0.00045585752
0.00050330435
0.00052270958
0.00020907003
0.00021540341
0.00022849772
0.00024688681
0.00026932939
0.00029473056
0.00032229562
0.00035163562
0.00038285029
0.00041670837
0.00045519036
0.0005029386
0.0005226572
0.00020861777
0.00021485018
0.00022775702
0.00024593135
0.000268186
0.00029346557
0.00032099534
0.0003503897
0.0003817408
0.00041580358
0.00045454153
0.00050258078
0.00052259269
0.00020808599
0.00021422663
0.0002269633
0.00024494343
0.00026703003
0.00029220468
0.00031971161
0.00034916838
0.00038065956
0.00041492613
0.00045391418
0.00050223295
0.00052251779
0.00020748657
0.00021354404
0.00022612678
0.00024393214
0.00026586954
0.0002909551
0.00031845088
0.0003479773
0.00037961126
0.00041407965
0.00045331078
0.00050189534
0.00052243407
0.00020683045
0.00021281278
0.00022525682
0.00024290573
0.00026471179
0.00028972324
0.00031721878
0.00034682126
0.00037859981
0.00041326703
0.00045273308
0.00050156769
0.00052234286
0.00020612763
0.00021204236
0.00022436198
0.00024187169
0.00026356328
0.00028851474
0.00031602016
0.00034570434
0.00037762842
0.00041249054
0.00045218147
0.00050125089
0.00052224538
0.00020538728
0.00021124142
0.00022345001
0.00024083674
0.00026242975
0.00028733449
0.00031485914
0.00034462984
0.00037669955
0.00041175165
0.0004516566
0.00050094644
0.00052214281
0.00020461773
0.00021041785
0.00022252797
0.00023980694
0.00026131631
0.00028618674
0.00031373916
0.0003436005
0.00037581514
0.00041105082
0.00045115869
0.00050065628
0.00052203647
0.00020382655
0.00020957881
0.00022160217
0.00023878766
0.00026022741
0.00028507507
0.00031266305
0.00034261831
0.00037497613
0.0004103883
0.00045068896
0.00050038144
0.00052192751
0.00020302062
0.00020873073
0.00022067831
0.00023778368
0.00025916688
0.00028400249
0.00031163301
0.00034168467
0.00037418299
0.00040976434
0.00045024824
0.00050012261
0.00052181701
0.00020220611
0.00020787943
0.00021976146
0.00023679918
0.00025813803
0.00028297147
0.00031065073
0.00034080031
0.00037343544
0.00040917959
0.00044983692
0.00049988019
0.0005217059
0.0002013886
0.00020703009
0.00021885612
0.00023583781
0.00025714364
0.00028198395
0.00030971723
0.00033996519
0.00037273381
0.0004086342
0.00044945502
0.00049965435
0.00052159502
0.00020057304
0.00020618735
0.00021796626
0.00023490273
0.000256186
0.00028104134
0.00030883293
0.00033917923
0.00037207818
0.00040812796
0.00044910225
0.000499445
0.00052148509
0.00019976388
0.00020535532
0.00021709537
0.00023399664
0.00025526696
0.00028014455
0.00030799769
0.00033844254
0.00037146825
0.00040766036
0.00044877811
0.00049925193
0.00052137675
0.00019896506
0.00020453762
0.00021624646
0.0002331218
0.00025438788
0.00027929369
0.0003072117
0.00033775483
0.00037090342
0.00040723064
0.00044848191
0.00049907479
0.00052127055
0.00019818004
0.00020373745
0.00021542219
0.00023227999
0.00025354937
0.00027848917
0.00030647483
0.00033711555
0.00037038282
0.00040683784
0.0004482128
0.00049891312
0.00052116694
0.00019741188
0.00020295756
0.00021462459
0.00023147238
0.00025275215
0.00027773111
0.00030578668
0.00033652389
0.0003699054
0.00040648082
0.00044796983
0.0004987664
0.00052106632
0.00019666314
0.00020220018
0.00021385535
0.00023070007
0.0002519967
0.00027701937
0.00030514659
0.00033597879
0.00036946989
0.00040615833
0.00044775194
0.00049863404
0.00052096902
0.00019593595
0.00020146719
0.00021311585
0.00022996389
0.00025128321
0.00027635359
0.00030455371
0.00033547905
0.00036907489
0.00040586897
0.00044755801
0.00049851543
0.00052087532
0.00019523213
0.00020076016
0.00021240725
0.00022926439
0.00025061165
0.00027573316
0.00030400696
0.00033502329
0.00036871887
0.00040561129
0.00044738687
0.00049840992
0.00052078543
0.00019455321
0.00020008041
0.00021173041
0.00022860193
0.00024998178
0.0002751573
0.00030350513
0.00033460997
0.00036840022
0.00040538377
0.00044723731
0.00049831681
0.00052069951
0.00019390044
0.00019942899
0.00021108598
0.00022797662
0.00024939316
0.00027462505
0.00030304684
0.00033423748
0.00036811723
0.00040518484
0.0004471081
0.00049823543
0.00052061769
0.00019327482
0.00019880669
0.00021047438
0.00022738837
0.00024884517
0.0002741353
0.00030263059
0.00033390408
0.00036786812
0.00040501288
0.00044699799
0.00049816506
0.00052054005
0.00019267714
0.00019821412
0.00020989582
0.0002268369
0.00024833702
0.00027368681
0.0003022548
0.00033360799
0.0003676511
0.00040486628
0.00044690574
0.00049810502
0.00052046662
0.00019210795
0.00019765164
0.00020935032
0.00022632179
0.00024786779
0.0002732782
0.00030191776
0.00033334734
0.00036746433
0.00040474341
0.00044683011
0.0004980546
0.00052039742
0.00019156762
0.00019711945
0.00020883773
0.00022584245
0.00024743643
0.00027290803
0.00030161773
0.00033312026
0.00036730598
0.00040464268
0.0004467699
0.00049801313
0.00052033244
0.00019105633
0.00019661758
0.00020835776
0.00022539814
0.00024704179
0.00027257476
0.00030135292
0.00033292485
0.00036717421
0.0004045625
0.00044672392
0.00049797994
0.00052027162
0.00019057411
0.00019614588
0.00020790995
0.00022498805
0.00024668262
0.0002722768
0.0003011215
0.0003327592
0.00036706723
0.00040450132
0.00044669103
0.00049795441
0.00052021491
0.00019012085
0.0001957041
0.00020749374
0.00022461122
0.0002463576
0.00027201251
0.00030092163
0.00033262143
0.00036698327
0.00040445766
0.00044667014
0.00049793591
0.00052016224
0.00018969628
0.00019529184
0.00020710846
0.00022426665
0.00024606536
0.00027178022
0.00030075148
0.00033250968
0.0003669206
0.00040443007
0.00044666019
0.00049792386
0.00052011352
0.00018930003
0.00019490858
0.00020675335
0.00022395323
0.00024580448
0.00027157825
0.00030060921
0.00033242212
0.00036687754
0.00040441715
0.00044666018
0.00049791771
0.00052006865
0.00018893163
0.00019455373
0.00020642755
0.0002236698
0.0002455735
0.00027140492
0.00030049302
0.00033235696
0.00036685248
0.00040441758
0.00044666915
0.00049791692
0.00052002752
0.00018859049
0.00019422659
0.00020613014
0.00022341516
0.00024537093
0.00027125852
0.00030040113
0.00033231247
0.00036684385
0.00040443007
0.00044668618
0.00049792098
0.00051999
0.00018827595
0.00019392637
0.00020586013
0.00022318806
0.00024519527
0.00027113738
0.00030033177
0.00033228695
0.00036685013
0.0004044534
0.00044671041
0.00049792941
0.00051995597
0.00018798727
0.00019365225
0.00020561646
0.0002229872
0.00024504501
0.00027103982
0.00030028323
0.00033227875
0.00036686987
0.0004044864
0.000446741
0.00049794173
0.00051992529
0.00018772363
0.0001934033
0.00020539805
0.00022281127
0.00024491863
0.00027096419
0.00030025382
0.00033228627
0.00036690167
0.00040452794
0.00044677716
0.00049795749
0.0005198978
0.00018748417
0.00019317857
0.00020520378
0.00022265895
0.00024481462
0.00027090888
0.00030024192
0.00033230799
0.0003669442
0.00040457697
0.00044681813
0.00049797626
0.00051987336
0.00018726797
0.00019297706
0.00020503248
0.00022252889
0.00024473147
0.00027087228
0.00030024594
0.00033234242
0.00036699618
0.00040463246
0.00044686321
0.00049799764
0.0005198518
0.00018707408
0.00019279774
0.00020488297
0.00022241975
0.00024466772
0.00027085285
0.00030026434
0.00033238815
0.00036705639
0.00040469347
0.00044691173
0.00049802125
0.00051983296
0.0001869015
0.00019263956
0.00020475408
0.00022233021
0.0002446219
0.00027084909
0.00030029567
0.00033244385
0.0003671237
0.00040475911
0.00044696307
0.00049804672
0.00051981669
0.00018674923
0.00019250143
0.00020464462
0.00022225894
0.00024459262
0.00027085955
0.00030033852
0.00033250824
0.00036719703
0.00040482856
0.00044701667
0.00049807374
0.00051980284
0.00018661625
0.00019238229
0.00020455341
0.00022220466
0.00024457849
0.00027088285
0.00030039156
0.00033258012
0.00036727539
0.00040490104
0.00044707199
0.000498102
0.00051979124
0.00018650153
0.00019228106
0.00020447928
0.00022216611
0.00024457821
0.00027091765
0.00030045354
0.0003326584
0.00036735787
0.00040497587
0.00044712858
0.00049813125
0.00051978177
0.00018640406
0.00019219668
0.0002044211
0.00022214206
0.00024459048
0.0002709627
0.00030052329
0.00033274203
0.00036744361
0.00040505241
0.000447186
0.00049816122
0.00051977427
0.0001863228
0.00019212807
0.00020437773
0.00022213134
0.00024461412
0.00027101681
0.0003005997
0.00033283006
0.00036753185
0.00040513008
0.00044724387
0.00049819171
0.00051976861
0.00018625675
0.00019207422
0.00020434807
0.00022213279
0.00024464794
0.00027107886
0.00030068174
0.0003329216
0.00036762187
0.00040520837
0.00044730184
0.00049822251
0.00051976467
0.00018620491
0.00019203407
0.00020433107
0.00022214531
0.00024469085
0.00027114779
0.00030076844
0.00033301583
0.00036771303
0.00040528681
0.00044735961
0.00049825344
0.00051976232
0.0001861663
0.00019200664
0.00020432568
0.00022216783
0.00024474178
0.00027122259
0.00030085893
0.00033311201
0.00036780474
0.00040536496
0.0004474169
0.00049828435
0.00051976142
0.00018613993
0.00019199093
0.00020433088
0.00022219934
0.00024479975
0.00027130233
0.00030095235
0.00033320943
0.00036789647
0.00040544245
0.00044747346
0.00049831506
0.00051976186
0.00018612486
0.00019198597
0.0002043457
0.00022223884
0.00024486378
0.00027138611
0.00030104794
0.00033330745
0.0003679877
0.00040551893
0.00044752905
0.00049834545
0.00051976353
0.00018612014
0.00019199082
0.00020436918
0.0002222854
0.00024493297
0.00027147312
0.00030114497
0.00033340549
0.00036807801
0.00040559407
0.00044758346
0.00049837537
0.00051976629
0.00018612485
0.00019200455
0.00020440039
0.0002223381
0.00024500647
0.00027156256
0.00030124277
0.000333503
0.00036816697
0.00040566758
0.00044763651
0.00049840471
0.00051977004
0.00018613811
0.00019202627
0.00020443845
0.00022239608
0.00024508345
0.00027165371
0.00030134071
0.00033359948
0.00036825422
0.00040573922
0.00044768803
0.00049843335
0.00051977465
0.00018615904
0.00019205512
0.00020448251
0.00022245851
0.00024516316
0.00027174587
0.00030143822
0.00033369448
0.0003683394
0.00040580873
0.00044773785
0.00049846119
0.00051978002
0.0001861868
0.00019209025
0.00020453174
0.00022252462
0.00024524486
0.00027183843
0.00030153477
0.00033378757
0.00036842223
0.00040587591
0.00044778584
0.00049848813
0.00051978603
0.00018622059
0.00019213087
0.00020458536
0.00022259367
0.0002453279
0.00027193079
0.00030162988
0.00033387839
0.00036850241
0.00040594057
0.00044783187
0.00049851396
0.00051979259
0.00018625964
0.00019217623
0.00020464266
0.00022266497
0.00024541164
0.00027202242
0.00030172312
0.00033396661
0.00036857973
0.00040600256
0.00044787582
0.0004985385
0.00051979957
0.00018630322
0.0001922256
0.00020470293
0.00022273788
0.00024549553
0.00027211285
0.00030181411
0.00033405194
0.00036865398
0.00040606173
0.00044791753
0.00049856172
0.00051980688
0.00018635065
0.00019227832
0.00020476554
0.00022281181
0.00024557905
0.00027220165
0.00030190251
0.00033413414
0.000368725
0.00040611799
0.00044795692
0.0004985836
0.00051981443
0.00018640129
0.00019233377
0.00020482991
0.00022288625
0.00024566174
0.00027228845
0.00030198806
0.00033421303
0.00036879268
0.00040617121
0.00044799391
0.00049860423
0.00051982216
0.00018645455
0.00019239137
0.0002048955
0.00022296071
0.00024574321
0.00027237293
0.00030207051
0.00033428845
0.00036885691
0.00040622134
0.00044802854
0.00049862364
0.00051983002
0.00018650989
0.00019245059
0.00020496181
0.00022303475
0.00024582309
0.00027245483
0.0003021497
0.00033436029
0.00036891762
0.00040626833
0.00044806088
0.00049864186
0.00051983795
0.0001865668
0.00019251095
0.00020502841
0.00022310801
0.00024590109
0.00027253393
0.00030222547
0.00033442847
0.00036897474
0.00040631223
0.00044809099
0.00049865893
0.00051984592
0.00018662483
0.00019257201
0.00020509491
0.00022318015
0.00024597695
0.00027261005
0.00030229772
0.00033449293
0.00036902828
0.00040635313
0.00044811896
0.0004986749
0.00051985388
0.00018668355
0.00019263337
0.00020516094
0.00022325086
0.00024605045
0.00027268304
0.00030236637
0.0003345536
0.00036907829
0.0004063911
0.00044814485
0.0004986898
0.00051986181
0.00018674258
0.00019269467
0.00020522618
0.00022331989
0.00024612139
0.00027275278
0.00030243131
0.0003346105
0.00036912485
0.00040642625
0.00044816873
0.00049870366
0.00051986967
0.00018680155
0.00019275556
0.00020529034
0.00022338702
0.00024618962
0.00027281915
0.00030249252
0.00033466367
0.00036916804
0.00040645864
0.00044819068
0.00049871651
0.00051987742
0.00018686015
0.00019281575
0.00020535316
0.00022345203
0.00024625497
0.00027288205
0.00030254998
0.00033471318
0.00036920794
0.00040648835
0.00044821075
0.00049872838
0.00051988503
0.00018691807
0.00019287495
0.00020541441
0.00022351474
0.00024631731
0.00027294144
0.00030260373
0.00033475906
0.00036924461
0.00040651547
0.000448229
0.00049873928
0.00051989247
0.00018697506
0.00019293293
0.00020547386
0.00022357497
0.00024637655
0.00027299729
0.00030265378
0.00033480139
0.00036927813
0.00040654007
0.00044824548
0.00049874923
0.00051989969
0.00018703086
0.00019298944
0.00020553133
0.0002236326
0.00024643262
0.00027304961
0.00030270018
0.00033484025
0.0003693086
0.00040656221
0.00044826024
0.00049875825
0.00051990668
0.00018708525
0.0001930443
0.00020558667
0.00022368753
0.00024648549
0.0002730984
0.00030274299
0.0003348757
0.00036933609
0.00040658199
0.00044827334
0.00049876636
0.0005199134
0.00018713806
0.00019309734
0.00020563974
0.00022373968
0.00024653515
0.00027314371
0.0003027823
0.00033490787
0.00036936073
0.00040659949
0.00044828484
0.00049877358
0.00051991984
0.00018718912
0.00019314842
0.00020569045
0.00022378903
0.00024658161
0.00027318562
0.00030281821
0.00033493687
0.00036938263
0.00040661484
0.00044829484
0.00049877996
0.00051992599
0.00018723833
0.00019319744
0.00020573876
0.00022383556
0.00024662493
0.00027322421
0.00030285084
0.00033496286
0.00036940195
0.00040662815
0.00044830342
0.00049878555
0.00051993185
0.00018728557
0.00019324433
0.00020578461
0.00022387929
0.00024666516
0.0002732596
0.00030288035
0.00033498599
0.00036941885
0.00040663958
0.0004483107
0.00049879041
0.00051993742
0.00018733078
0.00019328904
0.000205828
0.00022392025
0.0002467024
0.00027329191
0.00030290689
0.00033500645
0.00036943349
0.00040664928
0.0004483168
0.00049879461
0.00051994273
0.00018737391
0.00019333152
0.00020586893
0.00022395849
0.00024673675
0.00027332129
0.00030293063
0.0003350244
0.00036944606
0.0004066574
0.00044832183
0.00049879822
0.00051994777
0.00018741492
0.00019337177
0.00020590741
0.00022399407
0.00024676829
0.00027334788
0.00030295174
0.00033504001
0.00036945671
0.00040666408
0.0004483259
0.0004988013
0.00051995255
0.00018745377