/*--------------------------------*- C++ -*----------------------------------*\
| =========                 |                                                 |
| \\      /  F ield         | OpenFOAM: The Open Source CFD Toolbox           |
|  \\    /   O peration     | Version:  2506                                  |
|   \\  /    A nd           | Website:  www.openfoam.com                      |
|    \\/     M anipulation  |                                                 |
\*---------------------------------------------------------------------------*/
FoamFile
{
    version     2.0;
    format      ascii;
    arch        "LSB;label=32;scalar=64";
    class       surfaceScalarField;
    location    "20000/water";
    object      phi;
}
// * * * * * * * * * * * * * * * * * * * * * * * * * * * * * * * * * * * * * //

dimensions      [1 0 -1 0 0 0 0];

oriented        oriented;

internalField   nonuniform List<scalar> 
4987
(
-6.9167736e-06
0.00085760419
-2.7656569e-05
0.0024926737
-6.1431121e-05
0.0040117068
-0.0001075903
0.0054211695
-0.00016565319
0.0067272392
-0.00023525167
0.0079357375
-0.00031606519
0.0090521266
-0.00040763483
0.010081416
-0.00050867084
0.011027654
-0.00061447105
0.011892066
-0.00070641237
0.012665127
-0.00069017742
0.01327532
0.013255156
-6.4252098e-06
0.00086402939
-2.4701717e-05
0.0025109502
-5.3973207e-05
0.0040409782
-9.3433184e-05
0.0054606295
-0.00014227852
0.0067760845
-0.00019970621
0.0079931652
-0.00026484255
0.0091172629
-0.00033648012
0.010153054
-0.00041221923
0.011103393
-0.00048568429
0.011965531
-0.00053558126
0.012715024
-0.00047144624
0.013211185
0.01278371
-6.163969e-06
0.00087019336
-2.380905e-05
0.0025285953
-5.2164898e-05
0.0040693341
-9.0528703e-05
0.0054989933
-0.00013822172
0.0068237776
-0.00019455674
0.0080495002
-0.00025870612
0.0091814123
-0.00032929751
0.010223645
-0.00040329175
0.011177387
-0.0004727614
0.012035
-0.00051220841
0.012754471
-0.00042242592
0.013121403
0.012361284
-6.1054146e-06
0.00087629878
-2.3924376e-05
0.0025464143
-5.2620538e-05
0.0040980303
-9.1395558e-05
0.0055377683
-0.00013947504
0.006871857
-0.00019604176
0.0081060669
-0.00026004543
0.009245416
-0.00032969289
0.010293293
-0.00040116834
0.011248863
-0.00046497904
0.012098811
-0.00049117541
0.012780667
-0.00037835998
0.013008587
0.011982924
-5.9919785e-06
0.00088229076
-2.3432324e-05
0.0025638546
-5.1502782e-05
0.0041261007
-8.9417765e-05
0.0055756833
-0.0001363976
0.0069188369
-0.00019157934
0.0081612487
-0.00025377584
0.0093076125
-0.0003208868
0.010360404
-0.00038849228
0.011316468
-0.0004456482
0.012155967
-0.00045837524
0.012793394
-0.00033102689
0.012881239
0.011651897
-5.8197985e-06
0.00088811056
-2.2720415e-05
0.0025807553
-4.9911332e-05
0.0041532916
-8.6629801e-05
0.0056124017
-0.00013209822
0.0069643053
-0.00018540983
0.0082145603
-0.00024524283
0.0093674455
-0.00030921061
0.010424371
-0.00037232044
0.011379578
-0.00042207813
0.012205725
-0.00042081904
0.012792135
-0.00028517408
0.012745594
0.011366723
-5.6148952e-06
0.00089372545
-2.1923414e-05
0.0025970638
-4.8158186e-05
0.0041795264
-8.3570099e-05
0.0056478136
-0.00012737381
0.007008109
-0.00017860877
0.0082657952
-0.00023581604
0.0094246528
-0.00029633568
0.010484891
-0.00035458539
0.011437828
-0.00039630862
0.012247448
-0.00038067559
0.012776502
-0.00024201049
0.012606929
0.011124713
-5.4046946e-06
0.00089913014
-2.1106786e-05
0.0026127659
-4.6361914e-05
0.0042047815
-8.0433153e-05
0.0056818849
-0.00012252438
0.0070502002
-0.00017161842
0.0083148893
-0.0002261212
0.0094791555
-0.00028309872
0.010541869
-0.00033629459
0.011491024
-0.00036936757
0.012280521
-0.00033930313
0.012746438
-0.00020218079
0.012469807
0.010922532
-5.2040372e-06
0.00090433418
-2.0322449e-05
0.0026278843
-4.4632487e-05
0.0042290916
-7.7407183e-05
0.0057146596
-0.000117836
0.007090629
-0.00016484161
0.0083618949
-0.00021669175
0.0095310057
-0.00027015443
0.010595331
-0.00031814583
0.011539015
-0.00034189245
0.012304267
-0.00029797663
0.012702522
-0.0001662914
0.012338121
0.010756241
-5.0193754e-06
0.00090935356
-1.9599432e-05
0.0026424643
-4.3036007e-05
0.0042525281
-7.460817e-05
0.0057462317
-0.00011348606
0.0071295069
-0.00015852682
0.0084069356
-0.0002078498
0.0095803287
-0.00025787593
0.010645357
-0.00030047882
0.011581618
-0.00031421626
0.012318005
-0.00025799659
0.012646302
-0.00013488813
0.012215013
0.010621352
-4.8544121e-06
0.00091420797
-1.8953518e-05
0.0026565634
-4.1607992e-05
0.0042751826
-7.2098327e-05
0.0057767221
-0.00010956978
0.0071669784
-0.00015280648
0.0084501723
-0.00019976082
0.009627283
-0.00024643025
0.010692027
-0.00028338283
0.01161857
-0.00028657101
0.012321193
-0.00022065196
0.012580383
-0.00010831397
0.012102675
0.010513039
-4.7104906e-06
0.00091891846
-1.838964e-05
0.0026702426
-4.0359024e-05
0.004297152
-6.9895773e-05
0.0058062588
-0.00010611414
0.0072031967
-0.00014771517
0.0084917734
-0.00019245611
0.0096720239
-0.00023580475
0.010735375
-0.00026674607
0.011649512
-0.0002592037
0.012313651
-0.00018698907
0.012508168
-8.6549224e-05
0.012002235
0.010426489
-4.5864894e-06
0.00092350495
-1.7903118e-05
0.0026835592
-3.9278552e-05
0.0043185274
-6.7981782e-05
0.0058349621
-0.00010308929
0.0072383042
-0.0001432058
0.0085318899
-0.00018585427
0.0097146724
-0.00022583644
0.010775358
-0.00025032329
0.011673999
-0.00023244677
0.012295774
-0.00015760687
0.012433329
-6.9195191e-05
0.011913823
0.010357294
-4.4797101e-06
0.00092798466
-1.7483378e-05
0.0026965629
-3.8343222e-05
0.0043393873
-6.6315361e-05
0.0058629342
-0.00010043089
0.0072724198
-0.00013918123
0.0085706402
-0.00017980338
0.0097552946
-0.00021627053
0.010811825
-0.00023384569
0.011691574
-0.00020673152
0.01226866
-0.00013260938
0.012359206
-5.5603097e-05
0.011836817
0.010301691
-4.3869484e-06
0.00093237161
-1.7117944e-05
0.0027092939
-3.7525519e-05
0.0043597948
-6.484815e-05
0.0058902568
-9.8062776e-05
0.0073056344
-0.00013552609
0.0086081035
-0.00017412332
0.0097938918
-0.00020682319
0.010844525
-0.00021713162
0.011701882
-0.00018252414
0.012234052
-0.00011170489
0.012288387
-4.5044649e-05
0.011770157
0.010256646
-4.305191e-06
0.0009366768
-1.679506e-05
0.0027217838
-3.6799452e-05
0.0043797992
-6.3534225e-05
0.0059169916
-9.5911858e-05
0.007338012
-0.0001321276
0.0086443193
-0.00016863372
0.0098303979
-0.00019723051
0.010873121
-0.00020015794
0.01170481
-0.00016022091
0.012194115
-9.43725e-05
0.012222539
-3.6838828e-05
0.011712623
0.010219808
-4.231915e-06
0.00094090871
-1.6504851e-05
0.0027340567
-3.6143085e-05
0.0043994375
-6.233444e-05
0.005943183
-9.3914669e-05
0.0073695922
-0.00012888455
0.0086792892
-0.00016316715
0.0098646805
-0.00018728237
0.010897237
-0.00018307198
0.011700599
-0.00014006428
0.012151108
-8.0017971e-05
0.012162492
-3.0412536e-05
0.011663018
0.010189395
-4.1651417e-06
0.00094507386
-1.6239539e-05
0.0027461311
-3.5538992e-05
0.0044187369
-6.121719e-05
0.0059688612
-9.2018426e-05
0.0074003935
-0.00012570858
0.0087129793
-0.00015757396
0.0098965459
-0.0001768465
0.010916509
-0.00016614717
0.0116899
-0.00012211726
0.012107078
-6.8078298e-05
0.012108453
-2.5313062e-05
0.011620253
0.010164082
-4.1033744e-06
0.00094917723
-1.5993201e-05
0.0027580209
-3.4973724e-05
0.0044377174
-6.0157432e-05
0.0059940449
-9.0179431e-05
0.0074304155
-0.00012252186
0.0087453218
-0.00015172469
0.0099257487
-0.00016588462
0.010930669
-0.00014970633
0.011673722
-0.00010629223
0.012063664
-5.8071575e-05
0.012060233
-2.1196955e-05
0.011583378
0.010142885
-4.0454968e-06
0.00095322273
-1.5761373e-05
0.0027697368
-3.4436917e-05
0.004456393
-5.9135099e-05
0.0060187431
-8.8360523e-05
0.0074596409
-0.00011925379
0.008776215
-0.00014551369
0.0099520086
-0.00015445696
0.010939612
-0.00013404497
0.01165331
-9.2406423e-05
0.012022025
-4.9608185e-05
0.012017435
-1.7811033e-05
0.011551581
0.010125074
-3.9906703e-06
0.0009572134
-1.5540648e-05
0.0027812868
-3.3920381e-05
0.0044747727
-5.8133466e-05
0.0060429561
-8.652847e-05
0.0074880359
-0.00011583834
0.0088055249
-0.00013886506
0.0099750353
-0.00014270997
0.010943457
-0.0001193799
0.01162998
-8.0236221e-05
0.011982881
-4.2382113e-05
0.01197958
-1.497258e-05
0.011524171
0.010110101
-3.9382458e-06
0.00096115164
-1.5328321e-05
0.0027926768
-3.3417322e-05
0.0044928617
-5.7137743e-05
0.0060666766
-8.4651719e-05
0.0075155499
-0.00011221298
0.0088330862
-0.00013174063
0.009994563
-0.00013084739
0.010942564
-0.00010583195
0.011604964
-6.9555604e-05
0.011946605
-3.6155767e-05
0.011946181
-1.2551477e-05
0.011500567
0.01009755
-3.8876947e-06
0.00096503934
-1.5122119e-05
0.0028039113
-3.2921706e-05
0.0045106613
-5.6133916e-05
0.0060898888
-8.2698658e-05
0.0075421146
-0.00010831968
0.0088587072
-0.00012414733
0.010010391
-0.00011909194
0.010937509
-9.3435629e-05
0.011579308
-6.0156806e-05
0.011913326
-3.0745044e-05
0.011916769
-1.045545e-05
0.011480277
0.010087094
-3.838557e-06
0.00096887789
-1.4919993e-05
0.0028149927
-3.2427783e-05
0.0045281691
-5.5107848e-05
0.0061125688
-8.0636488e-05
0.0075676432
-0.00010410813
0.0088821788
-0.00011614031
0.010022423
-0.00010764912
0.010929017
-8.2162637e-05
0.011553821
-5.1858015e-05
0.011883022
-2.6006929e-05
0.011890918
-8.6187007e-06
0.011462889
0.010078476
-3.7904022e-06
0.0009726683
-1.4719951e-05
0.0028259223
-3.1929705e-05
0.0045453789
-5.4044565e-05
0.0061346837
-7.8430835e-05
0.0075920295
-9.9540721e-05
0.0089032887
-0.00010781832
0.0100307
-9.6682429e-05
0.010917882
-7.194678e-05
0.011529086
-4.4503893e-05
0.011855579
-2.1829688e-05
0.011868244
-6.9936687e-06
0.011448053
0.010071482
-3.7428003e-06
0.0009764111
-1.4519946e-05
0.0028366994
-3.1421229e-05
0.0045622801
-5.292771e-05
0.0061561902
-7.6046255e-05
0.0076151481
-9.4598616e-05
0.0089218411
-9.9310941e-05
0.010035413
-8.6303325e-05
0.010904874
-6.2703746e-05
0.011505486
-3.7963106e-05
0.011830838
-1.812531e-05
0.011848406
-5.5452779e-06
0.011435473
0.010065937
-3.6952981e-06
0.00098010639
-1.4317764e-05
0.0028473219
-3.0895464e-05
0.0045788578
-5.1739152e-05
0.0061770339
-7.3447801e-05
0.0076368567
-8.9287313e-05
0.0089376806
-9.0760477e-05
0.010036886
-7.6573762e-05
0.010890687
-5.4344033e-05
0.011483256
-3.2125074e-05
0.011808619
-1.4823711e-05
0.011831104
-4.2470142e-06
0.011424896
0.01006169
-3.6473965e-06
0.00098375379
-1.4110937e-05
0.0028577854
-3.0344643e-05
0.0045950915
-5.0458786e-05
0.006197148
-7.0603637e-05
0.0076570016
-8.3639737e-05
0.0089507167
-8.2303612e-05
0.01003555
-6.7515831e-05
0.010875899
-4.6780212e-05
0.011462521
-2.689679e-05
0.011788736
-1.1868417e-05
0.011816076
-3.0782964e-06
0.011416106
0.010058611
-3.5985288e-06
0.00098735232
-1.3896643e-05
0.0028680835
-2.9759897e-05
0.0046109548
-4.9064622e-05
0.0062164527
-6.7488589e-05
0.0076754255
-7.7715087e-05
0.0089609432
-7.4057369e-05
0.010031892
-5.9123361e-05
0.010860965
-3.9930465e-05
0.011443328
-2.2199934e-05
0.011771005
-9.2133556e-06
0.011803089
-2.0227072e-06
0.011408916
0.010056589
-3.5480255e-06
0.00099090035
-1.3671564e-05
0.0028782071
-2.9130949e-05
0.0046264142
-4.7533112e-05
0.0062348549
-6.4087916e-05
0.0076919803
-7.1592564e-05
0.0089684478
-6.6111126e-05
0.010026411
-5.1371434e-05
0.010846226
-3.3719038e-05
0.011425676
-1.7967167e-05
0.011755253
-6.819255e-06
0.011791942
-1.0666128e-06
0.011403163
0.010055522
-3.4950996e-06
0.00099439545
-1.343182e-05
0.0028881438
-2.8446031e-05
0.0046414284
-4.5840367e-05
0.0062522492
-6.040131e-05
0.0077065413
-6.536231e-05
0.0089734088
-5.8525817e-05
0.010019574
-4.4224425e-05
0.010831924
-2.8076973e-05
0.011409528
-1.4140077e-05
0.011741316
-4.6492048e-06
0.011782451
-1.6925011e-07
0.011398683
0.010055353
-3.4388794e-06
0.00099783432
-1.3173131e-05
0.002897878
-2.7692439e-05
0.0046559477
-4.3964997e-05
0.0062685218
-5.6447137e-05
0.0077190234
-5.9117578e-05
0.0089760793
-5.1340517e-05
0.010011797
-3.7645585e-05
0.010818229
-2.2947486e-05
0.01139483
-1.0674779e-05
0.011729044
-2.681105e-06
0.011774457
6.6544366e-07
0.011395337
0.010056018
-3.3783148e-06
0.0010012126
-1.2890438e-05
0.0029073902
-2.6855996e-05
0.0046699133
-4.1889314e-05
0.0062835551
-5.2260846e-05
0.0077293949
-5.294344e-05
0.0089767619
-4.4574263e-05
0.010003428
-3.1595998e-05
0.010805251
-1.8279604e-05
0.011381514
-7.5311597e-06
0.011718295
-8.8300651e-07
0.011767809
1.4050017e-06
0.011393049
0.010057423
-3.3120983e-06
0.0010045247
-1.2577617e-05
0.0029166557
-2.5921007e-05
0.0046832566
-3.9601336e-05
0.0062972354
-4.7891275e-05
0.0077376849
-4.6909585e-05
0.0089757802
-3.8229279e-05
0.0099947476
-2.6033908e-05
0.010793056
-1.4024241e-05
0.011369504
-4.6695029e-06
0.011708941
7.746967e-07
0.011762365
2.0667528e-06
0.011391756
0.01005949
-3.2386928e-06
0.0010077634
-1.2227714e-05
0.0029256447
-2.4871687e-05
0.0046959006
-3.7098718e-05
0.0063094625
-4.3397663e-05
0.0077439838
-4.1070805e-05
0.0089734533
-3.2299124e-05
0.0099859759
-2.0920698e-05
0.010781677
-1.0139909e-05
0.011358723
-2.0590871e-06
0.01170086
2.2780355e-06
0.011758028
2.6638995e-06
0.011391371
0.010062154
-3.1562771e-06
0.0010109197
-1.1832823e-05
0.0029343212
-2.3693037e-05
0.0047077608
-3.4390252e-05
0.0063201597
-3.8842808e-05
0.0077484364
-3.5466313e-05
0.0089700768
-2.6770462e-05
0.0099772801
-1.621878e-05
0.010771126
-6.5853069e-06
0.01134909
3.4755445e-07
0.011693927
3.6322812e-06
0.011754743
3.2023513e-06
0.011391801
0.010065356
-3.0627118e-06
0.0010139824
-1.1384178e-05
0.0029426427
-2.2372401e-05
0.0047187491
-3.1496497e-05
0.0063292838
-3.4287346e-05
0.0077512272
-3.0121847e-05
0.0089659113
-2.1625915e-05
0.0099687841
-1.1894034e-05
0.010761394
-3.330302e-06
0.011340526
2.5511098e-06
0.011688046
4.8616844e-06
0.011752432
3.6898491e-06
0.011392972
0.010069046
-2.9555338e-06
0.001016938
-1.0872487e-05
0.0029505597
-2.0901459e-05
0.004728778
-2.8448939e-05
0.0063368313
-2.9785785e-05
0.0077525641
-2.5052588e-05
0.0089611781
-1.6845456e-05
0.009960577
-7.9112072e-06
0.01075246
-3.267182e-07
0.011332941
4.5434115e-06
0.011683175
5.9753688e-06
0.011751
4.1313285e-06
0.011394816
0.010073178
-2.8319475e-06
0.0010197699
-1.0288357e-05
0.0029580161
-1.9277892e-05
0.0047377676
-2.5286894e-05
0.0063428403
-2.5383485e-05
0.0077526607
-2.0264986e-05
0.0089560596
-1.2407946e-05
0.00995272
-4.2418627e-06
0.010744293
2.4380457e-06
0.011326262
6.3570243e-06
0.011679256
6.9857898e-06
0.011750372
4.5313355e-06
0.011397271
0.010077709
-2.6889069e-06
0.0010224588
-9.62321e-06
0.0029649504
-1.7507125e-05
0.0047456515
-2.2054204e-05
0.0063473873
-2.1116461e-05
0.0077517229
-1.5759108e-05
0.0089507023
-8.2896569e-06
0.0099452505
-8.4668928e-07
0.01073685
4.9537024e-06
0.011320461
8.0065137e-06
0.011676204
7.9031e-06
0.011750475
4.8940064e-06
0.01140028
0.010082603
-2.5232501e-06
0.0010249821
-8.8703626e-06
0.0029712975
-1.5602907e-05
0.004752384
-1.8795214e-05
0.0063505796
-1.7011648e-05
0.0077499393
-1.1530714e-05
0.0089452213
-4.4700079e-06
0.0099381898
2.2909759e-06
0.010730089
7.2495264e-06
0.011315503
9.5069044e-06
0.011673946
8.7354604e-06
0.011751246
5.2223469e-06
0.011403793
0.010087825
-2.3319746e-06
0.001027314
-8.0264234e-06
0.0029769919
-1.3587005e-05
0.0047579446
-1.5551696e-05
0.0063525443
-1.3087789e-05
0.0077474754
-7.5700436e-06
0.0089397036
-9.1685607e-07
0.0099315366
5.1653499e-06
0.010724007
9.3448707e-06
0.011311323
1.0871977e-05
0.011672419
9.4906301e-06
0.011752628
5.5193612e-06
0.011407764
0.010093345
-2.1126545e-06
0.0010294267
-7.0926602e-06
0.0029819719
-1.1487679e-05
0.0047623396
-1.2360764e-05
0.0063534174
-9.3574513e-06
0.0077444721
-3.8681012e-06
0.0089342142
2.3811865e-06
0.0099252873
7.7971197e-06
0.010718591
1.1256323e-05
0.011307864
1.2113256e-05
0.011671562
1.0175006e-05
0.011754566
5.7874377e-06
0.011412152
0.010099132
-1.8640277e-06
0.0010312907
-6.0761528e-06
0.0029861841
-9.3374818e-06
0.0047656009
-9.2536019e-06
0.0063533335
-5.8256017e-06
0.0077410441
-4.0089818e-07
0.0089287895
5.4171233e-06
0.0099194693
1.0206054e-05
0.010713802
1.2999105e-05
0.011305071
1.3241012e-05
0.01167132
1.0794264e-05
0.011757013
6.0287194e-06
0.011416917
0.010105161
-1.5866532e-06
0.0010328774
-4.9902425e-06
0.0029895877
-7.1706402e-06
0.0047677813
-6.2552912e-06
0.0063524182
-2.4927656e-06
0.0077372816
2.8316487e-06
0.0089234651
8.2067541e-06
0.0099140942
1.2408898e-05
0.0107096
1.4586592e-05
0.011302893
1.4264221e-05
0.011671643
1.1353327e-05
0.011759924
6.2450488e-06
0.011422026
0.010111406
-1.2835195e-06
0.0010341609
-3.8541904e-06
0.0029921583
-5.0207957e-06
0.004768948
-3.3849708e-06
0.0063507824
6.4618791e-07
0.0077332504
5.8153329e-06
0.008918296
1.0765875e-05
0.0099091437
1.4420774e-05
0.010705945
1.6030755e-05
0.011301283
1.5190929e-05
0.011672482
1.1856638e-05
0.011763258
6.4381253e-06
0.011427444
0.010117844
-9.6035266e-07
0.0010351212
-2.6918312e-06
0.0029938898
-2.9183578e-06
0.0047691745
-6.506326e-07
0.0063485146
3.5782193e-06
0.0077290216
8.5628756e-06
0.0089133113
1.3108512e-05
0.009904598
1.6254454e-05
0.010702799
1.7341441e-05
0.011300196
1.6027593e-05
0.011673796
1.2307638e-05
0.011766978
6.6091722e-06
0.011433143
0.010124453
-6.2535501e-07
0.0010357466
-1.5291258e-06
0.0029947936
-8.8737973e-07
0.0047685327
1.9290753e-06
0.0063456982
6.2872862e-06
0.0077246634
1.1084025e-05
0.0089085146
1.5247438e-05
0.0099004346
1.7921643e-05
0.010700125
1.8527661e-05
0.01129959
1.6780153e-05
0.011675544
1.2709545e-05
0.011771048
6.7593918e-06
0.011439093
0.010131212
-2.8822001e-07
0.0010360348
-3.9068281e-07
0.002994896
1.0457014e-06
0.0047670963
4.326658e-06
0.0063424172
8.7770991e-06
0.0077202129
1.3387425e-05
0.0089039042
1.7193089e-05
0.0098966289
1.9431784e-05
0.010697887
1.9596557e-05
0.011299425
1.7453181e-05
0.011677687
1.3064709e-05
0.011775437
6.8895801e-06
0.011445268
0.010138102
4.078113e-08
0.001035994
6.966566e-07
0.0029942402
2.8485942e-06
0.0047649444
6.5296056e-06
0.0063387362
1.1049515e-05
0.007715693
1.5480295e-05
0.0088994735
1.8954054e-05
0.0098931552
2.0792533e-05
0.010696048
2.0553816e-05
0.011299664
1.8050204e-05
0.011680191
1.3374851e-05
0.011780112
7.0002485e-06
0.011451643
0.010145102
3.5067561e-07
0.0010356434
1.7048709e-06
0.002992886
4.4970975e-06
0.0047621522
8.5308008e-06
0.0063347025
1.3105745e-05
0.0077111181
1.7368045e-05
0.0088952112
2.0536775e-05
0.0098899865
2.2009519e-05
0.010694575
2.1403442e-05
0.01130027
1.8573517e-05
0.011683021
1.3640906e-05
0.011785045
7.0915591e-06
0.011458192
0.010152194
6.3199645e-07
0.0010350114
2.6138068e-06
0.0029909042
5.9772172e-06
0.0047587888
1.0324546e-05
0.0063303552
1.4946334e-05
0.0077064963
1.905433e-05
0.0088911032
2.1945599e-05
0.0098870952
2.3086372e-05
0.010693435
2.2147768e-05
0.011301209
1.9024158e-05
0.011686144
1.3862998e-05
0.011790206
7.1632792e-06
0.011464892
0.010159357
8.7876696e-07
0.0010341326
3.4113963e-06
0.0029883715
7.2795781e-06
0.0047549206
1.1906957e-05
0.0063257278
1.6571567e-05
0.0077018317
2.0541439e-05
0.0088871333
2.3183103e-05
0.0098844535
2.402497e-05
0.010692593
2.2787625e-05
0.011302446
1.9402026e-05
0.01168953
1.4040509e-05
0.011795568
7.2148344e-06
0.011471717
0.010166572
1.087906e-06
0.0010330447
4.0915694e-06
0.0029853679
8.3995413e-06
0.0047506126
1.3276306e-05
0.006320851
1.7981907e-05
0.0076971261
2.1830712e-05
0.0088832845
2.425044e-05
0.0098820338
2.4825707e-05
0.010692017
2.3322531e-05
0.011303949
1.9706e-05
0.011693146
1.4172149e-05
0.011801101
7.2453309e-06
0.011478644
0.010173817
1.2588993e-06
0.0010317858
4.6536758e-06
0.0029819731
9.3371173e-06
0.0047459292
1.4433384e-05
0.0063157548
1.9178523e-05
0.0076923809
2.2923081e-05
0.0088795399
2.5147815e-05
0.0098798091
2.5487861e-05
0.010691677
2.3750961e-05
0.011305686
1.9934125e-05
0.011696963
1.425607e-05
0.011806779
7.2536053e-06
0.011485647
0.010181071
1.3932159e-06
0.0010303926
5.1015251e-06
0.0029782648
1.009662e-05
0.0047409341
1.5381754e-05
0.0063104696
2.0163833e-05
0.0076875989
2.3819665e-05
0.0088758841
2.5875014e-05
0.0098777537
2.6010042e-05
0.010691542
2.4070689e-05
0.011307626
2.0083858e-05
0.01170095
1.4290021e-05
0.011812573
7.2383181e-06
0.011492698
0.010188309
1.4936555e-06
0.0010288989
5.4422435e-06
0.0029743162
1.0686077e-05
0.0047356903
1.6127831e-05
0.0063050279
2.0941963e-05
0.0076827847
2.4522365e-05
0.0088723037
2.6432014e-05
0.0098758441
2.6390722e-05
0.010691584
2.4279238e-05
0.011309737
2.0152403e-05
0.011705077
1.427158e-05
0.011818454
7.1980458e-06
0.011499772
0.010195507
1.5637628e-06
0.0010273352
5.6851344e-06
0.0029701948
1.1116461e-05
0.0047302589
1.6680745e-05
0.0062994636
2.1519035e-05
0.0076779464
2.5034357e-05
0.0088687884
2.6819512e-05
0.0098740589
2.6628744e-05
0.010691774
2.437429e-05
0.011311991
2.0137045e-05
0.011709314
1.4198388e-05
0.011824393
7.1314305e-06
0.011506839
0.010202639
1.6073703e-06
0.0010257278
5.8406728e-06
0.0029659615
1.1400848e-05
0.0047246987
1.7052007e-05
0.0062938125
2.1903287e-05
0.0076730952
2.5360471e-05
0.0088653312
2.703943e-05
0.00987238
2.672383e-05
0.01069209
2.4354174e-05
0.011314361
2.0035538e-05
0.011713633
1.4068413e-05
0.01183036
7.037286e-06
0.01151387
0.010209676
1.6282817e-06
0.0010240995
5.9197009e-06
0.0029616701
1.1553585e-05
0.0047190649
1.7255037e-05
0.006288111
2.210499e-05
0.0076682452
2.5507383e-05
0.0088619288
2.7095239e-05
0.0098707921
2.6676972e-05
0.010692508
2.4218225e-05
0.01131682
1.9846422e-05
0.011718005
1.3880193e-05
0.011836326
6.9147509e-06
0.011520835
0.010216591
1.6300761e-06
0.0010224694
5.9328436e-06
0.0029573673
1.1589552e-05
0.0047134082
1.7304613e-05
0.0062823959
2.2136212e-05
0.0076634136
2.5483652e-05
0.0088585814
2.6992193e-05
0.0098692836
2.649074e-05
0.01069301
2.3967136e-05
0.011319343
1.9569333e-05
0.011722402
1.3633064e-05
0.011842262
6.7633964e-06
0.011527705
0.010223354
1.6160041e-06
0.0010208534
5.890121e-06
0.0029530932
1.1523558e-05
0.0047077747
1.7216315e-05
0.0062767032
2.2010472e-05
0.0076586195
2.5299604e-05
0.0088552922
2.6737368e-05
0.0098678458
2.6169452e-05
0.010693578
2.3603159e-05
0.01132191
1.9205216e-05
0.0117268
1.3327338e-05
0.01184814
6.5833284e-06
0.011534449
0.010229937
1.5889472e-06
0.0010192645
5.8007254e-06
0.0029488814
1.1369882e-05
0.0047022056
1.7006001e-05
0.0062710671
2.1742331e-05
0.0076538831
2.4967092e-05
0.0088520675
2.6339602e-05
0.0098664733
2.571921e-05
0.010694198
2.3130222e-05
0.011324499
1.8756454e-05
0.011731174
1.2964403e-05
0.011853932
6.3752449e-06
0.011541038
0.010236313
1.5514165e-06
0.0010177131
5.6729188e-06
0.0029447599
1.1141964e-05
0.0046967365
1.6689374e-05
0.0062655197
2.1346978e-05
0.0076492255
2.4499194e-05
0.0088489153
2.5809304e-05
0.0098651632
2.5147833e-05
0.010694859
2.2553932e-05
0.011327093
1.8226912e-05
0.011735501
1.2546777e-05
0.011859612
6.1404544e-06
0.011547445
0.010242453
1.5055738e-06
0.0010162075
5.514013e-06
0.0029407515
1.0852205e-05
0.0046913983
1.6281616e-05
0.0062600902
2.0839818e-05
0.0076446673
2.3909849e-05
0.0088458452
2.5158187e-05
0.0098639148
2.4464667e-05
0.010695553
2.1881456e-05
0.011329676
1.7621872e-05
0.011739761
1.2078072e-05
0.011865156
5.8808784e-06
0.011553642
0.010248334
1.4532646e-06
0.0010147542
5.3304052e-06
0.0029368744
1.0511874e-05
0.0046862169
1.5797135e-05
0.006254805
2.0236131e-05
0.0076402283
2.321351e-05
0.0088428679
2.4398965e-05
0.0098627294
2.3680356e-05
0.010696272
2.1121362e-05
0.011332235
1.6947918e-05
0.011743934
1.1562907e-05
0.011870541
5.5989705e-06
0.011559606
0.010253933
1.3960539e-06
0.0010133582
5.1276407e-06
0.0029331428
1.0131086e-05
0.0046812134
1.5249378e-05
0.0062496867
1.9550759e-05
0.0076359269
2.242478e-05
0.0088399938
2.3544991e-05
0.0098616092
2.2806511e-05
0.01069701
2.0283324e-05
0.011334758
1.6212705e-05
0.011748005
1.1006759e-05
0.011875747
5.2976725e-06
0.011565315
0.010259231
1.3352629e-06
0.0010120229
4.9104936e-06
0.0029295675
9.7188189e-06
0.0046764051
1.4650726e-05
0.0062447548
1.8797883e-05
0.0076317798
2.1558125e-05
0.0088372336
2.2609952e-05
0.0098605573
2.1855421e-05
0.010697765
1.9377886e-05
0.011337236
1.5424752e-05
0.011751958
1.0415779e-05
0.011880756
4.9802738e-06
0.01157075
0.010264211
1.2720021e-06
0.0010107509
4.6830486e-06
0.0029261565
9.2829779e-06
0.0046718052
1.4012442e-05
0.0062400253
1.799084e-05
0.0076278014
2.0627585e-05
0.0088345968
2.1607538e-05
0.0098595774
2.0839708e-05
0.010698532
1.8416105e-05
0.011339659
1.4593144e-05
0.011755781
9.7965917e-06
0.011885553
4.6503257e-06
0.011575897
0.010268861
1.2072025e-06
0.0010095437
4.4487848e-06
0.0029229149
8.8304684e-06
0.0046674235
1.3344666e-05
0.0062355111
1.714201e-05
0.007624004
1.9646584e-05
0.0088320923
2.0551182e-05
0.0098586728
1.9772041e-05
0.010699312
1.7409296e-05
0.011342022
1.3727281e-05
0.011759463
9.1560679e-06
0.011890124
4.3114849e-06
0.011580741
0.010273173
1.1416411e-06
0.0010084021
4.2106485e-06
0.0029198459
8.3672776e-06
0.0046632668
1.2656434e-05
0.006231222
1.626274e-05
0.0076203977
1.8627741e-05
0.0088297273
1.9453809e-05
0.0098578467
1.8664851e-05
0.010700101
1.6368716e-05
0.011344318
1.2836606e-05
0.011762995
8.5011323e-06
0.011894459
3.9674351e-06
0.011585275
0.01027714
1.0759646e-06
0.0010073261
3.9711254e-06
0.0029169507
7.8985656e-06
0.0046593394
1.1955733e-05
0.0062271648
1.5363314e-05
0.0076169902
1.7582774e-05
0.0088275078
1.8327666e-05
0.0098571018
1.7530109e-05
0.010700898
1.530534e-05
0.011346543
1.1930377e-05
0.01176637
7.8385688e-06
0.011898551
3.6217515e-06
0.011589492
0.010280762
1.0107083e-06
0.0010063154
3.7322997e-06
0.0029142291
7.4287473e-06
0.004655643
1.1249557e-05
0.006223344
1.4452954e-05
0.0076137868
1.652241e-05
0.0088254383
1.7184171e-05
0.0098564401
1.6379135e-05
0.010701703
1.4229637e-05
0.011348692
1.1017461e-05
0.011769582
7.1748577e-06
0.011902394
3.277823e-06
0.011593389
0.01028404
9.4631354e-07
0.0010053691
3.4959098e-06
0.0029116796
6.9615752e-06
0.0046521773
1.0543983e-05
0.0062197616
1.3539842e-05
0.0076107909
1.5456355e-05
0.0088235218
1.6033817e-05
0.0098558626
1.5222456e-05
0.010702515
1.3151413e-05
0.011350763
1.0106172e-05
0.011772627
6.5160479e-06
0.011905984
2.9387805e-06
0.011596966
0.010286979
8.8314117e-07
0.0010044859
3.2633955e-06
0.0029092993
6.5002142e-06
0.0046489405
9.8442401e-06
0.0062164175
1.2631166e-05
0.007608004
1.4393286e-05
0.0088217597
1.4886118e-05
0.0098553698
1.4069706e-05
0.010703331
1.2079689e-05
0.011352753
9.204156e-06
0.011775503
5.8676593e-06
0.01190932
2.6074352e-06
0.011600226
0.010289586
8.2148376e-07
0.0010036644
3.0359383e-06
0.0029070848
6.0473098e-06
0.0046459291
9.1547896e-06
0.0062133101
1.173317e-05
0.0076054256
1.3340858e-05
0.008820152
1.3749573e-05
0.0098549611
1.2929561e-05
0.010704151
1.1022601e-05
0.01135466
8.3182835e-06
0.011778207
5.2346043e-06
0.011912404
2.2862589e-06
0.011603175
0.010291872
7.6157601e-07
0.0010029029
2.8144984e-06
0.0029050319
5.6050521e-06
0.0046431385
8.4793966e-06
0.0062104357
1.0851222e-05
0.0076030538
1.2305754e-05
0.0088186975
1.2631679e-05
0.0098546351
1.1809718e-05
0.010704973
9.9873804e-06
0.011356483
7.4546254e-06
0.01178074
4.6211644e-06
0.011915238
1.9773417e-06
0.011605818
0.01029385
7.0360278e-07
0.0010021993
2.5998436e-06
0.0029031357
5.175229e-06
0.0046405632
7.8211979e-06
0.0062077898
9.9898719e-06
0.0076008851
1.1293716e-05
0.0088173937
1.1538935e-05
0.0098543899
1.0716876e-05
0.010705795
8.9803006e-06
0.011358219
6.6184065e-06
0.011783102
4.0309648e-06
0.011917825
1.6824299e-06
0.011608167
0.010295532
6.4770712e-07
0.0010015516
2.392579e-06
0.0029013908
4.7592814e-06
0.0046381965
7.1827769e-06
0.0062053663
9.1529343e-06
0.0075989149
1.0309622e-05
0.008816237
1.0476909e-05
0.0098542226
9.6567912e-06
0.010706615
8.0067362e-06
0.011359869
5.8140378e-06
0.011785295
3.4669887e-06
0.011920172
1.4028801e-06
0.011610231
0.010296935
5.939959e-07
0.0010009576
2.1931675e-06
0.0028997916
4.3583429e-06
0.0046360313
6.5662153e-06
0.0062031584
8.3435423e-06
0.0075971376
9.3575283e-06
0.008815223
9.4502606e-06
0.0098541299
8.6342732e-06
0.010707431
7.0711316e-06
0.011361432
5.0451131e-06
0.011787321
2.9315968e-06
0.011922286
1.1397329e-06
0.011612023
0.010298075
5.4254558e-07
0.001000415
2.0019512e-06
0.0028983322
3.9732834e-06
0.00463406
5.9731595e-06
0.0062011585
7.5642255e-06
0.0075955466
8.4407553e-06
0.0088143464
8.4628251e-06
0.0098541078
7.6532743e-06
0.010708241
6.1771082e-06
0.011362909
4.3144757e-06
0.011789183
2.426567e-06
0.011924174
8.9369379e-07
0.011613556
0.010298968
4.9340646e-07
0.00099992161
1.8191677e-06
0.0028970065
3.6047411e-06
0.0046322744
5.4048654e-06
0.0061993584
6.8169642e-06
0.0075941345
7.5619378e-06
0.0088136015
7.5176597e-06
0.0098541521
6.7169254e-06
0.010709041
5.3274683e-06
0.011364298
3.624255e-06
0.011790887
1.9531427e-06
0.011925845
6.6519835e-07
0.011614844
0.010299634
4.4660718e-07
0.00099947501
1.6449677e-06
0.0028958081
3.2531585e-06
0.0046306662
4.8622558e-06
0.0061977493
6.1032619e-06
0.0075928934
6.7231113e-06
0.0088129816
6.6171314e-06
0.0098542581
5.8276254e-06
0.010709831
4.5243075e-06
0.011365601
2.9759457e-06
0.011792435
1.5120914e-06
0.011927309
4.5442769e-07
0.011615901
0.010300088
4.0215911e-07
0.00099907285
1.4794317e-06
0.0028947308
2.9188188e-06
0.0046292268
4.345978e-06
0.0061963221
5.4242261e-06
0.0075918152
5.9258104e-06
0.00881248
5.7630404e-06
0.0098544209
4.9871831e-06
0.010710607
3.7691611e-06
0.011366819
2.3705893e-06
0.011793833
1.1038964e-06
0.011928575
2.6148244e-07
0.011616744
0.010300349
3.6005893e-07
0.00099871279
1.3225809e-06
0.0028937683
2.6018709e-06
0.0046279475
3.8564451e-06
0.0061950676
4.7806221e-06
0.007590891
5.1711338e-06
0.0088120895
4.9566847e-06
0.0098546353
4.1968873e-06
0.010711367
3.0630895e-06
0.011367953
1.8088976e-06
0.011795088
7.2912579e-07
0.011929655
8.8898294e-08
0.011617384
0.010300438
3.2028654e-07
0.0009983925
1.1743674e-06
0.0028929142
2.3023029e-06
0.0046268196
3.3937862e-06
0.0061939761
4.1727916e-06
0.007590112
4.4596168e-06
0.0088118027
4.1986782e-06
0.0098548962
3.4572493e-06
0.010712108
2.406326e-06
0.011369004
1.2907388e-06
0.011796203
3.8751911e-07
0.011930558
-6.2406345e-08
0.011617834
0.010300376
2.8280579e-07
0.0009981097
1.0346767e-06
0.0028921624
2.0199503e-06
0.0046258343
2.9578575e-06
0.0061930382
3.6006602e-06
0.0075894692
3.7912334e-06
0.0088116121
3.4889438e-06
0.0098551985
2.7680145e-06
0.010712829
1.7983866e-06
0.011369974
8.1578513e-07