/*--------------------------------*- C++ -*----------------------------------*\
| =========                 |                                                 |
| \\      /  F ield         | OpenFOAM: The Open Source CFD Toolbox           |
|  \\    /   O peration     | Version:  2506                                  |
|   \\  /    A nd           | Website:  www.openfoam.com                      |
|    \\/     M anipulation  |                                                 |
\*---------------------------------------------------------------------------*/
FoamFile
{
    version     2.0;
    format      ascii;
    arch        "LSB;label=32;scalar=64";
    class       volVectorField;
    location    "20000/water";
    object      U;
}
// * * * * * * * * * * * * * * * * * * * * * * * * * * * * * * * * * * * * * //

dimensions      [0 1 -1 0 0 0 0];

internalField   nonuniform List<vector> 
2600
(
(0.2509291 -6.6886033e-05 1.4306889e-19)
(0.25093316 -0.00014739222 -2.1283271e-18)
(0.25094167 -0.00023143146 -4.0899549e-19)
(0.2509543 -0.00031980044 -9.2625426e-19)
(0.25097092 -0.0004082391 -4.5433634e-19)
(0.25099124 -0.00049673666 -1.2149833e-19)
(0.25101467 -0.0005856609 -7.9121343e-20)
(0.25103908 -0.00067482201 -8.5522408e-20)
(0.25105541 -0.00075972197 1.2721001e-19)
(0.25102652 -0.00083857781 -3.6891796e-21)
(0.25079811 -0.00098580402 6.0870757e-20)
(0.24954942 -0.001485464 -1.0750326e-19)
(0.2411817 0.0014904344 -2.9555691e-19)
(0.25290631 -5.2391824e-05 -5.4299539e-20)
(0.25291356 -0.00012867936 -2.5602596e-18)
(0.25292967 -0.00020232594 -8.2902549e-19)
(0.25295369 -0.00027812692 -8.4704389e-19)
(0.25298503 -0.00035187867 -6.7548334e-19)
(0.25302278 -0.00042368282 -4.0022973e-19)
(0.25306456 -0.0004936843 -2.0860624e-19)
(0.25310219 -0.00056251339 -9.7630869e-20)
(0.25310631 -0.00062550536 7.1978104e-20)
(0.25297401 -0.00066089399 -5.2261727e-20)
(0.25231856 -0.00068576655 3.2698181e-20)
(0.24919071 -0.0011507908 -2.8457938e-19)
(0.23317376 0.00055016191 -3.8506453e-19)
(0.25485703 -5.020126e-05 -1.6470553e-19)
(0.25486389 -0.00012463928 -1.4623684e-18)
(0.2548791 -0.00019574884 -1.8091247e-18)
(0.2549016 -0.00026956178 -1.8880849e-19)
(0.25493052 -0.00034177627 -5.3084614e-19)
(0.25496396 -0.00041257844 -2.6683286e-19)
(0.25499618 -0.00048173979 -1.1122326e-19)
(0.25500857 -0.00054996705 3.7540776e-19)
(0.25494172 -0.00061637669 4.1556341e-19)
(0.2546073 -0.0006602417 -7.8312407e-21)
(0.25332071 -0.00063871076 -8.236249e-20)
(0.2478214 -0.00092597142 -4.1090287e-19)
(0.22526486 0.00012340436 -3.6760713e-19)
(0.25664521 -4.9743849e-05 3.0828726e-18)
(0.25665224 -0.00012488064 9.9940145e-19)
(0.2566674 -0.00019721364 -1.9458109e-19)
(0.2566896 -0.0002720698 4.5072761e-20)
(0.25671747 -0.00034495172 -1.4731101e-19)
(0.25674738 -0.00041609227 6.0102045e-20)
(0.25676826 -0.0004848948 2.3395441e-20)
(0.25674667 -0.00055096518 2.4631738e-19)
(0.25658539 -0.00061444887 1.0509973e-19)
(0.2559957 -0.0006636637 -4.8352969e-20)
(0.2539403 -0.00063277351 -1.2902857e-19)
(0.24583249 -0.00077044467 -3.6219185e-19)
(0.21800982 -5.9385921e-05 -4.1752216e-19)
(0.25841323 -4.8556775e-05 9.2931411e-19)
(0.2584204 -0.00012219546 1.4690203e-18)
(0.25843571 -0.00019301892 1.2299095e-18)
(0.25845781 -0.00026625064 -3.110796e-19)
(0.25848442 -0.00033744492 -3.5955058e-20)
(0.25850914 -0.00040689654 -7.8271302e-20)
(0.25851346 -0.00047389151 -1.2981563e-20)
(0.25844542 -0.00053705871 -1.2975957e-19)
(0.25816424 -0.00059536594 -1.0773823e-19)
(0.25726648 -0.00064373127 -2.2630688e-20)
(0.25431322 -0.00061442321 -8.8112656e-20)
(0.24352458 -0.00065114415 -2.0302916e-19)
(0.21163262 -0.00012321892 -4.427434e-19)
(0.26015467 -4.709344e-05 -1.8629313e-20)
(0.26016187 -0.0001185153 1.0959935e-18)
(0.26017704 -0.0001870764 1.0660696e-18)
(0.2601984 -0.00025799462 1.9402714e-19)
(0.26022227 -0.00032687702 -2.4489249e-19)
(0.26023853 -0.00039398781 1.5080431e-20)
(0.26021927 -0.00045855461 1.1752724e-19)
(0.26009115 -0.00051865148 -3.8497361e-20)
(0.25966515 -0.00057157394 -9.938236e-20)
(0.2584067 -0.0006148087 3.8844331e-23)
(0.25443266 -0.00058544056 -4.0565409e-20)
(0.24102793 -0.0005571206 1.9540326e-20)
(0.20612335 -0.00013293671 -3.1845876e-19)
(0.26183846 -4.5390268e-05 1.12666e-18)
(0.26184561 -0.00011435405 1.340386e-18)
(0.26186042 -0.00018050108 7.1892206e-19)
(0.26188043 -0.00024892327 1.0784918e-18)
(0.26190008 -0.00031528561 2.8112813e-19)
(0.26190445 -0.00037977027 3.9974798e-24)
(0.26185458 -0.00044151446 8.3849612e-20)
(0.2616533 -0.00049832849 -8.9165656e-20)
(0.26105826 -0.00054618084 -2.8074066e-19)
(0.25938354 -0.00058222647 -1.4083591e-19)
(0.25426994 -0.00054801504 -5.2352408e-20)
(0.23842933 -0.0004786814 -5.8010768e-20)
(0.20141646 -0.00011963306 -3.2398868e-19)
(0.26345768 -4.3664882e-05 -1.4891575e-18)
(0.26346469 -0.00011008557 -8.8126931e-19)
(0.26347885 -0.00017377013 -3.0451696e-19)
(0.26349678 -0.00023963045 2.075831e-19)
(0.26351051 -0.00030340684 2.0734102e-19)
(0.26349932 -0.00036518044 -1.1334599e-19)
(0.26341166 -0.00042394822 -3.6736839e-20)
(0.2631242 -0.00047735793 -1.2629467e-19)
(0.26233468 -0.00052050214 6.6139035e-20)
(0.26018092 -0.00054846095 -7.5594302e-20)
(0.25381559 -0.00050481858 -3.7978728e-20)
(0.23581666 -0.00040978299 4.5835104e-20)
(0.19745226 -9.8494618e-05 -2.2860545e-19)
(0.26501552 -4.2046878e-05 1.9009085e-18)
(0.26502225 -0.00010599907 6.5628888e-19)
(0.26503542 -0.0001673021 1.1354749e-18)
(0.26505044 -0.00023067618 6.4956602e-19)
(0.26505633 -0.00029193976 1.2802296e-19)
(0.26502564 -0.00035106733 2.0726659e-19)
(0.26489279 -0.0004068816 -5.3992741e-20)
(0.26450568 -0.00045685738 -9.3814721e-20)
(0.26349313 -0.00049549056 -3.235152e-19)
(0.26078727 -0.00051473411 -1.5230079e-20)
(0.25307513 -0.00045847926 -6.4001692e-20)
(0.23327192 -0.00034737981 1.9344008e-19)
(0.19416843 -7.6932877e-05 -1.1244566e-19)
(0.2665165 -4.057706e-05 4.6476863e-19)
(0.26652283 -0.00010224007 9.1386101e-19)
(0.26653459 -0.00016134012 7.9099644e-19)
(0.26654572 -0.0002224043 9.3105118e-19)
(0.26654166 -0.00028132046 3.1009961e-19)
(0.26648729 -0.00033795567 2.2562456e-19)
(0.26630156 -0.0003909415 -1.0295903e-19)
(0.26580019 -0.00043752441 -1.6599732e-19)
(0.26453091 -0.00047164498 -1.9586167e-19)
(0.26118849 -0.00048140524 -7.8424275e-20)
(0.25206937 -0.00041120616 -9.7801372e-20)
(0.23086314 -0.00029047957 -1.8843524e-19)
(0.19149027 -5.8333247e-05 -2.5997895e-19)
(0.26796591 -3.9276698e-05 -1.6066836e-18)
(0.26797166 -9.8886215e-05 -2.0139498e-19)
(0.26798155 -0.00015601485 9.4253831e-20)
(0.26798768 -0.00021499986 1.0859473e-18)
(0.26797137 -0.00027178436 2.4158498e-19)
(0.26788889 -0.00032612645 7.8806191e-20)
(0.26764202 -0.00037645613 3.7098599e-20)
(0.26700984 -0.00041972353 -1.9452761e-19)
(0.26544297 -0.00044912485 -1.3156242e-19)
(0.26137042 -0.00044842586 -8.7340692e-20)
(0.25083979 -0.00036475938 -9.6977404e-20)
(0.22864123 -0.00023936525 -5.602117e-19)
(0.18933265 -4.3854005e-05 -3.2216466e-19)
(0.26936985 -3.8151201e-05 4.859473e-19)
(0.26937484 -9.5961771e-05 1.406933e-20)
(0.26938229 -0.00015136516 5.7097492e-19)
(0.2693822 -0.00020851723 4.5930052e-19)
(0.26935114 -0.00026339986 3.6406783e-19)
(0.26923575 -0.00031565718 7.5647942e-21)
(0.26891866 -0.00036350366 1.2875431e-19)
(0.26813622 -0.00040351927 -1.0384028e-19)
(0.26622207 -0.00042777197 -1.3114421e-19)
(0.26132397 -0.00041560853 -3.3980741e-20)
(0.24944814 -0.00032041759 -6.6780961e-20)
(0.22663743 -0.00019477813 -3.3584099e-19)
(0.18760708 -3.3365946e-05 -3.0389528e-19)
(0.27073452 -3.7186893e-05 7.8271411e-19)
(0.27073851 -9.3441595e-05 -3.0871734e-19)
(0.27074291 -0.00014735094 -1.0009589e-19)
(0.27073523 -0.00020290125 -1.1220863e-20)
(0.27068668 -0.00025609589 4.9544785e-19)
(0.27053315 -0.00030645578 7.8904523e-20)
(0.27013553 -0.00035195662 -3.4552853e-20)
(0.26917943 -0.00038871662 -4.8526225e-20)
(0.26685881 -0.00040716161 -4.0111157e-20)
(0.26105041 -0.00038281107 -9.4920559e-20)
(0.24796793 -0.000279039 -9.9307703e-20)
(0.2248628 -0.00015723515 -2.7258004e-19)
(0.18622942 -2.6089596e-05 -2.1522981e-19)
(0.27206549 -3.6358598e-05 -3.1541787e-19)
(0.27206822 -9.1270026e-05 -2.8975975e-19)
(0.27206885 -0.00014388431 9.0941223e-20)
(0.27205207 -0.0001980307 8.2034904e-19)
(0.27198302 -0.00024971699 5.0456247e-20)
(0.27178551 -0.00029832671 2.8234082e-19)
(0.27129541 -0.00034156267 4.0396203e-19)
(0.27013718 -0.00037494839 1.2287732e-19)
(0.26734241 -0.00038673535 2.9654533e-20)
(0.2605654 -0.00035005845 -5.3523257e-20)
(0.24647172 -0.00024119444 -2.4904326e-19)
(0.22331131 -0.00012666961 -3.5783186e-19)
(0.18512583 -2.1076362e-05 -3.7945383e-19)
(0.27336737 -3.5638789e-05 -1.3018046e-18)
(0.27336856 -8.9381863e-05 -4.1998715e-20)
(0.27336463 -0.00014086217 1.1321213e-18)
(0.27333706 -0.00019376296 4.445869e-19)
(0.27324415 -0.00024407935 1.1701319e-19)
(0.27299604 -0.00029103799 8.5042961e-20)
(0.27239931 -0.00033202384 3.7940101e-19)
(0.27100443 -0.00036176735 2.428574e-19)
(0.26766283 -0.00036596048 2.8420603e-19)
(0.25989992 -0.00031757796 9.6548612e-21)
(0.24502002 -0.00020725749 -3.5715664e-19)
(0.22196569 -0.00010242451 -7.949444e-20)
(0.18423545 -1.7507135e-05 -1.2241522e-19)
(0.27464382 -3.5002895e-05 -3.2578986e-19)
(0.27464313 -8.771602e-05 -6.9946899e-20)
(0.27463375 -0.00013818759 3.930393e-19)
(0.2745935 -0.00018996325 5.0463932e-19)
(0.27447297 -0.0002390078 4.2985321e-19)
(0.27416661 -0.0002843653 9.4178726e-20)
(0.27344636 -0.00032304578 -1.6458048e-19)
(0.27177364 -0.00034871444 4.3972945e-20)
(0.26781391 -0.00034445796 -9.8917755e-20)
(0.25909704 -0.00028576388 -7.5875424e-20)
(0.2436552 -0.00017740828 -1.8508041e-19)
(0.22080343 -8.3473122e-05 -3.0767119e-19)
(0.18351045 -1.4804656e-05 1.6377539e-19)
(0.27589768 -3.4431105e-05 2.6284846e-18)
(0.27589473 -8.6221419e-05 2.9357173e-19)
(0.27587888 -0.00013577914 -3.5321769e-19)
(0.27582384 -0.00018651757 3.4276124e-19)
(0.27567139 -0.00023435207 4.0077168e-19)
(0.27529788 -0.00027811162 2.7800798e-19)
(0.27443375 -0.00031435608 -7.6361511e-20)
(0.27243556 -0.00033536394 5.1889401e-20)
(0.26779662 -0.00032206953 -1.167133e-19)
(0.25820551 -0.00025510605 -1.4262401e-19)
(0.24240122 -0.00015160171 -1.0512752e-19)
(0.21980119 -6.8691082e-05 -2.4050024e-19)
(0.18291435 -1.2618604e-05 -2.3036181e-19)
(0.27713109 -3.3908296e-05 2.4866371e-18)
(0.27712546 -8.4858e-05 3.30456e-19)
(0.27710201 -0.00013357264 -1.1755709e-19)
(0.27702977 -0.00018333501 4.2957194e-19)
(0.27684047 -0.00022998947 4.9197614e-19)
(0.2763893 -0.00027211088 2.385297e-19)
(0.27535691 -0.000305704 5.7703015e-20)
(0.2729805 -0.00032135789 -4.1473985e-20)
(0.26762111 -0.000298863 -1.8790314e-19)
(0.25727242 -0.00022610448 -8.8176917e-20)
(0.24126718 -0.00012956893 -8.7331733e-20)
(0.21893722 -5.7057502e-05 -1.0284546e-19)
(0.18241982 -1.0759123e-05 -2.3081622e-19)
(0.27834572 -3.3423242e-05 -4.6110206e-19)
(0.27833694 -8.3595435e-05 -1.4407023e-19)
(0.2783046 -0.00013151911 2.2580822e-19)
(0.27821241 -0.00018034487 7.2834179e-19)
(0.27798052 -0.00022582104 -4.8397069e-20)
(0.27743925 -0.00026622305 2.5976105e-19)
(0.27620962 -0.00029685485 4.9892786e-19)
(0.27340008 -0.00030643646 -9.7096849e-20)
(0.26730692 -0.00027509387 -4.6829981e-20)
(0.25633756 -0.00019918434 -1.0213292e-19)
(0.24025214 -0.00011087583 -1.755754e-19)
(0.21819233 -4.7749393e-05 -2.7125347e-19)
(0.18200662 -9.130362e-06 -3.1345798e-19)
(0.27954284 -3.2967673e-05 -6.0553899e-19)
(0.27953036 -8.2411059e-05 5.0135853e-19)
(0.27948767 -0.00012958148 1.3345603e-18)
(0.27937237 -0.00017749195 -1.2265985e-19)
(0.27909121 -0.00022176545 1.326037e-19)
(0.27844503 -0.00026032526 1.0174458e-19)
(0.27698441 -0.0002875873 3.0540239e-19)
(0.27368916 -0.00029046172 6.3806355e-20)
(0.26688073 -0.00025114512 2.2737874e-19)
(0.25543062 -0.00017462895 2.6460172e-19)
(0.2393495 -9.5013828e-05 -1.8622556e-19)
(0.21754999 -4.0152279e-05 -4.7127224e-20)
(0.18165972 -7.6839294e-06 -7.470033e-20)
(0.28072346 -3.2535408e-05 1.0001453e-18)
(0.28070667 -8.1287788e-05 8.8076083e-19)
(0.28065194 -0.00012773123 6.7217882e-19)
(0.28050986 -0.00017473179 -1.1116412e-20)
(0.28017156 -0.00021775302 -8.2290009e-20)
(0.27940289 -0.00025430187 -1.5143127e-21)
(0.27767312 -0.00027769787 2.2508661e-19)
(0.27384765 -0.00027342825 4.5802352e-19)
(0.26637282 -0.0002274605 3.8838652e-20)
(0.2545711 -0.00015254844 -1.1837951e-19)
(0.23855012 -8.1483947e-05 -2.6050027e-19)
(0.21699614 -3.3827357e-05 4.2896631e-20)
(0.18136794 -6.3924802e-06 1.86058e-19)
(0.28188837 -3.2121655e-05 1.5583012e-18)
(0.28186655 -8.021234e-05 2.4300147e-18)
(0.28179785 -0.00012594549 -3.2347111e-19)
(0.28162471 -0.0001720264 -2.6648275e-20)
(0.28121999 -0.00021372063 -1.0896614e-19)
(0.28030804 -0.00024803602 3.9400601e-20)
(0.27826773 -0.00026701325 3.516895e-19)
(0.27388156 -0.00025545687 4.0715183e-19)
(0.26581311 -0.00020447959 2.0792413e-20)
(0.25377001 -0.00013289046 -4.3912993e-19)
(0.23784411 -6.9849806e-05 -2.10309e-19)
(0.21651886 -2.8467053e-05 -1.0314248e-19)
(0.18112283 -5.2370247e-06 -5.0279067e-20)
(0.28303819 -3.1722486e-05 5.7723946e-19)
(0.28301052 -7.9173849e-05 1.317061e-18)
(0.28292559 -0.00012420468 1.2857748e-19)
(0.28271638 -0.00016934095 -2.1741131e-19)
(0.2822343 -0.00020960733 6.4751876e-19)
(0.28115476 -0.00024140492 1.7993027e-19)
(0.27876144 -0.00025540744 1.3343657e-19)
(0.27380292 -0.00023677349 2.1843034e-19)
(0.26522808 -0.00018258158 1.7600491e-19)
(0.25303215 -0.00011548271 6.1381506e-20)
(0.23722187 -5.9756849e-05 1.870035e-19)
(0.21610816 -2.3855581e-05 -9.370864e-20)
(0.18091788 -4.2017888e-06 7.1666282e-20)
(0.28417339 -3.1334454e-05 -1.5005672e-18)
(0.28413893 -7.8162821e-05 -7.011995e-19)
(0.28403512 -0.00012249081 3.9682041e-19)
(0.28378396 -0.00016664114 5.4909981e-19)
(0.28321158 -0.00020535009 9.2589765e-20)
(0.28193659 -0.00023428039 5.2296422e-19)
(0.27914984 -0.0002428187 5.4543604e-19)
(0.27362851 -0.00021767774 5.7929681e-19)
(0.26463906 -0.00016204549 2.0192951e-19)
(0.25235823 -0.00010008744 -2.595721e-19)
(0.23667446 -5.0928357e-05 -2.961365e-19)
(0.21575559 -1.9839499e-05 -3.9189352e-20)
(0.18074793 -3.2726149e-06 4.6738582e-20)
(0.28529433 -3.0954308e-05 9.1364062e-19)
(0.28525196 -7.7170342e-05 6.4489388e-20)
(0.28512619 -0.000120786 1.3752866e-18)
(0.28482614 -0.00016389139 6.7153104e-19)
(0.28414822 -0.00020087987 2.220235e-19)
(0.28264669 -0.00022653514 6.0459405e-19)
(0.27943202 -0.00022926073 4.7481168e-19)
(0.27337791 -0.00019850617 2.3548547e-19)
(0.26406181 -0.00014303334 1.1505801e-19)
(0.25174654 -8.6449636e-05 1.9308108e-19)
(0.23619383 -4.3151064e-05 -1.404981e-19)
(0.21545404 -1.6307482e-05 6.9833103e-20)
(0.18060884 -2.4367233e-06 5.0749259e-20)
(0.28640123 -3.0578786e-05 1.826338e-18)
(0.28634965 -7.618747e-05 -3.3085518e-19)
(0.28619826 -0.0001190714 9.2651685e-19)
(0.28584114 -0.00016105349 -5.5062907e-20)
(0.28503985 -0.00019611848 8.3404047e-19)
(0.2832784 -0.00021805401 2.1919175e-19)
(0.27961117 -0.0002148247 -7.9276596e-20)
(0.27307114 -0.00017959425 3.4385282e-19)
(0.26350715 -0.00012559657 2.4018087e-19)
(0.25119402 -7.4328981e-05 3.2932293e-19)
(0.23577276 -3.6259414e-05 3.4628921e-19)
(0.21519748 -1.3176886e-05 5.3490986e-20)
(0.18049716 -1.6828051e-06 1.6218369e-19)
(0.28749419 -3.0204453e-05 -3.5532999e-19)
(0.28743185 -7.5204725e-05 1.5498701e-18)
(0.28725056 -0.00011732617 -1.8359876e-19)
(0.28682673 -0.00015808531 -2.1947874e-20)
(0.28588145 -0.00019097763 6.333385e-19)
(0.28382593 -0.00020874814 2.315347e-19)
(0.27969464 -0.00019967159 -6.4263138e-20)
(0.27272685 -0.00016124195 2.4155792e-19)
(0.26298189 -0.0001096995 2.798996e-19)
(0.25069697 -6.3515084e-05 -1.60061e-19)
(0.23540492 -3.0122626e-05 9.4654913e-20)
(0.21498079 -1.0384883e-05 5.5911366e-20)
(0.18041 -1.0010636e-06 1.2562578e-20)
(0.28857317 -2.9827535e-05 -1.5346288e-19)
(0.28849825 -7.4211615e-05 1.2899341e-18)
(0.28828196 -0.00011552672 1.8016284e-19)
(0.28778008 -0.00015493915 3.307185e-19)
(0.28666738 -0.0001853609 4.3721326e-19)
(0.28428521 -0.00019856897 2.1172422e-19)
(0.27969326 -0.0001840164 8.9951786e-20)
(0.27236107 -0.00014368796 1.4447948e-19)
(0.26248991 -9.5249943e-05 3.2864539e-19)
(0.25025143 -5.3830647e-05 1.8573679e-19)
(0.23508473 -2.4635371e-05 2.4106273e-20)
(0.21479959 -7.8825751e-06 1.3667602e-20)
(0.18034487 -3.8313452e-07 -2.1556806e-20)
(0.28963798 -2.9443749e-05 -3.4482947e-19)
(0.28954832 -7.3196105e-05 4.1057863e-19)
(0.28929102 -0.00011364594 2.9145183e-19)
(0.2886978 -0.00015155982 7.0481414e-19)
(0.28739173 -0.00017916928 3.5061168e-21)
(0.28465455 -0.00018751867 3.0489459e-19)
(0.27962017 -0.00016810645 7.5638035e-19)
(0.2719867 -0.00012709655 6.8736395e-19)
(0.26203302 -8.2127607e-05 4.2290451e-20)
(0.24985346 -4.5128225e-05 -2.3451992e-19)
(0.23480728 -1.9711352e-05 -3.6479506e-19)
(0.21465012 -5.6310607e-06 -9.1744188e-20)
(0.18029962 1.7809247e-07 -6.5817113e-20)
(0.29068824 -2.9047995e-05 1.5301728e-19)
(0.29058125 -7.2143819e-05 2.1284609e-18)
(0.29027586 -0.0001116522 9.2111459e-19)
(0.28957586 -0.00014788248 6.8876744e-19)
(0.28804865 -0.00017230927 1.2148871e-20)
(0.28493523 -0.00017565388 4.2521038e-19)
(0.2794894 -0.00015219584 6.3964911e-19)
(0.2716136 -0.00011155668 2.2389905e-19)
(0.26161163 -7.0203637e-05 6.5573194e-20)
(0.24949925 -3.7283278e-05 9.5963384e-20)
(0.23456828 -1.5277116e-05 -6.0817313e-20)
(0.21452909 -3.5979134e-06 2.7988676e-20)
(0.18027234 6.8890512e-07 -1.7212163e-20)
(0.29172336 -2.8634278e-05 1.163507e-18)
(0.291596 -7.1037631e-05 1.6543943e-18)
(0.29123415 -0.00010950892 1.1775945e-18)
(0.29040962 -0.00014383257 5.6222465e-20)
(0.28863287 -0.0001647043 4.7484218e-19)
(0.28513156 -0.00016308398 4.0132134e-20)
(0.27931466 -0.0001365221 -1.8490468e-19)
(0.27124896 -9.7093607e-05 1.2895736e-19)
(0.26122524 -5.9353695e-05 3.3535554e-19)
(0.24918522 -3.0190211e-05 4.6626167e-19)
(0.23436395 -1.1270318e-05 3.9863389e-19)
(0.2144337 -1.7305554e-06 5.63717e-20)
(0.18026136 1.176167e-06 1.4503381e-19)
(0.29274252 -2.8196033e-05 1.5780218e-18)
(0.29259116 -6.9858457e-05 1.0565967e-18)
(0.29216305 -0.00010717576 6.0515674e-19)
(0.29119393 -0.00013933086 -1.8046836e-19)
(0.28914031 -0.00015631033 6.6866583e-19)
(0.28525057 -0.00014996784 -3.4625858e-20)
(0.27910837 -0.000121293 -1.2319176e-19)
(0.2708978 -8.3692866e-05 2.0123604e-19)
(0.26087272 -4.9471613e-05 1.4691319e-19)
(0.24890802 -2.3766771e-05 1.8361584e-19)
(0.23419085 -7.6476438e-06 2.6782079e-19)
(0.21436056 -1.623851e-08 7.5637443e-20)
(0.18026627 1.6404195e-06 2.7570315e-21)
(0.2937446 -2.7725098e-05 3.1247749e-19)
(0.29356496 -6.8583188e-05 -1.7981825e-19)
(0.29305914 -0.00010460504 2.432001e-19)
(0.29192334 -0.00013429446 6.4019799e-20)
(0.28956868 -0.00014712078 3.6258836e-19)
(0.2853013 -0.00013649479 9.7991065e-20)
(0.27888121 -0.00010666837 2.9982518e-19)
(0.27056351 -7.1310464e-05 4.8384704e-19)
(0.26055265 -4.046287e-05 3.0413972e-19)
(0.24866458 -1.7940224e-05 2.4974459e-19)
(0.23404606 -4.3538721e-06 3.367913e-19)
(0.21430781 1.5374371e-06 2.4386642e-19)
(0.18028522 2.0564112e-06 2.2815866e-20)
(0.29472815 -2.7211025e-05 2.1480212e-18)
(0.29451518 -6.7183245e-05 5.9062241e-19)
(0.29391842 -0.00010173906 6.9377731e-19)
(0.29259237 -0.00012864185 9.8990979e-19)
(0.28991788 -0.00013716949 -2.8720201e-19)
(0.28529395 -0.0001228645 4.2482457e-19)
(0.27864193 -9.2752901e-05 1.1383902e-18)
(0.27024822 -5.9882404e-05 9.5832078e-19)
(0.26026336 -3.2238616e-05 3.9223195e-19)
(0.24845204 -1.2642328e-05 -3.0637224e-19)
(0.23392646 -1.3358389e-06 -1.5752912e-19)
(0.21427448 2.9562075e-06 1.7847539e-20)
(0.18031663 2.4263281e-06 1.3412365e-20)
(0.29569132 -2.6641403e-05 1.9384622e-18)
(0.2954391 -6.5625548e-05 1.8289105e-18)
(0.29473631 -9.8512684e-05 1.7503003e-18)
(0.29319592 -0.00012230569 8.7743309e-19)
(0.29019018 -0.00012653595 3.2194439e-19)
(0.2852389 -0.00010927513 7.797184e-19)
(0.27839743 -7.9607221e-05 6.4572523e-19)
(0.26995312 -4.9342173e-05 5.2599202e-20)
(0.26000309 -2.472212e-05 1.8350671e-19)
(0.24826773 -7.8150387e-06 3.872938e-19)
(0.23382955 1.4151893e-06 -2.176754e-19)
(0.21425921 4.2391047e-06 -2.127998e-19)
(0.18035932 2.7544424e-06 -3.8275175e-20)
(0.29663173 -2.6001182e-05 1.134236e-18)
(0.29633339 -6.3871156e-05 8.9774819e-19)
(0.29550768 -9.4853892e-05 1.3085007e-18)
(0.29372976 -0.00011524118 5.2472406e-19)
(0.29039012 -0.00011533895 1.0987191e-18)
(0.28514604 -9.5905344e-05 6.7136302e-19)
(0.27815305 -6.7254086e-05 -2.7495093e-19)
(0.26967872 -3.9623273e-05 -1.4428567e-19)
(0.25977003 -1.7841796e-05 1.7084557e-19)
(0.24810923 -3.383915e-06 6.1967025e-19)
(0.23375398 3.9312419e-06 3.9176058e-19)
(0.21425996 5.3906294e-06 4.2847399e-20)
(0.18041214 3.0443426e-06 9.4270098e-20)
(0.29754645 -2.527239e-05 1.7696505e-18)
(0.29719411 -6.187445e-05 1.690597e-18)
(0.29622706 -9.0687755e-05 2.8136552e-19)
(0.29419101 -0.00010743478 8.3443548e-19)
(0.290524 -0.00010372734 8.0834849e-19)
(0.28502427 -8.2903322e-05 2.437324e-19)
(0.27791277 -5.5688884e-05 -9.8062724e-20)
(0.26942499 -3.0662177e-05 -1.8570066e-20)
(0.25956226 -1.1539629e-05 -9.7848118e-21)
(0.24797362 6.7594075e-07 -2.157016e-19)
(0.23369893 6.2277519e-06 4.1576376e-19)
(0.21427538 6.4296544e-06 2.6788774e-19)
(0.18047413 3.3030901e-06 1.9391512e-20)
(0.29843186 -2.4434088e-05 -1.404937e-18)
(0.29801658 -5.9582975e-05 1.3764017e-18)
(0.29688883 -8.5943384e-05 4.0381796e-19)
(0.29457851 -9.891082e-05 3.6227487e-19)
(0.29059935 -9.1868392e-05 4.5259896e-19)
(0.28488126 -7.0382573e-05 2.6238701e-19)
(0.27767954 -4.4890627e-05 1.5697561e-19)
(0.26919163 -2.2395788e-05 4.7201967e-19)
(0.25937815 -5.7363651e-06 1.2070671e-19)
(0.24785972 4.390529e-06 -5.6972666e-20)
(0.2336621 8.301632e-06 2.0905382e-19)
(0.21430404 7.3667218e-06 1.8034613e-19)
(0.18054443 3.5354743e-06 6.9756092e-20)
(0.29928359 -2.3462151e-05 -1.9021065e-18)
(0.29879547 -5.6937585e-05 -5.0917394e-19)
(0.29748763 -8.0561605e-05 9.2216046e-20)
(0.29489309 -8.9732398e-05 7.8899884e-19)
(0.29062422 -7.9932297e-05 3.1801354e-20)
(0.28472341 -5.8420053e-05 6.0559601e-19)
(0.27745536 -3.4827478e-05 9.8879968e-19)
(0.26897782 -1.4770354e-05 1.0748642e-18)
(0.25921519 -3.9174702e-07 2.9363728e-19)
(0.24776702 7.7920936e-06 -2.9431687e-19)
(0.23364198 1.0181146e-05 -2.8296037e-19)
(0.21434474 8.2147973e-06 -6.2909343e-20)
(0.18062225 3.7450163e-06 4.4290575e-20)
(0.30009637 -2.2329728e-05 1.7784558e-19)
(0.29952479 -5.3875489e-05 1.4386774e-18)
(0.29801875 -7.4505235e-05 2.7324298e-21)
(0.29513749 -7.9999918e-05 4.337903e-19)
(0.29060658 -6.8080539e-05 8.3886203e-20)
(0.28455591 -4.7062435e-05 3.3776429e-19)
(0.27724164 -2.545918e-05 6.1106364e-19)
(0.2687829 -7.7156226e-06 4.6645656e-20)
(0.25907248 4.5154401e-06 2.5970109e-19)
(0.24769347 1.0881433e-05 -2.491206e-20)
(0.23363709 1.1884912e-05 -3.3752179e-19)
(0.21439637 8.9837855e-06 -5.041115e-20)
(0.1807069 3.9343746e-06 -5.1232334e-20)
(0.30086402 -2.1007834e-05 4.0681606e-19)
(0.30019808 -5.0335129e-05 2.8334079e-18)
(0.29847858 -6.776748e-05 2.1850467e-18)
(0.29531607 -6.9843591e-05 -6.4034904e-19)
(0.29055391 -5.6454389e-05 3.3818068e-19)
(0.28438287 -3.6331988e-05 2.1547786e-19)
(0.27703906 -1.6748226e-05 -3.4965665e-19)
(0.2686053 -1.1874867e-06 -5.7405442e-19)
(0.25894976 9.0213796e-06 5.7906044e-21)
(0.24763751 1.3689841e-05 4.3337298e-19)
(0.23364609 1.3431135e-05 2.5358426e-19)
(0.21445793 9.6807241e-06 -5.4446712e-20)
(0.18079772 4.105047e-06 -5.0282653e-20)
(0.30157943 -1.9467189e-05 2.3139109e-18)
(0.30080863 -4.6264331e-05 1.4693783e-18)
(0.29886499 -6.0378813e-05 1.5305281e-18)
(0.29543444 -5.9413935e-05 -1.0100839e-19)
(0.29047286 -4.516935e-05 2.3443586e-19)
(0.28420752 -2.6229137e-05 1.3832906e-19)
(0.27684812 -8.6362545e-06 -1.0317822e-20)
(0.26844451 4.8386628e-06 -2.1643079e-19)
(0.25884557 1.3135789e-05 -2.9339003e-19)
(0.2475977 1.6244123e-05 6.6861322e-20)
(0.23366777 1.4835386e-05 2.8021473e-19)
(0.21452853 1.0312014e-05 7.4750621e-20)
(0.18089414 4.2585501e-06 -7.9395028e-20)
(0.30223466 -1.7681569e-05 4.1633199e-18)
(0.3013499 -4.1630425e-05 -2.4518622e-20)
(0.29917751 -5.2409534e-05 -9.1003971e-19)
(0.29549883 -4.8869422e-05 3.3914833e-19)
(0.29036918 -3.431366e-05 3.3549064e-19)
(0.28403214 -1.6747527e-05 1.4103296e-19)
(0.27666826 -1.0891233e-06 6.909817e-19)
(0.26830088 1.0390964e-05 1.2266422e-20)
(0.25875851 1.6888475e-05 2.3673123e-21)
(0.24757272 1.856818e-05 -3.7441615e-19)
(0.23370102 1.6110021e-05 -1.37718e-19)
(0.21460732 1.0882765e-05 -1.3483457e-19)
(0.18099561 4.3960767e-06 -1.1238595e-19)
(0.30282117 -1.5633393e-05 1.3851063e-18)
(0.30181594 -3.6431493e-05 8.7322075e-19)
(0.29941741 -4.396857e-05 -2.796465e-19)
(0.29551566 -3.8365494e-05 5.6005133e-19)
(0.2902477 -2.3945265e-05 9.0740796e-19)
(0.28385859 -7.847777e-06 4.4359216e-19)
(0.27649982 5.9140667e-06 5.3863933e-19)
(0.26817343 1.5479756e-05 -1.0947169e-19)
(0.25868728 2.0310785e-05 6.2435405e-20)
(0.24756135 2.0682583e-05 -1.2897239e-20)
(0.23374485 1.7265655e-05 -1.6023433e-19)
(0.21469358 1.1397551e-05 -1.740158e-19)
(0.18110164 4.518738e-06 -9.5504147e-20)
(0.30333026 -1.3320795e-05 6.0943151e-19)
(0.30220188 -3.0705604e-05 2.2851102e-18)
(0.29958744 -3.5196406e-05 1.0817378e-18)
(0.29549103 -2.80437e-05 1.188733e-18)
(0.29011218 -1.4099914e-05 7.0229287e-19)
(0.28368732 4.850857e-07 4.554323e-19)
(0.276344 1.2388804e-05 -3.6735837e-19)
(0.26806118 2.0135029e-05 -1.2274744e-19)
(0.2586307 2.3431252e-05 2.8601378e-20)
(0.24756246 2.2604467e-05 3.7065546e-19)
(0.23379832 1.8311378e-05 5.2545021e-20)
(0.21478659 1.1860388e-05 8.3407528e-20)
(0.18121177 4.6274987e-06 -3.5298027e-20)
(0.30375374 -1.0764914e-05 1.1574954e-19)
(0.30250438 -2.4536383e-05 2.6436059e-18)
(0.29969147 -2.6255646e-05 2.3090715e-18)
(0.29543051 -1.8024275e-05 -6.5344034e-20)
(0.28996561 -4.7859118e-06 3.7140742e-19)
(0.28352015 8.2430049e-06 4.8513863e-19)
(0.27620025 1.8335757e-05 -1.8399217e-19)
(0.26796311 2.4389334e-05 -7.5646609e-20)
(0.25858763 2.6274519e-05 1.1195963e-19)
(0.24757502 2.4348774e-05 2.7684057e-19)
(0.2338606 1.9255402e-05 1.6723328e-19)
(0.21488574 1.2274974e-05 -8.0938753e-20)
(0.18132555 4.7232734e-06 -6.899348e-20)
(0.30408466 -8.0145878e-06 -1.1966594e-18)
(0.30272186 -1.8051828e-05 1.4785363e-18)
(0.29973407 -1.7315948e-05 1.449118e-18)
(0.29533886 -8.3896728e-06 -2.293872e-19)
(0.28980995 3.9788521e-06 5.0990347e-19)
(0.28335875 1.5424374e-05 1.2159238e-19)
(0.27606809 2.3784597e-05 1.6977372e-19)
(0.26787825 2.8272135e-05 2.1387081e-19)
(0.25855702 2.8860013e-05 4.14732e-20)
(0.24759808 2.592746e-05 2.3839023e-19)
(0.23393092 2.0104263e-05 2.1783309e-19)
(0.21499042 1.2644106e-05 9.227731e-20)
(0.1814426 4.8066479e-06 -5.0919661e-20)
(0.30431819 -5.1449557e-06 -7.9308462e-19)
(0.30285461 -1.1412674e-05 -7.6515379e-19)
(0.29971994 -8.5332225e-06 -1.0252092e-18)
(0.29521955 7.8200076e-07 9.2987857e-19)
(0.28964857 1.2142982e-05 2.2375754e-19)
(0.28320331 2.2022506e-05 1.3845216e-19)
(0.27594691 2.8764996e-05 7.5114337e-19)
(0.26780566 3.1808559e-05 5.3743079e-19)
(0.25853789 3.120503e-05 3.015685e-19)
(0.24763076 2.7351567e-05 -1.9905993e-19)
(0.23400854 2.0864062e-05 -5.9966353e-20)
(0.2151001 1.2970437e-05 3.5346239e-20)
(0.18156252 4.8782189e-06 1.8496431e-20)
(0.30445222 -2.2472389e-06 2.2221692e-18)
(0.30290466 -4.7892607e-06 -3.3856752e-19)
(0.29965341 -5.7487089e-08 -8.0102892e-19)
(0.29507686 9.3868144e-06 8.9508758e-19)
(0.28948321 1.9670482e-05 1.8836655e-19)
(0.28305386 2.8057721e-05 4.3038533e-19)
(0.27583605 3.3302589e-05 7.5167715e-19)
(0.26774441 3.5018095e-05 3.3467656e-19)
(0.25852929 3.332333e-05 2.3416473e-19)
(0.24767222 2.8629806e-05 8.5490903e-20)
(0.23409279 2.1539395e-05 -9.8906473e-20)
(0.21521426 1.3255813e-05 -2.2905748e-20)
(0.18168495 4.9383139e-06 1.7881671e-20)
(0.30448759 5.8143518e-07 2.9920106e-18)
(0.30287533 1.6331936e-06 2.5037888e-18)
(0.29953939 7.9403737e-06 3.7585347e-19)
(0.29491435 1.7334228e-05 1.0120582e-18)
(0.28931491 2.6550367e-05 8.1816613e-19)
(0.28291026 3.3548697e-05 6.8350051e-19)
(0.2757348 3.7416498e-05 1.9613927e-21)
(0.26769361 3.7916245e-05 1.4391998e-20)
(0.25853035 3.5226079e-05 -5.4597113e-20)
(0.24772169 2.9769044e-05 2.1813646e-19)
(0.23418305 2.2133706e-05 2.1180715e-19)
(0.2153324 1.3501506e-05 2.3243301e-19)
(0.18180954 4.9870795e-06 5.5244362e-20)
(0.30442825 3.2381558e-06 1.608097e-18)
(0.30277199 7.6570122e-06 3.7836502e-18)
(0.29938292 1.5304035e-05 3.7805551e-18)
(0.29473444 2.4565409e-05 3.9395373e-19)
(0.28914434 3.2781742e-05 7.4033669e-19)
(0.28277222 3.8508176e-05 5.0548513e-19)
(0.27564244 4.1120505e-05 3.6572108e-20)
(0.26765239 4.0514645e-05 2.9333382e-20)
(0.25854021 3.6921417e-05 5.5073596e-20)
(0.24777843 3.0773956e-05 -6.5173206e-20)
(0.23427872 2.2649059e-05 2.5951738e-19)
(0.21545406 1.3708067e-05 -1.0003649e-19)
(0.18193594 5.0244328e-06 2.744003e-20)
(0.30428148 5.635618e-06 8.444669e-20)
(0.30260141 1.3122439e-05 3.4344825e-18)
(0.29918843 2.1930497e-05 4.379096e-18)
(0.29453912 3.1047615e-05 1.2119963e-18)
(0.28897192 3.8362798e-05 4.4137633e-19)
(0.28263933 4.2943674e-05 3.5680026e-20)
(0.2755582 4.4423977e-05 3.2178426e-20)
(0.2676199 4.282113e-05 1.815894e-19)
(0.25855808 3.8414402e-05 1.414916e-19)
(0.24784174 3.1647e-05 1.0220002e-19)
(0.23437921 2.3086105e-05 7.3626672e-20)
(0.21557877 1.3875292e-05 -6.6561976e-20)
(0.18206381 5.0500327e-06 8.6771408e-21)
(0.30405678 7.7205774e-06 -1.2101786e-18)
(0.30237113 1.7926788e-05 2.180859e-18)
(0.29896016 2.7756926e-05 1.5592014e-18)
(0.29433004 3.6759657e-05 6.8349703e-19)
(0.28879784 4.3291165e-05 6.5592467e-19)
(0.2825111 4.6859798e-05 3.7561304e-19)
(0.2754813 4.7332808e-05 1.9294192e-20)
(0.26759529 4.4840162e-05 2.060924e-19)
(0.25858316 3.9707322e-05 2.3906306e-19)
(0.24791094 3.2388623e-05 2.734999e-19)
(0.23448396 2.3444212e-05 -4.0610628e-21)
(0.21570609 1.4002288e-05 -1.1378268e-22)
(0.18219278 5.0633187e-06 5.8372196e-21)
(0.30376497 9.4677263e-06 1.8177972e-18)
(0.30208913 2.2015565e-05 1.1671247e-18)
(0.29870222 3.2752053e-05 7.6772997e-20)
(0.29410866 4.1691615e-05 1.115988e-19)
(0.2886222 4.7566509e-05 1.996167e-19)
(0.28238699 5.0259703e-05 2.710613e-19)