/*--------------------------------*- C++ -*----------------------------------*\
| =========                 |                                                 |
| \\      /  F ield         | OpenFOAM: The Open Source CFD Toolbox           |
|  \\    /   O peration     | Version:  2506                                  |
|   \\  /    A nd           | Website:  www.openfoam.com                      |
|    \\/     M anipulation  |                                                 |
\*---------------------------------------------------------------------------*/
FoamFile
{
    version     2.0;
    format      ascii;
    arch        "LSB;label=32;scalar=64";
    class       volScalarField;
    location    "25000/water";
    object      alphat;
}
// * * * * * * * * * * * * * * * * * * * * * * * * * * * * * * * * * * * * * //

dimensions      [1 -1 -1 0 0 0 0];

internalField   nonuniform List<scalar> 
1000
(
0.038690245
0.038689577
0.038688046
0.038679676
0.038634252
0.038395956
0.037190881
0.031863289
0.019099264
0.016301307
0.036437656
0.036436968
0.036430539
0.036397696
0.036243742
0.035561448
0.032798673
0.02447636
0.014644256
0.017654592
0.034756095
0.034752687
0.034735392
0.034658264
0.034338316
0.033096046
0.028914342
0.020078564
0.014287425
0.017671293
0.033455038
0.033447371
0.03341324
0.03327659
0.032760731
0.030940111
0.025769931
0.018272062
0.015952051
0.01730153
0.032418332
0.032405139
0.032350677
0.032150525
0.031437429
0.029070363
0.023556079
0.018635774
0.018861503
0.016925713
0.031571667
0.031552637
0.031479596
0.031226162
0.03032812
0.027485276
0.022555125
0.020803722
0.022278897
0.016666256
0.030866455
0.030843488
0.030761494
0.03047794
0.029402097
0.026292323
0.023062086
0.024244086
0.025541447
0.016525218
0.030270851
0.030249444
0.030178147
0.029894462
0.028644293
0.025787501
0.025138586
0.028280553
0.028304975
0.016463216
0.029764732
0.029755534
0.029725649
0.029468579
0.028107006
0.026357073
0.028508283
0.032334405
0.030519127
0.016442689
0.029337061
0.029357522
0.029409739
0.02919665
0.027980897
0.028237232
0.032681178
0.036080604
0.032267547
0.016440706
0.028984748
0.029060628
0.029241305
0.029099506
0.028583416
0.031375053
0.037164797
0.039413723
0.033659229
0.016446405
0.028712541
0.028878689
0.029233113
0.029270304
0.030215268
0.035478672
0.041608871
0.042341699
0.034787813
0.016455612
0.028533634
0.028833068
0.029403332
0.029912863
0.033002721
0.04016151
0.045828179
0.044910583
0.035723388
0.016467073
0.02847073
0.028950943
0.029795564
0.031303647
0.036852093
0.045075517
0.04975158
0.047172268
0.03651534
0.016480524
0.028557132
0.029264039
0.030515962
0.033675672
0.041511964
0.049977125
0.053365759
0.04917399
0.037197771
0.01649591
0.028837311
0.029812352
0.031757373
0.037113896
0.046676268
0.054726084
0.056681789
0.0509555
0.037793721
0.016513134
0.029366704
0.030660618
0.033764351
0.041530885
0.052070906
0.059252819
0.059719553
0.052547791
0.038312931
0.016531935
0.0302124
0.031928118
0.036741489
0.046714175
0.057494987
0.063527073
0.062500586
0.053971461
0.038771705
0.016552021
0.031460539
0.033808
0.04076868
0.05240272
0.062820062
0.067538552
0.065043673
0.055249833
0.039180731
0.016573199
0.033237383
0.036537508
0.045774958
0.058353224
0.067969546
0.071286799
0.067367418
0.056402366
0.039547808
0.016595304
0.035735434
0.040316568
0.051570759
0.064374551
0.072897409
0.074772583
0.069492228
0.057443817
0.039878885
0.016618161
0.039206697
0.045225344
0.057909458
0.07033037
0.077571479
0.078005716
0.071434879
0.058386004
0.04017825
0.016641576
0.043889264
0.051190803
0.064545589
0.076123601
0.081973466
0.080997035
0.073208911
0.059238162
0.040448975
0.016665348
0.049893592
0.058010079
0.071267877
0.081682768
0.086094449
0.083754953
0.074824883
0.060007217
0.040693184
0.016689275
0.05712165
0.065405027
0.077905912
0.086957459
0.089927711
0.08628499
0.076290224
0.060697955
0.040912175
0.016713149
0.065269303
0.073077373
0.084332992
0.091910112
0.09346492
0.088589241
0.077609229
0.061313166
0.041106504
0.016736751
0.073907751
0.080754935
0.090454482
0.096507549
0.096695812
0.090666503
0.078783312
0.061853861
0.04127607
0.016759841
0.082593647
0.088207983
0.096194059
0.10072085
0.099609196
0.09251318
0.079811683
0.062319677
0.041420284
0.016782158
0.090954503
0.09525475
0.10149074
0.10452662
0.10219494
0.09412491
0.080692436
0.062709502
0.041538314
0.016803421
0.098726601
0.10176222
0.10629901
0.10790887
0.10444635
0.095498565
0.081423931
0.063022268
0.041629409
0.016823344
0.10575374
0.10764411
0.11058976
0.11086062
0.10636229
0.096634166
0.082006192
0.063257762
0.041693226
0.016841654
0.11196613
0.11285604
0.1143507
0.11338473
0.10794842
0.097536263
0.082442024
0.063417323
0.041730109
0.016858116
0.11735487
0.11738843
0.11758545
0.11549368
0.10921754
0.098214556
0.082737635
0.063504262
0.041741258
0.016872553
0.12195012
0.12125847
0.12031158
0.11720848
0.11018894
0.098683736
0.082902718
0.063523952
0.041728755
0.016884862
0.12580494
0.12450215
0.12255775
0.11855703
0.11088718
0.098962716
0.082950028
0.063483624
0.041695463
0.016895018
0.12898434
0.1271676
0.12436069
0.11957217
0.1113406
0.099073483
0.082894629
0.063391917
0.04164482
0.016903073
0.13155822
0.12930964
0.12576224
0.12028976
0.11157967
0.099039807
0.082752954
0.063258302
0.041580582
0.016909148
0.13359695
0.13098578
0.12680675
0.1207469
0.11163553
0.098885985
0.082541859
0.06309248
0.041506557
0.016913411
0.13516855
0.13225332
0.12753899
0.12098046
0.11153872
0.098635768
0.082277779
0.062903842
0.041426371
0.016916068
0.13633707
0.13316741
0.12800257
0.12102593
0.11131828
0.098311523
0.081976063
0.062701036
0.041343282
0.016917341
0.13716166
0.13377981
0.1282388
0.1209166
0.11100103
0.097933667
0.08165053
0.062491695
0.041260077
0.016917453
0.13769617
0.13413816
0.128286
0.1206831
0.11061125
0.097520351
0.081313218
0.062282287
0.041179024
0.016916623
0.13798907
0.13428576
0.12817917
0.12035309
0.11017048
0.097087336
0.080974308
0.06207809
0.041101882
0.016915052
0.13808358
0.13426141
0.1279498
0.11995124
0.10969751
0.096647994
0.080642145
0.061883236
0.041029931
0.016912923
0.13801794
0.13409963
0.1276259
0.11949916
0.10920839
0.096213344
0.080323236
0.061700523
0.040962948
0.016910386
0.13782571
0.13383075
0.12723203
0.11901555
0.10871654
0.095792136
0.080022247
0.061531063
0.040902095
0.016907567
0.13753606
0.13348118
0.12678946
0.11851618
0.10823282
0.095390863
0.079741758
0.061376963
0.040847859
0.016904594
0.13717409
0.1330736
0.12631628
0.1180141
0.10776558
0.095013665
0.079484874
0.061239016
0.040800401
0.016901571
0.13676117
0.13262726
0.12582758
0.11751965
0.10732068
0.094664755
0.079252987
0.061117399
0.040759618
0.016898581
0.13631522
0.13215818
0.12533551
0.11704065
0.10690371
0.094346448
0.079046564
0.061011827
0.040725217
0.016895687
0.135851
0.13167938
0.12485002
0.11658437
0.10651829
0.094059894
0.07886539
0.060921668
0.040696781
0.016892936
0.1353807
0.13120195
0.12437981
0.11615602
0.1061667
0.093805361
0.078708737
0.060846053
0.040673827
0.016890362
0.13491468
0.13073515
0.12393162
0.11575934
0.10585012
0.093582413
0.078575489
0.060783953
0.040655842
0.016887986
0.13446141
0.13028643
0.12351059
0.11539679
0.10556885
0.093390038
0.078464239
0.060734238
0.0406423
0.016885824
0.13402766
0.12986156
0.12312037
0.11506967
0.10532237
0.093226758
0.078373349
0.060695705
0.040632672
0.016883883
0.13361862
0.12946481
0.12276339
0.11477837
0.10510954
0.093090719
0.078301024
0.060667118
0.040626438
0.016882163
0.13323807
0.12909913
0.12244092
0.11452239
0.10492867
0.0929798
0.078245374
0.060647237
0.040623093
0.016880659
0.13288855
0.12876631
0.1221533
0.11430063
0.10477771
0.092891718
0.078204492
0.060634861
0.040622163
0.016879362
0.13257149
0.12846715
0.12190011
0.11411143
0.10465433
0.092824127
0.078176511
0.060628854
0.040623212
0.016878261
0.13228745
0.12820164
0.1216803
0.11395281
0.10455609
0.092774692
0.078159645
0.060628165
0.040625851
0.016877341
0.13203623
0.12796913
0.12149235
0.11382252
0.10448047
0.09274115
0.078152225
0.060631838
0.040629732
0.016876589
0.13181706
0.12776844
0.12133443
0.11371816
0.10442499
0.092721337
0.078152703
0.060639011
0.040634553
0.016875989
0.13162869
0.12759801
0.12120443
0.11363728
0.10438719
0.092713215
0.078159662
0.060648914
0.040640049
0.016875526
0.13146952
0.12745599
0.12110008
0.11357738
0.10436472
0.09271488
0.078171813
0.060660865
0.040645991
0.016875186
0.13133769
0.12734027
0.121019
0.113536
0.10435534
0.092724573
0.078187993
0.060674262
0.040652185
0.016874953
0.13123109
0.12724862
0.12095877
0.11351072
0.10435694
0.092740675
0.078207163
0.060688581
0.040658463
0.016874814
0.13114749
0.12717869
0.12091694
0.11349919
0.10436751
0.092761711
0.078228394
0.060703366
0.040664685
0.016874755
0.13108454
0.12712807
0.1208911
0.1134992
0.10438523
0.092786352
0.078250871
0.060718223
0.040670729
0.016874762
0.13103987
0.12709436
0.1208789
0.11350865
0.10440842
0.092813419
0.07827389
0.060732823
0.040676499
0.016874824
0.13101111
0.1270752
0.12087814
0.11352564
0.1044356
0.092841898
0.078296864
0.060746901
0.04068192
0.016874929
0.13099599
0.12706838
0.12088675
0.11354843
0.10446548
0.092870941
0.078319323
0.060760258
0.04068694
0.016875067
0.13099239
0.12707183
0.1209029
0.11357554
0.10449697
0.092899866
0.078340909
0.060772748
0.04069149
0.016875228
0.13099836
0.12708367
0.12092494
0.11360567
0.10452918
0.09292813
0.078361348
0.060784239
0.040695552
0.016875405
0.13101212
0.12710223
0.12095142
0.11363772
0.10456136
0.092955296
0.078380411
0.060794682
0.040699158
0.016875591
0.13103207
0.127126
0.12098107
0.11367073
0.10459288
0.092980991
0.078397954
0.060804081
0.040702331
0.016875782
0.13105677
0.12715359
0.12101273
0.11370386
0.10462319
0.09300493
0.078413916
0.060812438
0.040705092
0.016875973
0.13108488
0.12718379
0.12104539
0.11373636
0.10465182
0.093026945
0.078428243
0.060819766
0.040707462
0.016876162
0.1311152
0.12721546
0.12107812
0.11376761
0.10467849
0.093046901
0.078440913
0.060826089
0.040709458
0.016876344
0.13114665
0.12724761
0.12111019
0.11379716
0.10470296
0.093064725
0.078451943
0.060831446
0.0407111
0.016876517
0.13117831
0.12727946
0.12114102
0.11382469
0.1047251
0.093080418
0.078461389
0.060835894
0.040712415
0.016876677
0.13120946
0.12731037
0.12117019
0.11384999
0.10474486
0.093094043
0.078469346
0.060839506
0.040713434
0.016876825
0.13123955
0.12733989
0.12119742
0.11387296
0.10476231
0.093105715
0.078475937
0.06084237
0.040714193
0.016876959
0.1312682
0.12736771
0.12122254
0.11389359
0.10477753
0.093115578
0.078481296
0.060844578
0.040714731
0.01687708
0.13129513
0.12739361
0.12124547
0.11391193
0.10479065
0.093123788
0.07848556
0.060846218
0.040715085
0.016877187
0.13132017
0.12741746
0.12126616
0.11392803
0.1048018
0.09313049
0.078488849
0.060847365
0.040715284
0.016877282
0.13134317
0.12743917
0.12128462
0.11394199
0.10481112
0.093135819
0.078491271
0.060848085
0.040715353
0.016877365
0.13136404
0.12745869
0.12130086
0.11395389
0.10481872
0.093139896
0.078492919
0.060848432
0.04071531
0.016877436
0.13138272
0.12747598
0.12131492
0.11396382
0.10482473
0.093142841
0.078493882
0.060848455
0.040715171
0.016877496
0.13139919
0.12749106
0.12132688
0.11397192
0.1048293
0.093144782
0.078494253
0.060848204
0.040714952
0.016877545
0.13141347
0.127504
0.12133685
0.11397832
0.10483258
0.093145854
0.078494127
0.060847731
0.040714669
0.016877584
0.13142564
0.12751489
0.12134497
0.11398322
0.10483474
0.093146202
0.078493604
0.060847091
0.040714342
0.016877613
0.13143584
0.12752389
0.12135144
0.1139868
0.10483596
0.093145968
0.078492782
0.060846335
0.04071399
0.016877635
0.13144421
0.12753117
0.12135643
0.11398924
0.10483642
0.093145282
0.078491745
0.060845511
0.040713629
0.01687765
0.13145094
0.12753691
0.12136012
0.11399073
0.10483625
0.09314425
0.078490562
0.060844653
0.040713271
0.016877659
0.13145618
0.12754127
0.12136269
0.1139914
0.10483557
0.093142955
0.078489284
0.060843785
0.040712924
0.016877664
0.13146007
0.12754439
0.12136425
0.11399137
0.10483447
0.093141458
0.078487943
0.06084292
0.040712591
0.016877665
0.13146275
0.12754641
0.12136494
0.11399073
0.10483302
0.093139807
0.078486565
0.060842068
0.040712272
0.016877663
0.13146432
0.12754742
0.12136485
0.11398959
0.10483129
0.093138041
0.078485169
0.060841234
0.040711967
0.016877657
0.13146491
0.12754756
0.1213641
0.11398802
0.10482935
0.093136205
0.078483778
0.060840425
0.040711673
0.016877649
0.13146465
0.12754694
0.12136279
0.11398613
0.10482727
0.093134344
0.078482417
0.060839651
0.040711395
0.016877639
)
;

boundaryField
{
    water_inlet
    {
        type            calculated;
        value           uniform 0.041850807;
    }
    water_outlet
    {
        type            calculated;
        value           nonuniform List<scalar> 10(0.13146465 0.12754694 0.12136279 0.11398613 0.10482727 0.093134344 0.078482417 0.060839651 0.040711395 0.016877639);
    }
    water_wedge1
    {
        type            wedge;
    }
    water_wedge2
    {
        type            wedge;
    }
    water_to_rock
    {
        type            compressible::alphatWallFunction;
        value           nonuniform List<scalar> 
100
(
0.0020384971
0.0022594581
0.0022621707
0.0022020356
0.002140741
0.0020983183
0.0020752204
0.0020650581
0.0020616931
0.0020613682
0.0020623024
0.0020638119
0.0020656909
0.002067896
0.0020704177
0.0020732402
0.0020763209
0.0020796121
0.0020830817
0.0020867023
0.002090445
0.0020942781
0.0020981691
0.002102085
0.0021059917
0.002109853
0.0021136299
0.0021172796
0.0021207562
0.0021240131
0.002127006
0.0021296965
0.0021320557
0.0021340668
0.0021357261
0.0021370423
0.0021380348
0.0021387316
0.0021391658
0.0021393737
0.0021393918
0.0021392558
0.0021389988
0.0021386511
0.0021382367
0.0021377768
0.0021372914
0.0021367977
0.002136309
0.0021358359
0.002135386
0.0021349651
0.002134577
0.002134224
0.0021339071
0.0021336262
0.0021333805
0.0021331685
0.0021329884
0.0021328379
0.0021327149
0.0021326168
0.0021325413
0.0021324859
0.002132448
0.0021324255
0.0021324158
0.002132417
0.0021324269
0.0021324439
0.0021324662
0.0021324926
0.0021325216
0.0021325522
0.0021325836
0.0021326151
0.0021326459
0.0021326755
0.0021327035
0.0021327296
0.0021327537
0.0021327757
0.0021327956
0.0021328134
0.0021328291
0.0021328427
0.0021328542
0.0021328639
0.0021328717
0.002132878
0.0021328828
0.0021328863
0.0021328888
0.0021328903
0.0021328911
0.0021328911
0.0021328905
0.0021328894
0.0021328879
0.0021328861
)
;
    }
}


// ************************************************************************* //
