/*--------------------------------*- C++ -*----------------------------------*\
| =========                 |                                                 |
| \\      /  F ield         | OpenFOAM: The Open Source CFD Toolbox           |
|  \\    /   O peration     | Version:  2506                                  |
|   \\  /    A nd           | Website:  www.openfoam.com                      |
|    \\/     M anipulation  |                                                 |
\*---------------------------------------------------------------------------*/
FoamFile
{
    version     2.0;
    format      ascii;
    arch        "LSB;label=32;scalar=64";
    class       volScalarField;
    location    "25000/water";
    object      epsilon;
}
// * * * * * * * * * * * * * * * * * * * * * * * * * * * * * * * * * * * * * //

dimensions      [0 2 -3 0 0 0 0];

internalField   nonuniform List<scalar> 
1000
(
7.2399316e-05
7.2397808e-05
7.2397502e-05
7.2398682e-05
7.2424146e-05
7.2686938e-05
7.4736184e-05
8.8973294e-05
0.00019794853
0.0013048048
4.7739543e-05
4.7745807e-05
4.7746167e-05
4.7748745e-05
4.7810065e-05
4.8371229e-05
5.2145896e-05
7.531932e-05
0.00023607338
0.0016574915
3.3261229e-05
3.326441e-05
3.3263962e-05
3.3272039e-05
3.3396639e-05
3.4348942e-05
3.9973147e-05
7.1502105e-05
0.0002654998
0.0016622
2.4212884e-05
2.4213778e-05
2.421353e-05
2.4236018e-05
2.4468828e-05
2.5979965e-05
3.4086703e-05
7.6375311e-05
0.00030233616
0.0015600258
1.8263229e-05
1.8263302e-05
1.8265922e-05
1.8318446e-05
1.8730724e-05
2.1090733e-05
3.2935683e-05
9.0423643e-05
0.00035053684
0.0014605599
1.4183053e-05
1.4183388e-05
1.4193787e-05
1.4301413e-05
1.5003318e-05
1.867816e-05
3.616802e-05
0.00011337727
0.00040230482
0.0013944168
1.1285033e-05
1.1287109e-05
1.1313191e-05
1.1514087e-05
1.2672044e-05
1.8360599e-05
4.385395e-05
0.00014255019
0.00044702227
0.0013593137
9.1651308e-06
9.1712237e-06
9.2251469e-06
9.5765153e-06
1.1437655e-05
2.0107124e-05
5.5827996e-05
0.00017322839
0.00047957507
0.0013440706
7.5754962e-06
7.5890768e-06
7.689245e-06
8.2761018e-06
1.11982e-05
2.4041172e-05
7.1186965e-05
0.0002009906
0.00050080761
0.0013390504
6.3585386e-06
6.3848727e-06
6.5589457e-06
7.5064216e-06
1.1984516e-05
3.0236089e-05
8.8277452e-05
0.00022355937
0.00051393055
0.0013385665
5.4111025e-06
5.4581716e-06
5.7474942e-06
7.236929e-06
1.3906659e-05
3.8515397e-05
0.00010524313
0.00024078299
0.00052197879
0.0013399584
4.6642398e-06
4.7441304e-06
5.2100535e-06
7.4969431e-06
1.7086972e-05
4.8355488e-05
0.00012068232
0.0002535953
0.00052708031
0.0013422099
4.071468e-06
4.2024407e-06
4.9349829e-06
8.3622622e-06
2.1575426e-05
5.8975452e-05
0.00013393061
0.00026313416
0.00053055277
0.0013450166
3.6019039e-06
3.8114144e-06
4.9402493e-06
9.9351193e-06
2.7272197e-05
6.9567079e-05
0.00014492637
0.00027035449
0.00053316303
0.0013483154
3.2363937e-06
3.565363e-06
5.2715616e-06
1.2311462e-05
3.3901676e-05
7.9510705e-05
0.00015392453
0.00027595637
0.00053534091
0.0013520948
2.965665e-06
3.4742278e-06
5.9984219e-06
1.5537502e-05
4.1062694e-05
8.846095e-05
0.00016127355
0.00028042526
0.0005373164
0.0013563338
2.7900142e-06
3.5645588e-06
7.2040804e-06
1.9569954e-05
4.8329996e-05
9.6306947e-05
0.00016730366
0.00028408894
0.00053917724
0.0013609717
2.7202668e-06
3.8804227e-06
8.966399e-06
2.4261404e-05
5.5349953e-05
0.00010308374
0.00017229224
0.00028715777
0.00054093675
0.0013659391
2.7797408e-06
4.4819721e-06
1.1330813e-05
2.9383036e-05
6.1887456e-05
0.00010889374
0.00017645202
0.00028975395
0.00054267271
0.0013711896
3.0065712e-06
5.4387115e-06
1.428363e-05
3.4675055e-05
6.7820875e-05
0.00011385667
0.00017993864
0.00029198056
0.00054443477
0.001376684
3.4547999e-06
6.8148807e-06
1.7738663e-05
3.989976e-05
7.3111894e-05
0.00011808678
0.000182854
0.00029394172
0.00054623682
0.0013823798
4.1911665e-06
8.6476378e-06
2.1546279e-05
4.4874751e-05
7.7769194e-05
0.00012165883
0.00018531793
0.00029569749
0.00054807394
0.0013882305
5.2836076e-06
1.0924895e-05
2.5521766e-05
4.9478046e-05
8.1803668e-05
0.00012466939
0.00018741278
0.0002972839
0.00054993249
0.0013941876
6.7799344e-06
1.3574438e-05
2.9480264e-05
5.3622546e-05
8.5253094e-05
0.00012719926
0.00018919512
0.0002987209
0.00055179374
0.0014002013
8.6832323e-06
1.6474062e-05
3.3249987e-05
5.7259505e-05
8.8167021e-05
0.00012930767
0.00019070223
0.00030001671
0.0005536351
0.0014062192
1.0937801e-05
1.9464213e-05
3.6694109e-05
6.0377161e-05
9.0586592e-05
0.00013103651
0.00019195674
0.00030117065
0.00055543049
0.0014121855
1.342324e-05
2.2384311e-05
3.972696e-05
6.2977859e-05
9.2544766e-05
0.00013241421
0.00019297023
0.00030217527
0.00055715085
0.0014180386
1.5988084e-05
2.5103494e-05
4.2303157e-05
6.507441e-05
9.4068675e-05
0.00013345987
0.00019374681
0.00030301862
0.00055876497
0.0014237107
1.8484512e-05
2.7531388e-05
4.4410711e-05
6.6689265e-05
9.5183177e-05
0.00013418763
0.00019428676
0.00030368694
0.00056024127
0.0014291289
2.0793642e-05
2.9617744e-05
4.6063556e-05
6.7854311e-05
9.5914487e-05
0.00013461098
0.00019459035
0.00030416778
0.00056155028
0.001434218
2.2836453e-05
3.1345706e-05
4.7294045e-05
6.8609972e-05
9.6292853e-05
0.00013474633
0.00019466131
0.00030445313
0.00056266775
0.0014389059
2.4572722e-05
3.2723023e-05
4.8145985e-05
6.9003238e-05
9.6353727e-05
0.00013461545
0.00019450949
0.00030454206
0.00056357738
0.0014431294
2.5993448e-05
3.3773716e-05
4.8668808e-05
6.9084998e-05
9.6137419e-05
0.00013424624
0.0001941521
0.00030444213
0.00056427288
0.0014468402
2.7111446e-05
3.4531258e-05
4.8913174e-05
6.8907216e-05
9.5687629e-05
0.00013367217
0.00019361359
0.00030416954
0.00056475844
0.0014500089
2.7952843e-05
3.5033485e-05
4.8927982e-05
6.852047e-05
9.504942e-05
0.00013293068
0.00019292428
0.00030374785
0.00056504794
0.0014526269
2.855052e-05
3.5319061e-05
4.8758546e-05
6.7972076e-05
9.4267133e-05
0.00013206102
0.0001921182
0.0003032058
0.00056516285
0.0014547059
2.8939563e-05
3.5425193e-05
4.8445632e-05
6.7304875e-05
9.3382595e-05
0.00013110205
0.00019123064
0.00030257475
0.0005651296
0.0014562752
2.9154374e-05
3.5386273e-05
4.8025089e-05
6.6556576e-05
9.2433781e-05
0.0001300904
0.00019029594
0.00030188613
0.00056497684
0.0014573777
2.9227002e-05
3.5233186e-05
4.7527846e-05
6.5759557e-05
9.1453987e-05
0.000129059
0.00018934558
0.00030116938
0.00056473306
0.0014580651
2.9186302e-05
3.499305e-05
4.6980141e-05
6.4940972e-05
9.0471445e-05
0.00012803622
0.000188407
0.00030045045
0.00056442487
0.0014583942
2.9057617e-05
3.4689241e-05
4.6403877e-05
6.4123066e-05
8.9509295e-05
0.00012704543
0.00018750286
0.00029975098
0.00056407586
0.0014584228
2.886279e-05
3.4341583e-05
4.5817035e-05
6.3323608e-05
8.858582e-05
0.00012610501
0.00018665085
0.00029908794
0.00056370597
0.0014582072
2.8620347e-05
3.3966637e-05
4.5234106e-05
6.2556374e-05
8.7714843e-05
0.00012522858
0.00018586382
0.00029847372
0.00056333135
0.0014578003
2.8345785e-05
3.3578027e-05
4.4666518e-05
6.1831656e-05
8.6906216e-05
0.00012442545
0.00018515019
0.00029791644
0.00056296423
0.0014572498
2.8051885e-05
3.3186779e-05
4.4123047e-05
6.1156738e-05
8.6166335e-05
0.00012370111
0.00018451441
0.00029742021
0.00056260897
0.0014565945
2.7749044e-05
3.2801651e-05
4.3610191e-05
6.0536372e-05
8.5498716e-05
0.00012305796
0.00018395785
0.00029698507
0.00056226357
0.0014558672
2.7445591e-05
3.2429445e-05
4.3132531e-05
5.9973225e-05
8.4904544e-05
0.00012249588
0.0001834787
0.00029660477
0.00056194068
0.0014551001
2.7148077e-05
3.2075304e-05
4.269305e-05
5.9468273e-05
8.4383117e-05
0.0001220124
0.00018307019
0.00029628058
0.00056164684
0.0014543199
2.686155e-05
3.1742971e-05
4.2293426e-05
5.9021152e-05
8.3932117e-05
0.00012160129
0.00018272951
0.0002960112
0.00056138488
0.0014535478
2.6589799e-05
3.143505e-05
4.1934345e-05
5.8630277e-05
8.3546435e-05
0.00012125852
0.00018245259
0.00029579348
0.00056115548
0.0014528004
2.6335592e-05
3.1153226e-05
4.1615291e-05
5.8292258e-05
8.3222207e-05
0.00012097928
0.00018223429
0.00029562315
0.00056095797
0.00145209
2.6100731e-05
3.0898058e-05
4.1334766e-05
5.8004124e-05
8.2955012e-05
0.00012075814
0.00018206887
0.0002954954
0.0005607908
0.0014514257
2.5886112e-05
3.0669439e-05
4.1091096e-05
5.7762537e-05
8.2740056e-05
0.0001205893
0.00018195031
0.00029540513
0.00056065181
0.0014508134
2.5692093e-05
3.0466848e-05
4.0882286e-05
5.7563894e-05
8.2572333e-05
0.00012046687
0.00018187256
0.00029534727
0.00056053851
0.0014502567
2.5518602e-05
3.028942e-05
4.0706092e-05
5.7404425e-05
8.244677e-05
0.00012038498
0.00018182976
0.0002953169
0.00056044824
0.0014497571
2.5365219e-05
3.013601e-05
4.0560085e-05
5.7280283e-05
8.2358343e-05
0.00012033797
0.00018181635
0.00029530944
0.00056037839
0.0014493144
2.5231251e-05
3.0005256e-05
4.0441719e-05
5.7187628e-05
8.2302178e-05
0.00012032048
0.00018182716
0.00029532069
0.00056032644
0.0014489272
2.5115782e-05
2.9895632e-05
4.0348387e-05
5.7122693e-05
8.2273627e-05
0.00012032751
0.0001818575
0.00029534689
0.00056029006
0.0014485931
2.5017733e-05
2.9805502e-05
4.0277478e-05
5.7081844e-05
8.226832e-05
0.00012035446
0.00018190314
0.00029538469
0.00056026711
0.0014483091
2.4935901e-05
2.9733162e-05
4.0226417e-05
5.7061618e-05
8.2282205e-05
0.00012039719
0.00018196033
0.00029543118
0.00056025561
0.001448072
2.4869e-05
2.9676878e-05
4.0192705e-05
5.7058761e-05
8.2311566e-05
0.00012045195
0.00018202579
0.00029548379
0.00056025373
0.0014478782
2.4815695e-05
2.9634919e-05
4.0173946e-05
5.7070251e-05
8.235304e-05
0.00012051546
0.00018209666
0.00029554035
0.0005602598
0.0014477237
2.4774633e-05
2.9605586e-05
4.0167873e-05
5.709331e-05
8.240362e-05
0.00012058484
0.00018217051
0.00029559897
0.00056027228
0.0014476049
2.4744465e-05
2.9587236e-05
4.0172368e-05
5.712542e-05
8.2460649e-05
0.00012065761
0.00018224529
0.0002956581
0.00056028978
0.0014475176
2.4723869e-05
2.9578297e-05
4.0185473e-05
5.7164324e-05
8.2521811e-05
0.00012073167
0.00018231928
0.00029571642
0.00056031103
0.0014474581
2.471157e-05
2.9577289e-05
4.0205401e-05
5.7208025e-05
8.2585118e-05
0.00012080528
0.00018239112
0.00029577288
0.0005603349
0.0014474227
2.4706354e-05
2.9582834e-05
4.0230544e-05
5.7254781e-05
8.2648893e-05
0.00012087699
0.00018245971
0.00029582664
0.0005603604
0.0014474075
2.4707077e-05
2.9593665e-05
4.0259467e-05
5.7303097e-05
8.271175e-05
0.0001209457
0.00018252423
0.0002958771
0.0005603867
0.0014474093
2.4712682e-05
2.9608631e-05
4.0290915e-05
5.7351711e-05
8.277257e-05
0.00012101053
0.00018258411
0.00029592383
0.00056041315
0.0014474249
2.4722196e-05
2.96267e-05
4.0323803e-05
5.739958e-05
8.2830478e-05
0.00012107086
0.00018263898
0.00029596659
0.00056043926
0.0014474514
2.473474e-05
2.964696e-05
4.0357207e-05
5.7445863e-05
8.2884816e-05
0.00012112628
0.00018268863
0.00029600525
0.00056046463
0.0014474866
2.474953e-05
2.9668613e-05
4.0390357e-05
5.7489897e-05
8.2935114e-05
0.00012117654
0.000182733
0.00029603978
0.00056048874
0.0014475281
2.476587e-05
2.9690975e-05
4.042262e-05
5.7531182e-05
8.2981064e-05
0.00012122154
0.00018277213
0.00029607016
0.00056051087
0.0014475738
2.4783156e-05
2.9713465e-05
4.0453494e-05
5.756936e-05
8.30225e-05
0.00012126129
0.00018280613
0.00029609626
0.0005605309
0.0014476222
2.4800868e-05
2.9735599e-05
4.0482592e-05
5.7604199e-05
8.3059375e-05
0.00012129591
0.00018283508
0.00029611818
0.00056054906
0.0014476718
2.481857e-05
2.9756988e-05
4.050963e-05
5.763558e-05
8.3091747e-05
0.00012132552
0.00018285916
0.00029613636
0.00056056542
0.0014477213
2.48359e-05
2.9777325e-05
4.0534423e-05
5.766348e-05
8.3119706e-05
0.00012135031
0.0001828788
0.00029615115
0.00056058
0.0014477699
2.4852571e-05
2.9796383e-05
4.0556872e-05
5.7687915e-05
8.3143393e-05
0.00012137065
0.00018289446
0.00029616291
0.00056059285
0.0014478164
2.4868364e-05
2.9814009e-05
4.0576908e-05
5.770896e-05
8.3163096e-05
0.00012138696
0.00018290655
0.00029617199
0.00056060408
0.0014478605
2.4883109e-05
2.9830077e-05
4.059453e-05
5.7726785e-05
8.3179132e-05
0.00012139964
0.00018291551
0.00029617873
0.00056061381
0.0014479016
2.489668e-05
2.9844525e-05
4.06098e-05
5.7741601e-05
8.3191842e-05
0.00012140911
0.00018292174
0.00029618344
0.00056062218
0.0014479395
2.4909e-05
2.9857337e-05
4.0622821e-05
5.7753644e-05
8.3201568e-05
0.00012141576
0.00018292562
0.00029618642
0.00056062927
0.0014479742
2.4920032e-05
2.9868538e-05
4.0633725e-05
5.7763167e-05
8.3208652e-05
0.00012141996
0.0001829275
0.00029618792
0.00056063519
0.0014480056
2.4929777e-05
2.9878181e-05
4.0642665e-05
5.7770425e-05
8.3213424e-05
0.00012142208
0.00018292769
0.00029618816
0.00056063997
0.0014480337
2.493826e-05
2.9886345e-05
4.0649809e-05
5.7775677e-05
8.3216202e-05
0.00012142244
0.00018292649
0.00029618733
0.00056064369
0.0014480585
2.4945529e-05
2.9893124e-05
4.065533e-05
5.7779173e-05
8.3217287e-05
0.00012142134
0.00018292416
0.00029618564
0.0005606464
0.00144808
2.4951651e-05
2.9898626e-05
4.0659407e-05
5.778116e-05
8.3216962e-05
0.00012141908
0.00018292096
0.00029618325
0.00056064823
0.0014480982
2.4956704e-05
2.9902967e-05
4.0662215e-05
5.778187e-05
8.3215491e-05
0.0001214159
0.0001829171
0.00029618036
0.0005606493
0.0014481133
2.4960775e-05
2.9906265e-05
4.0663928e-05
5.7781521e-05
8.3213116e-05
0.00012141206
0.0001829128
0.00029617712
0.00056064977
0.0014481256
2.4963958e-05
2.9908642e-05
4.0664708e-05
5.7780315e-05
8.3210052e-05
0.00012140775
0.00018290824
0.0002961737
0.00056064976
0.0014481353
2.4966348e-05
2.9910216e-05
4.066471e-05
5.7778434e-05
8.3206492e-05
0.00012140315
0.00018290357
0.0002961702
0.00056064939
0.0014481429
2.4968038e-05
2.9911099e-05
4.0664076e-05
5.7776039e-05
8.3202599e-05
0.00012139842
0.00018289889
0.00029616672
0.00056064873
0.0014481485
2.4969121e-05
2.9911399e-05
4.0662932e-05
5.7773272e-05
8.3198512e-05
0.00012139366
0.00018289432
0.0002961633
0.00056064783
0.0014481524
2.4969683e-05
2.9911213e-05
4.0661394e-05
5.7770257e-05
8.3194348e-05
0.00012138898
0.0001828899
0.00029616
0.00056064672
0.0014481549
2.4969806e-05
2.9910633e-05
4.0659564e-05
5.7767098e-05
8.3190204e-05
0.00012138446
0.0001828857
0.00029615685
0.00056064543
0.001448156
2.4969567e-05
2.9909742e-05
4.0657532e-05
5.7763885e-05
8.3186159e-05
0.00012138015
0.00018288176
0.00029615386
0.00056064398
0.001448156
2.4969036e-05
2.9908613e-05
4.0655375e-05
5.7760694e-05
8.318228e-05
0.00012137611
0.00018287811
0.00029615108
0.00056064245
0.001448155
2.4968277e-05
2.9907314e-05
4.0653161e-05
5.7757588e-05
8.3178616e-05
0.00012137237
0.00018287477
0.00029614852
0.0005606409
0.0014481531
2.4967348e-05
2.9905903e-05
4.0650949e-05
5.7754618e-05
8.3175208e-05
0.00012136897
0.00018287177
0.00029614623
0.00056063939
0.0014481506
2.4966305e-05
2.9904436e-05
4.0648793e-05
5.7751833e-05
8.3172092e-05
0.0001213659
0.0001828691
0.00029614416
0.00056063789
0.0014481477
)
;

boundaryField
{
    water_inlet
    {
        type            turbulentMixingLengthDissipationRateInlet;
        mixingLength    0.005;
        phi             phi;
        k               k;
        value           uniform 0.00011791765;
    }
    water_outlet
    {
        type            inletOutlet;
        inletValue      uniform 0.0001;
        value           nonuniform List<scalar> 10(2.4966305e-05 2.9904436e-05 4.0648793e-05 5.7751833e-05 8.3172092e-05 0.0001213659 0.0001828691 0.00029614416 0.00056063789 0.0014481477);
    }
    water_wedge1
    {
        type            wedge;
    }
    water_wedge2
    {
        type            wedge;
    }
    water_to_rock
    {
        type            epsilonWallFunction;
        blending        stepwise;
        value           nonuniform List<scalar> 
100
(
0.0013048048
0.0016574915
0.0016622
0.0015600258
0.0014605599
0.0013944168
0.0013593137
0.0013440706
0.0013390504
0.0013385665
0.0013399584
0.0013422099
0.0013450166
0.0013483154
0.0013520948
0.0013563338
0.0013609717
0.0013659391
0.0013711896
0.001376684
0.0013823798
0.0013882305
0.0013941876
0.0014002013
0.0014062192
0.0014121855
0.0014180386
0.0014237107
0.0014291289
0.001434218
0.0014389059
0.0014431294
0.0014468402
0.0014500089
0.0014526269
0.0014547059
0.0014562752
0.0014573777
0.0014580651
0.0014583942
0.0014584228
0.0014582072
0.0014578003
0.0014572498
0.0014565945
0.0014558672
0.0014551001
0.0014543199
0.0014535478
0.0014528004
0.00145209
0.0014514257
0.0014508134
0.0014502567
0.0014497571
0.0014493144
0.0014489272
0.0014485931
0.0014483091
0.001448072
0.0014478782
0.0014477237
0.0014476049
0.0014475176
0.0014474581
0.0014474227
0.0014474075
0.0014474093
0.0014474249
0.0014474514
0.0014474866
0.0014475281
0.0014475738
0.0014476222
0.0014476718
0.0014477213
0.0014477699
0.0014478164
0.0014478605
0.0014479016
0.0014479395
0.0014479742
0.0014480056
0.0014480337
0.0014480585
0.00144808
0.0014480982
0.0014481133
0.0014481256
0.0014481353
0.0014481429
0.0014481485
0.0014481524
0.0014481549
0.001448156
0.001448156
0.001448155
0.0014481531
0.0014481506
0.0014481477
)
;
    }
}


// ************************************************************************* //
