/*--------------------------------*- C++ -*----------------------------------*\
| =========                 |                                                 |
| \\      /  F ield         | OpenFOAM: The Open Source CFD Toolbox           |
|  \\    /   O peration     | Version:  2506                                  |
|   \\  /    A nd           | Website:  www.openfoam.com                      |
|    \\/     M anipulation  |                                                 |
\*---------------------------------------------------------------------------*/
FoamFile
{
    version     2.0;
    format      ascii;
    arch        "LSB;label=32;scalar=64";
    class       volScalarField;
    location    "25000/water";
    object      k;
}
// * * * * * * * * * * * * * * * * * * * * * * * * * * * * * * * * * * * * * //

dimensions      [0 2 -2 0 0 0 0];

internalField   nonuniform List<scalar> 
1000
(
0.00017657855
0.00017657518
0.00017657131
0.00017655365
0.00017648098
0.00017625478
0.00017589507
0.00017764177
0.00020514192
0.00048657967
0.00013915035
0.00013915817
0.00013914641
0.00013908743
0.00013888206
0.0001383736
0.00013797747
0.00014325064
0.00019616753
0.00057072179
0.00011343696
0.00011343683
0.00011340783
0.00011329561
0.00011298241
0.0001124902
0.00011342552
0.00012641415
0.00020548449
0.00057180212
9.4956344e-05
9.4947216e-05
9.4898274e-05
9.474799e-05
9.4461175e-05
9.4591077e-05
9.8882421e-05
0.00012463506
0.00023169853
0.0005481231
8.1180941e-05
8.1164581e-05
8.1102165e-05
8.0967049e-05
8.0960048e-05
8.2611599e-05
9.2929756e-05
0.00013695714
0.00027128447
0.00052456963
7.0599818e-05
7.0579371e-05
7.0523472e-05
7.050481e-05
7.1168264e-05
7.5593954e-05
9.5291671e-05
0.000162033
0.00031585985
0.00050861046
6.2267978e-05
6.2250533e-05
6.2239521e-05
6.2499639e-05
6.4399494e-05
7.3304032e-05
0.00010610201
0.00019613576
0.00035649816
0.00050003846
5.5571434e-05
5.5570245e-05
5.5667651e-05
5.6450668e-05
6.0388954e-05
7.5971302e-05
0.00012498745
0.00023351966
0.00038871352
0.00049629322
5.0098704e-05
5.0135842e-05
5.0440279e-05
5.2102969e-05
5.9190414e-05
8.3983965e-05
0.00015029888
0.00026896159
0.00041246915
0.00049505659
4.556768e-05
4.5677863e-05
4.6337496e-05
4.9391584e-05
6.1095755e-05
9.7486355e-05
0.00017920235
0.00029964242
0.00042964044
0.00049493729
4.1782806e-05
4.2019033e-05
4.3252141e-05
4.8416114e-05
6.6517885e-05
0.00011597901
0.00020865689
0.00032501739
0.00044223027
0.00049528037
3.8609681e-05
3.9051436e-05
4.1174524e-05
4.9422611e-05
7.5808123e-05
0.00013818997
0.0002364203
0.00034572015
0.00045177472
0.00049583503
3.5960359e-05
3.6725371e-05
4.0189358e-05
5.276681e-05
8.9027571e-05
0.0001623718
0.00026138231
0.00036268778
0.00045931494
0.00049652599
3.3785887e-05
3.504648e-05
4.0478108e-05
5.8837467e-05
0.00010576966
0.0001868281
0.00028330035
0.00037677331
0.00046551926
0.00049733751
3.2074355e-05
3.4079167e-05
4.2315857e-05
6.793333e-05
0.00012516047
0.0002103141
0.0003023815
0.00038864931
0.00047080779
0.00049826649
3.0853781e-05
3.3954491e-05
4.6047998e-05
8.0117765e-05
0.00014606351
0.00023213624
0.00031898724
0.00039881737
0.00047543904
0.00049930741
3.0199571e-05
3.4878942e-05
5.2034147e-05
9.5115316e-05
0.00016736934
0.0002520306
0.00033348857
0.00040763771
0.00047952188
0.00050044499
3.0246026e-05
3.7136087e-05
6.0556026e-05
0.00011231875
0.00018821038
0.000269988
0.00034621419
0.0004153482
0.00048317078
0.00050166192
3.1200043e-05
4.1069014e-05
7.1707374e-05
0.00013091675
0.00020802736
0.00028611939
0.00035742573
0.0004221338
0.00048649146
0.00050294662
3.3351788e-05
4.7031349e-05
8.5310648e-05
0.00015007591
0.00022652119
0.00030057563
0.00036733062
0.00042814964
0.00048955794
0.00050428925
3.7070713e-05
5.5302004e-05
0.00010090952
0.00016908778
0.00024356789
0.00031350307
0.00037608872
0.00043353306
0.00049241577
0.00050567925
4.2767863e-05
6.5979595e-05
0.00011785034
0.00018743144
0.00025913424
0.00032501619
0.0003838697
0.0004383774
0.00049509101
0.0005071051
5.0805928e-05
7.889956e-05
0.00013541245
0.00020475565
0.00027320774
0.00033526209
0.00039079728
0.00044274783
0.00049759776
0.00050855482
6.136279e-05
9.3623014e-05
0.00015292643
0.000220805
0.00028583316
0.00034436381
0.00039696109
0.00044668823
0.0004999415
0.00051001616
7.4303803e-05
0.00010951557
0.00016980517
0.00023542207
0.00029707754
0.00035241123
0.00040242254
0.00045022511
0.00050212062
0.00051147643
8.9143453e-05
0.00012582874
0.00018559527
0.00024853523
0.00030699142
0.000359465
0.00040721927
0.0004533704
0.00050412715
0.0005129221
0.0001050857
0.00014184903
0.00019999893
0.00026010252
0.00031560925
0.0003655617
0.00041136964
0.0004561239
0.00050594759
0.00051433838
0.00012123876
0.00015699687
0.00021282884
0.00027010634
0.00032295513
0.00037072094
0.00041487807
0.00045847664
0.00050756432
0.00051570904
0.00013679999
0.00017085486
0.00022398918
0.00027855527
0.00032905216
0.00037495444
0.00041774185
0.00046041525
0.000508958
0.00051701665
0.00015116538
0.00018316363
0.00023346044
0.0002854876
0.00033393251
0.00037827586
0.00041995876
0.00046192724
0.00051011068
0.00051824333
0.00016395783
0.00019380016
0.00024128518
0.00029097269
0.00033764539
0.00038070957
0.00042153448
0.00046300651
0.0005110092
0.00051937201
0.00017500076
0.00020274916
0.00024755369
0.00029510868
0.00034026116
0.00038229663
0.00042248829
0.00046365778
0.00051164826
0.00052038783
0.00018426908
0.00021007387
0.00025238998
0.00029801694
0.00034187111
0.00038309718
0.00042285606
0.00046389936
0.00051203225
0.00052127951
0.00019183923
0.00021588984
0.00025593908
0.00029983466
0.00034258383
0.0003831892
0.00042269028
0.00046376351
0.00051217578
0.00052204033
0.00019784807
0.00022034341
0.00025835627
0.00030070717
0.00034251955
0.00038266469
0.00042205755
0.0004632948
0.00051210263
0.0005226685
0.00020246291
0.00022359536
0.00025979866
0.00030078092
0.00034180381
0.00038162428
0.00042103423
0.00046254678
0.00051184358
0.00052316707
0.00020586141
0.00022580915
0.00026041885
0.00030019783
0.00034056144
0.00038017154
0.00041970144
0.00046157797
0.00051143362
0.00052354324
0.00020821888
0.00022714305
0.00026036058
0.00029909107
0.00033891168
0.0003784077
0.00041814012
0.00046044774
0.0005109091
0.0005238074
0.00020970072
0.00022774519
0.00025975596
0.00029758225
0.00033696448
0.00037642749
0.00041642695
0.00045921277
0.00051030522
0.00052397207
0.0002104585
0.00022775077
0.00025872385
0.00029577984
0.00033481813
0.00037431617
0.00041463123
0.00045792437
0.00050965408
0.0005240509
0.00021062811
0.00022728074
0.00025736934
0.00029377854
0.00033255811
0.00037214783
0.00041281305
0.00045662682
0.00050898354
0.00052405778
0.00021032943
0.00022644164
0.00025578383
0.00029165942
0.00033025677
0.00036998469
0.00041102243
0.00045535665
0.00050831662
0.00052400619
0.00020966684
0.00022532595
0.00025404561
0.00028949054
0.00032797379
0.00036787729
0.00040929931
0.00045414254
0.0005076715
0.00052390874
0.00020873017
0.00022401296
0.00025222075
0.00028732788
0.00032575701
0.00036586511
0.00040767406
0.00045300574
0.00050706164
0.00052377687
0.00020759589
0.00022256983
0.00025036413
0.00028521644
0.00032364341
0.0003639774
0.000406168
0.00045195961
0.00050648769
0.00052361978
0.00020632844
0.00022105267
0.00024852048
0.00028319136
0.00032166038
0.00036223444
0.0004047944
0.00045100824
0.00050595596
0.00052344543
0.00020498144
0.00021950769
0.00024672549
0.00028127911
0.00031982684
0.00036064846
0.00040355775
0.00045015464
0.0005054752
0.00052326149
0.00020359896
0.00021797229
0.00024500685
0.00027949855
0.00031815429
0.0003592237
0.00040245843
0.00044940268
0.00050504938
0.0005230744
0.00020221664
0.00021647619
0.00024338529
0.00027786193
0.00031664728
0.00035795894
0.00040149683
0.00044875207
0.00050467916
0.00052288929
0.00020086287
0.00021504239
0.00024187554
0.00027637535
0.00031530461
0.00035685261
0.00040066968
0.00044819941
0.00050436306
0.00052271007
0.00019955974
0.00021368811
0.00024048652
0.00027503981
0.0003141244
0.00035589977
0.00039997076
0.00044773916
0.00050409821
0.00052253972
0.00019832373
0.00021242503
0.00023922284
0.00027385474
0.0003131017
0.00035509291
0.00039939193
0.00044736451
0.00050388093
0.00052238035
0.00019716643
0.00021126087
0.00023808657
0.00027281681
0.00031222922
0.00035442265
0.00039892376
0.00044706786
0.00050370708
0.00052223343
0.00019609591
0.00021020029
0.00023707712
0.00027192047
0.0003114979
0.00035387839
0.00039855608
0.00044684123
0.00050357229
0.00052209981
0.00019511723
0.00020924532
0.0002361917
0.00027115842
0.00031089741
0.00035344871
0.00039827831
0.00044667649
0.0005034721
0.00052197987
0.00019423289
0.00020839568
0.00023542567
0.00027052198
0.00031041652
0.00035312177
0.0003980798
0.00044656565
0.0005034021
0.00052187359
0.00019344323
0.00020764921
0.00023477295
0.00027000152
0.00031004356
0.00035288569
0.00039795015
0.00044650098
0.00050335804
0.00052178062
0.00019274677
0.0002070022
0.0002342263
0.00026958679
0.0003097667
0.0003527288
0.00039787937
0.00044647522
0.00050333594
0.00052170041
0.00019214054
0.00020644969
0.00023377773
0.00026926725
0.00030957429
0.00035263994
0.00039785809
0.00044648167
0.00050333213
0.00052163226
0.00019162043
0.00020598581
0.00023341876
0.00026903236
0.00030945506
0.00035260859
0.00039787771
0.00044651426
0.00050334331
0.00052157535
0.00019118142
0.00020560405
0.00023314068
0.00026887178
0.00030939833
0.00035262501
0.00039793038
0.00044656755
0.00050336651
0.00052152881
0.00019081785
0.00020529749
0.00023293472
0.00026877556
0.00030939408
0.00035268029
0.00039800906
0.0004466367
0.0005033991
0.00052149173
0.00019052363
0.00020505896
0.00023279231
0.00026873423
0.00030943305
0.00035276634
0.00039810748
0.00044671747
0.00050343875
0.00052146317
0.00019029244
0.00020488128
0.00023270509
0.00026873894
0.0003095068
0.00035287594
0.00039822013
0.00044680616
0.00050348342
0.00052144219
0.00019011784
0.00020475732
0.00023266512
0.00026878145
0.00030960765
0.00035300267
0.00039834218
0.00044689957
0.00050353133
0.00052142789
0.0001899934
0.00020468013
0.00023266489
0.00026885423
0.00030972875
0.00035314092
0.00039846948
0.00044699496
0.00050358094
0.00052141935
0.00018991282
0.00020464307
0.00023269738
0.00026895042
0.00030986402
0.00035328579
0.0003985985
0.00044709003
0.00050363092
0.00052141571
0.00018987002
0.00020463979
0.00023275613
0.00026906389
0.00031000814
0.0003534331
0.00039872624
0.00044718288
0.00050368017
0.00052141615
0.00018985919
0.00020466438
0.00023283528
0.0002691892
0.00031015654
0.00035357938
0.00039885029
0.00044727195
0.00050372778
0.00052141991
0.00018987489
0.00020471139
0.00023292954
0.00026932167
0.0003103054
0.00035372176
0.00039896875
0.00044735611
0.00050377308
0.00052142631
0.0001899121
0.00020477587
0.00023303431
0.00026945727
0.00031045156
0.00035385805
0.00039908021
0.00044743451
0.00050381557
0.00052143477
0.00018996626
0.00020485342
0.00023314557
0.0002695927
0.00031059255
0.00035398657
0.00039918367
0.00044750659
0.00050385457
0.00052144474
0.00019003329
0.00020494016
0.00023325992
0.00026972526
0.00031072646
0.00035410614
0.00039927848
0.00044757186
0.00050388967
0.00052145571
0.00019010958
0.00020503273
0.00023337454
0.0002698528
0.00031085187
0.00035421596
0.00039936418
0.00044763003
0.000503921
0.00052146729
0.00019019198
0.00020512826
0.00023348706
0.00026997364
0.00031096775
0.00035431548
0.0003994405
0.00044768121
0.0005039488
0.00052147917
0.00019027777
0.00020522429
0.00023359558
0.00027008652
0.0003110734
0.00035440434
0.00039950746
0.00044772571
0.00050397325
0.00052149106
0.00019036461
0.00020531878
0.00023369859
0.00027019048
0.00031116831
0.00035448249
0.00039956542
0.00044776387
0.00050399447
0.00052150271
0.00019045051
0.00020541005
0.0002337949
0.00027028484
0.00031125229
0.00035455022
0.00039961479
0.00044779603
0.00050401261
0.00052151391
0.00019053386
0.00020549676
0.00023388361
0.00027036925
0.00031132555
0.000354608
0.0003996561
0.00044782262
0.00050402782
0.00052152451
0.00019061334
0.00020557784
0.00023396416
0.00027044371
0.00031138848
0.00035465642
0.00039968995
0.00044784408
0.00050404034
0.0005215344
0.00019068795
0.00020565259
0.00023403634
0.00027050847
0.00031144166
0.00035469621
0.00039971702
0.00044786094
0.0005040504
0.00052154351
0.000190757
0.00020572058
0.00023410015
0.00027056397
0.0003114858
0.00035472815
0.00039973804
0.00044787374
0.00050405829
0.00052155183
0.00019082006
0.00020578164
0.00023415583
0.00027061079
0.00031152168
0.00035475309
0.00039975374
0.000447883
0.00050406428
0.00052155935
0.00019087694
0.00020583578
0.00023420373
0.00027064957
0.00031155012
0.00035477182
0.00039976481
0.00044788921
0.00050406862
0.00052156607
0.00019092761
0.00020588317
0.0002342443
0.000270681
0.0003115719
0.00035478511
0.00039977188
0.00044789281
0.00050407152
0.000521572
0.00019097216
0.00020592406
0.00023427803
0.00027070578
0.00031158778
0.00035479365
0.0003997755
0.00044789418
0.00050407317
0.00052157715
0.00019101077
0.00020595877
0.00023430546
0.00027072456
0.00031159847
0.00035479811
0.0003997762
0.00044789365
0.00050407373
0.00052158153
0.00019104369
0.0002059877
0.00023432714
0.00027073803
0.00031160465
0.00035479909
0.00039977444
0.00044789155
0.00050407335
0.00052158518
0.00019107125
0.00020601124
0.00023434362
0.00027074682
0.00031160699
0.00035479716
0.00039977069
0.00044788818
0.0005040722
0.00052158815
0.00019109381
0.00020602988
0.0002343555
0.00027075161
0.00031160613
0.00035479291
0.00039976538
0.00044788385
0.00050407045
0.0005215905
0.00019111181
0.0002060441
0.00023436335
0.00027075302
0.00031160267
0.00035478686
0.00039975894
0.00044787885
0.00050406826
0.00052159232
0.00019112569
0.00020605442
0.00023436776
0.00027075166
0.00031159721
0.00035477949
0.00039975174
0.00044787343
0.00050406578
0.00052159366
0.00019113592
0.00020606133
0.00023436929
0.00027074808
0.00031159023
0.00035477123
0.00039974409
0.00044786782
0.00050406314
0.0005215946
0.00019114296
0.00020606533
0.00023436842
0.00027074277
0.00031158218
0.00035476243
0.00039973626
0.00044786216
0.00050406043
0.00052159519
0.00019114725
0.00020606685
0.00023436563
0.00027073617
0.00031157341
0.00035475336
0.00039972841
0.00044785658
0.0005040577
0.00052159547
0.00019114916
0.0002060663
0.00023436128
0.0002707286
0.0003115642
0.00035474421
0.00039972069
0.00044785114
0.00050405499
0.00052159548
0.00019114908
0.00020606404
0.00023435573
0.00027072037
0.00031155478
0.00035473516
0.00039971319
0.0004478459
0.00050405233
0.00052159526
0.00019114732
0.00020606039
0.00023434926
0.00027071173
0.00031154535
0.00035472634
0.00039970599
0.0004478409
0.00050404974
0.00052159484
0.00019114419
0.00020605564
0.00023434215
0.00027070291
0.00031153609
0.00035471786
0.00039969917
0.00044783619
0.00050404724
0.00052159426
0.00019114
0.00020605008
0.00023433468
0.00027069414
0.00031152716
0.00035470984
0.00039969279
0.00044783178
0.00050404484
0.00052159357
)
;

boundaryField
{
    water_inlet
    {
        type            turbulentIntensityKineticEnergyInlet;
        intensity       0.05;
        value           uniform 0.000234375;
    }
    water_outlet
    {
        type            inletOutlet;
        inletValue      uniform 0.0001;
        value           nonuniform List<scalar> 10(0.00019114 0.00020605008 0.00023433468 0.00027069414 0.00031152716 0.00035470984 0.00039969279 0.00044783178 0.00050404484 0.00052159357);
    }
    water_wedge1
    {
        type            wedge;
    }
    water_wedge2
    {
        type            wedge;
    }
    water_to_rock
    {
        type            kqRWallFunction;
        value           nonuniform List<scalar> 
100
(
0.00048657967
0.00057072179
0.00057180212
0.0005481231
0.00052456963
0.00050861046
0.00050003846
0.00049629322
0.00049505659
0.00049493729
0.00049528037
0.00049583503
0.00049652599
0.00049733751
0.00049826649
0.00049930741
0.00050044499
0.00050166192
0.00050294662
0.00050428925
0.00050567925
0.0005071051
0.00050855482
0.00051001616
0.00051147643
0.0005129221
0.00051433838
0.00051570904
0.00051701665
0.00051824333
0.00051937201
0.00052038783
0.00052127951
0.00052204033
0.0005226685
0.00052316707
0.00052354324
0.0005238074
0.00052397207
0.0005240509
0.00052405778
0.00052400619
0.00052390874
0.00052377687
0.00052361978
0.00052344543
0.00052326149
0.0005230744
0.00052288929
0.00052271007
0.00052253972
0.00052238035
0.00052223343
0.00052209981
0.00052197987
0.00052187359
0.00052178062
0.00052170041
0.00052163226
0.00052157535
0.00052152881
0.00052149173
0.00052146317
0.00052144219
0.00052142789
0.00052141935
0.00052141571
0.00052141615
0.00052141991
0.00052142631
0.00052143477
0.00052144474
0.00052145571
0.00052146729
0.00052147917
0.00052149106
0.00052150271
0.00052151391
0.00052152451
0.0005215344
0.00052154351
0.00052155183
0.00052155935
0.00052156607
0.000521572
0.00052157715
0.00052158153
0.00052158518
0.00052158815
0.0005215905
0.00052159232
0.00052159366
0.0005215946
0.00052159519
0.00052159547
0.00052159548
0.00052159526
0.00052159484
0.00052159426
0.00052159357
)
;
    }
}


// ************************************************************************* //
