/*--------------------------------*- C++ -*----------------------------------*\
| =========                 |                                                 |
| \\      /  F ield         | OpenFOAM: The Open Source CFD Toolbox           |
|  \\    /   O peration     | Version:  2506                                  |
|   \\  /    A nd           | Website:  www.openfoam.com                      |
|    \\/     M anipulation  |                                                 |
\*---------------------------------------------------------------------------*/
FoamFile
{
    version     2.0;
    format      ascii;
    arch        "LSB;label=32;scalar=64";
    class       surfaceScalarField;
    location    "25000/water";
    object      phi;
}
// * * * * * * * * * * * * * * * * * * * * * * * * * * * * * * * * * * * * * //

dimensions      [1 0 -1 0 0 0 0];

oriented        oriented;

internalField   nonuniform List<scalar> 
1890
(
-4.1736245e-05
0.0022168351
-0.00015753622
0.0059586937
-0.00032930669
0.0087985477
-0.00054203242
0.010900937
-0.00078239503
0.012402155
-0.0010351825
0.013412336
-0.0012746193
0.014013996
-0.0014359745
0.014245356
-0.001284859
0.0140006
0.012745539
-3.145582e-05
0.002248291
-0.00011269722
0.0060399351
-0.00023219386
0.0089180443
-0.00037999424
0.011048737
-0.00054594258
0.012568103
-0.00071649907
0.013582893
-0.0008667452
0.014164242
-0.00093361963
0.01431223
-0.00073394516
0.013800926
0.012011594
-2.913882e-05
0.0022774298
-0.00010672994
0.0061175262
-0.00022105539
0.0090323698
-0.00036160326
0.011189285
-0.00051700141
0.012723501
-0.00067116235
0.013737054
-0.00079396189
0.014287042
-0.00081139801
0.014329666
-0.00056729955
0.013556827
0.011444294
-2.7339927e-05
0.0023047697
-0.00010102593
0.0061912122
-0.00020924231
0.0091405862
-0.00034097886
0.011321022
-0.00048374649
0.012866269
-0.00061911458
0.013872422
-0.00071088141
0.014378809
-0.00067659893
0.014295384
-0.00042026118
0.01330049
0.011024033
-2.5625224e-05
0.0023303949
-9.4386115e-05
0.0062599731
-0.00019506684
0.0092412669
-0.00031669848
0.011442653
-0.00044589469
0.012995465
-0.00056132326
0.013987851
-0.00061882637
0.014436312
-0.00053651158
0.014213069
-0.00029565448
0.013059633
0.010728379
-2.4159495e-05
0.0023545544
-8.8799505e-05
0.0063246131
-0.00018306049
0.0093355279
-0.00029574172
0.011555335
-0.00041210886
0.013111832
-0.00050662305
0.014082365
-0.00052703634
0.014456725
-0.00040878458
0.014094817
-0.00020043297
0.012851281
0.010527946
-2.2965489e-05
0.0023775199
-8.4333503e-05
0.0063859811
-0.00017335351
0.0094245479
-0.00027826885
0.01166025
-0.00038232743
0.013215891
-0.00045437972
0.014154417
-0.00043820676
0.014440552
-0.00030321798
0.013959829
-0.0001337894
0.012681852
0.010394156
-2.2023843e-05
0.0023995438
-8.0769801e-05
0.0064447271
-0.00016540583
0.0095091839
-0.00026327226
0.011758116
-0.00035472762
0.013307346
-0.00040244509
0.014202134
-0.00035546091
0.014393568
-0.00022237111
0.013826739
-8.985653e-05
0.012549338
0.0103043
-2.1260557e-05
0.0024208043
-7.7812578e-05
0.0065012791
-0.00015855234
0.0095899236
-0.00024948552
0.01184905
-0.00032712305
0.013384984
-0.00034954705
0.014224558
-0.0002821301
0.014326151
-0.00016300282
0.013707612
-6.1426308e-05
0.012447761
0.010242873
-2.0607142e-05
0.0024414115
-7.5216634e-05
0.0065558886
-0.00015223236
0.0096669394
-0.00023577786
0.011932595
-0.00029784669
0.013447053
-0.00029644804
0.01422316
-0.00022023865
0.014249942
-0.00011980451
0.013607177
-4.2688843e-05
0.012370646
0.010200185
-2.0018276e-05
0.0024614297
-7.2804674e-05
0.006608675
-0.00014600132
0.009740136
-0.00022120582
0.0120078
-0.00026613529
0.013491982
-0.0002453195
0.014202344
-0.00016974764
0.01417437
-8.7951071e-05
0.013525381
-2.9805665e-05
0.0123125
0.010170379
-1.9463532e-05
0.0024808933
-7.0441384e-05
0.0066596529
-0.00013947747
0.0098091721
-0.00020502199
0.012073344
-0.00023228108
0.013519241
-0.00019838499
0.014168448
-0.00012919759
0.014105182
-6.3918783e-05
0.013460102
-2.048614e-05
0.012269068
0.010149893
-1.891874e-05
0.002499812
-6.8008082e-05
0.0067087422
-0.00013229867
0.0098734627
-0.0001867557
0.012127801
-0.00019748174
0.013529967
-0.00015698023
0.014127946
-9.6700576e-05
0.014044903
-4.5355207e-05
0.013408757
-1.3426867e-05
0.012237139
0.010136466
-1.836039e-05
0.0025181724
-6.5381782e-05
0.0067557636
-0.00012410688
0.0099321878
-0.00016633445
0.012170029
-0.00016333279
0.013526966
-0.00012140658
0.01408602
-7.0530151e-05
0.013994026
-3.0719739e-05
0.013368946
-7.8894499e-06
0.012214309
0.010128576
-1.7761429e-05
0.0025359338
-6.241964e-05
0.0068004218
-0.00011457687
0.009984345
-0.00014416248
0.012199614
-0.00013123985
0.013514043
-9.1273073e-05
0.014046053
-4.9296016e-05
0.013952049
-1.8986086e-05
0.013338636
-3.432437e-06
0.012198755
0.010125144
-1.7087921e-05
0.0025530217
-5.8952495e-05
0.0068422864
-0.00010349033
0.010028883
-0.00012105272
0.012217177
-0.00010208345
0.013495074
-6.5899545e-05
0.01400987
-3.1932601e-05
0.013918082
-9.451326e-06
0.013316155
2.8659681e-07
0.012189017
0.010125431
-1.6296459e-05
0.0025693182
-5.4793208e-05
0.0068807831
-9.0832262e-05
0.010064922
-9.7998958e-05
0.012224343
-7.6210353e-05
0.013473285
-4.457265e-05
0.013978232
-1.7627953e-05
0.013891138
-1.5579804e-06
0.013300085
3.3713153e-06
0.012184088
0.010128802
-1.5331746e-05
0.00258465
-4.9761914e-05
0.0069152133
-7.685265e-05
0.010092013
-7.5898738e-05
0.01222339
-5.3589267e-05
0.013450976
-2.6635092e-05
0.013951278
-5.7260919e-06
0.013870229
4.9972941e-06
0.013289362
5.849122e-06
0.012183236
0.010134651
-1.4126713e-05
0.0025987767
-4.3732646e-05
0.0069448193
-6.204421e-05
0.010110324
-5.5379531e-05
0.012216725
-3.398584e-05
0.013429582
-1.1511723e-05
0.013928804
4.237782e-06
0.013854479
1.0368414e-05
0.013283231
7.867178e-06
0.012185738
0.010142518
-1.2609115e-05
0.0026113858
-3.6694647e-05
0.0069689048
-4.7031203e-05
0.010120661
-3.677494e-05
0.012206469
-1.7079919e-05
0.013409887
1.3291376e-06
0.013910395
1.2527935e-05
0.01384328
1.4774741e-05
0.013280984
9.5162352e-06
0.012190996
0.010152034
-1.0718571e-05
0.0026221044
-2.8800686e-05
0.0069869869
-3.2419887e-05
0.01012428
-2.0180883e-05
0.01219423
-2.4803816e-06
0.013392186
1.2172401e-05
0.013895742
1.9377134e-05
0.013836076
1.8389942e-05
0.013281972
1.0861686e-05
0.012198524
0.010162896
-8.4362084e-06
0.0026305406
-2.0369079e-05
0.0069989198
-1.8684279e-05
0.010122595
-5.5173314e-06
0.012181063
1.0031566e-05
0.013376638
2.1197269e-05
0.013884576
2.5023603e-05
0.013832249
2.134468e-05
0.01328565
1.195093e-05
0.012207918
0.010174847
-5.8188624e-06
0.0026363594
-1.182519e-05
0.0070049261
-6.1102662e-06
0.01011688
7.2771277e-06
0.012167675
2.057081e-05
0.013363344
2.8684348e-05
0.013876463
2.9653763e-05
0.01383128
2.3737395e-05
0.013291567
1.2818686e-05
0.012218837
0.010187666
-3.0142239e-06
0.0026393737
-3.5960651e-06
0.007005508
5.10252e-06
0.010108182
1.8190499e-05
0.012154587
2.9353803e-05
0.013352181
3.4839028e-05
0.013870977
3.3405747e-05
0.013832713
2.5639792e-05
0.013299333
1.3489385e-05
0.012230987
0.010201155
-2.3423285e-07
0.0026396079
3.9066205e-06
0.0070013671
1.4739482e-05
0.010097349
2.7284129e-05
0.012142043
3.6558501e-05
0.013342906
3.9810863e-05
0.013867725
3.6376044e-05
0.013836148
2.7099795e-05
0.013308609
1.3978376e-05
0.012244109
0.010215134
2.276865e-06
0.002637331
1.0308208e-05
0.0069933357
2.26809e-05
0.010084976
3.4654908e-05
0.012130069
4.2307759e-05
0.013335253
4.369616e-05
0.013866337
3.8621301e-05
0.013841223
2.8141258e-05
0.013319089
1.4290592e-05
0.012257959
0.010229424
4.3216475e-06
0.0026330094
1.5394835e-05
0.0069822626
2.8920212e-05
0.010071451
4.0373106e-05
0.012118616
4.6677501e-05
0.013328949
4.6546133e-05
0.013866468
4.0164066e-05
0.013847605
2.8767078e-05
0.013330486
1.4421987e-05
0.012272304
0.010243846
5.8172003e-06
0.0026271922
1.9123618e-05
0.0069689561
3.34931e-05
0.010057081
4.44997e-05
0.012107609
4.9715889e-05
0.013323733
4.8383314e-05
0.0138678
4.100482e-05
0.013854983
2.8966726e-05
0.013342524
1.4362877e-05
0.012286908
0.010258209
6.7756067e-06
0.0026204166
2.1562197e-05
0.0069541695
3.6486766e-05
0.010042157
4.7108107e-05
0.012096988
5.1466869e-05
0.013319374
4.9222119e-05
0.013870045
4.1137723e-05
0.013863068
2.8726717e-05
0.013354935
1.4103181e-05
0.012301532
0.010272312
7.269125e-06
0.0026131474
2.2857101e-05
0.0069385815
3.8041285e-05
0.010026972
4.8301093e-05
0.012086728
5.1991173e-05
0.013315684
4.9088479e-05
0.013872948
4.0566361e-05
0.01387159
2.804132e-05
0.01336746
1.3637637e-05
0.012315935
0.01028595
7.3944219e-06
0.002605753
2.3198498e-05
0.0069227775
3.8340674e-05
0.01001183
4.8218209e-05
0.01207685
5.1380246e-05
0.013312522
4.8034671e-05
0.013876293
3.9316514e-05
0.013880308
2.6921622e-05
0.013379855
1.297032e-05
0.012329887
0.01029892
7.2475503e-06
0.0025985055
2.2788722e-05
0.0069072363
3.7596197e-05
0.0099970227
4.7032535e-05
0.012067414
4.9760343e-05
0.013309794
4.6146239e-05
0.013879907
3.7443033e-05
0.013889011
2.5400651e-05
0.013391897
1.2117183e-05
0.01234317
0.010311037
6.9114451e-06
0.002591594
2.1819553e-05
0.0068923282
3.6027335e-05
0.009982815
4.4939654e-05
0.012058502
4.7287584e-05
0.013307446
4.3540502e-05
0.013883655
3.5029839e-05
0.013897522
2.3533579e-05
0.013403394
1.1105979e-05
0.012355598
0.010322143
6.4522707e-06
0.0025851417
2.0459266e-05
0.0068783212
3.3845249e-05
0.009969429
4.2143439e-05
0.012050204
4.4137274e-05
0.013305452
4.0358794e-05
0.013887433
3.2184286e-05
0.013905696
2.1393782e-05
0.013414184
9.974136e-06
0.012367017
0.010332117
5.9203273e-06
0.0025792214
1.8847546e-05
0.0068653939
3.1241031e-05
0.0099570355
3.8842336e-05
0.012042602
4.0490866e-05
0.013303804
3.6755027e-05
0.013891169
2.9027703e-05
0.013913424
1.9065783e-05
0.013424146
8.7647401e-06
0.012377318
0.010340882
5.3526922e-06
0.0025738687
1.7095633e-05
0.006853651
2.8379258e-05
0.0099457519
3.5218704e-05
0.012035763
3.6523881e-05
0.013302498
3.2883873e-05
0.013894809
2.5684998e-05
0.013920623
1.6637398e-05
0.013433194
7.5224333e-06
0.012386433
0.010348405
4.7760406e-06
0.0025690927
1.5289105e-05
0.0068431379
2.5395714e-05
0.0099356452
3.1431821e-05
0.012029727
3.2396242e-05
0.013301534
2.8890311e-05
0.013898315
2.2274957e-05
0.013927238
1.4192145e-05
0.013441276
6.2890868e-06
0.012394336
0.010354694
4.209151e-06
0.0025648835
1.3491827e-05
0.0068338553
2.2398253e-05
0.0099267388
2.7614662e-05
0.01202451
2.8246213e-05
0.013300902
2.4902288e-05
0.013901659
1.8903109e-05
0.013933237
1.1803744e-05
0.013448376
5.1010369e-06
0.012401039
0.010359795
3.6648821e-06
0.0025612186
1.1749946e-05
0.0068257702
1.9469369e-05
0.0099190194
2.3873498e-05
0.012020106
2.4187458e-05
0.013300588
2.1026377e-05
0.01390482
1.5657235e-05
0.013938606
9.5325151e-06
0.0134545
3.9871124e-06
0.012406584
0.010363782
3.1517214e-06
0.0025580669
1.0095589e-05
0.0068188263
1.6669704e-05
0.0099124453
2.0289598e-05
0.012016486
2.0308888e-05
0.013300569
1.7346469e-05
0.013907782
1.2605741e-05
0.013943347
7.4242516e-06
0.013459682
2.9683154e-06
0.01241104
0.01036675
2.6749253e-06
0.002555392
8.5499787e-06
0.0068129513
1.4041694e-05
0.0099069535
1.6921997e-05
0.012013606
1.6676192e-05
0.013300815
1.3924389e-05
0.013910534
9.7979153e-06
0.013947473
5.5104169e-06
0.013463969
2.0579277e-06
0.012414493
0.010368808
2.2374039e-06
0.0025531546
7.1260315e-06
0.0068080626
1.1613087e-05
0.0099024665
1.3810838e-05
0.012011408
1.3334567e-05
0.013301291
1.0802063e-05
0.013913066
7.2657306e-06
0.01395101
3.8097582e-06
0.013467425
1.2627712e-06
0.01241704
0.010370071
1.8403443e-06
0.0025513142
5.830389e-06
0.0068040726
9.4000146e-06
0.0098988969
1.0980691e-05
0.012009827
1.0311793e-05
0.01330196
8.0042983e-06
0.013915374
5.026375e-06
0.013953988
2.3304022e-06
0.013470121
5.8439415e-07
0.012418786
0.010370655
1.4837045e-06
0.0025498305
4.6650243e-06
0.0068008913
7.4095681e-06
0.0098961523
8.4435142e-06
0.012008794
7.6211854e-06
0.013302782
5.5414724e-06
0.013917454
3.0846548e-06
0.013956444
1.0727989e-06
0.013472133
3.0992609e-08
0.012419828
0.010370686
1.1664821e-06
0.0025486641
3.6281847e-06
0.0067984296
5.641338e-06
0.0098941392
6.2004009e-06
0.012008234
5.2632068e-06
0.01330372
3.4112002e-06
0.013919306
1.4358672e-06
0.01395842
3.8553537e-08
0.013473531
-4.1222068e-07
0.012420278
0.010370274
8.8702525e-07
0.002547777
2.7154903e-06
0.0067966011
4.0894633e-06
0.0098927652
4.2444776e-06
0.012008079
3.2292862e-06
0.013304735
1.6035987e-06
0.013920931
7.4475499e-08
0.013959949
-7.959761e-07
0.013474401
-7.7035318e-07
0.012420253
0.010369504
6.432859e-07
0.0025471337
1.9209177e-06
0.0067953235
2.7446125e-06
0.0098919415
2.563998e-06
0.01200826
1.5062504e-06
0.013305793
1.0789347e-07
0.01392233
-1.0283195e-06
0.013961085
-1.4640928e-06
0.013474837
-1.0482428e-06
0.012419837
0.010368455
4.3298543e-07
0.0025467008
1.237408e-06
0.006794519
1.59531e-06
0.0098915836
1.1447095e-06
0.012008711
8.0094813e-08
0.013306857
-1.1068055e-06
0.013923517
-1.9102004e-06
0.013961888
-1.9798153e-06
0.013474906
-1.25258e-06
0.01241911
0.010367203
2.5376803e-07
0.002546447
6.5758737e-07
0.0067941152
6.2993124e-07
0.0098916112
-2.7931981e-08
0.012009368
-1.0792642e-06
0.013307908
-2.0787277e-06
0.013924516
-2.5919776e-06
0.013962402
-2.3587897e-06
0.013474673
-1.3918515e-06
0.012418143
0.010365811
1.0338378e-07
0.0025463436
1.7441211e-07
0.0067940442
-1.6505852e-07
0.0098919507
-9.8060853e-07
0.012010184
-2.0071231e-06
0.013308935
-2.8316968e-06
0.013925341
-3.0947996e-06
0.013962665
-2.6174265e-06
0.013474196
-1.4748559e-06
0.012417
0.010364336
-2.0639955e-08
0.0025463642
-2.2133324e-07
0.0067942449
-8.0954008e-07
0.0098925389
-1.7421974e-06
0.012011117
-2.7265594e-06
0.013309919
-3.3891011e-06
0.013926003
-3.4402022e-06
0.013962716
-2.7721367e-06
0.013473528
-1.5103368e-06
0.012415738
0.010362826
-1.2128777e-07
0.0025464855
-5.4036582e-07
0.006794664
-1.3220403e-06
0.0098933206
-2.3314445e-06
0.012012126
-3.2599329e-06
0.013310848
-3.7743274e-06
0.013926518
-3.6493072e-06
0.013962591
-2.8386071e-06
0.013472717
-1.5062896e-06
0.012414406
0.01036132
-2.0133549e-07
0.0025466869
-7.9135369e-07
0.006795254
-1.7160766e-06
0.0098942453
-2.7673436e-06
0.012013177
-3.6297036e-06
0.01331171
-4.0104917e-06
0.013926898
-3.7426498e-06
0.013962323
-2.8318505e-06
0.013471806
-1.4703644e-06
0.012413045
0.010359849
-2.6302827e-07
0.0025469499
-9.8166222e-07
0.0067959726
-2.0050517e-06
0.0098952687
-3.0685881e-06
0.012014241
-3.8577657e-06
0.013312499
-4.1198161e-06
0.01392716
-3.7396422e-06
0.013961943
-2.7657602e-06
0.013470832
-1.4093781e-06
0.012411688
0.01035844
-3.0851063e-07
0.0025472584
-1.1184935e-06
0.0067967826
-2.2021015e-06
0.0098963523
-3.2533811e-06
0.012015292
-3.9652459e-06
0.013313211
-4.1234613e-06
0.013927319
-3.6584978e-06
0.013961478
-2.6531825e-06
0.013469827
-1.3296229e-06
0.012410365
0.01035711
-3.3981551e-07
0.0025475982
-1.2087533e-06
0.0067976515
-2.3198146e-06
0.0098974634
-3.3390513e-06
0.012016311
-3.9720149e-06
0.013313844
-4.0410369e-06
0.013927388
-3.5157891e-06
0.013960953
-2.5055666e-06
0.013468817
-1.2365419e-06
0.012409096
0.010355874
-3.5886812e-07
0.0025479571
-1.2589935e-06
0.0067985517
-2.3700878e-06
0.0098985745
-3.3418228e-06
0.012017283
-3.8964349e-06
0.013314399
-3.8903498e-06
0.013927382
-3.3262837e-06
0.013960389
-2.3329223e-06
0.013467823
-1.1348476e-06
0.012407897
0.010354739
-3.6746321e-07
0.0025483246
-1.2753256e-06
0.0067994595
-2.3639564e-06
0.0098996631
-3.2765817e-06
0.012018196
-3.7550829e-06
0.013314877
-3.6871729e-06
0.013927314
-3.1027606e-06
0.013959804
-2.1436815e-06
0.013466864
-1.0283573e-06
0.012406782
0.01035371
-3.6726958e-07
0.0025486918
-1.2634026e-06
0.0068003557
-2.3115443e-06
0.0099007113
-3.1568118e-06
0.012019041
-3.5627471e-06
0.013315283
-3.445301e-06
0.013927196
-2.8561558e-06
0.013959215
-1.9449006e-06
0.013465953
-9.2024349e-07
0.012405758
0.01035279
-3.5981168e-07
0.0025490516
-1.2283744e-06
0.0068012242
-2.2219949e-06
0.0099017049
-2.9945379e-06
0.012019814
-3.3323777e-06
0.013315621
-3.176564e-06
0.01392704
-2.5956148e-06
0.013958634
-1.742289e-06
0.0134651
-8.1290658e-07
0.012404828
0.010351977
-3.4649106e-07
0.0025493981
-1.1749345e-06
0.0068020527
-2.103557e-06
0.0099026335
-2.8004641e-06
0.012020511
-3.0753306e-06
0.013315896
-2.8911552e-06
0.013926856
-2.3288607e-06
0.013958072
-1.540581e-06
0.013464312
-7.0836553e-07
0.012403996
0.010351269
-3.2857169e-07
0.0025497267
-1.107296e-06
0.0068028314
-1.963567e-06
0.0099034898
-2.5839873e-06
0.012021131
-2.8014044e-06
0.013316113
-2.5976878e-06
0.013926653
-2.0622618e-06
0.013957536
-1.3435576e-06
0.013463593
-6.081238e-07
0.012403261
0.010350661
-3.0719648e-07
0.0025500339
-1.0292393e-06
0.0068035535
-1.8085391e-06
0.0099042691
-2.3533381e-06
0.012021676
-2.519052e-06
0.013316279
-2.3034627e-06
0.013926437
-1.80111e-06
0.013957034
-1.1542856e-06
0.013462946
-5.133774e-07
0.01240262
0.010350147
-2.8338495e-07
0.0025503173
-9.4411588e-07
0.0068042142
-1.6441859e-06
0.0099049692
-2.1156383e-06
0.012022147
-2.2354604e-06
0.013316399
-2.0145612e-06
0.013926216
-1.5497062e-06
0.013956569
-9.7518834e-07
0.013462372
-4.250481e-07
0.01240207
0.010349722
-2.5803397e-07
0.0025505753
-8.5485971e-07
0.006804811
-1.4754577e-06
0.0099055898
-1.8769614e-06
0.012022549
-1.9566426e-06
0.013316479
-1.7359547e-06
0.013925995
-1.3114614e-06
0.013956145
-8.0810596e-07
0.013461868
-3.4376995e-07
0.012401605
0.010349379
-2.3192651e-07
0.0025508072
-7.6401213e-07
0.0068053431
-1.306585e-06
0.0099061324
-1.6424167e-06
0.012022885
-1.6875581e-06
0.013316524
-1.4716429e-06
0.01392578
-1.0890399e-06
0.013955762
-6.5442969e-07
0.013461434
-2.7002593e-07
0.012401221
0.010349109
-2.0572384e-07
0.002551013
-6.7370827e-07
0.0068058111
-1.1410756e-06
0.0099065997
-1.4161456e-06
0.01202316
-1.432101e-06
0.01331654
-1.224636e-06
0.013925572
-8.8432075e-07
0.013955422
-5.1503281e-07
0.013461064
-2.0403834e-07
0.01240091
0.010348904
-1.799759e-07
0.0025511929
-5.8570539e-07
0.0068062168
-9.8175466e-07
0.0099069958
-1.2013815e-06
0.012023379
-1.1931817e-06
0.013316532
-9.9702855e-07
0.013925376
-6.9846199e-07
0.013955123
-3.9033048e-07
0.013460756
-1.4584786e-07
0.012400665
0.010348759
-1.5512218e-07
0.0025513481
-5.0138746e-07
0.0068065631
-8.3078108e-07
0.0099073252
-1.0004772e-06
0.012023549
-9.7274404e-07
0.013316504
-7.900108e-07
0.013925193
-5.3188783e-07
0.013954865
-2.8024289e-07
0.013460505
-9.5260183e-08
0.01240048
0.010348663
-1.3149904e-07
0.0025514796
-4.2178881e-07
0.0068068534
-6.89695e-07
0.0099075931
-8.1497199e-07
0.012023674
-7.7185522e-07
0.013316461
-6.0396156e-07
0.013925025
-3.8436585e-07
0.013954646
-1.8423591e-07
0.013460304
-5.1852816e-08
0.012400348
0.010348612
-1.0935792e-07
0.0025515889
-3.4764967e-07
0.0068070917
-5.5951812e-07
0.0099078049
-6.4574052e-07
0.01202376
-5.9088877e-07
0.013316406
-4.3863117e-07
0.013924873
-2.551793e-07
0.013954462
-1.0144216e-07
0.013460151
-1.4626224e-08
0.012400261
0.010348597
-8.8874938e-08
0.0025516778
-2.7946356e-07
0.0068072823
-4.4085944e-07
0.0099079664
-4.9316211e-07
0.012023813
-4.2973825e-07
0.013316342
-2.9339627e-07
0.013924737
-1.4331716e-07
0.013954312
-3.0493605e-08
0.013460038
1.7004272e-08
0.012400214
0.010348614
-7.0172062e-08
0.002551748
-2.175461e-07
0.0068074296
-3.3404573e-07
0.0099080829
-3.5730226e-07
0.012023836
-2.8803574e-07
0.013316273
-1.6742478e-07
0.013924616
-4.746432e-08
0.013954192
2.9441476e-08
0.013459961
4.2662285e-08
0.0124002
0.010348657
-5.3322267e-08
0.0025518013
-1.6206007e-07
0.0068075384
-2.3916248e-07
0.00990816
-2.3796086e-07
0.012023835
-1.651573e-07
0.0133162
-5.9574084e-08
0.013924511
3.3342221e-08
0.013954099
7.8282794e-08
0.013459916
6.2599712e-08
0.012400216
0.010348719
-3.8350751e-08
0.0025518397
-1.1302591e-07
0.0068076131
-1.5607316e-07
0.009908203
-1.3466287e-07
0.012023813
-6.012865e-08
0.013316126
3.1168671e-08
0.013924419
9.9255511e-08
0.013954031
1.1652886e-07
0.013459899
7.7578767e-08
0.012400255
0.010348797
-2.5246072e-08
0.0025518649
-7.0347822e-08
0.0068076582
-8.4438296e-08
0.0099082171
-4.6621628e-08
0.012023776
2.7990547e-08
0.013316051
1.0510332e-07
0.013924342
1.5086212e-07
0.013953985
1.4520301e-07
0.013459904
8.8130657e-08
0.012400312
0.010348885
-1.3948085e-08
0.0025518788
-3.3772512e-08
0.006807678
-2.3609322e-08
0.0099082069
2.7010546e-08
0.012023725
9.9705358e-08
0.013315979
1.6303749e-07
0.013924279
1.8957985e-07
0.013953959
1.6536517e-07
0.013459929
9.4803198e-08
0.012400383
0.01034898
-4.3507856e-09
0.0025518832
-2.8995473e-09
0.0068076765
2.7013567e-08
0.009908177
8.679409e-08
0.012023665
1.5595655e-07
0.013315909
2.0664829e-07
0.013924228
2.1692897e-07
0.013953949
1.781257e-07
0.013459967
9.8142532e-08
0.012400463
0.010349078
3.6492198e-09
0.0025518795
2.2570224e-08
0.0068076576
6.7912301e-08
0.0099081317
1.3369903e-07
0.012023599
1.9847893e-07
0.013315845
2.3774602e-07
0.013924189
2.3452785e-07
0.013953952
1.8465842e-07
0.013460017
9.8716734e-08
0.012400549
0.010349177
1.014709e-08
0.0025518694
4.2956163e-08
0.0068076248
9.9925054e-08
0.0099080747
1.6923981e-07
0.01202353
2.2908316e-07
0.013315785
2.5819841e-07
0.01392416
2.4402429e-07
0.013953966
1.8615801e-07
0.013460075
9.7143513e-08
0.012400638
0.010349274
1.52693e-08
0.0025518541
5.8777239e-08
0.0068075813
1.2409102e-07
0.0099080094
1.9488581e-07
0.012023459
2.4949058e-07
0.01331573
2.6974085e-07
0.013924139
2.4692012e-07
0.013953989
1.8369443e-07
0.013460138
9.3938223e-08
0.012400727
0.010349368
1.9163367e-08
0.002551835
7.0565816e-08
0.0068075299
1.4141297e-07
0.0099079386
2.1202424e-07
0.012023389
2.6128924e-07
0.013315681
2.7392785e-07
0.013924127
2.4452891e-07
0.013954018
1.781769e-07
0.013460205
8.9540729e-08
0.012400816
0.010349457
2.1970752e-08
0.002551813
7.8819473e-08
0.006807473
1.5279752e-07
0.0099078646
2.2188015e-07
0.01202332
2.6583729e-07
0.013315637
2.7204737e-07
0.013924121
2.3788587e-07
0.013954052
1.702999e-07
0.013460272
8.4290531e-08
0.012400902
0.010349541
2.3819678e-08
0.0025517892
8.3981436e-08
0.0068074129
1.5904149e-07
0.0099077895
2.2549849e-07
0.012023253
2.6425198e-07
0.013315598
2.651051e-07
0.01392412
2.2775992e-07
0.01395409
1.6052155e-07
0.01346034
7.8350167e-08
0.012400984
0.01034962
2.4838469e-08
0.0025517643
8.647605e-08
0.0068073512
1.6088292e-07
0.0099077151
2.2382842e-07
0.01202319
2.575296e-07
0.013315565
2.5398557e-07
0.013924123
2.1480822e-07
0.013954129
1.4924367e-07
0.013460405
7.1910368e-08
0.012401062
0.010349692
2.5142768e-08
0.0025517392
8.6687996e-08
0.0068072897
1.5898761e-07
0.0099076428
2.1771854e-07
0.012023131
2.4654896e-07
0.013315536
2.3945332e-07
0.01392413
1.9958345e-07
0.013954169
1.3677422e-07
0.013460468
6.5055268e-08
0.012401133
0.010349757
2.4854112e-08
0.0025517143
8.5006225e-08
0.0068072295
1.5402622e-07
0.0099075738
2.0802791e-07
0.012023077
2.3222081e-07
0.013315511
2.2233193e-07
0.01392414
1.8272044e-07
0.013954208
1.2351842e-07
0.013460527
5.7989333e-08
0.012401199
0.010349815
2.4083569e-08
0.0025516903
8.1798794e-08
0.0068071718
1.4663805e-07
0.0099075089
1.9558376e-07
0.012023029
2.1542544e-07
0.013315492
2.0342495e-07
0.013924152
1.6485451e-07
0.013954247
1.0987928e-07
0.013460582
5.0864026e-08
0.012401258
0.010349866
2.294108e-08
0.0025516673
7.7426871e-08
0.0068071173
1.3745329e-07
0.0099074489
1.8120631e-07
0.012022985
1.9705137e-07
0.013315476
1.8356745e-07
0.013924166
1.4666075e-07
0.013954284
9.6317048e-08
0.013460632
4.3908749e-08
0.01240131
0.01034991
2.1525308e-08
0.0025516458
7.2220093e-08
0.0068070666
1.2704556e-07
0.0099073941
1.6563715e-07
0.012022946
1.7789402e-07
0.013315464
1.6349185e-07
0.01392418
1.2872945e-07
0.013954318
8.3230044e-08
0.013460678
3.7315606e-08
0.012401356
0.010349947
1.9920689e-08
0.0025516259
6.6461723e-08
0.0068070201
1.1590527e-07
0.0099073446
1.4949879e-07
0.012022913
1.5859956e-07
0.013315454
1.4378095e-07
0.013924195
1.1151362e-07
0.013954351
7.0908878e-08
0.013460718
3.1208034e-08
0.012401396
0.010349978
1.8198687e-08
0.0025516077
6.0388892e-08
0.0068069779
1.0442992e-07
0.0099073006
1.3327907e-07
0.012022884
1.3965539e-07
0.013315448
1.248429e-07
0.01392421
9.5300853e-08
0.01395438
5.9527508e-08
0.013460754
2.5675064e-08
0.01240143
0.010350004
1.6411362e-08
0.0025515912
5.4174633e-08
0.0068069401
9.2901809e-08
0.0099072618
1.1729797e-07
0.012022859
1.2134204e-07
0.013315444
1.0686329e-07
0.013924224
8.0173919e-08
0.013954407
4.9073632e-08
0.013460785
2.0660504e-08
0.012401458
0.010350024
1.4607784e-08
0.0025515766
4.7965114e-08
0.0068069068
8.1543679e-08
0.0099072282
1.0179494e-07
0.012022839
1.0385459e-07
0.013315442
8.9955758e-08
0.013924238
6.6156987e-08
0.013954431
3.9536876e-08
0.013460812
1.6184265e-08
0.012401481
0.010350041
1.2813868e-08
0.0025515638
4.1847594e-08
0.0068068777
7.048471e-08
0.0099071996
8.6888727e-08
0.012022823
8.7242211e-08
0.013315441
7.407898e-08
0.013924251
5.3133361e-08
0.013954452
3.0749865e-08
0.013460834
1.2040419e-08
0.0124015
0.010350053
1.1074733e-08
0.0025515527
3.5939875e-08
0.0068068528
5.9894751e-08
0.0099071756
7.2759642e-08
0.01202281
7.1672916e-08
0.013315443
5.9357862e-08
0.013924264
4.1185927e-08
0.01395447
2.2781889e-08
0.013460853
8.3928652e-09
0.012401514
0.010350061
9.4040058e-09
0.0025515433
3.0297028e-08
0.006806832
4.9861429e-08
0.0099071561
5.9497547e-08
0.0120228
5.7187494e-08
0.013315445
4.5783667e-08
0.013924275
3.0253184e-08
0.013954485
1.5522084e-08
0.013460867
5.0198545e-09
0.012401525
0.010350066
7.839804e-09
0.0025515355
2.5022921e-08
0.0068068148
4.0550191e-08
0.0099071406
4.7305066e-08
0.012022793
4.4023755e-08
0.013315448
3.3589863e-08
0.013924285
2.0548001e-08
0.013954498
9.1667457e-09
0.013460879
2.1779651e-09
0.012401532
0.010350068
6.3941419e-09
0.0025515291
2.0165467e-08
0.006806801
3.2073362e-08
0.0099071287
3.6386536e-08
0.012022789
3.245831e-08
0.013315452
2.3113737e-08
0.013924295
1.2415692e-08
0.013954509
3.9707154e-09
0.013460887
-1.4176524e-10
0.012401536
0.010350068
2.8833172e-09
9.0608706e-09
1.4270179e-08
1.5955901e-08
1.390207e-08
9.5360319e-09
4.6872582e-09
1.0842687e-09
-4.1683836e-10
)
;

boundaryField
{
    water_inlet
    {
        type            calculated;
        value           nonuniform List<scalar> 10(-0.0021750989 -0.0058428937 -0.0086267772 -0.010688211 -0.012161792 -0.013159549 -0.01377456 -0.014084001 -0.014151716 -0.014030398);
    }
    water_outlet
    {
        type            calculated;
        value           nonuniform List<scalar> 10(0.0025515262 0.0068067949 0.0099071235 0.012022787 0.013315454 0.013924299 0.013954514 0.013460891 0.012401538 0.010350068);
    }
    water_wedge1
    {
        type            wedge;
        value           nonuniform List<scalar> 
1000
(
-1.1296279e-13
-1.4267771e-13
-1.1216352e-13
-1.0631659e-13
-9.9355895e-14
-9.3389422e-14
-8.8691238e-14
-8.4955845e-14
-8.1975636e-14
-7.9485812e-14
-7.727954e-14
-7.5239129e-14
-7.3268335e-14
-7.127999e-14
-6.9183167e-14
-6.6852803e-14
-6.4132352e-14
-6.0818621e-14
-5.6668262e-14
-5.1409323e-14
-4.4796096e-14
-3.6658089e-14
-2.7078303e-14
-1.6560178e-14
-5.8615802e-15
4.0681293e-15
1.2374411e-14
1.866684e-14
2.2899038e-14
2.5298885e-14
2.6222029e-14
2.6008448e-14
2.5026935e-14
2.3517057e-14
2.1686603e-14
1.9694874e-14
1.7625561e-14
1.5591137e-14
1.3613478e-14
1.1733238e-14
9.9914852e-15
8.3912533e-15
6.9339683e-15
5.6153028e-15
4.4392012e-15
3.4008977e-15
2.4973378e-15
1.7126049e-15
1.0402293e-15
4.816537e-16
1.6885479e-17
-3.6629212e-16
-6.7580956e-16
-9.0975937e-16
-1.0822038e-15
-1.2114478e-15
-1.2903402e-15
-1.3255408e-15
-1.3333866e-15
-1.3094267e-15
-1.2636699e-15
-1.2070783e-15
-1.1343489e-15
-1.0490431e-15
-9.5461445e-16
-8.6283825e-16
-7.6454007e-16
-6.6941697e-16
-5.8612419e-16
-4.999623e-16
-4.1438655e-16
-3.4273854e-16
-2.7359003e-16
-2.0843017e-16
-1.5223341e-16
-1.0087058e-16
-6.4258995e-17
-3.018364e-17
2.3721538e-18
3.1303838e-17
5.0754137e-17
5.6185018e-17
6.8918509e-17
8.4866064e-17
8.4199418e-17
8.516152e-17
8.9646515e-17
8.2627509e-17
7.980215e-17
7.9152071e-17
6.6160586e-17
5.7002408e-17
6.0081105e-17
5.5239085e-17
4.1953053e-17
3.6986311e-17
3.2540761e-17
2.5136354e-17
1.8959562e-17
6.6123782e-18
-6.8081261e-13
-1.033545e-12
-8.392899e-13
-7.9752806e-13
-7.493991e-13
-7.0313716e-13
-6.6536458e-13
-6.3523016e-13
-6.1093705e-13
-5.9052676e-13
-5.7244679e-13
-5.5560387e-13
-5.3912485e-13
-5.2220068e-13
-5.0397584e-13
-4.8343263e-13
-4.5934285e-13
-4.3018579e-13
-3.9436388e-13
-3.5055278e-13
-2.9813776e-13
-2.3765422e-13
-1.710355e-13
-1.0155645e-13
-3.3368362e-14
2.8951028e-14
8.1485966e-14
1.2214502e-13
1.506349e-13
1.6797198e-13
1.7589105e-13
1.7635293e-13
1.7126796e-13
1.6227455e-13
1.5073318e-13
1.3769209e-13
1.2392946e-13
1.100455e-13
9.6443722e-14
8.3440364e-14
7.1224957e-14
5.9902225e-14
4.9549132e-14
4.019427e-14
3.1830305e-14
2.4420923e-14
1.7937963e-14
1.2319928e-14
7.5102244e-15
3.4641589e-15
1.0989599e-16
-2.6218723e-15
-4.8061153e-15
-6.5044242e-15
-7.7700096e-15
-8.6610176e-15
-9.2191149e-15
-9.4950128e-15
-9.532969e-15
-9.3812743e-15
-9.0684464e-15
-8.6215797e-15
-8.0807866e-15
-7.474427e-15
-6.8282265e-15
-6.1578345e-15
-5.4772399e-15
-4.8077297e-15
-4.1573637e-15
-3.5389585e-15
-2.9621618e-15
-2.4184404e-15
-1.923323e-15
-1.4769562e-15
-1.0803085e-15
-7.3299571e-16
-4.2590114e-16
-1.6937665e-16
4.598255e-17
2.2402687e-16
3.5903684e-16
4.6431674e-16
5.4657716e-16
6.0246645e-16
6.2980953e-16
6.4135873e-16
6.4320886e-16
6.2440414e-16
5.9170789e-16
5.5847565e-16
5.1820077e-16
4.7445293e-16
4.2963944e-16
3.8176855e-16
3.3437963e-16
2.8826242e-16
2.4876999e-16
2.0579418e-16
1.6248552e-16
9.0725464e-17
3.1339119e-12
4.802302e-12
3.9072344e-12
3.7113865e-12
3.490055e-12
3.2689364e-12
3.0860228e-12
2.9387825e-12
2.8176135e-12
2.7124731e-12
2.6152682e-12
2.5197156e-12
2.4205048e-12
2.3123529e-12
2.1894918e-12
2.0461138e-12
1.8774951e-12
1.6811006e-12
1.4574225e-12
1.210545e-12
9.4808502e-13
6.8016406e-13
4.1760195e-13
1.7020419e-13
-5.3292212e-14
-2.4552708e-13
-4.0215599e-13
-5.2203685e-13
-6.0636772e-13
-6.5806823e-13
-6.8128979e-13
-6.8086937e-13
-6.6176154e-13
-6.2866941e-13
-5.857806e-13
-5.366361e-13
-4.841248e-13
-4.3050598e-13
-3.7750147e-13
-3.2637374e-13
-2.780182e-13