/*--------------------------------*- C++ -*----------------------------------*\
| =========                 |                                                 |
| \\      /  F ield         | OpenFOAM: The Open Source CFD Toolbox           |
|  \\    /   O peration     | Version:  2506                                  |
|   \\  /    A nd           | Website:  www.openfoam.com                      |
|    \\/     M anipulation  |                                                 |
\*---------------------------------------------------------------------------*/
FoamFile
{
    version     2.0;
    format      ascii;
    arch        "LSB;label=32;scalar=64";
    class       volVectorField;
    location    "25000/water";
    object      U;
}
// * * * * * * * * * * * * * * * * * * * * * * * * * * * * * * * * * * * * * //

dimensions      [0 1 -1 0 0 0 0];

internalField   nonuniform List<vector> 
1000
(
(0.25225587 -0.00012859767 3.0165473e-18)
(0.25226258 -0.00027067836 7.9048625e-19)
(0.25227485 -0.0004145054 1.7644603e-18)
(0.25228819 -0.00055572716 6.3858169e-19)
(0.25229018 -0.0006857579 6.7832473e-19)
(0.25223998 -0.00079863172 4.641392e-20)
(0.25200713 -0.00089615194 -2.2453783e-20)
(0.25115686 -0.0010460356 -3.1301355e-19)
(0.24780473 -0.0012820719 -9.4437502e-20)
(0.23308261 0.0010121611 -3.9091004e-19)
(0.25653043 -7.7330443e-05 2.1242325e-18)
(0.25653977 -0.0001890383 1.2825545e-18)
(0.25655871 -0.00029096536 2.1110146e-18)
(0.25657276 -0.00039024486 7.8128243e-19)
(0.25654377 -0.00048175038 6.5842824e-19)
(0.25636039 -0.00055898443 6.4208386e-20)
(0.25570613 -0.000605365 -9.7474882e-20)
(0.25355952 -0.00065441372 -4.8337829e-19)
(0.24574266 -0.00084724785 -2.3492585e-19)
(0.21968686 0.000257188 -4.1115745e-19)
(0.26021787 -7.3909966e-05 -3.541706e-19)
(0.26022468 -0.0001805983 1.3401152e-19)
(0.26023383 -0.00027741907 8.5971537e-19)
(0.26021807 -0.00037159736 2.9203284e-19)
(0.26010153 -0.00045735764 -2.2606839e-19)
(0.25968006 -0.00053044586 -1.4809443e-19)
(0.25840621 -0.00057093081 -2.1630306e-19)
(0.25452353 -0.00056554737 -4.5343223e-19)
(0.24186464 -0.00061987679 -4.5737574e-19)
(0.20839343 1.1252504e-05 -4.7242088e-19)
(0.26340527 -6.8945955e-05 6.3096621e-19)
(0.26340956 -0.00017058503 3.7810976e-19)
(0.26340597 -0.0002627922 1.0110422e-18)
(0.2633478 -0.00035138354 6.5397931e-19)
(0.26310913 -0.00042951118 -1.3485239e-19)
(0.26237282 -0.00049394956 -3.2941085e-19)
(0.26030372 -0.0005275091 -1.8127343e-19)
(0.25430845 -0.00049289786 -3.5527121e-19)
(0.23723183 -0.00045934117 -4.4809243e-19)
(0.19958845 -4.887573e-05 -4.7528603e-19)
(0.26641628 -6.4388932e-05 -1.1694369e-18)
(0.26641556 -0.00015946868 1.1442817e-18)
(0.266392 -0.00024539852 8.4118814e-19)
(0.26627267 -0.00032748759 7.2365481e-19)
(0.26586989 -0.0003979174 -4.7249867e-20)
(0.26472852 -0.00045250609 -8.5635039e-21)
(0.2616454 -0.0004736081 6.4446967e-20)
(0.25321246 -0.00041483682 -2.8848031e-19)
(0.23271017 -0.00033459134 -3.7971651e-19)
(0.19329518 -5.0632406e-05 -3.0044206e-19)
(0.26927574 -6.086752e-05 1.9025317e-19)
(0.26926716 -0.00015024327 6.816321e-19)
(0.26921481 -0.00023070445 7.6149354e-19)
(0.26901237 -0.00030702744 3.2252714e-19)
(0.26839647 -0.00037050024 -1.1235634e-19)
(0.26673517 -0.00041493301 1.7489143e-19)
(0.26236787 -0.00041871952 -4.0578673e-20)
(0.25136277 -0.00033835155 -2.6656307e-19)
(0.22869804 -0.00023662993 -1.6243106e-19)
(0.18902132 -3.9495186e-05 -2.1239523e-19)
(0.27197991 -5.8057533e-05 2.3111709e-18)
(0.27196007 -0.00014287135 2.3209274e-18)
(0.2718683 -0.00021894838 4.0089819e-20)
(0.2715565 -0.00029030367 3.3710828e-20)
(0.27066608 -0.00034729033 -5.9331498e-20)
(0.26833152 -0.00038068385 -4.5327429e-20)
(0.26239848 -0.00036437453 -3.2167909e-19)
(0.24902639 -0.00026852731 -2.6710493e-19)
(0.225361 -0.00016272932 -9.5872531e-20)
(0.18616827 -2.8775289e-05 -3.3352304e-19)
(0.27455816 -5.5861791e-05 2.7885265e-19)
(0.27452281 -0.00013703203 2.3006896e-18)
(0.27437849 -0.00020952008 -2.2832715e-20)
(0.27392443 -0.00027640502 -7.3969729e-20)
(0.27267857 -0.00032682113 1.6119476e-19)
(0.26947687 -0.0003473849 2.7610631e-19)
(0.26178467 -0.00031092768 4.9696726e-20)
(0.2465738 -0.0002081695 -1.3499816e-19)
(0.22271519 -0.00011050148 -3.2335976e-19)
(0.18425837 -2.0836677e-05 -2.979423e-19)
(0.27704027 -5.4085668e-05 6.8116642e-19)
(0.27698407 -0.00013225425 7.9595439e-19)
(0.27677058 -0.00020162559 1.0891741e-18)
(0.27613171 -0.00026417276 4.9374812e-20)
(0.27442314 -0.0003072058 1.8206503e-19)
(0.27014173 -0.00031294772 3.5151455e-19)
(0.26068999 -0.00025925765 1.2260786e-19)
(0.24429831 -0.00015836386 1.763041e-20)
(0.22067581 -7.5407835e-05 -4.3641866e-20)
(0.18296197 -1.515285e-05 -4.3026838e-20)
(0.27944341 -5.2555719e-05 1.7660003e-18)
(0.27935955 -0.00012814126 1.2281649e-18)
(0.27905543 -0.00019460739 3.0416754e-19)
(0.27817576 -0.00025259225 9.8433657e-20)
(0.27586798 -0.00028673447 -9.1396079e-20)
(0.27032645 -0.00027659199 -1.249787e-19)
(0.259335 -0.00021094006 -1.1697838e-19)
(0.24234213 -0.00011891182 -7.9135262e-20)
(0.21912381 -5.217164e-05 -5.2821561e-21)
(0.18206598 -1.0945522e-05 -1.0689527e-19)
(0.28177654 -5.1166648e-05 8.2185107e-19)
(0.28165619 -0.00012441967 -3.3302916e-19)
(0.28123331 -0.00018797291 -5.3507453e-19)
(0.28003902 -0.00024077451 6.1183217e-19)
(0.276974 -0.00026417648 1.3151301e-20)
(0.27008763 -0.00023880415 -9.1946481e-20)
(0.25792266 -0.00016762335 -1.7675839e-19)
(0.24073178 -8.8481631e-05 -1.5497763e-19)
(0.21795021 -3.6446117e-05 -2.1500381e-19)
(0.18143936 -7.6996031e-06 -1.3626347e-19)
(0.28404476 -4.9854755e-05 1.5024105e-18)
(0.28387626 -0.00012089417 1.1603385e-19)
(0.2832974 -0.00018132901 -1.1547115e-19)
(0.28169345 -0.00022787703 6.8614062e-19)
(0.27771474 -0.0002389738 3.8473084e-19)
(0.2695351 -0.00020087549 -7.3659878e-20)
(0.25659136 -0.00013036511 -2.2101257e-19)
(0.23943779 -6.5171429e-05 -6.1795148e-20)
(0.21706901 -2.5325627e-05 -1.4629e-19)
(0.18100324 -5.1222159e-06 -1.3782693e-19)
(0.28625048 -4.8572072e-05 2.1091966e-18)
(0.28601827 -0.00011740086 7.9980515e-19)
(0.28523427 -0.00017430177 2.4899586e-19)
(0.28310495 -0.00021314174 8.0140574e-19)
(0.2780944 -0.0002112904 6.1258922e-19)
(0.26879941 -0.00016439784 -1.4249094e-19)
(0.25541091 -9.9328949e-05 -6.8365793e-20)
(0.23841399 -4.7155295e-05 -1.0815291e-20)
(0.21641538 -1.7078553e-05 -7.8955092e-20)
(0.18070892 -3.0433335e-06 -1.2183303e-19)
(0.28839354 -4.727097e-05 1.3631772e-18)
(0.28807682 -0.00011377572 1.4541485e-18)
(0.28702342 -0.00016645968 5.2665122e-19)
(0.28424079 -0.00019602579 6.7137047e-19)
(0.2781555 -0.0001818851 4.9742478e-19)
(0.267996 -0.00013078942 2.5038037e-19)
(0.25440306 -7.3936753e-05 -1.5782908e-19)
(0.23761476 -3.3003486e-05 -1.6227023e-19)
(0.21594074 -1.071567e-05 -1.4180208e-19)
(0.18052449 -1.3525345e-06 -2.2334851e-19)
(0.29047097 -4.589146e-05 8.2007846e-19)
(0.29004194 -0.00010982906 3.2306194e-18)
(0.28863779 -0.00015729293 7.2814529e-19)
(0.28508025 -0.00017633843 -1.4568096e-20)
(0.27797083 -0.00015188721 3.6671619e-19)
(0.26720625 -0.00010094686 1.6611859e-19)
(0.253564 -5.3259045e-05 -4.2522491e-20)
(0.23700053 -2.1699014e-05 -1.705182e-19)
(0.21560862 -5.6599538e-06 -1.0102179e-19)
(0.18042759 3.3755022e-08 -6.3456727e-20)
(0.29247637 -4.4351544e-05 -4.2855609e-20)
(0.2918983 -0.00010531335 2.6550755e-19)
(0.29004631 -0.000146282 7.134246e-19)
(0.28562471 -0.00015430668 7.9454719e-19)
(0.27762409 -0.00012253991 3.9361509e-20)
(0.26647732 -7.514865e-05 -3.6132535e-20)
(0.25287922 -3.6358859e-05 1.3485061e-19)
(0.23653861 -1.2545621e-05 -2.3971603e-20)
(0.21539111 -1.528737e-06 -1.6607889e-20)
(0.18040204 1.2050176e-06 1.1926074e-19)
(0.294399 -4.2542622e-05 5.3312402e-19)
(0.2936244 -9.9894521e-05 1.3104581e-19)
(0.29121909 -0.00013303039 3.4256881e-19)
(0.28590174 -0.00013054574 9.7206009e-19)
(0.27719086 -9.4944712e-05 2.7720618e-19)
(0.26583134 -5.319905e-05 3.2047659e-19)
(0.25233096 -2.2453671e-05 1.6717853e-19)
(0.23620235 -5.0213689e-06 -5.5234905e-21)
(0.2152645 1.8965724e-06 -7.0422035e-20)
(0.18043772 2.1929673e-06 -1.6489698e-19)
(0.29622248 -4.0322206e-05 1.5663603e-18)
(0.29519258 -9.3155275e-05 -2.6954519e-19)
(0.29213504 -0.0001173931 1.2834453e-19)
(0.2859599 -0.00010594379 9.7478672e-19)
(0.27672823 -6.9857517e-05 4.4859197e-19)
(0.26527517 -3.4649461e-05 2.7148239e-19)
(0.2519011 -1.0910833e-05 1.8170857e-19)
(0.23596806 1.2318291e-06 9.1021829e-20)
(0.2152169 4.7058877e-06 -1.0081603e-19)
(0.18052212 2.9885027e-06 -1.0171775e-19)
(0.29792334 -3.7501206e-05 1.1343114e-18)
(0.29657068 -8.4660256e-05 1.6444242e-19)
(0.29278919 -9.9552075e-05 -9.4531311e-20)
(0.28585704 -8.149607e-05 1.6184974e-19)
(0.2762736 -4.7618957e-05 4.4571519e-19)
(0.26480715 -1.898314e-05 2.3385445e-19)
(0.25157194 -1.2529277e-06 -2.2950924e-19)
(0.23582161 6.4215679e-06 -8.9838755e-20)
(0.21523435 6.9898764e-06 -1.0561058e-19)
(0.18064611 3.6207799e-06 -1.9037396e-19)
(0.29946982 -3.384152e-05 -1.4691349e-18)
(0.29772603 -7.4079998e-05 1.6352443e-18)
(0.2931963 -8.0019429e-05 -6.7990718e-19)
(0.28564806 -5.8125389e-05 -1.7068121e-18)
(0.27584863 -2.8224329e-05 -1.5153484e-19)
(0.26442121 -5.6891028e-06 -4.5628831e-19)
(0.25132937 6.8574675e-06 -2.6242993e-19)
(0.23575038 1.0705952e-05 -8.5883376e-20)
(0.21530524 8.8458918e-06 -3.5857641e-22)
(0.18080243 4.1240129e-06 -2.6849734e-20)
(0.30082183 -2.9094743e-05 6.2067146e-19)
(0.29863174 -6.1331926e-05 1.5693418e-18)
(0.29338824 -5.9566752e-05 -2.3717368e-19)
(0.2853772 -3.6522008e-05 -1.054098e-18)
(0.27546385 -1.141641e-05 -6.2063118e-19)
(0.26410765 5.6172033e-06 -3.9769799e-19)
(0.2511654 1.36239e-05 -2.9926101e-19)
(0.23574182 1.4220036e-05 1.9357336e-20)
(0.21542012 1.0355131e-05 1.0054454e-19)
(0.1809852 4.5264604e-06 2.2264754e-19)
(0.30193372 -2.3108652e-05 2.8698627e-18)
(0.29927336 -4.6684557e-05 1.6372056e-18)
(0.29340603 -3.9091547e-05 2.4702266e-19)
(0.28507548 -1.7047599e-05 6.7902732e-19)
(0.27512089 3.0837586e-06 1.0055552e-18)
(0.26386445 1.5140041e-05 6.8845886e-19)
(0.25106783 1.9209406e-05 1.1662173e-20)
(0.23578541 1.7094176e-05 -1.3690406e-19)
(0.21557121 1.1580357e-05 -4.6333564e-20)
(0.18118949 4.847441e-06 -7.3750948e-21)
(0.30276108 -1.5976931e-05 -1.6053926e-18)
(0.29965285 -3.0773262e-05 4.8349442e-20)
(0.29329055 -1.9436617e-05 -8.4833363e-19)
(0.28476121 1.6722641e-07 -1.0187569e-18)
(0.27482457 1.5440104e-05 -3.5862972e-20)
(0.26368339 2.3070803e-05 -3.324984e-19)
(0.2510265 2.3801574e-05 3.7118149e-19)
(0.23587241 1.9433523e-05 5.2006813e-20)
(0.21575201 1.2564286e-05 -6.4897993e-20)
(0.18141109 5.0985831e-06 4.2546573e-20)
(0.30327131 -8.1280262e-06 8.4205144e-19)
(0.29978732 -1.4486533e-05 2.0399665e-18)
(0.29307477 -1.3061684e-06 -1.1746603e-19)
(0.28444919 1.5038676e-05 -9.9602845e-19)
(0.27457434 2.5803269e-05 -1.4945047e-18)
(0.26355616 2.9612998e-05 -9.0386337e-19)
(0.25103263 2.7544097e-05 -3.5607436e-19)
(0.23599544 2.1310845e-05 -4.2673023e-20)
(0.21595698 1.3335633e-05 6.6063711e-21)
(0.1816463 5.287166e-06 5.3914617e-20)
(0.30345394 -2.42597e-07 -9.3316741e-19)
(0.29970261 1.1323315e-06 5.2237008e-20)
(0.29278637 1.4661509e-05 3.2358109e-19)
(0.28414894 2.7525013e-05 -4.5672959e-19)
(0.27436561 3.4336187e-05 -8.4818287e-19)
(0.26347497 3.4929562e-05 -4.4094273e-19)
(0.25107852 3.0535917e-05 -4.6438187e-19)
(0.23614811 2.2774127e-05 -3.1810208e-19)
(0.2161813 1.3912619e-05 -3.8783531e-20)
(0.18189181 5.4171961e-06 1.3789018e-20)
(0.30332511 6.8807117e-06 -4.7822896e-18)
(0.29943294 1.4984322e-05 -3.5549327e-18)
(0.29244689 2.7993326e-05 -2.0239683e-18)
(0.28386233 3.7676169e-05 -1.9916046e-18)
(0.27419303 4.1186887e-05 -3.6855332e-19)
(0.26343258 3.9127894e-05 -1.3460202e-19)
(0.25115731 3.283622e-05 1.5312825e-19)
(0.23632476 2.384939e-05 -9.7435665e-20)
(0.21642058 1.4303037e-05 7.1350586e-20)
(0.18214445 5.4892123e-06 1.437675e-19)
(0.30293051 1.2606719e-05 1.5122283e-18)
(0.29901531 2.6252432e-05 -1.0751911e-18)
(0.29206924 3.850749e-05 -1.5256266e-18)
(0.28358876 4.5589532e-05 3.8306238e-20)
(0.27405096 4.6451984e-05 1.1770791e-18)
(0.26342221 4.2267122e-05 8.3127503e-19)
(0.25126272 3.4472598e-05 4.2820817e-19)
(0.23652016 2.4544091e-05 2.0052832e-19)
(0.21667065 1.450528e-05 -2.3077378e-21)
(0.18240107 5.5005914e-06 -1.551818e-20)
(0.30233164 1.6685997e-05 2.0541786e-18)
(0.29848532 3.4600559e-05 7.1663691e-19)
(0.29166294 4.6231189e-05 -4.9426782e-19)
(0.28332653 5.136019e-05 -1.6452536e-19)
(0.27393382 5.0195221e-05 3.6077493e-20)
(0.26343755 4.4378673e-05 -5.1746176e-20)
(0.25138895 3.5452986e-05 3.9240404e-21)
(0.23672935 2.4853622e-05 1.3604874e-19)
(0.21692739 1.4511723e-05 9.2695436e-21)
(0.18265838 5.4468594e-06 -2.5183642e-20)
(0.30159324 1.9181857e-05 1.2428981e-18)
(0.29787658 4.0084007e-05 2.9727987e-18)
(0.29123636 5.1326897e-05 8.9965931e-19)
(0.28307384 5.5102845e-05 2.5458951e-19)
(0.27383649 5.247798e-05 -9.4718296e-19)
(0.26347281 4.5486901e-05 -5.9712872e-19)
(0.25153053 3.5779079e-05 -3.8521457e-19)
(0.2369475 2.4769827e-05 1.9283601e-21)
(0.21718659 1.4313384e-05 1.5636887e-19)
(0.18291287 5.3233578e-06 1.3667657e-19)
(0.30077407 2.0343686e-05 -9.5346408e-20)
(0.29721993 4.3029349e-05 1.7109051e-18)
(0.29079788 5.406285e-05 4.7364083e-19)
(0.28282962 5.6974568e-05 5.238094e-19)
(0.27375459 5.3382221e-05 -7.0131642e-20)
(0.26352281 4.5627279e-05 9.2005309e-20)
(0.25168237 3.5460012e-05 -5.7733881e-20)
(0.23716992 2.4290236e-05 8.0610397e-20)
(0.21744402 1.3905199e-05 1.1445649e-19)
(0.18316091 5.1272043e-06 1.4491426e-19)
(0.29992223 2.0483535e-05 -3.1956898e-18)
(0.29654261 4.3898463e-05 -2.1328438e-18)
(0.29035625 5.4779996e-05 -2.0458765e-18)
(0.28259384 5.7181095e-05 -1.7605502e-18)
(0.27368474 5.3023539e-05 -6.363068e-19)
(0.26358306 4.4859636e-05 -7.4463628e-19)
(0.25183983 3.4523303e-05 -1.0269524e-19)
(0.23739211 2.3425754e-05 -1.0519557e-19)
(0.21769545 1.329047e-05 -1.1044486e-20)
(0.1833988 4.8588874e-06 6.6775693e-20)
(0.29907425 1.9896511e-05 1.9116486e-18)
(0.29586747 4.3178784e-05 -1.2250216e-18)
(0.28992021 5.3854254e-05 -3.6889348e-19)
(0.2823675 5.5968424e-05 2.9549853e-19)
(0.27362455 5.1553483e-05 1.0286102e-18)
(0.26364988 4.3274033e-05 4.3856183e-21)
(0.25199879 3.3020867e-05 -1.5120106e-19)
(0.23760991 2.2205318e-05 -2.2372802e-19)
(0.21793688 1.2483816e-05 -1.8468418e-19)
(0.18362305 4.5234656e-06 -1.1392124e-19)
(0.29825618 1.8825984e-05 2.5449433e-19)
(0.29521265 4.1315806e-05 -8.4105796e-19)
(0.28949798 5.1660752e-05 6.3791939e-19)
(0.28215236 5.3605128e-05 4.4115693e-19)
(0.27357255 4.9152346e-05 4.8957258e-19)
(0.26372034 4.0988597e-05 6.8226696e-20)
(0.25215571 3.1028828e-05 8.0186561e-20)
(0.23781959 2.0676188e-05 2.4117414e-20)
(0.21816472 1.151141e-05 -1.6898888e-19)
(0.18383053 4.1306014e-06 -1.1574427e-19)
(0.29748546 1.7457799e-05 6.7586256e-19)
(0.29459169 3.8683162e-05 2.412783e-18)
(0.2890967 4.8546804e-05 5.2450335e-19)
(0.28195054 5.0362503e-05 4.7530544e-20)
(0.27352798 4.6016689e-05 -1.0104328e-18)
(0.26379222 3.8141822e-05 -3.3861449e-19)
(0.25230768 2.8642634e-05 -3.0123832e-19)
(0.238018 1.8900825e-05 -9.910741e-20)
(0.21837592 1.0409228e-05 -6.9231599e-20)
(0.18401875 3.69393e-06 -1.3312036e-19)
(0.29677295 1.5927455e-05 1.4476232e-18)
(0.29401398 3.5576914e-05 2.1672757e-18)
(0.28872211 4.4815496e-05 6.0846681e-19)
(0.28176413 4.6497115e-05 6.4611452e-20)
(0.27349055 4.2345145e-05 -4.1580999e-19)
(0.26386388 3.4881674e-05 -1.3914308e-19)
(0.2524524 2.5968858e-05 -2.6269696e-19)
(0.23820263 1.6951003e-05 -1.0354445e-19)
(0.21856814 9.2193149e-06 -3.918752e-20)
(0.18418591 3.2294952e-06 1.2182596e-22)
(0.29612452 1.433099e-05 -6.2824303e-19)
(0.29348543 3.2222595e-05 -6.9071794e-19)
(0.28837836 4.0719158e-05 -3.6738676e-19)
(0.28159492 4.2238667e-05 -1.3681775e-18)
(0.27346018 3.8326094e-05 -9.7340517e-19)
(0.26393414 3.1354809e-05 -3.9049676e-19)
(0.25258815 2.3116412e-05 1.7281791e-19)
(0.23837163 1.4901285e-05 1.2613408e-19)
(0.21873983 7.9856836e-06 9.1676905e-20)
(0.18433104 2.7541045e-06 1.1981625e-19)
(0.29554249 1.2734971e-05 3.218782e-18)
(0.29300908 2.8786707e-05 3.6466076e-19)
(0.2880681 3.6459564e-05 3.0417228e-19)
(0.28144416 3.7783153e-05 1.4573834e-18)
(0.27343687 3.4128427e-05 1.0342134e-18)
(0.26400216 2.7697341e-05 6.9991883e-19)
(0.25271369 2.0188475e-05 2.8389891e-19)
(0.23852381 1.2822763e-05 8.1170454e-20)
(0.21889016 6.7501764e-06 5.2407611e-20)
(0.18445395 2.2835682e-06 -8.5071246e-20)
(0.29502662 1.1184599e-05 2.7472549e-19)
(0.29258577 2.5388893e-05 -2.2092811e-19)
(0.28779258 3.219249e-05 7.0891232e-19)
(0.28131254 3.3290914e-05 1.2583566e-18)
(0.27342052 2.9896333e-05 1.3348379e-18)
(0.26406733 2.4028704e-05 5.222314e-19)
(0.25282826 1.7276767e-05 1.4465556e-19)
(0.23865857 1.0778593e-05 9.7672873e-21)
(0.21901904 5.5496162e-06 -4.257779e-20)
(0.18455514 1.8315845e-06 -3.2935562e-20)
(0.29457491 9.7096826e-06 1.4673253e-18)
(0.29221471 2.2112591e-05 3.9577641e-18)
(0.28755189 2.8034041e-05 1.3578924e-18)
(0.28120013 2.8887902e-05 6.4058248e-19)
(0.2734109 2.5747313e-05 -2.2636837e-20)
(0.26412921 2.0448263e-05 1.7126296e-19)
(0.25293145 1.4458044e-05 -1.5602038e-19)
(0.23877584 8.8211829e-06 -8.093093e-20)
(0.21912697 4.4139959e-06 4.0969474e-20)
(0.18463571 1.4090404e-06 7.1275479e-20)
(0.29418416 8.3290172e-06 4.8446869e-18)
(0.2918939 1.9013865e-05 3.6467774e-18)
(0.28734517 2.4067516e-05 1.8330537e-18)
(0.2811065 2.4669029e-05 2.2219058e-18)
(0.27340761 2.1772781e-05 1.8712902e-18)
(0.26418744 1.7034481e-05 1.2359815e-18)
(0.25302315 1.1792848e-05 4.8695467e-19)
(0.238876 6.9911848e-06 1.3524437e-19)
(0.21921496 3.3659296e-06 7.2777105e-20)
(0.18469722 1.0238896e-06 -2.8014155e-22)
(0.29385041 7.0535088e-06 3.7387936e-18)
(0.2916205 1.6128309e-05 8.6171664e-19)
(0.28717086 2.0349821e-05 4.1252853e-18)
(0.28103079 2.0702405e-05 2.8582671e-18)
(0.27341011 1.8040203e-05 2.2200787e-18)
(0.26424176 1.3845743e-05 1.9126114e-18)
(0.25310353 9.325753e-06 1.3830551e-18)
(0.23895979 5.3176357e-06 7.9618626e-19)
(0.2192844 2.4208221e-06 5.2807225e-19)
(0.1847415 6.8128459e-07 1.026368e-19)
(0.29356926 5.8884214e-06 1.6041349e-18)
(0.29139115 1.3476347e-05 1.9642197e-18)
(0.28702688 1.6917056e-05 3.9837546e-18)
(0.28097177 1.7033735e-05 3.1664999e-18)
(0.27341772 1.459603e-05 1.9814257e-18)
(0.26429199 1.0922209e-05 1.9155364e-18)
(0.25317294 7.0865927e-06 1.5064845e-18)
(0.23902821 3.8188721e-06 1.0743756e-18)
(0.21933694 1.5875408e-06 6.4130785e-19)
(0.18477056 3.8389211e-07 2.4270509e-19)
(0.29333609 4.8349934e-06 3.4433531e-20)
(0.29120217 1.106728e-05 2.8912079e-18)
(0.2869108 1.3789268e-05 3.4091306e-18)
(0.28092798 1.3690579e-05 4.2870064e-18)
(0.27342969 1.1469017e-05 3.6165375e-18)
(0.26433799 8.2883383e-06 1.6682511e-18)
(0.2532319 5.0924391e-06 1.2647312e-18)
(0.23908248 2.5040675e-06 8.9338525e-19)
(0.2193744 8.6951128e-07 6.6885788e-19)
(0.18478651 1.3234459e-07 5.5512443e-19)
(0.29314622 3.8916112e-06 8.9381393e-19)
(0.29104971 8.9022742e-06 2.507992e-18)
(0.28681999 1.0974198e-05 2.748178e-18)
(0.28089783 1.0685952e-05 3.8446246e-18)
(0.27344523 8.6732425e-06 3.5712776e-18)
(0.26437967 5.955236e-06 2.1117304e-18)
(0.25328104 3.3492032e-06 1.5035487e-18)
(0.23912393 1.3740752e-06 1.0396593e-18)
(0.21939864 2.7065347e-07 7.6896496e-19)
(0.18479141 -7.0429026e-08 6.2014328e-19)
(0.29299503 3.0544776e-06 1.7817771e-18)
(0.29092994 6.9762133e-06 1.4855659e-18)
(0.28675174 8.4696749e-06 6.9101788e-19)
(0.28087962 8.0206471e-06 1.0940782e-18)
(0.27346351 6.2099449e-06 2.2922755e-18)
(0.26441702 3.9220424e-06 2.4875096e-18)
(0.25332109 1.8535167e-06 1.9149308e-18)
(0.23915392 4.2841156e-07 1.3121e-18)
(0.21941122 -2.1413435e-07 8.2396221e-19)
(0.18478763 -2.286002e-07 5.534724e-19)
(0.29287808 2.3183853e-06 2.4551144e-18)
(0.29083907 5.2796841e-06 2.9918608e-18)
(0.28670332 6.2664634e-06 2.9897583e-18)
(0.28087168 5.6865082e-06 1.1808165e-18)
(0.27348377 4.0710313e-06 9.1097022e-19)
(0.26445005 2.1802523e-06 2.124379e-18)
(0.25335275 6.0026452e-07 1.8148938e-18)
(0.23917355 -3.4237499e-07 1.5468765e-18)
(0.21941458 -6.0351716e-07 1.3223111e-18)
(0.18477674 -3.5347614e-07 8.1698873e-19)
(0.29279113 1.6773355e-06 1.5027415e-18)
(0.29077348 3.8006759e-06 1.5166447e-18)
(0.28667211 4.3508474e-06 1.3611989e-18)
(0.28087238 3.6697533e-06 1.3337614e-18)
(0.27350525 2.2434719e-06 1.6102744e-18)
(0.2644788 7.2030156e-07 1.8385809e-18)
(0.2533766 -4.2540147e-07 1.7142571e-18)
(0.23918483 -9.6178303e-07 1.501066e-18)
(0.21941032 -9.1170821e-07 1.1707714e-18)
(0.1847602 -4.5011039e-07 8.3296323e-19)
(0.29273021 1.124894e-06 1.7340778e-18)
(0.29072974 2.5255727e-06 1.0129788e-18)
(0.28665559 2.7063078e-06 2.0791925e-18)
(0.28088014 1.9537872e-06 3.3845622e-18)
(0.27352726 7.1373962e-07 3.51705e-18)
(0.26450319 -4.7692652e-07 1.7055475e-18)
(0.253394 -1.251692e-06 1.5916306e-18)
(0.23918903 -1.4495777e-06 1.3312527e-18)
(0.2193999 -1.1457006e-06 1.1712979e-18)
(0.1847394 -5.2039802e-07 1.0347718e-18)
(0.2926916 6.5450319e-07 2.5013626e-18)
(0.29070464 1.4402735e-06 2.4382943e-18)
(0.28665137 1.3163002e-06 3.3376853e-18)
(0.28089346 5.2276886e-07 3.3583109e-18)
(0.27354903 -5.4061819e-07 2.5144437e-18)
(0.2645239 -1.4428432e-06 1.7933119e-18)
(0.25340577 -1.9029e-06 1.6299997e-18)
(0.23918731 -1.8186791e-06 1.4907204e-18)
(0.21938464 -1.312381e-06 1.4171207e-18)
(0.18471557 -5.6676889e-07 1.1821592e-18)
(0.29267188 2.6006943e-07 5.1666023e-19)
(0.29069519 5.3181028e-07 2.1557525e-18)
(0.2866572 1.6361022e-07 4.9225495e-19)
(0.28091092 -6.4870186e-07 9.638281e-19)
(0.27357049 -1.5530087e-06 1.2630095e-18)
(0.26454117 -2.2048717e-06 1.7071028e-18)
(0.25341264 -2.3965769e-06 1.7894978e-18)
(0.23918075 -2.0815101e-06 1.5895847e-18)
(0.21936574 -1.4197547e-06 1.2978811e-18)
(0.18468981 -5.9221303e-07 1.0278275e-18)
(0.29266784 -6.4860994e-08 -3.0421187e-19)
(0.29069857 -2.1556013e-07 2.9097018e-18)
(0.28667106 -7.7673679e-07 2.9958597e-18)
(0.28093162 -1.5931544e-06 1.5013534e-18)
(0.27359124 -2.3516768e-06 1.0362439e-18)
(0.26455523 -2.7837344e-06 2.2717294e-18)
(0.25341533 -2.7497623e-06 2.0448906e-18)
(0.23917037 -2.2512644e-06 1.8775082e-18)
(0.21934428 -1.4761592e-06 1.5295302e-18)
(0.18466303 -5.9983409e-07 1.1062423e-18)
(0.29267662 -3.2826319e-07 5.6857344e-19)
(0.29071237 -8.2094412e-07 2.1829864e-18)
(0.28669129 -1.5310096e-06 2.9631479e-18)
(0.28095456 -2.335757e-06 2.5278067e-18)
(0.27361096 -2.9584744e-06 1.9557157e-18)
(0.26456635 -3.1997567e-06 2.0411967e-18)
(0.2534145 -2.9801828e-06 1.8234784e-18)
(0.23915704 -2.3412536e-06 1.7801227e-18)
(0.21932117 -1.489733e-06 1.5193518e-18)
(0.184636 -5.9266107e-07 1.1726788e-18)
(0.29269572 -5.3754941e-07 2.4056725e-18)
(0.29073444 -1.3007689e-06 1.7010252e-18)
(0.28671637 -2.119282e-06 1.6388631e-18)
(0.28097885 -2.897922e-06 2.1160748e-18)
(0.27362942 -3.3953018e-06 2.1119147e-18)
(0.26457478 -3.4737222e-06 1.7964215e-18)
(0.25341079 -3.105493e-06 1.7522621e-18)
(0.23914159 -2.3644379e-06 1.6164109e-18)
(0.21929721 -1.4683317e-06 1.525229e-18)
(0.18460936 -5.7369383e-07 1.2208049e-18)
(0.29272291 -6.9865293e-07 1.5234828e-18)
(0.29076286 -1.6687785e-06 1.8709595e-18)
(0.2867449 -2.5599454e-06 2.0167444e-18)
(0.28100374 -3.3007727e-06 1.0745974e-18)
(0.27364642 -3.6839322e-06 5.7631953e-19)
(0.26458082 -3.6258989e-06 1.2131679e-18)
(0.25340478 -3.1425814e-06 1.4859767e-18)
(0.23912471 -2.3330134e-06 1.5502026e-18)
(0.21927307 -1.4192431e-06 1.5251195e-18)
(0.18458361 -5.4571964e-07 1.2223433e-18)
(0.29275619 -8.1725076e-07 1.3482684e-19)
(0.29079594 -1.9381136e-06 1.7069577e-18)
(0.28677569 -2.8709086e-06 3.670306e-18)
(0.28102861 -3.5649649e-06 2.2951433e-18)
(0.27366186 -3.8454321e-06 2.0086078e-18)
(0.26458475 -3.6756021e-06 6.4313282e-19)
(0.253397 -3.1072823e-06 1.1896749e-18)
(0.23910702 -2.258227e-06 1.3328428e-18)
(0.21924929 -1.3491038e-06 1.1804437e-18)
(0.18455914 -5.1128222e-07 1.1341569e-18)
(0.29279383 -8.9869697e-07 2.0930929e-18)
(0.29083218 -2.1212702e-06 3.1046808e-18)
(0.2868077 -3.0693134e-06 4.8684495e-18)
(0.28105292 -3.7101883e-06 2.7384497e-18)
(0.27367569 -3.8996471e-06 2.1413778e-18)
(0.26458684 -3.6407399e-06 2.2801963e-18)
(0.25338791 -3.013989e-06 1.7754523e-18)
(0.23908903 -2.1500599e-06 1.5081689e-18)
(0.21922631 -1.2636468e-06 1.4599217e-18)
(0.18453623 -4.725113e-07 1.2148575e-18)
(0.29283431 -9.4803601e-07 2.3874138e-18)
(0.2908703 -2.2300542e-06 2.7156291e-18)
(0.28684008 -3.1713521e-06 6.7075629e-19)
(0.28107629 -3.7549081e-06 1.3883879e-18)
(0.27368789 -3.8649529e-06 1.5827726e-18)
(0.26458737 -3.5376079e-06 2.2770112e-18)
(0.25337793 -2.87552e-06 1.6702612e-18)
(0.23907116 -2.0171817e-06 1.5838217e-18)
(0.21920446 -1.1677154e-06 1.4657239e-18)
(0.18451508 -4.3113973e-07 1.1893924e-18)
(0.29287633 -9.6996787e-07 1.0580874e-18)
(0.29090921 -2.2754858e-06 1.8918279e-18)
(0.2868721 -3.1920957e-06 7.27764e-19)
(0.28109838 -3.7161637e-06 1.1549352e-18)
(0.27369849 -3.758074e-06 1.3955437e-18)
(0.26458661 -3.3807693e-06 1.6248885e-18)
(0.25336744 -2.7030792e-06 1.6031735e-18)
(0.23905376 -1.8669668e-06 1.5538751e-18)
(0.21918399 -1.0652889e-06 1.386767e-18)
(0.18449579 -3.8852115e-07 1.1800898e-18)
(0.29291878 -9.6885059e-07 1.7391872e-18)
(0.29094799 -2.2677704e-06 7.9814756e-19)
(0.28690318 -3.1454286e-06 8.9104542e-19)
(0.28111898 -3.6095021e-06 1.2150271e-18)
(0.27370756 -3.5940596e-06 6.9366396e-19)
(0.26458479 -3.1830996e-06 1.5695964e-18)
(0.25335672 -2.5063654e-06 1.6419279e-18)
(0.23903711 -1.7056445e-06 1.5599605e-18)
(0.21916506 -9.596292e-07 1.4257955e-18)
(0.18447843 -3.4572035e-07 1.2357097e-18)
(0.29296075 -9.4868653e-07 8.698333e-19)
(0.2909859 -2.2162732e-06 2.4625955e-18)
(0.28693286 -3.0440164e-06 3.7202773e-18)
(0.28113793 -3.4489604e-06 2.901074e-18)
(0.27371518 -3.3863052e-06 2.8007276e-18)
(0.26458215 -2.955862e-06 1.1762633e-18)
(0.25334605 -2.2936945e-06 1.4584853e-18)
(0.23902141 -1.5384353e-06 1.553475e-18)
(0.21914779 -8.5338962e-07 1.3250443e-18)
(0.184463 -3.0357168e-07 1.1524213e-18)
(0.29300149 -9.1314788e-07 1.7285437e-19)
(0.29102232 -2.1295581e-06 3.5979961e-18)
(0.28696077 -2.8993528e-06 4.8981382e-18)
(0.28115512 -3.2471421e-06 3.5179861e-18)
(0.27372146 -3.1466753e-06 2.6846396e-18)
(0.26457887 -2.7088718e-06 1.9612684e-18)
(0.25333564 -2.0721863e-06 1.7589312e-18)
(0.23900682 -1.3697288e-06 1.6437674e-18)
(0.21913222 -7.4876251e-07 1.6947297e-18)
(0.18444947 -2.6276185e-07 1.2731199e-18)
(0.2930404 -8.6556188e-07 1.870436e-18)
(0.29105679 -2.0153758e-06 1.6513784e-18)
(0.28698668 -2.7217672e-06 -1.1393291e-18)
(0.28117053 -3.0152492e-06 1.1299529e-18)
(0.27372649 -2.8855609e-06 1.7815828e-18)
(0.26457515 -2.4505792e-06 2.0272109e-18)
(0.25332564 -1.8478516e-06 1.7293531e-18)
(0.23899343 -1.2031496e-06 1.591716e-18)
(0.21911838 -6.4751233e-07 1.6229053e-18)
(0.18443776 -2.2383333e-07 1.3118973e-18)
(0.29307702 -8.0893949e-07 2.5828279e-18)
(0.29108896 -1.8807125e-06 3.3154623e-19)
(0.2870104 -2.5204893e-06 2.9262421e-19)
(0.28118415 -2.7631734e-06 1.0373886e-18)
(0.2737304 -2.6120061e-06 1.3284308e-18)
(0.26457113 -2.1882156e-06 1.8106364e-18)
(0.2533162 -1.6257396e-06 1.7233223e-18)
(0.23898131 -1.0416862e-06 1.7498516e-18)
(0.21910624 -5.5107029e-07 1.5882226e-18)
(0.1844278 -1.8722861e-07 1.3293869e-18)
(0.29311102 -7.4596419e-07 2.2266266e-18)
(0.29111858 -1.7317884e-06 6.3806967e-20)
(0.28703185 -2.3036707e-06 1.2733946e-18)
(0.28119602 -2.4995429e-06 1.3874121e-18)
(0.2737333 -2.3337755e-06 8.6387512e-19)
(0.26456696 -1.9278734e-06 1.8462722e-18)
(0.25330741 -1.410014e-06 1.9758839e-18)
(0.23897047 -8.8774506e-07 1.8036711e-18)
(0.21909574 -4.6056073e-07 1.5737375e-18)
(0.18441947 -1.5329509e-07 1.3616261e-18)
(0.29314217 -6.7899885e-07 8.3679965e-19)
(0.2911455 -1.5740744e-06 1.4846042e-18)
(0.28705098 -2.078419e-06 2.8058414e-18)
(0.2812062 -2.2317794e-06 2.1173895e-18)
(0.27373532 -2.0574302e-06 2.6757954e-18)
(0.26456274 -1.6745943e-06 1.3059042e-18)
(0.25329933 -1.2040388e-06 1.5976957e-18)
(0.23896091 -7.4321977e-07 1.4517666e-18)
(0.21908681 -3.7684529e-07 1.3643968e-18)
(0.18441265 -1.2229768e-07 1.2424077e-18)
(0.29317034 -6.1009853e-07 1.5497264e-18)
(0.29116965 -1.4123128e-06 2.5629914e-18)
(0.28706782 -1.8508284e-06 4.4928193e-18)
(0.2812148 -1.9661459e-06 2.7877967e-18)
(0.27373658 -1.7883962e-06 2.6576351e-18)
(0.26455857 -1.4324422e-06 2.0749261e-18)
(0.253292 -1.0104394e-06 1.6276225e-18)
(0.2389526 -6.0953075e-07 1.5686602e-18)
(0.21907934 -3.005489e-07 1.6832557e-18)
(0.18440721 -9.4434361e-08 1.2893394e-18)
(0.29319548 -5.4098905e-07 2.4174608e-19)
(0.29119103 -1.2504924e-06 1.8567317e-18)
(0.28708243 -1.6259687e-06 -6.2585726e-20)
(0.28122192 -1.7077476e-06 2.2292447e-18)
(0.27373718 -1.5309627e-06 2.4812673e-18)
(0.26455454 -1.2044926e-06 2.7617773e-18)
(0.25328544 -8.3107669e-07 2.1197666e-18)
(0.23894548 -4.8758025e-07 1.9678539e-18)
(0.21907322 -2.3199173e-07 1.70462e-18)
(0.18440303 -6.9769086e-08 1.3355422e-18)
(0.29321763 -4.7310753e-07 -3.795863e-19)
(0.2912097 -1.0919117e-06 1.9012357e-18)
(0.2870949 -1.4079546e-06 8.1453392e-19)
(0.28122767 -1.4606084e-06 2.1258131e-18)
(0.27373723 -1.28837e-06 1.9424846e-18)
(0.26455069 -9.9291775e-07 2.5700668e-18)
(0.25327965 -6.6711393e-07 2.2695409e-18)
(0.23893949 -3.7779621e-07 1.9627082e-18)
(0.21906835 -1.7122986e-07 1.630642e-18)
(0.18439994 -4.8265637e-08 1.352892e-18)
(0.29323685 -4.0758802e-07 2.1712859e-18)
(0.29122575 -9.3917216e-07 1.2817467e-18)
(0.28710538 -1.1999561e-06 1.391885e-18)
(0.28123219 -1.2277006e-06 4.6481289e-19)
(0.27373684 -1.0628407e-06 5.1781915e-19)
(0.26454708 -7.9900547e-07 1.7639719e-18)
(0.2532746 -5.190187e-07 1.9798784e-18)
(0.23893454 -2.8011492e-07 1.8877981e-18)
(0.21906459 -1.1800553e-07 1.610666e-18)
(0.18439783 -2.9731348e-08 1.3867004e-18)
(0.29325328 -3.4531311e-07 2.2372366e-18)
(0.29123933 -7.9427135e-07 1.4240276e-18)
(0.287114 -1.0043249e-06 3.5434698e-18)
(0.28123561 -1.0110955e-06 1.337144e-18)
(0.27373609 -8.5574446e-07 2.0436497e-18)
(0.26454375 -6.2333358e-07 9.8238509e-19)
(0.25327028 -3.8673117e-07 1.4925445e-18)
(0.23893056 -1.9412343e-07 1.6552651e-18)
(0.21906181 -7.1863647e-08 1.3913291e-18)
(0.18439655 -1.3895258e-08 1.259658e-18)