/*--------------------------------*- C++ -*----------------------------------*\
| =========                 |                                                 |
| \\      /  F ield         | OpenFOAM: The Open Source CFD Toolbox           |
|  \\    /   O peration     | Version:  2506                                  |
|   \\  /    A nd           | Website:  www.openfoam.com                      |
|    \\/     M anipulation  |                                                 |
\*---------------------------------------------------------------------------*/
FoamFile
{
    version     2.0;
    format      ascii;
    arch        "LSB;label=32;scalar=64";
    class       volScalarField;
    location    "23000/water";
    object      alphat;
}
// * * * * * * * * * * * * * * * * * * * * * * * * * * * * * * * * * * * * * //

dimensions      [1 -1 -1 0 0 0 0];

internalField   nonuniform List<scalar> 
2600
(
0.040489031
0.04048893
0.040488932
0.040488969
0.04048893
0.040488424
0.040485257
0.04046703
0.040362559
0.039762099
0.036475623
0.024118064
0.014862723
0.039376404
0.039376463
0.039376584
0.03937667
0.03937627
0.039373342
0.039357935
0.03928206
0.038918252
0.037247647
0.030707814
0.017504579
0.016810247
0.03845331
0.038453299
0.038453385
0.038453188
0.038451259
0.038441479
0.038397507
0.038208927
0.037432867
0.034484227
0.025768479
0.01464355
0.017680736
0.037674097
0.037673994
0.037673876
0.037672833
0.03766736
0.037643826
0.037549741
0.037190974
0.035896577
0.031717985
0.022022178
0.013507107
0.017935556
0.037006829
0.037006634
0.03700605
0.037003229
0.036991211
0.03694503
0.036777672
0.036201229
0.034343725
0.029136321
0.019390213
0.01332192
0.01787019
0.036428097
0.036427705
0.036426239
0.036420305
0.036397905
0.036319194
0.03605724
0.035231095
0.03281421
0.026833154
0.017684561
0.01376901
0.017658004
0.035920433
0.035919673
0.03591673
0.035905979
0.035868817
0.035747845
0.035374204
0.034281783
0.031338745
0.024847734
0.016751764
0.014701365
0.017395975
0.035470606
0.03546924
0.035464057
0.035446499
0.035390052
0.035218253
0.034721129
0.033357857
0.029935921
0.02320089
0.016491475
0.016024754
0.017137191
0.035068412
0.03506614
0.035057811
0.035031314
0.034951338
0.034722033
0.034094772
0.032463227
0.028616047
0.021918169
0.016839594
0.017644231
0.016909598
0.034705855
0.034702323
0.034689851
0.034652315
0.034545228
0.034254009
0.03349406
0.031599319
0.027389014
0.021039008
0.017742707
0.019446831
0.016725717
0.034376582
0.0343714
0.034353768
0.03430331
0.034166516
0.033811296
0.032918608
0.030765036
0.026274288
0.020612422
0.01913417
0.021310299
0.0165878
0.034075484
0.034068256
0.034044512
0.033979658
0.033811775
0.033392551
0.032367695
0.029958513
0.025310237
0.020682514
0.020920451
0.023125094
0.01649134
0.03379842
0.033788771
0.033758129
0.033677993
0.033478994
0.032997353
0.031839672
0.029180919
0.024557973
0.021270679
0.022983309
0.024813263
0.016428198
0.033542011
0.033529635
0.033491576
0.033396025
0.033167279
0.032625685
0.031331905
0.02844226
0.024095307
0.022362409
0.02519592
0.026333969
0.016389375
0.033303501
0.033288203
0.033242589
0.033132389
0.0328766
0.032277488
0.030841496
0.027768046
0.024001076
0.0239038
0.027443846
0.027676785
0.016366908
0.033080659
0.033062404
0.03300959
0.032886524
0.032607558
0.031952311
0.030367144
0.027204003
0.024336008
0.025808534
0.029640408
0.028850257
0.01635471
0.032871707
0.032850677
0.032791627
0.032658586
0.032361164
0.031649138
0.029912404
0.026815111
0.025128024
0.02797256
0.031731262
0.029871996
0.016348606
0.032675278
0.032651931
0.032588332
0.032449362
0.032138606
0.031366538
0.029490155
0.026676982
0.026366618
0.030291378
0.03368975
0.030762441
0.016345973
0.032490392
0.032465523
0.0323999
0.032260198
0.031941021
0.031103392
0.029127149
0.026861558
0.028006318
0.032674379
0.035508204
0.031541615
0.01634529
0.03231644
0.032291251
0.032227075
0.032092906
0.0317693
0.030860474
0.028866522
0.027422391
0.02997661
0.035052627
0.037189757
0.032227634
0.016345749
0.032153193
0.032129366
0.032071151
0.03194966
0.031623986
0.030643052
0.028765901
0.028384665
0.032194872
0.037379728
0.038742713
0.032836119
0.016346971
0.032000817
0.031980587
0.031933965
0.031832869
0.031505423
0.030464305
0.028890208
0.029742266
0.034578892
0.039628037
0.040177386
0.033380109
0.016348812
0.031859898
0.031846136
0.031817892
0.031745018
0.031414332
0.030348687
0.029300793
0.031461305
0.037056239
0.041783218
0.041504534
0.033870255
0.016351246
0.031731488
0.031727775
0.031725824
0.031688525
0.031353059
0.030333689
0.030044461
0.033487921
0.039569147
0.043839373
0.042734578
0.034315153
0.016354289
0.031617156
0.031627852
0.031661123
0.031665646
0.031327616
0.030468391
0.031145811
0.035757861
0.042075207
0.045795595
0.043877215
0.034721705
0.016357969
0.031519059
0.031549348
0.031627545
0.031678559
0.031350387
0.030808118
0.032604585
0.038205564
0.0445453
0.047653856
0.044941238
0.035095457
0.016362308
0.03144002
0.031495925
0.031629136
0.031729782
0.031442849
0.031406236
0.034397785
0.040771064
0.046960468
0.049417774
0.045934488
0.035440888
0.01636731
0.031383622
0.031471952
0.031670108
0.03182312
0.031637182
0.03230549
0.036485152
0.043403917
0.049308924
0.051091865
0.046863895
0.035761637
0.016372969
0.03135431
0.031482519
0.031754745
0.031965286
0.031975485
0.033531428
0.038816231
0.046064356
0.051583764
0.052681061
0.047735556
0.036060688
0.016379266
0.031357497
0.031533412
0.031887427
0.032168112
0.032505944
0.035089404
0.041337337
0.04872248
0.053781393
0.054190393
0.048554827
0.03634051
0.016386173
0.03139966
0.031631056
0.032072921
0.032450913
0.03327647
0.036965343
0.043997157
0.05135651
0.055900481
0.055624797
0.04932643
0.036603243
0.016393658
0.031488426
0.031782428
0.032317109
0.032842097
0.034327505
0.039129407
0.046750322
0.053950891
0.057941199
0.056988865
0.050054074
0.036848494
0.016401671
0.031632621
0.031994973
0.032628308
0.033378943
0.035685987
0.041541298
0.049558965
0.056494684
0.05990472
0.058286908
0.050741231
0.037078065
0.016410157
0.031842265
0.032276621
0.033019164
0.034104844
0.037361936
0.044155845
0.052392726
0.058980339
0.06179283
0.059522772
0.05139004
0.037294003
0.016419061
0.032128531
0.032636024
0.033508778
0.035064193
0.039348129
0.046927827
0.055227882
0.061402807
0.063607667
0.060699961
0.052002697
0.037497709
0.016428335
0.032503673
0.03308321
0.03412431
0.036296121
0.041622431
0.049815387
0.058046164
0.06375889
0.065351574
0.061821664
0.052582602
0.037690207
0.016437946
0.032981006
0.033630805
0.034901076
0.03782876
0.044151846
0.052781898
0.060833611
0.066046703
0.067026723
0.06288952
0.053132485
0.037872539
0.016447873
0.0335751
0.034295815
0.035880385
0.039675474
0.046897178
0.055796523
0.063579613
0.068265341
0.068635576
0.063907362
0.053654307
0.038045475
0.016458089
0.034302373
0.035101614
0.037105082
0.041833734
0.049817353
0.058833933
0.066276147
0.070414383
0.070179098
0.064878388
0.054149987
0.038209777
0.016468569
0.035182279
0.036079357
0.038613764
0.0442865
0.052872722
0.061873576
0.068917149
0.072493996
0.07166016
0.065805185
0.054621145
0.038366072
0.016479287
0.036239036
0.037267803
0.040435141
0.047005413
0.056027145
0.064898878
0.071497986
0.074503779
0.073081444
0.066690066
0.055069301
0.038514902
0.016490217
0.037503399
0.038710767
0.042584015
0.049954826
0.059248896
0.06789642
0.074015138
0.076444599
0.074445437
0.067535086
0.055495795
0.038656729
0.016501333
0.03901347
0.040452234
0.045059679
0.053095791
0.062510806
0.070855296
0.076465287
0.078317578
0.075754276
0.068342143
0.05590181
0.038791945
0.016512609
0.040813264
0.042530119
0.047846771
0.056389265
0.06578978
0.073766483
0.078846445
0.080124235
0.077009854
0.06911293
0.05628838
0.038920881
0.016524018
0.042948272
0.044970283
0.050918024
0.059798359
0.069066309
0.076621963
0.081156915
0.081865796
0.07821393
0.069848949
0.056656402
0.039043811
0.016535536
0.045458333
0.047782259
0.054237927
0.063289383
0.072323495
0.079415218
0.083396357
0.083543345
0.079368038
0.070551509
0.057006644
0.039160959
0.016547136
0.048369458
0.05095754
0.057766456
0.066832248
0.075546573
0.082140765
0.085564158
0.085157833
0.080473509
0.071221731
0.057339753
0.039272507
0.016558795
0.051686896
0.0544704
0.061462117
0.070399938
0.078722012
0.084794935
0.087659719
0.086710014
0.081531452
0.071860552
0.057656263
0.039378592
0.016570486
0.05539147
0.058280544
0.065283683
0.073967559
0.081839627
0.087374124
0.08968234
0.088200409
0.08254274
0.072468726
0.057956594
0.039479311
0.016582185
0.059440034
0.062336504
0.069190807
0.077514014
0.084890579
0.089874883
0.091631147
0.089629281
0.083508002
0.073046818
0.058241059
0.039574721
0.016593868
0.063769467
0.066579721
0.073146296
0.081021471
0.087866729
0.092293796
0.093505036
0.090996607
0.084427611
0.073595212
0.058509862
0.039664839
0.016605507
0.068304146
0.070949118
0.077116109
0.084473698
0.090760466
0.094627412
0.095302651
0.092302069
0.085301684
0.074114101
0.058763098
0.039749641
0.016617075
0.07296393
0.075384315
0.081068506
0.087855755
0.093564597
0.096872221
0.097022383
0.093545059
0.086130086
0.074603496
0.059000758
0.039829066
0.016628545
0.077671177
0.079828325
0.08497401
0.091153794
0.096272299
0.09902468
0.098662407
0.094724705
0.086912444
0.075063235
0.05922273
0.039903013
0.016639884
0.082355808
0.084229545
0.088805505
0.094354975
0.098877134
0.10108128
0.10022074
0.09583992
0.08764818
0.075493001
0.059428813
0.039971348
0.016651062
0.086958177
0.088543055
0.092538465
0.09744748
0.10137311
0.10303862
0.10169535
0.096889469
0.088336559
0.07589235
0.059618728
0.040033911
0.016662041
0.091430071
0.092731256
0.096151237
0.10042061
0.10375478
0.10489358
0.10308426
0.097872064
0.088976749
0.07626075
0.059792143
0.040090518
0.016672786
0.095734372
0.09676394
0.099625286
0.10326492
0.10601734
0.1066434
0.10438565
0.098786464
0.089567895
0.076597627
0.059948695
0.040140979
0.016683256
0.099843932
0.10061793
0.10294535
0.10597239
0.10815679
0.10828581
0.10559803
0.099631581
0.090109205
0.076902423
0.060088021
0.040185106
0.016693412
0.10374011
0.10427643
0.10609949
0.1085365
0.11016995
0.10981914
0.10672032
0.10040659
0.090600025
0.077174649
0.060209797
0.040222728
0.016703211
0.10741128
0.1077282
0.10907893
0.11095234
0.11205464
0.11124242
0.10775191
0.10111099
0.091039923
0.077413946
0.060313765
0.040253709
0.016712613
0.11085138
0.11096674
0.11187793
0.11321664
0.11380963
0.11255537
0.10869279
0.10174474
0.091428755
0.077620135
0.060399771
0.040277955
0.016721579
0.11405875
0.11398941
0.11449344
0.11532768
0.11543471
0.11375851
0.10954355
0.10230823
0.091766715
0.077793262
0.060467795
0.040295434
0.01673007
0.1170351
0.11679673
0.11692478
0.11728526
0.11693062
0.11485306
0.11030538
0.10280237
0.092054372
0.077933631
0.060517969
0.040306184
0.016738054
0.1197847
0.11939171
0.11917334
0.11909056
0.11829905
0.11584097
0.11098008
0.10322857
0.092292685
0.078041823
0.060550595
0.040310317
0.016745503
0.1223137
0.12177926
0.12124219
0.12074595
0.11954253
0.11672486
0.11157001
0.10358869
0.092483003
0.078118702
0.060566153
0.040308026
0.016752393
0.12462969
0.1239658
0.12313582
0.12225492
0.12066434
0.11750792
0.11207804
0.10388508
0.092627044
0.078165409
0.060565296
0.040299581
0.016758707
0.12674121
0.12595882
0.12485981
0.1236218
0.12166844
0.11819387
0.11250748
0.10412048
0.092726867
0.078183345
0.060548846
0.040285326
0.016764436
0.12865752
0.12776658
0.12642062
0.12485172
0.12255933
0.11878688
0.11286206
0.10429795
0.092784827
0.078174141
0.06051777
0.040265672
0.016769576
0.1303883
0.1293979
0.12782534
0.12595036
0.12334197
0.11929145
0.11314576
0.10442085
0.092803526
0.078139621
0.060473163
0.040241084
0.01677413
0.13194349
0.13086194
0.12908154
0.12692388
0.12402167
0.11971237
0.11336285
0.10449276
0.092785762
0.07808177
0.060416221
0.04021207
0.016778109
0.13333311
0.13216803
0.13019709
0.12777872
0.12460401
0.12005462
0.11351771
0.1045174
0.092734473
0.078002682
0.060348214
0.040179166
0.016781527
0.13456717
0.13332554
0.13118
0.12852158
0.12509474
0.12032331
0.11361487
0.10449859
0.092652684
0.077904528
0.060270456
0.040142926
0.016784406
0.13565557
0.13434381
0.13203837
0.12915923
0.12549968
0.12052359
0.11365886
0.10444019
0.09254346
0.077789509
0.060184281
0.040103907
0.016786769
0.136608
0.13523203
0.13278026
0.1296985
0.1258247
0.12066063
0.11365421
0.10434603
0.092409855
0.077659823
0.060091014
0.040062657
0.016788646
0.13743391
0.13599917
0.13341362
0.13014616
0.12607562
0.12073952
0.11360538
0.10421991
0.092254881
0.07751763
0.059991954
0.040019707
0.016790067
0.13814248
0.13665399
0.13394624
0.13050887
0.12625817
0.12076527
0.11351675
0.1040655
0.092081467
0.077365027
0.05988835
0.039975562
0.016791064
0.13874251
0.13720491
0.13438567
0.13079316
0.12637796
0.12074278
0.11339256
0.10388639
0.091892435
0.077204023
0.059781392
0.039930695
0.016791671
0.1392425
0.13766008
0.13473925
0.13100535
0.12644044
0.12067676
0.11323687
0.10368597
0.091690476
0.077036523
0.059672193
0.039885539
0.016791922
0.13965055
0.13802727
0.13501401
0.13115157
0.12645087
0.12057176
0.11305359
0.10346751
0.091478134
0.07686431
0.059561783
0.039840491
0.016791851
0.1399744
0.13831391
0.1352167
0.13123769
0.1264143
0.12043213
0.11284644
0.10323409
0.091257795
0.076689042
0.059451106
0.039795904
0.016791492
0.1402214
0.13852708
0.13535377
0.13126934
0.12633556
0.120262
0.11261893
0.10298857
0.091031677
0.07651224
0.059341014
0.039752088
0.016790876
0.14039852
0.1386735
0.13543134
0.13125188
0.12621926
0.12006529
0.11237436
0.10273366
0.090801828
0.076335288
0.059232267
0.039709314
0.016790036
0.14051234
0.1387595
0.13545523
0.13119039
0.12606975
0.11984572
0.11211583
0.10247184
0.09057012
0.076159435
0.059125533
0.039667811
0.016789
0.14056908
0.13879109
0.13543091
0.13108969
0.12589115
0.11960676
0.11184622
0.10220542
0.090338257
0.075985791
0.059021394
0.03962777
0.016787797
0.14057457
0.13877391
0.13536357
0.13095432
0.12568736
0.11935167
0.1115682
0.1019365
0.090107765
0.07581532
0.058920297
0.039589131
0.016786452
0.14053431
0.13871324
0.13525807
0.13078857
0.12546199
0.11908348
0.11128424
0.10166698
0.089880001
0.075648849
0.0588226
0.039551848
0.016784986
0.14045342
0.13861404
0.13511897
0.13059643
0.12521846
0.11880501
0.11099659
0.10139857
0.089656141
0.075487018
0.058728325
0.039516212
0.016783418
0.1403367
0.13848095
0.13495053
0.13038164
0.12495994
0.11851885
0.11070732
0.10113282
0.089437214
0.075330411
0.058637816
0.03948235
0.016781769
0.14018861
0.13831829
0.13475672
0.13014768
0.12468934
0.1182274
0.11041827
0.10087105
0.089224015
0.075179156
0.058551511
0.039450356
0.016780058
0.1400133
0.13813005
0.13454122
0.12989779
0.12440939
0.11793282
0.1101311
0.1006144
0.089017182
0.075033953
0.058469559
0.039420282
0.016778305
0.1398146
0.13791995
0.13430747
0.12963494
0.12412256
0.11763708
0.10984728
0.10036388
0.088817261
0.074895265
0.058392086
0.03939216
0.016776527
0.13959607
0.13769144
0.13405861
0.1293619
0.12383112
0.11734196
0.10956804
0.10012011
0.088625056
0.074763342
0.058319176
0.039366003
0.01677474
0.13936098
0.13744766
0.13379755
0.12908116
0.12353713
0.117049
0.10929443
0.099884074
0.088441035
0.074638362
0.058250865
0.039341802
0.016772956
0.13911234
0.13719152
0.13352694
0.12879504
0.12324243
0.11675955
0.10902745
0.099656541
0.088265541
0.074520438
0.05818715
0.039319529
0.016771188
0.13885289
0.13692568
0.1332492
0.12850558
0.12294863
0.11647476
0.10876816
0.099438065
0.088098827
0.074409627
0.058127994
0.039299144
0.016769446
0.13858514
0.13665254
0.13296653
0.1282146
0.12265711
0.11619596
0.10851737
0.09922908
0.08794106
0.074305926
0.058073329
0.039280592
0.016767739
0.13831137
0.13637428
0.13268083
0.12792373
0.1223694
0.1159242
0.10827572
0.099029915
0.087792331
0.074209287
0.058023059
0.03926381
0.016766074
0.13803356
0.1360928
0.1323939
0.12763463
0.12208677
0.11566035
0.10804374
0.098840805
0.087652663
0.074119614
0.057977068
0.039248728
0.016764457
0.13775358
0.13580993
0.13210745
0.12734873
0.12181033
0.11540518
0.10782187
0.098661899
0.087522017
0.074036776
0.057935218
0.03923527
0.016762893
0.13747313
0.13552732
0.13182299
0.12706734
0.12154105
0.11515931
0.10761041
0.098493268
0.087400301
0.07396061
0.05789736
0.039223358
0.016761388
0.13719375
0.1352465
0.13154191
0.12679157
0.12127976
0.11492326
0.1074096
0.098334915
0.087287378
0.073890926
0.057863332
0.039212909
0.016759943
0.13691687
0.1349688
0.13126543
0.12652242
0.12102716
0.11469743
0.10721957
0.098186782
0.087183068
0.073827509
0.057832961
0.03920384
0.016758561
0.13664373
0.13469546
0.13099461
0.12626075
0.12078385
0.11448214
0.1070404
0.098048753
0.087087156
0.07377013
0.057806072
0.039196068
0.016757245
0.13637549
0.13442756
0.13073043
0.12600732
0.12055032
0.11427761
0.10687208
0.097920668
0.086999399
0.073718542
0.057782484
0.039189511
0.016755996
0.13611314
0.13416603
0.13047369
0.12576273
0.12032695
0.11408399
0.10671455
0.09780232
0.086919527
0.073672488
0.057762012
0.039184086
0.016754814
0.13585756
0.13391172
0.13022511
0.12552753
0.12011403
0.11390135
0.10656769
0.097693469
0.086847249
0.073631704
0.057744472
0.039179713
0.0167537
0.13560952
0.13366534
0.1299853
0.12530214
0.11991179
0.11372968
0.10643134
0.097593841
0.086782259
0.073595918
0.057729682
0.039176313
0.016752653
0.13536968
0.13342751
0.12975476
0.12508688
0.11972035
0.11356894
0.10630528
0.097503133
0.086724237
0.073564856
0.057717458
0.03917381
0.016751674
0.13513859
0.13319874
0.1295339
0.12488203
0.11953979
0.11341901
0.10618927
0.097421025
0.086672853
0.073538244
0.057707623
0.03917213
0.01675076
0.13491671
0.13297945
0.12932304
0.12468774
0.11937011
0.11327973
0.10608302
0.097347172
0.086627771
0.073515807
0.057700001
0.039171202
0.016749912
0.1347044
0.13276996
0.12912242
0.12450412
0.11921125
0.1131509
0.10598623
0.09728122
0.086588649
0.073497275
0.057694423
0.039170958
0.016749127
0.13450196
0.13257053
0.12893221
0.12433122
0.11906309
0.11303227
0.10589856
0.097222802
0.086555148
0.073482381
0.057690723
0.039171334
0.016748404
0.13430959
0.13238133
0.12875249
0.124169
0.11892549
0.11292357
0.10581966
0.09717154
0.086526926
0.073470862
0.057688742
0.039172266
0.016747741
0.13412742
0.13220246
0.12858331
0.12401738
0.11879823
0.11282448
0.10574915
0.097127054
0.086503642
0.073462461
0.057688327
0.039173697
0.016747136
0.13395553
0.13203397
0.12842463
0.12387623
0.11868107
0.11273468
0.10568665
0.097088959
0.086484963
0.07345693
0.057689328
0.039175569
0.016746588
0.13379391
0.13187582
0.12827636
0.12374538
0.11857375
0.1126538
0.10563177
0.09705687
0.086470557
0.073454024
0.057691603
0.039177828
0.016746093
0.13364252
0.13172796
0.12813837
0.1236246
0.11847594
0.11258148
0.1055841
0.097030402
0.086460099
0.073453509
0.057695016
0.039180424
0.01674565
0.13350126
0.13159024
0.12801048
0.12351365
0.11838732
0.11251731
0.10554324
0.097009175
0.086453275
0.073455159
0.057699437
0.039183309
0.016745256
0.13336997
0.13146251
0.12789248
0.12341223
0.11830753
0.11246092
0.10550877
0.096992815
0.086449777
0.073458756
0.057704744
0.039186438
0.016744908
0.13324847
0.13134455
0.12778411
0.12332004
0.11823621
0.11241189
0.10548031
0.096980958
0.086449312
0.073464096
0.057710823
0.039189771
0.016744605
0.13313653
0.13123612
0.1276851
0.12323674
0.11817298
0.11236981
0.10545744
0.09697325
0.086451597
0.073470985
0.057717565
0.039193269
0.016744343
0.13303392
0.13113697
0.12759513
0.12316198
0.11811745
0.11233429
0.10543979
0.096969347
0.086456362
0.073479238
0.057724873
0.039196899
0.01674412
0.13294033
0.13104678
0.12751389
0.12309541
0.11806921
0.11230491
0.10542696
0.096968917
0.08646335
0.073488683
0.057732654
0.039200629
0.016743934
0.13285547
0.13096524
0.12744103
0.12303663
0.11802787
0.11228127
0.10541857
0.096971641
0.086472315
0.073499158
0.057740822
0.039204431
0.016743782
0.13277902
0.13089203
0.12737619
0.12298527
0.11799303
0.11226298
0.10541428
0.09697721
0.086483023
0.073510508
0.057749295
0.039208277
0.016743663
0.13271062
0.13082677
0.12731899
0.12294092
0.11796428
0.11224963
0.10541371
0.096985324
0.086495249
0.073522586
0.057757996
0.039212141
0.016743574
0.13264993
0.13076912
0.12726906
0.1229032
0.11794121
0.11224085
0.10541652
0.096995697
0.086508778
0.073535252
0.057766853
0.039215997
0.016743513
0.13259657
0.13071868
0.12722599
0.12287169
0.11792342
0.11223625
0.10542236
0.097008053
0.086523407
0.073548376
0.057775798
0.039219823
0.016743477
0.13255016
0.13067508
0.1271894
0.12284599
0.11791053
0.11223546
0.10543093
0.09702213
0.086538943
0.073561835
0.057784768
0.039223598
0.016743464
0.13251033
0.13063792
0.1271589
0.12282571
0.11790213
0.11223813
0.10544191
0.097037681
0.086555208
0.073575517
0.057793706
0.039227303
0.016743471
0.1324767
0.13060684
0.12713409
0.12281046
0.11789787
0.11224391
0.10545501
0.097054477
0.08657204
0.073589322
0.057802564
0.039230922
0.016743497
0.13244889
0.13058144
0.12711459
0.12279987
0.11789738
0.11225249
0.10546995
0.09707231
0.086589292
0.073603162
0.0578113
0.039234446
0.01674354
0.13242654
0.13056137
0.12710003
0.12279357
0.11790032
0.11226357
0.1054865
0.097090986
0.086606833
0.073616959
0.057819881
0.039237865
0.016743597
0.13240928
0.13054625
0.12709006
0.12279122
0.11790638
0.11227685
0.10550441
0.097110332
0.086624545
0.073630649
0.057828278
0.039241174
0.016743668
0.13239677
0.13053574
0.12708433
0.12279247
0.11791524
0.11229208
0.10552348
0.097130189
0.086642323
0.073644173
0.057836469
0.039244369
0.016743751
0.13238865
0.1305295
0.12708249
0.12279701
0.11792661
0.112309
0.10554349
0.097150408
0.086660072
0.073657479
0.057844433
0.039247447
0.016743845
0.13238459
0.13052717
0.12708421
0.12280452
0.11794021
0.11232738
0.10556427
0.09717085
0.086677701
0.073670517
0.057852147
0.039250384
0.016743948
0.13238425
0.13052842
0.12708917
0.1228147
0.11795575
0.11234697
0.10558562
0.097191383
0.086695124
0.073683238
0.057859586
0.039253164
0.016744059
0.13238729
0.13053293
0.12709704
0.12282724
0.11797298
0.11236756
0.10560737
0.09721188
0.086712257
0.073695591
0.05786671
0.039255796
0.016744177
0.13239338
0.13054037
0.12710751
0.12284184
0.11799163
0.11238892
0.10562935
0.09723222
0.086729022
0.073707533
0.057873502
0.03925828
0.016744299
0.1324022
0.1305504
0.12712026
0.12285823
0.11801146
0.11241086
0.10565141
0.097252289
0.086745341
0.073719
0.057879963
0.039260615
0.016744425
0.13241343
0.13056273
0.127135
0.12287614
0.11803223
0.11243318
0.10567339
0.097271986
0.08676115
0.073729972
0.057886083
0.0392628
0.016744553
0.13242677
0.13057706
0.12715146
0.1228953
0.11805372
0.11245571
0.10569518
0.097291215
0.086776374
0.07374044
0.057891855
0.039264837
0.016744682
0.13244193
0.1305931
0.12716935
0.12291547
0.11807573
0.11247829
0.10571664
0.097309892
0.086790993
0.073750387
0.057897278
0.039266726
0.016744812
0.13245866
0.13061061
0.12718845
0.12293646
0.11809808
0.11250078
0.10573768
0.097327954
0.086804986
0.073759804
0.057902352
0.039268473
0.016744941
0.1324767
0.13062933
0.12720853
0.12295805
0.11812061
0.11252305
0.1057582
0.097345373
0.086818335
0.073768691
0.057907087
0.039270083
0.016745069
0.13249584
0.13064905
0.12722938
0.12298007
0.11814318
0.11254499
0.10577815
0.097362118
0.08683103
0.073777053
0.057911491
0.039271563
0.016745195
0.13251587
0.13066958
0.12725082
0.12300236
0.11816565
0.11256652
0.10579749
0.097378167
0.086843069
0.073784898
0.057915576
0.03927292
0.016745319
0.13253659
0.13069073
0.12727268
0.12302476
0.1181879
0.11258757
0.10581617
0.097393503
0.086854454
0.073792239
0.057919356
0.039274162
0.016745441
0.13255784
0.13071231
0.12729478
0.12304714
0.11820985
0.11260807
0.10583417
0.097408114
0.086865189
0.073799087
0.057922842
0.039275296
0.01674556
0.13257943
0.13073416
0.12731699
0.12306938
0.1182314
0.11262797
0.10585143
0.097421988
0.086875277
0.073805453
0.057926044
0.039276325
0.016745677
0.1326012
0.13075614
0.12733916
0.12309137
0.11825248
0.1126472
0.10586794
0.097435117
0.086884722
0.073811347
0.057928972
0.039277254
0.01674579
0.13262301
0.13077808
0.12736117
0.12311301
0.11827299
0.11266572
0.10588367
0.097447491
0.086893528
0.073816778
0.057931633
0.039278087
0.016745901
0.1326447
0.13079986
0.12738289
0.12313418
0.11829286
0.11268347
0.10589859
0.097459102
0.086901697
0.073821752
0.057934034
0.039278825
0.016746008
0.13266615
0.13082135
0.12740422
0.1231548
0.11831203
0.11270042
0.10591267
0.097469943
0.086909234
0.073826277
0.057936179
0.03927947
0.01674611
0.13268725
0.13084245
0.12742504
0.12317478
0.11833044
0.11271652
0.10592591
0.097480013
0.086916143
0.073830361
0.057938076
0.039280024
0.016746208
0.13270788
0.13086304
0.12744527
0.12319406
0.11834803
0.11273175
0.10593829
0.097489315
0.086922436
0.073834015
0.057939731
0.03928049
0.016746301
0.13272797
0.13088305
0.12746485
0.12321257
0.11836477
0.11274609
0.10594981
0.09749786
0.086928128
0.073837254
0.057941155
0.039280871
0.016746388
0.13274744
0.13090241
0.12748371
0.12323029
0.11838064
0.11275954
0.10596049
0.097505665
0.086933238
0.073840094
0.057942358
0.039281173
0.01674647
0.13276626
0.13092109
0.12750182
0.12324718
0.11839563
0.11277211
0.10597033
0.097512757
0.086937792
0.073842558
0.057943355
0.0392814
0.016746547
0.13278439
0.13093905
0.12751916
0.12326324
0.11840976
0.11278381
0.10597938
0.097519166
0.086941821
0.073844669
0.057944162
0.039281561
0.016746617
0.13280181
0.13095627
0.12753571
0.12327847
0.11842302
0.11279468
0.10598766
0.097524931
0.086945359
0.073846455
0.057944796
0.039281663
0.016746683
0.13281852
0.13097276
0.12755149
0.12329288
0.11843546
0.11280474
0.10599522
0.097530092
0.086948443
0.073847944
0.057945274
0.039281713
0.016746744
0.13283451
0.13098852
0.1275665
0.12330649
0.11844709
0.11281404
0.10600209
0.097534691
0.08695111
0.073849165
0.057945616
0.03928172
0.0167468
0.1328498
0.13100354
0.12758075
0.12331932
0.11845795
0.1128226
0.10600832
0.09753877
0.086953397
0.073850146
0.057945839
0.03928169
0.016746852
0.13286437
0.13101783
0.12759425
0.12333139
0.11846806
0.11283048
0.10601395
0.097542366
0.086955335
0.073850911
0.057945956
0.039281631
0.0167469
0.13287821
0.13103139
0.127607
0.12334271
0.11847745
0.1128377
0.10601902
0.097545514
0.086956954
0.073851481
0.057945983
0.039281546
0.016746945
0.13289133
0.13104422
0.127619
0.12335329
0.11848613
0.11284427
0.10602354
0.097548239
0.086958277
0.073851875
0.057945928
0.039281441
0.016746987
0.13290369
0.13105628
0.12763025
0.12336312
0.11849412
0.11285023
0.10602754
0.097550564
0.086959323
0.073852105
0.0579458
0.039281318
0.016747026
0.13291527
0.13106757
0.12764072
0.12337222
0.11850141
0.11285557
0.10603104
0.097552503
0.086960105
0.073852181
0.057945603
0.039281176
0.016747062
0.13292606
0.13107806
0.12765041
0.12338056
0.11850801
0.11286031
0.10603404
0.097554066
0.086960631
0.073852107
0.057945338
0.039281015
0.016747094
0.13293602
0.13108773
0.12765931
0.12338814
0.11851392
0.11286445
0.10603656
0.097555261
0.086960906
0.073851886
0.057945005
0.039280834
0.016747124
0.13294514
0.13109658
0.12766739
0.12339496
0.11851914
0.112868
0.10603859
0.097556094
0.086960935
0.07385152
0.057944603
0.039280631
0.01674715
0.13295342
0.13110459
0.12767466
0.12340102
0.11852368
0.11287096
0.10604015
0.097556573
0.086960724
0.073851012
0.057944133
0.039280404
0.016747172
0.13296087
0.13111178
0.12768115
0.12340634
0.11852755
0.11287335
0.10604125
0.097556715
0.086960283
0.073850367
0.057943595
0.039280152
0.01674719
0.13296754
0.13111819
0.12768687
0.12341095
0.11853079
0.11287522
0.10604193
0.097556541
0.086959629
0.073849595
0.057942994
0.039279876
0.016747203
0.13297346
0.13112386
0.12769189
0.12341491
0.11853345
0.11287659
0.10604223
0.097556081
0.086958783
0.073848709
0.057942336
0.039279578
0.016747213
0.13297872
0.13112887
0.12769626
0.12341826
0.11853559
0.11287753
0.10604218
0.097555378
0.086957778
0.073847731
0.057941634
0.039279264
0.016747219
0.13298339
0.1311333
0.12770007
0.1234211
0.11853727
0.1128781
0.10604186
0.097554481
0.086956652
0.073846689
0.057940905
0.039278942
0.016747221
0.13298757
0.13113723
0.1277034
0.12342351
0.11853859
0.11287838
0.10604133
0.097553447
0.08695545
0.073845615
0.057940169
0.039278621
0.016747221
0.13299132
0.13114074
0.12770633
0.12342556
0.11853962
0.11287845
0.10604065
0.097552333
0.086954217
0.073844541
0.057939447
0.039278313
0.016747219
0.13299473
0.13114391
0.12770894
0.12342733
0.11854042
0.11287836
0.10603989
0.09755119
0.086952996
0.0738435
0.05793876
0.039278028
0.016747217
0.13299784
0.13114678
0.12771128
0.12342887
0.11854107
0.11287818
0.1060391
0.097550063
0.086951821
0.073842518
0.057938126
0.039277775
0.016747215
0.13300066
0.13114938
0.12771337
0.12343022
0.11854157
0.11287792
0.10603829
0.097548976
0.086950715
0.073841613
0.057937557
0.039277561
0.016747214
0.13300317
0.13115169
0.12771521
0.12343137
0.11854195
0.11287761
0.10603749
0.097547936
0.086949683
0.073840788
0.057937056
0.039277386
0.016747214
0.13300534
0.13115367
0.12771676
0.12343228
0.11854217
0.11287721
0.10603667
0.097546924
0.08694871
0.073840032
0.057936614
0.039277245
0.016747217
0.13300708
0.13115526
0.12771796
0.12343292
0.11854217
0.11287668
0.10603578
0.097545902
0.086947762
0.073839318
0.057936213
0.039277126
0.016747221
0.13300834
0.13115639
0.12771875
0.1234332
0.1185419
0.11287595
0.10603477
0.097544814
0.086946792
0.073838607
0.05793582
0.039277011
0.016747225
0.13300903
0.13115697
0.12771904
0.12343305
0.11854129
0.11287495
0.10603356
0.097543599
0.086945745
0.073837852
0.057935404
0.039276881
0.016747227
0.1330091
0.13115697
0.12771879
0.12343243
0.11854027
0.11287363
0.10603211
0.097542202
0.08694457
0.073837013
0.05793493
0.039276711
0.016747227
0.13300856
0.13115637
0.12771798
0.12343131
0.11853882
0.11287196
0.10603037
0.097540586
0.086943234
0.073836055
0.05793437
0.039276487
0.016747222
0.13300746
0.13115521
0.12771665
0.1234297
0.11853695
0.11286993
0.10602835
0.097538742
0.086941719
0.073834959
0.057933712
0.039276203
0.016747212
0.1330059
0.13115359
0.12771487
0.1234277
0.11853473
0.1128676
0.10602607
0.097536696
0.086940044
0.073833741
0.057932968
0.03927587
0.016747194
0.13300404
0.13115167
0.1277128
0.12342542
0.11853227
0.11286507
0.10602364
0.09753452
0.086938265
0.073832443