/*--------------------------------*- C++ -*----------------------------------*\
| =========                 |                                                 |
| \\      /  F ield         | OpenFOAM: The Open Source CFD Toolbox           |
|  \\    /   O peration     | Version:  2506                                  |
|   \\  /    A nd           | Website:  www.openfoam.com                      |
|    \\/     M anipulation  |                                                 |
\*---------------------------------------------------------------------------*/
FoamFile
{
    version     2.0;
    format      ascii;
    arch        "LSB;label=32;scalar=64";
    class       volScalarField;
    location    "23000/water";
    object      k;
}
// * * * * * * * * * * * * * * * * * * * * * * * * * * * * * * * * * * * * * //

dimensions      [0 2 -2 0 0 0 0];

internalField   nonuniform List<scalar> 
2600
(
0.0001992401
0.00019923925
0.00019923929
0.00019923963
0.00019923982
0.00019923914
0.00019923438
0.00019921375
0.00019914651
0.00019904325
0.00019990841
0.00021454267
0.00040955349
0.00017237279
0.00017237614
0.00017237826
0.00017238051
0.0001723821
0.00017237949
0.00017235884
0.00017227555
0.000172027
0.00017162102
0.00017329371
0.00020304806
0.00052391648
0.00015132731
0.00015133049
0.00015133306
0.00015133552
0.00015133516
0.00015132207
0.00015126283
0.00015106462
0.00015055477
0.00014985944
0.0001528957
0.00019760629
0.00057958156
0.00013448336
0.00013448533
0.00013448764
0.00013448905
0.00013448325
0.00013445009
0.00013432997
0.00013398205
0.00013321503
0.00013247936
0.00013787909
0.00019702317
0.00059640815
0.00012075551
0.00012075697
0.00012075853
0.00012075718
0.00012074152
0.0001206782
0.00012048052
0.00011997843
0.0001190486
0.00011870929
0.00012776334
0.00020116854
0.00059206885
0.0001093899
0.00010939088
0.000109391
0.00010938492
0.00010935483
0.00010925313
0.00010897207
0.00010834649
0.00010742643
0.0001080609
0.00012226457
0.00021023394
0.00057809221
9.984982e-05
9.9850093e-05
9.9847944e-05
9.9835056e-05
9.9786463e-05
9.9641865e-05
9.9284958e-05
9.859999e-05
9.7925044e-05
0.00010022517
0.00012123091
0.00022425603
0.00056106272
9.1744874e-05
9.174416e-05
9.1738826e-05
9.1717148e-05
9.1647174e-05
9.1460104e-05
9.1049018e-05
9.0398665e-05
9.0258419e-05
9.5030413e-05
0.00012461431
0.00024286357
0.00054449405
8.4785472e-05
8.4783454e-05
8.4774018e-05
8.4741918e-05
8.4649457e-05
8.4426122e-05
8.3996574e-05
8.3502376e-05
8.4241543e-05
9.2421343e-05
0.00013239492
0.00026511347
0.00053012765
7.8752977e-05
7.8749319e-05
7.8734951e-05
7.8691403e-05
7.8577619e-05
7.8330528e-05
7.7932172e-05
7.7743318e-05
7.9771154e-05
9.2438124e-05
0.00014444362
0.00028951152
0.0005186607
7.3479682e-05
7.3474066e-05
7.3454131e-05
7.3398964e-05
7.3267704e-05
7.3016085e-05
7.2712929e-05
7.3009357e-05
7.6815022e-05
9.5182835e-05
0.00016036325
0.00031428526
0.00051014247
6.8835097e-05
6.8827266e-05
6.8801436e-05
6.8735571e-05
6.8593744e-05
6.836405e-05
6.8235745e-05
6.9234209e-05
7.5403717e-05
0.00010076473
0.00017939077
0.0003378074
0.0005042266
6.4716374e-05
6.4706175e-05
6.4674551e-05
6.4600233e-05
6.4458202e-05
6.4284863e-05
6.4429045e-05
6.6391811e-05
7.5619872e-05
0.0001092241
0.00020043528
0.00035894529
0.00050037283
6.1041501e-05
6.1028932e-05
6.0992164e-05
6.091321e-05
6.0785257e-05
6.0711783e-05
6.1247562e-05
6.4493002e-05
7.7580806e-05
0.00012045028
0.00022225715
0.00037717552
0.0004980107
5.7744396e-05
5.7729653e-05
5.7689074e-05
5.7611142e-05
5.751606e-05
5.7596592e-05
5.8669222e-05
6.3582871e-05
8.1411583e-05
0.00013412436
0.00024370831
0.00039247762
0.00049664628
5.4771313e-05
5.4754847e-05
5.4712615e-05
5.4643526e-05
5.4605384e-05
5.4906753e-05
5.6693485e-05
6.3736859e-05
8.7208038e-05
0.00014971787
0.00026392364
0.00040513366
0.00049590625
5.2078186e-05
5.206076e-05
5.2020025e-05
5.1970154e-05
5.2019282e-05
5.2623661e-05
5.5340604e-05
6.5053655e-05
9.499418e-05
0.00016655655
0.0002823955
0.00041554871
0.00049553614
4.9628636e-05
4.9611393e-05
4.9576492e-05
4.9559258e-05
4.9733503e-05
5.0741692e-05
5.4651194e-05
6.764317e-05
0.00010468473
0.00018392817
0.00029893688
0.00042413796
0.00049537653
4.7392458e-05
4.7377004e-05
4.7353699e-05
4.7386176e-05
4.773248e-05
4.9267885e-05
5.4685328e-05
7.1608742e-05
0.00011606686
0.00020119289
0.00031358496
0.00043127331
0.00049533511
4.5344476e-05
4.5332971e-05
4.5328746e-05
4.5432431e-05
4.600877e-05
4.8222045e-05
5.5520138e-05
7.702446e-05
0.0001288111
0.00021785899
0.0003265001
0.00043726614
0.00049536294
4.3463657e-05
4.3458933e-05
4.3483358e-05
4.3685127e-05
4.4562868e-05
4.7637065e-05
5.7244887e-05
8.3911103e-05
0.00014251076
0.00023360812
0.00033789056
0.0004423671
0.00049543702
4.1732429e-05
4.173814e-05
4.1803329e-05
4.2136614e-05
4.3403329e-05
4.7559127e-05
5.9952697e-05
9.2216768e-05
0.00015673761
0.00024827796
0.00034796833
0.000446773
0.00049554866
4.0136167e-05
4.015697e-05
4.0278149e-05
4.0784372e-05
4.2547129e-05
4.8047287e-05
6.3728698e-05
0.00010180888
0.00017109623
0.00026182257
0.00035692819
0.0004506357
0.00049569617
3.8662802e-05
3.8704582e-05
3.8900797e-05
3.9631107e-05
4.2020194e-05
4.917184e-05
6.8635428e-05
0.00011248165
0.00018526229
0.00027427017
0.00036494028
0.00045407115
0.00049588069
3.7302531e-05
3.7372692e-05
3.7667676e-05
3.8685008e-05
4.1857944e-05
5.1010817e-05
7.4697746e-05
0.00012397797
0.00019899861
0.00028568913
0.00037214925
0.00045716739
0.00049610392
3.6047628e-05
3.6155447e-05
3.6578682e-05
3.7960182e-05
4.2105653e-05
5.364414e-05
8.1890769e-05
0.00013601989
0.00021215194
0.00029616535
0.0003786761
0.0004599912
0.0004963671
3.4892327e-05
3.5049398e-05
3.5637398e-05
3.7477201e-05
4.2818256e-05
5.7145348e-05
9.0134494e-05
0.00014833915
0.00022463803
0.00030578895
0.00038462125
0.00046259343
0.00049667065
3.383279e-05
3.4053569e-05
3.4851411e-05
3.7263737e-05
4.4059205e-05
6.1571465e-05
9.9297384e-05
0.00016070076
0.00023642316
0.00031464714
0.00039006764
0.00046501298
0.00049701416
3.2867148e-05
3.316962e-05
3.4232755e-05
3.7355162e-05
4.5897911e-05
6.6952452e-05
0.00010920861
0.00017291578
0.00024750736
0.00032282075
0.00039508376
0.00046727992
0.00049739653
3.1995627e-05
3.2402111e-05
3.3798454e-05
3.7794961e-05
4.8405425e-05
7.3282431e-05
0.00011967596
0.00018484394
0.0002579115
0.00033038284
0.00039972628
0.00046941768
0.00049781614
3.1220754e-05
3.1758868e-05
3.3571165e-05
3.8634687e-05
5.1648296e-05
8.0515025e-05
0.00013050499
0.00019638894
0.00026766836
0.00033739831
0.00040404219
0.00047144503
0.00049827104
3.0547674e-05
3.1251458e-05
3.3579859e-05
3.9933126e-05
5.5680951e-05
8.8564404e-05
0.00014151525
0.00020749038
0.00027681663
0.00034392424
0.00040806985
0.00047336164
0.00049875826
2.9984563e-05
3.0895778e-05
3.3860461e-05
4.1754322e-05
6.0537583e-05
9.731215e-05
0.00015255089
0.00021811501
0.00028539699
0.00035000998
0.00041183985
0.00047517687
0.00049927449
2.9543172e-05
3.0712741e-05
3.4456305e-05
4.4164154e-05
6.6225013e-05
0.00010661845
0.00016348532
0.00022824918
0.00029345005
0.00035569884
0.00041537505
0.00047690107
0.00049981641
2.9239499e-05
3.0729041e-05
3.5418153e-05
4.7225375e-05
7.2718236e-05
0.000116335
0.00017422106
0.00023789278
0.00030101466
0.00036102781
0.0004186941
0.00047854324
0.00050038118
2.9094596e-05
3.0977954e-05
3.680351e-05
5.0991352e-05
7.9959914e-05
0.000126317
0.00018468657
0.00024705476
0.00030812691
0.00036602768
0.0004218163
0.00048011521
0.0005009668
2.9135498e-05
3.1500051e-05
3.8674871e-05
5.5499211e-05
8.7864198e-05
0.00013643213
0.000194832
0.00025575019
0.00031482089
0.00037072335
0.00042475516
0.00048162862
0.00050157203
2.9396234e-05
3.2343674e-05
4.1096643e-05
6.0763524e-05
9.6324097e-05
0.00014656576
0.00020462433
0.00026399672
0.00032112528
0.00037513789
0.00042753009
0.00048308917
0.0005021953
2.9918843e-05
3.3564912e-05
4.4130592e-05
6.6771894e-05
0.00010522079
0.00015662301
0.00021404416
0.00027181502
0.00032706603
0.00037928743
0.00043015893
0.00048450259
0.00050283509
3.0754241e-05
3.5226724e-05
4.783003e-05
7.3483545e-05
0.00011443285
0.00016652779
0.00022308096
0.00027922356
0.00033266459
0.00038319513
0.00043265439
0.00048587296
0.00050348985
3.196269e-05
3.7396834e-05
5.2233332e-05
8.0831428e-05
0.00012384403
0.0001762213
0.00023173229
0.0002862416
0.00033793712
0.00038688241
0.00043502761
0.00048720339
0.00050415799
3.3613493e-05
4.0144074e-05
5.735782e-05
8.8727352e-05
0.00013334831
0.00018565844
0.00023999846
0.00029288447
0.00034290589
0.00039036638
0.00043728779
0.00048849623
0.00050483793
3.578339e-05
4.3533049e-05
6.3195275e-05
9.7069187e-05
0.00014285301
0.00019480677
0.00024788462
0.00029916224
0.00034759323
0.00039366179
0.00043944262
0.00048975319
0.00050552809
3.8553046e-05
4.7617406e-05
6.9710084e-05
0.00010574823
0.00015227862
0.00020364074
0.00025539326
0.00030509324
0.00035201755
0.00039678115
0.00044149841
0.00049097545
0.00050622691
4.2001133e-05
5.2432539e-05
7.6840697e-05
0.00011465639
0.00016156
0.00021214494
0.00026252194
0.00031069683
0.00035619501
0.00039973507
0.00044346035
0.00049216373
0.00050693284
4.6195902e-05
5.7988948e-05
8.4503808e-05
0.00012369061
0.00017064179
0.00022029904
0.00026928197
0.00031598932
0.0003601393
0.00040253244
0.0004453326
0.00049331836
0.00050764435
5.1185008e-05
6.4267708e-05
9.2600644e-05
0.00013275651
0.00017947942
0.00022808593
0.00027568475
0.00032098508
0.00036386208
0.00040518064
0.00044711845
0.00049443931
0.00050835992
5.698536e-05
7.1219297e-05
0.00010102459
0.00014177168
0.00018802211
0.00023550308
0.00028174035
0.00032569635
0.00036737309
0.00040768562
0.00044882033
0.00049552621
0.00050907802
6.3575484e-05
7.8766092e-05
0.00010966809
0.00015065104
0.00019623703
0.00024254867
0.00028745749
0.00033013333
0.00037068026
0.00041005208
0.0004504399
0.00049657838
0.00050979713
7.0893492e-05
8.6809036e-05
0.00011841801
0.00015932165
0.00020409991
0.00024922139
0.00029284336
0.00033430427
0.00037378984
0.00041228347
0.0004519781
0.0004975948
0.0005105157
7.8838267e-05
9.522538e-05
0.00012716548
0.00016772589
0.00021159052
0.00025551998
0.00029790356
0.00033821551
0.00037670644
0.00041438209
0.00045343512
0.00049857412
0.00051123212
8.7271744e-05
0.00010388138
0.00013581416
0.00017581505
0.0002186919
0.00026144294
0.0003026421
0.00034187162
0.00037943319
0.00041634912
0.00045481047
0.00049951462
0.0005119447
9.603618e-05
0.00011264288
0.00014427884
0.00018354848
0.00022538996
0.00026698858
0.00030706156
0.0003452755
0.00038197175
0.00041818471
0.00045610297
0.00050041425
0.00051265166
0.00010496809
0.00012138217
0.00015248587
0.00019089298
0.00023167331
0.00027215513
0.00031116328
0.00034842862
0.00038432256
0.00041988803
0.00045731078
0.0005012706
0.00051335111
0.00011391058
0.00012998321
0.00016037324
0.00019782234
0.00023753332
0.00027694106
0.00031494779
0.00035133127
0.00038648496
0.00042145742
0.00045843153
0.00050208095
0.00051404099
0.00012272248
0.00013834518
0.00016789034
0.00020431695
0.00024296424
0.00028134552
0.00031841515
0.00035398296
0.00038845747
0.00042289053
0.00045946233
0.00050284229
0.00051471912
0.0001312839
0.0001463843
0.00017499755
0.00021036347
0.00024796342
0.00028536877
0.00032156552
0.00035638281
0.00039023811
0.00042418458
0.00046040001
0.00050355145
0.00051538317
0.00013949846
0.00015403432
0.00018166561
0.00021595445
0.00025253145
0.00028901264
0.00032439963
0.00035852998
0.00039182475
0.0004253366
0.00046124121
0.00050420513
0.00051603069
0.00014729309
0.00016124587
0.00018787487
0.00022108786
0.00025667215
0.00029228089
0.00032691924
0.00036042418
0.00039321551
0.00042634373
0.00046198267
0.00050480013
0.00051665911
0.00015461617
0.00016798504
0.00019361433
0.00022576662
0.00026039253
0.00029517941
0.00032912756
0.00036206604
0.0003944091
0.00042720351
0.00046262141
0.00050533342
0.00051726587
0.00016143473
0.0001742315
0.00019888066
0.000229998
0.00026370262
0.00029771637
0.00033102953
0.00036345748
0.00039540523
0.00042791422
0.00046315499
0.00050580233
0.00051784836
0.00016773147
0.00017997646
0.00020367708
0.00023379307
0.00026661512
0.00029990221
0.00033263201
0.000364602
0.00039620485
0.00042847517
0.00046358175
0.00050620471
0.0005184041
0.0001735017
0.00018522061
0.00020801231
0.00023716603
0.00026914512
0.0003017495
0.00033394382
0.00036550489
0.00039681042
0.00042888687
0.000463901
0.00050653911
0.00051893074
0.00017875064
0.00018997219
0.00021189953
0.00024013368
0.00027130966
0.00030327273
0.0003349757
0.00036617321
0.00039722607
0.00042915126
0.00046411317
0.00050680482
0.00051942618
0.00018349099
0.00019424528
0.00021535543
0.00024271482
0.00027312736
0.00030448803
0.0003357402
0.00036661588
0.00039745761
0.00042927178
0.00046421992
0.00050700203
0.00051988857
0.00018774099
0.0001980583
0.00021839936
0.00024492974
0.00027461802
0.00030541288
0.00033625141
0.00036684348
0.0003975125
0.00042925338
0.00046422417
0.00050713184
0.00052031646
0.00019152273
0.00020143278
0.00022105255
0.00024679979
0.00027580228
0.00030606582
0.00033652479
0.00036686812
0.0003973998
0.00042910248
0.00046413007
0.00050719623
0.00052070876
0.00019486092
0.00020439236
0.00022333753
0.00024834692
0.00027670125
0.00030646605
0.00033657681
0.00036670321
0.00039712994
0.00042882683
0.00046394297
0.00050719807
0.0005210648
0.0001977818
0.00020696193
0.00022527756
0.0002495934
0.00027733622
0.00030663324
0.0003364247
0.00036636319
0.00039671453
0.00042843535
0.0004636692
0.00050714099
0.00052138436
0.00020031242
0.00020916702
0.0002268962
0.00025056149
0.00027772844
0.00030658718
0.00033608618
0.00036586324
0.0003961661
0.00042793794
0.00046331597
0.00050702926
0.00052166761
0.00020247997
0.00021103329
0.00022821696
0.00025127318
0.00027789887
0.00030634757
0.00033557914
0.00036521902
0.00039549783
0.00042734519
0.00046289117
0.00050686772
0.00052191512
0.00020431141
0.0002125861
0.00022926303
0.00025175005
0.00027786803
0.00030593379
0.00033492144
0.00036444644
0.00039472334
0.0004266682
0.00046240314
0.00050666155
0.00052212784
0.00020583306
0.0002138503
0.00023005707
0.00025201305
0.00027765579
0.00030536476
0.00033413067
0.00036356132
0.00039385635
0.0004259183
0.00046186049
0.00050641619
0.000522307
0.00020707043
0.00021484995
0.00023062099
0.00025208244
0.00027728134
0.00030465876
0.00033322398
0.00036257927
0.00039291054
0.00042510685
0.0004612719
0.00050613717
0.00052245414
0.00020804802
0.0002156082
0.00023097589
0.00025197761
0.00027676302
0.0003038333
0.00033221788
0.00036151544
0.00039189926
0.00042424503
0.00046064594
0.00050582998
0.00052257098
0.00020878922
0.00021614718
0.00023114195
0.0002517171
0.00027611828
0.00030290505
0.00033112816
0.00036038438
0.00039083542
0.00042334365
0.00045999093
0.00050549999
0.00052265943
0.00020931622
0.00021648792
0.00023113835
0.00025131847
0.00027536363
0.0003018898
0.00032996978
0.00035919993
0.00038973131
0.00042241305
0.0004593148
0.00050515232
0.00052272151
0.00020965003
0.00021665031
0.00023098325
0.00025079834
0.00027451464
0.00030080233
0.00032875677
0.0003579751
0.00038859852
0.00042146295
0.00045862501
0.0005047918
0.00052275929
0.00020981039
0.00021665311
0.00023069377
0.00025017231
0.00027358586
0.00029965648
0.00032750223
0.00035672198
0.00038744782
0.00042050236
0.00045792845
0.0005044229
0.00052277491
0.00020981584
0.00021651393
0.00023028599
0.00024945503
0.00027259087
0.00029846508
0.00032621826
0.00035545178
0.0003862891
0.00041953957
0.0004572314
0.0005040497
0.00052277048
0.00020968373
0.00021624924
0.00022977493
0.00024866012
0.00027154226
0.00029723994
0.00032491597
0.0003541747
0.00038513141
0.00041858205
0.00045653953
0.00050367587
0.00052274807
0.00020943022
0.00021587441
0.00022917461
0.00024780025
0.00027045166
0.00029599194
0.00032360551
0.00035290001
0.00038398286
0.00041763648
0.00045585785
0.00050330466
0.00052270971
0.00020907033
0.00021540373
0.00022849805
0.00024688717
0.00026932977
0.00029473095
0.00032229602
0.00035163601
0.00038285067
0.00041670875
0.00045519072
0.00050293893
0.00052265735
0.00020861801
0.00021485045
0.00022775731
0.00024593167
0.00026818635
0.00029346595
0.00032099573
0.0003503901
0.0003817412
0.00041580398
0.0004545419
0.00050258112
0.00052259283
0.00020808613
0.00021422681
0.00022696351
0.00024494369
0.00026703033
0.00029220501
0.00031971197
0.00034916876
0.00038065995
0.00041492651
0.00045391454
0.00050223326
0.00052251792
0.0002074866
0.0002135441
0.00022612688
0.0002439323
0.00026586975
0.00029095535
0.00031845117
0.00034797762
0.0003796116
0.00041407999
0.0004533111
0.00050189558
0.00052243417
0.00020683032
0.0002128127
0.00022525678
0.00024290576
0.00026471188
0.00028972338
0.00031721898
0.0003468215
0.00037860007
0.0004132673
0.00045273333
0.00050156785
0.00052234293
0.00020612734
0.0002120421
0.00022436178
0.00024187156
0.00026356321
0.00028851474
0.00031602023
0.00034570446
0.00037762857
0.00041249071
0.00045218161
0.00050125093
0.00052224539
0.00020538682
0.000211241
0.00022344965
0.00024083645
0.00026242953
0.00028733434
0.00031485905
0.00034462982
0.00037669957
0.00041175168
0.0004516566
0.00050094635
0.00052214277
0.00020461711
0.00021041727
0.00022252744
0.00023980647
0.00026131592
0.00028618641
0.00031373891
0.00034360031
0.000375815
0.0004110507
0.00045115854
0.00050065606
0.00052203636
0.00020382581
0.00020957809
0.0002216015
0.00023878704
0.00026022684
0.00028507457
0.00031266262
0.00034261794
0.00037497582
0.00041038801
0.00045068865
0.00050038109
0.00052192734
0.00020301978
0.0002087299
0.00022067752
0.00023778292
0.00025916617
0.00028400184
0.00031163242
0.00034168413
0.00037418251
0.00040976388
0.00045024779
0.00050012215
0.00052181678
0.00020220523
0.00020787854
0.00021976059
0.00023679832
0.0002581372
0.00028297069
0.00031064999
0.00034079963
0.0003734348
0.000409179
0.00044983635
0.00049987966
0.00052170563
0.00020138772
0.00020702919
0.00021885522
0.00023583691
0.00025714275
0.00028198308
0.0003097164
0.00033996439
0.00037273307
0.0004086335
0.00044945437
0.00049965378
0.00052159473
0.00020057223
0.00020618651
0.00021796539
0.00023490185
0.0002561851
0.00028104045
0.00030883206
0.00033917839
0.00037207738
0.00040812721
0.00044910158
0.00049944445
0.00052148481
0.0001997632
0.00020535459
0.00021709459
0.00023399582
0.00025526611
0.00028014369
0.00030799684
0.0003384417
0.00037146746
0.00040765963
0.00044877748
0.00049925144
0.0005213765
0.00019896456
0.00020453707
0.00021624585
0.00023312113
0.00025438715
0.00027929293
0.00030721094
0.00033775408
0.0003709027
0.00040723
0.00044848138
0.00049907441
0.00052127035
0.00019817976
0.00020373711
0.00021542178
0.0002322795
0.00025354882
0.00027848858
0.00030647422
0.00033711495
0.00037038225
0.00040683734
0.00044821242
0.00049891289
0.00052116681
0.00019741186
0.00020295747
0.00021462442
0.00023147213
0.00025275183
0.00027773073
0.00030578628
0.00033652348
0.00036990502
0.00040648051
0.00044796963
0.00049876633
0.00052106628
0.00019666338
0.00020220036
0.00021385543
0.00023070007
0.00025199662
0.00027701924
0.00030514643
0.00033597862
0.00036946973
0.00040615822
0.00044775193
0.00049863414
0.00052096907
0.00019593645
0.00020146762
0.0002131162
0.00022996414
0.00025128338
0.0002763537
0.00030455378
0.00033547911
0.00036907496
0.00040586908
0.00044755818
0.00049851567
0.00052087544
0.00019523285
0.00020076083
0.00021240782
0.00022926489
0.00025061206
0.00027573351
0.00030400726
0.00033502357
0.00036871915
0.00040561158
0.00044738719
0.00049841026
0.00052078561
0.00019455411
0.00020008126
0.00021173118
0.00022860262
0.00024998239
0.00027515785
0.00030350562
0.00033461044
0.00036840066
0.00040538421
0.00044723774
0.00049831722
0.00052069974
0.00019390146
0.00019942997
0.0002110869
0.00022797746
0.00024939392
0.00027462575
0.00030304748
0.00033423808
0.00036811778
0.00040518536
0.00044710858
0.00049823586
0.00052061794
0.0001932759
0.00019880775
0.00021047538
0.00022738929
0.00024884602
0.00027413609
0.00030263132
0.00033390476
0.00036786874
0.00040501343
0.00044699848
0.00049816548
0.00052054029
0.00019267822
0.00019821518
0.00020989684
0.00022683786
0.00024833791
0.00027368763
0.00030225555
0.00033360868
0.00036765172
0.00040486682
0.00044690619
0.00049810538
0.00052046684
0.00019210896
0.00019765265
0.0002093513
0.00022632272
0.00024786866
0.00027327901
0.0003019185
0.00033334801
0.00036746492
0.00040474391
0.00044683051
0.0004980549
0.00052039761
0.00019156852
0.00019712036
0.00020883863
0.0002258433
0.00024743723
0.00027290878
0.00030161842
0.00033312087
0.0003673065
0.00040464311
0.00044677022
0.00049801336
0.00052033258
0.00019105709
0.00019661836
0.00020835853
0.00022539889
0.0002470425
0.00027257542
0.00030135352
0.00033292538
0.00036717466
0.00040456285
0.00044672418
0.00049798011
0.00052027173
0.00019057472
0.00019614651
0.00020791058
0.00022498867
0.00024668321
0.00027227735
0.00030112201
0.00033275964
0.00036706761
0.00040450161
0.00044669123
0.00049795452
0.00052021499
0.00019012128
0.00019570456
0.00020749421
0.0002246117
0.00024635807
0.00027201295
0.00030092204
0.00033262179
0.00036698357
0.00040445789
0.00044667029
0.00049793598
0.00052016229
0.00018969653
0.00019529212
0.00020710878
0.00022426698
0.0002460657
0.00027178055
0.00030075179
0.00033250996
0.00036692084
0.00040443025
0.0004466603
0.0004979239
0.00052011355
0.00018930012
0.00019490871
0.00020675352
0.00022395342
0.0002458047
0.00027157848
0.00030060943
0.00033242232
0.00036687772
0.00040441729
0.00044666026
0.00049791773
0.00052006866
0.00018893156
0.0001945537
0.00020642757
0.00022366986
0.00024557359
0.00027140503
0.00030049315
0.00033235709
0.0003668526
0.00040441767
0.0004466692
0.00049791692
0.00052002751
0.00018859028
0.00019422642
0.00020613002
0.00022341509
0.00024537091
0.00027125853
0.00030040116
0.00033231252
0.0003668439
0.00040443011
0.0004466862
0.00049792096
0.00051998997
0.00018827562
0.00019392608
0.00020585989
0.00022318787
0.00024519513
0.00027113728
0.0003003317
0.0003322869
0.0003668501
0.00040445337
0.00044671037
0.00049792935
0.00051995592
0.00018798684
0.00019365185
0.00020561611
0.0002229869
0.00024504476
0.00027103961
0.00030028305
0.00033227859
0.00036686974
0.00040448627
0.00044674089
0.00049794162
0.0005199252
0.00018772313
0.00019340282
0.00020539762
0.00022281088
0.00024491828
0.00027096388
0.00030025353
0.000332286
0.00036690142
0.00040452771
0.00044677695
0.00049795733
0.00051989768
0.00018748363
0.00019317804
0.00020520328
0.00022265848
0.00024481418
0.00027090846
0.00030024152
0.0003323076
0.00036694383
0.00040457662
0.00044681783
0.00049797603
0.0005198732
0.00018726742
0.00019297651
0.00020503194
0.00022252838
0.00024473097
0.00027087179
0.00030024545
0.00033234193
0.00036699569
0.000404632
0.00044686282
0.00049799735
0.00051985161
0.00018707355
0.00019279721
0.00020488245
0.00022241923
0.00024466719
0.00027085232
0.00030026379
0.00033238759
0.00036705582
0.00040469293
0.00044691127
0.00049802091
0.00051983276
0.00018690104
0.00019263908
0.00020475361
0.00022232972
0.0002446214
0.00027084857
0.00030029511
0.00033244326
0.0003671231
0.00040475854
0.00044696259
0.00049804638
0.00051981649
0.00018674888
0.00019250107
0.00020464424
0.00022225854
0.0002445922
0.0002708591
0.00030033801
0.00033250769
0.00036719647
0.00040482802
0.00044701622
0.00049807344
0.00051980267
0.00018661606
0.00019238208
0.00020455318
0.0002222044
0.00024457821
0.00027088252
0.00030039119
0.00033257971
0.00036727495
0.00040490063
0.00044707166
0.00049810181
0.00051979113
0.00018650153
0.00019228104
0.00020447924
0.00022216604
0.00024457811
0.00027091752
0.00030045337
0.00033265819
0.00036735764
0.00040497566
0.00044712844
0.00049813122
0.00051978175
0.00018640425
0.00019219686
0.00020442127
0.00022214222
0.00024459063
0.00027096282
0.00030052338
0.00033274209
0.00036744366
0.00040505247
0.00044718611
0.00049816141
0.00051977436
0.00018632319
0.00019212846
0.00020437812
0.00022213174
0.00024461452
0.00027101721
0.00030060008
0.00033283044
0.00036753222
0.00040513046
0.00044724427
0.00049819213
0.00051976882
0.00018625731
0.00019207479
0.00020434867
0.00022213341
0.00024464859
0.00027107954
0.00030068242
0.0003329223
0.00036762257
0.00040520908
0.00044730254
0.00049822315
0.00051976499
0.00018620559
0.00019203478
0.00020433182
0.00022214611
0.00024469171
0.0002711487
0.0003007694
0.00033301682
0.00036771403
0.0004052878
0.00044736055
0.00049825426
0.00051976272
0.00018616702
0.0001920074
0.00020432651
0.00022216875
0.00024474278
0.00027122367
0.00030086007
0.0003331132
0.00036780596
0.00040536615
0.00044741799
0.00049828524
0.00051976187
0.0001861406
0.00019199166
0.00020433171
0.00022220027
0.00024480078
0.00027130347
0.00030095358
0.00033321072
0.00036789778
0.00040544372
0.00044747458
0.00049831592
0.00051976231
0.00018612537
0.00019198657
0.00020434641
0.00022223968
0.00024486474
0.0002713872
0.00030104913
0.00033330871
0.00036798898
0.00040552014
0.00044753008
0.00049834616
0.00051976391
0.00018612041
0.00019199118
0.00020436967
0.00022228603
0.00024493374
0.00027147402
0.00030114599
0.00033340659
0.00036807912
0.0004055951
0.00044758427
0.00049837584
0.00051976657
0.0001861248
0.00019200459
0.00020440057
0.00022233843
0.00024500694
0.00027156317
0.0003012435
0.00033350381
0.0003681678
0.00040566831
0.00044763702
0.00049840487
0.00051977017
0.00018613768
0.00019202594
0.00020443826
0.00022239603
0.00024508356
0.00027165395
0.00030134107
0.00033359992
0.00036825467
0.00040573958
0.00044768817
0.00049843319
0.00051977462
0.00018615821
0.00019205437
0.0002044819
0.00022245805
0.00024516284
0.00027174569
0.00030143816
0.0003336945
0.00036833944
0.00040580869
0.00044773764
0.00049846074
0.00051977984
0.00018618558
0.00019208911
0.00020453072
0.00022252375
0.00024524413
0.00027183783
0.00030153428
0.00033378717
0.00036842186
0.0004058755
0.00044778532
0.00049848746
0.00051978572
0.00018621903
0.00019212938
0.00020458399
0.00022259242
0.00024532678
0.0002719298
0.00030162901
0.00033387761
0.00036850169
0.00040593986
0.00044783112
0.00049851318
0.00051979219
0.00018625782
0.00019217446
0.00020464099
0.00022266341
0.00024541021
0.00027202112
0.00030172193
0.00033396553
0.00036857874
0.00040600162
0.00044787493
0.0004985377
0.00051979912
0.00018630124
0.00019222366
0.00020470106
0.00022273611
0.00024549387
0.00027211132
0.00030181269
0.00033405065
0.00036865281
0.00040606067
0.0004479166
0.00049856095
0.00051980642
0.00018634863
0.00019227631
0.00020476358
0.00022280994
0.00024557727
0.00027219998
0.00030190097
0.00033413273
0.00036872374
0.00040611689
0.000447956
0.00049858292
0.000519814
0.00018639933
0.0001923318
0.00020482796
0.00022288436
0.00024565993
0.00027228674
0.00030198647
0.00033421158
0.0003687914
0.00040617012
0.00044799305
0.00049860365
0.00051982178
0.00018645274
0.00019238952
0.00020489365
0.00022295889
0.00024574145
0.00027237126
0.00030206895
0.00033428702
0.00036885566
0.0004062203
0.00044802775
0.00049862316
0.00051982969
0.00018650831
0.00019244895
0.00020496014
0.00022303308
0.00024582144
0.00027245325
0.0003021482
0.00033435893
0.00036891642
0.00040626734
0.00044806016
0.00049864145
0.00051983767
0.0001865655
0.00019250957
0.00020502697
0.00022310652
0.0002458996
0.00027253247
0.00030222407
0.00033442718
0.0003689736
0.00040631129
0.00044809032
0.00049865855
0.00051984568
0.00018662384
0.00019257093
0.00020509372
0.00022317887
0.00024597563
0.00027260872
0.00030229642
0.00033449171
0.00036902717
0.00040635221
0.00044811828
0.0004986745
0.00051985366
0.00018668289
0.0001926326
0.00020516002
0.00022324982
0.00024604931
0.00027268185
0.00030236516
0.00033455243
0.00036907721
0.00040639017
0.00044814413
0.00049868934
0.00051986159
0.00018674225
0.00019269421
0.00020522554
0.00022331909
0.00024612044
0.00027275173
0.0003024302
0.00033460937
0.00036912377
0.00040642528
0.00044816795
0.00049870312
0.00051986944
0.00018680155
0.00019275541
0.00020528999
0.00022338646
0.00024618887
0.00027281824
0.0003024915
0.00033466259
0.00036916696
0.00040645763
0.00044818984
0.0004987159
0.00051987717
0.00018686047
0.00019281592
0.0002053531
0.00022345173
0.00024625443
0.00027288131
0.00030254908
0.00033471216
0.00036920688
0.00040648733
0.00044820986
0.00049872773
0.00051988478
0.00018691873
0.00019287544
0.00020541465
0.00022351471
0.00024631701
0.0002729409
0.00030260298
0.00033475816
0.00036924361
0.00040651448
0.00044822812
0.00049873864
0.00051989223
0.00018697604
0.00019293374
0.00020547442
0.00022357524
0.00024637653
0.000272997
0.00030265325
0.00033480067
0.00036927728
0.00040653918
0.00044824469
0.00049874868
0.00051989949
0.00018703216
0.00019299059
0.00020553223
0.0002236332
0.00024643292
0.00027304962
0.00030269993
0.00033483978
0.00036930797
0.00040656153
0.00044825963
0.00049875786
0.00051990656
0.00018708688
0.00019304578
0.0002055879
0.00022368848
0.00024648615
0.00027309877
0.00030274309
0.00033487557
0.00036933579
0.0004065816
0.00044827301
0.00049876621
0.0005199134
0.00018713998
0.00019309913
0.00020564131
0.000223741
0.00024653619
0.00027314448
0.00030278281
0.00033490815
0.00036936082
0.00040659949
0.00044828486
0.00049877373
0.00051991998
0.0001871913
0.00019315049
0.00020569234
0.00022379069
0.00024658303
0.00027318679
0.00030281914
0.0003349376
0.00036938318
0.00040661528
0.00044829526
0.00049878042
0.00051992628
0.00018724068
0.00019319972
0.0002057409
0.00022383752
0.00024662668
0.00027322576
0.00030285219
0.00033496403
0.00036940296
0.00040662904
0.00044830424
0.00049878631
0.00051993229
0.00018728802
0.00019324674
0.00020578692
0.00022388146
0.00024666719
0.00027326147
0.00030288206
0.00033498755
0.00036942026
0.00040664086
0.00044831186
0.00049879142
0.00051993798
0.00018733322
0.00019329147
0.00020583038
0.00022392254
0.00024670459
0.00027329399
0.00030290886
0.00033500829
0.00036943521
0.00040665086
0.0004483182
0.00049879577
0.00051994336
0.00018737621
0.00019333385
0.00020587124
0.00022396077
0.00024673896
0.00027332345
0.00030293272
0.00033502639
0.00036944794
0.00040665913
0.00044832334
0.00049879941
0.00051994841
0.00018741697
0.00019337388
0.00020590954
0.0002239962
0.0002467704
0.00027334996
0.00030295378
0.00033504199
0.00036945859
0.00040666579
0.00044832735
0.00049880238
0.00051995313
0.00018745547
0.00019341154