/*--------------------------------*- C++ -*----------------------------------*\
| =========                 |                                                 |
| \\      /  F ield         | OpenFOAM: The Open Source CFD Toolbox           |
|  \\    /   O peration     | Version:  2506                                  |
|   \\  /    A nd           | Website:  www.openfoam.com                      |
|    \\/     M anipulation  |                                                 |
\*---------------------------------------------------------------------------*/
FoamFile
{
    version     2.0;
    format      ascii;
    arch        "LSB;label=32;scalar=64";
    class       surfaceScalarField;
    location    "23000/water";
    object      phi;
}
// * * * * * * * * * * * * * * * * * * * * * * * * * * * * * * * * * * * * * //

dimensions      [1 0 -1 0 0 0 0];

oriented        oriented;

internalField   nonuniform List<scalar> 
4987
(
-6.9167736e-06
0.00085760419
-2.7656569e-05
0.0024926737
-6.1431121e-05
0.0040117068
-0.0001075903
0.0054211695
-0.00016565319
0.0067272392
-0.00023525167
0.0079357375
-0.00031606519
0.0090521266
-0.00040763483
0.010081416
-0.00050867084
0.011027654
-0.00061447105
0.011892066
-0.00070641237
0.012665127
-0.00069017742
0.01327532
0.013255156
-6.4252097e-06
0.00086402939
-2.4701717e-05
0.0025109502
-5.3973207e-05
0.0040409782
-9.3433184e-05
0.0054606295
-0.00014227852
0.0067760845
-0.00019970621
0.0079931652
-0.00026484255
0.0091172629
-0.00033648012
0.010153054
-0.00041221923
0.011103393
-0.0004856843
0.011965531
-0.00053558126
0.012715024
-0.00047144624
0.013211185
0.01278371
-6.163969e-06
0.00087019336
-2.380905e-05
0.0025285953
-5.2164898e-05
0.0040693341
-9.0528704e-05
0.0054989933
-0.00013822172
0.0068237776
-0.00019455674
0.0080495002
-0.00025870612
0.0091814123
-0.00032929751
0.010223645
-0.00040329175
0.011177387
-0.00047276141
0.012035
-0.00051220841
0.012754471
-0.00042242592
0.013121403
0.012361284
-6.1054146e-06
0.00087629878
-2.3924376e-05
0.0025464143
-5.2620538e-05
0.0040980303
-9.1395558e-05
0.0055377683
-0.00013947504
0.006871857
-0.00019604176
0.0081060669
-0.00026004543
0.009245416
-0.00032969289
0.010293293
-0.00040116834
0.011248863
-0.00046497904
0.012098811
-0.00049117541
0.012780667
-0.00037835998
0.013008587
0.011982924
-5.9919784e-06
0.00088229076
-2.3432324e-05
0.0025638546
-5.1502782e-05
0.0041261007
-8.9417765e-05
0.0055756833
-0.0001363976
0.0069188369
-0.00019157934
0.0081612487
-0.00025377584
0.0093076125
-0.0003208868
0.010360404
-0.00038849227
0.011316468
-0.0004456482
0.012155967
-0.00045837524
0.012793394
-0.00033102689
0.012881239
0.011651897
-5.8197985e-06
0.00088811056
-2.2720415e-05
0.0025807553
-4.9911332e-05
0.0041532916
-8.6629801e-05
0.0056124017
-0.00013209822
0.0069643053
-0.00018540983
0.0082145603
-0.00024524283
0.0093674455
-0.00030921061
0.010424371
-0.00037232044
0.011379578
-0.00042207813
0.012205725
-0.00042081904
0.012792135
-0.00028517408
0.012745594
0.011366723
-5.6148951e-06
0.00089372545
-2.1923414e-05
0.0025970638
-4.8158186e-05
0.0041795264
-8.35701e-05
0.0056478136
-0.00012737381
0.007008109
-0.00017860877
0.0082657952
-0.00023581604
0.0094246528
-0.00029633568
0.010484891
-0.00035458539
0.011437828
-0.00039630862
0.012247448
-0.00038067559
0.012776502
-0.00024201048
0.012606929
0.011124713
-5.4046946e-06
0.00089913015
-2.1106786e-05
0.0026127659
-4.6361914e-05
0.0042047815
-8.0433153e-05
0.0056818849
-0.00012252438
0.0070502002
-0.00017161842
0.0083148893
-0.0002261212
0.0094791555
-0.00028309872
0.010541869
-0.00033629459
0.011491024
-0.00036936757
0.012280521
-0.00033930313
0.012746438
-0.00020218079
0.012469807
0.010922532
-5.2040372e-06
0.00090433418
-2.0322449e-05
0.0026278843
-4.4632486e-05
0.0042290916
-7.7407183e-05
0.0057146596
-0.000117836
0.007090629
-0.00016484161
0.0083618949
-0.00021669175
0.0095310057
-0.00027015443
0.010595331
-0.00031814583
0.011539015
-0.00034189245
0.012304267
-0.00029797662
0.012702522
-0.0001662914
0.012338121
0.010756241
-5.0193754e-06
0.00090935356
-1.9599432e-05
0.0026424643
-4.3036007e-05
0.0042525281
-7.4608171e-05
0.0057462317
-0.00011348606
0.0071295069
-0.00015852683
0.0084069356
-0.0002078498
0.0095803287
-0.00025787593
0.010645357
-0.00030047882
0.011581618
-0.00031421626
0.012318005
-0.00025799658
0.012646302
-0.00013488813
0.012215013
0.010621353
-4.8544122e-06
0.00091420797
-1.8953518e-05
0.0026565634
-4.1607992e-05
0.0042751826
-7.2098328e-05
0.0057767221
-0.00010956978
0.0071669784
-0.00015280648
0.0084501723
-0.00019976083
0.009627283
-0.00024643025
0.010692027
-0.00028338283
0.01161857
-0.00028657101
0.012321193
-0.00022065196
0.012580383
-0.00010831397
0.012102675
0.010513039
-4.7104907e-06
0.00091891846
-1.838964e-05
0.0026702426
-4.0359024e-05
0.004297152
-6.9895773e-05
0.0058062588
-0.00010611414
0.0072031967
-0.00014771517
0.0084917734
-0.00019245611
0.0096720239
-0.00023580475
0.010735375
-0.00026674608
0.011649512
-0.00025920371
0.012313651
-0.00018698909
0.012508168
-8.6549238e-05
0.012002235
0.010426489
-4.5864894e-06
0.00092350495
-1.7903118e-05
0.0026835592
-3.9278552e-05
0.0043185274
-6.7981782e-05
0.0058349621
-0.00010308929
0.0072383042
-0.00014320581
0.0085318899
-0.00018585427
0.0097146724
-0.00022583645
0.010775358
-0.00025032331
0.011673999
-0.0002324468
0.012295774
-0.0001576069
0.012433329
-6.9195217e-05
0.011913823
0.010357294
-4.47971e-06
0.00092798466
-1.7483378e-05
0.0026965629
-3.8343221e-05
0.0043393873
-6.6315361e-05
0.0058629342
-0.00010043089
0.0072724198
-0.00013918123
0.0085706402
-0.00017980338
0.0097552946
-0.00021627054
0.010811825
-0.00023384571
0.011691574
-0.00020673155
0.01226866
-0.00013260941
0.012359206
-5.5603125e-05
0.011836817
0.010301691
-4.3869482e-06
0.00093237161
-1.7117943e-05
0.0027092939
-3.7525517e-05
0.0043597948
-6.4848148e-05
0.0058902568
-9.8062773e-05
0.0073056344
-0.00013552609
0.0086081035
-0.00017412332
0.0097938918
-0.00020682319
0.010844525
-0.00021713163
0.011701882
-0.00018252416
0.012234053
-0.0001117049
0.012288387
-4.504466e-05
0.011770157
0.010256646
-4.3051908e-06
0.0009366768
-1.6795059e-05
0.0027217838
-3.679945e-05
0.0043797992
-6.3534221e-05
0.0059169916
-9.5911852e-05
0.007338012
-0.0001321276
0.0086443193
-0.00016863371
0.0098303979
-0.0001972305
0.010873121
-0.00020015793
0.01170481
-0.00016022089
0.012194115
-9.4372475e-05
0.012222539
-3.6838811e-05
0.011712623
0.010219807
-4.231915e-06
0.00094090871
-1.6504851e-05
0.0027340567
-3.6143083e-05
0.0043994375
-6.2334437e-05
0.005943183
-9.3914664e-05
0.0073695922
-0.00012888455
0.0086792892
-0.00016316714
0.0098646805
-0.00018728235
0.010897237
-0.00018307194
0.011700599
-0.00014006423
0.012151108
-8.0017906e-05
0.012162492
-3.0412491e-05
0.011663018
0.010189395
-4.1651418e-06
0.00094507386
-1.6239539e-05
0.0027461311
-3.5538992e-05
0.0044187369
-6.1217188e-05
0.0059688612
-9.2018424e-05
0.0074003935
-0.00012570858
0.0087129793
-0.00015757394
0.0098965459
-0.00017684647
0.010916509
-0.00016614711
0.0116899
-0.00012211719
0.012107078
-6.8078221e-05
0.012108453
-2.531301e-05
0.011620253
0.010164082
-4.1033746e-06
0.00094917723
-1.5993201e-05
0.0027580209
-3.4973726e-05
0.0044377174
-6.0157434e-05
0.0059940449
-9.0179433e-05
0.0074304155
-0.00012252186
0.0087453218
-0.00015172469
0.0099257487
-0.0001658846
0.010930669
-0.00014970629
0.011673722
-0.00010629217
0.012063664
-5.8071522e-05
0.012060233
-2.1196921e-05
0.011583378
0.010142885
-4.0454971e-06
0.00095322273
-1.5761374e-05
0.0027697368
-3.443692e-05
0.004456393
-5.9135103e-05
0.0060187431
-8.8360528e-05
0.0074596409
-0.00011925379
0.008776215
-0.00014551369
0.0099520086
-0.00015445694
0.010939612
-0.00013404495
0.01165331
-9.2406406e-05
0.012022025
-4.960818e-05
0.012017435
-1.7811035e-05
0.011551581
0.010125074
-3.9906706e-06
0.0009572134
-1.5540649e-05
0.0027812868
-3.3920385e-05
0.0044747727
-5.8133472e-05
0.0060429561
-8.6528478e-05
0.0074880359
-0.00011583835
0.0088055249
-0.00013886507
0.0099750353
-0.00014270998
0.010943457
-0.00011937992
0.01162998
-8.0236256e-05
0.011982882
-4.2382157e-05
0.01197958
-1.4972611e-05
0.011524171
0.010110101
-3.9382459e-06
0.00096115164
-1.5328322e-05
0.0027926768
-3.3417324e-05
0.0044928617
-5.7137747e-05
0.0060666766
-8.4651725e-05
0.0075155499
-0.00011221298
0.0088330861
-0.00013174064
0.009994563
-0.00013084741
0.010942564
-0.000105832
0.011604964
-6.9555672e-05
0.011946605
-3.6155837e-05
0.011946181
-1.2551525e-05
0.011500567
0.01009755
-3.8876947e-06
0.00096503934
-1.512212e-05
0.0028039113
-3.2921707e-05
0.0045106613
-5.6133918e-05
0.0060898888
-8.2698662e-05
0.0075421146
-0.00010831969
0.0088587072
-0.00012414735
0.010010391
-0.00011909198
0.010937509
-9.3435692e-05
0.011579308
-6.0156879e-05
0.011913326
-3.0745108e-05
0.011916769
-1.0455487e-05
0.011480277
0.010087094
-3.8385568e-06
0.00096887789
-1.4919992e-05
0.0028149927
-3.2427783e-05
0.0045281691
-5.5107848e-05
0.0061125688
-8.063649e-05
0.0075676433
-0.00010410814
0.0088821788
-0.00011614033
0.010022423
-0.00010764916
0.010929017
-8.2162691e-05
0.011553821
-5.1858067e-05
0.011883022
-2.6006964e-05
0.011890918
-8.6187145e-06
0.011462889
0.010078476
-3.7904019e-06
0.0009726683
-1.471995e-05
0.0028259223
-3.1929704e-05
0.0045453789
-5.4044564e-05
0.0061346837
-7.8430836e-05
0.0075920295
-9.954073e-05
0.0089032887
-0.00010781834
0.0100307
-9.6682463e-05
0.010917882
-7.1946814e-05
0.011529086
-4.4503918e-05
0.011855579
-2.1829696e-05
0.011868244
-6.9936644e-06
0.011448053
0.010071482
-3.7428001e-06
0.0009764111
-1.4519945e-05
0.0028366994
-3.1421228e-05
0.0045622801
-5.2927709e-05
0.0061561902
-7.6046257e-05
0.0076151481
-9.4598625e-05
0.0089218411
-9.9310958e-05
0.010035413
-8.6303347e-05
0.010904874
-6.2703762e-05
0.011505486
-3.7963113e-05
0.011830838
-1.8125308e-05
0.011848406
-5.545274e-06
0.011435473
0.010065937
-3.6952978e-06
0.00098010639
-1.4317763e-05
0.0028473219
-3.0895463e-05
0.0045788578
-5.1739151e-05
0.0061770339
-7.3447803e-05
0.0076368567
-8.9287322e-05
0.0089376806
-9.0760491e-05
0.010036886
-7.6573777e-05
0.010890687
-5.4344041e-05
0.011483256
-3.2125079e-05
0.011808619
-1.4823719e-05
0.011831104
-4.2470266e-06
0.011424896
0.01006169
-3.6473965e-06
0.00098375379
-1.4110936e-05
0.0028577854
-3.0344643e-05
0.0045950915
-5.0458787e-05
0.006197148
-7.060364e-05
0.0076570016
-8.3639744e-05
0.0089507167
-8.230362e-05
0.01003555
-6.7515836e-05
0.010875899
-4.6780216e-05
0.011462521
-2.6896799e-05
0.011788736
-1.186844e-05
0.011816076
-3.0783252e-06
0.011416106
0.010058611
-3.5985287e-06
0.00098735232
-1.3896642e-05
0.0028680835
-2.9759896e-05
0.0046109548
-4.9064621e-05
0.0062164527
-6.7488589e-05
0.0076754255
-7.7715086e-05
0.0089609432
-7.4057365e-05
0.010031892
-5.9123352e-05
0.010860965
-3.9930456e-05
0.011443328
-2.2199935e-05
0.011771005
-9.213376e-06
0.011803089
-2.022737e-06
0.011408916
0.010056589
-3.5480253e-06
0.00099090035
-1.3671563e-05
0.0028782071
-2.9130947e-05
0.0046264142
-4.7533108e-05
0.0062348549
-6.408791e-05
0.0076919803
-7.159255e-05
0.0089684478
-6.6111102e-05
0.010026411
-5.1371402e-05
0.010846226
-3.3719002e-05
0.011425676
-1.7967136e-05
0.011755253
-6.8192395e-06
0.011791942
-1.0666147e-06
0.011403163
0.010055522
-3.4950994e-06
0.00099439544
-1.3431818e-05
0.0028881438
-2.8446028e-05
0.0046414284
-4.5840359e-05
0.0062522492
-6.0401294e-05
0.0077065413
-6.5362279e-05
0.0089734088
-5.8525768e-05
0.010019574
-4.4224359e-05
0.010831924
-2.8076896e-05
0.011409528
-1.4139996e-05
0.011741317
-4.6491278e-06
0.011782451
-1.691966e-07
0.011398683
0.010055353
-3.4388792e-06
0.00099783432
-1.317313e-05
0.002897878
-2.7692434e-05
0.0046559477
-4.3964986e-05
0.0062685218
-5.6447111e-05
0.0077190234
-5.9117528e-05
0.0089760792
-5.1340443e-05
0.010011797
-3.7645487e-05
0.010818229
-2.2947368e-05
0.01139483
-1.0674645e-05
0.011729044
-2.6809658e-06
0.011774457
6.655512e-07
0.011395337
0.010056018
-3.3783149e-06
0.0010012126
-1.2890437e-05
0.0029073902
-2.6855992e-05
0.0046699132
-4.1889301e-05
0.0062835551
-5.2260815e-05
0.0077293949
-5.2943385e-05
0.0089767618
-4.4574181e-05
0.010003428
-3.1595891e-05
0.010805251
-1.8279474e-05
0.011381514
-7.5310052e-06
0.011718295
-8.8283743e-07
0.011767809
1.4051369e-06
0.011393049
0.010057424
-3.3120985e-06
0.0010045247
-1.2577617e-05
0.0029166557
-2.5921004e-05
0.0046832566
-3.9601323e-05
0.0062972354
-4.7891245e-05
0.0077376848
-4.6909534e-05
0.0089757801
-3.8229208e-05
0.0099947475
-2.603382e-05
0.010793056
-1.4024132e-05
0.011369504
-4.6693741e-06
0.011708941
7.7483953e-07
0.011762365
2.0668655e-06
0.011391757
0.01005949
-3.2386933e-06
0.0010077634
-1.2227715e-05
0.0029256447
-2.4871686e-05
0.0046959006
-3.7098711e-05
0.0063094624
-4.3397646e-05
0.0077439838
-4.1070781e-05
0.0089734532
-3.2299098e-05
0.0099859758
-2.0920669e-05
0.010781677
-1.0139876e-05
0.011358723
-2.0590444e-06
0.01170086
2.2780908e-06
0.011758028
2.6639504e-06
0.011391371
0.010062154
-3.1562777e-06
0.0010109197
-1.1832824e-05
0.0029343212
-2.369304e-05
0.0047077608
-3.4390254e-05
0.0063201597
-3.8842816e-05
0.0077484363
-3.5466333e-05
0.0089700768
-2.6770498e-05
0.00997728
-1.6218833e-05
0.010771126
-6.5853724e-06
0.01134909
3.4748122e-07
0.011693927
3.6322156e-06
0.011754743
3.2023092e-06
0.011391801
0.010065357
-3.0627126e-06
0.0010139824
-1.1384181e-05
0.0029426427
-2.2372409e-05
0.004718749
-3.1496514e-05
0.0063292838
-3.4287385e-05
0.0077512272
-3.0121917e-05
0.0089659113
-2.162602e-05
0.0099687841
-1.1894174e-05
0.010761394
-3.3304702e-06
0.011340526
2.5509218e-06
0.011688045
4.8614986e-06
0.011752432
3.6897152e-06
0.011392972
0.010069046
-2.9555346e-06
0.001016938
-1.0872492e-05
0.0029505597
-2.0901473e-05
0.004728778
-2.8448973e-05
0.0063368313
-2.9785854e-05
0.0077525641
-2.50527e-05
0.0089611781
-1.6845614e-05
0.009960577
-7.9114103e-06
0.01075246
-3.2696056e-07
0.011332941
4.5431443e-06
0.011683175
5.9751017e-06
0.011751
4.1311344e-06
0.011394816
0.010073178
-2.8319484e-06
0.0010197699
-1.0288363e-05
0.0029580161
-1.9277912e-05
0.0047377676
-2.5286941e-05
0.0063428403
-2.5383571e-05
0.0077526607
-2.0265117e-05
0.0089560597
-1.2408121e-05
0.00995272
-4.2420797e-06
0.010744294
2.4377915e-06
0.011326262
6.356746e-06
0.011679256
6.9855113e-06
0.011750371
4.5311294e-06
0.011397271
0.010077709
-2.6889079e-06
0.0010224588
-9.6232172e-06
0.0029649504
-1.7507149e-05
0.0047456515
-2.2054256e-05
0.0063473874
-2.1116546e-05
0.007751723
-1.5759226e-05
0.0089507024
-8.2898063e-06
0.0099452506
-8.4686655e-07
0.010736851
4.9535017e-06
0.011320461
8.0062971e-06
0.011676204
7.9028851e-06
0.011750475
4.893848e-06
0.01140028
0.010082602
-2.5232513e-06
0.0010249821
-8.8703704e-06
0.0029712975
-1.560293e-05
0.0047523841
-1.8795258e-05
0.0063505797
-1.7011711e-05
0.0077499394
-1.153079e-05
0.0089452214
-4.4700934e-06
0.0099381899
2.2908853e-06
0.01073009
7.249432e-06
0.011315503
9.5068068e-06
0.011673946
8.735367e-06
0.011751246
5.222279e-06
0.011403793
0.010087825
-2.3319757e-06
0.001027314
-8.0264302e-06
0.002976992
-1.3587021e-05
0.0047579447
-1.5551718e-05
0.0063525444
-1.308781e-05
0.0077474755
-7.5700548e-06
0.0089397037
-9.1685157e-07
0.0099315367
5.1653713e-06
0.010724007
9.3449069e-06
0.011311323
1.0872023e-05
0.011672419
9.4906814e-06
0.011752628
5.5193976e-06
0.011407764
0.010093344
-2.1126551e-06
0.0010294267
-7.0926634e-06
0.002981972
-1.1487682e-05
0.0047623397
-1.2360757e-05
0.0063534175
-9.3574238e-06
0.0077444722
-3.8680445e-06
0.0089342143
2.381278e-06
0.0099252874
7.7972444e-06
0.010718591
1.1256475e-05
0.011307864
1.2113428e-05
0.011671562
1.0175181e-05
0.011754566
5.7875654e-06
0.011412152
0.010099132
-1.8640272e-06
0.0010312907
-6.0761502e-06
0.0029861841
-9.3374684e-06
0.004765601
-9.2535648e-06
0.0063533336
-5.8255304e-06
0.0077410442
-4.0078521e-07
0.0089287896
5.417279e-06
0.0099194693
1.020625e-05
0.010713802
1.2999335e-05
0.011305071
1.3241263e-05
0.01167132
1.0794511e-05
0.011757013
6.0288965e-06
0.011416917
0.010105161
-1.5866515e-06
0.0010328774
-4.9902335e-06
0.0029895877
-7.170612e-06
0.0047677814
-6.2552321e-06
0.0063524182
-2.4926677e-06
0.0077372816
2.8317884e-06
0.0089234651
8.2069329e-06
0.0099140942
1.2409113e-05
0.0107096
1.4586837e-05
0.011302893
1.4264483e-05
0.011671643
1.1353579e-05
0.011759924
6.2452276e-06
0.011422026
0.010111406
-1.2835164e-06
0.0010341609
-3.8541758e-06
0.0029921583
-5.0207584e-06
0.004768948
-3.3849024e-06
0.0063507824
6.4629019e-07
0.0077332504
5.8154677e-06
0.0089182959
1.0766039e-05
0.0099091436
1.4420964e-05
0.010705945
1.6030963e-05
0.011301283
1.5191144e-05
0.011672482
1.1856836e-05
0.011763258
6.4382587e-06
0.011427444
0.010117844
-9.6034881e-07
0.0010351212
-2.6918145e-06
0.0029938898
-2.9183197e-06
0.0047691745
-6.5057072e-07
0.0063485146
3.5783028e-06
0.0077290215
8.5629773e-06
0.0089133113
1.3108628e-05
0.009904598
1.6254579e-05
0.010702799
1.734157e-05
0.011300196
1.6027719e-05
0.011673796
1.2307744e-05
0.011766978
6.6092346e-06
0.011433143
0.010124453
-6.2535154e-07
0.0010357466
-1.5291111e-06
0.0029947936
-8.8735017e-07
0.0047685327
1.9291178e-06
0.0063456981
6.2873361e-06
0.0077246633
1.1084077e-05
0.0089085145
1.5247488e-05
0.0099004346
1.7921689e-05
0.010700125
1.8527699e-05
0.01129959
1.6780178e-05
0.011675544
1.2709551e-05
0.011771048
6.7593828e-06
0.011439093
0.010131213
-2.8821783e-07
0.0010360348
-3.9067381e-07
0.002994896
1.0457166e-06
0.0047670963
4.3266743e-06
0.0063424172
8.7771105e-06
0.0077202129
1.3387427e-05
0.0089039042
1.7193077e-05
0.0098966289
1.9431757e-05
0.010697886
1.9596516e-05
0.011299425
1.7453123e-05
0.011677687
1.3064636e-05
0.011775437
6.8895122e-06
0.011445268
0.010138102
4.0781301e-08
0.001035994
6.9665782e-07
0.0029942401
2.8485928e-06
0.0047649444
6.5295948e-06
0.0063387362
1.104949e-05
0.007715693
1.5480251e-05
0.0088994734
1.895399e-05
0.0098931552
2.079245e-05
0.010696048
2.0553715e-05
0.011299664
1.805009e-05
0.011680191
1.3374732e-05
0.011780112
7.0001574e-06
0.011451643
0.010145102
3.50674e-07
0.0010356434
1.7048652e-06
0.002992886
4.4970824e-06
0.0047621522
8.5307706e-06
0.0063347025
1.3105696e-05
0.0077111181
1.7367975e-05
0.0088952112
2.0536685e-05
0.0098899864
2.2009411e-05
0.010694575
2.1403321e-05
0.01130027
1.8573387e-05
0.011683021
1.364078e-05
0.011785045
7.0914688e-06
0.011458192
0.010152194
6.3199369e-07
0.0010350114
2.6137961e-06
0.0029909041
5.9771938e-06
0.0047587888
1.0324505e-05
0.0063303552
1.4946274e-05
0.0077064963
1.9054251e-05
0.0088911032
2.1945503e-05
0.0098870952
2.3086261e-05
0.010693435
2.2147647e-05
0.011301209
1.9024037e-05
0.011686144
1.3862891e-05
0.011790206
7.163213e-06
0.011464892
0.010159357
8.7876414e-07
0.0010341326
3.4113848e-06
0.0029883715
7.2795536e-06
0.0047549206
1.1906917e-05
0.0063257278
1.6571511e-05
0.0077018317
2.0541368e-05
0.0088871333
2.3183018e-05
0.0098844535
2.4024876e-05
0.010692593
2.2787526e-05
0.011302446
1.9401932e-05
0.01168953
1.4040436e-05
0.011795568
7.2147973e-06
0.011471717
0.010166572
1.0879039e-06
0.0010330447
4.0915601e-06
0.0029853679
8.3995216e-06
0.0047506126
1.3276275e-05
0.0063208511
1.7981865e-05
0.0076971261
2.183066e-05
0.0088832845
2.425038e-05
0.0098820338
2.482564e-05
0.010692017
2.3322462e-05
0.011303949
1.9705938e-05
0.011693146
1.4172109e-05
0.011801101
7.2453181e-06
0.011478644
0.010173817
1.2588986e-06
0.0010317858
4.653671e-06
0.0029819731
9.3371065e-06
0.0047459292
1.4433367e-05
0.0063157548
1.91785e-05
0.007692381
2.2923053e-05
0.00887954
2.5147781e-05
0.0098798091
2.5487823e-05
0.010691677
2.375092e-05
0.011305686
1.9934089e-05
0.011696963
1.425605e-05
0.011806779
7.253608e-06
0.011485647
0.010181071
1.3932166e-06
0.0010303926
5.1015257e-06
0.0029782648
1.009662e-05
0.0047409341
1.5381753e-05
0.0063104697
2.0163833e-05
0.0076875989
2.3819664e-05
0.0088758841
2.5875011e-05
0.0098777538
2.6010034e-05
0.010691542
2.4070679e-05
0.011307626
2.0083846e-05
0.01170095
1.4290015e-05
0.011812573
7.2383217e-06
0.011492698
0.010188309
1.4936575e-06
0.0010288989
5.442249e-06
0.0029743162
1.0686087e-05
0.0047356903
1.6127846e-05
0.0063050279
2.0941982e-05
0.0076827848
2.4522387e-05
0.0088723037
2.6432036e-05
0.0098758441
2.6390741e-05
0.010691584
2.4279251e-05
0.011309737
2.015241e-05
0.011705077
1.4271585e-05
0.011818454
7.1980519e-06
0.011499772
0.010195507
1.5637656e-06
0.0010273352
5.6851439e-06
0.0029701948
1.111648e-05
0.0047302589
1.6680773e-05
0.0062994636
2.1519073e-05
0.0076779465
2.5034403e-05
0.0088687884
2.6819563e-05
0.0098740589
2.6628795e-05
0.010691774
2.4374336e-05
0.011311992
2.013708e-05
0.011709314
1.4198407e-05
0.011824393
7.1314337e-06
0.011506839
0.010202639
1.6073732e-06
0.0010257278
5.8406842e-06
0.0029659615
1.1400872e-05
0.0047246987
1.7052044e-05
0.0062938124
2.1903339e-05
0.0076730952
2.5360536e-05
0.0088653312
2.7039504e-05
0.00987238
2.6723909e-05
0.01069209
2.4354249e-05
0.011314361
2.0035602e-05
0.011713633
1.4068454e-05
0.01183036
7.0372985e-06
0.01151387
0.010209676
1.6282842e-06
0.0010240995
5.9197127e-06
0.0029616701
1.1553611e-05
0.0047190648
1.7255079e-05
0.006288111
2.2105052e-05
0.0076682452
2.5507462e-05
0.0088619288
2.7095336e-05
0.0098707921
2.6677079e-05
0.010692508
2.4218337e-05
0.01131682
1.9846523e-05
0.011718005
1.3880265e-05
0.011836326
6.9147798e-06
0.011520835
0.010216591
1.6300776e-06
0.0010224694
5.9328529e-06
0.0029573673
1.1589575e-05
0.0047134081
1.7304653e-05
0.0062823959
2.2136273e-05
0.0076634136
2.5483734e-05
0.0088585813
2.6992296e-05
0.0098692835
2.6490863e-05
0.01069301
2.3967269e-05
0.011319344
1.9569466e-05
0.011722403
1.3633173e-05
0.011842262
6.7634563e-06
0.011527705
0.010223354
1.6160043e-06
0.0010208534
5.8901266e-06
0.0029530932
1.1523575e-05
0.0047077747
1.7216347e-05
0.0062767031
2.2010524e-05
0.0076586194
2.5299679e-05
0.0088552922
2.6737468e-05
0.0098678458
2.6169578e-05
0.010693578
2.3603305e-05
0.01132191
1.9205369e-05
0.0117268
1.3327473e-05
0.01184814
6.5834097e-06
0.011534449
0.010229938
1.5889459e-06
0.0010192645
5.8007255e-06
0.0029488814
1.1369888e-05
0.0047022055
1.7006018e-05
0.006271067
2.1742363e-05
0.0076538831
2.4967143e-05
0.0088520674
2.6339677e-05
0.0098664732
2.5719313e-05
0.010694198
2.313035e-05
0.011324499
1.87566e-05
0.011731174
1.2964544e-05
0.011853932
6.3753391e-06
0.011541038
0.010236313
1.5514137e-06
0.0010177131
5.6729126e-06
0.0029447599
1.1141957e-05
0.0046967365
1.6689369e-05
0.0062655196
2.134698e-05
0.0076492254
2.4499208e-05
0.0088489152
2.5809337e-05
0.0098651631
2.514789e-05
0.010694859
2.2554016e-05
0.011327093
1.822702e-05
0.011735501
1.2546894e-05
0.011859613
6.1405423e-06
0.011547445
0.010242453
1.5055699e-06
0.0010162075
5.5140009e-06
0.0029407515
1.0852184e-05
0.0046913983
1.6281587e-05
0.0062600902
2.0839785e-05
0.0076446672
2.3909816e-05
0.0088458451
2.5158162e-05
0.0098639147
2.4464657e-05
0.010695553
2.1881468e-05
0.011329676
1.7621912e-05
0.011739761
1.2078133e-05
0.011865156
5.8809334e-06
0.011553642
0.010248334
1.4532601e-06
0.0010147542
5.3303883e-06
0.0029368743
1.0511841e-05
0.0046862168
1.5797083e-05
0.0062548049
2.0236061e-05
0.0076402283
2.3213425e-05
0.0088428678
2.4398872e-05
0.0098627293
2.3680264e-05
0.010696272
2.1121282e-05
0.011332235
1.6947862e-05
0.011743934
1.1562886e-05
0.011870541
5.5989775e-06
0.011559606
0.010253933
1.3960496e-06
0.0010133582
5.1276216e-06
0.0029331428
1.0131044e-05
0.0046812134
1.5249309e-05
0.0062496867
1.9550661e-05
0.0076359269
2.2424654e-05
0.0088399938
2.354484e-05
0.0098616091
2.2806345e-05
0.01069701
2.0283159e-05
0.011334758
1.6212555e-05
0.011748005
1.1006646e-05
0.011875747
5.297615e-06
0.011565315
0.010259231
1.3352594e-06
0.0010120229
4.9104751e-06
0.0029295676
9.7187749e-06
0.0046764051
1.4650649e-05
0.0062447548
1.8797767e-05
0.0076317798
2.1557968e-05
0.0088372336
2.2609757e-05
0.0098605573
2.1855195e-05
0.010697765
1.9377641e-05
0.011337236
1.5424514e-05
0.011751958
1.041558e-05
0.011880756
4.9801576e-06
0.01157075
0.010264211
1.2720005e-06
0.0010107509
4.6830352e-06
0.0029261565
9.2829413e-06
0.0046718052
1.4012373e-05
0.0062400254
1.7990731e-05
0.0076278014
2.0627432e-05
0.0088345969
2.1607339e-05
0.0098595774
2.0839465e-05
0.010698532
1.8415831e-05
0.011339659
1.4592856e-05
0.011755781
9.7963263e-06
0.011885553
4.6501436e-06
0.011575896
0.010268861
1.207203e-06
0.0010095437
4.4487782e-06
0.0029229149
8.8304442e-06
0.0046674235
1.3344614e-05
0.0062355112
1.7141921e-05
0.0076240041
1.9646449e-05
0.0088320924
2.0550998e-05
0.0098586729
1.9771806e-05
0.010699312
1.7409016e-05
0.011342022
1.3726979e-05
0.011759463
9.1557793e-06
0.011890124
4.3112869e-06
0.011580741
0.010273173
1.1416441e-06
0.0010084021
4.2106518e-06
0.0029198459
8.3672736e-06
0.0046632669
1.2656414e-05
0.0062312221
1.6262695e-05
0.0076203979
1.8627662e-05
0.0088297274
1.9453688e-05
0.0098578468
1.8664682e-05
0.010700101
1.6368501e-05
0.011344318
1.2836351e-05
0.011762995
8.5008695e-06
0.011894459
3.9672392e-06
0.011585275
0.01027714
1.0759697e-06
0.0010073261
3.9711386e-06
0.0029169508
7.8985843e-06
0.0046593395
1.1955751e-05
0.0062271649
1.5363324e-05
0.0076169903
1.7582766e-05
0.0088275079
1.8327629e-05
0.009857102
1.7530034e-05
0.010700898
1.5305216e-05
0.011346543
1.1930213e-05
0.01176637
7.8383806e-06
0.011898551
3.6216047e-06
0.011589491
0.010280761
1.0107153e-06
0.0010063154
3.7323235e-06
0.0029142292
7.4287916e-06
0.004655643
1.1249621e-05
0.0062233441
1.4453032e-05
0.0076137869
1.6522496e-05
0.0088254385
1.718425e-05
0.0098564402
1.6379194e-05
0.010701703
1.4229661e-05
0.011348692
1.1017435e-05
0.011769582
7.1747828e-06
0.011902394
3.2777356e-06
0.011593388
0.010284039
9.4632133e-07
0.0010053691
3.4959404e-06
0.0029116795
6.9616388e-06
0.0046521773
1.0544084e-05
0.0062197616
1.3539979e-05
0.007610791
1.5456523e-05
0.0088235219
1.6034002e-05
0.0098558627
1.5222641e-05
0.010702515
1.3151576e-05
0.011350764
1.0106295e-05
0.011772628
6.516113e-06
0.011905984
2.9387928e-06
0.011596966
0.010286978
8.8314864e-07
0.0010044859
3.2634294e-06
0.0029092993
6.5002909e-06
0.0046489404
9.8443698e-06
0.0062164175
1.2631353e-05
0.007608004
1.4393526e-05
0.0088217598
1.4886401e-05
0.0098553699
1.4070014e-05
0.010703331
1.2079995e-05
0.011352754
9.2044285e-06
0.011775503
5.8678648e-06
0.011909321
2.6075453e-06
0.011600226
0.010289585
8.214898e-07
0.0010036644
3.0359709e-06
0.0029070848
6.0473896e-06
0.004645929
9.1549318e-06
0.00621331
1.1733384e-05
0.0076054255
1.3341144e-05
0.008820152
1.3749924e-05
0.0098549611
1.2929958e-05
0.010704151
1.1023016e-05
0.011354661
8.3186813e-06
0.011778207
5.2349359e-06
0.011912404
2.2864617e-06
0.011603175
0.010291872
7.6157948e-07
0.0010029028
2.8145246e-06
0.0029050318
5.605124e-06
0.0046431384
8.4795333e-06
0.0062104356
1.0851437e-05
0.0076030536
1.2306052e-05
0.0088186974
1.2632057e-05
0.0098546351
1.1810161e-05
0.010704973
9.9878613e-06
0.011356483
7.4551065e-06
0.01178074
4.621591e-06
0.011915238
1.9776243e-06
0.011605819
0.01029385
7.0360288e-07
0.0010021992
2.5998595e-06
0.0029031356
5.1752833e-06
0.004640563
7.8213121e-06
0.0062077896
9.9900626e-06
0.0076008849
1.1293994e-05
0.0088173935
1.1539302e-05
0.0098543898
1.0717323e-05
0.010705795
8.9808033e-06
0.011358219
6.6189247e-06
0.011783102
4.0314387e-06
0.011917825
1.6827476e-06
0.011608167
0.010295532
6.4770318e-07
0.0010015515
2.3925804e-06
0.0029013907
4.7593072e-06
0.0046381963
7.1828479e-06
0.006205366
9.1530694e-06
0.0075989147
1.0309836e-05
0.0088162367
1.0477208e-05
0.0098542224
9.6571737e-06
0.010706615
8.0071833e-06
0.011359869
5.8145228e-06
0.011785295
3.4674548e-06
0.011920172
1.4032105e-06
0.011610231
0.010296936
5.9398791e-07
0.0010009575
2.1931524e-06
0.0028997915
4.3583343e-06
0.0046360311
6.5662318e-06
0.0062031581
8.3436031e-06
0.0075971373
9.3576523e-06
0.0088152227
9.4504616e-06
0.0098541296
8.634555e-06
0.010707431
7.0714901e-06
0.011361432
5.0455196e-06
0.011787321
2.9320048e-06
0.011922286
1.1400266e-06
0.011612023
0.010298076
5.4253365e-07
0.001000415
2.0019178e-06
0.0028983322
3.9732339e-06
0.0046340598
5.9731069e-06
0.0062011582
7.5641882e-06
0.0075955462
8.440754e-06
0.0088143461
8.4628797e-06
0.0098541075
7.6533996e-06
0.01070824
6.1773077e-06
0.011362908
4.3147476e-06
0.011789183
2.4268779e-06
0.011924174
8.9395065e-07
0.011613556
0.010298969
4.9339155e-07
0.00099992162
1.8191189e-06
0.0028970064
3.6046539e-06
0.0046322742
5.4047474e-06
0.0061993582
6.8168318e-06
0.0075941341
7.5618135e-06
0.0088136011
7.5175682e-06
0.0098541517
6.7168902e-06
0.010709041
5.3275092e-06
0.011364298
3.6243724e-06
0.011790886
1.9533199e-06
0.011925845
6.6535883e-07
0.011614844
0.010299635
4.4659017e-07
0.00099947503
1.6449052e-06
0.0028958081
3.2530357e-06
0.0046306661
4.8620721e-06
0.0061977491
6.1030296e-06
0.0075928932
6.7228518e-06
0.0088129813
6.6168743e-06
0.0098542577
5.8274027e-06
0.01070983
4.5241483e-06
0.011365601
2.9758759e-06
0.011792435
1.5121111e-06
0.011927309
4.5449177e-07
0.011615902
0.010300089
4.0214139e-07
0.00099907289
1.4793602e-06
0.0028947309
2.9186686e-06
0.0046292268
4.3457405e-06
0.006196322
5.423908e-06
0.007591815
5.9254323e-06
0.0088124798
5.762634e-06
0.0098544205
4.9867869e-06
0.010710606
3.7688203e-06
0.011366819
2.3703352e-06
0.011793833
1.1037488e-06
0.011928575
2.6142938e-07
0.011616744
0.010300351
3.6004179e-07
0.00099871285
1.3225048e-06
0.0028937684
2.6017017e-06
0.0046279476
3.8561652e-06
0.0061950676
4.7802315e-06
0.0075908909
5.1706494e-06
0.0088120893
4.956139e-06
0.009854635
4.1963247e-06
0.010711366
3.0625623e-06
0.011367953
1.8084564e-06
0.011795087
7.2881149e-07
0.011929655
8.8746863e-08
0.011617384
0.01030044
3.2027157e-07
0.00099839258
1.174293e-06
0.0028929144
2.3021278e-06
0.0046268198
3.3934845e-06
0.0061939762
4.1723555e-06
0.0075901121
4.4590579e-06
0.0088118026
4.1980259e-06
0.009854896
3.4565507e-06
0.010712108
2.4056401e-06
0.011369004
1.2901263e-06
0.011796203
3.8704072e-07
0.011930558
-6.2666543e-08
0.011617834
0.010300377
2.8279438e-07
0.00099810978
1.0346103e-06
0.0028921626
2.019783e-06
0.0046258346
2.9575556e-06
0.0061930385
3.6002085e-06
0.0075894694
3.7906359e-06
0.0088116122
3.4882254e-06
0.0098551984
2.767219e-06
0.010712829
1.7975765e-06
0.011369973
8.1502962e-07
0.011797185
8.0544273e-08