/*--------------------------------*- C++ -*----------------------------------*\
| =========                 |                                                 |
| \\      /  F ield         | OpenFOAM: The Open Source CFD Toolbox           |
|  \\    /   O peration     | Version:  2506                                  |
|   \\  /    A nd           | Website:  www.openfoam.com                      |
|    \\/     M anipulation  |                                                 |
\*---------------------------------------------------------------------------*/
FoamFile
{
    version     2.0;
    format      ascii;
    arch        "LSB;label=32;scalar=64";
    class       volVectorField;
    location    "23000/water";
    object      U;
}
// * * * * * * * * * * * * * * * * * * * * * * * * * * * * * * * * * * * * * //

dimensions      [0 1 -1 0 0 0 0];

internalField   nonuniform List<vector> 
2600
(
(0.2509291 -6.6886033e-05 -4.6484802e-19)
(0.25093316 -0.00014739222 -3.0681146e-18)
(0.25094167 -0.00023143146 -4.7515992e-19)
(0.2509543 -0.00031980043 -5.4327667e-19)
(0.25097092 -0.0004082391 -1.0632734e-20)
(0.25099124 -0.00049673665 -2.6668634e-20)
(0.25101467 -0.0005856609 -7.9121343e-20)
(0.25103908 -0.00067482201 1.7098322e-19)
(0.25105541 -0.00075972197 3.226137e-20)
(0.25102652 -0.00083857781 -6.8618589e-20)
(0.25079811 -0.00098580402 2.8623215e-20)
(0.24954942 -0.001485464 -7.2287231e-20)
(0.2411817 0.0014904344 -5.9540859e-19)
(0.25290631 -5.2391824e-05 -7.9727042e-19)
(0.25291356 -0.00012867936 -3.5435605e-18)
(0.25292967 -0.00020232594 -8.9559318e-19)
(0.25295369 -0.00027812692 -1.4338468e-19)
(0.25298503 -0.00035187867 -2.5008787e-19)
(0.25302278 -0.00042368282 4.7793784e-20)
(0.25306456 -0.0004936843 -1.8027128e-19)
(0.25310219 -0.00056251339 1.0026386e-19)
(0.25310631 -0.00062550536 -7.3779456e-20)
(0.25297401 -0.00066089399 -1.4229663e-19)
(0.25231856 -0.00068576655 -3.4418811e-21)
(0.24919071 -0.0011507908 -2.598766e-19)
(0.23317376 0.00055016191 -6.6456579e-19)
(0.25485703 -5.0201261e-05 -1.097822e-19)
(0.25486389 -0.00012463928 -4.9364394e-19)
(0.2548791 -0.00019574884 -1.6634198e-18)
(0.2549016 -0.00026956178 3.912131e-19)
(0.25493052 -0.00034177627 -3.945393e-19)
(0.25496396 -0.00041257844 -4.1969953e-20)
(0.25499618 -0.00048173979 -3.8772583e-20)
(0.25500857 -0.00054996705 4.6926953e-19)
(0.25494172 -0.00061637669 3.2827085e-19)
(0.2546073 -0.0006602417 -5.5055104e-20)
(0.25332071 -0.00063871076 -1.2003511e-19)
(0.2478214 -0.00092597142 -3.7708817e-19)
(0.22526486 0.00012340436 -5.6786084e-19)
(0.25664521 -4.9743849e-05 1.9014354e-18)
(0.25665224 -0.00012488064 2.0548119e-18)
(0.2566674 -0.00019721364 1.5817074e-19)
(0.2566896 -0.0002720698 3.0179883e-19)
(0.25671747 -0.00034495172 8.6279529e-20)
(0.25674738 -0.00041609227 -1.4723573e-19)
(0.25676826 -0.0004848948 -4.6689034e-20)
(0.25674667 -0.00055096518 2.3941026e-19)
(0.25658539 -0.00061444887 7.5641308e-20)
(0.2559957 -0.0006636637 5.548543e-20)
(0.2539403 -0.00063277351 -9.1173883e-20)
(0.24583249 -0.00077044467 -3.0752182e-19)
(0.21800982 -5.9385922e-05 -4.3122036e-19)
(0.25841323 -4.8556775e-05 9.2931411e-19)
(0.2584204 -0.00012219546 1.3941671e-18)
(0.25843571 -0.00019301892 1.5404181e-18)
(0.25845781 -0.00026625064 -2.9304409e-19)
(0.25848442 -0.00033744492 2.6272631e-19)
(0.25850914 -0.00040689654 7.2258381e-20)
(0.25851346 -0.00047389151 -1.1192649e-19)
(0.25844542 -0.00053705871 -4.0078735e-19)
(0.25816424 -0.00059536594 -1.0766347e-20)
(0.25726648 -0.00064373127 1.4225702e-19)
(0.25431322 -0.0006144232 -4.7777827e-20)
(0.24352458 -0.00065114414 -1.8588577e-19)
(0.21163262 -0.00012321892 -3.3288596e-19)
(0.26015467 -4.709344e-05 1.1214176e-18)
(0.26016187 -0.0001185153 9.6485256e-19)
(0.26017704 -0.0001870764 1.4254688e-18)
(0.2601984 -0.00025799462 3.8351003e-19)
(0.26022227 -0.00032687702 -1.1162562e-19)
(0.26023853 -0.0003939878 -1.205696e-20)
(0.26021927 -0.00045855461 -2.8722007e-20)
(0.26009115 -0.00051865148 -1.4105897e-19)
(0.25966515 -0.00057157394 -2.9244561e-20)
(0.2584067 -0.0006148087 1.512756e-19)
(0.25443266 -0.00058544056 -1.2863082e-20)
(0.24102793 -0.0005571206 6.2427057e-20)
(0.20612335 -0.00013293671 -2.8027315e-19)
(0.26183846 -4.5390267e-05 5.5135734e-23)
(0.26184561 -0.00011435405 1.2466548e-18)
(0.26186042 -0.00018050108 8.3467184e-19)
(0.26188043 -0.00024892327 1.1958138e-18)
(0.26190008 -0.00031528561 -2.918804e-19)
(0.26190445 -0.00037977026 -3.9098359e-19)
(0.26185458 -0.00044151446 -1.6235178e-19)
(0.2616533 -0.00049832849 -1.7594981e-19)
(0.26105826 -0.00054618084 -3.5171762e-19)
(0.25938354 -0.00058222647 -5.6545871e-20)
(0.25426994 -0.00054801504 2.1429044e-20)
(0.23842933 -0.00047868139 3.9945851e-20)
(0.20141646 -0.00011963306 -4.1441031e-19)
(0.26345768 -4.3664881e-05 -1.6965165e-18)
(0.26346469 -0.00011008557 -2.1560821e-19)
(0.26347885 -0.00017377013 -3.9587886e-19)
(0.26349678 -0.00023963045 3.7903932e-19)
(0.26351051 -0.00030340684 -6.3032977e-20)
(0.26349932 -0.00036518044 -1.617086e-19)
(0.26341166 -0.00042394822 -1.2472729e-19)
(0.2631242 -0.00047735793 -2.1125443e-19)
(0.26233468 -0.00052050214 -1.1713978e-19)
(0.26018092 -0.00054846095 -2.0416854e-19)
(0.25381559 -0.00050481858 -5.6931093e-20)
(0.23581666 -0.00040978299 1.4327507e-19)
(0.19745226 -9.8494616e-05 -3.4734201e-19)
(0.26501552 -4.2046877e-05 2.5345263e-18)
(0.26502225 -0.00010599907 1.5094286e-18)
(0.26503542 -0.00016730209 1.354645e-18)
(0.26505044 -0.00023067618 1.1434842e-18)
(0.26505633 -0.00029193976 3.479584e-19)
(0.26502564 -0.00035106733 1.8154784e-19)
(0.26489279 -0.0004068816 5.9261353e-20)
(0.26450568 -0.00045685738 -1.0449859e-19)
(0.26349313 -0.00049549056 -3.9488873e-19)
(0.26078727 -0.00051473411 -1.3627404e-19)
(0.25307513 -0.00045847926 -9.6508497e-20)
(0.23327192 -0.00034737981 1.3916675e-19)
(0.19416843 -7.6932877e-05 -3.0961404e-20)
(0.2665165 -4.057706e-05 3.5096016e-19)
(0.26652283 -0.00010224007 1.0450782e-18)
(0.26653459 -0.00016134013 1.4998063e-18)
(0.26654572 -0.0002224043 8.0030229e-19)
(0.26654166 -0.00028132047 4.4710849e-19)
(0.26648729 -0.00033795568 -4.8451861e-20)
(0.26630156 -0.0003909415 -6.9948677e-20)
(0.26580019 -0.00043752442 -2.6032222e-19)
(0.26453091 -0.00047164498 -2.7236561e-19)
(0.26118849 -0.00048140525 -1.1735967e-19)
(0.25206937 -0.00041120617 -1.0751502e-19)
(0.23086314 -0.00029047959 -2.571545e-19)
(0.19149027 -5.8333255e-05 -1.5857414e-19)
(0.26796591 -3.9276698e-05 -2.1105712e-18)
(0.26797166 -9.8886215e-05 -4.1218431e-19)
(0.26798155 -0.00015601486 -9.7248961e-20)
(0.26798768 -0.00021499986 4.0105218e-19)
(0.26797137 -0.00027178437 3.0467342e-19)
(0.26788889 -0.00032612646 4.0920299e-20)
(0.26764202 -0.00037645614 -1.2572793e-19)
(0.26700984 -0.00041972353 -1.6571352e-19)
(0.26544297 -0.00044912486 -1.5082856e-19)
(0.26137042 -0.00044842588 -8.349397e-20)
(0.25083979 -0.00036475941 -1.2696085e-19)
(0.22864123 -0.00023936528 -4.1928028e-19)
(0.18933265 -4.3854026e-05 -2.0646069e-19)
(0.26936985 -3.8151202e-05 3.3350928e-19)
(0.26937484 -9.5961771e-05 -2.7617516e-19)
(0.26938229 -0.00015136516 -3.8567359e-19)
(0.2693822 -0.00020851724 5.3134338e-19)
(0.26935114 -0.00026339986 3.1000476e-19)
(0.26923575 -0.00031565718 1.6982686e-19)
(0.26891866 -0.00036350366 3.5861655e-20)
(0.26813622 -0.00040351927 8.0797234e-20)
(0.26622207 -0.00042777198 -9.467899e-20)
(0.26132397 -0.00041560856 -2.0265173e-20)
(0.24944814 -0.00032041763 -9.8550859e-20)
(0.22663743 -0.00019477817 -3.5860516e-19)
(0.18760708 -3.3365978e-05 -1.9026488e-19)
(0.27073452 -3.7186892e-05 -2.2902238e-19)
(0.27073851 -9.3441594e-05 -6.1278142e-19)
(0.27074291 -0.00014735094 1.8812615e-19)
(0.27073523 -0.00020290125 4.8816926e-19)
(0.27068668 -0.0002560959 5.0985971e-19)
(0.27053315 -0.00030645578 -9.1006087e-21)
(0.27013553 -0.00035195662 -5.9825657e-20)
(0.26917943 -0.00038871663 1.5729683e-20)
(0.26685881 -0.00040716162 -1.4415206e-19)
(0.26105041 -0.00038281109 -6.6543657e-20)
(0.24796793 -0.00027903904 -7.8152672e-20)
(0.2248628 -0.0001572352 -4.3178234e-19)
(0.18622942 -2.6089629e-05 -2.0521553e-19)
(0.27206549 -3.6358597e-05 -6.5000409e-19)
(0.27206822 -9.1270024e-05 -3.5052088e-19)
(0.27206885 -0.00014388431 3.6975449e-19)
(0.27205207 -0.00019803069 1.1597155e-18)
(0.27198302 -0.00024971698 -1.5662068e-19)
(0.27178551 -0.0002983267 8.4997435e-20)
(0.27129541 -0.00034156266 1.9466415e-19)
(0.27013718 -0.00037494839 -1.5948682e-19)
(0.26734241 -0.00038673536 -9.6203129e-20)
(0.2605654 -0.00035005846 -8.7603883e-20)
(0.24647172 -0.00024119446 -1.0345993e-19)
(0.22331131 -0.00012666963 -2.390356e-19)
(0.18512583 -2.1076377e-05 -3.6321899e-19)
(0.27336737 -3.5638787e-05 -7.6531206e-20)
(0.27336856 -8.9381859e-05 -2.9415211e-19)
(0.27336463 -0.00014086217 9.6563644e-19)
(0.27333706 -0.00019376295 3.6151401e-19)
(0.27324415 -0.00024407934 -4.3156489e-20)
(0.27299604 -0.00029103798 2.8093801e-19)
(0.27239931 -0.00033202382 2.9256989e-19)
(0.27100443 -0.00036176734 -1.1964332e-19)
(0.26766283 -0.00036596047 7.4122429e-20)
(0.25989992 -0.00031757794 -2.1810728e-19)
(0.24502002 -0.00020725746 -4.4193917e-19)
(0.22196569 -0.00010242449 -5.6950225e-20)
(0.18423545 -1.7507119e-05 -2.1980401e-19)
(0.27464382 -3.5002893e-05 1.3421617e-19)
(0.27464313 -8.7716015e-05 1.6328729e-19)
(0.27463375 -0.00013818758 7.0442792e-19)
(0.2745935 -0.00018996324 2.915767e-19)
(0.27447297 -0.00023900779 6.7624091e-19)
(0.27416661 -0.00028436528 1.3367169e-19)
(0.27344636 -0.00032304576 -1.7930171e-19)
(0.27177364 -0.00034871441 -7.8257173e-20)
(0.26781391 -0.00034445792 -2.5795075e-19)
(0.25909705 -0.00028576382 -3.4681648e-19)
(0.2436552 -0.00017740821 -4.5095386e-19)
(0.22080343 -8.3473061e-05 -4.0898779e-19)
(0.18351045 -1.4804611e-05 3.167301e-20)
(0.27589768 -3.4431105e-05 -6.7145143e-19)
(0.27589473 -8.6221416e-05 6.6633196e-19)
(0.27587888 -0.00013577913 -3.6831352e-19)
(0.27582384 -0.00018651756 2.5763718e-19)
(0.27567139 -0.00023435206 2.9294938e-19)
(0.27529788 -0.00027811161 -7.1409484e-20)
(0.27443375 -0.00031435606 -1.6749441e-19)
(0.27243556 -0.00033536391 -5.3195033e-20)
(0.26779662 -0.00032206947 -2.1305572e-19)
(0.25820551 -0.00025510596 -2.8527742e-19)
(0.24240122 -0.00015160161 -1.749313e-19)
(0.21980119 -6.8690992e-05 -2.8649089e-19)
(0.18291435 -1.2618545e-05 -3.108275e-19)
(0.27713109 -3.3908297e-05 1.7761827e-18)
(0.27712546 -8.4858001e-05 8.144709e-19)
(0.27710201 -0.00013357264 4.5248676e-20)
(0.27702977 -0.00018333501 1.2307202e-19)
(0.27684047 -0.00022998947 2.7652568e-19)
(0.2763893 -0.00027211088 1.2762244e-19)
(0.27535691 -0.00030570399 8.9893163e-20)
(0.2729805 -0.00032135786 -2.3798968e-20)
(0.26762112 -0.00029886294 -1.895751e-19)
(0.25727242 -0.00022610439 -1.7689225e-19)
(0.24126718 -0.00012956884 -2.4862856e-19)
(0.21893722 -5.7057421e-05 -2.1312022e-19)
(0.18241982 -1.0759077e-05 -2.8464696e-19)
(0.27834572 -3.3423244e-05 1.6428872e-18)
(0.27833694 -8.3595439e-05 7.065417e-19)
(0.2783046 -0.00013151911 3.3719465e-19)
(0.27821241 -0.00018034488 9.8302949e-19)
(0.27798052 -0.00022582105 7.2043212e-21)
(0.27743925 -0.00026622306 3.4483057e-19)
(0.27620962 -0.00029685485 4.7881094e-19)
(0.27340008 -0.00030643644 9.701142e-20)
(0.26730692 -0.00027509383 -1.6561878e-19)
(0.25633756 -0.0001991843 -1.7024004e-19)
(0.24025214 -0.0001108758 -1.1239637e-19)
(0.21819234 -4.7749361e-05 -2.3051263e-19)
(0.18200662 -9.1303554e-06 -3.6644699e-19)
(0.27954284 -3.2967675e-05 -1.9416707e-18)
(0.27953036 -8.2411065e-05 3.7159904e-20)
(0.27948767 -0.00012958149 1.3045032e-18)
(0.27937237 -0.00017749197 3.1009892e-19)
(0.27909121 -0.00022176547 1.2006286e-19)
(0.27844503 -0.00026032527 3.9178378e-19)
(0.27698441 -0.00028758731 3.8576608e-19)
(0.27368915 -0.00029046173 1.3306084e-19)
(0.26688073 -0.00025114513 2.6528889e-19)
(0.25543062 -0.00017462898 1.9206496e-19)
(0.2393495 -9.5013873e-05 7.5824564e-20)
(0.21755 -4.0152317e-05 -2.0139592e-20)
(0.18165972 -7.6839689e-06 -1.1445888e-19)
(0.28072346 -3.253541e-05 1.4040317e-18)
(0.28070667 -8.1287794e-05 5.1919439e-19)
(0.28065194 -0.00012773124 1.092275e-18)
(0.28050986 -0.0001747318 3.6970738e-19)
(0.28017156 -0.00021775304 1.6462848e-19)
(0.27940289 -0.00025430189 2.0636351e-19)
(0.27767312 -0.0002776979 2.7383813e-19)
(0.27384765 -0.00027342829 3.5782908e-19)
(0.26637281 -0.00022746055 2.3160286e-19)
(0.2545711 -0.00015254853 -7.99811e-20)
(0.23855012 -8.1484057e-05 -2.5206508e-19)
(0.21699614 -3.3827452e-05 -4.9865503e-20)
(0.18136794 -6.3925508e-06 2.0359326e-19)
(0.28188837 -3.2121655e-05 1.0581203e-18)
(0.28186655 -8.0212342e-05 2.3281865e-18)
(0.28179785 -0.00012594549 5.3940831e-20)
(0.28162471 -0.00017202641 3.7572392e-19)
(0.28121999 -0.00021372064 2.9839961e-19)
(0.28030804 -0.00024803603 2.212356e-19)
(0.27826773 -0.00026701328 3.1712069e-19)
(0.27388156 -0.00025545692 3.7709952e-19)
(0.26581311 -0.00020447968 1.6984956e-19)
(0.25377001 -0.00013289058 -3.2641711e-19)
(0.23784411 -6.9849935e-05 -3.1313915e-19)
(0.21651887 -2.846717e-05 1.43363e-20)
(0.18112283 -5.237098e-06 -3.8220227e-20)
(0.28303819 -3.1722485e-05 -1.6349361e-19)
(0.28301052 -7.9173848e-05 1.0721379e-18)
(0.28292559 -0.00012420468 4.2155808e-19)
(0.28271638 -0.00016934095 -2.9728528e-19)
(0.2822343 -0.00020960733 8.3302749e-19)
(0.28115476 -0.00024140493 3.5985753e-19)
(0.27876144 -0.00025540747 -4.2240876e-20)
(0.27380292 -0.00023677355 3.9447409e-19)
(0.26522808 -0.00018258166 8.4114143e-20)
(0.25303215 -0.0001154828 5.0416668e-20)
(0.23722187 -5.9756945e-05 4.4966531e-20)
(0.21610816 -2.3855671e-05 6.439855e-20)
(0.18091788 -4.2018352e-06 7.4580531e-20)
(0.28417339 -3.1334452e-05 3.915102e-18)
(0.28413893 -7.8162817e-05 5.8129677e-19)
(0.28403512 -0.00012249081 2.2079825e-19)
(0.28378396 -0.00016664113 1.1072412e-19)
(0.28321158 -0.00020535009 5.3424229e-20)
(0.28193659 -0.0002342804 2.0647469e-19)
(0.27914984 -0.00024281872 2.5930907e-19)
(0.27362852 -0.00021767778 5.6328481e-19)
(0.26463906 -0.00016204554 -5.3975644e-20)
(0.25235823 -0.00010008749 -3.0180533e-19)
(0.23667446 -5.0928388e-05 -3.3709578e-19)
(0.21575559 -1.9839529e-05 -2.2218522e-19)
(0.18074793 -3.2726192e-06 3.1837087e-20)
(0.28529433 -3.0954305e-05 1.9811058e-18)
(0.28525196 -7.7170337e-05 7.3678627e-19)
(0.28512619 -0.000120786 6.8170211e-19)
(0.28482614 -0.00016389138 1.8115636e-19)
(0.28414822 -0.00020087986 -5.8587026e-20)
(0.28264669 -0.00022653515 2.0403368e-19)
(0.27943202 -0.00022926075 3.1157881e-19)
(0.27337791 -0.00019850619 1.7871555e-19)
(0.26406181 -0.00014303336 1.9464774e-19)
(0.25174654 -8.6449637e-05 4.8218627e-20)
(0.23619383 -4.3151036e-05 -2.6092581e-19)
(0.21545404 -1.6307449e-05 -1.9444818e-19)
(0.18060884 -2.43669e-06 -4.0726745e-20)
(0.28640123 -3.0578785e-05 3.4607864e-19)
(0.28634965 -7.6187466e-05 -1.9299005e-19)
(0.28619826 -0.00011907139 5.5532601e-19)
(0.28584114 -0.00016105349 -1.03535e-19)
(0.28503985 -0.00019611848 5.1353452e-19)
(0.2832784 -0.00021805401 1.1779827e-19)
(0.27961117 -0.00021482471 -3.1950843e-20)
(0.27307114 -0.00017959427 2.3071105e-19)
(0.26350715 -0.00012559657 1.8874402e-19)
(0.25119402 -7.4328957e-05 4.0169613e-19)
(0.23577276 -3.6259359e-05 2.3848719e-19)
(0.21519748 -1.3176818e-05 -3.6589632e-20)
(0.18049716 -1.6827555e-06 5.208929e-20)
(0.28749419 -3.0204453e-05 -5.5702858e-19)
(0.28743185 -7.5204724e-05 2.3385507e-18)
(0.28725056 -0.00011732617 2.0437922e-19)
(0.28682673 -0.00015808531 2.8584242e-20)
(0.28588145 -0.00019097763 5.0279304e-19)
(0.28382593 -0.00020874815 9.912512e-20)
(0.27969464 -0.0001996716 1.5782526e-20)
(0.27272685 -0.00016124196 -1.0559282e-19)
(0.26298189 -0.0001096995 -6.6070257e-20)
(0.25069697 -6.3515063e-05 -7.0466653e-20)
(0.23540492 -3.0122583e-05 1.4580135e-19)
(0.21498079 -1.0384816e-05 4.8570885e-20)
(0.18041 -1.001021e-06 -6.1963243e-20)
(0.28857317 -2.9827536e-05 3.070561e-19)
(0.28849825 -7.4211615e-05 1.9806323e-18)
(0.28828196 -0.00011552672 4.0755087e-19)
(0.28778008 -0.00015493916 2.321667e-19)
(0.28666738 -0.00018536091 4.9339867e-19)
(0.28428521 -0.00019856898 2.2710885e-19)
(0.27969326 -0.00018401641 1.8049881e-19)
(0.27236107 -0.00014368796 2.5476919e-20)
(0.26248991 -9.524994e-05 -5.2980054e-20)
(0.25025143 -5.3830639e-05 -1.128795e-19)
(0.23508472 -2.4635356e-05 1.2570973e-19)
(0.21479959 -7.8825378e-06 2.4699658e-21)
(0.18034487 -3.8311309e-07 -3.539168e-20)
(0.28963798 -2.9443749e-05 2.1554972e-18)
(0.28954832 -7.3196105e-05 1.3705929e-20)
(0.28929102 -0.00011364594 2.4435241e-19)
(0.2886978 -0.00015155982 9.0774189e-19)
(0.28739174 -0.00017916928 1.5710093e-19)
(0.28465455 -0.00018751867 2.5999369e-19)
(0.27962017 -0.00016810644 6.5216055e-19)
(0.2719867 -0.00012709653 6.3577394e-19)
(0.26203302 -8.2127591e-05 1.3966452e-19)
(0.24985346 -4.5128215e-05 -4.7986901e-19)
(0.23480728 -1.9711352e-05 -2.4306892e-19)
(0.21465012 -5.631055e-06 -1.8146168e-19)
(0.18029962 1.7809447e-07 -6.39717e-20)
(0.29068824 -2.9047994e-05 -7.3614637e-19)
(0.29058125 -7.2143816e-05 -6.2759513e-19)
(0.29027586 -0.0001116522 1.5283304e-18)
(0.28957586 -0.00014788247 8.6475518e-19)
(0.28804865 -0.00017230925 2.7897434e-19)
(0.28493523 -0.00017565385 1.7937606e-19)
(0.2794894 -0.0001521958 3.566215e-19)
(0.2716136 -0.00011155662 5.5191013e-20)
(0.26161163 -7.0203582e-05 1.1630668e-19)
(0.24949926 -3.7283234e-05 9.6914992e-20)
(0.23456828 -1.5277095e-05 -1.3285685e-19)
(0.21452909 -3.5979161e-06 -3.2361889e-21)
(0.18027234 6.8890197e-07 -3.5397313e-21)
(0.29172336 -2.8634276e-05 -2.5744543e-19)
(0.291596 -7.1037627e-05 -1.4955319e-19)
(0.29123415 -0.00010950891 7.7727891e-19)
(0.29040962 -0.00014383255 2.1635225e-20)
(0.28863287 -0.00016470427 5.1863299e-19)
(0.28513156 -0.00016308393 2.7527675e-19)
(0.27931466 -0.00013652202 -2.0134273e-19)
(0.27124896 -9.7093502e-05 2.8047382e-19)
(0.26122524 -5.9353581e-05 2.3813179e-19)
(0.24918522 -3.0190105e-05 7.3160159e-19)
(0.23436395 -1.1270243e-05 3.093992e-19)
(0.2144337 -1.7305329e-06 1.5350443e-19)
(0.18026136 1.1761776e-06 1.887493e-19)
(0.29274252 -2.8196031e-05 1.8251752e-18)
(0.29259116 -6.9858451e-05 1.4494265e-18)
(0.29216305 -0.00010717575 -4.1309613e-19)
(0.29119393 -0.00013933083 -1.4179194e-19)
(0.28914031 -0.00015631028 3.6959792e-19)
(0.28525057 -0.00014996775 4.8757148e-19)
(0.27910837 -0.00012129288 9.5600408e-20)
(0.2708978 -8.3692716e-05 2.3128336e-19)
(0.26087272 -4.9471447e-05 5.1973438e-19)
(0.24890802 -2.3766606e-05 2.1407703e-19)
(0.23419085 -7.6475063e-06 2.985964e-19)
(0.21436056 -1.6170925e-08 2.0555552e-19)
(0.18026627 1.6404531e-06 2.5591121e-20)
(0.2937446 -2.7725099e-05 9.1841305e-19)
(0.29356496 -6.8583185e-05 1.470198e-18)
(0.29305914 -0.00010460502 5.9638538e-19)
(0.29192334 -0.00013429443 2.6881472e-19)
(0.28956868 -0.00014712073 4.708554e-19)
(0.2853013 -0.0001364947 3.3751849e-19)
(0.27888121 -0.00010666824 4.3815227e-19)
(0.27056351 -7.1310309e-05 3.0844481e-19)
(0.26055265 -4.0462699e-05 3.0468115e-19)
(0.24866458 -1.7940045e-05 7.6248564e-20)
(0.23404606 -4.3537073e-06 1.1249994e-19)
(0.21430781 1.5375411e-06 1.3298346e-19)
(0.18028522 2.0564623e-06 -2.0926102e-20)
(0.29472815 -2.7211027e-05 -8.0074023e-19)
(0.29451518 -6.7183246e-05 3.6690931e-19)
(0.29391842 -0.00010173905 4.5772809e-19)
(0.29259237 -0.00012864182 8.0377678e-19)
(0.28991788 -0.00013716943 -1.5228838e-19)
(0.28529394 -0.00012286442 1.1889922e-19)
(0.27864192 -9.2752801e-05 8.7705253e-19)
(0.27024822 -5.988229e-05 8.8056235e-19)
(0.26026336 -3.2238491e-05 1.8422735e-19)
(0.24845204 -1.2642194e-05 -3.4650288e-19)
(0.23392646 -1.335705e-06 -4.5274744e-19)
(0.21427448 2.9563088e-06 -2.2327085e-20)
(0.18031664 2.426375e-06 1.8312647e-20)
(0.29569132 -2.6641407e-05 1.2642288e-18)
(0.2954391 -6.5625554e-05 -2.3137153e-19)
(0.29473631 -9.8512686e-05 1.1010958e-18)
(0.29319592 -0.00012230568 8.020472e-19)
(0.29019018 -0.00012653593 2.7467424e-19)
(0.28523889 -0.0001092751 3.5840959e-19)
(0.27839743 -7.9607203e-05 5.0126242e-19)
(0.26995312 -4.9342163e-05 2.6003664e-19)
(0.26000308 -2.4722114e-05 3.362074e-19)
(0.24826773 -7.8150241e-06 2.8337386e-19)
(0.23382955 1.4152231e-06 -1.1861694e-19)
(0.21425921 4.2391552e-06 -1.0243956e-19)
(0.18035932 2.754463e-06 2.6239842e-20)
(0.29663173 -2.6001187e-05 1.6083666e-18)
(0.29633339 -6.3871167e-05 -4.2894439e-19)
(0.29550768 -9.4853906e-05 1.0019588e-18)
(0.29372976 -0.0001152412 3.1773736e-19)
(0.29039011 -0.00011533898 6.8920425e-19)
(0.28514604 -9.5905402e-05 5.2102949e-19)
(0.27815304 -6.7254179e-05 -8.8439073e-20)
(0.26967872 -3.9623397e-05 3.5489442e-19)
(0.25977003 -1.7841938e-05 3.1843818e-19)
(0.24810922 -3.3840557e-06 8.4726657e-19)
(0.23375398 3.9311345e-06 3.9936481e-19)
(0.21425996 5.3905902e-06 -1.0665672e-19)
(0.18041214 3.0443174e-06 9.4877444e-20)
(0.29754645 -2.5272396e-05 3.5027566e-19)
(0.29719411 -6.1874467e-05 1.3524813e-18)
(0.29622706 -9.0687787e-05 4.3329145e-19)
(0.29419101 -0.00010743483 2.1245392e-19)
(0.29052399 -0.00010372744 3.6678666e-19)
(0.28502427 -8.2903474e-05 3.5646535e-19)
(0.27791277 -5.5689092e-05 -2.8750671e-20)
(0.26942499 -3.0662431e-05 1.5434237e-19)
(0.25956225 -1.1539912e-05 2.2763519e-19)
(0.24797362 6.7565611e-07 7.411655e-20)
(0.23369893 6.227508e-06 3.2999353e-19)
(0.21427538 6.4295154e-06 6.5526166e-21)
(0.18047414 3.3030162e-06 -5.9881066e-20)
(0.29843186 -2.4434095e-05 5.2006368e-19)
(0.29801658 -5.9582998e-05 1.9644131e-18)
(0.29688883 -8.5943435e-05 4.6229898e-19)
(0.29457851 -9.8910916e-05 4.9409537e-19)
(0.29059935 -9.186855e-05 3.0122364e-19)
(0.28488126 -7.0382801e-05 7.2235254e-20)
(0.27767954 -4.4890917e-05 -8.4494641e-20)
(0.26919163 -2.2396128e-05 1.0358823e-19)
(0.25937815 -5.7367357e-06 1.270426e-19)
(0.24785972 4.3901552e-06 -1.3546121e-19)
(0.2336621 8.3013001e-06 2.2145449e-19)
(0.21430404 7.3665053e-06 2.1542861e-19)
(0.18054443 3.5353652e-06 4.5893144e-20)
(0.29928359 -2.3462158e-05 4.9585925e-19)
(0.29879547 -5.6937612e-05 -3.8834851e-19)
(0.29748763 -8.056167e-05 -1.4171758e-19)
(0.29489309 -8.973252e-05 7.167335e-19)
(0.29062422 -7.9932487e-05 -1.0754047e-19)
(0.28472341 -5.8420306e-05 1.1137582e-19)
(0.27745536 -3.4827782e-05 7.4595926e-19)
(0.26897783 -1.4770695e-05 7.636357e-19)
(0.25921519 -3.921094e-07 -3.3980914e-20)
(0.24776702 7.7917284e-06 -3.8336173e-19)
(0.23364198 1.0180811e-05 -3.8061034e-19)
(0.21434474 8.2145538e-06 4.2047061e-20)
(0.18062225 3.744897e-06 7.0546456e-20)
(0.30009637 -2.2329735e-05 2.0448186e-18)
(0.29952479 -5.3875519e-05 6.446415e-19)
(0.29801875 -7.4505307e-05 -1.2353149e-19)
(0.29513749 -8.0000045e-05 3.8030025e-19)
(0.29060659 -6.8080719e-05 2.09319e-19)
(0.28455591 -4.7062653e-05 3.4963654e-19)
(0.27724164 -2.5459421e-05 5.0135838e-19)
(0.26878291 -7.7158771e-06 -1.5885063e-19)
(0.25907248 4.5151791e-06 2.4469157e-20)
(0.24769347 1.0881172e-05 -8.7653981e-20)
(0.23363709 1.1884662e-05 -1.5880097e-19)
(0.21439637 8.9835795e-06 -1.2689687e-19)
(0.18070689 3.934277e-06 -1.3041583e-19)
(0.30086402 -2.1007842e-05 2.4935365e-19)
(0.30019808 -5.0335159e-05 2.3274461e-18)
(0.29847859 -6.7767546e-05 7.5421239e-19)
(0.29531608 -6.9843693e-05 -7.8063857e-19)
(0.29055391 -5.6454511e-05 5.0980825e-19)
(0.28438287 -3.6332112e-05 4.0620315e-19)
(0.27703906 -1.674834e-05 -1.3855722e-19)
(0.2686053 -1.1875859e-06 -5.82829e-19)
(0.25894976 9.0212926e-06 -1.25565e-19)
(0.24763751 1.3689757e-05 2.484716e-19)
(0.23364609 1.3431042e-05 1.6323053e-19)
(0.21445793 9.6806144e-06 -2.7152475e-19)
(0.18079771 4.1049986e-06 -1.7803438e-19)
(0.30157943 -1.9467195e-05 7.9422437e-19)
(0.30080863 -4.6264353e-05 3.6599115e-18)
(0.29886499 -6.0378853e-05 1.5423627e-18)
(0.29543445 -5.9413979e-05 -1.9456867e-19)
(0.29047287 -4.5169375e-05 2.5403033e-19)
(0.28420752 -2.6229128e-05 3.6439663e-19)
(0.27684812 -8.6362046e-06 -1.3249093e-19)
(0.26844451 4.83875e-06 -2.9376276e-19)
(0.25884558 1.31359e-05 -1.1770109e-19)
(0.2475977 1.6244238e-05 7.1669803e-20)
(0.23366777 1.4835474e-05 1.6158393e-19)
(0.21452852 1.0312032e-05 -7.3524607e-20)
(0.18089413 4.2585636e-06 -1.4161996e-19)
(0.30223466 -1.7681569e-05 3.2264789e-18)
(0.3013499 -4.1630429e-05 2.1530876e-18)
(0.29917751 -5.2409532e-05 5.1764311e-19)
(0.29549884 -4.8869388e-05 9.0650475e-19)
(0.29036919 -3.4313575e-05 3.5957794e-19)
(0.28403214 -1.6747383e-05 4.1523647e-19)
(0.27666826 -1.0889214e-06 6.2709764e-19)
(0.26830088 1.0391213e-05 -2.4282645e-19)
(0.25875851 1.6888752e-05 7.4503133e-20)
(0.24757272 1.856846e-05 -3.4641046e-19)
(0.23370102 1.6110265e-05 1.8236431e-19)
(0.21460732 1.0882907e-05 -6.235505e-21)
(0.1809956 4.3961489e-06 -6.1596183e-20)
(0.30282117 -1.5633385e-05 1.7293269e-18)
(0.30181594 -3.6431469e-05 1.5838285e-18)
(0.29941741 -4.3968514e-05 6.8970514e-19)
(0.29551566 -3.8365379e-05 8.0775889e-19)
(0.2902477 -2.394508e-05 8.0579129e-19)
(0.28385859 -7.8475246e-06 3.9540279e-19)
(0.27649982 5.9143762e-06 5.9754697e-19)
(0.26817344 1.5480107e-05 -5.8273145e-21)
(0.25868728 2.0311161e-05 -2.3234391e-19)
(0.24756135 2.068296e-05 -2.8853596e-19)
(0.23374484 1.7265994e-05 -1.5137285e-19)
(0.21469357 1.1397782e-05 -2.3020407e-20)
(0.18110164 4.5188505e-06 -4.9252026e-20)
(0.30333026 -1.3320777e-05 -1.9911524e-19)
(0.30220189 -3.0705554e-05 3.7580336e-18)
(0.29958744 -3.5196305e-05 2.0655808e-18)
(0.29549103 -2.8043529e-05 9.4580643e-19)
(0.29011218 -1.4099676e-05 9.7065796e-19)
(0.28368733 4.8537904e-07 1.2026558e-19)
(0.276344 1.2389138e-05 -2.2820514e-19)
(0.26806118 2.0135388e-05 2.0722389e-19)
(0.2586307 2.3431626e-05 3.8787238e-20)
(0.24756246 2.260484e-05 3.7224494e-19)
(0.23379832 1.8311724e-05 -7.2732641e-20)
(0.21478659 1.1860652e-05 2.5141931e-19)
(0.18121177 4.6276284e-06 2.0973695e-20)
(0.30375374 -1.0764887e-05 3.2403913e-19)
(0.30250438 -2.4536311e-05 3.0165933e-18)
(0.29969147 -2.6255516e-05 2.5011911e-18)
(0.29543051 -1.8024083e-05 -9.0284336e-20)
(0.28996561 -4.7856699e-06 4.5288342e-19)
(0.28352015 8.243279e-06 1.3529901e-19)
(0.27620025 1.833605e-05 -2.4411856e-19)
(0.26796311 2.4389634e-05 1.0291179e-19)
(0.25858763 2.627482e-05 4.5961066e-19)
(0.24757502 2.4349069e-05 3.9065651e-19)
(0.2338606 1.925568e-05 1.5735925e-19)
(0.21488574 1.2275209e-05 -1.1343834e-19)
(0.18132556 4.7233877e-06 -1.5152981e-21)
(0.30408466 -8.0145581e-06 8.6916908e-19)
(0.30272186 -1.8051752e-05 5.2537876e-19)
(0.29973407 -1.7315822e-05 5.2550004e-19)
(0.29533886 -8.3895058e-06 -1.0695496e-20)
(0.28980995 3.9790406e-06 2.4593959e-19)
(0.28335875 1.5424568e-05 3.6582256e-19)
(0.27606809 2.3784784e-05 -2.9257776e-19)
(0.26787825 2.8272312e-05 1.4871359e-19)
(0.25855702 2.8860178e-05 2.6287523e-19)
(0.24759808 2.5927618e-05 5.0848944e-19)
(0.23393092 2.0104419e-05 3.8391579e-19)
(0.21499043 1.2644264e-05 3.6683462e-20)
(0.1814426 4.8067258e-06 2.2307584e-20)
(0.30431819 -5.1449332e-06 4.9953239e-19)
(0.3028546 -1.1412614e-05 -1.8557717e-18)
(0.29971994 -8.5331305e-06 -2.7178586e-19)
(0.29521955 7.8210623e-07 1.3732808e-18)
(0.28964857 1.2143082e-05 2.5624144e-19)
(0.28320331 2.2022588e-05 6.3181025e-19)
(0.2759469 2.8765056e-05 7.5247027e-19)
(0.26780565 3.1808596e-05 4.1055264e-19)
(0.25853789 3.120505e-05 2.1912029e-20)
(0.24763076 2.7351579e-05 -2.0495032e-19)
(0.23400854 2.0864081e-05 2.4244472e-19)
(0.21510011 1.2970491e-05 1.9225024e-19)
(0.18156253 4.8782482e-06 2.9316259e-20)
(0.30445222 -2.2472303e-06 -1.0642265e-18)
(0.30290466 -4.7892333e-06 -5.9128103e-19)
(0.2996534 -5.7450497e-08 -7.1083881e-20)
(0.29507686 9.3868404e-06 6.1576849e-19)
(0.28948321 1.9670484e-05 3.7949715e-19)
(0.28305385 2.8057693e-05 5.6628878e-19)
(0.27583605 3.330253e-05 9.247794e-19)
(0.2677444 3.5018009e-05 4.3917522e-19)
(0.25852929 3.3323226e-05 1.744555e-19)
(0.24767222 2.8629693e-05 -2.5663715e-19)
(0.23409279 2.1539294e-05 -1.2834439e-19)
(0.21521426 1.3255765e-05 1.2377063e-19)
(0.18168496 4.9382924e-06 2.7452532e-20)
(0.30448759 5.814272e-07 -1.4320908e-18)
(0.30287533 1.6331813e-06 2.2780212e-18)
(0.29953939 7.9403495e-06 1.0303511e-18)
(0.29491435 1.7334176e-05 7.2493685e-19)
(0.28931491 2.6550281e-05 4.1673905e-19)
(0.28291026 3.3548577e-05 9.0582954e-20)
(0.2757348 3.7416347e-05 8.1917633e-20)
(0.26769361 3.7916071e-05 2.494052e-19)
(0.25853035 3.522589e-05 2.5082838e-19)
(0.24772169 2.9768849e-05 5.123045e-19)
(0.23418305 2.2133524e-05 1.6570184e-20)
(0.2153324 1.3501378e-05 3.1116906e-19)
(0.18180955 4.9870169e-06 1.12008e-19)
(0.30442824 3.2381355e-06 7.2476813e-20)
(0.30277199 7.6569679e-06 3.1315886e-18)
(0.29938292 1.5303965e-05 2.9063754e-18)
(0.29473444 2.4565304e-05 1.0819309e-19)
(0.28914434 3.2781603e-05 1.5409709e-19)
(0.28277222 3.8508009e-05 -1.3713715e-19)
(0.27564244 4.1120315e-05 -2.4283373e-19)
(0.26765239 4.051444e-05 -4.2642764e-21)
(0.25854021 3.6921205e-05 7.2048731e-20)
(0.24777843 3.0773741e-05 2.7195051e-19)
(0.23427872 2.2648849e-05 1.7232508e-19)
(0.21545406 1.3707895e-05 3.8460303e-20)
(0.18193594 5.0243429e-06 7.3266217e-20)
(0.30428148 5.635593e-06 6.1810643e-19)
(0.30260141 1.3122379e-05 3.0499656e-18)
(0.29918843 2.1930403e-05 1.2511702e-18)
(0.29453912 3.1047488e-05 5.287944e-19)
(0.28897192 3.8362643e-05 4.5855689e-19)
(0.28263933 4.2943498e-05 2.7956283e-19)
(0.2755582 4.4423788e-05 -7.1502548e-20)
(0.2676199 4.2820934e-05 -1.6342287e-19)
(0.25855808 3.8414203e-05 1.9066813e-19)
(0.24784174 3.1646801e-05 3.2917097e-19)
(0.23437921 2.3085909e-05 1.604964e-19)
(0.21557877 1.3875114e-05 1.9396565e-20)
(0.18206381 5.0499353e-06 6.1829665e-20)
(0.30405678 7.7205572e-06 2.6486081e-18)
(0.30237113 1.7926733e-05 2.5613129e-18)
(0.29896016 2.7756839e-05 2.2908185e-18)
(0.29433004 3.6759544e-05 1.2840653e-18)
(0.28879784 4.3291034e-05 1.1846221e-18)
(0.2825111 4.6859656e-05 9.7523932e-19)
(0.2754813 4.733266e-05 6.8187687e-19)
(0.26759529 4.4840014e-05 2.4012693e-19)
(0.25858316 3.9707176e-05 7.9534443e-20)
(0.24791094 3.2388476e-05 2.2864021e-19)
(0.23448396 2.3444061e-05 1.0017555e-19)
(0.21570609 1.4002134e-05 -5.6513978e-20)
(0.18219278 5.0632266e-06 4.6035168e-21)
(0.30376497 9.4677159e-06 3.8433954e-18)
(0.30208913 2.2015531e-05 1.9498488e-18)
(0.29870222 3.2751995e-05 2.2567007e-18)
(0.29410866 4.1691541e-05 1.1883515e-18)
(0.2886222 4.7566425e-05 7.5298492e-19)
(0.28238699 5.0259615e-05 5.0060299e-19)