/*--------------------------------*- C++ -*----------------------------------*\
| =========                 |                                                 |
| \\      /  F ield         | OpenFOAM: The Open Source CFD Toolbox           |
|  \\    /   O peration     | Version:  2506                                  |
|   \\  /    A nd           | Website:  www.openfoam.com                      |
|    \\/     M anipulation  |                                                 |
\*---------------------------------------------------------------------------*/
FoamFile
{
    version     2.0;
    format      ascii;
    arch        "LSB;label=32;scalar=64";
    class       volScalarField;
    location    "24000/rock";
    object      T;
}
// * * * * * * * * * * * * * * * * * * * * * * * * * * * * * * * * * * * * * //

dimensions      [0 0 0 1 0 0 0];

internalField   nonuniform List<scalar> 
2500
(
315.05135
304.03824
298.34131
294.95092
292.74514
291.21744
290.10908
289.2757
288.63114
288.12115
287.71007
287.37361
287.09469
286.86101
286.66348
286.49529
286.3512
286.22712
286.11983
286.02668
285.94548
285.8743
285.81132
285.75463
285.7019
319.2983
309.19959
303.2287
299.32812
296.6211
294.65961
293.19004
292.05894
291.16879
290.45516
289.87404
289.39458
288.99456
288.65769
288.37174
288.12744
287.91758
287.73653
287.57979
287.44371
287.32528
287.22198
287.1316
287.05218
286.982
321.14677
312.06854
306.39515
302.48028
299.63043
297.48214
295.82027
294.50791
293.45362
292.59428
291.88508
291.2935
290.7955
290.373
290.01219
289.70237
289.43516
289.20392
289.0033
288.829
288.67745
288.54576
288.43147
288.33261
288.24755
322.24595
313.92158
308.59799
304.81705
301.98158
299.78345
298.03984
296.63246
295.48044
294.52632
293.72816
293.05471
292.48226
291.9926
291.57151
291.20782
290.89263
290.61881
290.38057
290.17321
289.99287
289.83638
289.70116
289.58511
289.48656
323.01601
315.25756
310.24257
306.62519
303.86309
301.68143
299.91914
298.47237
297.26968
296.25975
295.40453
294.67516
294.04934
293.50964
293.04223
292.63606
292.28224
291.97351
291.70396
291.46874
291.26385
291.086
290.9325
290.80115
290.69022
323.60671
316.29376
311.54028
308.08115
305.41037
303.27455
301.527
300.07404
298.85151
297.81326
296.92489
296.16007
295.49824
294.92313
294.42169
293.98335
293.59948
293.26302
292.96812
292.70996
292.48453
292.2885
292.11915
291.97423
291.85193
324.08563
317.13774
312.60701
309.29229
306.71476
304.63624
302.92011
301.47988
300.25674
299.20859
298.30406
297.51906
296.83473
296.23602
295.71075
295.24899
294.84258
294.48474
294.16983
293.89318
293.65083
293.43953
293.25655
293.09962
292.96691
324.48827
317.84881
313.51052
310.32566
307.83739
305.81929
304.14221
302.72499
301.51283
300.4667
299.55763
298.76343
298.0667
297.4535
296.91253
296.43453
296.01181
295.63798
295.30767
295.01638
294.76033
294.53632
294.34168
294.17418
294.03196
324.8354
318.46253
314.29291
311.22478
308.81988
306.86143
305.22624
303.83727
302.64279
301.60616
300.7003
299.90455
299.20273
298.58188
298.03148
297.54289
297.1089
296.7235
296.38162
296.07897
295.81194
295.57745
295.3729
295.19609
295.04519
325.14013
319.00169
314.98175
312.01894
309.69118
307.78993
306.19695
304.83853
303.66538
302.64277
301.74513
300.95303
300.25128
299.62777
299.07265
298.5778
298.1365
297.74307
297.39273
297.08142
296.80569
296.5626
296.34962
296.16463
296.00582
325.41127
319.48168
315.59593
312.72862
310.47203
308.62483
307.07304
305.74575
304.5957
303.5897
302.7034
301.91838
301.22027
300.59765
300.04124
299.54342
299.09783
298.69913
298.34281
298.02501
297.74246
297.49232
297.27219
297.07999
296.91395
325.65502
319.91333
316.14885
313.36855
311.17761
309.38113
307.86885
306.5723
305.44593
304.45784
303.58472
302.80895
302.11687
301.49761
300.94239
300.44399
299.99639
299.59455
299.23417
298.91161
298.62373
298.36783
298.1416
297.94303
297.77038
325.87588
320.30455
316.65037
313.94971
311.81938
310.07029
308.59553
307.32876
306.22593
305.25624
304.39725
303.63203
302.9475
302.33327
301.78097
301.28371
300.83578
300.43238
300.06943
299.74344
299.45143
299.19082
298.95937
298.75514
298.57645
326.07723
320.66128
317.10796
314.48041
312.40611
310.70123
309.26188
308.02363
306.94376
305.99243
305.14793
304.39395
303.71788
303.10974
302.56151
302.06661
301.61956
301.21577
300.85136
300.52299
300.2278
299.96331
299.72737
299.51809
299.33384
326.26169
320.98811
317.52736
314.96715
312.94472
311.28105
309.87499
308.66385
307.60608
306.67271
305.84268
305.1002
304.43306
303.83166
303.28826
302.79652
302.3512
301.94788
301.58284
301.25287
300.95523
300.68753
300.44769
300.23389
300.04454
326.43131
321.28865
317.91316
315.41513
313.44076
311.81548
310.44064
309.25513
308.21848
307.30246
306.48662
305.7556
305.09757
304.50323
303.96509
303.47704
303.03401
302.63177
302.2667
301.93573
301.63621
301.36583
301.12259
300.90471
300.71066
326.58774
321.56583
318.26905
315.82854
313.89877
312.30925
310.96364
309.80228
308.78567
307.88628
307.08417
306.36438
305.71542
305.12824
304.59559
304.11153
303.67117
303.2704
302.90573
302.5742
302.27324
302.00061
301.75438
301.53282
301.33442
326.73233
321.82204
318.59809
316.21088
314.32253
312.76632
311.44804
310.30938
309.31171
308.42815
307.6392
306.93029
306.29021
305.71015
305.18304
304.70313
304.26565
303.86662
303.50266
303.17089
302.86882
302.59428
302.34539
302.12048
301.91807
326.86624
322.05931
318.90283
316.56507
314.71522
313.19004
311.89732
310.77995
309.80012
308.93154
308.15515
307.45669
306.8252
306.2521
305.73048
305.25474
304.82025
304.42311
304.06006
303.72829
303.42537
303.1492
302.89794
302.66997
302.46384
326.99041
322.27934
319.18548
316.89363
315.07958
313.58332
312.31446
311.21703
310.25399
309.39956
308.63506
307.94656
307.32332
306.75695
306.24069
305.76909
305.3376
304.94244
304.58043
304.24881
303.94524
303.66766
303.41427
303.18349
302.97392
327.1057
322.48361
319.4479
317.19874
315.418
313.94868
312.70211
311.62334
310.67604
309.83492
309.08167
308.40262
307.78725
307.22733
306.71626
306.24868
305.82016
305.42701
305.0661
304.73476
304.43068
304.15186
303.89655
303.6632
303.45043
327.21282
322.67342
319.69175
317.48229
315.73255
314.28835
313.06257
312.00125
311.06871
310.2401
309.49745
308.82732
308.21942
307.66565
307.15954
306.69585
306.27024
305.87907
305.5193
305.18831
304.88384
304.60394
304.34688
304.11115
303.89541
327.31241
322.8499
319.9185
317.74597
316.02511
314.60431
313.39793
312.35292
311.43418
310.61731
309.88462
309.22291
308.62207
308.07413
307.57276
307.1128
306.68998
306.30076
305.94213
305.61153
305.30676
305.02589
304.76724
304.52932
304.31082
327.40506
323.01407
320.12944
317.99129
316.29732
314.89834
313.71006
312.68027
311.77446
310.96857
310.24523
309.59144
308.99724
308.45483
307.95795
307.50153
307.08139
306.69405
306.33655
306.00637
305.70136
305.41962
305.15951
304.91957
304.6985
327.49128
323.16684
320.32575
318.2196
316.55068
315.17203
314.00064
312.98507
312.09132
311.29572
310.58114
309.93478
309.34684
308.80963
308.31699
307.86393
307.44635
307.0608
306.7044
306.37466
306.06946
305.78695
305.52549
305.28368
305.06022
327.57152
323.30904
320.50848
318.43215
316.78656
315.42686
314.27121
313.26891
312.38644
311.60045
310.89407
310.25468
309.67261
309.14028
308.65164
308.20176
307.7866
307.40277
307.04742
306.71812
306.41277
306.12955
305.86686
305.6233
305.39762
327.64621
323.44143
320.67861
318.63003
317.00618
315.66414
314.52317
313.53326
312.66131
311.88431
311.18559
310.55272
309.97616
309.44842
308.96353
308.51664
308.10377
307.72157
307.36723
307.03836
306.73289
306.44902
306.1852
305.94003
305.71228
327.71575
323.56468
320.83701
318.81429
317.21069
315.88511
314.75782
313.77945
312.91733
312.14872
311.45717
310.83039
310.25898
309.73554
309.25418
308.81011
308.39938
308.01872
307.66535
307.33689
307.03132
306.74687
306.48199
306.23532
306.00564
327.78047
323.67943
320.98449
318.98585
317.40111
316.09087
314.97634
314.00873
313.15577
312.39499
311.71013
311.08906
310.52246
310.00305
309.52499
309.08356
308.67486
308.29564
307.94318
307.61513
307.30948
307.02449
306.75863
306.51057
306.2791
327.8407
323.78625
321.12179
319.14558
317.57842
316.28246
315.17981
314.22225
313.37783
312.62435
311.94574
311.32999
310.76789
310.25224
309.77727
309.33831
308.93151
308.55366
308.20206
307.87439
307.56867
307.28319
307.01643
306.76707
306.53393
327.89676
323.88567
321.2496
319.29428
317.74348
316.46083
315.36926
314.42105
313.5846
312.83793
312.16514
311.55436
310.99646
310.48433
310.01225
309.5756
309.17058
308.79401
308.44321
308.11591
307.81013
307.52419
307.2566
307.00604
306.77135
327.9489
323.9782
321.36855
319.43268
317.89712
316.62686
315.54561
314.60611
313.77708
313.03676
312.36941
311.76325
311.20928
310.70043
310.23105
309.79656
309.3932
309.01783
308.66779
308.34083
308.03501
307.74865
307.48028
307.2286
306.99246
327.99738
324.06428
321.47923
319.56147
318.04009
316.78138
315.70973
314.77835
313.95623
313.22183
312.55953
311.9577
311.40738
310.90159
310.43472
310.00226
309.60045
309.2262
308.87687
308.55024
308.24438
307.95763
307.68854
307.43582
307.19834
328.04245
324.14433
321.58218
319.68127
318.1731
316.92512
315.86242
314.93859
314.12291
313.39402
312.73644
312.13862
311.59172
311.08878
310.62426
310.19368
309.79333
309.42012
309.07146
308.74513
308.43924
308.15213
307.88237
307.62868
307.38994
328.08432
324.21875
321.6779
319.79267
318.29678
317.0588
316.00442
315.08762
314.27794
313.55417
312.90098
312.30691
311.76318
311.2629
310.80057
310.37175
309.97275
309.60052
309.25248
308.92644
308.62052
308.33307
308.06269
307.8081
307.5682
328.1232
324.2879
321.76687
319.89621
318.41175
317.18307
316.13643
315.22617
314.42206
313.70306
313.05396
312.46338
311.9226
311.42479
310.9645
310.53731
310.13957
309.76825
309.4208
309.09503
308.78908
308.50133
308.23036
307.97494
307.73396
328.15929
324.35212
321.8495
319.9924
318.51857
317.29852
316.25908
315.3549
314.55597
313.84141
313.19611
312.60877
312.07074
311.57523
311.11684
310.69117
310.29461
309.92414
309.57723
309.25171
308.94574
308.6577
308.3862
308.13
307.88802
328.19274
324.41172
321.92621
320.0817
318.61774
317.40572
316.37297
315.47444
314.68033
313.96989
313.32812
312.74379
312.20832
311.71495
311.25833
310.83407
310.4386
310.06892
309.72251
309.39723
309.09124
308.80294
308.53094
308.27402
308.0311
328.22374
324.46699
321.99737
320.16455
318.70975
317.50519
316.47865
315.58536
314.79573
314.08912
313.45062
312.8691
312.33599
311.84462
311.38963
310.96669
310.57224
310.20329
309.85735
309.53229
309.22628
308.93774
308.66528
308.40769
308.16391
328.25244
324.51821
322.06332
320.24135
318.79505
317.59741
316.57662
315.68821
314.90272
314.19967
313.56422
312.98529
312.45439
311.96486
311.51139
311.08968
310.69616
310.3279
309.9824
309.65754
309.35151
309.06274
308.78986
308.53165
308.28706
328.27897
324.56561
322.12438
320.31247
318.87405
317.68282
316.66738
315.78348
315.00184
314.30208
313.66944
313.09292
312.56407
312.07625
311.62419
311.20361
310.81097
310.44334
310.09824
309.77358
309.46754
309.17856
308.90528
308.6465
308.40117
328.30347
324.60944
322.18086
320.37825
318.94713
317.76184
316.75134
315.87162
315.09354
314.39683
313.76681
313.19253
312.66556
312.17933
311.72858
311.30905
310.91722
310.55017
310.20545
309.88096
309.57491
309.28574
309.01209
308.75279
308.50676
328.32606
324.64991
322.23302
320.43903
319.01466
317.83485
316.82893
315.95307
315.17829
314.4844
313.8568
313.28457
312.75936
312.27459
311.82505
311.40649
311.01541
310.64891
310.30454
309.98021
309.67415
309.3848
309.11082
308.85102
308.60436
328.34686
324.68721
322.28113
320.49508
319.07694
317.90221
316.90051
316.02822
315.25648
314.5652
313.93983
313.36951
312.84591
312.3625
311.91408
311.49641
311.10602
310.74003
310.39598
310.0718
309.76573
309.47622
309.20192
308.94167
308.69443
328.36597
324.72153
322.32541
320.54669
319.1343
317.96424
316.96643
316.09743
315.3285
314.63962
314.0163
313.44774
312.92563
312.44347
311.99608
311.57924
311.1895
310.82396
310.48021
310.15618
309.8501
309.56043
309.28585
309.02519
308.7774
328.38349
324.75305
322.36608
320.59411
319.187
318.02124
317.02701
316.16104
315.39469
314.70802
314.0866
313.51965
312.99891
312.51791
312.07146
311.65538
311.26623
310.90112
310.55764
310.23374
309.92765
309.63785
309.36301
309.10196
308.85368
328.3995
324.7819
322.40334
320.63756
319.2353
318.07349
317.08255
316.21936
315.45537
314.77073
314.15105
313.58559
313.06611
312.58616
312.14058
311.7252
311.33659
310.97187
310.62865
310.30486
309.99877
309.70884
309.43376
309.17236
308.92362
328.41408
324.80824
322.43738
320.67726
319.27944
318.12124
317.13331
316.27266
315.51084
314.82806
314.20997
313.64587
313.12754
312.64855
312.20378
311.78904
311.40092
311.03656
310.69357
310.36989
310.06379
309.77375
309.49845
309.23673
308.98757
328.42732
324.8322
322.46835
320.7134
319.31963
318.16473
317.17954
316.32121
315.56137
314.88028
314.26364
313.70078
313.1835
312.7054
312.26135
311.8472
311.45953
311.0955
310.75271
310.42914
310.12304
309.83289
309.55739
309.29538
309.04584
328.43927
324.85389
322.49642
320.74616
319.35607
318.20416
317.22146
316.36524
315.6072
314.92765
314.31233
313.75059
313.23427
312.75697
312.31358
311.89996
311.5127
311.14897
310.80638
310.4829
310.17679
309.88655
309.61086
309.34859
309.09871
328.45
324.87343
322.52172
320.7757
319.38893
318.23973
317.25929
316.40497
315.64855
314.97039
314.35626
313.79554
313.28009
312.80351
312.36072
311.94758
311.56069
311.19723
310.85481
310.53142
310.2253
309.93498
309.65913
309.39662
309.14643
328.45956
324.8909
322.54437
320.80216
319.41838
318.27161
317.29319
316.44059
315.68563
315.00872
314.39566
313.83586
313.32118
312.84525
312.403
311.99029
311.60374
311.24052
310.89826
310.57494
310.26882
309.97842
309.70243
309.4397
309.18923
328.46801
324.90641
322.56449
320.82568
319.44456
318.29996
317.32335
316.47227
315.71861
315.04282
314.43072
313.87173
313.35774
312.88239
312.44062
312.0283
311.64204
311.27904
310.93692
310.61367
310.30755
310.01708
309.74096
309.47804
309.22733
328.47539
324.92001
322.58218
320.84637
319.4676
318.32491
317.3499
316.50017
315.74766
315.07285
314.46159
313.90333
313.38995
312.91512
312.47377
312.06179
311.6758
311.31299
310.97099
310.6478
310.34168
310.05115
309.77492
309.51183
309.2609
328.48173
324.93179
322.59751
320.86432
319.48762
318.3466
317.37297
316.52442
315.77292
315.09897
314.48845
313.93081
313.41797
312.94358
312.5026
312.09092
311.70516
311.34252
311.00063
310.67749
310.37138
310.0808
309.80446
309.54123
309.29011
328.48707
324.94181
322.61058
320.87964
319.5047
318.36512
317.39269
316.54514
315.79451
315.12129
314.51141
313.95431
313.44193
312.96793
312.52727
312.11584
311.73028
311.36779
311.02599
310.7029
310.39678
310.10616
309.82974
309.56639
309.3151
328.49145
324.9501
322.62145
320.8924
319.51894
318.38056
317.40914
316.56245
315.81253
315.13994
314.53059
313.97395
313.46195
312.98828
312.54788
312.13667
311.75128
311.38891
311.04719
310.72414
310.41802
310.12737
309.85087
309.58742
309.336
328.49488
324.95673
322.63017
320.90266
319.53041
318.39301
317.42241
316.57641
315.82709
315.155
314.54608
313.98981
313.47813
313.00472
312.56455
312.15351
311.76826
311.40598
311.06434
310.74132
310.4352
310.14452
309.86797
309.60443
309.3529
328.49738
324.96172
322.63679
320.91048
319.53916
318.40253
317.43256
316.5871
315.83824
315.16655
314.55797
314.00198
313.49055
313.01735
312.57734
312.16645
311.7813
311.41911
311.07751
310.75451
310.4484
310.1577
309.88111
309.6175
309.36589
328.49897
324.9651
322.64133
320.91588
319.54524
318.40916
317.43965
316.59458
315.84605
315.17464
314.5663
314.01053
313.49927
313.02622
312.58634
312.17554
311.79047
311.42833
311.08678
310.7638
310.4577
310.16698
309.89035
309.62671
309.37503
328.49966
324.96688
322.64384
320.91891
319.54869
318.41295
317.44372
316.59888
315.85055
315.17932
314.57113
314.01548
313.50434
313.03138
312.59157
312.18084
311.79582
311.43372
311.09219
310.76923
310.46312
310.17239
309.89576
309.63208
309.38038
328.49946
324.96709
322.64431
320.91958
319.54951
318.4139
317.44477
316.60003
315.85177
315.18061
314.57248
314.01688
313.50577
313.03285
312.59308
312.18237
311.79737
311.43528
311.09377
310.77081
310.46471
310.17399
309.89735
309.63366
309.38195
328.49837
324.96572
322.64276
320.9179
319.54773
318.41203
317.44283
316.59803
315.84973
315.17852
314.57035
314.01472
313.50359
313.03065
312.59086
312.18014
311.79513
311.43304
311.09152
310.76857
310.46248
310.17176
309.89513
309.63146
309.37976
328.49639
324.96277
322.63918
320.91386
319.54332
318.40733
317.43789
316.59287
315.8444
315.17304
314.56474
314.00901
313.49779
313.02477
312.58491
312.17415
311.7891
311.42699
311.08545
310.7625
310.45641
310.1657
309.88909
309.62546
309.3738
328.4935
324.95824
322.63356
320.90744
319.53628
318.39978
317.42992
316.58455
315.83577
315.16415
314.55563
313.99971
313.48833
313.01518
312.57521
312.16436
311.77925
311.41709
311.07553
310.75256
310.44647
310.15579
309.87922
309.61564
309.36404
328.48971
324.95209
322.62587
320.89862
319.52657
318.38935
317.41888
316.57301
315.82379
315.15181
314.54297
313.98678
313.47517
313.00183
312.56171
312.15073
311.76553
311.4033
311.0617
310.73871
310.43264
310.14198
309.86546
309.60195
309.35044
328.48499
324.94431
322.61609
320.88736
319.51415
318.37598
317.40474
316.5582
315.80842
315.13596
314.52671
313.97017
313.45826
312.98467
312.54435
312.13321
311.74788
311.38557
311.04391
310.7209
310.41483
310.12421
309.84775
309.58433
309.33293
328.47933
324.93485
322.60415
320.8736
319.49896
318.35963
317.38741
316.54006
315.78959
315.11652
314.50677
313.94979
313.43752
312.96362
312.52305
312.1117
311.72622
311.3638
311.02207
310.69903
310.39297
310.10239
309.82601
309.5627
309.31144
328.4727
324.92368
322.59002
320.85728
319.48093
318.34021
317.36683
316.5185
315.76719
315.09342
314.48305
313.92555
313.41284
312.93858
312.4977
312.08612
311.70045
311.33789
310.99608
310.673
310.36695
310.07643
309.80014
309.53695
309.28587
328.46507
324.91075
322.57361
320.83832
319.45997
318.31762
317.34289
316.49342
315.74114
315.06653
314.45545
313.89734
313.38412
312.90942
312.46819
312.05632
311.67044
311.30773
310.96582
310.6427
310.33666
310.04619
309.77001
309.50698
309.25609
328.4564
324.896
322.55487
320.81664
319.43599
318.29177
317.31549
316.4647
315.71129
315.03572
314.42383
313.86502
313.35121
312.87602
312.43438
312.02219
311.63605
311.27316
310.93114
310.60798
310.30194
310.01155
309.73549
309.47263
309.22196
328.44667
324.87935
322.53369
320.79213
319.40887
318.26253
317.28448
316.4322
315.67752
315.00087
314.38804
313.82845
313.31396
312.8382
312.39611
311.98355
311.59713
311.23404
310.89189
310.56867
310.26264
309.97232
309.6964
309.43374
309.18333
328.43583
324.86073
322.50998
320.76468
319.37849
318.22976
317.24973
316.39576
315.63967
314.96179
314.34792
313.78743
313.27219
312.79581
312.35319
311.94022
311.55348
311.19016
310.84787
310.52459
310.21858
309.92834
309.65258
309.39013
309.14001
328.42381
324.84005
322.48363
320.73416
319.34469
318.19331
317.21106
316.35523
315.59754
314.9183
314.30326
313.74178
313.2257
312.74862
312.30543
311.892
311.50491
311.14133
310.79888
310.47553
310.16954
309.8794
309.6038
309.3416
309.09179
328.41058
324.81721
322.45451
320.70041
319.30732
318.15299
317.16828
316.31038
315.55093
314.87019
314.25386
313.69129
313.17428
312.69642
312.25259
311.83865
311.45117
311.08732
310.74469
310.42126
310.11529
309.82525
309.54985
309.28792
309.03846
328.39607
324.7921
322.42247
320.66327
319.26619
318.10861
317.1212
316.26102
315.49963
314.81722
314.19948
313.6357
313.11767
312.63896
312.19443
311.77993
311.39202
311.02786
310.68504
310.36153
310.05557
309.76566
309.49046
309.22884
308.97976
328.3802
324.7646
322.38736
320.62256
319.2211
318.05995
317.06958
316.2069
315.44338
314.75915
314.13986
313.57475
313.0556
312.57595
312.13066
311.71555
311.32717
310.96268
310.61965
310.29605
309.99012
309.70033
309.42537
309.16407
308.91542
328.3629
324.73458
322.34901
320.57809
319.17182
318.00678
317.01317
316.14775
315.3819
314.69569
314.07469
313.50814
312.98777
312.50711
312.06098
311.6452
311.25632
310.89146
310.54821
310.22452
309.91861
309.62896
309.35426
309.09332
308.84513
328.34409
324.70188
322.30722
320.52962
319.11812
317.94882
316.95168
316.08328
315.31489
314.62652
314.00368
313.43556
312.91386
312.43209
311.98506
311.56856
311.17913
310.81388
310.47039
310.14659
309.84071
309.55122
309.2768
309.01625
308.76856
328.32367
324.66634
322.26179
320.47691
319.05971
317.88579
316.8848
316.01316
315.24202
314.5513
313.92645
313.35663
312.8335
312.35053
311.90253
311.48525
311.09522
310.72955
310.38581
310.0619
309.75606
309.46675
309.19263
308.93251
308.68537
328.30155
324.62777
322.21248
320.41969
318.99631
317.81736
316.8122
315.93705
315.16292
314.46965
313.84264
313.27098
312.7463
312.26204
311.81298
311.39487
311.00421
310.6381
310.29407
309.97006
309.66427
309.37515
309.10136
308.84171
308.59517
328.2776
324.58599
322.15902
320.35766
318.92757
317.74318
316.7335
315.85454
315.07719
314.38117
313.75182
313.17817
312.65182
312.16619
311.716
311.29699
310.90566
310.53907
310.19476
309.87064
309.5649
309.276
309.00258
308.74344
308.49754
328.25169
324.54074
322.10114
320.29048
318.85313
317.66284
316.64827
315.76521
314.98437
314.28539
313.65352
313.07775
312.54961
312.06249
311.6111
311.19114
310.79909
310.432
310.0874
309.76317
309.45751
309.16885
308.89582
308.63724
308.39204
328.22369
324.4918
322.0385
320.21778
318.77257
317.57592
316.55607
315.66857
314.88398
314.18182
313.54725
312.96919
312.43914
311.95044
311.49777
311.07681
310.68401
310.3164
309.97149
309.64717
309.34159
309.0532
308.78062
308.52264
308.2782
328.19343
324.43887
321.97075
320.13915
318.68544
317.48191
316.45637
315.5641
314.77548
314.0699
313.43244
312.85194
312.31986
311.82949
311.37547
310.95345
310.55986
310.19172
309.84651
309.52209
309.21663
308.92855
308.65645
308.39913
308.15551
328.16074
324.38162
321.89747
320.05411
318.59122
317.38027
316.3486
315.4512
314.65825
313.94901
313.30847
312.72538
312.19115
311.69901
311.24358
310.82046
310.42607
310.05738
309.71187
309.38739
309.08207
308.79433
308.52277
308.26617
308.02343
328.12539
324.31971
321.8182
319.96211
318.48931
317.27036
316.2321
315.32919
314.53162
313.81848
313.17466
312.58884
312.05234
311.55836
311.10145
310.6772
310.28198
309.91276
309.56697
309.24244
308.93732
308.64998
308.37901
308.12318
307.88141
328.08716
324.25269
321.73239
319.86255
318.37905
317.15148
316.10613
315.19733
314.39482
313.67754
313.03026
312.44156
311.90269
311.40679
310.94837
310.52298
310.12694
309.75719
309.41115
309.08663
308.78175
308.49486
308.22456
307.96959
307.72885
328.04575
324.18006
321.63941
319.75469
318.25963
317.02279
315.96984
315.05474
314.24698
313.52533
312.87441
312.2827
311.74139
311.24352
310.78358
310.35704
309.9602
309.58997
309.24374
308.91928
308.6147
308.32835
308.05879
307.80475
307.56514
328.00083
324.10123
321.5385
319.63766
318.13013
316.88331
315.82223
314.90042
314.08711
313.36087
312.70615
312.11135
311.56753
311.0677
310.60623
310.17858
309.781
309.41036
309.064
308.7397
308.43551
308.14978
307.88105
307.62805
307.38965
327.95197
324.01547
321.42873
319.51042
317.98943
316.73189
315.66212
314.7332
313.91406
313.18303
312.52442
311.92647
311.38014
310.87836
310.41544
309.98676
309.58853
309.21757
308.8712
308.54715
308.24347
307.95847
307.69068
307.43882
307.20174
327.89864
323.92183
321.30894
319.37166
317.83613
316.56709
315.48809
314.5517
313.72649
312.99054
312.32798
311.72689
311.17812
310.67449
310.21022
309.78065
309.38191
309.01078
308.66455
308.34091
308.03788
307.75374
307.48702
307.23641
307.00077
327.84016
323.81914
321.17764
319.21973
317.6685
316.38718
315.29843
314.35424
313.5228
312.78191
312.11544
311.51133
310.96027
310.45496
309.98956
309.5593
309.16026
308.78917
308.44327
308.12022
307.81801
307.5349
307.2694
307.02018
306.78609
327.77559
323.70576
321.03283
319.05244
317.48429
316.18993
315.09098
314.13881
313.30112
312.55539
311.88521
311.27832
310.72526
310.21859
309.75235
309.3217
308.92266
308.55188
308.20657
307.88435
307.58318
307.3013
307.03718
306.7895
306.5571
327.70359
323.57941
320.87174
318.86681
317.28052
315.97244
314.86305
313.90292
313.05921
312.30896
311.63549
311.02628
310.47167
309.96409
309.49746
309.06684
308.66818
308.29808
307.95368
307.63259
307.33271
307.05229
306.78976
306.5438
306.31324
327.62212
323.43664
320.6903
318.65862
317.05308
315.73092
314.6112
313.64352
312.79438
312.04031
311.36427
310.75345
310.19799
309.69015
309.22374
308.79371
308.39593
308.02696
307.68389
307.36427
307.06601
306.78731
306.52661
306.28256
306.05397
327.52775
323.27185
320.48217
318.42159
316.79619
315.46027
314.33104
313.3569
312.50351
311.74682
311.06936
310.458
309.90268
309.39548
308.93008
308.50135
308.10509
307.73779
307.39653
307.07881
306.78253
306.50586
306.24724
306.00531
305.77889
327.4138
323.07484
320.23671
318.14606
316.50162
315.1537
314.0171
313.03869
312.18312
311.42571
310.74851
310.13813
309.58426
309.07885
308.61547
308.18892
307.79493
307.42997
307.09108
306.77575
306.48185
306.20756
305.95131
305.71173
305.48764
327.26392
322.82448
319.93493
317.81681
316.15779
314.80258
313.66296
312.68408
311.82961
311.07423
310.39965
309.7922
309.24146
308.73926
308.2791
307.85575
307.46492
307.10304
306.76716
306.45475
306.16369
305.89216
305.63858
305.40159
305.18001
327.02108
322.47068
319.54227
317.41127
315.75003
314.39726
313.26214
312.28866
311.43987
310.69018
310.02114
309.41904
308.87339
308.37602
307.92046
307.50146
307.11474
306.75676
306.42456
306.11566
305.82792
305.55953
305.30894
305.0748
304.85593
)
;

boundaryField
{
    rock_inlet
    {
        type            externalWallHeatFluxTemperature;
        mode            coefficient;
        kappaMethod     solidThermo;
        h               constant 10;
        Ta              uniform 283.15;
        qr              none;
        refValue        uniform 283.15;
        refGradient     uniform 0;
        valueFraction   nonuniform List<scalar> 
25
(
0.25
0.25
0.25
0.25
0.25
0.25
0.25
0.25
0.25
0.25
0.25
0.25
0.25
0.25
0.25
0.25
0.25
0.25
0.25
0.25
0.25
0.25
0.25
0.25
0.25
)
;
        value           nonuniform List<scalar> 
25
(
307.07601
298.81618
294.54348
292.00069
290.34635
289.20058
288.36931
287.74428
287.26085
286.87836
286.57005
286.31771
286.10852
285.93326
285.78511
285.65897
285.5509
285.45784
285.37737
285.30751
285.24661
285.19322
285.14599
285.10347
285.06392
)
;
    }
    rock_outlet
    {
        type            externalWallHeatFluxTemperature;
        mode            coefficient;
        kappaMethod     solidThermo;
        h               constant 0.2;
        Ta              uniform 279.15;
        qr              none;
        refValue        uniform 279.15;
        refGradient     uniform 0;
        valueFraction   nonuniform List<scalar> 
25
(
0.0066225166
0.0066225166
0.0066225166
0.0066225166
0.0066225166
0.0066225166
0.0066225166
0.0066225166
0.0066225166
0.0066225166
0.0066225166
0.0066225166
0.0066225166
0.0066225166
0.0066225166
0.0066225166
0.0066225166
0.0066225166
0.0066225166
0.0066225166
0.0066225166
0.0066225166
0.0066225166
0.0066225166
0.0066225166
)
;
        value           nonuniform List<scalar> 
25
(
326.70406
322.18379
319.27477
317.15789
315.50764
314.16383
313.03623
312.0692
311.22603
310.48131
309.8167
309.21858
308.67654
308.18247
307.72993
307.3137
306.92954
306.57393
306.24394
305.93708
305.65124
305.38464
305.13571
304.90311
304.6857
)
;
    }
    rock_outer
    {
        type            externalWallHeatFluxTemperature;
        mode            coefficient;
        kappaMethod     solidThermo;
        h               constant 0.2;
        Ta              uniform 279.15;
        qr              none;
        refValue        uniform 279.15;
        refGradient     uniform 0;
        valueFraction   nonuniform List<scalar> 
100
(
0.003954211
0.003954211
0.003954211
0.003954211
0.003954211
0.003954211
0.003954211
0.003954211
0.003954211
0.003954211
0.003954211
0.003954211
0.003954211
0.003954211
0.003954211
0.003954211
0.003954211
0.003954211
0.003954211
0.003954211
0.003954211
0.003954211
0.003954211
0.003954211
0.003954211
0.003954211
0.003954211
0.003954211
0.003954211
0.003954211
0.003954211
0.003954211
0.003954211
0.003954211
0.003954211
0.003954211
0.003954211
0.003954211
0.003954211
0.003954211
0.003954211
0.003954211
0.003954211
0.003954211
0.003954211
0.003954211
0.003954211
0.003954211
0.003954211
0.003954211
0.003954211
0.003954211
0.003954211
0.003954211
0.003954211
0.003954211
0.003954211
0.003954211
0.003954211
0.003954211
0.003954211
0.003954211
0.003954211
0.003954211
0.003954211
0.003954211
0.003954211
0.003954211
0.003954211
0.003954211
0.003954211
0.003954211
0.003954211
0.003954211
0.003954211
0.003954211
0.003954211
0.003954211
0.003954211
0.003954211
0.003954211
0.003954211
0.003954211
0.003954211
0.003954211
0.003954211
0.003954211
0.003954211
0.003954211
0.003954211
0.003954211
0.003954211
0.003954211
0.003954211
0.003954211
0.003954211
0.003954211
0.003954211
0.003954211
0.003954211
)
;
        value           nonuniform List<scalar> 
100
(
285.67599
286.95103
288.21158
289.44569
290.64459
291.8017
292.91228
293.97312
294.98234
295.93917
296.84371
297.69676
298.49963
299.25403
299.96192
300.6254
301.2467
301.82804
302.37165
302.87971
303.35434
303.79756
304.21133
304.59748
304.95776
305.29383
305.60724
305.89945
306.17183
306.42565
306.66213
306.88237
307.08743
307.27828
307.45583
307.62094
307.77438
307.9169
308.04918
308.17185
308.2855
308.39068
308.48789
308.57761
308.66025
308.73622
308.80589
308.86959
308.92763
308.98028
309.02782
309.07045
309.10839
309.14183
309.17093
309.19582
309.21663
309.23347
309.24641
309.25552
309.26084
309.2624
309.26022
309.25428
309.24456
309.23102
309.21358
309.19218
309.16671
309.13704
309.10305
309.06457
309.02142
308.9734
308.92028
308.86181
308.79772
308.72771
308.65145
308.56858
308.47874
308.38149
308.27641
308.16302
308.04081
307.90926