/*--------------------------------*- C++ -*----------------------------------*\
| =========                 |                                                 |
| \\      /  F ield         | OpenFOAM: The Open Source CFD Toolbox           |
|  \\    /   O peration     | Version:  2506                                  |
|   \\  /    A nd           | Website:  www.openfoam.com                      |
|    \\/     M anipulation  |                                                 |
\*---------------------------------------------------------------------------*/
FoamFile
{
    version     2.0;
    format      ascii;
    arch        "LSB;label=32;scalar=64";
    class       volScalarField;
    location    "10000/rock";
    object      T;
}
// * * * * * * * * * * * * * * * * * * * * * * * * * * * * * * * * * * * * * //

dimensions      [0 0 0 1 0 0 0];

internalField   nonuniform List<scalar> 
6000
(
315.50182
304.43464
298.74932
295.35253
293.12201
291.56021
290.41467
289.54443
288.86488
288.32237
287.88134
287.51735
287.2131
286.95601
286.73678
286.54833
286.38526
286.24331
286.11914
286.01006
285.91389
285.82884
285.75341
285.68634
285.62652
285.57295
285.52469
285.48073
285.43986
285.4003
319.11908
308.34543
302.18719
298.28927
295.64375
293.75346
292.34851
291.27137
290.42466
289.74534
289.19097
288.73205
288.34752
288.02196
287.74388
287.50453
287.29717
287.1165
286.95833
286.81929
286.69665
286.58815
286.4919
286.40633
286.33005
286.26184
286.20055
286.14506
286.09416
286.0465
320.92538
310.90032
304.77286
300.69123
297.81866
295.71295
294.11898
292.88042
291.89698
291.10184
290.44901
289.90597
289.44917
289.06118
288.72889
288.44224
288.19343
287.97632
287.78599
287.6185
287.47063
287.33973
287.22358
287.12032
287.02834
286.94624
286.87273
286.80665
286.74687
286.69236
322.02237
312.67559
306.74445
302.64755
299.67524
297.44329
295.72174
294.36437
293.27418
292.38468
291.64904
291.03349
290.51317
290.06945
289.68814
289.35828
289.07127
288.82032
288.59995
288.40575
288.23411
288.08203
287.94703
287.82701
287.72017
287.62495
287.54001
287.46414
287.39626
287.33548
322.78259
313.98895
308.28976
304.25596
301.26067
298.96533
297.16444
295.72441
294.55442
293.59074
292.78752
292.11105
291.53615
291.04365
290.61881
290.25009
289.92839
289.64642
289.39833
289.17934
288.98551
288.81361
288.66091
288.52512
288.4043
288.29679
288.20115
288.11614
288.04072
287.97403
323.35579
315.01224
309.53725
305.59861
302.6234
300.30606
298.46121
296.96723
295.74018
294.72016
293.86332
293.13693
292.51611
291.98174
291.51887
291.11574
290.76295
290.45294
290.17956
289.93779
289.72348
289.53317
289.36399
289.21348
289.07959
288.96057
288.85492
288.76136
288.67884
288.60652
323.81258
315.84224
310.57179
306.73827
303.80586
301.49258
299.62862
298.10248
296.83671
295.77544
294.87729
294.11093
293.45228
292.88259
292.38705
291.95389
291.57361
291.23853
290.94235
290.67987
290.44682
290.23958
290.05516
289.891
289.74496
289.61521
289.50019
289.39861
289.30939
289.23165
324.19088
316.5366
311.44969
307.72126
304.84271
302.54935
300.68318
299.14092
297.85075
296.7606
295.8316
295.03403
294.34485
293.7459
293.22273
292.76373
292.35946
292.00223
291.6857
291.40459
291.15454
290.93186
290.73346
290.55672
290.39943
290.2597
290.13595
290.02684
289.93126
289.84831
324.51312
317.1316
312.20913
308.5815
305.76138
303.4972
301.64007
300.09323
298.7896
297.68046
296.7293
295.90805
295.19476
294.57201
294.02583
293.54491
293.11997
292.7434
292.40889
292.11117
291.84584
291.60918
291.39805
291.20978
291.04213
290.89318
290.76129
290.64511
290.5435
290.45555
324.79353
317.65118
312.87664
309.34396
306.58328
304.35342
302.51264
300.96941
299.66052
298.54016
297.57393
296.73531
296.00346
295.36174
294.79673
294.29747
293.85494
293.46167
293.11145
292.79907
292.52012
292.27089
292.04823
291.84947
291.67233
291.51485
291.37541
291.25261
291.1453
291.05252
325.04167
318.11186
313.47117
310.02725
307.32513
305.13216
303.31235
301.77842
300.47036
299.3448
298.3692
297.51845
296.77276
296.11628
295.53613
295.02176
294.56445
294.15694
293.79313
293.4679
293.17691
292.91648
292.68346
292.47519
292.28938
292.12408
291.97764
291.84864
291.73593
291.63852
325.26417
318.52538
314.00658
310.64547
308.00004
305.84492
304.04891
302.52818
301.2254
300.09925
299.11882
298.26023
297.50467
296.83701
296.24496
295.71836
295.24882
294.82929
294.45385
294.11748
293.81594
293.54558
293.30331
293.08647
292.89278
292.72031
292.5674
292.43262
292.31479
292.21293
325.46582
318.90034
314.49324
311.20939
308.61836
306.50109
304.73046
303.22556
301.93127
300.80804
299.82634
298.96339
298.20125
297.52549
296.92432
296.38803
295.90852
295.47899
295.09369
294.74776
294.43704
294.15795
293.90746
293.68293
293.48213
293.30311
293.14422
293.00405
292.8814
292.77527
325.65017
319.24322
314.93908
311.72743
309.18832
307.10832
305.36384
303.87646
302.59297
301.4753
300.49511
299.6306
298.8646
298.18329
297.57541
297.03162
296.54414
296.10641
295.71288
295.35882
295.04017
294.75346
294.49571
294.26433
294.05711
293.87212
293.70774
293.56254
293.43534
293.32512
325.81991
319.55898
315.35024
312.20622
309.71657
307.67291
305.95479
304.48597
303.21488
302.10473
301.12821
300.26437
299.49673
298.81204
298.19947
297.65009
297.15638
296.71205
296.31173
295.95082
295.6254
295.33209
295.06796
294.8305
294.61751
294.42711
294.25768
294.10781
293.9763
293.86215
325.97715
319.85151
315.73159
312.65107
310.20848
308.20005
306.50814
305.05846
303.80085
302.69966
301.72847
300.86707
300.0996
299.41329
298.79777
298.24441
297.746
297.29647
296.89062
296.52403
296.19288
295.89389
295.6242
295.38135
295.1632
294.96789
294.79383
294.63961
294.50406
294.38615
326.12354
320.12392
316.08702
313.06629
310.66847
308.69405
307.02797
305.59766
304.35424
303.26304
302.29844
301.44088
300.67502
299.98858
299.37153
298.81558
298.31378
297.86026
297.45002
297.07878
296.74283
296.43898
296.16447
295.91688
295.69412
295.49438
295.31607
295.15782
295.01845
294.89693
326.26044
320.37869
316.41971
313.4554
311.10019
309.15853
307.51773
306.1068
304.878
303.79751
302.84043
301.98778
301.22471
300.53933
299.92195
299.36458
298.86051
298.40407
297.99043
297.61543
297.27551
296.96756
296.68889
296.43715
296.2103
296.00655
295.82435
295.66235
295.51937
295.39441
326.38895
320.61788
316.73224
313.82129
311.50668
309.59655
307.98039
306.58867
305.37467
304.30539
303.35652
302.50962
301.75026
301.06691
300.4502
299.8924
299.38701
298.92855
298.51236
298.13442
297.79126
297.47987
297.19763
296.94227
296.71178
296.50442
296.31866
296.15318
296.0068
295.87853
326.50998
320.84319
317.02679
314.16642
311.89051
310.01068
308.41847
307.04567
305.84653
304.78874
303.84858
303.00806
302.25313
301.5726
300.95738
300.39995
299.89405
299.43437
299.01637
298.63617
298.29042
297.97618
297.69092
297.4324
297.1987
296.98808
296.79907
296.63035
296.48077
296.34933
326.62431
321.05603
317.30517
314.49283
312.25385
310.40314
308.83414
307.47991
306.29554
305.2494
304.31828
303.4846
302.73467
302.05758
301.44451
300.88815
300.38242
299.92217
299.503
299.12116
298.77337
298.45681
298.16899
297.90775
297.6712
297.45766
297.26567
297.09394
296.94133
296.80686
326.73258
321.2576
317.56891
314.80225
312.59856
310.77582
309.2293
307.8932
306.72345
305.689
304.76713
303.94063
303.19612
302.52298
301.91259
301.35786
300.85286
300.39261
299.97282
299.58985
299.24052
298.92209
298.63213
298.36855
298.12949
297.91332
297.7186
297.54407
297.3886
297.25122
326.83534
321.44893
317.81932
315.09619
312.92623
311.13038
309.60559
308.28717
307.1318
306.10901
305.19649
304.37739
303.63863
302.96981
302.36254
301.80989
301.3061
300.84631
300.42637
300.04272
299.69229
299.37238
299.08066
298.81507
298.5738
298.35526
298.15804
297.98089
297.82272
297.68256
326.93306
321.63088
318.05753
315.37592
313.23825
311.46823
309.96444
308.66321
307.52196
306.51071
305.60758
304.79603
304.06324
303.39904
302.79522
302.24502
301.74283
301.2839
300.8642
300.48026
300.12908
299.80804
299.51488
299.24758
299.00437
298.7837
298.58418
298.40461
298.24388
298.10105
327.02615
321.80422
318.28452
315.64257
313.53582
311.79063
310.30712
309.0226
307.89514
306.89529
306.00152
305.19759
304.47092
303.81155
303.21144
302.664
302.16372
301.70598
301.28684
300.90293
300.55132
300.22947
299.93514
299.66638
299.42148
299.19889
298.99727
298.81542
298.65227
298.50687
327.11496
321.96959
318.50112
315.89711
313.82
312.09868
310.63474
309.36643
308.25245
307.2638
306.37931
305.58301
304.86255
304.20817
303.61197
303.0675
302.56939
302.11311
301.69482
301.31122
300.95945
300.63703
300.34178
300.07181
299.82541
299.60109
299.39753
299.21356
299.04811
298.90026
327.19982
322.12759
318.70809
316.1404
314.09172
312.39336
310.94831
309.69571
308.59485
307.61718
306.74185
305.95316
305.23896
304.58966
303.99752
303.45621
302.96046
302.50586
302.08864
301.70557
301.35387
301.03111
300.73517
300.46417
300.21646
299.99059
299.78525
299.59928
299.43165
299.28144
327.28098
322.27871
318.90609
316.37319
314.3518
312.67553
311.24871
310.01132
308.92324
307.95631
307.08999
306.30884
305.6009
304.95673
304.36875
303.83073
303.33751
302.88476
302.4688
302.08646
301.73502
301.41211
301.11565
300.8438
300.59495
300.36767
300.16069
299.97285
299.80315
299.65067
327.35869
322.42342
319.09569
316.59616
314.60097
312.94597
311.53674
310.31407
309.2384
308.28195
307.42449
306.65078
305.94906
305.31006
304.72629
304.19165
303.70108
303.25032
302.83576
302.45432
302.1033
301.7804
301.48358
301.21103
300.96119
300.73264
300.52413
300.33454
300.16287
300.00821
327.43318
322.56209
319.27742
316.80992
314.83991
313.20537
311.81311
310.60469
309.54107
308.59484
307.74604
306.97966
306.28411
305.65025
305.07073
304.53954
304.0517
303.60304
303.19001
302.80958
302.45912
302.13637
301.83932
301.56621
301.3155
301.0858
300.87588
300.68464
300.51109
300.35434
327.50462
322.69511
319.45175
317.01499
315.0692
313.45436
312.07847
310.88384
309.8319
308.89561
308.05529
307.29611
306.60665
305.9779
305.40263
304.87491
304.38987
303.94338
303.53197
303.15266
302.80288
302.48038
302.18322
301.90967
301.6582
301.42745
301.21622
301.02343
300.84809
300.68933
327.5732
322.82279
319.6191
317.21189
315.28937
313.69351
312.33342
311.15211
310.1115
309.18489
308.35282
307.6007
306.91723
306.29354
305.7225
305.19828
304.71606
304.2718
303.86208
303.48398
303.13495
302.81282
302.51564
302.24174
301.98961
301.75791
301.54547
301.3512
301.17415
301.01346
327.63907
322.94542
319.77984
317.40103
315.50092
313.92335
312.5785
311.41007
310.38043
309.46321
308.6392
307.89397
307.21638
306.59769
306.03084
305.5101
305.03073
304.58874
304.18076
303.80392
303.45573
303.13403
302.83693
302.56276
302.31005
302.07749
301.86391
301.66826
301.48958
301.32703
327.70238
323.06328
319.93433
317.58284
315.70429
314.14433
312.81419
311.65821
310.6392
309.7311
308.91492
308.17642
307.5046
306.89081
306.32811
305.81084
305.33431
304.89461
304.48841
304.11288
303.76558
303.44438
303.14742
302.87306
302.61985
302.3865
302.17186
301.97488
301.79465
301.63031
327.76326
323.1766
320.08289
317.75768
315.89989
314.35691
313.04096
311.897
310.88828
309.98902
309.18047
308.44853
307.78235
307.17337
306.61476
306.10091
305.62722
305.18981
304.78541
304.41123
304.06486
303.74421
303.44745
303.17296
302.91931
302.68524
302.4696
302.27138
302.08966
301.92359
327.82182
323.28561
320.22579
317.92588
316.08809
314.56148
313.25922
312.12689
311.12812
310.23744
309.43628
308.71073
308.05005
307.4458
306.8912
306.38073
305.90984
305.47472
305.07213
304.69932
304.35392
304.03386
303.73734
303.46278
303.20875
302.97401
302.75745
302.55804
302.37489
302.20716
327.87818
323.39052
320.36333
318.08777
316.26925
314.75841
313.46936
312.34826
311.35912
310.47674
309.68278
308.96344
308.30812
307.70848
307.15782
306.65068
306.18257
305.74971
305.34893
304.97751
304.6331
304.31366
304.01743
303.74283
303.48847
303.25312
303.03568
302.83515
302.65062
302.4813
327.93243
323.49151
320.49573
318.24363
316.44367
314.94804
313.67175
312.56149
311.58167
310.70734
309.92034
309.20704
308.55695
307.96181
307.415
306.91113
306.44575
306.01514
305.61616
305.24612
304.90272
304.58393
304.28801
304.01341
303.75877
303.52286
303.30459
303.10298
302.91715
302.74629
327.98468
323.58876
320.62323
318.39374
316.61167
315.13071
313.86672
312.76694
311.79612
310.92958
310.14934
309.44191
308.7969
308.20615
307.6631
307.16243
306.69974
306.27135
305.87415
305.5055
305.1631
304.84498
304.5494
304.27484
304.01995
303.78351
303.56447
303.36184
303.17475
303.0024
328.03501
323.68243
320.74605
318.53834
316.77351
315.3067
314.05459
312.96492
312.00281
311.14381
310.37012
309.66838
309.02831
308.44183
307.90246
307.40492
306.94486
306.51865
306.12322
305.75594
305.41455
305.09711
304.80189
304.52739
304.27228
304.03537
303.81558
303.61198
303.42368
303.24991
328.0835
323.77269
320.86439
318.67766
316.92946
315.4763
314.23565
313.15575
312.20206
311.35036
310.583
309.88679
309.25152
308.66919
308.1334
307.63891
307.18144
306.75737
306.36367
305.99775
305.65738
305.34062
305.04577
304.77136
304.51606
304.2787
304.05822
303.85368
303.66422
303.48907
328.13023
323.85966
320.97843
318.81194
317.07977
315.63977
314.41018
313.33972
312.39417
311.54951
310.78831
310.09744
309.46683
308.88854
308.35623
307.86473
307.40977
306.98781
306.59581
306.23124
305.89187
305.57579
305.28133
305.00702
304.75155
304.51377
304.29263
304.0872
303.89663
303.72015
328.17528
323.9435
321.08836
318.94137
317.22466
315.79736
314.57844
313.5171
312.57941
311.74158
310.98631
310.30063
309.67453
309.10017
308.57125
308.08266
307.63016
307.21024
306.81993
306.45667
306.11829
305.8029
305.50883
305.23464
304.97903
304.74085
304.51909
304.3128
304.12116
303.9434
328.2187
324.02431
321.19433
319.06614
317.36435
315.9493
314.74069
313.68815
312.75805
311.92682
311.1773
310.49664
309.87493
309.30437
308.77875
308.29297
307.84288
307.42496
307.03628
306.67433
306.33693
306.02221
305.72854
305.45448
305.19874
304.9602
304.73784
304.53073
304.33806
304.15907
328.26057
324.10223
321.2965
319.18645
317.49904
316.09582
314.89715
313.85311
312.93034
312.10549
311.36154
310.68574
310.06827
309.50141
308.97898
308.49596
308.0482
307.63224
307.24516
306.88447
306.54803
306.23399
305.94072
305.66679
305.41095
305.17207
304.94913
304.74125
304.54758
304.3674
328.30094
324.17737
321.39502
319.30247
317.62893
316.23711
315.04804
314.01221
313.09653
312.27784
311.53928
310.86818
310.25482
309.69154
309.17222
308.69186
308.24637
307.83232
307.4468
307.08736
306.75186
306.43848
306.14561
305.87183
305.61589
305.37669
305.15321
304.94457
304.74996
304.56862
328.33987
324.24983
321.49004
319.41436
317.75421
316.37339
315.19359
314.16568
313.25685
312.44412
311.71076
311.04421
310.43483
309.87502
309.35871
308.88094
308.43766
308.02546
307.64146
307.28323
306.94867
306.63594
306.34346
306.06983
305.81381
305.5743
305.35031
305.14095
304.94541
304.76297
328.37742
324.31971
321.58168
319.52228
317.87504
316.50484
315.33398
314.31372
313.4115
312.60453
311.8762
311.21406
310.60853
310.05208
309.53868
309.06343
308.6223
308.21189
307.82938
307.47234
307.13868
306.82659
306.5345
306.26103
306.00494
305.76514
305.54065
305.3306
305.13418
304.95067
328.41364
324.38712
321.67007
319.62637
317.99159
316.63164
315.46941
314.45653
313.56071
312.7593
312.03583
311.37795
310.77615
310.22295
309.71238
309.23957
308.80051
308.39186
308.01079
307.6549
307.32212
307.01066
306.71896
306.44564
306.18949
305.94942
305.72446
305.51374
305.31647
305.13193
328.44857
324.45214
321.75533
319.72678
318.10402
316.75396
315.60006
314.59432
313.70466
312.90862
312.18985
311.53609
310.93789
310.38785
309.88001
309.40956
308.97252
308.56557
308.1859
307.83114
307.49922
307.18838
306.89706
306.6239
306.36769
306.12736
305.90195
305.69059
305.4925
305.30697
328.48226
324.51485
321.83758
319.82364
318.21248
316.87196
315.72611
314.72725
313.84354
313.0527
312.33847
311.68869
311.09398
310.54698
310.0418
309.57364
309.13855
308.73325
308.35494
308.00127
307.67019
307.35995
307.069
306.796
306.53974
306.29917
306.07332
305.86135
305.66247
305.47598
328.51477
324.57536
321.91692
319.91708
318.31711
316.98581
315.84772
314.8555
313.97755
313.19171
312.48188
311.83594
311.2446
310.70055
310.19793
309.73199
309.2988
308.89509
308.51811
308.1655
307.83524
307.52558
307.235
306.96216
306.70586
306.46505
306.23879
306.02622
305.82658
305.63917
328.54612
324.63372
321.99346
320.00723
318.41806
317.09564
315.96504
314.97924
314.10684
313.32585
312.62025
311.97803
311.38996
310.84875
310.34862
309.88482
309.45346
309.05131
308.6756
308.32402
307.99456
307.68547
307.39525
307.12256
306.86623
306.6252
306.39854
306.1854
305.98503
305.79672
328.57637
324.69003
322.06731
320.0942
318.51545
317.20161
316.07824
315.09863
314.2316
313.45528
312.75377
312.11515
311.53022
310.99178
310.49404
310.03232
309.60274
309.20208
308.82762
308.47704
308.14834
307.83982
307.54995
307.27741
307.02104
306.77981
306.55276
306.33908
306.13799
305.94883
328.60554
324.74435
322.13854
320.1781
318.6094
317.30385
316.18745
315.21382
314.35197
313.58016
312.88261
312.24746
311.66557
311.12979
310.63438
310.17466
309.74681
309.3476
308.97434
308.62473
308.29679
307.9888
307.69927
307.42689
307.17049
306.92905
306.70164
306.48743
306.28566
306.09566
328.63369
324.79675
322.20727
320.25905
318.70005
317.40248
316.29282
315.32496
314.4681
313.70066
313.00693
312.37513
311.79619
311.26298
310.76981
310.31203
309.88584
309.48804
309.11595
308.76728
308.44006
308.1326
307.8434
307.57117
307.31475
307.07312
306.84535
306.63063
306.42821
306.23741
328.66083
324.8473
322.27357
320.33714
318.78751
317.49765
316.39449
315.43219
314.58016
313.81693
313.12688
312.49832
311.92222
311.3915
310.9005
310.4446
310.02002
309.62358
309.25261
308.90485
308.57834
308.27138
307.98251
307.71043
307.45399
307.21217
306.98407
306.76886
306.5658
306.37423
328.68702
324.89606
322.33754
320.41248
318.87188
317.58946
316.49257
315.53565
314.68827
313.9291
313.24262
312.61718
312.04383
311.51551
311.02661
310.57252
310.1495
309.75437
309.3845
309.03762
308.71179
308.40533
308.11677
307.84484
307.58838
307.34638
307.11795
306.90227
306.6986
306.50629
328.71227
324.9431
322.39924
320.48516
318.95327
317.67803
316.58719
315.63546
314.79258
314.03733
313.35429
312.73187
312.16117
311.63517
311.14829
310.69596
310.27444
309.88059
309.51177
309.16575
308.84058
308.5346
308.24635
307.97455
307.71807
307.47591
307.24717
307.03103
306.82678
306.63374
328.73663
324.98848
322.45876
320.55527
319.0318
317.76347
316.67848
315.73176
314.89321
314.14175
313.46203
312.84252
312.27438
311.75063
311.2657
310.81507
310.395
310.00238
309.63459
309.28938
308.96485
308.65934
308.37139
308.09973
307.84323
307.60091
307.37187
307.15529
306.95047
306.75674
328.76011
325.03224
322.51617
320.6229
319.10754
317.8459
316.76654
315.82465
314.99029
314.24249
313.56597
312.94928
312.3836
311.86202
311.37898
310.92999
310.51132
310.11989
309.75308
309.40868
309.08477
308.77971
308.49204
308.22052
307.96401
307.72154
307.4922
307.2752
307.06983
306.87543
328.78276
325.07445
322.57155
320.68814
319.1806
317.92541
316.85149
315.91426
315.08394
314.33967
313.66624
313.05226
312.48898
311.96948
311.48827
311.04086
310.62355
310.23327
309.86742
309.52379
309.20048
308.89584
308.60846
308.33707
308.08055
307.83793
307.60831
307.39091
307.18501
306.98996
328.8046
325.11516
322.62496
320.75106
319.25108
318.00211
316.93343
316.0007
315.17428
314.43341
313.76296
313.15161
312.59063
312.07315
311.5937
311.14782
310.73182
310.34265
309.97772
309.63484
309.3121
309.0079
308.72078
308.44952
308.19299
307.95022
307.72034
307.50255
307.29614
307.10046
328.82566
325.15442
322.67648
320.81175
319.31905
318.07608
317.01247
316.08408
315.26142
314.52383
313.85626
313.24744
312.68868
312.17316
311.69541
311.251
310.83627
310.44817
310.08413
309.74197
309.4198
309.11599
308.82914
308.558
308.30147
308.05856
307.82842
307.61025
307.40335
307.20707
328.84595
325.19228
322.72615
320.87027
319.3846
318.14742
317.08869
316.16449
315.34546
314.61104
313.94625
313.33988
312.78326
312.26962
311.79351
311.35052
310.93701
310.54995
310.18677
309.84531
309.52368
309.22027
308.93368
308.66265
308.40611
308.16308
307.93268
307.71415
307.50677
307.30992
328.86551
325.22878
322.77406
320.92671
319.44782
318.21622
317.16221
316.24204
315.42651
314.69515
314.03304
313.42902
312.87448
312.36265
311.88813
311.44651
311.03419
310.64812
310.28578
309.94498
309.62388
309.32085
309.0345
308.7636
308.50705
308.26389
308.03325
307.81437
307.60654
307.40912
328.88437
325.26397
322.82024
320.98113
319.50878
318.28257
317.23309
316.31682
315.50467
314.77626
314.11674
313.51499
312.96245
312.45237
311.97938
311.53909
311.1279
310.74281
310.38126
310.04112
309.72052
309.41786
309.13175
308.86096
308.6044
308.36112
308.13025
307.91103
307.70276
307.50481
328.90254
325.29789
322.86477
321.0336
319.56755
318.34654
317.30144
316.38893
315.58004
314.85447
314.19745
313.59789
313.04727
312.53889
312.06737
311.62837
311.21828
310.83411
310.47334
310.13383
309.81372
309.51141
309.22553
308.95485
308.69829
308.45489
308.2238
308.00425
307.79556
307.59709
328.92004
325.33059
322.90769
321.08418
319.62422
318.40821
317.36734
316.45845
315.6527
314.92988
314.27526
313.67782
313.12906
312.62231
312.15222
311.71445
311.30542
310.92215
310.56213
310.22322
309.90358
309.60162
309.31596
309.04539
308.78882
308.54531
308.31401
308.09415
307.88504
307.68607
328.9369
325.3621
322.94907
321.13293
319.67884
318.46766
317.43087
316.52548
315.72276
315.00258
314.35028
313.75488
313.20792
312.70274
312.23402
311.79744
311.38943
311.00703
310.64774
310.30941
309.99023
309.6886
309.40316
309.13268
308.87611
308.63249
308.40098
308.18082
307.97132
307.77186
328.95315
325.39247
322.98894
321.17993
319.73148
318.52496
317.4921
316.59008
315.79028
315.07265
314.4226
313.82917
313.28393
312.78026
312.31287
311.87744
311.47042
311.08886
310.73026
310.3925
310.07375
309.77245
309.48721
309.21684
308.96026
308.71654
308.48483
308.26438
308.0545
307.85458
328.96879
325.42173
323.02737
321.22521
319.78222
318.58019
317.55112
316.65234
315.85536
315.14019
314.4923
313.90076
313.35719
312.85499
312.38887
311.95455
311.54849
311.16773
310.80981
310.47259
310.15427
309.85327
309.56824
309.29796
309.04138
308.79756
308.56566
308.34493
308.13468
307.93431
328.98385
325.44992
323.06439
321.26885
319.83111
318.63341
317.60799
316.71234
315.91808
315.20528
314.55946
313.96976
313.4278
312.92701
312.46212
312.02887
311.62372
311.24375
310.88647
310.54977
310.23186
309.93117
309.64632
309.37614
309.11956
308.87564
308.64356
308.42255
308.21195
308.01115
328.99835
325.47706
323.10005
321.31089
319.87821
318.68468
317.66278
316.77016
315.9785
315.26799
314.62418
314.03624
313.49583
312.9964
312.5327
312.10048
311.69622
311.31699
310.96034
310.62415
310.30664
310.00623
309.72157
309.45148
309.19489
308.95089
308.71862
308.49736
308.28642
308.0852
329.0123
325.50321
323.1344
321.35138
319.92358
318.73407
317.71556
316.82585
316.03672
315.32841
314.68654
314.10029
313.56138
313.06325
312.6007
312.16947
311.76606
311.38756
311.03151
310.69581
310.37868
310.07855
309.79407
309.52406
309.26748
309.02338
308.79095
308.56943
308.35817
308.15654
329.02572
325.52838
323.16748
321.39038
319.96728
318.78164
317.7664
316.87949
316.09279
315.38661
314.74659
314.16199
313.62451
313.12765
312.6662
312.23593
311.83334
311.45554
311.10007
310.76484
310.44807
310.14821
309.86391
309.59399
309.3374
309.09322
308.86062
308.63886
308.42728
308.22527
329.03864
325.55261
323.19932
321.42792
320.00936
318.82745
317.81536
316.93115
316.14679
315.44265
314.80443
314.2214
313.68531
313.18967
312.72928
312.29993
311.89814
311.52101
311.1661
310.83132
310.51491
310.2153
309.93117
309.66133
309.40474
309.16048
308.92772
308.70573
308.49385
308.29146
329.05106
325.57593
323.22998
321.46407
320.04987
318.87156
317.8625
316.98088
316.19878
315.49661
314.86012
314.27861
313.74385
313.24938
312.79002
312.36156
311.96053
311.58405
311.22968
310.89534
310.57926
310.27991
309.99594
309.72617
309.46958
309.22524
308.99233
308.77012
308.55794
308.3552
329.06301
325.59837
323.25948
321.49886
320.08886
318.91401
317.90787
317.02876
316.24883
315.54855
314.91372
314.33368
313.80021
313.30687
312.84849
312.42089
312.02059
311.64474
311.29088
310.95697
310.64122
310.34211
310.05829
309.7886
309.53201
309.28759
309.05454
308.83211
308.61965
308.41656
329.07449
325.61995
323.28787
321.53234
320.12638
318.95486
317.95153
317.07483
316.29699
315.59854
314.96532
314.38668
313.85445
313.36219
312.90477
312.47798
312.0784
311.70314
311.34979
311.01628
310.70085
310.40197
310.1183
309.84869
309.59209
309.3476
309.11441
308.89177
308.67904
308.47562
329.08553
325.64071
323.31517
321.56454
320.16247
318.99416
317.99353
317.11915
316.34333
315.64664
315.01495
314.43767
313.90664
313.41543
312.95891
312.53292
312.13402
311.75934
311.40647
311.07335
310.75823
310.45957
310.17605
309.9065
309.64991
309.40535
309.17202
308.94918
308.73619
308.53245
329.09613
325.66067
323.34142
321.59551
320.19719
319.03196
318.03394
317.16179
316.3879
315.6929
315.0627
314.48672
313.95683
313.46663
313.011
312.58577
312.18753
311.8134
311.461
311.12825
310.81342
310.51498
310.23159
309.96212
309.70552
309.4609
309.22743
309.00441
308.79117
308.58712
329.10631
325.67985
323.36666
321.62528
320.23056
319.0683
318.07278
317.20278
316.43075
315.73738
315.10861
314.53389
314.00511
313.51587
313.06108
312.63659
312.23898
311.86539
311.51343
311.18105
310.8665
310.56826
310.28501
310.0156
309.759
309.51431
309.28073
309.05752
308.84404
308.63969
329.11608
325.69827
323.39091
321.65389
320.26264
319.10323
318.11012
317.24219
316.47195
315.78014
315.15275
314.57923
314.05151
313.56321
313.10923
312.68545
312.28844
311.91537
311.56384
311.2318
310.91752
310.61948
310.33637
310.06702
309.81042
309.56567
309.33196
309.10858
308.89486
308.69023
329.12546
325.71597
323.41421
321.68138
320.29346
319.1368
318.146
317.28006
316.51154
315.82124
315.19516
314.62281
314.0961
313.60869
313.1555
312.7324
312.33597
311.9634
311.61228
311.28058
310.96656
310.66871
310.38572
310.11643
309.85983
309.61502
309.3812
309.15764
308.94371
308.73881
329.13445
325.73296
323.43658
321.70778
320.32306
319.16903
318.18046
317.31643
316.54956
315.86071
315.2359
314.66466
314.13894
313.65239
313.19995
312.7775
312.38164
312.00954
311.65881
311.32744
311.01367
310.716
310.43313
310.1639
309.9073
309.66244
309.4285
309.20478
308.99063
308.78547
329.14307
325.74926
323.45805
321.73312
320.35148
319.19998
318.21355
317.35135
316.58607
315.8986
315.27501
314.70485
314.18007
313.69435
313.24263
312.8208
312.42548
312.05384
311.7035
311.37243
311.0589
310.76141
310.47866
310.20948
309.95288
309.70796
309.47392
309.25005
309.03569
308.83027
329.15133
325.7649
323.47865
321.75744
320.37874
319.22968
318.2453
317.38486
316.62111
315.93498
315.31256
314.74342
314.21954
313.73462
313.28359
312.86237
312.46757
312.09636
311.74639
311.41562
311.10232
310.805
310.52235
310.25324
309.99664
309.75166
309.51752
309.29349
309.07894
308.87328
329.15925
325.77989
323.4984
321.78076
320.4049
319.25817
318.27576
317.417
316.65472
315.96987
315.34857
314.78042
314.25741
313.77325
313.32289
312.90225
312.50794
312.13716
311.78753
311.45705
311.14397
310.84682
310.56428
310.29521
310.03861
309.79359
309.55935
309.33518
309.12044
308.91454
329.16682
325.79425
323.51733
321.80312
320.42997
319.28548
318.30496
317.44782
316.68695
316.00332
315.3831
314.8159
314.29372
313.81029
313.36057
312.94048
312.54665
312.17627
311.82698
311.49677
311.18391
310.88691
310.60448
310.33546
310.07886
309.83379
309.59945
309.37515
309.16022
308.95411
329.17406
325.808
323.53547
321.82453
320.45399
319.31165
318.33294
317.47735
316.71783
316.03538
315.41619
314.8499
314.32852
313.84579
313.39668
312.97712
312.58375
312.21376
311.86479
311.53484
311.22219
310.92534
310.643
310.37403
310.11743
309.87232
309.63789
309.41345
309.19835
308.99203
329.18099
325.82116
323.55283
321.84503
320.47698
319.3367
318.35973
317.50563
316.74739
316.06607
315.44787
314.88245
314.36184
313.87978
313.43126
313.01221
312.61928
312.24966
311.901
311.57131
311.25885
310.96214
310.67989
310.41097
310.15437
309.90921
309.6747
309.45013
309.23487
309.02834
329.1876
325.83375
323.56943
321.86464
320.49899
319.36067
318.38536
317.53269
316.77569
316.09545
315.4782
314.91361
314.39373
313.91231
313.46436
313.04579
312.65328
312.28402
311.93566
311.6062
311.29393
310.99736
310.71521
310.44633
310.18973
309.94453
309.70993
309.48524
309.26982
309.0631
329.19391
325.84577
323.5853
321.88339
320.52002
319.38359
318.40987
317.55857
316.80275
316.12354
315.50719
314.9434
314.42423
313.94343
313.49601
313.07791
312.6858
312.31688
311.9688
311.63958
311.32749
311.03105
310.74898
310.48014
310.22354
309.9783
309.74363
309.51883
309.30325
309.09634
329.19993
325.85725
323.60045
321.9013
320.54012
319.40549
318.43329
317.58329
316.8286
316.15038
315.5349
314.97187
314.45337
313.97315
313.52625
313.1086
312.71687
312.34828
312.00047
311.67147
311.35955
311.06324
310.78125
310.51245
310.25586
310.01058
309.77583
309.55092
309.3352
309.1281
329.20565
325.8682
323.61491
321.91839
320.5593
319.42639
318.45564
317.60689
316.85328
316.176
315.56135
314.99905
314.48119
314.00154
313.55512
313.1379
312.74654
312.37826
312.03071
311.70192
311.39016
311.09397
310.81206
310.54331
310.28671
310.0414
309.80658
309.58155
309.3657
309.15844
329.2111
325.87863
323.6287
321.93468
320.57759
319.44632
318.47696
317.62939
316.87682
316.20044
315.58658
315.02498
314.50772
314.02861
313.58266
313.16585
312.77484
312.40685
312.05955
311.73096
311.41936
311.12329
310.84146
310.57274
310.31614
310.07079
309.8359
309.61078
309.39479
309.18737
329.21628
325.88855
323.64182
321.9502
320.595
319.4653
318.49726
317.65083
316.89924
316.22372
315.61062
315.04967
314.533
314.0544
313.6089
313.19248
312.8018
312.4341
312.08704
311.75864
311.44719
311.15122
310.86946
310.60078
310.34418
310.0988
309.86385
309.63863
309.42251
309.21493
329.2212
325.89799
323.6543