/*--------------------------------*- C++ -*----------------------------------*\
| =========                 |                                                 |
| \\      /  F ield         | OpenFOAM: The Open Source CFD Toolbox           |
|  \\    /   O peration     | Version:  2506                                  |
|   \\  /    A nd           | Website:  www.openfoam.com                      |
|    \\/     M anipulation  |                                                 |
\*---------------------------------------------------------------------------*/
FoamFile
{
    version     2.0;
    format      ascii;
    arch        "LSB;label=32;scalar=64";
    class       volScalarField;
    location    "9000/rock";
    object      T;
}
// * * * * * * * * * * * * * * * * * * * * * * * * * * * * * * * * * * * * * //

dimensions      [0 0 0 1 0 0 0];

internalField   nonuniform List<scalar> 
16000
(
317.72848
306.94165
301.10827
297.47216
295.00114
293.22169
291.88561
290.85016
290.02746
289.36049
288.81068
288.35108
287.96226
287.62993
287.34334
287.09425
286.87628
286.68438
286.51453
286.36347
286.22857
286.10764
285.99888
285.90078
285.81208
285.73169
285.6587
285.59231
285.53183
285.47668
285.42631
285.38026
285.3381
285.29944
285.26388
285.23104
285.20052
285.17181
285.14425
285.11676
320.41041
309.66162
303.43356
299.43519
296.67754
294.67475
293.16283
291.98678
291.04985
290.28876
289.66038
289.13445
288.68907
288.30809
287.97932
287.69341
287.4431
287.22263
287.02741
286.85375
286.69861
286.55951
286.43439
286.32151
286.21942
286.12689
286.04286
285.96643
285.8968
285.83329
285.7753
285.72228
285.67375
285.62925
285.58834
285.5506
285.51556
285.4827
285.45138
285.42068
321.94227
311.66384
305.35053
301.15381
298.19825
296.02318
294.36664
293.07004
292.03235
291.18646
290.4862
289.89882
289.40055
288.9737
288.6049
288.28387
288.00255
287.75459
287.5349
287.33934
287.16457
287.0078
286.86673
286.73942
286.62425
286.51983
286.42499
286.33871
286.2601
286.18839
286.12292
286.06306
286.00828
285.95807
285.91195
285.86945
285.83009
285.79335
285.75863
285.72523
322.92295
313.16861
306.9262
302.64604
299.56592
297.26498
295.49383
294.09671
292.97202
292.05109
291.28598
290.64238
290.09514
289.62544
289.21897
288.86465
288.55381
288.27956
288.03635
287.81971
287.62596
287.45207
287.29551
287.15416
287.02625
286.91023
286.80483
286.70891
286.62151
286.54178
286.46897
286.40242
286.34153
286.28575
286.23456
286.18746
286.14397
286.10358
286.06573
286.02991
323.61136
314.33383
308.23043
303.93979
300.7907
298.40292
296.54422
295.06548
293.86723
292.88096
292.05817
291.36373
290.77162
290.26224
289.82057
289.43494
289.09615
288.79688
288.53121
288.29434
288.08233
287.89191
287.72037
287.56542
287.42512
287.29782
287.18213
287.07682
286.98083
286.89326
286.81329
286.74021
286.67335
286.61214
286.55603
286.5045
286.45705
286.41319
286.37243
286.33434
324.12908
315.2638
309.32278
305.06485
301.88649
299.44302
297.51997
295.97668
294.71745
293.6752
292.80178
292.06186
291.42903
290.88321
290.40891
289.99402
289.62894
289.30599
289.01895
288.76277
288.53326
288.32697
288.14098
287.97288
287.82058
287.68235
287.55665
287.4422
287.33787
287.24266
287.15571
287.07625
287.00359
286.9371
286.87622
286.8204
286.76915
286.72199
286.67847
286.63822
324.53838
316.02645
310.25006
306.04878
302.86831
300.39305
298.42484
296.8319
295.52309
294.43362
293.51632
292.73616
292.06671
291.48771
290.98337
290.5413
290.15163
289.80639
289.49915
289.2246
288.97839
288.75688
288.55703
288.37625
288.21239
288.06356
287.92818
287.80487
287.69242
287.58978
287.49604
287.41039
287.33208
287.26047
287.19497
287.13501
287.0801
287.02978
286.98362
286.94128
324.87395
316.66652
311.04786
306.91533
303.75074
301.26146
299.26354
297.63358
296.28531
295.15662
294.20174
293.38636
292.68429
292.07528
291.54349
291.07634
290.66379
290.29768
289.9714
289.67947
289.41739
289.18136
288.96822
288.77529
288.60029
288.44125
288.29651
288.16461
288.0443
287.93446
287.83414
287.74246
287.65868
287.58211
287.51212
287.44817
287.38974
287.33637
287.28767
287.2433
325.15665
317.21424
311.74297
307.68427
304.54702
302.05669
300.0412
298.38476
297.00579
295.84504
294.8584
294.01248
293.28158
292.64567
292.08894
291.59879
291.16507
290.77952
290.43539
290.12708
289.84996
289.60013
289.37432
289.16975
288.98406
288.8152
288.66144
288.52126
288.39334
288.27654
288.16983
288.07233
287.98324
287.90185
287.82754
287.75971
287.69788
287.64157
287.59041
287.54406
325.39985
317.69057
312.35557
308.37171
305.26886
302.78673
300.76308
299.08875
297.68657
296.50006
295.4869
294.61479
293.85864
293.19878
292.61956
292.10844
291.65523
291.25165
290.89085
290.56716
290.27585
290.01295
289.7751
289.55942
289.3635
289.18523
289.02279
288.87463
288.73938
288.61584
288.50297
288.39983
288.30561
288.21956
288.14106
288.0695
288.00437
287.94522
287.89167
287.84338
325.61254
318.11045
312.90099
308.99073
305.92631
303.45887
301.43424
299.74899
298.32987
297.1231
296.08812
295.19377
294.4157
293.73467
293.13529
292.60514
292.1341
291.71387
291.33758
290.99951
290.69487
290.41963
290.17034
289.94411
289.73843
289.55114
289.3804
289.22457
289.08226
288.95224
288.83341
288.72482
288.62564
288.5351
288.45254
288.37737
288.30906
288.24716
288.19127
288.14108
325.80108
318.4848
313.39101
309.55189
306.52797
304.07965
302.05947
300.36885
298.93804
297.71573
296.66307
295.75005
294.95311
294.25351
293.63617
293.08887
292.60158
292.16606
291.77543
291.42396
291.10684
290.81998
290.5599
290.32365
290.10868
289.9128
289.7341
289.57092
289.42184
289.28557
289.16101
289.04718
288.9432
288.84832
288.76185
288.68318
288.61179
288.54722
288.48906
288.43701
325.97007
318.82183
313.83479
310.06379
307.08112
304.65487
302.64318
300.95158
299.51342
298.27959
297.21287
296.28439
295.47136
294.75559
294.12236
293.55967
293.05766
292.60814
292.2043
291.8404
291.51162
291.21386
290.94362
290.6979
290.47412
290.27005
290.08376
289.91356
289.75797
289.61572
289.48564
289.36676
289.25817
289.1591
289.06885
288.9868
288.91243
288.84526
288.7849
288.73101
326.12297
319.12778
314.23955
310.53342
307.59189
305.1896
303.18936
301.50025
300.05828
298.81635
297.73872
296.79761
295.971
295.24126
294.59406
294.01766
293.50236
293.0401
292.62413
292.24874
291.90912
291.60118
291.32138
291.06673
290.83461
290.62277
290.42925
290.25234
290.09055
289.94255
289.80719
289.68345
289.57042
289.46731
289.37341
289.2881
289.21084
289.14115
289.07863
289.02295
326.26245
319.40755
314.61103
310.9665
308.0655
305.68827
303.70163
302.01771
300.57481
299.32765
298.24184
297.29059
296.45266
295.71096
295.05156
294.463
293.93579
293.46198
293.03491
292.64894
292.29927
291.98183
291.69309
291.43004
291.19005
290.97085
290.77047
290.58717
290.41945
290.26596
290.12553
289.99713
289.87983
289.77283
289.67542
289.58696
289.5069
289.43476
289.37014
289.31269
326.39056
319.66498
314.95389
311.36779
308.50635
306.15473
304.18323
302.50656
301.06509
299.8151
298.72343
297.76424
296.91701
296.16517
295.4952
294.89593
294.35807
293.87383
293.43666
293.04098
292.68204
292.35577
292.05868
291.78775
291.54034
291.3142
291.10731
290.91795
290.74457
290.58584
290.44056
290.30769
290.1863
290.07556
289.97476
289.88326
289.80049
289.72598
289.6593
289.60011
326.50895
319.90319
315.2719
311.74122
308.91818
306.59235
304.63702
302.96921
301.53105
300.28023
299.18469
298.21948
297.36472
296.60439
295.92533
295.31669
294.76938
294.27578
293.82944
293.42488
293.0574
292.72296
292.4181
292.13979
291.88543
291.65273
291.43969
291.24457
291.06583
290.9021
290.75219
290.61505
290.48972
290.3754
290.27134
290.17689
290.09151
290.01469
289.94601
289.88511
326.61896
320.1247
315.56819
312.0901
309.30421
307.00404
305.06557
303.40781
301.97447
300.72449
299.62679
298.65721
297.79652
297.02916
296.34237
295.72557
295.16992
294.66795
294.21334
293.80069
293.42537
293.08339
292.7713
292.48612
292.22524
291.98638
291.76754
291.56697
291.38313
291.21465
291.06033
290.91909
290.79001
290.67224
290.56504
290.46777
290.37984
290.30078
290.23015
290.16758
326.72166
320.33158
315.84535
312.4172
309.66716
307.39235
305.47115
303.82435
302.39703
301.14924
300.05082
299.07832
298.21308
297.44001
296.74671
296.12289
295.55993
295.05052
294.58847
294.16847
293.78598
293.43706
293.11829
292.82672
292.55974
292.3151
292.0908
291.88508
291.69641
291.52341
291.36489
291.21976
291.08707
290.966
290.85578
290.75578
290.66541
290.58417
290.51163
290.44741
326.81794
320.52555
316.10556
312.72488
310.0094
307.75951
305.85578
304.22058
302.80023
301.55578
300.45785
299.48367
298.6151
297.8375
297.1388
296.50898
295.93964
295.42365
294.95494
294.52832
294.1393
293.784
293.45907
293.16156
292.8889
292.63884
292.40941
292.19884
292.00561
291.82833
291.66581
291.51696
291.38084
291.25659
291.14349
291.04085
290.94811
290.86476
290.79036
290.72453
326.90854
320.70807
316.35065
313.01517
310.33296
308.10748
306.22126
304.59812
303.18548
301.94528
300.84888
299.87408
299.00326
298.22216
297.51905
296.88417
296.30932
295.78754
295.31291
294.88032
294.48537
294.12425
293.79364
293.49064
293.2127
292.95759
292.72334
292.50821
292.31066
292.12934
291.96302
291.81063
291.67123
291.54396
291.42807
291.32291
291.22788
291.14248
291.06626
290.99885
326.99408
320.88034
316.58218
313.28979
310.63962
308.43796
306.56918
304.9584
303.55404
302.31885
301.22483
300.25035
299.37821
298.59454
297.88791
297.24881
296.66924
296.14242
295.66253
295.2246
294.82429
294.45786
294.12205
293.81397
293.53113
293.27131
293.03256
292.81315
292.61154
292.42638
292.25646
292.10072
291.95818
291.82802
291.70947
291.60187
291.50463
291.41725
291.33926
291.27029
327.07508
321.04341
316.8015
313.55025
310.93092
308.75248
306.90098
305.30274
303.9071
302.67751
301.5866
300.61321
299.74058
298.95515
298.24579
297.60324
297.01968
296.48849
296.00398
295.56128
295.15615
294.7849
294.44432
294.13159
293.84421
293.58001
293.33706
293.11362
292.9082
292.71942
292.5461
292.38716
292.24165
292.10872
291.98762
291.87768
291.77831
291.689
291.60929
291.53879
327.15198
321.19816
317.00977
313.79783
311.2082
309.05235
307.21791
305.63231
304.2457
303.02221
301.93501
300.96339
300.09096
299.30449
298.59312
297.9478
297.36091
296.82597
296.33743
295.89051
295.48105
295.10545
294.76052
294.44351
294.15195
293.88369
293.63681
293.40962
293.20061
293.00843
292.83189
292.66992
292.52157
292.386
292.26246
292.15027
292.04884
291.95766
291.87627
291.80428
327.22516
321.34537
317.20797
314.03367
311.47266
309.33878
307.52113
305.94817
304.57082
303.35382
302.27082
301.30154
300.42993
299.64306
298.93031
298.28285
297.69323
297.15511
296.66307
296.21243
295.79911
295.41958
295.07071
294.74977
294.45437
294.18235
293.93183
293.70113
293.48876
293.29337
293.11379
292.94896
292.79792
292.65983
292.53394
292.41959
292.31619
292.2232
292.14017
292.06671
327.29495
321.48569
317.39699
314.25876
311.72534
309.6128
307.81165
306.25128
304.88335
303.67313
302.59475
301.62829
300.75803
299.97132
299.25776
298.60871
298.01689
297.47612
296.98108
296.52718
296.11044
295.72738
295.37494
295.05044
294.7515
294.47601
294.22211
293.98814
293.77262
293.57423
293.39179
293.22423
293.07064
292.93015
292.80203
292.68561
292.58029
292.48555
292.40093
292.32603
327.36163
321.61972
317.5776
314.47398
311.96716
309.87536
308.09038
306.54252
305.18409
303.9809
302.90747
301.94424
301.07579
300.28972
299.57584
298.92571
298.33219
297.78924
297.29165
296.83493
296.41517
296.02897
295.67331
295.34556
295.04338
294.7647
294.50768
294.27066
294.05221
293.85099
293.66585
293.49573
293.33971
293.19694
293.06669
292.94827
292.84111
292.74467
292.6585
292.58219
327.42545
321.74795
317.75045
314.6801
312.19896
310.1273
308.35815
306.82268
305.4738
304.27779
303.20958
302.24993
301.38369
300.59868
299.88493
299.23416
298.63939
298.09469
297.59497
297.13582
296.71343
296.32443
295.96588
295.63519
295.33006
295.04845
294.78853
294.5487
294.3275
294.12364
293.93596
293.76342
293.6051
293.46017
293.32787
293.20755
293.09861
293.00053
292.91285
292.83516
327.48662
321.87084
317.91616
314.8778
312.42147
310.36936
308.61571
307.09247
305.75314
304.56444
303.50167
302.54588
301.68219
300.89862
300.18539
299.53438
298.93876
298.3927
297.89123
297.43002
297.00533
296.61387
296.25275
295.91941
295.61159
295.32729
295.06471
294.82227
294.59851
294.39218
294.20212
294.0273
293.86681
293.71981
293.58556
293.46341
293.35276
293.2531
293.16394
293.08489
327.54535
321.9888
318.07525
315.0677
312.63535
310.60223
308.86373
307.35254
306.02273
304.84143
303.78427
302.83259
301.97172
301.18991
300.47755
299.82666
299.23054
298.68349
298.18061
297.71769
297.29103
296.89741
296.53399
296.19827
295.88802
295.60127
295.33625
295.09138
294.86526
294.65661
294.46432
294.28735
294.1248
293.97584
293.83973
293.71583
293.60354
293.50233
293.41175
293.33137
327.60181
322.10216
318.22819
315.25035
312.84118
310.82651
309.10281
307.6035
306.28315
305.10929
304.05788
303.11049
302.2527
301.47293
300.76174
300.11129
299.51499
298.96727
298.46331
297.99897
297.57064
297.17514
296.80971
296.47186
296.15941
295.87043
295.60316
295.35606
295.12774
294.91695
294.72256
294.54357
294.37907
294.22825
294.09038
293.96479
293.85092
293.74822
293.65624
293.57457
327.65615
322.21126
318.3754
315.42623
313.0395
311.04276
309.33352
307.84588
306.53491
305.36852
304.32294
303.38001
302.52551
301.74802
301.03827
300.38853
299.79236
299.24425
298.7395
298.27403
297.8443
297.4472
297.07999
296.74025
296.42583
296.13482
295.8655
295.61635
295.38599
295.17319
294.97685
294.79595
294.62962
294.47703
294.33747
294.21028
294.09488
293.99075
293.89741
293.81446
327.70851
322.31637
318.51727
315.59579
313.23079
311.25147
309.55635
308.08018
306.7785
305.61956
304.5799
303.64156
302.79051
302.01552
301.30743
300.65866
300.06287
299.51464
299.00936
298.54302
298.11215
297.71368
297.34493
297.00351
296.68733
296.39449
296.1233
295.87227
295.64003
295.42537
295.22719
295.04451
294.87645
294.72219
294.58102
294.45229
294.33542
294.22989
294.13524
294.05104
327.75902
322.41775
318.65413
315.75942
313.41548
311.45311
309.77177
308.30686
307.01435
305.86285
304.82914
303.89549
303.04804
302.27572
301.5695
300.92193
300.32675
299.77864
299.27307
298.8061
298.37431
297.97469
297.60462
297.26174
296.94399
296.6495
296.37661
296.12385
295.88988
295.67349
295.47361
295.28925
295.11955
294.96371
294.821
294.6908
294.57253
294.46565
294.36971
294.28429
327.80779
322.51565
318.7863
315.9175
313.59397
311.64808
309.98019
308.52633
307.24288
306.09878
305.07104
304.14215
303.29843
302.52893
301.82477
301.17858
300.58421
300.03644
299.5308
299.06341
298.63091
298.23037
297.85917
297.51502
297.19587
296.8999
296.62548
296.37114
296.13557
295.91758
295.71611
295.53019
295.35894
295.2016
295.05744
294.92583
294.80619
294.69801
294.60082
294.51421
327.85493
322.61025
318.91406
316.07034
313.76662
311.83676
310.18201
308.73897
307.46446
306.32769
305.30594
304.38188
303.54197
302.77543
302.07346
301.42883
300.83547
300.28823
299.7827
299.31509
298.88209
298.4808
298.10866
297.76341
297.44305
297.14576
296.86995
296.61418
296.37714
296.15767
295.95472
295.76733
295.59463
295.43586
295.29032
295.15736
295.03642
294.92697
294.82857
294.74078
327.90052
322.70177
319.03767
316.21825
313.93376
312.01949
310.37757
308.94515
307.67943
306.54994
305.53417
304.61496
303.77895
303.01547
302.31584
301.67292
301.08072
300.53417
300.02895
299.5613
299.12797
298.72611
298.3532
298.00702
297.68559
297.38714
297.11009
296.85301
296.61463
296.39379
296.18946
296.00069
295.82664
295.66652
295.51965
295.38541
295.26321
295.15254
295.05295
294.96402
327.94467
322.79037
319.15735
316.3615
314.09569
312.1966
310.5672
309.14518
307.88812
306.76583
305.75601
304.84169
304.00964
303.2493
302.55212
301.91104
301.32015
300.77446
300.26969
299.80217
299.36867
298.9664
298.59288
298.24592
297.92358
297.6241
297.34593
297.08767
296.84806
296.62597
296.42036
296.23031
296.05497
295.89358
295.74546
295.60997
295.48656
295.37472
295.27398
295.18393
327.98744
322.87621
319.27332
316.50034
314.25268
312.36838
310.7512
309.33937
308.09083
306.97566
305.97176
305.06233
304.23428
303.47717
302.78253
302.1434
301.55395
301.00925
300.50509
300.03783
299.60432
299.20179
298.8278
298.4802
298.15707
297.8567
297.57754
297.31822
297.07749
296.85424
296.64745
296.45619
296.27965
296.11706
295.96774
295.83108
295.7065
295.59352
295.49165
295.40051
328.02891
322.95944
319.38577
316.635
314.40499
312.53509
310.92985
309.528
308.28783
307.17969
306.18167
305.27714
304.45311
303.69928
303.00727
302.3702
301.7823
301.23871
300.73528
300.26842
299.83503
299.43237
299.05805
298.70994
298.38616
298.085
297.80497
297.5447
297.30296
297.07864
296.87075
296.67838
296.5007
296.33697
296.18652
296.04872
295.92303
295.80894
295.70599
295.61376
328.06915
323.04019
319.49489
316.76569
314.55285
312.69698
311.1034
309.71132
308.47938
307.37818
306.38599
305.48634
304.66636
303.91586
303.22655
302.59161
302.00535
301.46299
300.9604
300.49407
300.06091
299.65825
299.28372
298.93523
298.6109
298.30909
298.02828
297.76716
297.5245
297.29921
297.0903
296.89689
296.71815
296.55335
296.40181
296.26294
296.13617
296.021
295.91699
295.82371
328.10822
323.11859
319.60085
316.89261
314.69647
312.85428
311.27208
309.88957
308.66572
307.57136
306.58495
305.69015
304.87424
304.1271
303.44053
302.8078
302.22328
301.68223
301.1806
300.71489
300.28209
299.87954
299.50491
299.15614
298.83138
298.52901
298.24754
297.98565
297.74216
297.51598
297.30614
297.11176
296.93202
296.7662
296.61364
296.47373
296.34593
296.22973
296.12468
296.03037
328.14617
323.19475
319.70378
317.01593
314.83606
313.0072
311.43612
310.06298
308.84707
307.75945
306.77875
305.88879
305.07694
304.33319
303.64941
303.01895
302.43624
301.89659
301.396
300.93102
300.49867
300.09633
299.72171
299.37276
299.04767
298.74483
298.46279
298.20023
297.95599
297.72901
297.5183
297.32302
297.14234
296.97557
296.82203
296.68113
296.55233
296.43512
296.32907
296.23375
328.18306
323.26877
319.80384
317.13583
314.97179
313.15593
311.59572
310.23176
309.02364
307.94265
306.96761
306.08244
305.27465
304.5343
303.85336
303.22521
302.64437
302.1062
301.60673
301.14257
300.71076
300.30873
299.9342
299.58517
299.25984
298.95662
298.67409
298.41095
298.16605
297.93832
297.72683
297.5307
297.34915
297.18147
297.027
296.88515
296.75539
296.63722
296.53018
296.43388
328.21893
323.34076
319.90115
317.25245
315.10384
313.30067
311.75107
310.39609
309.19563
308.12117
307.15171
306.2713
305.46755
304.73061
304.05252
303.42674
302.84782
302.31119
301.81291
301.34965
300.91846
300.51682
300.14247
299.79344
299.46796
299.16445
298.88151
298.61787
298.37236
298.14397
297.93175
297.73484
297.55247
297.38394
297.22858
297.08583
296.95514
296.83603
296.72804
296.63077
328.25383
323.4108
319.99583
317.36593
315.23236
313.44157
311.90235
310.55616
309.3632
308.29517
307.33122
306.45553
305.6558
304.92227
304.24706
303.62367
303.04673
302.51168
302.01467
301.55236
301.12188
300.7207
300.34662
299.99767
299.67211
299.36839
299.08511
298.82102
298.575
298.346
298.13311
297.93548
297.75235
297.583
297.42681
297.28319
297.15161
297.03158
296.92266
296.82445
328.28781
323.47897
320.08801
317.47642
315.35752
313.5788
312.04972
310.71214
309.52655
308.46484
307.50632
306.6353
305.83957
305.10945
304.43712
303.81615
303.24122
302.70781
302.21212
301.75083
301.32111
300.92047
300.54671
300.19791
299.87235
299.56848
299.28494
299.02048
298.77399
298.54446
298.33096
298.13266
297.9488
297.77869
297.6217
297.47725
297.34481
297.2239
297.11408
297.01494
328.3209
323.54536
320.17777
317.58404
315.47943
313.71251
312.19334
310.86419
309.68582
308.63033
307.67717
306.81076
306.019
305.29227
304.62283
304.00431
303.43141
302.89969
302.40536
301.94515
301.51625
301.11621
300.74285
300.39426
300.06876
299.76481
299.48107
299.2163
298.96941
298.73938
298.52533
298.32641
298.14188
297.97105
297.8133
297.66805
297.53479
297.41302
297.30231
297.20227
328.35314
323.61004
320.26523
317.68889
315.59823
313.84283
312.33335
311.01245
309.84117
308.79179
307.84391
306.98206
306.19423
305.47089
304.80434
304.18827
303.61744
303.08743
302.5945
302.13542
301.7074
301.308
300.9351
300.58679
300.2614
299.95744
299.67355
299.40853
299.16128
298.93083
298.71626
298.51677
298.33162
298.16011
298.00163
297.85562
297.72156
297.59896
297.4874
297.38646
328.38455
323.67307
320.35046
317.7911
315.71405
313.96989
312.46988
311.15707
309.99273
308.94935
308.00668
307.14934
306.3654
305.64542
304.98176
304.36815
303.79941
303.27115
302.77965
302.32174
301.89464
301.49594
301.12354
300.77556
300.45035
300.14642
299.86244
299.59722
299.34968
299.11884
298.90381
298.70379
298.51805
298.3459
298.18674
298.04
297.90516
297.78176
297.66936
297.56755
328.41519
323.73453
320.43356
317.89075
315.82698
314.09381
312.60307
311.29817
310.14065
309.10317
308.16561
307.31272
306.53265
305.816
305.15522
304.54408
303.97743
303.45093
302.96091
302.5042
302.07806
301.68011
301.30826
300.96066
300.63567
300.33182
300.0478
299.78243
299.53464
299.30346
299.08802
298.88751
298.70122
298.52846
298.36864
298.2212
298.08562
297.96144
297.84822
297.74557
328.44506
323.79446
320.51461
317.98795
315.93715
314.21471
312.73303
311.43588
310.28504
309.25336
308.32084
307.47233
306.69608
305.98275
305.32483
304.71615
304.15161
303.6269
303.13837
302.68289
302.25775
301.86058
301.48933
301.14215
300.81743
300.51371
300.22969
299.96422
299.71622
299.48474
299.26892
299.06797
298.88116
298.70784
298.54739
298.39928
298.26298
298.13804
298.02403
297.92054
328.4742
323.85292
320.59368
318.08278
316.04465
314.3327
312.85988
311.57031
310.42603
309.40003
308.47247
307.62829
306.85581
306.14577
305.49069
304.88448
304.32205
303.79914
303.31212
302.8579
302.43379
302.03744
301.66682
301.32011
300.99569
300.69214
300.40817
300.14263
299.89446
299.66273
299.44657
299.24521
299.05792
298.88406
298.72302
298.57426
298.43727
298.3116
298.1968
298.0925
328.50265
323.90997
320.67083
318.17533
316.14957
314.44787
312.98372
311.70158
310.56372
309.54332
308.62063
307.78072
307.01196
306.30517
305.65293
305.04916
304.48885
303.96774
303.48226
303.02932
302.60626
302.21077
301.84081
301.49459
301.17052
300.86718
300.5833
300.31772
300.06943
299.83748
299.62102
299.41927
299.23154
299.05716
298.89556
298.74618
298.60852
298.48213
298.36658
298.26148
328.53041
323.96566
320.74615
318.26567
316.252
314.56032
313.10465
311.82979
310.69823
309.68331
308.76543
307.92971
307.16463
306.46106
305.81162
305.2103
304.6521
304.1328
303.64886
303.19722
302.77524
302.38063
302.01136
301.66567
301.34198
301.03889
300.75512
300.48956
300.24117
300.00903
299.79229
299.5902
299.40205
299.22719
299.06505
298.91508
298.77678
298.64969
298.53341
298.42752
328.55751
324.02003
320.81969
318.35389
316.35202
314.67015
313.22277
311.95504
310.82965
309.82012
308.90695
308.07537
307.31392
306.61353
305.96688
305.36799
304.81189
304.29441
303.81202
303.36169
302.94081
302.5471
302.17855
301.83342
301.51014
301.20732
300.9237
300.65818
300.40972
300.17743
299.96045
299.75804
299.5695
299.39419
299.23153
299.08099
298.94207
298.81431
298.6973
298.59065
328.58399
324.07313
320.8915
318.44005
316.44972
314.77742
313.33817
312.07741
310.95808
309.95384
309.0453
308.2178
307.45993
306.76268
306.11879
305.52231
304.96831
304.45265
303.97181
303.52281
303.10304
302.71025
302.34245
301.9979
301.67505
301.37253
301.08909
300.82364
300.57515
300.34273
300.12554
299.92284
299.73394
299.5582
299.39505
299.24395
299.10443
298.97602
298.8583
298.75091
328.60985
324.12499
320.96165
318.52421
316.54516
314.88224
313.45093
312.19701
311.08361
310.08456
309.18058
308.35708
307.60274
306.9086
306.26744
305.67335
305.12144
304.60759
304.12832
303.68065
303.26201
302.87015
302.50311
302.15916
301.83678
301.53458
301.25135
300.98599
300.7375
300.50498
300.2876
300.08464
299.8954
299.71925
299.55563
299.40401
299.2639
299.13485
299.01645
298.90832
328.63511
324.17566
321.03019
318.60644
316.63843
314.98467
313.56114
312.31391
311.20633
310.21237
309.31286
308.49331
307.74245
307.05138
306.41292
305.8212
305.27136
304.75932
304.28161
303.83528
303.41777
303.02686
302.6606
302.31728
301.99538
301.69353
301.41053
301.14529
300.89682
300.66422
300.44668
300.24348
300.05392
299.87739
299.71332
299.56119
299.42052
299.29085
299.17179
299.06294
328.6598
324.22518
321.09717
318.6868
316.72957
315.08478
313.66886
312.42819
311.32632
310.33735
309.44224
308.62657
307.87914
307.19109
306.55531
305.96594
305.41816
304.90791
304.43177
303.98678
303.57041
303.18046
302.815
302.47232
302.15091
301.84944
301.56669
301.30159
301.05315
300.8205
300.60283
300.3994
300.20955
300.03266
299.86816
299.71555
299.57433
299.44406
299.32434
299.21478
328.68394
324.27357
321.16263
318.76535
316.81867
315.18265
313.77418
312.53993
311.44365
310.45959
309.5688
308.75694
308.01288
307.32782
306.69468
306.10764
305.5619
305.05344
304.57885
304.13521
303.71999
303.33101
302.96635
302.62433
302.30344
302.00235
301.71987
301.45493
301.20656
300.97387
300.75608
300.55246
300.36233
300.1851
300.02019
299.8671
299.72535
299.5945
299.47414
299.3639
328.70753
324.32088
321.22662
318.84214
316.90577
315.27833
313.87716
312.6492
311.5584
310.57915
309.6926
308.8845
308.14376
307.46165
306.83111
306.24637
305.70266
305.19598
304.72294
304.28064
303.86657
303.47857
303.11472
302.77336
302.453
302.15232
301.87013
301.60537
301.35708
301.12438
300.90649
300.70268
300.5123
300.33475
300.16945
300.01591
299.87365
299.74223
299.62124
299.51032
328.73059
324.36714
321.28919
318.91722
316.99094
315.3719
313.97787
312.75608
311.67065
310.69612
309.81373
309.00931
308.27185
307.59264
306.96467
306.38221
305.84051
305.33559
304.86409
304.42313
304.01022
303.62319
303.26017
302.91949
302.59967
302.29941
302.01752
301.75296
301.50476
301.27207
301.0541
300.85013
300.65951
300.48165
300.31598
300.162
300.01924
299.88727
299.76568
299.65409
328.75315
324.41236
321.35037
318.99064
317.07423
315.46341
314.07637
312.86061
311.78046
310.81055
309.93226
309.13147
308.39722
307.72087
307.09543
306.51522
305.97551
305.47235
305.00238
304.56275
304.15099
303.76495
303.40276
303.06276
302.7435
302.44366
302.16209
301.89774
301.64965
301.41698
301.19894
300.99483
300.804
300.62584
300.45981
300.30541
300.16217
300.02966
299.90747
299.79524
328.77521
324.45659
321.41021
319.06245
317.1557
315.55292
314.17273
312.96288
311.88789
310.92253
310.04825
309.25102
308.51994
307.8464
307.22347
306.64548
306.10773
305.6063
305.13786
304.69956
304.28895
303.90389
303.54253
303.20323
302.88453
302.58513
302.30389
302.03976
301.7918
301.55917
301.34108
301.13684
300.9458
300.76736
300.601
300.44619
300.30248
300.16944
300.04668
299.93381
328.79679
324.49986
321.46873
319.13268
317.23538
315.64048
314.26699
313.06294
311.99301
311.0321
310.16177
309.36804
308.64007
307.9693
307.34884
306.77304
306.23724
305.73753
305.2706
304.83362
304.42415
304.04008
303.67956
303.34095
303.02282
302.72388
302.44297
302.17908
301.93126
301.69867
301.48055
301.27619
301.08496
300.90626
300.73957
300.58437
300.44021
300.30666
300.18333
300.06984
328.8179
324.54218
321.52598
319.20139
317.31334
315.72615
314.35923
313.16085
312.09588
311.13934
310.27288
309.48258
308.75768
308.08964
307.47161
306.89797
306.36409
305.86608
305.40065
304.96498
304.55665
304.17357
303.81388
303.47598
303.15842
302.85993
302.57938
302.31573
302.06806
301.83553
301.61739
301.41293
301.22152
301.04258
300.87557
300.71999
300.57539
300.44134
300.31745
300.20336
328.83855
324.58358
321.58199
319.26862
317.38962
315.80997
314.44948
313.25666
312.19655
311.2443
310.38164
309.59472
308.87282
308.20747
307.59183
307.02033
306.48835
305.99202
305.52807
305.09371
304.68652
304.30441
303.94556
303.60836
303.29138
302.99336
302.71316
302.44977
302.20226
301.9698
301.75165
301.5471
301.35552
301.17635
301.00903
300.85309
300.70806
300.57353
300.4491
300.33441
328.85876
324.62409
321.6368
319.33439
317.46425
315.89199
314.5378
313.35043
312.29509
311.34704
310.4881
309.7045
308.98557
308.32286
307.70958
307.14018
306.61007
306.1154
305.65292
305.21985
304.81379
304.43266
304.07464
303.73815
303.42175
303.1242
302.84436
302.58123
302.33389
302.10152
301.88336
301.67873
301.48701
301.30761
301.14
300.98371
300.83827
300.70326
300.5783
300.46302
328.87853
324.66374
321.69042
319.39876
317.53729
315.97227
314.62424
313.44221
312.39154
311.44762
310.59233
309.81199
309.09596
308.43585
307.82489
307.25757
306.72931
306.23628
305.77525
305.34346
304.93852
304.55836
304.20118
303.86539
303.54958
303.2525
302.97303
302.71017
302.46301
302.23073
302.01258
301.80789
301.61602
301.43641
301.26852
301.11189
300.96604
300.83058
300.7051
300.58925
328.89788
324.70253
321.74291
319.46175
317.60877
316.05083
314.70884
313.53204
312.48595
311.54607
310.69438
309.91723
309.20406
308.5465
307.93783
307.37255
306.84611
306.35471
305.89512
305.4646
305.06077
304.68158
304.32523
303.99014
303.67492
303.37831
303.09922
302.83663
302.58966
302.35748
302.13934
301.93459
301.74259
301.56278
301.39463
301.23766
301.09142
300.95551
300.82952
300.71311
328.91682
324.7405
321.79427
319.5234
317.67874
316.12773
314.79165
313.61998
312.57838
311.64247
310.79429
310.02029
309.30992
308.65488
308.04846
307.48519
306.96055
306.47075
306.01258
305.58331
305.18058
304.80235
304.44682
304.11244
303.7978
303.50168
303.22296
302.96066
302.71387
302.4818
302.26369
302.05889
301.86676
301.68676
301.51835
301.36106
301.21445
301.07809
300.95162
300.83466
328.93536
324.77766
321.84455
319.58375
317.74722
316.203
314.87272
313.70608
312.66888
311.73685
310.89213
310.1212
309.4136
308.76102
308.15681
307.59553
307.07266
306.58443
306.12767
305.69964
305.298
304.92072
304.56602
304.23233
303.91828
303.62264
303.3443
303.08228
302.8357
302.60373
302.38566
302.18082
301.98858
301.80839
301.63974
301.48214
301.33516
301.19837
301.07141
300.95391
328.95351
324.81404
321.89376
319.64282
317.81426
316.27669
314.95209
313.79036
312.75747
311.82926
310.98793
310.22003
309.51513
308.86498
308.26295
307.70361
307.18249
306.69583
306.24045
305.81364
305.41309
305.03675