/*--------------------------------*- C++ -*----------------------------------*\
| =========                 |                                                 |
| \\      /  F ield         | OpenFOAM: The Open Source CFD Toolbox           |
|  \\    /   O peration     | Version:  2506                                  |
|   \\  /    A nd           | Website:  www.openfoam.com                      |
|    \\/     M anipulation  |                                                 |
\*---------------------------------------------------------------------------*/
FoamFile
{
    version     2.0;
    format      ascii;
    arch        "LSB;label=32;scalar=64";
    class       volScalarField;
    location    "19000/rock";
    object      T;
}
// * * * * * * * * * * * * * * * * * * * * * * * * * * * * * * * * * * * * * //

dimensions      [0 0 0 1 0 0 0];

internalField   nonuniform List<scalar> 
16000
(
317.74855
306.98176
301.16251
297.53728
295.07507
293.303
291.97324
290.9433
290.12546
289.46281
288.91688
288.46077
288.0751
287.74563
287.46163
287.21491
286.99908
286.80912
286.64101
286.49154
286.35806
286.2384
286.13076
286.03366
285.94582
285.86616
285.79379
285.7279
285.66782
285.61295
285.56276
285.5168
285.47463
285.43586
285.40011
285.36699
285.3361
285.30694
285.27885
285.25075
320.43354
309.70789
303.49615
299.51032
296.76284
294.76857
293.26395
292.09425
291.16294
290.40683
289.78293
289.26102
288.81928
288.4416
288.11582
287.83264
287.58479
287.36655
287.17336
287.00153
286.84803
286.71039
286.58657
286.47483
286.37374
286.28206
286.19874
286.12288
286.05371
285.99053
285.93275
285.87984
285.83129
285.78667
285.74554
285.70747
285.672
285.63863
285.60668
285.57528
321.96846
311.71627
305.42145
301.23896
298.29492
296.12951
294.48124
293.19184
292.16051
291.32027
290.62508
290.04227
289.54811
289.12501
288.7596
288.44165
288.16313
287.9177
287.7003
287.50682
287.33391
287.1788
287.03919
286.91318
286.79914
286.69568
286.60165
286.51602
286.43792
286.3666
286.30136
286.24161
286.18682
286.13647
286.0901
286.04723
286.00739
285.97006
285.93464
285.90044
322.95219
313.2272
307.00546
302.7412
299.67397
297.38381
295.6219
294.23283
293.11525
292.20063
291.44119
290.80269
290.26006
289.79454
289.39186
289.04099
288.73327
288.46185
288.22121
288.00688
287.81521
287.64317
287.48825
287.34835
287.22169
287.10676
287.00225
286.90707
286.82024
286.74093
286.66839
286.60197
286.54106
286.48512
286.43365
286.38615
286.34212
286.30106
286.26244
286.22571
323.64368
314.39857
308.31803
304.04496
300.9101
298.53425
296.68576
295.21592
294.02552
293.04623
292.2297
291.54089
290.95388
290.44911
290.01164
289.62981
289.29448
288.99834
288.7355
288.50119
288.29147
288.10311
287.93338
287.78003
287.64111
287.51501
287.40031
287.29581
287.20046
287.11336
287.03368
286.96073
286.89386
286.83248
286.77606
286.72407
286.67603
286.63144
286.58982
286.55073
324.16446
315.3347
309.4187
305.18002
302.01725
299.58684
297.67497
296.14143
294.89078
293.85618
292.98962
292.25587
291.62862
291.08786
290.61815
290.20742
289.84612
289.5266
289.24267
288.98929
288.76229
288.55824
288.37425
288.20789
288.05712
287.92018
287.79558
287.68202
287.57838
287.48368
287.39705
287.31774
287.24506
287.17839
287.11717
287.06085
287.00895
286.96099
286.91653
286.87519
324.57683
316.10349
310.3543
306.17395
303.01042
300.54934
298.59329
297.01094
295.71147
294.63031
293.72045
292.94701
292.28363
291.71011
291.21076
290.77323
290.38766
290.04615
289.74228
289.47077
289.22729
289.00822
288.81053
288.63166
288.46945
288.32204
288.18784
288.06549
287.9538
287.85171
287.75833
287.67284
287.59451
287.5227
287.45682
287.39632
287.34071
287.28952
287.24233
287.19881
324.91547
316.74972
311.16043
307.05049
303.90418
301.43023
299.44543
297.82691
296.48872
295.369
294.42217
293.61403
292.9185
292.31543
291.78902
291.32677
290.91865
290.55657
290.23393
289.94529
289.68615
289.45276
289.24196
289.05108
288.87786
288.72035
288.57689
288.44604
288.32654
288.2173
288.11735
288.02586
287.94205
287.86526
287.79487
287.73033
287.67113
287.61683
287.56702
287.52138
325.20125
317.30359
311.86385
307.8294
304.7118
302.23792
300.23653
298.59236
297.22422
296.0731
295.0951
294.25696
293.53309
292.90356
292.35261
291.86771
291.43876
291.05753
290.7173
290.41252
290.13856
289.89157
289.66827
289.4659
289.28212
289.11491
288.96252
288.82346
288.69642
288.58025
288.47396
288.37665
288.28753
288.20591
288.13116
288.06271
288.00005
287.94274
287.89039
287.84267
325.44753
317.78607
312.48476
308.52682
305.44496
302.98041
300.97183
299.31062
297.92001
296.7438
295.73987
294.87607
294.12744
293.47439
292.90135
292.39583
291.94772
291.54875
291.19213
290.87221
290.58429
290.32441
290.08923
289.87592
289.68204
289.50552
289.34456
289.1976
289.06328
288.94043
288.82799
288.72505
288.6308
288.54452
288.46554
288.39331
288.32731
288.26708
288.21225
288.16251
325.6633
318.21209
313.03849
309.15581
306.11373
303.665
301.6564
299.98511
298.57831
297.3825
296.35734
295.47183
294.70176
294.02798
293.43517
292.91099
292.44538
292.03006
291.65822
291.32416
291.02312
290.75109
290.50466
290.28094
290.07743
289.89201
289.72283
289.56828
289.42696
289.29767
289.17931
289.07094
288.97173
288.88092
288.79787
288.72198
288.65273
288.58969
288.53245
288.48071
325.85491
318.59259
313.53681
309.72694
306.7267
304.29822
302.29503
300.61921
299.20146
297.99077
296.94852
296.04489
295.25643
294.56451
293.95414
293.41317
292.93163
292.50131
292.1154
291.76819
291.45488
291.17143
290.91438
290.68079
290.46813
290.27422
290.09718
289.93536
289.78732
289.65183
289.52777
289.41416
289.31016
289.215
289.128
289.04857
288.97619
288.9104
288.85082
288.79712
326.02698
318.93575
313.98889
310.24879
307.29114
304.88586
302.89212
301.21617
299.7918
298.57026
297.51455
296.59597
295.79191
295.08425
294.45839
293.9024
293.40646
292.96244
292.56358
292.20418
291.87944
291.58528
291.31823
291.07532
290.85398
290.65201
290.46747
290.29869
290.14423
290.00278
289.87324
289.75459
289.64598
289.54661
289.4558
289.37295
289.29753
289.22908
289.1672
289.11158
326.18296
319.24783
314.40193
310.72836
307.8132
305.433
303.45168
301.77906
300.35162
299.12263
298.0566
297.12593
296.30876
295.58758
294.94814
294.37879
293.86989
293.41344
293.00271
292.63206
292.29669
291.99254
291.71612
291.46442
291.23488
291.02524
290.83357
290.65817
290.49755
290.3504
290.2156
290.09211
289.97905
289.87563
289.78114
289.69499
289.61662
289.54558
289.48147
289.42395
326.32551
319.53372
314.78169
311.17138
308.29808
305.94406
303.97731
302.31071
300.88309
299.64953
298.5759
297.63562
296.80762
296.07491
295.42367
294.84252
294.32203
293.85432
293.43276
293.05177
292.70658
292.39312
292.10792
291.84798
291.61069
291.39381
291.19537
291.01366
290.84717
290.69458
290.55473
290.42659
290.30926
290.20194
290.10391
290.01456
289.93334
289.85978
289.79348
289.73411
326.45669
319.79728
315.13282
311.58259
308.75019
306.42291
304.47225
302.81375
301.38829
300.15256
299.07366
298.12597
297.28914
296.54673
295.88531
295.29381
294.763
294.28516
293.85377
293.4633
293.10905
292.78696
292.49359
292.22591
291.98135
291.75762
291.55277
291.36507
291.19299
291.0352
290.89053
290.75794
290.63651
290.52543
290.42399
290.33155
290.24757
290.17157
290.10313
290.04192
326.57816
320.04161
315.45909
311.96593
309.17328
306.87289
304.93937
303.29056
301.86915
300.63324
299.55107
298.59789
297.75402
297.00354
296.33344
295.73292
295.19298
294.70607
294.26578
293.86668
293.50409
293.17403
292.87305
292.59816
292.34676
292.1166
291.90569
291.7123
291.53491
291.37217
291.2229
291.08605
290.96069
290.84601
290.74127
290.64585
290.5592
290.48081
290.41029
290.34729
326.69123
320.26922
315.76363
312.3247
309.57054
307.29693
305.38123
303.74331
302.32746
301.09304
300.00929
299.05228
298.20295
297.44588
296.76843
296.16012
295.61217
295.11718
294.66889
294.26193
293.89172
293.55431
293.24628
292.96467
292.70688
292.47067
292.25405
292.05529
291.87286
291.70541
291.55175
291.41083
291.28171
291.16356
291.05566
290.95737
290.86812
290.78742
290.71487
290.65009
326.797
320.4822
316.04903
312.66169
309.94471
307.69758
305.8001
304.17397
302.76488
301.53332
300.44944
299.49002
298.63662
297.87428
297.19072
296.57574
296.02079
295.51866
295.06319
294.64914
294.27198
293.92781
293.61327
293.32541
293.06166
292.81977
292.59779
292.39396
292.20676
292.03484
291.87701
291.7322
291.59947
291.478
291.36706
291.26599
291.17424
291.0913
291.01676
290.95024
326.89634
320.68226
316.31746
312.97925
310.29815
308.07707
306.19801
304.58431
303.18293
301.95535
300.87255
299.91199
299.05574
298.28929
297.60072
296.9801
296.4191
295.91068
295.44882
295.02837
294.6449
294.29456
293.97402
293.68037
293.41106
293.16388
292.93685
292.72825
292.53655
292.36039
292.19859
292.05007
291.91391
291.78926
291.67539
291.57165
291.47747
291.39236
291.31587
291.24764
326.98999
320.87086
316.57077
313.27939
310.63291
308.43734
306.57675
304.97594
303.583
302.36033
301.27963
300.31899
299.46096
298.69145
297.99886
297.37353
296.80735
296.29344
295.82591
295.39974
295.01055
294.65458
294.32853
294.02954
293.75509
293.50296
293.27121
293.05812
292.86217
292.682
292.51643
292.36439
292.22494
292.09725
291.98057
291.87426
291.77774
291.6905
291.61212
291.54222
327.07858
321.04921
316.81051
313.56386
310.95074
308.7801
306.93791
305.35029
303.96637
302.74935
301.67163
300.71182
299.85295
299.0813
298.38558
297.75639
297.18581
296.66714
296.19464
295.76335
295.36902
295.00793
294.67685
294.37294
294.09371
293.83699
293.60083
293.38353
293.18357
292.99962
292.83048
292.67509
292.53251
292.40191
292.28254
292.17375
292.07496
291.98567
291.90544
291.83389
327.16262
321.21834
317.03802
313.83414
311.25319
309.10688
307.28293
305.70868
304.3342
303.12345
302.04941
301.09122
300.23233
299.45935
298.7613
298.12901
297.55476
297.03202
296.55516
296.11935
295.7204
295.35468
295.01901
294.71058
294.42695
294.16596
293.92569
293.70444
293.50073
293.31321
293.14069
292.98212
292.83656
292.70317
292.58122
292.47005
292.36907
292.27779
292.19575
292.12258
327.24256
321.37915
317.25446
314.09154
311.54161
309.41901
307.61306
306.05227
304.68756
303.48355
302.41381
301.45791
300.5997
299.82612
299.12644
298.49174
297.91448
297.38828
296.90765
296.46785
296.0648
295.69491
295.35506
295.0425
294.75481
294.48987
294.24577
294.02085
293.81361
293.62272
293.44701
293.28543
293.13703
293.00099
292.87656
292.7631
292.66001
292.56679
292.483
292.40824
327.31877
321.5324
317.46084
314.33717
311.81719
309.71766
307.92945
306.38214
305.02741
303.83054
302.76558
301.81255
300.95563
300.18207
299.48141
298.84491
298.26525
297.73616
297.25229
296.80901
296.40231
296.02868
295.68506
295.36873
295.07733
294.80874
294.56109
294.33273
294.12219
293.92814
293.74942
293.58498
293.43389
293.29531
293.16852
293.05285
292.94773
292.85263
292.76712
292.6908
327.39159
321.67876
317.65801
314.57205
312.08097
310.00389
308.23312
306.69923
305.35464
304.16521
303.10545
302.15576
301.30066
300.52769
299.8266
299.18887
298.60734
298.07588
297.58927
297.14298
296.73307
296.35611
296.00908
295.68933
295.39452
295.12257
294.87164
294.64008
294.42645
294.22944
294.04788
293.88074
293.72709
293.5861
293.45704
293.33926
293.23217
293.13525
293.04807
292.97022
327.46129
321.8188
317.84675
314.79703
312.33388
310.27863
308.52499
307.00443
305.67007
304.4883
303.43407
302.48813
301.63532
300.86342
300.1624
299.52394
298.94103
298.40768
297.91878
297.4699
297.05719
296.67727
296.32719
296.00435
295.70643
295.43139
295.17743
294.94291
294.72639
294.5266
294.34237
294.17268
294.0166
293.87332
293.74209
293.62228
293.51329
293.41461
293.32579
293.24644
327.52813
321.95305
318.02773
315.01289
312.57674
310.54273
308.80587
307.29851
305.97443
304.80049
303.75206
302.81023
301.96009
301.18968
300.48918
299.85043
299.26658
298.73178
298.24101
297.78994
297.3748
296.99228
296.63948
296.31384
296.0131
295.73524
295.47848
295.24121
295.02201
294.81962
294.63288
294.46078
294.3024
294.15693
294.02364
293.90187
293.79105
293.69066
293.60026
293.51943
327.59232
322.08194
318.20154
315.22033
312.81029
310.79694
309.07651
307.5822
306.26839
305.10242
304.06
303.12255
302.27543
301.50688
300.80728
300.16865
299.58426
299.0484
298.55614
298.10325
297.68602
297.30123
296.94602
296.61788
296.31458
296.03414
295.77481
295.535
295.31331
295.10849
294.91939
294.74502
294.58447
294.43692
294.30165
294.17801
294.06543
293.96338
293.87142
293.78915
327.65405
322.20588
318.36872
315.41994
313.03518
311.04192
309.33758
307.85615
306.55258
305.39465
304.35842
303.42559
302.58176
301.8154
301.11706
300.4789
299.89433
299.35776
298.86436
298.40998
297.991
297.60423
297.2469
296.91652
296.61092
296.32814
296.06645
295.8243
295.6003
295.39321
295.20191
295.0254
294.86279
294.71326
294.57611
294.45068
294.33639
294.23274
294.13927
294.05558
327.71351
322.32522
318.52973
315.61227
313.25201
311.2783
309.58969
308.12096
306.82757
305.67772
304.64781
303.71979
302.87952
302.11562
301.41883
300.78146
300.19704
299.66007
299.16585
298.7103
298.28985
297.9014
297.54221
297.20986
296.90218
296.61728
296.35344
296.10914
295.883
295.67379
295.48043
295.30191
295.13735
294.98595
294.84699
294.71984
294.60391
294.49871
294.40377
294.31868
327.77084
322.44028
318.68501
315.79782
313.4613
311.50661
309.8334
308.37716
307.09387
305.95212
304.92863
304.00559
303.16906
302.40787
301.7129
301.0766
300.49261
299.95556
299.4608
299.00435
298.58272
298.19285
297.83205
297.49795
297.18843
296.90161
296.63581
296.38953
296.16141
295.95025
295.75495
295.57454
295.40814
295.25496
295.11429
294.98549
294.86798
294.76127
294.66489
294.57845
327.82619
322.55135
318.83491
315.97703
313.66354
311.72737
310.06921
308.62525
307.35197
306.21832
305.2013
304.28337
303.45077
302.69249
301.99957
301.36459
300.7813
300.24441
299.74938
299.2923
298.86973
298.47868
298.11651
297.78088
297.46972
297.18118
296.91361
296.66551
296.43557
296.22259
296.02549
295.84331
295.67517
295.5203
295.37799
295.24761
295.12858
295.02041
294.92263
294.83485
327.87967
322.65867
318.9798
316.1503
313.85916
311.94102
310.29758
308.86569
307.6023
306.47672
305.46623
304.5535
303.72497
302.96978
302.27912
301.64567
301.06331
300.52683
300.03177
299.57428
299.15101
298.759
298.39568
298.05873
297.74613
297.45605
297.18686
296.93712
296.7055
296.49083
296.29205
296.10821
295.93844
295.78197
295.6381
295.5062
295.38571
295.27612
295.17698
295.08788
327.93142
322.76249
319.11998
316.31798
314.04856
312.14798
310.51892
309.09889
307.84527
306.72773
305.72378
304.81633
303.99198
303.24004
302.55182
301.9201
301.33887
300.80301
300.30813
299.85046
299.42669
299.03394
298.66966
298.33158
298.01771
297.72627
297.45563
297.20438
296.97123
296.755
296.55466
296.36926
296.19795
296.03996
295.8946
295.76125
295.63935
295.52839
295.42792
295.33754
327.98152
322.86301
319.25573
316.48041
314.23209
312.34862
310.73363
309.32523
308.08127
306.97169
305.9743
305.07218
304.25212
303.50355
302.81791
302.18809
301.60818
301.07313
300.57863
300.12098
299.69691
299.3036
298.93854
298.59951
298.28455
297.99189
297.71997
297.46735
297.23279
297.01512
296.81333
296.62647
296.4537
296.29428
296.14751
296.01277
295.8895
295.77721
295.67545
295.58381
328.03008
322.96043
319.3873
316.63788
314.41009
312.54329
310.94205
309.54508
308.31062
307.20895
306.21811
305.32136
304.50565
303.76056
303.07763
302.44988
301.87144
301.33737
300.84343
300.38597
299.96178
299.56809
299.20242
298.86261
298.54671
298.25299
297.97991
297.72607
297.49021
297.27122
297.06808
296.87986
296.70573
296.54494
296.39682
296.26075
296.13617
296.0226
295.91957
295.8267
328.07718
323.05491
319.51494
316.79067
314.58284
312.73231
311.14452
309.75874
308.53366
307.43982
306.4555
305.56414
304.75285
304.01133
303.33123
302.70565
302.12884
301.59591
301.10269
300.64557
300.22143
299.82751
299.4614
299.12095
298.80426
298.50962
298.23552
297.98057
297.74355
297.52334
297.31894
297.12945
296.95404
296.79196
296.64255
296.50521
296.37937
296.26455
296.16029
296.0662
328.12289
323.14662
319.63884
316.93903
314.75064
312.91596
311.34132
309.96654
308.75068
307.66459
306.68675
305.8008
304.99397
304.25609
303.57891
302.95563
302.38057
301.84891
301.35654
300.89993
300.47597
300.08198
299.71557
299.37462
299.05728
298.76185
298.48684
298.2309
297.99282
297.7715
297.56594
297.37526
297.19864
297.03535
296.88472
296.74615
296.61909
296.50306
296.39761
296.30233
328.1673
323.23571
319.75921
317.08318
314.91372
313.09452
311.53273
310.16873
308.96195
307.88352
306.91213
306.03158
305.22924
304.49505
303.82088
303.19999
302.62679
302.09653
301.60515
301.14916
300.72554
300.3316
299.96502
299.62371
299.30583
299.00973
298.73394
298.47712
298.23808
298.01574
297.80911
297.61732
297.43957
297.27512
297.12333
296.98359
296.85536
296.73816
296.63153
296.5351
328.21047
323.3223
319.87622
317.22334
315.07233
313.26823
311.71901
310.36558
309.16774
308.09687
307.13188
306.25671
305.45888
304.72844
304.05733
303.43892
302.86768
302.33892
301.84864
301.39341
300.97023
300.57647
300.20984
299.86829
299.55
299.25334
298.97687
298.71927
298.47937
298.25609
298.04848
297.85566
297.67684
297.51131
297.3584
297.21754
297.08818
296.96984
296.86208
296.7645
328.25246
323.40653
319.99004
317.35971
315.22667
313.43731
311.9004
310.55734
309.36828
308.30488
307.34622
306.47642
305.6831
304.95644
304.28845
303.6726
303.10339
302.57623
302.08716
301.63279
301.21016
300.8167
300.45013
300.10844
299.78985
299.49274
299.21569
298.9574
298.71673
298.4926
298.28408
298.0903
297.91049
297.74392
297.58996
297.44802
297.31758
297.19813
297.08926
296.99056
328.29333
323.48849
320.10083
317.49245
315.37694
313.60199
312.0771
310.74421
309.56379
308.50775
307.55537
306.6909
305.9021
305.17924
304.51442
303.90118
303.33409
302.80861
302.32083
301.86741
301.44545
301.05238
300.68598
300.34426
300.02545
299.72799
299.45045
299.19157
298.9502
298.72531
298.51595
298.32129
298.14053
297.97299
297.81803
297.67506
297.54356
297.42305
297.31309
297.2133
328.33313
323.56831
320.20872
317.62174
315.52334
313.76245
312.24934
310.92641
309.75449
308.70571
307.75953
306.90036
306.11608
305.39702
304.73541
304.12482
303.55992
303.03619
302.54979
302.09741
301.67619
301.28361
300.91747
300.57581
300.25688
299.95915
299.68121
299.42182
299.17984
298.95425
298.74413
298.54864
298.36701
298.19855
298.04262
297.89867
297.76615
297.64461
297.53359
297.43272
328.3719
323.64608
320.31383
317.74773
315.66602
313.91887
312.41729
311.10413
309.94056
308.89893
307.95889
307.10498
306.32519
305.60996
304.95157
304.34368
303.78101
303.25909
302.77414
302.32289
301.90249
301.51049
301.14469
300.80317
300.48422
300.1863
299.90804
299.64821
299.40569
299.17948
298.96866
298.77239
298.58994
298.42061
298.26378
298.11887
297.98538
297.86283
297.75078
297.64886
328.4097
323.72188
320.41631
317.87056
315.80515
314.07143
312.58113
311.27756
310.12218
309.0876
308.15362
307.30493
306.52961
305.8182
305.16306
304.5579
303.99751
303.47746
302.99402
302.54395
302.12446
301.7331
301.36772
301.02643
300.70752
300.40949
300.13099
299.87079
299.6278
299.40103
299.18956
298.99259
298.80937
298.63922
298.48152
298.3357
298.20127
298.07774
297.96469
297.86173
328.44656
323.7958
320.51624
317.99036
315.94087
314.22029
312.74102
311.44685
310.29953
309.27189
308.3439
307.50037
306.7295
306.0219
305.37002
304.76762
304.20954
303.69141
303.20953
302.76071
302.34219
301.95155
301.58666
301.24566
300.92686
300.6288
300.35012
300.08962
299.84622
299.61895
299.4069
299.20927
299.02533
298.8544
298.69587
298.54918
298.41384
298.28936
298.17533
298.07135
328.48253
323.86792
320.61375
318.10726
316.07332
314.36558
312.89713
311.61217
310.47276
309.45195
308.52987
307.69146
306.925
306.22121
305.57258
304.97296
304.41722
303.90105
303.42079
302.97327
302.55577
302.1659
301.80157
301.46093
301.14232
300.84427
300.56548
300.30474
300.061
299.83328
299.6207
299.42246
299.23785
299.06618
298.90686
298.75934
298.62312
298.49772
298.38273
298.27776
328.51763
323.93831
320.70892
318.22138
316.20264
314.50746
313.04959
311.77366
310.64203
309.62794
308.71169
307.87834
307.11626
306.41626
305.77089
305.17405
304.62068
304.10651
303.62789
303.18173
302.7653
302.37627
302.01255
301.67232
301.35395
301.05599
300.77714
300.51622
300.27218
300.04407
299.83101
299.63221
299.44697
299.27461
299.11454
298.96622
298.82914
298.70284
298.58692
298.48098
328.55191
324.00704
320.80185
318.33281
316.32893
314.64604
313.19854
311.93147
310.80747
309.8
308.8895
308.06114
307.30341
306.60717
305.96506
305.37102
304.82003
304.30788
303.83095
303.38617
302.97087
302.58272
302.21966
301.8799
301.56183
301.26401
300.98515
300.72411
300.47983
300.25137
300.03787
299.83856
299.65272
299.47971
299.31892
299.16983
299.03193
298.90477
298.78793
298.68103
328.58539
324.07417
320.89262
318.44167
316.45231
314.78145
313.3441
312.08572
310.96923
309.96826
309.06343
308.24001
307.48658
306.79408
306.15521
305.56397
305.01539
304.50527
304.03006
303.5867
303.17256
302.78533
302.42299
302.08375
301.76602
301.46838
301.18957
300.92845
300.68397
300.45522
300.24133
300.04154
299.85515
299.68152
299.52005
299.37022
299.23152
299.10352
298.98579
298.87795
328.61811
324.13976
320.98131
318.54804
316.57289
314.9138
313.4864
312.23654
311.12741
310.13285
309.2336
308.41505
307.66589
306.9771
306.34146
305.75302
305.20684
304.69878
304.22531
303.78341
303.37047
302.9842
302.62261
302.28393
301.96659
301.66918
301.39047
301.1293
300.88468
300.65567
300.44143
300.2412
300.0543
299.88008
299.71796
299.56741
299.42795
299.29912
299.18052
299.07177
328.65008
324.20387
321.068
318.65202
316.69076
315.04319
313.62554
312.38404
311.28214
310.29388
309.40013
308.5864
307.84145
307.15635
306.52392
305.93826
305.3945
304.8885
304.41679
303.97638
303.56466
303.17939
302.81859
302.48051
302.1636
301.86647
301.58788
301.32673
301.08199
300.85276
300.63821
300.43759
300.2502
300.07542
299.91268
299.76145
299.62124
299.49162
299.37217
299.26251
328.68135
324.26654
321.15275
318.75368
316.80602
315.16974
313.76164
312.52833
311.43354
310.45147
309.56313
308.75416
308.01337
307.33192
306.70268
306.11981
305.57846
305.07454
304.60461
304.16569
303.75523
303.37099
303.01101
302.67357
302.35712
302.0603
301.78188
301.52077
301.27596
301.04655
300.83172
300.63073
300.44289
300.26759
300.10426
299.95237
299.81144
299.68104
299.56075
299.45022
328.71192
324.32784
321.23564
318.85311
316.91876
315.29352
313.89478
312.66952
311.5817
310.60572
309.72272
308.91843
308.18176
307.50393
306.87786
306.29776
305.75881
305.25698
304.78883
304.35143
303.94225
303.55906
303.19993
302.86315
302.5472
302.25073
301.97252
301.71148
301.46663
301.23707
301.022
300.82067
300.63242
300.45662
300.29272
300.1402
299.99857
299.86742
299.74632
299.63491
328.74183
324.38779
321.31672
318.95038
317.02906
315.41464
314.02508
312.8077
311.72673
310.75674
309.87899
309.07932
308.34672
307.67247
307.04954
306.47219
305.93564
305.4359
304.96955
304.53368
304.12579
303.74368
303.38543
303.04934
302.73392
302.43782
302.15985
301.89892
301.65406
301.42439
301.2091
301.00747
300.81882
300.64256
300.47811
300.32498
300.18268
300.05078
299.92889
299.81664
328.7711
324.44646
321.39606
319.04555
317.137
315.53318
314.15261
312.94297
311.86873
310.90461
310.03204
309.23692
308.50833
307.83762
307.21782
306.6432
306.10905
305.61139
305.14684
304.71252
304.30593
303.92492
303.56756
303.2322
302.91733
302.62164
302.34393
302.08314
301.8383
301.60853
301.39306
301.19115
301.00214
300.82543
300.66047
300.50675
300.36379
300.23118
300.10851
299.99542
328.79975
324.50387
321.4737
319.13871
317.24264
315.64921
314.27745
313.07541
312.00777
311.04944
310.18196
309.39133
308.66671
307.9995
307.38278
306.81088
306.27911
305.78352
305.32078
304.88801
304.48274
304.10284
303.7464
303.41178
303.09749
302.80222
302.52481
302.26418
302.01938
301.78956
301.57393
301.37176
301.18241
301.00529
300.83983
300.68554
300.54195
300.40864
300.28521
300.1713
328.82779
324.56006
321.54971
319.2299
317.34607
315.76282
314.3997
313.20511
312.14396
311.19131
310.32883
309.54263
308.82192
308.15817
307.5445
306.9753
306.4459
305.95239
305.49144
305.06023
304.6563
304.27751
303.92201
303.58815
303.27446
302.97964
302.70254
302.4421
302.19738
301.96752
301.75175
301.54935
301.35969
301.18216
301.01623
300.86139
300.71719
300.5832
300.45903
300.34431
328.85524
324.61509
321.62412
319.31918
317.44735
315.87407
314.51943
313.33215
312.27736
311.3303
310.47275
309.6909
308.97405
308.31372
307.70308
307.13655
306.6095
306.11805
305.6589
305.22925
304.82665
304.44901
304.09445
303.76136
303.44829
303.15394
302.87718
302.61695
302.37232
302.14245
301.92656
301.72396
301.534
301.3561
301.18971
301.03434
300.88954
300.75489
300.62999
300.51449
328.88213
324.66897
321.69699
319.40662
317.54653
315.98303
314.6367
313.45659
312.40806
311.46649
310.61379
309.83623
309.12318
308.46622
307.85858
307.2947
306.76998
306.28059
305.82323
305.39514
304.99389
304.61738
304.26378
303.93148
303.61904
303.32519
303.04877
302.78877
302.54426
302.3144
302.09842
301.89563
301.70539
301.52713
301.36031
301.20443
301.05906
300.92376
300.79815
300.68187
328.90847
324.72174
321.76837
319.49227
317.64369
316.08977
314.7516
313.57852
312.53613
311.59996
310.75202
309.97869
309.26939
308.61577
308.01108
307.44982
306.92742
306.44006
305.9845
305.55796
305.15805
304.78269
304.43007
304.09857
303.78677
303.49342
303.21738
302.95763
302.71325
302.48341
302.26736
302.0644
301.87391
301.69531
301.52807
301.3717
301.22576
301.08983
300.96353
300.84649
328.93427
324.77344
321.83829
319.57618
317.73887
316.19435
314.86417
313.69801
312.66164
311.73078
310.88753
310.11835
309.41275
308.76242
308.16065
307.60198
307.08189
306.59655
306.14277
305.71778
305.31922
304.94501
304.59336
304.26267
303.95154
303.6587
303.38305
303.12356
302.87933
302.64953
302.43342
302.23031
302.03959
301.86066
301.69302
301.53618
301.3897
301.25315
301.12617
301.00839
328.95955
324.82409
321.9068
319.65839
317.83214
316.29683
314.9745
313.81511
312.78467
311.85901
311.02037
310.25529
309.55334
308.90624
308.30736
307.75126
307.23344
306.75012
306.29811
305.87467
305.47744
305.10439
304.75372
304.42385
304.11339
303.82108
303.54582
303.28661
303.04255
302.81281
302.59666
302.39342
302.20247
302.02324
301.85522
301.69792
301.5509
301.41376
301.2861
301.1676
328.98433
324.87373
321.97393
319.73895
317.92354
316.39726
315.08262
313.92989
312.90526
311.98473
311.15063
310.38958
309.69121
309.04731
308.45128
307.89772
307.38215
306.90082
306.45057
306.02867
305.63279
305.26089
304.9112
304.58216
304.27237
303.9806
303.70576
303.44684
303.20295
302.97329
302.75712
302.55376
302.3626
302.18308
302.01469
301.85695
301.70941
301.57168
301.44338
301.32415
329.00861
324.92237
322.03973
319.81791
318.01313
316.49571
315.18862
314.04241
313.02349
312.10799
311.27835
310.52126
309.82643
309.18569
308.59247
308.04142
307.52808
307.04873
306.60022
306.17985
305.78531
305.41456
305.06586
304.73765
304.42854
304.13732
303.8629
303.60428
303.36059
303.13101
302.91483
302.71136
302.52001
302.34022
302.17147
302.0133
301.86526
301.72696
301.59802
301.47809
329.03241
324.97005
322.10422
319.8953
318.10095
316.59222
315.29253
314.15273
313.13942
312.22887
311.40361
310.65042
309.95907
309.32144
308.731
308.18242
307.67128
307.19389
306.74711
306.32827
305.93506
305.56547
305.21775
304.89037
304.58195
304.29129
304.0173
303.75899
303.5155
303.28602
303.06984
302.86628
302.67476
302.4947
302.32561
302.16702
302.0185
301.87964
301.75007
301.62945
329.05574
325.0168
322.16744
319.97118
318.18704
316.68683
315.39441
314.26091
313.2531
312.3474
311.52645
310.77711
310.08919
309.45462
308.86692
308.32078
307.81183
307.33638
306.89131
306.47398
306.08209
305.71365
305.36692
305.04037
304.73265
304.44255
304.16899
303.91101
303.66773
303.43837
303.22219
303.01856
302.82687
302.64656
302.47715
302.31815
302.16915
302.02975
301.89957
301.77827
329.07862
325.06262
322.22943
320.04557
318.27145
316.77961
315.49432
314.36699
313.36459
312.46366
311.64695
310.90139
310.21684
309.58529
309.00029
308.45657
307.94977
307.47623
307.03287
306.61704
306.22647
305.85917
305.51342
305.18771
304.88068
304.59115
304.31804
304.06039
303.81733
303.58808
303.37193
303.16823
302.97638
302.79584
302.62611
302.46673
302.31726
302.17732
302.04654
301.92458
329.10105
325.10756
322.2902
320.11852
318.35423
316.87058
315.59229
314.47102
313.47394
312.5777
311.76516
311.0233
310.34207
309.7135
309.13116
308.58983
308.08516
307.61352
307.17184
306.7575
306.36823
306.00207
305.65731
305.33243
305.0261
304.73714
304.46447
304.20716
303.96433
303.73521
303.5191
303.31534
303.12335
302.94258
302.77255
302.61278
302.46287
302.32241
302.19104
302.06843
329.12305
325.15163
322.34981
320.19005
318.4354
316.95981
315.68838
314.57306
313.58119
312.68957
311.88112
311.14292
310.46496
309.83931
309.2596
308.72062
308.21805
307.74829
307.30828
306.89541
306.50744
306.14241
305.79862
305.47458
305.16895
304.88056
304.60835
304.35137
304.10878
303.8798
303.66373
303.45992
303.2678
303.08682
302.91649
302.75636
302.606
302.46503
302.33309
302.20983
329.14463
325.19484
322.40826
320.26021
318.51502
317.04732
315.78263
314.67316
313.68641
312.79931
311.99488
311.26028
310.58554
309.96278
309.38565
308.84899
308.3485
307.88059
307.44223
307.03082
306.64413
306.28023
305.93741
305.6142
305.30927
305.02145
304.7497
304.49308
304.25073
304.02189
303.80587
303.60202
303.40977
303.22859
303.05798
302.89749
302.74671
302.60524
302.47273
302.34885
329.1658
325.23723
322.46559
320.32902
318.59311
317.13316
315.87508
314.77135
313.78963
312.90698
312.10651
311.37544
310.70386
310.08394
309.50937
308.97499
308.47655
308.01047
307.57374
307.16378
306.77837
306.41558
306.07373
305.75135
305.44711
305.15987
304.88858
304.63231
304.3902
304.16152
303.94555
303.74167
303.54931
303.36793
303.19705
303.03621
302.88501
302.74306
302.61
302.4855
329.18656
325.27881
322.52183
320.39653
318.66972
317.21737
315.96578
314.86768
313.8909
313.01262
312.21604
311.48845
310.81999
310.20286
309.6308
309.09867
308.60225
308.13798
307.70286
307.29433
306.91019
306.5485