/*--------------------------------*- C++ -*----------------------------------*\
| =========                 |                                                 |
| \\      /  F ield         | OpenFOAM: The Open Source CFD Toolbox           |
|  \\    /   O peration     | Version:  2506                                  |
|   \\  /    A nd           | Website:  www.openfoam.com                      |
|    \\/     M anipulation  |                                                 |
\*---------------------------------------------------------------------------*/
FoamFile
{
    version     2.0;
    format      ascii;
    arch        "LSB;label=32;scalar=64";
    class       volScalarField;
    location    "17000/water";
    object      alphat;
}
// * * * * * * * * * * * * * * * * * * * * * * * * * * * * * * * * * * * * * //

dimensions      [1 -1 -1 0 0 0 0];

internalField   nonuniform List<scalar> 
1000
(
0.038690245
0.038689577
0.038688046
0.038679677
0.038634252
0.038395956
0.037190881
0.031863289
0.019099264
0.016301307
0.036437656
0.036436968
0.036430539
0.036397696
0.036243742
0.035561449
0.032798676
0.024476367
0.014644263
0.017654592
0.034756095
0.034752688
0.034735392
0.034658264
0.034338316
0.033096047
0.02891434
0.020078558
0.014287422
0.017671293
0.033455039
0.033447371
0.03341324
0.03327659
0.032760727
0.030940083
0.025769814
0.018271826
0.015951834
0.017301528
0.032418332
0.032405139
0.032350677
0.032150525
0.031437424
0.029070329
0.023555953
0.018635548
0.018861319
0.016925707
0.031571667
0.031552637
0.031479596
0.031226166
0.030328138
0.027485339
0.022555236
0.020803812
0.022278951
0.016666253
0.030866455
0.030843488
0.030761497
0.030477954
0.029402155
0.026292479
0.023062282
0.024244185
0.025541464
0.016525217
0.030270851
0.030249445
0.030178152
0.029894488
0.028644379
0.025787647
0.025138648
0.028280449
0.028304857
0.016463212
0.029764732
0.029755535
0.029725655
0.029468612
0.028107101
0.026357178
0.028508244
0.03233423
0.030518999
0.016442683
0.02933706
0.029357521
0.029409741
0.029196672
0.027980961
0.028237275
0.032681085
0.036080437
0.03226745
0.0164407
0.028984746
0.029060623
0.029241294
0.029099489
0.028583416
0.031375036
0.037164678
0.039413566
0.033659141
0.016446399
0.028712536
0.028878677
0.029233086
0.029270277
0.030215312
0.035478747
0.041608856
0.042341637
0.034787782
0.016455608
0.028533626
0.028833054
0.029403322
0.029912948
0.033002997
0.040161824
0.045828365
0.044910688
0.035723459
0.016467074
0.028470721
0.028950933
0.029795606
0.031303901
0.036852562
0.045075939
0.049751829
0.047172418
0.03651543
0.016480528
0.028557118
0.029264021
0.030516009
0.033675912
0.041512315
0.049977345
0.053365812
0.049173971
0.037197742
0.016495911
0.028837274
0.029812271
0.031757262
0.037113865
0.046676277
0.054725974
0.056681569
0.050955262
0.037793548
0.016513127
0.029366612
0.0306604
0.033763987
0.041530588
0.052070708
0.059252582
0.059719268
0.052547522
0.038312744
0.016531924
0.030212238
0.031927771
0.036741029
0.046713923
0.057494928
0.063527029
0.062500518
0.053971386
0.038771648
0.016552015
0.031460356
0.033807686
0.040768437
0.05240281
0.062820344
0.067538835
0.065043909
0.055250009
0.039180837
0.016573201
0.033237305
0.03653743
0.045775086
0.058353644
0.067970058
0.071287263
0.067367798
0.056402656
0.039547987
0.016595312
0.035735564
0.04031675
0.051571089
0.064375013
0.072897857
0.074772951
0.069492516
0.05744403
0.039879015
0.016618169
0.039206961
0.045225546
0.05790964
0.070330559
0.077571622
0.078005805
0.071434931
0.058386035
0.040178268
0.016641579
0.043889347
0.051190674
0.064545353
0.076123372
0.081973247
0.080996826
0.073208729
0.059238023
0.040448893
0.016665346
0.049893092
0.058009395
0.071267178
0.081682182
0.086093956
0.08375454
0.074824554
0.060006977
0.040693043
0.016689268
0.057120344
0.065403819
0.077904914
0.086956682
0.089927095
0.086284501
0.076289849
0.060697688
0.040912018
0.01671314
0.065267317
0.073075898
0.084331938
0.091909339
0.093464332
0.088588792
0.077608892
0.06131293
0.041106365
0.016736741
0.073905508
0.080753519
0.090453603
0.096506947
0.096695378
0.090666184
0.078783081
0.061853702
0.041275977
0.016759833
0.082591649
0.088206902
0.096193513
0.10072053
0.099608991
0.092513048
0.079811597
0.062319622
0.041420251
0.016782153
0.090953139
0.095254167
0.10149059
0.10452661
0.10219498
0.094124966
0.08069249
0.062709546
0.041538337
0.01680342
0.098726061
0.10176218
0.10629923
0.10790912
0.10444659
0.095498766
0.081424086
0.063022375
0.041629466
0.016823346
0.10575404
0.10764457
0.11059027
0.11086106
0.10636265
0.096634447
0.082006396
0.063257895
0.041693295
0.016841658
0.11196717
0.11285693
0.11435142
0.11338529
0.10794885
0.097536576
0.082442241
0.063417463
0.041730184
0.016858121
0.11735653
0.11738969
0.11758633
0.11549431
0.109218
0.098214879
0.082737853
0.063504402
0.041741338
0.016872559
0.12195228
0.12126002
0.1203126
0.11720917
0.11018941
0.098684063
0.082902933
0.063524091
0.041728838
0.016884869
0.12580747
0.12450396
0.12255889
0.11855777
0.11088768
0.098963041
0.082950231
0.063483747
0.041695535
0.016895024
0.12898713
0.12716961
0.12436194
0.11957296
0.11134111
0.099073798
0.082894805
0.063392007
0.041644866
0.016903079
0.13156117
0.12931179
0.12576358
0.1202906
0.1115802
0.099040112
0.082753101
0.063258355
0.041580599
0.016909152
0.13359996
0.13098802
0.12680817
0.1207478
0.11163609
0.098886304
0.082542001
0.063092519
0.041506561
0.016913415
0.13517157
0.13225563
0.12754051
0.12098145
0.11153936
0.098636146
0.082277963
0.062903908
0.04142639
0.016916071
0.13634009
0.1331698
0.12800422
0.12102706
0.11131905
0.098312013
0.08197634
0.062701174
0.041343345
0.016917345
0.13716469
0.13378228
0.1282406
0.12091791
0.11100197
0.097934309
0.081650934
0.062491927
0.041260196
0.016917459
0.13769923
0.13414075
0.12828797
0.1206846
0.11061238
0.097521152
0.081313749
0.062282606
0.041179191
0.016916632
0.13799213
0.13428842
0.12818128
0.12035475
0.11017176
0.097088265
0.080974932
0.062078466
0.041102073
0.016915063
0.13808656
0.13426408
0.12795197
0.11995297
0.10969886
0.096648982
0.080642806
0.061883625
0.04103012
0.016912935
0.13802069
0.13410215
0.12762798
0.11950085
0.1092097
0.096214303
0.080323867
0.061700882
0.040963109
0.016910397
0.13782801
0.13383292
0.12723386
0.11901703
0.10871769
0.095792968
0.080022781
0.061531349
0.040902213
0.016907577
0.13753768
0.13348278
0.12679085
0.11851732
0.1082337
0.095391489
0.079742141
0.061377153
0.040847931
0.016904601
0.13717483
0.13307447
0.1263171
0.11801479
0.10776613
0.09501404
0.079485084
0.061239107
0.04080043
0.016901575
0.1367609
0.13262729
0.12582777
0.11751988
0.10732088
0.094664887
0.079253045
0.061117409
0.040759615
0.016898581
0.13631396
0.13215739
0.12533509
0.11704047
0.10690363
0.094346398
0.079046518
0.061011785
0.040725191
0.016895684
0.13584886
0.13167788
0.12484912
0.11658387
0.10651802
0.094059744
0.078865297
0.060921604
0.040696742
0.016892931
0.13537787
0.13119989
0.12437856
0.11615533
0.10616634
0.093805182
0.078708639
0.060845987
0.040673782
0.016890356
0.13491139
0.13073273
0.12393016
0.11575857
0.10584974
0.093582241
0.078575406
0.060783894
0.040655793
0.01688798
0.13445788
0.13028382
0.12350903
0.11539597
0.10556847
0.093389879
0.078464167
0.060734184
0.040642248
0.016885819
0.13402406
0.12985888
0.12311878
0.11506885
0.10532199
0.093226595
0.078373276
0.060695653
0.040632622
0.016883878
0.13361508
0.12946215
0.1227618
0.11477753
0.10510913
0.093090534
0.078300938
0.060667065
0.040626395
0.016882158
0.1332347
0.12909656
0.12243935
0.11452154
0.10492823
0.092979584
0.078245272
0.060647186
0.04062306
0.016880655
0.1328854
0.12876388
0.12215179
0.11429977
0.10477723
0.092891468
0.078204372
0.060634809
0.040622138
0.016879358
0.13256864
0.1284649
0.12189867
0.11411057
0.10465383
0.092823845
0.078176368
0.060628793
0.040623187
0.016878257
0.13228494
0.12819962
0.12167895
0.11395196
0.10455557
0.092774381
0.078159477
0.060628085
0.040625816
0.016877338
0.1320341
0.12796737
0.12149114
0.11382171
0.10447995
0.09274082
0.078152033
0.060631735
0.040629681
0.016876585
0.13181535
0.12776698
0.12133338
0.11371744
0.10442449
0.092721015
0.078152504
0.060638895
0.040634491
0.016875985
0.13162745
0.1275969
0.12120359
0.11363668
0.10438677
0.092712936
0.078159486
0.060648809
0.040639991
0.016875522
0.13146877
0.12745525
0.12109949
0.11357695
0.10436441
0.092714676
0.078171688
0.060660794
0.040645954
0.016875183
0.13133742
0.12733992
0.12101867
0.11353574
0.10435515
0.092724453
0.07818793
0.060674237
0.040652177
0.016874952
0.13123125
0.12724862
0.12095867
0.1135106
0.10435684
0.092740616
0.078207143
0.060688589
0.040658478
0.016874815
0.131148
0.12717896
0.12091701
0.11349916
0.10436746
0.092761669
0.078228381
0.060703379
0.040664705
0.016874756
0.13108529
0.12712852
0.12089127
0.11349921
0.10438517
0.092786288
0.078250832
0.060718214
0.040670738
0.016874764
0.13104076
0.12709492
0.12087912
0.11350867
0.10440835
0.092813327
0.078273819
0.060732784
0.040676488
0.016874825
0.1310121
0.12707584
0.12087841
0.11352568
0.10443554
0.092841813
0.078296788
0.06074685
0.040681896
0.016874929
0.13099709
0.12706913
0.12088713
0.11354857
0.10446551
0.092870925
0.078319293
0.060760229
0.040686923
0.016875066
0.13099364
0.12707274
0.12090344
0.11357585
0.10449715
0.092899973
0.078340967
0.060772772
0.040691493
0.016875229
0.1309998
0.12708479
0.12092569
0.11360618
0.10452953
0.092928377
0.078361507
0.060784326
0.040695586
0.016875407
0.13101375
0.12710355
0.12095237
0.1136384
0.10456186
0.09295565
0.078380646
0.060794817
0.040699219
0.016875595
0.13103384
0.12712745
0.12098213
0.11367151
0.10459344
0.092981388
0.078398216
0.060804235
0.040702404
0.016875787
0.13105856
0.12715508
0.12101381
0.11370463
0.10462373
0.093005299
0.078414154
0.060812577
0.040705161
0.016875979
0.13108658
0.12718519
0.12104639
0.11373704
0.10465228
0.093027242
0.078428423
0.060819867
0.040707512
0.016876167
0.13111671
0.1272167
0.12107899
0.11376818
0.10467886
0.093047121
0.078441036
0.060826151
0.040709486
0.016876347
0.13114793
0.12724868
0.12111093
0.11379764
0.10470326
0.093064903
0.078452035
0.060831485
0.040711114
0.016876518
0.13117939
0.12728037
0.12114168
0.11382514
0.10472539
0.093080604
0.07846149
0.060835936
0.040712427
0.016876678
0.13121039
0.12731119
0.12117083
0.11385046
0.10474521
0.093094281
0.078469488
0.060839573
0.040713455
0.016876826
0.13124039
0.12734067
0.12119808
0.1138735
0.10476273
0.093106022
0.078476132
0.060842471
0.04071423
0.016876961
0.13126897
0.12736847
0.12122322
0.11389418
0.10477801
0.09311594
0.078481534
0.060844707
0.040714783
0.016877083
0.13129581
0.12739432
0.12124614
0.11391253
0.10479115
0.093124168
0.078485812
0.060846359
0.040715146
0.016877191
0.13132069
0.12741805
0.12126675
0.11392858
0.10480227
0.093130846
0.078489088
0.060847504
0.040715348
0.016877286
0.13134345
0.12743957
0.12128507
0.11394243
0.1048115
0.093136118
0.078491477
0.06084821
0.040715416
0.016877368
0.131364
0.12745882
0.12130111
0.11395418
0.104819
0.093140122
0.078493083
0.060848539
0.04071537
0.016877439
0.13138228
0.12747579
0.12131493
0.11396394
0.10482489
0.093142992
0.078494005
0.060848544
0.040715226
0.016877498
0.1313983
0.12749051
0.12132663
0.11397186
0.10482934
0.093144858
0.078494333
0.060848272
0.040714999
0.016877546
0.1314121
0.12750306
0.12133631
0.11397807
0.10483249
0.09314585
0.07849416
0.060847773
0.040714703
0.016877584
0.13142377
0.12751354
0.12134414
0.11398276
0.10483451
0.093146104
0.078493577
0.060847096
0.040714356
0.016877613
0.13143343
0.1275221
0.12135029
0.11398611
0.10483558
0.093145759
0.078492682
0.060846296
0.04071398
0.016877633
0.13144127
0.12752893
0.12135494
0.11398831
0.10483585
0.093144949
0.078491563
0.060845422
0.040713593
0.016877646
0.13144747
0.12753422
0.1213583
0.11398955
0.1048355
0.093143791
0.0784903
0.060844519
0.040713214
0.016877654
0.13145223
0.12753816
0.12136055
0.11398999
0.10483465
0.093142381
0.07848895
0.060843613
0.040712852
0.016877658
0.13145573
0.12754094
0.12136185
0.11398976
0.10483341
0.093140787
0.078487553
0.060842722
0.040712509
0.016877657
0.13145813
0.1275427
0.12136234
0.11398898
0.10483185
0.09313906
0.07848613
0.060841848
0.040712181
0.016877654
0.13145958
0.12754358
0.12136214
0.11398773
0.10483004
0.093137237
0.078484698
0.060840994
0.040711866
0.016877648
0.1314602
0.12754371
0.12136134
0.11398612
0.10482805
0.09313536
0.078483276
0.060840163
0.04071156
0.016877639
0.13146013
0.1275432
0.12136008
0.11398423
0.10482595
0.093133469
0.078481883
0.060839361
0.040711262
0.016877629
)
;

boundaryField
{
    water_inlet
    {
        type            calculated;
        value           uniform 0.041850807;
    }
    water_outlet
    {
        type            calculated;
        value           nonuniform List<scalar> 10(0.13146013 0.1275432 0.12136008 0.11398423 0.10482595 0.093133469 0.078481883 0.060839361 0.040711262 0.016877629);
    }
    water_wedge1
    {
        type            wedge;
    }
    water_wedge2
    {
        type            wedge;
    }
    water_to_rock
    {
        type            compressible::alphatWallFunction;
        value           nonuniform List<scalar> 
100
(
0.0020384971
0.0022594581
0.0022621707
0.0022020355
0.0021407406
0.0020983181
0.0020752204
0.0020650579
0.0020616927
0.0020613677
0.002062302
0.0020638118
0.0020656911
0.0020678961
0.0020704175
0.0020732396
0.0020763204
0.0020796121
0.0020830821
0.0020867028
0.0020904452
0.002094278
0.0020981687
0.0021020844
0.002105991
0.0021098524
0.0021136296
0.0021172795
0.0021207565
0.0021240138
0.0021270068
0.0021296973
0.0021320566
0.0021340678
0.002135727
0.002137043
0.0021380354
0.002138732
0.0021391661
0.002139374
0.0021393924
0.0021392566
0.0021389999
0.0021386521
0.0021382376
0.0021377772
0.0021372914
0.0021367971
0.0021363082
0.0021358349
0.0021353851
0.0021349643
0.0021345764
0.0021342234
0.0021339065
0.0021336257
0.00213338
0.0021331681
0.002132988
0.0021328376
0.0021327147
0.0021326167
0.0021325413
0.0021324859
0.0021324482
0.0021324256
0.0021324159
0.002132417
0.0021324269
0.0021324439
0.0021324665
0.002132493
0.0021325222
0.0021325529
0.0021325842
0.0021326155
0.0021326461
0.0021326756
0.0021327036
0.0021327298
0.002132754
0.0021327761
0.0021327959
0.0021328136
0.0021328292
0.0021328426
0.0021328541
0.0021328636
0.0021328714
0.0021328775
0.0021328821
0.0021328855
0.0021328878
0.0021328892
0.0021328899
0.0021328899
0.0021328893
0.0021328883
0.0021328869
0.0021328852
)
;
    }
}


// ************************************************************************* //
