/*--------------------------------*- C++ -*----------------------------------*\
| =========                 |                                                 |
| \\      /  F ield         | OpenFOAM: The Open Source CFD Toolbox           |
|  \\    /   O peration     | Version:  2506                                  |
|   \\  /    A nd           | Website:  www.openfoam.com                      |
|    \\/     M anipulation  |                                                 |
\*---------------------------------------------------------------------------*/
FoamFile
{
    version     2.0;
    format      ascii;
    arch        "LSB;label=32;scalar=64";
    class       volScalarField;
    location    "17000/water";
    object      epsilon;
}
// * * * * * * * * * * * * * * * * * * * * * * * * * * * * * * * * * * * * * //

dimensions      [0 2 -3 0 0 0 0];

internalField   nonuniform List<scalar> 
1000
(
7.2399316e-05
7.2397808e-05
7.2397502e-05
7.2398682e-05
7.2424146e-05
7.2686938e-05
7.4736184e-05
8.8973294e-05
0.00019794853
0.0013048048
4.7739543e-05
4.7745807e-05
4.7746167e-05
4.7748745e-05
4.7810065e-05
4.8371228e-05
5.2145895e-05
7.5319311e-05
0.00023607334
0.0016574915
3.3261229e-05
3.326441e-05
3.3263962e-05
3.3272039e-05
3.3396639e-05
3.4348943e-05
3.9973154e-05
7.1502143e-05
0.00026549996
0.0016622
2.4212884e-05
2.4213778e-05
2.421353e-05
2.4236018e-05
2.4468829e-05
2.5979972e-05
3.4086759e-05
7.6375618e-05
0.00030233718
0.0015600258
1.8263229e-05
1.8263302e-05
1.8265922e-05
1.8318446e-05
1.8730723e-05
2.1090728e-05
3.2935674e-05
9.0423652e-05
0.00035053684
0.0014605596
1.4183053e-05
1.4183388e-05
1.4193787e-05
1.4301412e-05
1.5003313e-05
1.8678127e-05
3.6167872e-05
0.00011337685
0.00040230418
0.0013944165
1.1285033e-05
1.1287109e-05
1.1313191e-05
1.1514086e-05
1.2672039e-05
1.8360571e-05
4.3853871e-05
0.00014255017
0.00044702258
0.0013593138
9.1651308e-06
9.1712237e-06
9.225147e-06
9.5765156e-06
1.1437655e-05
2.010713e-05
5.5828066e-05
0.00017322871
0.00047957572
0.0013440706
7.5754963e-06
7.5890769e-06
7.6892454e-06
8.2761033e-06
1.1198205e-05
2.4041183e-05
7.1187008e-05
0.00020099073
0.00050080782
0.0013390501
6.3585387e-06
6.3848729e-06
6.5589466e-06
7.5064249e-06
1.1984524e-05
3.0236096e-05
8.8277453e-05
0.00022355941
0.00051393064
0.001338566
5.4111026e-06
5.458172e-06
5.7474959e-06
7.2369367e-06
1.3906683e-05
3.8515438e-05
0.0001052432
0.00024078318
0.00052197917
0.0013399582
4.66424e-06
4.7441308e-06
5.210056e-06
7.4969554e-06
1.7087006e-05
4.8355531e-05
0.00012068238
0.00025359547
0.00052708062
0.0013422101
4.0714681e-06
4.2024411e-06
4.934985e-06
8.3622693e-06
2.1575427e-05
5.8975401e-05
0.00013393051
0.00026313403
0.00053055254
0.0013450167
3.6019039e-06
3.8114143e-06
4.9402482e-06
9.9351089e-06
2.7272144e-05
6.9566943e-05
0.00014492616
0.00027035419
0.00053316254
0.0013483153
3.2363936e-06
3.5653622e-06
5.271557e-06
1.2311443e-05
3.3901625e-05
7.9510617e-05
0.00015392443
0.0002759563
0.00053534084
0.0013520943
2.9656648e-06
3.4742273e-06
5.9984213e-06
1.5537508e-05
4.1062719e-05
8.8461008e-05
0.0001612737
0.00028042559
0.00053731703
0.0013563333
2.7900143e-06
3.5645605e-06
7.2040939e-06
1.9570005e-05
4.8330094e-05
9.63071e-05
0.00016730393
0.00028408943
0.00053917812
0.0013609716
2.7202674e-06
3.8804277e-06
8.9664257e-06
2.4261472e-05
5.5350044e-05
0.00010308385
0.00017229241
0.00028715805
0.00054093724
0.0013659396
2.779741e-06
4.4819765e-06
1.1330832e-05
2.9383068e-05
6.1887467e-05
0.00010889372
0.00017645197
0.00028975385
0.00054267252
0.0013711903
3.0065682e-06
5.4387058e-06
1.428362e-05
3.4675025e-05
6.7820797e-05
0.00011385653
0.00017993843
0.0002919802
0.00054443414
0.0013766844
3.4547887e-06
6.814856e-06
1.7738618e-05
3.9899691e-05
7.3111782e-05
0.00011808662
0.00018285376
0.00029394135
0.0005462362
0.0013823797
4.1911437e-06
8.647597e-06
2.1546225e-05
4.4874689e-05
7.7769112e-05
0.00012165873
0.00018531779
0.0002956973
0.00054807363
0.0013882299
5.2835769e-06
1.0924856e-05
2.5521735e-05
4.9478029e-05
8.1803651e-05
0.00012466938
0.00018741278
0.00029728393
0.00054993255
0.0013941869
6.7799105e-06
1.3574422e-05
2.9480278e-05
5.3622581e-05
8.5253141e-05
0.00012719933
0.00018919522
0.00029872108
0.00055179405
0.0014002005
8.6832356e-06
1.6474084e-05
3.325004e-05
5.7259578e-05
8.8167111e-05
0.00012930779
0.0001907024
0.00030001697
0.00055363552
0.0014062186
1.0937846e-05
1.9464268e-05
3.6694184e-05
6.0377249e-05
9.0586696e-05
0.00013103664
0.00019195691
0.00030117092
0.00055543095
0.0014121851
1.3423326e-05
2.2384385e-05
3.9727034e-05
6.2977941e-05
9.2544862e-05
0.00013241433
0.00019297039
0.00030217552
0.00055715129
0.0014180385
1.5988199e-05
2.510357e-05
4.2303217e-05
6.5074473e-05
9.4068749e-05
0.00013345996
0.00019374694
0.00030301883
0.00055876539
0.0014237111
1.8484636e-05
2.7531458e-05
4.4410752e-05
6.6689307e-05
9.5183229e-05
0.0001341877
0.00019428687
0.00030368712
0.00056024165
0.0014291298
2.0793761e-05
2.9617805e-05
4.6063581e-05
6.7854337e-05
9.5914522e-05
0.00013461103
0.00019459043
0.00030416793
0.00056155063
0.0014342192
2.2836556e-05
3.1345758e-05
4.7294062e-05
6.8609989e-05
9.629288e-05
0.00013474638
0.00019466138
0.00030445326
0.00056266804
0.0014389073
2.4572803e-05
3.2723067e-05
4.8146001e-05
6.9003255e-05
9.6353753e-05
0.00013461549
0.00019450955
0.00030454215
0.00056357759
0.0014431309
2.5993502e-05
3.377375e-05
4.8668825e-05
6.9085019e-05
9.6137451e-05
0.00013424628
0.00019415216
0.0003044422
0.000564273
0.0014468417
2.7111473e-05
3.4531282e-05
4.8913194e-05
6.8907246e-05
9.5687673e-05
0.00013367223
0.00019361366
0.00030416961
0.00056475851
0.0014500103
2.7952844e-05
3.5033499e-05
4.8928006e-05
6.8520513e-05
9.5049484e-05
0.00013293077
0.00019292439
0.00030374795
0.00056504801
0.0014526282
2.8550497e-05
3.5319065e-05
4.8758574e-05
6.7972133e-05
9.4267221e-05
0.00013206114
0.00019211835
0.00030320596
0.00056516297
0.001454707
2.8939518e-05
3.5425184e-05
4.8445661e-05
6.7304942e-05
9.3382701e-05
0.0001311022
0.00019123084
0.00030257496
0.00056512977
0.0014562761
2.9154308e-05
3.538625e-05
4.8025113e-05
6.6556644e-05
9.2433893e-05
0.00013009056
0.00019029614
0.00030188636
0.000564977
0.0014573782
2.9226916e-05
3.5233146e-05
4.7527857e-05
6.5759615e-05
9.1454088e-05
0.00012905915
0.00018934577
0.00030116957
0.00056473316
0.0014580655
2.9186194e-05
3.4992989e-05
4.6980132e-05
6.4941008e-05
9.0471519e-05
0.00012803633
0.00018840714
0.00030045059
0.00056442489
0.0014583946
2.9057487e-05
3.4689155e-05
4.6403843e-05
6.4123075e-05
8.9509336e-05
0.0001270455
0.00018750296
0.00029975106
0.00056407582
0.0014584234
2.8862639e-05
3.4341473e-05
4.5816976e-05
6.3323588e-05
8.858583e-05
0.00012610504
0.00018665091
0.000299088
0.00056370593
0.0014582082
2.8620178e-05
3.3966505e-05
4.5234023e-05
6.2556329e-05
8.7714827e-05
0.00012522859
0.00018586386
0.00029847378
0.00056333132
0.0014578016
2.83456e-05
3.3577877e-05
4.4666414e-05
6.1831589e-05
8.6906177e-05
0.00012442544
0.00018515021
0.00029791647
0.00056296414
0.0014572511
2.8051689e-05
3.3186614e-05
4.4122925e-05
6.1156651e-05
8.6166274e-05
0.00012370107
0.00018451438
0.00029742016
0.00056260873
0.0014565953
2.7748843e-05
3.2801474e-05
4.3610055e-05
6.0536268e-05
8.5498632e-05
0.00012305789
0.00018395777
0.0002969849
0.00056226307
0.0014558674
2.7445389e-05
3.2429263e-05
4.3132385e-05
5.9973106e-05
8.4904438e-05
0.00012249577
0.00018347856
0.00029660449
0.00056193996
0.0014550994
2.7147882e-05
3.2075122e-05
4.26929e-05
5.9468146e-05
8.4382998e-05
0.00012201227
0.00018307002
0.00029628025
0.00056164605
0.0014543184
2.6861368e-05
3.1742797e-05
4.229328e-05
5.9021026e-05
8.3931996e-05
0.00012160116
0.00018272934
0.00029601092
0.0005613842
0.0014535459
2.6589639e-05
3.1434892e-05
4.1934209e-05
5.863016e-05
8.3546326e-05
0.00012125841
0.00018245246
0.0002957933
0.00056115507
0.0014527985
2.6335459e-05
3.1153089e-05
4.1615172e-05
5.8292157e-05
8.3222116e-05
0.0001209792
0.00018223423
0.00029562311
0.00056095785
0.0014520884
2.610063e-05
3.0897948e-05
4.1334669e-05
5.800404e-05
8.2954939e-05
0.00012075808
0.00018206885
0.00029549545
0.00056079091
0.0014514245
2.5886045e-05
3.0669358e-05
4.1091019e-05
5.7762468e-05
8.2739994e-05
0.00012058926
0.0001819503
0.00029540522
0.00056065202
0.0014508125
2.5692058e-05
3.0466794e-05
4.0882227e-05
5.7563834e-05
8.2572272e-05
0.00012046681
0.00018187254
0.00029534733
0.00056053869
0.001450256
2.5518596e-05
3.028939e-05
4.0706047e-05
5.7404367e-05
8.2446701e-05
0.0001203849
0.0001818297
0.0002953169
0.00056044834
0.0014497564
2.5365237e-05
3.0136e-05
4.056005e-05
5.7280224e-05
8.2358263e-05
0.00012033787
0.00018181625
0.00029530937
0.00056037838
0.0014493137
2.5231287e-05
3.0005262e-05
4.0441691e-05
5.7187568e-05
8.2302089e-05
0.00012032037
0.00018182703
0.00029532056
0.00056032635
0.0014489265
2.5115833e-05
2.9895651e-05
4.0348367e-05
5.7122636e-05
8.2273537e-05
0.00012032739
0.00018185735
0.00029534675
0.00056028997
0.0014485924
2.5017795e-05
2.9805532e-05
4.0277466e-05
5.7081794e-05
8.2268239e-05
0.00012035436
0.00018190301
0.00029538458
0.00056026707
0.0014483087
2.4935972e-05
2.9733203e-05
4.0226417e-05
5.7061582e-05
8.2282141e-05
0.0001203971
0.00018196024
0.00029543112
0.00056025568
0.0014480717
2.4869077e-05
2.9676928e-05
4.0192718e-05
5.7058743e-05
8.2311527e-05
0.0001204519
0.00018202575
0.00029548382
0.00056025393
0.0014478781
2.4815777e-05
2.9634978e-05
4.0173971e-05
5.707025e-05
8.2353026e-05
0.00012051545
0.00018209667
0.00029554044
0.0005602601
0.0014477238
2.4774716e-05
2.9605651e-05
4.0167908e-05
5.7093323e-05
8.2403624e-05
0.00012058485
0.00018217055
0.00029559909
0.0005602726
0.0014476051
2.4744545e-05
2.9587301e-05
4.0172407e-05
5.712544e-05
8.2460661e-05
0.00012065763
0.00018224532
0.00029565818
0.00056029002
0.001447518
2.4723942e-05
2.9578359e-05
4.0185512e-05
5.7164345e-05
8.2521821e-05
0.00012073168
0.00018231928
0.00029571643
0.0005603111
0.0014474585
2.4711633e-05
2.9577344e-05
4.0205436e-05
5.7208043e-05
8.2585123e-05
0.00012080527
0.00018239109
0.00029577281
0.00056033481
0.0014474229
2.4706405e-05
2.9582881e-05
4.0230574e-05
5.7254797e-05
8.2648897e-05
0.00012087698
0.00018245966
0.00029582654
0.00056036022
0.0014474076
2.4707118e-05
2.9593705e-05
4.0259496e-05
5.7303117e-05
8.2711762e-05
0.0001209457
0.00018252421
0.00029587704
0.00056038658
0.0014474093
2.4712713e-05
2.9608665e-05
4.0290946e-05
5.7351739e-05
8.2772599e-05
0.00012101056
0.00018258414
0.00029592386
0.0005604132
0.0014474249
2.4722221e-05
2.9626731e-05
4.0323837e-05
5.739962e-05
8.2830527e-05
0.00012107092
0.00018263907
0.00029596673
0.00056043951
0.0014474516
2.4734761e-05
2.9646989e-05
4.0357245e-05
5.7445912e-05
8.2884881e-05
0.00012112637
0.00018268877
0.00029600547
0.00056046503
0.0014474871
2.4749545e-05
2.966864e-05
4.0390394e-05
5.7489948e-05
8.2935183e-05
0.00012117664
0.00018273315
0.00029604002
0.00056048916
0.001447529
2.4765878e-05
2.9690995e-05
4.0422652e-05
5.7531225e-05
8.2981123e-05
0.00012122162
0.00018277225
0.00029607034
0.00056051118
0.0014475749
2.4783154e-05
2.9713475e-05
4.0453515e-05
5.7569389e-05
8.3022538e-05
0.00012126134
0.0001828062
0.00029609634
0.00056053102
0.0014476232
2.4800855e-05
2.9735597e-05
4.0482599e-05
5.7604213e-05
8.3059393e-05
0.00012129593
0.0001828351
0.00029611817
0.000560549
0.0014476725
2.4818544e-05
2.9756974e-05
4.0509625e-05
5.7635581e-05
8.309175e-05
0.00012132552
0.00018285914
0.00029613629
0.00056056524
0.0014477218
2.4835864e-05
2.97773e-05
4.053441e-05
5.7663475e-05
8.3119706e-05
0.00012135031
0.00018287879
0.00029615108
0.00056057981
0.00144777
2.4852526e-05
2.9796352e-05
4.0556855e-05
5.768791e-05
8.3143399e-05
0.00012137066
0.00018289447
0.00029616289
0.00056059275
0.0014478165
2.4868313e-05
2.9813972e-05
4.057689e-05
5.7708959e-05
8.3163111e-05
0.00012138699
0.0001829066
0.00029617204
0.00056060411
0.0014478605
2.4883054e-05
2.9830037e-05
4.0594512e-05
5.7726787e-05
8.3179156e-05
0.00012139969
0.00018291558
0.00029617884
0.00056061396
0.0014479018
2.4896621e-05
2.9844481e-05
4.060978e-05
5.7741602e-05
8.3191866e-05
0.00012140916
0.00018292182
0.00029618357
0.00056062236
0.0014479399
2.4908935e-05
2.9857288e-05
4.0622794e-05
5.775364e-05
8.3201585e-05
0.0001214158
0.00018292569
0.00029618653
0.0005606294
0.0014479747
2.491996e-05
2.986848e-05
4.0633688e-05
5.776315e-05
8.3208652e-05
0.00012141998
0.00018292753
0.00029618796
0.00056063519
0.0014480061
2.4929696e-05
2.9878113e-05
4.0642616e-05
5.7770392e-05
8.3213403e-05
0.00012142207
0.00018292767
0.00029618812
0.00056063982
0.0014480339
2.4938169e-05
2.9886265e-05
4.0649745e-05
5.7775625e-05
8.3216157e-05
0.00012142239
0.00018292642
0.00029618721
0.00056064339
0.0014480584
2.4945428e-05
2.9893032e-05
4.0655253e-05
5.7779105e-05
8.3217219e-05
0.00012142126
0.00018292406
0.00029618545
0.000560646
0.0014480796
2.4951542e-05
2.9898524e-05
4.0659317e-05
5.7781077e-05
8.3216875e-05
0.00012141898
0.00018292082
0.00029618303
0.00056064776
0.0014480975
2.495659e-05
2.9902857e-05
4.0662116e-05
5.7781774e-05
8.321539e-05
0.00012141579
0.00018291695
0.00029618012
0.00056064882
0.0014481125
2.4960661e-05
2.9906151e-05
4.0663822e-05
5.7781417e-05
8.3213003e-05
0.00012141193
0.00018291264
0.00029617688
0.00056064928
0.0014481247
2.4963849e-05
2.9908528e-05
4.0664599e-05
5.7780204e-05
8.320993e-05
0.00012140761
0.00018290806
0.00029617345
0.00056064928
0.0014481343
2.4966248e-05
2.9910107e-05
4.0664602e-05
5.7778319e-05
8.3206362e-05
0.000121403
0.00018290338
0.00029616994
0.00056064892
0.0014481416
2.4967953e-05
2.9910999e-05
4.0663971e-05
5.7775922e-05
8.3202461e-05
0.00012139825
0.00018289869
0.00029616644
0.00056064826
0.001448147
2.4969055e-05
2.9911311e-05
4.0662833e-05
5.7773155e-05
8.3198368e-05
0.00012139348
0.00018289409
0.00029616301
0.00056064735
0.0014481507
2.496964e-05
2.9911143e-05
4.0661304e-05
5.7770141e-05
8.3194198e-05
0.00012138879
0.00018288966
0.0002961597
0.00056064625
0.001448153
2.496979e-05
2.9910583e-05
4.0659486e-05
5.7766985e-05
8.3190051e-05
0.00012138426
0.00018288545
0.00029615654
0.00056064498
0.001448154
2.4969581e-05
2.9909715e-05
4.0657468e-05
5.7763779e-05
8.3186008e-05
0.00012137995
0.0001828815
0.00029615356
0.0005606436
0.0014481541
2.4969082e-05
2.9908613e-05
4.0655329e-05
5.7760599e-05
8.3182135e-05
0.00012137592
0.00018287786
0.00029615081
0.00056064216
0.0014481532
2.4968356e-05
2.9907343e-05
4.0653136e-05
5.7757509e-05
8.3178486e-05
0.0001213722
0.00018287456
0.00029614831
0.00056064074
0.0014481515
2.4967461e-05
2.9905963e-05
4.0650949e-05
5.7754561e-05
8.3175101e-05
0.00012136882
0.0001828716
0.00029614608
0.00056063937
0.0014481493
2.4966451e-05
2.9904528e-05
4.0648821e-05
5.7751803e-05
8.3172014e-05
0.00012136579
0.00018286898
0.0002961441
0.00056063806
0.0014481467
)
;

boundaryField
{
    water_inlet
    {
        type            turbulentMixingLengthDissipationRateInlet;
        mixingLength    0.005;
        phi             phi;
        k               k;
        value           uniform 0.00011791765;
    }
    water_outlet
    {
        type            inletOutlet;
        inletValue      uniform 0.0001;
        value           nonuniform List<scalar> 10(2.4966451e-05 2.9904528e-05 4.0648821e-05 5.7751803e-05 8.3172014e-05 0.00012136579 0.00018286898 0.0002961441 0.00056063806 0.0014481467);
    }
    water_wedge1
    {
        type            wedge;
    }
    water_wedge2
    {
        type            wedge;
    }
    water_to_rock
    {
        type            epsilonWallFunction;
        blending        stepwise;
        value           nonuniform List<scalar> 
100
(
0.0013048048
0.0016574915
0.0016622
0.0015600258
0.0014605596
0.0013944165
0.0013593138
0.0013440706
0.0013390501
0.001338566
0.0013399582
0.0013422101
0.0013450167
0.0013483153
0.0013520943
0.0013563333
0.0013609716
0.0013659396
0.0013711903
0.0013766844
0.0013823797
0.0013882299
0.0013941869
0.0014002005
0.0014062186
0.0014121851
0.0014180385
0.0014237111
0.0014291298
0.0014342192
0.0014389073
0.0014431309
0.0014468417
0.0014500103
0.0014526282
0.001454707
0.0014562761
0.0014573782
0.0014580655
0.0014583946
0.0014584234
0.0014582082
0.0014578016
0.0014572511
0.0014565953
0.0014558674
0.0014550994
0.0014543184
0.0014535459
0.0014527985
0.0014520884
0.0014514245
0.0014508125
0.001450256
0.0014497564
0.0014493137
0.0014489265
0.0014485924
0.0014483087
0.0014480717
0.0014478781
0.0014477238
0.0014476051
0.001447518
0.0014474585
0.0014474229
0.0014474076
0.0014474093
0.0014474249
0.0014474516
0.0014474871
0.001447529
0.0014475749
0.0014476232
0.0014476725
0.0014477218
0.00144777
0.0014478165
0.0014478605
0.0014479018
0.0014479399
0.0014479747
0.0014480061
0.0014480339
0.0014480584
0.0014480796
0.0014480975
0.0014481125
0.0014481247
0.0014481343
0.0014481416
0.001448147
0.0014481507
0.001448153
0.001448154
0.0014481541
0.0014481532
0.0014481515
0.0014481493
0.0014481467
)
;
    }
}


// ************************************************************************* //
