/*--------------------------------*- C++ -*----------------------------------*\
| =========                 |                                                 |
| \\      /  F ield         | OpenFOAM: The Open Source CFD Toolbox           |
|  \\    /   O peration     | Version:  2506                                  |
|   \\  /    A nd           | Website:  www.openfoam.com                      |
|    \\/     M anipulation  |                                                 |
\*---------------------------------------------------------------------------*/
FoamFile
{
    version     2.0;
    format      ascii;
    arch        "LSB;label=32;scalar=64";
    class       volScalarField;
    location    "17000/water";
    object      k;
}
// * * * * * * * * * * * * * * * * * * * * * * * * * * * * * * * * * * * * * //

dimensions      [0 2 -2 0 0 0 0];

internalField   nonuniform List<scalar> 
1000
(
0.00017657855
0.00017657518
0.00017657131
0.00017655365
0.00017648098
0.00017625478
0.00017589507
0.00017764177
0.00020514192
0.00048657967
0.00013915035
0.00013915817
0.00013914641
0.00013908743
0.00013888206
0.0001383736
0.00013797747
0.00014325065
0.00019616756
0.00057072179
0.00011343696
0.00011343683
0.00011340783
0.00011329561
0.00011298241
0.00011249021
0.00011342553
0.00012641417
0.00020548453
0.00057180213
9.4956345e-05
9.4947216e-05
9.4898274e-05
9.4747989e-05
9.446117e-05
9.4591049e-05
9.8882277e-05
0.00012463451
0.00023169734
0.00054812306
8.1180941e-05
8.1164581e-05
8.1102165e-05
8.0967048e-05
8.0960038e-05
8.2611541e-05
9.2929495e-05
0.00013695632
0.00027128316
0.00052456948
7.0599818e-05
7.0579371e-05
7.0523472e-05
7.0504812e-05
7.1168271e-05
7.5593973e-05
9.5291711e-05
0.00016203305
0.00031585998
0.00050861036
6.2267978e-05
6.2250533e-05
6.2239523e-05
6.2499652e-05
6.4399544e-05
7.3304193e-05
0.00010610237
0.00019613614
0.0003564984
0.00050003847
5.5571435e-05
5.5570245e-05
5.5667656e-05
5.6450693e-05
6.0389046e-05
7.5971529e-05
0.00012498768
0.00023351944
0.00038871298
0.00049629316
5.0098705e-05
5.0135843e-05
5.0440286e-05
5.2103003e-05
5.9190525e-05
8.3984152e-05
0.00015029882
0.00026896095
0.00041246837
0.00049505644
4.556768e-05
4.5677863e-05
4.6337501e-05
4.9391613e-05
6.1095845e-05
9.7486441e-05
0.0001792021
0.00029964176
0.00042963984
0.00049493711
4.1782805e-05
4.201903e-05
4.3252139e-05
4.8416126e-05
6.6517941e-05
0.00011597904
0.00020865662
0.00032501687
0.00044222986
0.00049528024
3.8609678e-05
3.905143e-05
4.1174515e-05
4.9422629e-05
7.5808252e-05
0.00013819018
0.00023642031
0.00034572002
0.00045177465
0.000495835
3.5960355e-05
3.6725363e-05
4.0189359e-05
5.2766908e-05
8.9027946e-05
0.00016237237
0.00026138274
0.00036268812
0.0004593153
0.00049652603
3.3785881e-05
3.5046474e-05
4.0478132e-05
5.8837676e-05
0.00010577023
0.0001868288
0.00028330085
0.0003767737
0.00046551961
0.00049733755
3.2074346e-05
3.4079153e-05
4.2315871e-05
6.7933521e-05
0.00012516091
0.00021031445
0.00030238156
0.00038864918
0.00047080758
0.0004982664
3.085376e-05
3.3954443e-05
4.6047915e-05
8.0117748e-05
0.00014606357
0.00023213608
0.00031898676
0.00039881667
0.00047543823
0.00049930721
3.0199524e-05
3.4878826e-05
5.2033915e-05
9.5115099e-05
0.00016736919
0.0002520303
0.00033348805
0.00040763702
0.0004795211
0.00050044482
3.0245948e-05
3.7135909e-05
6.0555738e-05
0.00011231861
0.00018821044
0.00026998805
0.00034621417
0.00041534812
0.00048317063
0.00050166192
3.1199954e-05
4.1068843e-05
7.1707223e-05
0.00013091693
0.00020802784
0.00028611996
0.00035742632
0.0004221344
0.00048649203
0.00050294678
3.3351732e-05
4.7031274e-05
8.5310735e-05
0.00015007638
0.00022652192
0.00030057642
0.00036733144
0.00042815048
0.00048955876
0.00050428944
3.7070721e-05
5.5302028e-05
0.00010090972
0.00016908824
0.00024356845
0.00031350362
0.00037608926
0.00043353359
0.00049241629
0.00050567935
4.276789e-05
6.5979587e-05
0.00011785038
0.00018743156
0.00025913434
0.00032501624
0.0003838697
0.00043837738
0.00049509099
0.00050710505
5.0805828e-05
7.8899317e-05
0.00013541212
0.00020475531
0.00027320735
0.00033526163
0.00039079679
0.00044274733
0.00049759728
0.00050855464
6.1362374e-05
9.3622408e-05
0.00015292572
0.00022080428
0.00028583242
0.00034436305
0.00039696033
0.00044668747
0.00049994077
0.00051001592
7.4302968e-05
0.00010951463
0.00016980422
0.00023542117
0.00029707667
0.00035241039
0.00040242172
0.00045022431
0.00050211984
0.00051147617
8.914228e-05
0.00012582765
0.00018559429
0.00024853436
0.00030699063
0.00035946427
0.00040721858
0.00045336973
0.00050412651
0.00051292187
0.00010508445
0.00014184802
0.00019999815
0.00026010187
0.00031560871
0.00036556122
0.00041136921
0.0004561235
0.00050594722
0.00051433824
0.00012123773
0.00015699615
0.00021282839
0.00027010603
0.00032295493
0.0003707208
0.00041487799
0.00045847661
0.00050756431
0.00051570903
0.00013679942
0.00017085455
0.00022398912
0.00027855534
0.00032905231
0.00037495464
0.0004177421
0.00046041554
0.00050895831
0.00051701678
0.0001511654
0.00018316378
0.00023346074
0.00028548799
0.00033393295
0.00037827633
0.00041995925
0.00046192775
0.00051011118
0.00051824357
0.00016395843
0.00019380074
0.00024128578
0.00029097331
0.00033764601
0.00038071018
0.00042153508
0.00046300709
0.00051100976
0.00051937231
0.00017500186
0.0002027501
0.00024755451
0.00029510944
0.00034026188
0.0003822973
0.00042248892
0.00046365837
0.00051164881
0.00052038817
0.00018427058
0.0002100751
0.00025239097
0.0002980178
0.00034187187
0.00038309787
0.00042285668
0.00046389993
0.0005120328
0.00052127987
0.00019184102
0.0002158913
0.00025594021
0.00029983561
0.00034258465
0.00038318992
0.00042269091
0.00046376407
0.00051217632
0.00052204068
0.00019785006
0.00022034506
0.00025835753
0.00030070821
0.00034252043
0.00038266544
0.00042205819
0.00046329533
0.00051210311
0.00052266884
0.00020246501
0.00022359713
0.00025980003
0.00030078204
0.00034180475
0.00038162506
0.00042103485
0.00046254723
0.00051184392
0.00052316736
0.00020586355
0.000225811
0.00026042031
0.00030019903
0.00034056243
0.00038017234
0.00041970202
0.00046157832
0.0005114338
0.00052354345
0.00020822098
0.00022714492
0.00026036211
0.00029909233
0.00033891274
0.00037840854
0.00041814071
0.00046044805
0.0005109092
0.00052380754
0.00020970275
0.00022774705
0.00025975754
0.0002975836
0.00033696563
0.00037642842
0.00041642762
0.00045921316
0.00051030539
0.00052397218
0.00021046044
0.0002277526
0.00025872549
0.0002957813
0.00033481943
0.00037431727
0.00041463209
0.00045792497
0.00050965448
0.00052405104
0.00021062997
0.00022728257
0.00025737106
0.00029378015
0.00033255959
0.00037214915
0.00041281418
0.00045662774
0.00050898426
0.000524058
0.00021033122
0.00022644346
0.00025578563
0.00029166119
0.00033025846
0.00036998627
0.00041102384
0.00045535787
0.00050831762
0.00052400651
0.00020966855
0.00022532775
0.00025404747
0.00028949243
0.00032797565
0.00036787907
0.00040930093
0.00045414396
0.00050767266
0.00052390914
0.00020873174
0.00022401469
0.0002522226
0.0002873298
0.00032575894
0.00036586696
0.00040767575
0.00045300718
0.00050706277
0.00052377728
0.00020759724
0.00022257137
0.00025036584
0.00028521825
0.00032364525
0.00036397915
0.00040616957
0.00045196088
0.00050648857
0.00052362012
0.00020632941
0.00022105387
0.00024852188
0.00028319289
0.00032166193
0.00036223591
0.00040479566
0.00045100916
0.00050595646
0.00052344561
0.00020498189
0.00021950839
0.00024672642
0.00028128019
0.00031982795
0.00036064949
0.00040355857
0.00045015512
0.00050547532
0.00052326146
0.00020359877
0.00021797239
0.00024500721
0.00027949908
0.00031815487
0.00035922422
0.00040245877
0.00044940276
0.0005050492
0.00052307419
0.00020221576
0.00021647563
0.00024338505
0.0002778619
0.00031664735
0.000357959
0.0004014968
0.00044875189
0.00050467884
0.00052288895
0.00020086133
0.0002150412
0.00024187475
0.00027637486
0.00031530428
0.00035685235
0.00040066942
0.00044819912
0.00050436271
0.00052270969
0.00019955766
0.00021368642
0.00024048531
0.00027503899
0.00031412384
0.00035589937
0.00039997045
0.00044773889
0.00050409792
0.00052253935
0.00019832127
0.00021242299
0.00023922136
0.00027385373
0.00031310104
0.00035509249
0.00039939166
0.00044736431
0.0005038807
0.00052238004
0.00019716378
0.00021125864
0.00023808494
0.00027281573
0.00031222855
0.00035442226
0.00039892355
0.00044706771
0.00050370687
0.00052223318
0.0001960932
0.000210198
0.00023707545
0.00027191937
0.00031149723
0.00035387801
0.00039855588
0.00044684107
0.00050357206
0.00052209959
0.00019511458
0.00020924305
0.00023619004
0.00027115731
0.00031089671
0.00035344829
0.00039827806
0.00044667629
0.00050347184
0.00052197966
0.00019423038
0.0002083935
0.00023542405
0.00027052086
0.00031041577
0.00035312128
0.00039807948
0.00044656539
0.00050340183
0.00052187338
0.00019344091
0.00020764716
0.00023477137
0.00027000038
0.00031004274
0.00035288511
0.00039794975
0.00044650069
0.0005033578
0.00052178042
0.00019274468
0.00020700031
0.00023422479
0.00026958564
0.00030976583
0.00035272815
0.00039787891
0.00044647491
0.00050333574
0.00052170024
0.00019213871
0.00020644799
0.00023377632
0.00026926612
0.00030957339
0.00035263925
0.00039785759
0.00044648136
0.00050333196
0.00052163212
0.00019161888
0.00020598433
0.00023341747
0.00026903128
0.00030945417
0.00035260788
0.00039787719
0.00044651393
0.00050334313
0.00052157524
0.00019118018
0.00020560282
0.00023313955
0.00026887079
0.00030939748
0.00035262432
0.00039792985
0.00044656719
0.00050336629
0.00052152873
0.00019081693
0.00020529652
0.00023293379
0.0002687747
0.00030939332
0.00035267965
0.00039800856
0.00044663634
0.00050339886
0.00052149168
0.00019052305
0.00020505829
0.0002327916
0.00026873355
0.00030943244
0.00035276582
0.00039810707
0.00044671717
0.00050343854
0.00052146316
0.0001902922
0.00020488092
0.00023270464
0.00026873847
0.00030950636
0.00035287557
0.00039821984
0.00044680596
0.0005034833
0.00052144222
0.00019011792
0.00020475725
0.00023266492
0.00026878119
0.00030960739
0.00035300245
0.00039834202
0.00044689948
0.00050353131
0.00052142794
0.00018999375
0.00020468032
0.00023266489
0.00026885413
0.00030972861
0.00035314079
0.0003984694
0.00044699494
0.00050358098
0.00052141941
0.00018991339
0.00020464344
0.00023269753
0.00026895042
0.00030986394
0.00035328569
0.00039859842
0.00044709001
0.00050363097
0.00052141575
0.00018987072
0.00020464028
0.00023275638
0.00026906394
0.00031000807
0.00035343298
0.00039872612
0.0004471828
0.00050368016
0.00052141616
0.00018985996
0.00020466495
0.00023283558
0.00026918929
0.00031015649
0.00035357924
0.00039885014
0.00044727183
0.00050372774
0.00052141991
0.00018987571
0.00020471202
0.00023292991
0.00026932181
0.00031030541
0.0003537217
0.00039896866
0.00044735602
0.00050377305
0.00052142634
0.00018991298
0.00020477658
0.00023303478
0.00026945756
0.00031045173
0.00035385815
0.00039908028
0.00044743457
0.00050381564
0.00052143486
0.00018996722
0.00020485425
0.0002331462
0.00026959319
0.00031059295
0.00035398691
0.00039918397
0.00044750686
0.00050385478
0.0005214449
0.00019003436
0.00020494113
0.00023326074
0.00026972596
0.00031072709
0.00035410672
0.00039927901
0.00044757231
0.00050389002
0.00052145593
0.00019011076
0.00020503383
0.00023337551
0.00026985368
0.00031085268
0.0003542167
0.00039936485
0.00044763059
0.00050392143
0.00052146754
0.00019019322
0.00020512943
0.00023348811
0.00026997459
0.00031096862
0.00035431626
0.00039944118
0.00044768176
0.00050394923
0.00052147939
0.00019027898
0.00020522544
0.00023359662
0.00027008743
0.00031107421
0.00035440504
0.00039950805
0.00044772617
0.00050397359
0.00052149122
0.0001903657
0.00020531983
0.00023369952
0.00027019128
0.00031116899
0.00035448305
0.00039956586
0.00044776419
0.0005039947
0.00052150281
0.00019045144
0.00020541094
0.00023379568
0.00027028551
0.00031125285
0.00035455066
0.00039961511
0.00044779625
0.00050401274
0.00052151396
0.0001905346
0.00020549749
0.00023388426
0.00027036982
0.00031132603
0.00035460838
0.00039965638
0.0004478228
0.00050402792
0.00052152455
0.00019061392
0.00020557844
0.00023396474
0.00027044425
0.00031138896
0.00035465684
0.00039969028
0.00044784432
0.00050404047
0.00052153446
0.0001906884
0.0002056531
0.00023403689
0.00027050904
0.00031144222
0.00035469674
0.00039971747
0.00044786129
0.00050405062
0.00052154361
0.00019075736
0.00020572104
0.00023410071
0.0002705646
0.00031148646
0.0003547288
0.00039973862
0.00044787419
0.00050405858
0.00052155195
0.00019082034
0.00020578205
0.00023415638
0.00027061145
0.0003115224
0.0003547538
0.00039975439
0.0004478835
0.00050406461
0.00052155947
0.00019087713
0.00020583611
0.00023420423
0.00027065021
0.00031155082
0.00035477252
0.00039976544
0.0004478897
0.00050406893
0.00052156617
0.00019092765
0.00020588337
0.00023424469
0.00027068154
0.00031157251
0.00035478571
0.00039977242
0.00044789323
0.00050407179
0.00052157204
0.00019097198
0.00020592406
0.00023427824
0.00027070614
0.00031158822
0.00035479411
0.00039977591
0.0004478945
0.00050407338
0.00052157713
0.00019101032
0.00020595853
0.00023430544
0.00027072472
0.00031159872
0.0003547984
0.00039977647
0.00044789388
0.00050407389
0.00052158146
0.00019104294
0.00020598716
0.00023432686
0.00027073795
0.0003116047
0.0003547992
0.00039977458
0.00044789169
0.00050407347
0.00052158507
0.00019107017
0.00020601041
0.00023434307
0.00027074651
0.00031160684
0.00035479712
0.00039977071
0.00044788824
0.00050407228
0.000521588
0.0001910924
0.00020602873
0.00023435467
0.00027075105
0.00031160577
0.00035479269
0.00039976527
0.00044788381
0.00050407044
0.00052159032
0.00019111006
0.00020604263
0.00023436224
0.00027075221
0.00031160209
0.00035478644
0.00039975866
0.00044787867
0.00050406813
0.00052159208
0.00019112362
0.00020605262
0.00023436635
0.00027075057
0.00031159637
0.00035477885
0.00039975126
0.00044787308
0.0005040655
0.00052159336
0.00019113353
0.00020605922
0.00023436757
0.0002707467
0.00031158912
0.00035477034
0.00039974339
0.00044786727
0.00050406271
0.00052159423
0.00019114028
0.00020606291
0.0002343664
0.00027074111
0.00031158079
0.00035476128
0.00039973533
0.00044786144
0.00050405986
0.00052159476
0.00019114431
0.00020606417
0.00023436334
0.00027073423
0.00031157176
0.00035475197
0.00039972729
0.00044785572
0.00050405705
0.00052159501
0.00019114606
0.00020606342
0.00023435878
0.00027072645
0.00031156234
0.00035474264
0.00039971942
0.00044785018
0.00050405431
0.00052159501
0.0001911459
0.00020606105
0.00023435309
0.00027071807
0.00031155277
0.00035473346
0.00039971182
0.00044784489
0.00050405163
0.0005215948
0.00019114417
0.00020605739
0.00023434657
0.00027070935
0.00031154325
0.00035472455
0.00039970456
0.00044783985
0.00050404904
0.00052159441
0.0001911412
0.00020605273
0.0002343395
0.00027070052
0.00031153396
0.00035471603
0.0003996977
0.00044783511
0.00050404653
0.00052159388
0.00019113728
0.00020604738
0.00023433215
0.00027069181
0.00031152505
0.00035470801
0.0003996913
0.00044783066
0.0005040441
0.00052159324
)
;

boundaryField
{
    water_inlet
    {
        type            turbulentIntensityKineticEnergyInlet;
        intensity       0.05;
        value           uniform 0.000234375;
    }
    water_outlet
    {
        type            inletOutlet;
        inletValue      uniform 0.0001;
        value           nonuniform List<scalar> 10(0.00019113728 0.00020604738 0.00023433215 0.00027069181 0.00031152505 0.00035470801 0.0003996913 0.00044783066 0.0005040441 0.00052159324);
    }
    water_wedge1
    {
        type            wedge;
    }
    water_wedge2
    {
        type            wedge;
    }
    water_to_rock
    {
        type            kqRWallFunction;
        value           nonuniform List<scalar> 
100
(
0.00048657967
0.00057072179
0.00057180213
0.00054812306
0.00052456948
0.00050861036
0.00050003847
0.00049629316
0.00049505644
0.00049493711
0.00049528024
0.000495835
0.00049652603
0.00049733755
0.0004982664
0.00049930721
0.00050044482
0.00050166192
0.00050294678
0.00050428944
0.00050567935
0.00050710505
0.00050855464
0.00051001592
0.00051147617
0.00051292187
0.00051433824
0.00051570903
0.00051701678
0.00051824357
0.00051937231
0.00052038817
0.00052127987
0.00052204068
0.00052266884
0.00052316736
0.00052354345
0.00052380754
0.00052397218
0.00052405104
0.000524058
0.00052400651
0.00052390914
0.00052377728
0.00052362012
0.00052344561
0.00052326146
0.00052307419
0.00052288895
0.00052270969
0.00052253935
0.00052238004
0.00052223318
0.00052209959
0.00052197966
0.00052187338
0.00052178042
0.00052170024
0.00052163212
0.00052157524
0.00052152873
0.00052149168
0.00052146316
0.00052144222
0.00052142794
0.00052141941
0.00052141575
0.00052141616
0.00052141991
0.00052142634
0.00052143486
0.0005214449
0.00052145593
0.00052146754
0.00052147939
0.00052149122
0.00052150281
0.00052151396
0.00052152455
0.00052153446
0.00052154361
0.00052155195
0.00052155947
0.00052156617
0.00052157204
0.00052157713
0.00052158146
0.00052158507
0.000521588
0.00052159032
0.00052159208
0.00052159336
0.00052159423
0.00052159476
0.00052159501
0.00052159501
0.0005215948
0.00052159441
0.00052159388
0.00052159324
)
;
    }
}


// ************************************************************************* //
