/*--------------------------------*- C++ -*----------------------------------*\
| =========                 |                                                 |
| \\      /  F ield         | OpenFOAM: The Open Source CFD Toolbox           |
|  \\    /   O peration     | Version:  2506                                  |
|   \\  /    A nd           | Website:  www.openfoam.com                      |
|    \\/     M anipulation  |                                                 |
\*---------------------------------------------------------------------------*/
FoamFile
{
    version     2.0;
    format      ascii;
    arch        "LSB;label=32;scalar=64";
    class       volScalarField;
    location    "17000/water";
    object      nut;
}
// * * * * * * * * * * * * * * * * * * * * * * * * * * * * * * * * * * * * * //

dimensions      [0 2 -1 0 0 0 0];

internalField   nonuniform List<scalar> 
1000
(
3.8760013e-05
3.8759344e-05
3.875781e-05
3.8749426e-05
3.8703919e-05
3.8465194e-05
3.7257946e-05
3.1920746e-05
1.9133704e-05
1.6330702e-05
3.6503362e-05
3.6502673e-05
3.6496233e-05
3.646333e-05
3.6309099e-05
3.5625575e-05
3.285782e-05
2.4520504e-05
1.467067e-05
1.7686427e-05
3.4818769e-05
3.4815355e-05
3.4798028e-05
3.4720761e-05
3.4400237e-05
3.3155727e-05
2.896648e-05
2.0114765e-05
1.4313186e-05
1.7703159e-05
3.3515366e-05
3.3507685e-05
3.3473492e-05
3.3336595e-05
3.2819803e-05
3.0995876e-05
2.5816283e-05
1.8304775e-05
1.5980599e-05
1.7332727e-05
3.2476791e-05
3.2463573e-05
3.2409014e-05
3.22085e-05
3.1494113e-05
2.912275e-05
2.359843e-05
1.8669153e-05
1.8895331e-05
1.6956228e-05
3.1628598e-05
3.1609534e-05
3.1536362e-05
3.1282475e-05
3.0382827e-05
2.7534902e-05
2.2595908e-05
2.0841327e-05
2.2319125e-05
1.6696306e-05
3.0922115e-05
3.0899107e-05
3.0816967e-05
3.0532913e-05
2.9455174e-05
2.6339891e-05
2.3103869e-05
2.4287903e-05
2.5587521e-05
1.6555016e-05
3.0325437e-05
3.0303992e-05
3.0232571e-05
2.9948395e-05
2.8696032e-05
2.5834148e-05
2.5183979e-05
2.8331446e-05
2.8355898e-05
1.6492899e-05
2.9818405e-05
2.9809191e-05
2.9779258e-05
2.9521751e-05
2.8157785e-05
2.6404707e-05
2.8559651e-05
3.2392537e-05
3.0574032e-05
1.6472333e-05
2.9389962e-05
2.941046e-05
2.9462774e-05
2.9249321e-05
2.8031417e-05
2.8288194e-05
3.2740017e-05
3.6145499e-05
3.2325636e-05
1.6470347e-05
2.9037012e-05
2.9113026e-05
2.9294023e-05
2.9151963e-05
2.8634959e-05
3.1431613e-05
3.7231695e-05
3.9484638e-05
3.3719837e-05
1.6476056e-05
2.8764311e-05
2.8930753e-05
2.9285801e-05
2.9323059e-05
3.0269797e-05
3.5542724e-05
4.1683887e-05
4.2417989e-05
3.4850513e-05
1.6485282e-05
2.858508e-05
2.8885047e-05
2.9456343e-05
2.9966888e-05
3.3062509e-05
4.0234246e-05
4.5911005e-05
4.4991673e-05
3.5787877e-05
1.6496768e-05
2.8522061e-05
2.9003138e-05
2.9849335e-05
3.1360349e-05
3.6919016e-05
4.5157222e-05
4.9841544e-05
4.7257481e-05
3.6581276e-05
1.6510247e-05
2.8608613e-05
2.9316791e-05
3.0571036e-05
3.3736638e-05
4.1587172e-05
5.0067466e-05
5.3462044e-05
4.9262644e-05
3.7264819e-05
1.6525657e-05
2.8889274e-05
2.986603e-05
3.1814528e-05
3.718079e-05
4.6760445e-05
5.4824658e-05
5.6783779e-05
5.1047147e-05
3.7861699e-05
1.6542904e-05
2.9419567e-05
3.0715688e-05
3.3824872e-05
4.1605478e-05
5.2164604e-05
5.9359429e-05
5.9826957e-05
5.2642278e-05
3.8381831e-05
1.6561736e-05
3.0266718e-05
3.1985345e-05
3.6807282e-05
4.679816e-05
5.7598605e-05
6.3641584e-05
6.2613221e-05
5.406871e-05
3.8841563e-05
1.6581862e-05
3.1517087e-05
3.3868649e-05
4.0841953e-05
5.2497305e-05
6.2933624e-05
6.7660624e-05
6.5161199e-05
5.5349638e-05
3.925149e-05
1.6603086e-05
3.329724e-05
3.6603316e-05
4.5857629e-05
5.845887e-05
6.8092625e-05
7.1415811e-05
6.7489278e-05
5.6504363e-05
3.9619301e-05
1.6625238e-05
3.5800004e-05
4.0389451e-05
5.1664084e-05
6.4491097e-05
7.302931e-05
7.4907785e-05
6.9617828e-05
5.7547616e-05
3.9950926e-05
1.6648136e-05
3.9277661e-05
4.5307099e-05
5.8014065e-05
7.0457382e-05
7.7711503e-05
7.8146469e-05
7.1563746e-05
5.849132e-05
4.025072e-05
1.6671588e-05
4.396849e-05
5.1282984e-05
6.4661744e-05
7.6260641e-05
8.2121065e-05
8.1142883e-05
7.3340742e-05
5.9344844e-05
4.0521832e-05
1.6695397e-05
4.9983061e-05
5.8114e-05
7.139569e-05
8.1829475e-05
8.6249204e-05
8.390557e-05
7.4959481e-05
6.0115184e-05
4.0766422e-05
1.6719363e-05
5.7223346e-05
6.5521759e-05
7.8045396e-05
8.7113486e-05
9.0089256e-05
8.6440093e-05
7.6427419e-05
6.0807141e-05
4.0985792e-05
1.6743278e-05
6.538501e-05
7.3207672e-05
8.448401e-05
9.2075074e-05
9.3632871e-05
8.8748539e-05
7.774884e-05
6.1423492e-05
4.1180489e-05
1.6766922e-05
7.4038778e-05
8.0899138e-05
9.0616713e-05
9.6680973e-05
9.6869744e-05
9.0829678e-05
7.8925146e-05
6.196524e-05
4.1350407e-05
1.6790055e-05
8.2740582e-05
8.8365961e-05
9.6366973e-05
0.00010090215
9.9788611e-05
9.2679871e-05
7.9955517e-05
6.2432e-05
4.1494942e-05
1.6812415e-05
9.111715e-05
9.5425933e-05
0.0001016736
0.00010471509
0.00010237926
9.4294697e-05
8.0837999e-05
6.2822626e-05
4.161324e-05
1.6833721e-05
9.8904089e-05
0.00010194569
0.00010649091
0.00010810371
0.00010463493
9.5670973e-05
8.1570914e-05
6.313602e-05
4.1704534e-05
1.6853683e-05
0.00010594474
0.00010783868
0.00011078969
0.00011106097
0.00010655445
9.6808702e-05
8.2154274e-05
6.3371965e-05
4.1768479e-05
1.6872028e-05
0.00011216907
0.00011306044
0.00011455762
0.00011358975
0.00010814351
9.7712458e-05
8.2590904e-05
6.353182e-05
4.1805433e-05
1.6888521e-05
0.00011756815
0.00011760137
0.00011779837
0.00011570258
0.00010941495
9.8391984e-05
8.288705e-05
6.3618917e-05
4.1816608e-05
1.6902985e-05
0.00012217219
0.00012147868
0.00012052955
0.00011742053
0.00011038811
9.8862015e-05
8.3052428e-05
6.363864e-05
4.1804085e-05
1.6915316e-05
0.00012603433
0.00012472847
0.00012277989
0.00011877156
0.00011108763
9.9141496e-05
8.3099811e-05
6.3598224e-05
4.1770723e-05
1.692549e-05
0.00012921972
0.00012739893
0.0001245862
0.00011978858
0.00011154189
9.9252453e-05
8.3044284e-05
6.3506318e-05
4.1719962e-05
1.693356e-05
0.0001317984
0.00012954497
0.00012599036
0.00012050751
0.0001117814
9.9218706e-05
8.2902325e-05
6.3372425e-05
4.1655579e-05
1.6939644e-05
0.00013384087
0.00013122423
0.00012703684
0.00012096554
0.0001118374
9.906462e-05
8.2690844e-05
6.320629e-05
4.1581407e-05
1.6943914e-05
0.00013541532
0.00013249412
0.0001277705
0.00012119961
0.0001117405
9.8814011e-05
8.242633e-05
6.3017339e-05
4.1501092e-05
1.6946575e-05
0.00013658594
0.00013340993
0.00012823504
0.0001212453
0.00011151978
9.8489294e-05
8.2124164e-05
6.2814239e-05
4.1417897e-05
1.6947851e-05
0.00013741203
0.00013402353
0.00012847185
0.00012113596
0.00011120214
9.8110908e-05
8.179817e-05
6.2604615e-05
4.1334598e-05
1.6947966e-05
0.00013794753
0.00013438264
0.00012851931
0.00012090222
0.00011081184
9.7697007e-05
8.1460377e-05
6.2394917e-05
4.1253447e-05
1.6947136e-05
0.00013824096
0.00013453058
0.00012841243
0.00012057178
0.00011037042
9.7263339e-05
8.112095e-05
6.2190409e-05
4.117619e-05
1.6945565e-05
0.00013833556
0.00013450619
0.0001281827
0.00012016928
0.00010989667
9.6823264e-05
8.0788225e-05
6.1995216e-05
4.1104107e-05
1.6943433e-05
0.00013826957
0.00013434397
0.00012785813
0.00011971634
0.00010940663
9.6387801e-05
8.0468711e-05
6.1812143e-05
4.1036976e-05
1.6940891e-05
0.00013807655
0.00013407425
0.00012746329
0.00011923165
0.00010891374
9.5965707e-05
8.0167082e-05
6.1642305e-05
4.097597e-05
1.6938066e-05
0.00013778569
0.00013372349
0.00012701949
0.00011873104
0.00010842887
9.5563503e-05
7.9885936e-05
6.1487831e-05
4.092159e-05
1.6935084e-05
0.00013742219
0.00013331443
0.00012654488
0.0001182276
0.00010796046
9.5185374e-05
7.9628416e-05
6.1349536e-05
4.0874004e-05
1.6932052e-05
0.00013700752
0.00013286645
0.00012605467
0.0001177318
0.00010751441
9.4835591e-05
7.9395958e-05
6.1227619e-05
4.0833115e-05
1.6929053e-05
0.00013655977
0.00013239571
0.0001255611
0.00011725152
0.00010709641
9.4516528e-05
7.9189059e-05
6.1121804e-05
4.0798629e-05
1.6926151e-05
0.00013609383
0.00013191532
0.00012507425
0.0001167941
0.0001067101
9.4229357e-05
7.9007511e-05
6.1031461e-05
4.0770129e-05
1.6923394e-05
0.00013562199
0.00013143648
0.00012460284
0.00011636479
0.00010635779
9.3974336e-05
7.885057e-05
6.0955707e-05
4.0747126e-05
1.6920813e-05
0.00013515467
0.00013096848
0.00012415364
0.00011596731
0.00010604062
9.3750993e-05
7.8717097e-05
6.0893503e-05
4.0729105e-05
1.6918433e-05
0.00013470034
0.00013051875
0.00012373174
0.00011560406
0.00010575884
9.3558284e-05
7.8605657e-05
6.0843703e-05
4.0715536e-05
1.6916268e-05
0.00013426574
0.00013009304
0.00012334079
0.00011527635
0.00010551191
9.3394705e-05
7.8514602e-05
6.0805102e-05
4.0705893e-05
1.6914324e-05
0.00013385602
0.0001296956
0.00012298317
0.0001149845
0.00010529867
9.3258399e-05
7.8442133e-05
6.0776463e-05
4.0699654e-05
1.6912601e-05
0.00013347495
0.00012932935
0.00012266014
0.00011472805
0.00010511744
9.3147249e-05
7.8386367e-05
6.0756547e-05
4.0696313e-05
1.6911095e-05
0.00013312503
0.00012899607
0.00012237206
0.00011450588
0.00010496617
9.3058975e-05
7.8345394e-05
6.0744148e-05
4.0695389e-05
1.6909796e-05
0.00013280769
0.00012869656
0.00012211848
0.00011431634
0.00010484255
9.2991229e-05
7.831734e-05
6.0738121e-05
4.0696441e-05
1.6908693e-05
0.00013252348
0.0001284308
0.00012189837
0.00011415745
0.00010474411
9.2941676e-05
7.8300417e-05
6.0737412e-05
4.0699074e-05
1.6907772e-05
0.00013227219
0.00012819813
0.00012171022
0.00011402696
0.00010466835
9.2908055e-05
7.829296e-05
6.0741069e-05
4.0702947e-05
1.6907017e-05
0.00013205305
0.00012799738
0.00012155218
0.0001139225
0.0001046128
9.2888214e-05
7.8293432e-05
6.0748242e-05
4.0707765e-05
1.6906416e-05
0.0001318648
0.00012782699
0.00012142215
0.0001138416
0.000104575
9.288012e-05
7.8300427e-05
6.0758174e-05
4.0713275e-05
1.6905953e-05
0.00013170584
0.00012768509
0.00012131786
0.00011378175
0.00010455261
9.2881864e-05
7.8312651e-05
6.0770181e-05
4.0719249e-05
1.6905613e-05
0.00013157425
0.00012756955
0.0001212369
0.00011374047
0.00010454333
9.2891658e-05
7.8328922e-05
6.0783647e-05
4.0725483e-05
1.6905382e-05
0.0001314679
0.00012747808
0.00012117679
0.00011371528
0.00010454502
9.290785e-05
7.8348169e-05
6.0798025e-05
4.0731795e-05
1.6905244e-05
0.00013138449
0.0001274083
0.00012113506
0.00011370383
0.00010455566
9.2928941e-05
7.8369446e-05
6.0812842e-05
4.0738034e-05
1.6905186e-05
0.00013132167
0.00012735777
0.00012110926
0.00011370387
0.0001045734
9.2953605e-05
7.8391938e-05
6.0827704e-05
4.0744077e-05
1.6905193e-05
0.00013127706
0.0001273241
0.0001210971
0.00011371335
0.00010459662
9.2980693e-05
7.8414966e-05
6.08423e-05
4.0749838e-05
1.6905254e-05
0.00013124835
0.00012730499
0.00012109638
0.0001137304
0.00010462387
9.300923e-05
7.8437976e-05
6.0856391e-05
4.0755255e-05
1.6905358e-05
0.00013123331
0.00012729827
0.00012110512
0.00011375333
0.00010465388
9.3038394e-05
7.8460522e-05
6.0869795e-05
4.0760291e-05
1.6905496e-05
0.00013122985
0.00012730188
0.00012112146
0.00011378065
0.00010468558
9.3067495e-05
7.8482235e-05
6.088236e-05
4.076487e-05
1.6905659e-05
0.00013123602
0.00012731396
0.00012114375
0.00011381104
0.00010471803
9.3095949e-05
7.8502812e-05
6.0893935e-05
4.076897e-05
1.6905838e-05
0.00013125
0.00012733275
0.00012117048
0.00011384332
0.00010475041
9.3123272e-05
7.8521986e-05
6.0904445e-05
4.077261e-05
1.6906026e-05
0.00013127013
0.00012735669
0.0001212003
0.00011387649
0.00010478205
9.3149056e-05
7.8539587e-05
6.091388e-05
4.0775801e-05
1.6906218e-05
0.00013129489
0.00012738437
0.00012123203
0.00011390967
0.00010481239
9.3173011e-05
7.8555554e-05
6.0922237e-05
4.0778562e-05
1.690641e-05
0.00013132296
0.00012741454
0.00012126467
0.00011394214
0.000104841
9.3194993e-05
7.8569849e-05
6.092954e-05
4.0780917e-05
1.6906598e-05
0.00013135315
0.00012744611
0.00012129732
0.00011397333
0.00010486762
9.3214908e-05
7.8582484e-05
6.0935835e-05
4.0782895e-05
1.6906779e-05
0.00013138443
0.00012747814
0.00012132932
0.00011400285
0.00010489207
9.3232722e-05
7.8593503e-05
6.094118e-05
4.0784526e-05
1.6906951e-05
0.00013141594
0.00012750989
0.00012136012
0.00011403039
0.00010491424
9.3248452e-05
7.8602975e-05
6.0945638e-05
4.0785842e-05
1.6907111e-05
0.00013144699
0.00012754076
0.00012138933
0.00011405576
0.00010493409
9.3262153e-05
7.8610988e-05
6.0949282e-05
4.0786872e-05
1.6907259e-05
0.00013147705
0.0001275703
0.00012141663
0.00011407884
0.00010495164
9.3273915e-05
7.8617644e-05
6.0952185e-05
4.0787648e-05
1.6907394e-05
0.00013150568
0.00012759814
0.00012144182
0.00011409956
0.00010496695
9.3283851e-05
7.8623055e-05
6.0954425e-05
4.0788202e-05
1.6907516e-05
0.00013153257
0.00012762404
0.00012146477
0.00011411794
0.00010498011
9.3292093e-05
7.8627342e-05
6.095608e-05
4.0788565e-05
1.6907624e-05
0.00013155749
0.00012764782
0.00012148543
0.00011413402
0.00010499125
9.3298784e-05
7.8630624e-05
6.0957227e-05
4.0788768e-05
1.690772e-05
0.00013158029
0.00012766938
0.00012150377
0.0001141479
0.0001050005
9.3304065e-05
7.8633016e-05
6.0957934e-05
4.0788836e-05
1.6907802e-05
0.00013160088
0.00012768866
0.00012151984
0.00011415967
0.00010500801
9.3308077e-05
7.8634625e-05
6.0958264e-05
4.078879e-05
1.6907873e-05
0.0001316192
0.00012770566
0.00012153369
0.00011416945
0.00010501392
9.3310952e-05
7.8635549e-05
6.0958268e-05
4.0788646e-05
1.6907933e-05
0.00013163525
0.00012772041
0.00012154541
0.00011417738
0.00010501837
9.3312821e-05
7.8635878e-05
6.0957997e-05
4.0788418e-05
1.6907981e-05
0.00013164907
0.00012773298
0.00012155511
0.0001141836
0.00010502153
9.3313815e-05
7.8635704e-05
6.0957496e-05
4.0788122e-05
1.6908019e-05
0.00013166076
0.00012774347
0.00012156296
0.0001141883
0.00010502355
9.331407e-05
7.8635121e-05
6.0956819e-05
4.0787774e-05
1.6908047e-05
0.00013167044
0.00012775205
0.00012156911
0.00011419166
0.00010502462
9.3313724e-05
7.8634223e-05
6.0956017e-05
4.0787397e-05
1.6908067e-05
0.00013167829
0.00012775889
0.00012157377
0.00011419386
0.0001050249
9.3312912e-05
7.8633103e-05
6.0955142e-05
4.078701e-05
1.6908081e-05
0.0001316845
0.00012776419
0.00012157714
0.0001141951
0.00010502455
9.3311752e-05
7.8631837e-05
6.0954236e-05
4.078663e-05
1.6908089e-05
0.00013168927
0.00012776815
0.00012157939
0.00011419554
0.0001050237
9.3310339e-05
7.8630485e-05
6.0953329e-05
4.0786267e-05
1.6908092e-05
0.00013169278
0.00012777093
0.0001215807
0.00011419531
0.00010502245
9.3308743e-05
7.8629085e-05
6.0952436e-05
4.0785924e-05
1.6908092e-05
0.00013169519
0.0001277727
0.00012158119
0.00011419453
0.00010502089
9.3307012e-05
7.862766e-05
6.0951561e-05
4.0785596e-05
1.6908089e-05
0.00013169664
0.00012777358
0.00012158098
0.00011419328
0.00010501908
9.3305186e-05
7.8626225e-05
6.0950705e-05
4.0785279e-05
1.6908083e-05
0.00013169726
0.0001277737
0.00012158019
0.00011419166
0.00010501709
9.3303306e-05
7.86248e-05
6.0949873e-05
4.0784973e-05
1.6908074e-05
0.00013169718
0.00012777319
0.00012157893
0.00011418977
0.00010501498
9.3301412e-05
7.8623405e-05
6.094907e-05
4.0784674e-05
1.6908063e-05
)
;

boundaryField
{
    water_inlet
    {
        type            calculated;
        value           uniform 4.1926275e-05;
    }
    water_outlet
    {
        type            calculated;
        value           nonuniform List<scalar> 10(0.00013169718 0.00012777319 0.00012157893 0.00011418977 0.00010501498 9.3301412e-05 7.8623405e-05 6.094907e-05 4.0784674e-05 1.6908063e-05);
    }
    water_wedge1
    {
        type            wedge;
    }
    water_wedge2
    {
        type            wedge;
    }
    water_to_rock
    {
        type            nutkWallFunction;
        blending        stepwise;
        value           nonuniform List<scalar> 
100
(
1.7358471e-06
1.9240026e-06
1.9263124e-06
1.8751054e-06
1.8229107e-06
1.7867866e-06
1.7671182e-06
1.7584645e-06
1.7555989e-06
1.7553222e-06
1.7561177e-06
1.7574033e-06
1.7590036e-06
1.7608813e-06
1.7630283e-06
1.7654315e-06
1.7680549e-06
1.7708578e-06
1.7738126e-06
1.7768958e-06
1.7800826e-06
1.7833463e-06
1.7866593e-06
1.7899937e-06
1.7933203e-06
1.7966085e-06
1.7998248e-06
1.8029329e-06
1.8058937e-06
1.8086673e-06
1.811216e-06
1.8135071e-06
1.8155161e-06
1.8172286e-06
1.8186415e-06
1.8197621e-06
1.8206072e-06
1.8212003e-06
1.82157e-06
1.8217471e-06
1.8217627e-06
1.8216471e-06
1.8214285e-06
1.8211324e-06
1.8207794e-06
1.8203874e-06
1.8199736e-06
1.8195528e-06
1.8191364e-06
1.8187334e-06
1.8183503e-06
1.8179921e-06
1.8176617e-06
1.8173612e-06
1.8170913e-06
1.8168522e-06
1.8166429e-06
1.8164625e-06
1.8163091e-06
1.8161811e-06
1.8160764e-06
1.815993e-06
1.8159288e-06
1.8158816e-06
1.8158495e-06
1.8158303e-06
1.815822e-06
1.815823e-06
1.8158314e-06
1.8158459e-06
1.8158651e-06
1.8158877e-06
1.8159125e-06
1.8159386e-06
1.8159653e-06
1.815992e-06
1.816018e-06
1.8160432e-06
1.816067e-06
1.8160893e-06
1.8161099e-06
1.8161287e-06
1.8161456e-06
1.8161607e-06
1.8161739e-06
1.8161854e-06
1.8161951e-06
1.8162032e-06
1.8162098e-06
1.816215e-06
1.816219e-06
1.8162219e-06
1.8162238e-06
1.816225e-06
1.8162256e-06
1.8162256e-06
1.8162251e-06
1.8162243e-06
1.8162231e-06
1.8162216e-06
)
;
    }
}


// ************************************************************************* //
