/*--------------------------------*- C++ -*----------------------------------*\
| =========                 |                                                 |
| \\      /  F ield         | OpenFOAM: The Open Source CFD Toolbox           |
|  \\    /   O peration     | Version:  2506                                  |
|   \\  /    A nd           | Website:  www.openfoam.com                      |
|    \\/     M anipulation  |                                                 |
\*---------------------------------------------------------------------------*/
FoamFile
{
    version     2.0;
    format      ascii;
    arch        "LSB;label=32;scalar=64";
    class       volVectorField;
    location    "17000/water";
    object      U;
}
// * * * * * * * * * * * * * * * * * * * * * * * * * * * * * * * * * * * * * //

dimensions      [0 1 -1 0 0 0 0];

internalField   nonuniform List<vector> 
1000
(
(0.25225587 -0.00012859767 3.1138566e-18)
(0.25226258 -0.00027067836 7.7402412e-19)
(0.25227485 -0.0004145054 1.5857817e-18)
(0.25228819 -0.00055572716 2.5935633e-19)
(0.25229018 -0.0006857579 3.3559164e-19)
(0.25223998 -0.00079863172 8.974103e-20)
(0.25200713 -0.00089615194 -1.4049002e-19)
(0.25115686 -0.0010460356 -2.742323e-19)
(0.24780473 -0.0012820719 -1.2248184e-19)
(0.23308261 0.0010121611 -3.3133626e-19)
(0.25653043 -7.7330455e-05 2.2404019e-18)
(0.25653977 -0.00018903831 9.2446117e-19)
(0.25655871 -0.00029096537 2.1336544e-18)
(0.25657276 -0.00039024487 2.9867948e-19)
(0.25654377 -0.00048175039 2.1581662e-19)
(0.25636039 -0.00055898442 1.4448842e-19)
(0.25570613 -0.00060536497 -2.4452557e-19)
(0.25355952 -0.00065441364 -3.6711951e-19)
(0.24574266 -0.00084724774 -2.1304428e-19)
(0.21968686 0.00025718803 -4.4698349e-19)
(0.26021787 -7.390999e-05 -1.1810557e-19)
(0.26022468 -0.00018059834 -3.015845e-19)
(0.26023383 -0.00027741911 1.0191297e-18)
(0.26021807 -0.00037159741 3.5838242e-19)
(0.26010153 -0.00045735772 -1.7418429e-19)
(0.25968006 -0.00053044597 -2.1719875e-19)
(0.25840621 -0.00057093093 -2.6647244e-19)
(0.25452353 -0.00056554734 -3.9141587e-19)
(0.24186464 -0.00061987638 -3.7482022e-19)
(0.20839343 1.1252523e-05 -4.3362512e-19)
(0.26340526 -6.8945994e-05 -6.8284269e-20)
(0.26340956 -0.0001705851 2.5207242e-19)
(0.26340596 -0.00026279229 7.8827342e-19)
(0.2633478 -0.00035138367 5.650139e-19)
(0.26310913 -0.00042951138 -5.9935382e-20)
(0.26237282 -0.00049394991 -4.050382e-19)
(0.26030373 -0.00052750974 -3.0752693e-19)
(0.25430847 -0.00049289868 -4.1464586e-19)
(0.23723183 -0.00045934159 -3.739719e-19)
(0.19958842 -4.8875479e-05 -3.9352707e-19)
(0.26641628 -6.4388947e-05 -1.4961739e-18)
(0.26641555 -0.00015946871 1.2031793e-18)
(0.266392 -0.00024539854 9.4418574e-19)
(0.26627267 -0.00032748762 4.3333169e-19)
(0.26586988 -0.00039791746 7.1815508e-20)
(0.26472853 -0.00045250627 1.6930714e-19)
(0.26164542 -0.00047360872 -8.2402661e-20)
(0.25321248 -0.00041483804 -3.8244668e-19)
(0.23271016 -0.00033459271 -4.3995695e-19)
(0.19329512 -5.0632287e-05 -3.2691157e-19)
(0.26927573 -6.0867501e-05 -3.6338614e-19)
(0.26926716 -0.00015024322 7.2370906e-19)
(0.2692148 -0.00023070435 9.9050321e-19)
(0.26901237 -0.00030702727 2.8222089e-19)
(0.26839647 -0.00037049995 -7.4282229e-20)
(0.26673517 -0.00041493252 2.0259868e-19)
(0.26236788 -0.00041871898 -5.0527215e-20)
(0.25136278 -0.00033835136 -2.6979387e-19)
(0.22869804 -0.00023663017 -2.3751166e-19)
(0.1890213 -3.9495067e-05 -2.4696543e-19)
(0.27197991 -5.8057528e-05 2.3980592e-18)
(0.27196006 -0.00014287132 1.7491013e-18)
(0.27186829 -0.0002189483 -5.7195287e-20)
(0.2715565 -0.00029030348 8.7529601e-20)
(0.27066607 -0.00034728991 -7.0814651e-20)
(0.26833151 -0.00038068301 -1.4634468e-19)
(0.26239847 -0.00036437324 -2.6750112e-19)
(0.2490264 -0.0002685259 -1.8197184e-19)
(0.22536102 -0.0001627281 -1.4480042e-20)
(0.18616826 -2.8774763e-05 -2.5439602e-19)
(0.27455816 -5.5861829e-05 2.4398906e-19)
(0.2745228 -0.00013703208 1.4862071e-18)
(0.27437848 -0.00020952014 3.1459121e-20)
(0.27392442 -0.00027640502 2.3558254e-19)
(0.27267856 -0.00032682098 2.590637e-19)
(0.26947685 -0.00034738446 6.2483794e-20)
(0.26178466 -0.00031092705 -8.1833128e-20)
(0.24657382 -0.00020816885 -2.9813116e-19)
(0.2227152 -0.00011050082 -2.3573829e-19)
(0.18425835 -2.0836226e-05 -2.049808e-19)
(0.27704027 -5.4085724e-05 5.4142875e-19)
(0.27698407 -0.00013225436 7.4568276e-19)
(0.27677058 -0.00020162574 1.0663646e-18)
(0.2761317 -0.00026417294 6.3879669e-19)
(0.27442312 -0.00030720596 2.3381486e-19)
(0.27014172 -0.00031294788 1.3677624e-20)
(0.26068999 -0.000259258 2.3649962e-21)
(0.24429834 -0.00015836443 -1.5176278e-19)
(0.22067581 -7.5408328e-05 1.3382492e-21)
(0.18296194 -1.515285e-05 -8.0627666e-20)
(0.2794434 -5.2555739e-05 3.54954e-18)
(0.27935955 -0.00012814133 2.2265815e-18)
(0.27905543 -0.00019460752 5.0882639e-19)
(0.27817575 -0.00025259243 6.6180072e-19)
(0.27586797 -0.00028673465 1.9040396e-19)
(0.27032643 -0.0002765922 9.3021343e-20)
(0.25933501 -0.0002109404 -4.5376843e-20)
(0.24234215 -0.00011891224 5.5369491e-21)
(0.21912381 -5.2172022e-05 -3.5049892e-20)
(0.18206595 -1.0945527e-05 -1.5895655e-19)
(0.28177654 -5.1166657e-05 1.0579299e-18)
(0.28165619 -0.00012441971 2.5391275e-19)
(0.2812333 -0.000187973 -1.8400712e-19)
(0.28003902 -0.00024077463 8.7211513e-19)
(0.27697398 -0.00026417652 2.2923156e-19)
(0.27008762 -0.00023880404 2.0080246e-19)
(0.25792267 -0.00016762314 -2.2945976e-20)
(0.24073179 -8.8481366e-05 -1.4731185e-19)
(0.2179502 -3.6445889e-05 -3.3286218e-19)
(0.18143933 -7.6993904e-06 -2.0084285e-19)
(0.28404476 -4.9854754e-05 8.8220804e-19)
(0.28387625 -0.0001208942 8.7021316e-20)
(0.2832974 -0.0001813291 1.7745999e-19)
(0.28169345 -0.00022787714 5.6701505e-19)
(0.27771472 -0.00023897378 -7.9156747e-20)
(0.26953508 -0.0002008753 -8.1500712e-20)
(0.25659137 -0.00013036486 -1.6197578e-19)
(0.2394378 -6.5171214e-05 -2.7672976e-19)
(0.21706901 -2.5325485e-05 -3.2015527e-19)
(0.18100322 -5.1221768e-06 -2.4599e-19)
(0.28625048 -4.8572092e-05 8.889707e-19)
(0.28601827 -0.00011740093 6.1840341e-19)
(0.28523427 -0.00017430193 1.6227332e-19)
(0.28310494 -0.00021314196 3.7242018e-19)
(0.27809437 -0.00021129059 1.7898891e-21)
(0.26879939 -0.00016439806 -2.5251051e-19)
(0.25541091 -9.9329301e-05 -2.9675008e-19)
(0.238414 -4.7155758e-05 -2.183085e-19)
(0.21641538 -1.7078991e-05 -2.6966065e-19)
(0.18070893 -3.0437721e-06 -2.344301e-19)
(0.28839354 -4.7270964e-05 5.2092832e-19)
(0.28807682 -0.00011377577 1.0240439e-18)
(0.28702342 -0.00016645987 1.4414397e-19)
(0.28424077 -0.00019602611 3.3785343e-19)
(0.27815547 -0.0001818855 1.8371657e-19)
(0.26799597 -0.00013078995 -2.5269436e-20)
(0.25440306 -7.3937425e-05 -3.452845e-19)
(0.23761477 -3.3004109e-05 -1.2999834e-19)
(0.21594075 -1.0716094e-05 -2.8920781e-19)
(0.1805245 -1.3529611e-06 -3.1805402e-19)
(0.29047097 -4.5891445e-05 1.8387645e-18)
(0.29004195 -0.00010982909 2.8283157e-18)
(0.28863779 -0.00015729311 7.7741716e-19)
(0.28508023 -0.00017633872 -2.0449387e-19)
(0.27797081 -0.00015188752 -3.9217112e-20)
(0.26720624 -0.0001009472 3.1069687e-19)
(0.25356401 -5.3259317e-05 3.3214268e-20)
(0.23700054 -2.169902e-05 -8.6901577e-20)
(0.21560862 -5.6596825e-06 -1.6448074e-19)
(0.18042759 3.3954595e-08 -1.359096e-19)
(0.29247637 -4.4351498e-05 1.780713e-18)
(0.29189831 -0.00010531332 3.8217537e-19)
(0.29004631 -0.00014628207 3.7152475e-19)
(0.28562471 -0.00015430673 4.6418596e-19)
(0.27762408 -0.0001225398 1.5503965e-19)
(0.26647732 -7.5148381e-05 1.6188688e-19)
(0.25287923 -3.6358382e-05 1.1483535e-19)
(0.23653862 -1.2544861e-05 -1.7381227e-19)
(0.2153911 -1.5278052e-06 -7.9207039e-20)
(0.18040201 1.2058682e-06 7.50988e-20)
(0.294399 -4.2542592e-05 8.2086882e-19)
(0.2936244 -9.9894478e-05 8.7769541e-19)
(0.29121911 -0.00013303036 2.556123e-19)
(0.28590174 -0.00013054553 6.5263261e-19)
(0.27719085 -9.4944221e-05 2.0076216e-19)
(0.26583134 -5.3198402e-05 -1.1805825e-19)
(0.25233096 -2.2452917e-05 -1.8579325e-20)
(0.23620235 -5.0205366e-06 -1.4409412e-19)
(0.21526448 1.8973555e-06 -1.9793744e-19)
(0.18043768 2.1937413e-06 -1.8207979e-19)
(0.29622247 -4.0322184e-05 3.2489994e-19)
(0.29519259 -9.3155226e-05 6.5624799e-19)
(0.29213505 -0.000117393 3.0799255e-19)
(0.2859599 -0.00010594347 6.2719636e-19)
(0.27672821 -6.9857001e-05 6.6620417e-19)
(0.26527516 -3.4648986e-05 3.3296838e-19)
(0.2519011 -1.0910487e-05 2.4672743e-19)
(0.23596806 1.232021e-06 1.741559e-20)
(0.2152169 4.7058992e-06 -9.2889075e-20)
(0.1805221 2.988562e-06 -9.3971361e-20)
(0.29792334 -3.7501188e-05 1.3954606e-18)
(0.29657068 -8.4660221e-05 1.0020373e-18)
(0.29278919 -9.9552003e-05 2.4880089e-19)
(0.28585702 -8.1495893e-05 4.9544688e-19)
(0.27627357 -4.761882e-05 9.0752678e-19)
(0.26480713 -1.8983262e-05 4.2302568e-19)
(0.25157193 -1.2533187e-06 -1.741404e-19)
(0.23582161 6.4209664e-06 -1.4200154e-19)
(0.21523436 6.9891538e-06 -4.0158503e-22)
(0.18064612 3.6201124e-06 -1.5418549e-19)
(0.29946981 -3.3841492e-05 -1.8268791e-19)
(0.29772603 -7.4080007e-05 1.5532954e-18)
(0.2931963 -8.0019506e-05 1.7542358e-19)
(0.28564803 -5.8125534e-05 -1.0938575e-18)
(0.2758486 -2.822469e-05 -2.4199669e-19)
(0.26442119 -5.6897704e-06 -7.7095697e-19)
(0.25132936 6.8566099e-06 -4.8076711e-19)
(0.23575038 1.0705052e-05 -1.4411911e-19)
(0.21530525 8.8450589e-06 -2.444579e-20)
(0.18080246 4.1232028e-06 -4.33877e-20)
(0.30082182 -2.9094764e-05 -1.9162132e-19)
(0.29863174 -6.1332082e-05 9.1995369e-19)
(0.29338822 -5.9567083e-05 -6.7335686e-19)
(0.28537718 -3.6522513e-05 -1.2400966e-18)
(0.27546382 -1.1417148e-05 -7.9616324e-19)
(0.26410764 5.6163001e-06 -6.3983106e-19)
(0.2511654 1.3623033e-05 -4.2563964e-19)
(0.23574182 1.4219375e-05 -1.4588503e-19)
(0.21542013 1.0354725e-05 -1.2090465e-19)
(0.18098523 4.5260784e-06 8.3902923e-20)
(0.30193372 -2.3108811e-05 2.5916517e-18)
(0.29927336 -4.6684953e-05 1.1679438e-18)
(0.29340603 -3.9092153e-05 -2.6814695e-19)
(0.28507547 -1.7048368e-05 6.9444046e-19)
(0.27512088 3.0828581e-06 6.6834492e-19)
(0.26386444 1.5139164e-05 3.5711561e-19)
(0.25106782 1.9208758e-05 -1.4718166e-19)
(0.2357854 1.7093898e-05 -2.1833515e-19)
(0.2155712 1.158044e-05 -2.0379016e-19)
(0.18118949 4.8476163e-06 -1.0328437e-19)
(0.30276109 -1.5977276e-05 -9.4802841e-19)
(0.29965287 -3.07739e-05 -7.8542069e-19)
(0.29329057 -1.9437411e-05 -3.2895252e-19)
(0.28476122 1.6635457e-07 -1.8335848e-19)
(0.27482457 1.5439211e-05 5.2991018e-19)
(0.26368339 2.3070021e-05 4.1744013e-20)
(0.25102649 2.3801058e-05 2.6497051e-19)
(0.2358724 1.9433374e-05 8.8388131e-20)
(0.21575199 1.2564506e-05 1.9232346e-20)
(0.18141106 5.0990142e-06 8.0777682e-20)
(0.30327134 -8.12842e-06 -1.6162431e-18)
(0.29978735 -1.4487193e-05 5.7520799e-19)
(0.2930748 -1.3068876e-06 -6.7393339e-19)
(0.2844492 1.5037967e-05 -1.0426167e-18)
(0.27457434 2.5802569e-05 -9.6856743e-19)
(0.26355616 2.9612367e-05 -1.0791996e-21)
(0.25103262 2.7543617e-05 -8.1684558e-20)
(0.23599542 2.1310585e-05 3.0442157e-20)
(0.21595695 1.3335651e-05 1.5948e-20)
(0.18164626 5.2874868e-06 7.1787533e-20)
(0.303454 -2.4276581e-07 -1.4533186e-18)
(0.29970266 1.1320303e-06 9.4146741e-19)
(0.29278641 1.466124e-05 -4.9700056e-19)
(0.28414896 2.7524795e-05 -1.2465349e-18)
(0.27436562 3.4335944e-05 -9.9438785e-19)
(0.26347497 3.4929274e-05 -2.8780734e-19)
(0.25107851 3.0535594e-05 4.0978551e-20)
(0.23614809 2.27738e-05 5.3438679e-20)
(0.21618126 1.3912384e-05 1.1091712e-20)
(0.18189176 5.4172463e-06 4.0819243e-20)
(0.30332518 6.8810184e-06 -1.9929127e-18)
(0.29943299 1.4984768e-05 -1.612052e-18)
(0.29244692 2.799388e-05 -1.4414606e-18)
(0.28386234 3.7676788e-05 -2.0365844e-18)
(0.27419304 4.1187432e-05 -1.2372876e-18)
(0.26343258 3.9128278e-05 -9.1728651e-19)
(0.2511573 3.2836386e-05 -6.8578818e-20)
(0.23632474 2.384932e-05 1.4013716e-19)
(0.21642054 1.4302803e-05 1.6671431e-19)
(0.1821444 5.4890814e-06 1.4957419e-19)
(0.30293056 1.2607549e-05 2.8738383e-18)
(0.29901535 2.6253789e-05 -1.4801393e-18)
(0.29206926 3.8509043e-05 -1.3293724e-18)
(0.28358878 4.5591164e-05 2.4078092e-19)
(0.27405097 4.6453513e-05 4.6406309e-19)
(0.26342221 4.2268412e-05 -2.4974776e-19)
(0.25126272 3.4473537e-05 -3.0463197e-19)
(0.23652015 2.4544605e-05 -9.1124487e-20)
(0.21667063 1.4505374e-05 4.3450713e-20)
(0.18240103 5.5004885e-06 1.7679664e-20)
(0.30233166 1.6687151e-05 7.6727258e-19)
(0.29848534 3.4602619e-05 4.7238909e-19)
(0.29166294 4.6233568e-05 -2.0669023e-19)
(0.28332653 5.136267e-05 3.0196182e-19)
(0.27393382 5.0197588e-05 5.659771e-19)
(0.26343755 4.438076e-05 -2.1454034e-19)
(0.25138895 3.5454652e-05 -2.2685174e-19)
(0.23672934 2.4854753e-05 -2.20551e-19)
(0.21692738 1.4512258e-05 -3.19971e-20)
(0.18265836 5.4469053e-06 3.135771e-20)
(0.30159321 1.9183039e-05 2.0654434e-18)
(0.29787656 4.0086322e-05 3.8765557e-18)
(0.29123634 5.1329653e-05 3.0455808e-19)
(0.28307383 5.5105723e-05 -2.1053604e-19)
(0.27383648 5.2480749e-05 -4.6026639e-19)
(0.26347281 4.5489387e-05 -4.0041706e-19)
(0.25153053 3.5781139e-05 -4.4889537e-19)
(0.23694751 2.477134e-05 -2.2106585e-19)
(0.2171866 1.4314269e-05 -1.545252e-19)
(0.18291288 5.3235896e-06 -7.36041e-20)
(0.30077398 2.0344595e-05 5.4591294e-19)
(0.29721988 4.3031362e-05 1.5804528e-18)
(0.29079784 5.4065383e-05 6.4981364e-20)
(0.28282959 5.6977236e-05 -3.0375208e-19)
(0.27375458 5.3384793e-05 -4.2249027e-19)
(0.26352281 4.5629596e-05 -4.1648178e-19)
(0.25168238 3.5461956e-05 -2.9595836e-19)
(0.23716994 2.429171e-05 -1.2748196e-19)
(0.21744404 1.3906137e-05 -1.5058881e-19)
(0.18316093 5.1275183e-06 -1.2355645e-19)
(0.29992211 2.048404e-05 -4.6527481e-18)
(0.29654252 4.3899821e-05 -3.2602576e-18)
(0.29035619 5.4781875e-05 -1.0321474e-18)
(0.2825938 5.7183118e-05 -2.0842855e-18)
(0.27368472 5.3025504e-05 -1.1685462e-18)
(0.26358306 4.4861419e-05 -3.53422e-19)
(0.25183985 3.452482e-05 4.958273e-20)
(0.23739214 2.3426941e-05 -7.4628744e-20)
(0.21769548 1.3291281e-05 -8.2425589e-20)
(0.18339884 4.8592233e-06 3.0765515e-20)
(0.29907411 1.9896578e-05 2.3736176e-18)
(0.29586736 4.3179321e-05 -1.234548e-18)
(0.28992014 5.3855238e-05 -9.6011711e-19)
(0.28236746 5.596956e-05 5.06906e-19)
(0.27362453 5.1554627e-05 1.0425728e-18)
(0.26364988 4.3275106e-05 9.7476953e-19)
(0.25199881 3.302182e-05 3.9691714e-19)
(0.23760994 2.220611e-05 -1.9649241e-21)
(0.21793693 1.2484396e-05 -5.0613509e-20)
(0.1836231 4.5237521e-06 -2.1301181e-20)
(0.29825603 1.8825699e-05 4.0874162e-19)
(0.29521253 4.1315589e-05 4.1584395e-19)
(0.2894979 5.1660855e-05 2.8406286e-19)
(0.28215231 5.3605391e-05 1.1633326e-18)
(0.27357253 4.91527e-05 9.2207973e-19)
(0.26372034 4.0989014e-05 7.5977165e-19)
(0.25215573 3.102929e-05 3.3495661e-19)
(0.23781962 2.0676664e-05 1.710766e-19)
(0.21816477 1.151183e-05 1.0748191e-19)
(0.1838306 4.1308569e-06 6.3422302e-20)
(0.29748533 1.7457259e-05 1.5469937e-18)
(0.29459157 3.8682332e-05 2.9182976e-18)
(0.28909662 4.8546135e-05 8.1962909e-19)
(0.28195049 5.0361981e-05 -3.1212408e-20)
(0.27352796 4.6016325e-05 -1.0857479e-18)
(0.26379222 3.8141639e-05 -5.01746e-19)
(0.25230769 2.8642649e-05 -2.2915899e-19)
(0.23801803 1.890102e-05 3.5559577e-21)
(0.21837597 1.0409519e-05 7.5666575e-20)
(0.18401882 3.694159e-06 -1.8713775e-20)
(0.29677284 1.5926761e-05 2.2191777e-18)
(0.29401388 3.5575648e-05 1.5869041e-18)
(0.28872203 4.4814213e-05 1.3821959e-19)
(0.28176409 4.6495932e-05 7.0820482e-20)
(0.27349053 4.2344141e-05 -7.2383577e-19)
(0.26386387 3.4880918e-05 -5.7370299e-19)
(0.25245241 2.5968398e-05 -3.5299954e-19)
(0.23820266 1.6950854e-05 -1.5522381e-19)
(0.21856819 9.2194172e-06 -7.4581095e-20)
(0.18418598 3.229663e-06 -6.2175736e-20)
(0.29612443 1.4330235e-05 -4.0725357e-18)
(0.29348534 3.2221073e-05 -1.753681e-18)
(0.2883783 4.0717443e-05 -1.6397951e-19)
(0.28159488 4.2236972e-05 -9.7266509e-19)
(0.27346016 3.8324551e-05 -5.3123447e-19)
(0.26393413 3.1353511e-05 -7.5709368e-19)
(0.25258815 2.3115434e-05 -2.2796182e-19)
(0.23837166 1.4900676e-05 -1.5327857e-19)
(0.21873987 7.9854525e-06 -1.4429699e-19)
(0.1843311 2.754122e-06 3.7490818e-22)
(0.29554243 1.2734239e-05 4.1587253e-18)
(0.29300901 2.8785123e-05 8.0492234e-19)
(0.28806805 3.6457656e-05 4.4527769e-19)
(0.28144413 3.7781188e-05 6.3877691e-19)
(0.27343685 3.4126558e-05 1.456842e-18)
(0.26400215 2.7695665e-05 5.1938555e-19)
(0.2527137 2.0187065e-05 2.5586707e-19)
(0.23852383 1.282169e-05 1.6453988e-20)
(0.21889019 6.7495141e-06 2.6297457e-20)
(0.18445399 2.2833366e-06 -9.9136532e-20)
(0.29502659 1.1183986e-05 2.2437021e-18)
(0.29258572 2.5387476e-05 2.0986767e-19)
(0.28779254 3.219071e-05 -6.557526e-20)
(0.28131251 3.3289054e-05 -3.7462855e-20)
(0.2734205 2.9894538e-05 5.2035842e-19)
(0.26406733 2.4027041e-05 4.186044e-19)
(0.25282826 1.7275277e-05 2.7561132e-19)
(0.23865858 1.0777329e-05 2.3865634e-19)
(0.21901906 5.5486726e-06 1.8907204e-19)
(0.18455517 1.8311362e-06 5.0603027e-20)
(0.2945749 9.7092351e-06 1.3170781e-18)
(0.29221468 2.2111507e-05 2.6802602e-18)
(0.28755186 2.8032669e-05 7.0697452e-19)
(0.2812001 2.8886505e-05 2.4323289e-19)
(0.27341088 2.5746007e-05 -7.791007e-19)
(0.2641292 2.0447068e-05 -1.6268564e-19)
(0.25293145 1.4456944e-05 -3.6002358e-19)
(0.23877585 8.8201683e-06 -2.8502503e-20)
(0.21912698 4.4131003e-06 -3.9005245e-20)
(0.18463574 1.4085128e-06 -2.4504198e-20)
(0.29418417 8.3287582e-06 4.8793493e-18)
(0.29189388 1.9013211e-05 3.8921995e-18)
(0.28734514 2.4066736e-05 2.2170617e-18)
(0.28110648 2.4668351e-05 2.9072439e-18)
(0.27340759 2.1772284e-05 1.9867061e-18)
(0.26418743 1.7034138e-05 1.5972363e-18)
(0.25302315 1.1792581e-05 5.7412866e-19)
(0.238876 6.9908986e-06 9.9152744e-20)
(0.21921497 3.3655411e-06 -9.0589653e-20)
(0.18469724 1.0235563e-06 -1.3782999e-19)
(0.29385043 7.0533724e-06 1.4353056e-18)
(0.29162049 1.6127991e-05 1.3231858e-18)
(0.28717084 2.034955e-05 4.9720587e-18)
(0.28103076 2.0702372e-05 3.1452394e-18)
(0.27341009 1.8040462e-05 2.4476183e-18)
(0.26424175 1.3846239e-05 1.9563317e-18)
(0.25310352 9.326369e-06 1.3270306e-18)
(0.23895979 5.3182148e-06 5.6114511e-19)
(0.21928442 2.4211609e-06 3.9876475e-19)
(0.18474153 6.813283e-07 1.7588912e-19)
(0.29356929 5.8883044e-06 2.3906567e-18)
(0.29139114 1.3476143e-05 3.0020196e-18)
(0.28702685 1.691699e-05 4.5346228e-18)
(0.28097174 1.7033976e-05 3.2126283e-18)
(0.27341769 1.4596626e-05 2.6247792e-18)
(0.26429198 1.0923118e-05 1.5727277e-18)
(0.25317293 7.0877091e-06 1.1993683e-18)
(0.23902822 3.8200278e-06 9.4820684e-19)
(0.21933697 1.588479e-06 6.2222677e-19)
(0.18477061 3.8432718e-07 3.1300298e-19)
(0.29333612 4.8347775e-06 2.5477705e-18)
(0.29120216 1.1066897e-05 3.3510189e-18)
(0.28691077 1.3788968e-05 3.4013276e-18)
(0.28092795 1.3690526e-05 4.8685333e-18)
(0.27342966 1.1469288e-05 3.8509335e-18)
(0.26433797 8.2889389e-06 2.3327328e-18)
(0.25323189 5.0933249e-06 1.7540654e-18)
(0.23908249 2.5051311e-06 1.252473e-18)
(0.21937443 8.7054691e-07 8.3178791e-19)
(0.18478657 1.3294377e-07 5.2772256e-19)
(0.29314626 3.8912219e-06 1.2261881e-18)
(0.29104971 8.9014851e-06 1.994354e-18)
(0.28681997 1.0973278e-05 3.0210644e-18)
(0.28089779 1.0685086e-05 4.1182167e-18)
(0.27344519 8.6725618e-06 3.7081766e-18)
(0.26437964 5.95482e-06 2.7489597e-18)
(0.25328102 3.3490991e-06 2.0396566e-18)
(0.23912393 1.3742907e-06 1.3908082e-18)
(0.21939867 2.7115328e-07 1.0506222e-18)
(0.18479148 -7.0020964e-08 7.0801977e-19)
(0.29299509 3.0539101e-06 -8.6357857e-21)
(0.29092995 6.9749448e-06 1.4494548e-18)
(0.28675172 8.4679676e-06 2.6985759e-19)
(0.28087959 8.0187242e-06 1.0128195e-18)
(0.27346347 6.2080019e-06 2.4673395e-18)
(0.26441699 3.9202388e-06 1.9425869e-18)
(0.25332107 1.8519959e-06 1.6403264e-18)
(0.23915392 4.2732546e-07 1.3358245e-18)
(0.21941124 -2.1463311e-07 9.5219156e-19)
(0.1847877 -2.2870297e-07 6.6094937e-19)
(0.29287816 2.3177236e-06 7.4790234e-19)
(0.2908391 5.2780769e-06 1.4625057e-18)
(0.28670332 6.2641239e-06 2.4575915e-18)
(0.28087166 5.6837001e-06 1.3613945e-18)
(0.27348373 4.0680139e-06 9.8226915e-19)
(0.26445002 2.1772527e-06 1.8497104e-18)
(0.25335273 5.9750991e-07 1.6032328e-18)
(0.23917354 -3.4463971e-07 1.3306601e-18)
(0.2194146 -6.0503309e-07 1.1738783e-18)
(0.18477678 -3.5416291e-07 7.552268e-19)
(0.29279125 1.6766967e-06 7.0599075e-19)
(0.29077354 3.7990006e-06 1.9545146e-18)
(0.28667213 4.3482678e-06 2.2174928e-18)
(0.28087238 3.666564e-06 2.4551074e-18)
(0.27350524 2.2399735e-06 1.7430718e-18)
(0.26447877 7.1676277e-07 1.9931519e-18)
(0.25337657 -4.2873026e-07 1.7745848e-18)
(0.23918481 -9.6465081e-07 1.3723314e-18)
(0.21941032 -9.1383117e-07 1.1797533e-18)
(0.18476021 -4.511905e-07 8.1341977e-19)
(0.29273035 1.1244271e-06 1.441817e-18)
(0.29072983 2.5241903e-06 2.0759955e-18)
(0.28665564 2.7040323e-06 2.5499861e-18)
(0.28088016 1.9509179e-06 3.8712876e-18)
(0.27352725 7.1058653e-07 3.1839925e-18)
(0.26450317 -4.8010399e-07 1.9846258e-18)
(0.25339398 -1.2546788e-06 1.825972e-18)
(0.239189 -1.4521612e-06 1.5818327e-18)
(0.21939987 -1.1476816e-06 1.2970355e-18)
(0.18473938 -5.214475e-07 1.055795e-18)
(0.29269177 6.5429312e-07 2.543913e-18)
(0.29070477 1.4394446e-06 2.1128375e-18)
(0.28665145 1.3147577e-06 2.7947924e-18)
(0.2808935 5.2077892e-07 2.3435883e-18)
(0.27354904 -5.4277966e-07 2.7915253e-18)
(0.26452389 -1.4449636e-06 1.9892406e-18)
(0.25340574 -1.9048189e-06 1.8136711e-18)
(0.23918726 -1.8202707e-06 1.6443957e-18)
(0.21938459 -1.3136046e-06 1.3612332e-18)
(0.18471553 -5.6741839e-07 1.1522103e-18)
(0.29267206 2.6014396e-07 1.0520621e-18)
(0.29069533 5.3165369e-07 1.9358834e-18)
(0.28665729 1.6302172e-07 4.3224867e-19)
(0.28091098 -6.4952928e-07 1.8389652e-19)
(0.27357051 -1.5538733e-06 1.5602642e-18)
(0.26454116 -2.2056271e-06 1.6001548e-18)
(0.25341261 -2.3971372e-06 1.5558111e-18)
(0.2391807 -2.0818544e-06 1.52712e-18)
(0.21936568 -1.4199743e-06 1.1357767e-18)
(0.18468975 -5.9229221e-07 9.524004e-19)
(0.29266802 -6.4540747e-08 7.735991e-19)
(0.29069873 -2.1509355e-07 1.3203102e-18)
(0.28667116 -7.7641071e-07 2.5199027e-18)
(0.28093168 -1.5928841e-06 1.1622676e-18)
(0.27359126 -2.3513635e-06 1.8859541e-19)
(0.26455523 -2.7833114e-06 1.7213636e-18)
(0.25341529 -2.7492138e-06 1.5993149e-18)
(0.23917031 -2.2506387e-06 1.6126963e-18)
(0.21934421 -1.4755877e-06 1.4368701e-18)
(0.18466296 -5.9944655e-07 1.0527651e-18)
(0.29267679 -3.2777738e-07 1.9581637e-18)
(0.29071252 -8.2002118e-07 1.7513415e-18)
(0.2866914 -1.5300053e-06 1.9200104e-18)
(0.28095462 -2.3347122e-06 1.8105116e-18)
(0.27361098 -2.9574002e-06 1.5718414e-18)
(0.26456634 -3.1986624e-06 1.8703468e-18)
(0.25341447 -2.9790977e-06 1.8050715e-18)
(0.23915699 -2.3402393e-06 1.6497894e-18)
(0.2193211 -1.4888677e-06 1.5520979e-18)
(0.18463593 -5.9210005e-07 1.225473e-18)
(0.29269587 -5.3697906e-07 2.4232595e-18)
(0.29073458 -1.2995887e-06 3.0820552e-18)
(0.28671647 -2.1178981e-06 2.445568e-18)
(0.2809789 -2.8964938e-06 1.9252718e-18)
(0.27362943 -3.3939354e-06 1.8241383e-18)
(0.26457477 -3.4724835e-06 1.9641231e-18)
(0.25341076 -3.1044265e-06 1.7800529e-18)
(0.23914154 -2.3635727e-06 1.6071406e-18)
(0.21929715 -1.4676429e-06 1.4904014e-18)
(0.18460929 -5.7324944e-07 1.2488663e-18)
(0.29272303 -6.9806766e-07 2.1337168e-18)
(0.29076299 -1.6675179e-06 1.8473209e-18)
(0.28674499 -2.5584395e-06 1.6890126e-18)
(0.28100379 -3.2992726e-06 1.7471345e-18)
(0.27364643 -3.6826111e-06 6.9081051e-19)
(0.26458081 -3.6248514e-06 1.4381424e-18)
(0.25340475 -3.1418466e-06 1.5032432e-18)
(0.23912467 -2.3325758e-06 1.3214578e-18)
(0.21927302 -1.4189865e-06 1.4149546e-18)
(0.18458355 -5.4556753e-07 1.2264928e-18)
(0.29275629 -8.1668257e-07 -3.9046955e-19)
(0.29079605 -1.9368656e-06 1.2052842e-18)
(0.28677576 -2.8694118e-06 3.1769229e-18)
(0.28102865 -3.5635235e-06 2.5694013e-18)
(0.27366188 -3.8442538e-06 2.3379815e-18)
(0.26458474 -3.6747917e-06 5.4446367e-19)
(0.25339697 -3.1068669e-06 1.1492117e-18)
(0.23910699 -2.2581614e-06 1.3172939e-18)
(0.21924925 -1.3492344e-06 1.1891418e-18)
(0.18455908 -5.1141202e-07 1.1251247e-18)
(0.2927939 -8.9815541e-07 7.8573932e-19)
(0.29083227 -2.1200614e-06 3.4075326e-18)
(0.28680777 -3.0678472e-06 5.140595e-18)
(0.28105296 -3.7087887e-06 2.6132614e-18)
(0.2736757 -3.8985304e-06 2.2407613e-18)
(0.26458683 -3.6400099e-06 1.9105565e-18)
(0.25338789 -3.0136684e-06 1.4800376e-18)
(0.239089 -2.1501053e-06 1.5195476e-18)
(0.21922628 -1.2639275e-06 1.3883014e-18)
(0.18453618 -4.7278624e-07 1.1612596e-18)
(0.29283436 -9.4751781e-07 3.43911e-18)
(0.29087037 -2.228876e-06 2.1527147e-18)
(0.28684014 -3.169885e-06 6.652711e-19)
(0.28107632 -3.7534734e-06 2.1705845e-18)
(0.2736879 -3.8637624e-06 2.2326591e-18)
(0.26458737 -3.5367613e-06 2.4780351e-18)
(0.25337792 -2.8750454e-06 1.7407584e-18)
(0.23907114 -2.0170585e-06 1.6047921e-18)
(0.21920443 -1.1678731e-06 1.4982387e-18)
(0.18451503 -4.3138273e-07 1.1939637e-18)
(0.29287635 -9.694758e-07 1.8918298e-18)
(0.29090926 -2.2743352e-06 1.35668e-18)
(0.28687215 -3.1906067e-06 1.2548518e-18)
(0.28109841 -3.7146431e-06 1.7396948e-18)
(0.27369851 -3.7567266e-06 1.9396592e-18)
(0.26458661 -3.3796944e-06 2.0186447e-18)
(0.25336743 -2.7023136e-06 1.8718149e-18)
(0.23905375 -1.8665178e-06 1.6455423e-18)
(0.21918396 -1.0651493e-06 1.4981211e-18)
(0.18449575 -3.8859666e-07 1.1830563e-18)
(0.29291879 -9.6839331e-07 -7.9033717e-19)
(0.29094803 -2.2666648e-06 2.2758039e-18)
(0.28690321 -3.1439374e-06 1.1075586e-18)
(0.28111901 -3.6079123e-06 1.3352367e-18)
(0.27370758 -3.5925686e-06 8.1988039e-19)
(0.2645848 -3.1818067e-06 1.2956182e-18)
(0.25335672 -2.5053148e-06 1.6374262e-18)
(0.2390371 -1.704865e-06 1.5422049e-18)
(0.21916504 -9.5915575e-07 1.3965966e-18)
(0.1844784 -3.4556703e-07 1.1637351e-18)
(0.29296074 -9.4828515e-07 -3.2215965e-19)
(0.29098591 -2.2152595e-06 3.3490208e-18)
(0.28693288 -3.0425901e-06 4.1783601e-18)
(0.28113795 -3.4473856e-06 2.7864328e-18)
(0.2737152 -3.3847707e-06 2.1444213e-18)
(0.26458215 -2.9544657e-06 6.3184325e-19)
(0.25334605 -2.2924836e-06 1.2258414e-18)
(0.23902141 -1.5374481e-06 1.5287789e-18)
(0.21914777 -8.52677e-07 1.3207331e-18)
(0.18446297 -3.0321732e-07 1.1895225e-18)
(0.29300147 -9.1281959e-07 2.3084129e-18)
(0.29102232 -2.128685e-06 3.1259833e-18)
(0.28696078 -2.8980707e-06 5.8296614e-18)
(0.28115514 -3.2456877e-06 3.3654028e-18)
(0.27372147 -3.1452229e-06 2.3129103e-18)
(0.26457888 -2.7075161e-06 2.1826237e-18)
(0.25333564 -2.0709746e-06 1.7933144e-18)
(0.23900682 -1.3687004e-06 1.5046646e-18)
(0.21913221 -7.4796572e-07 1.5260042e-18)
(0.18444944 -2.6229523e-07 1.2053461e-18)
(0.29304036 -8.6532383e-07 3.06553e-18)
(0.29105678 -2.0146922e-06 1.0976386e-18)
(0.28698668 -2.7207095e-06 -8.3905285e-19)
(0.28117054 -3.0140207e-06 1.4762153e-18)
(0.27372649 -2.8843184e-06 1.9241849e-18)
(0.26457516 -2.4494116e-06 2.6584122e-18)
(0.25332565 -1.8468053e-06 1.9349408e-18)
(0.23899343 -1.2022597e-06 1.5950016e-18)
(0.21911838 -6.4680948e-07 1.3883226e-18)
(0.18443774 -2.2338266e-07 1.1410843e-18)
(0.29307697 -8.0880132e-07 1.2083494e-18)
(0.29108893 -1.8802533e-06 6.1115021e-19)
(0.28701039 -2.5197194e-06 -1.9963296e-20)
(0.28118415 -2.7622581e-06 8.7454502e-19)
(0.2737304 -2.6110807e-06 1.2740226e-18)
(0.26457114 -2.1873609e-06 1.8139353e-18)
(0.25331621 -1.6250001e-06 1.9141681e-18)
(0.23898131 -1.041091e-06 1.9170763e-18)
(0.21910624 -5.506222e-07 1.676698e-18)
(0.18442779 -1.8692988e-07 1.3151484e-18)
(0.29311096 -7.4592313e-07 1.1356509e-18)
(0.29111854 -1.7315627e-06 1.4030493e-18)
(0.28703183 -2.3032188e-06 1.5336157e-18)
(0.28119601 -2.4989894e-06 1.3177959e-18)
(0.2737333 -2.3332297e-06 6.3203486e-19)
(0.26456697 -1.9274061e-06 1.3567529e-18)
(0.25330742 -1.4096664e-06 1.9396141e-18)
(0.23897048 -8.8753386e-07 1.8059411e-18)
(0.21909575 -4.6045653e-07 1.6742432e-18)
(0.18441946 -1.5323981e-07 1.384172e-18)
(0.2931421 -6.7904759e-07 2.0649682e-18)
(0.29114546 -1.5740726e-06 1.5941101e-18)
(0.28705095 -2.078283e-06 2.5205279e-18)
(0.28120619 -2.2315929e-06 1.8303386e-18)
(0.27373532 -2.057275e-06 2.5288923e-18)
(0.26456275 -1.6745277e-06 1.5534264e-18)
(0.25329934 -1.2040919e-06 1.7665101e-18)
(0.23896092 -7.4339054e-07 1.5843459e-18)
(0.21908682 -3.7707904e-07 1.3918147e-18)
(0.18441265 -1.2249903e-07 1.3087164e-18)
(0.29317027 -6.1020746e-07 6.7684471e-19)
(0.2911696 -1.4124781e-06 1.6316304e-18)
(0.28706779 -1.8509409e-06 3.3869414e-18)
(0.28121479 -1.9662473e-06 2.2243796e-18)
(0.27373657 -1.7885375e-06 2.4125141e-18)
(0.26455858 -1.4326634e-06 2.4049914e-18)
(0.25329201 -1.0107582e-06 1.9982749e-18)
(0.23895261 -6.0993109e-07 1.904577e-18)
(0.21907935 -3.0097048e-07 1.7913238e-18)
(0.18440723 -9.4783361e-08 1.4389989e-18)
(0.29319542 -5.4112828e-07 -4.7191104e-19)
(0.29119099 -1.250751e-06 1.3804861e-18)
(0.2870824 -1.626221e-06 -3.9041433e-19)
(0.2812219 -1.7079944e-06 1.8680347e-18)
(0.27373718 -1.5312264e-06 2.2760306e-18)
(0.26455454 -1.2047952e-06 2.2722607e-18)
(0.25328545 -8.3142538e-07 1.9357731e-18)
(0.23894549 -4.879593e-07 1.9939543e-18)
(0.21907324 -2.3237137e-07 1.8099649e-18)
(0.18440304 -7.0092595e-08 1.4879175e-18)
(0.29321757 -4.7323387e-07 -2.387314e-19)
(0.29120965 -1.0921605e-06 1.0302356e-18)
(0.28709488 -1.4081938e-06 5.7956442e-19)
(0.28122766 -1.4608025e-06 1.4309655e-18)
(0.27373723 -1.288517e-06 2.1657389e-18)
(0.2645507 -9.9302884e-07 2.0350249e-18)
(0.25327966 -6.6719977e-07 1.8834853e-18)
(0.2389395 -3.77863e-07 1.7576505e-18)
(0.21906836 -1.7130883e-07 1.7312561e-18)
(0.18439995 -4.8368063e-08 1.4075502e-18)
(0.2932368 -4.0767608e-07 2.4521481e-18)
(0.29122571 -9.3933541e-07 1.5040667e-18)
(0.28710536 -1.2000611e-06 9.0112866e-19)
(0.28123218 -1.2276864e-06 1.1576146e-18)
(0.27373684 -1.0626916e-06 6.2547231e-19)
(0.26454709 -7.9873563e-07 1.6682557e-18)
(0.25327461 -5.1865633e-07 1.6836446e-18)
(0.23893455 -2.7970601e-07 1.5424304e-18)
(0.21906459 -1.17651e-07 1.51704e-18)
(0.18439783 -2.9514617e-08 1.2923164e-18)
(0.29325324 -3.4535827e-07 2.1016934e-18)
(0.29123929 -7.9432442e-07 3.0562813e-18)
(0.28711397 -1.0042511e-06 3.416807e-18)
(0.2812356 -1.0108247e-06 2.5025521e-18)
(0.27373609 -8.552637e-07 2.0815671e-18)
(0.26454376 -6.2266916e-07 1.2771381e-18)
(0.25327029 -3.8593651e-07 1.4536949e-18)
(0.23893056 -1.9328698e-07 1.5333685e-18)
(0.21906182 -7.1130747e-08 1.3049281e-18)
(0.18439655 -1.3402025e-08 1.1964788e-18)