/*--------------------------------*- C++ -*----------------------------------*\
| =========                 |                                                 |
| \\      /  F ield         | OpenFOAM: The Open Source CFD Toolbox           |
|  \\    /   O peration     | Version:  2506                                  |
|   \\  /    A nd           | Website:  www.openfoam.com                      |
|    \\/     M anipulation  |                                                 |
\*---------------------------------------------------------------------------*/
FoamFile
{
    version     2.0;
    format      ascii;
    arch        "LSB;label=32;scalar=64";
    class       volScalarField;
    location    "30000/water";
    object      alphat;
}
// * * * * * * * * * * * * * * * * * * * * * * * * * * * * * * * * * * * * * //

dimensions      [1 -1 -1 0 0 0 0];

internalField   nonuniform List<scalar> 
1000
(
0.038690245
0.038689577
0.038688046
0.038679677
0.038634252
0.038395956
0.037190881
0.031863289
0.019099264
0.016301307
0.036437656
0.036436968
0.036430539
0.036397696
0.036243742
0.035561449
0.032798676
0.024476369
0.014644265
0.017654592
0.034756095
0.034752688
0.034735392
0.034658264
0.034338316
0.033096046
0.028914336
0.020078549
0.014287413
0.017671293
0.033455039
0.033447371
0.03341324
0.03327659
0.032760726
0.030940074
0.025769768
0.01827174
0.015951765
0.017301527
0.032418332
0.032405139
0.032350678
0.032150526
0.031437425
0.029070305
0.023555839
0.018635379
0.018861206
0.016925705
0.031571667
0.031552637
0.031479598
0.031226173
0.03032815
0.027485318
0.022555123
0.020803679
0.022278892
0.016666251
0.030866455
0.030843489
0.030761501
0.030477972
0.029402198
0.026292517
0.023062278
0.024244182
0.025541496
0.016525218
0.030270851
0.030249448
0.030178163
0.02989453
0.02864449
0.025787809
0.025138787
0.028280546
0.028304928
0.016463215
0.029764733
0.029755539
0.029725677
0.029468698
0.028107324
0.02635748
0.028508468
0.032334345
0.030519064
0.016442688
0.029337062
0.029357529
0.02940978
0.029196825
0.027981306
0.028237647
0.032681291
0.036080515
0.032267492
0.016440705
0.028984748
0.029060634
0.029241352
0.029099704
0.028583799
0.031375326
0.037164757
0.039413558
0.033659133
0.016446402
0.028712537
0.028878688
0.029233152
0.029270493
0.030215581
0.035478827
0.041608765
0.042341522
0.034787707
0.016455607
0.028533623
0.028833055
0.029403368
0.029913083
0.033003077
0.040161722
0.04582818
0.044910522
0.035723354
0.01646707
0.028470707
0.028950915
0.029795615
0.031303957
0.036852559
0.045075829
0.049751698
0.047172315
0.036515373
0.016480525
0.02855709
0.029263985
0.030516014
0.033676009
0.041512408
0.049977383
0.053365837
0.049174001
0.037197777
0.016495911
0.028837233
0.029812237
0.031757348
0.037114116
0.046676535
0.054726166
0.056681722
0.050955388
0.03779364
0.016513131
0.029366563
0.030660399
0.033764196
0.041530968
0.052071033
0.059252804
0.059719426
0.052547634
0.038312816
0.016531929
0.030212182
0.031927801
0.036741291
0.046714278
0.057495162
0.063527148
0.06250057
0.053971402
0.03877165
0.016552017
0.031460262
0.033807678
0.040768611
0.052402996
0.0628204
0.067538801
0.065043832
0.055249925
0.039180776
0.0165732
0.0332371
0.036537281
0.045775073
0.058353633
0.067969963
0.07128712
0.067367645
0.056402522
0.0395479
0.016595309
0.03573517
0.040316416
0.05157092
0.06437489
0.072897705
0.074772787
0.069492361
0.057443906
0.039878941
0.016618165
0.039206383
0.045225121
0.057909457
0.070330464
0.077571527
0.078005707
0.07143484
0.058385965
0.040178229
0.016641576
0.043888773
0.051190375
0.064545341
0.076123443
0.081973309
0.08099687
0.073208757
0.05923804
0.040448904
0.016665345
0.049892869
0.058009459
0.071267476
0.081682504
0.086094241
0.083754778
0.07482474
0.060007109
0.040693119
0.016689271
0.057120796
0.065404364
0.077905529
0.086957252
0.089927593
0.086284921
0.076290185
0.060697931
0.04091216
0.016713147
0.065268498
0.073076817
0.084332734
0.091910029
0.093464925
0.08858929
0.077609294
0.061313227
0.041106541
0.016736751
0.073907093
0.080754517
0.090454323
0.09650753
0.09669586
0.090666583
0.078783405
0.061853948
0.041276129
0.016759843
0.082593078
0.088207611
0.09619388
0.10072076
0.099609156
0.092513172
0.079811701
0.062319713
0.041420318
0.01678216
0.090953877
0.095254292
0.10149043
0.10452637
0.10219472
0.094124737
0.080692315
0.062709435
0.041538289
0.016803421
0.098725824
0.10176162
0.10629854
0.10790845
0.10444598
0.095498249
0.081423687
0.063022102
0.041629321
0.01682334
0.10575287
0.10764343
0.11058923
0.11086016
0.10636188
0.096633823
0.082005921
0.063257565
0.041693109
0.016841647
0.11196537
0.11285547
0.11435029
0.11338441
0.10794816
0.097536049
0.082441852
0.063417191
0.04173002
0.01685811
0.11735448
0.11738819
0.11758536
0.11549366
0.10921756
0.098214583
0.082737655
0.063504263
0.041741243
0.01687255
0.1219503
0.12125869
0.12031188
0.11720881
0.11018925
0.098684011
0.082902931
0.063524093
0.041728822
0.016884864
0.12580572
0.12450286
0.1225584
0.11855762
0.11088769
0.098963141
0.082950351
0.063483842
0.041695578
0.016895024
0.12898559
0.12716865
0.12436154
0.11957286
0.11134115
0.099073908
0.082894934
0.063392118
0.041644928
0.016903082
0.13155972
0.12931083
0.1257631
0.12029038
0.11158011
0.099040105
0.082753143
0.063258414
0.041580641
0.016909155
0.13359845
0.13098692
0.12680748
0.12074735
0.11163578
0.098886112
0.082541904
0.063092487
0.041506557
0.016913415
0.13516987
0.13225429
0.12753955
0.12098073
0.11153882
0.098635762
0.082277723
0.06290378
0.041426333
0.016916069
0.13633816
0.13316819
0.12800299
0.1210261
0.1113183
0.098311473
0.081975986
0.062700966
0.041343242
0.01691734
0.13716256
0.13378046
0.12823916
0.12091677
0.11100109
0.097933665
0.081650502
0.062491666
0.041260061
0.016917452
0.13769697
0.13413878
0.12828641
0.12068336
0.11061142
0.097520457
0.081313279
0.062282318
0.04117904
0.016916623
0.13798987
0.13428643
0.12817969
0.1203535
0.1101708
0.097087564
0.080974457
0.062078174
0.041101921
0.016915053
0.13808445
0.13426219
0.12795046
0.11995179
0.10969795
0.096648325
0.080642362
0.061883354
0.041029981
0.016912926
0.13801889
0.13410051
0.12762667
0.11949982
0.10920892
0.096213741
0.080323493
0.06170066
0.040963002
0.016910389
0.13782667
0.13383166
0.12723284
0.11901624
0.1087171
0.095792546
0.080022512
0.061531204
0.040902152
0.016907572
0.13753692
0.133482
0.1267902
0.1185168
0.10823331
0.095391227
0.079741993
0.061377095
0.040847918
0.016904599
0.13717468
0.13307419
0.12631681
0.11801454
0.10776593
0.095013913
0.079485035
0.061239112
0.040800452
0.016901575
0.13676133
0.13262748
0.1258278
0.11751982
0.10732081
0.094664836
0.079253036
0.061117434
0.040759646
0.016898584
0.13631486
0.13215795
0.12533535
0.11704053
0.1069036
0.094346348
0.07904649
0.061011787
0.040725209
0.016895687
0.1358501
0.13167869
0.1248495
0.11658397
0.10651798
0.094059656
0.078865221
0.060921566
0.040696737
0.016892933
0.13537935
0.13120087
0.12437902
0.11615546
0.10616629
0.093805069
0.078708536
0.060845927
0.040673765
0.016890357
0.13491302
0.13073385
0.12393071
0.11575874
0.10584973
0.093582158
0.078575328
0.060783853
0.040655789
0.016887981
0.13445962
0.13028505
0.12350968
0.11539624
0.10556854
0.093389879
0.078464159
0.060734196
0.040642276
0.016885821
0.13402588
0.12986021
0.12311954
0.11506923
0.10532217
0.093226692
0.078373347
0.060695721
0.040632681
0.016883881
0.13361693
0.12946353
0.12276263
0.11477798
0.10510938
0.093090687
0.078301049
0.060667157
0.040626463
0.016882163
0.13323647
0.12909791
0.12244017
0.11452199
0.10492847
0.09297972
0.07824536
0.060647251
0.040623108
0.016880659
0.13288699
0.12876508
0.12215249
0.11430012
0.10477739
0.092891528
0.078204388
0.060634814
0.040622147
0.016879361
0.13256994
0.12846588
0.1218992
0.1141108
0.10465389
0.092823817
0.078176312
0.060628741
0.040623161
0.016878258
0.13228591
0.12820035
0.12167932
0.11395209
0.10455556
0.092774314
0.078159393
0.060628014
0.040625777
0.016877336
0.13203479
0.12796789
0.12149141
0.11382181
0.10447996
0.092740787
0.078151987
0.060631695
0.04062966
0.016876583
0.13181583
0.12776738
0.12133363
0.11371758
0.10442458
0.09272107
0.07815254
0.060638918
0.040634506
0.016875984
0.1316278
0.12759724
0.12120386
0.1136369
0.10438695
0.092713084
0.078159599
0.060648889
0.040640037
0.016875524
0.13146904
0.12745556
0.12109978
0.11357722
0.10436465
0.09271487
0.078171835
0.060660893
0.040646008
0.016875186
0.13133761
0.12734018
0.12101895
0.113536
0.10435538
0.092724626
0.078188051
0.060674311
0.040652213
0.016874955
0.13123136
0.12724879
0.12095888
0.11351079
0.10435699
0.092740722
0.078207203
0.060688615
0.040658484
0.016874816
0.13114798
0.12717903
0.12091712
0.11349927
0.10436753
0.092761705
0.078228385
0.060703363
0.040664688
0.016874756
0.13108516
0.12712848
0.12089129
0.11349924
0.1043852
0.09278629
0.078250815
0.060718188
0.040670716
0.016874763
0.13104054
0.1270948
0.12087909
0.11350868
0.10440837
0.092813341
0.078273822
0.06073278
0.040676483
0.016874824
0.13101183
0.12707569
0.12087837
0.11352571
0.10443559
0.092841862
0.078296829
0.060746879
0.040681914
0.016874929
0.13099679
0.12706895
0.12088708
0.1135486
0.10446557
0.092870995
0.078319356
0.060760279
0.040686955
0.016875068
0.13099329
0.12707252
0.12090336
0.11357585
0.10449719
0.092900025
0.078341018
0.060772814
0.040691524
0.01687523
0.13099935
0.12708448
0.12092553
0.11360611
0.10452951
0.092928371
0.078361512
0.060784337
0.040695599
0.016875408
0.13101315
0.12710311
0.12095209
0.11363823
0.10456174
0.092955572
0.078380595
0.060794789
0.040699209
0.016875595
0.13103306
0.12712685
0.12098172
0.11367123
0.10459325
0.092981252
0.078398125
0.060804179
0.040702377
0.016875786
0.13105758
0.12715431
0.12101328
0.11370427
0.10462349
0.093005142
0.078414053
0.060812515
0.040705129
0.016875977
0.13108542
0.12718429
0.12104578
0.11373665
0.10465204
0.093027096
0.078428341
0.060819822
0.04070749
0.016876164
0.1311154
0.12721569
0.12107832
0.11376777
0.10467862
0.093046999
0.078440981
0.06082613
0.040709479
0.016876345
0.13114647
0.12724755
0.12111019
0.1137972
0.10470302
0.093064789
0.078451995
0.060831481
0.04071112
0.016876517
0.13117775
0.1272791
0.12114084
0.11382463
0.10472511
0.093080459
0.078461433
0.060835926
0.040712433
0.016876678
0.13120854
0.12730974
0.12116984
0.11384983
0.10474482
0.093094059
0.07846938
0.060839533
0.040713447
0.016876825
0.13123829
0.12733899
0.12119689
0.11387269
0.1047622
0.093105689
0.078475944
0.060842381
0.040714196
0.016876959
0.13126659
0.12736652
0.12122181
0.11389318
0.10477732
0.093115484
0.078481259
0.06084456
0.040714718
0.016877078
0.13129319
0.12739213
0.12124451
0.11391135
0.10479032
0.093123605
0.078485462
0.060846163
0.040715052
0.016877184
0.13131789
0.12741569
0.12126498
0.11392728
0.10480134
0.093130212
0.078488688
0.060847274
0.040715234
0.016877278
0.13134061
0.12743715
0.12128323
0.11394108
0.10481053
0.093135455
0.078491056
0.060847966
0.04071529
0.01687736
0.13136128
0.12745647
0.12129931
0.11395285
0.10481804
0.093139471
0.078492669
0.060848297
0.040715243
0.01687743
0.13137986
0.12747365
0.12131328
0.11396271
0.104824
0.093142382
0.078493616
0.060848316
0.040715106
0.01687749
0.13139634
0.12748872
0.12132521
0.11397078
0.10482855
0.093144308
0.078493981
0.060848067
0.040714891
0.016877539
0.13141076
0.12750174
0.12133521
0.1139772
0.10483182
0.093145373
0.078493851
0.060847595
0.040714611
0.016877578
0.13142315
0.12751278
0.12134341
0.11398212
0.10483398
0.09314571
0.078493317
0.060846947
0.040714282
0.016877608
0.13143364
0.12752197
0.12134998
0.11398573
0.1048352
0.093145457
0.078492474
0.060846179
0.040713924
0.01687763
0.13144235
0.12752949
0.12135508
0.11398821
0.10483565
0.093144749
0.078491415
0.060845338
0.040713556
0.016877645
0.13144945
0.12753549
0.12135892
0.11398975
0.10483549
0.093143707
0.078490218
0.06084447
0.040713194
0.016877654
0.1314551
0.12754015
0.12136166
0.11399051
0.10483485
0.093142425
0.078488943
0.060843604
0.040712851
0.01687766
0.13145945
0.12754362
0.12136344
0.1139906
0.10483382
0.093140972
0.078487629
0.060842757
0.040712529
0.016877661
0.13146263
0.12754602
0.12136439
0.11399014
0.10483249
0.093139393
0.078486298
0.060841935
0.040712228
0.01687766
0.13146473
0.12754747
0.1213646
0.1139892
0.10483089
0.093137719
0.078484962
0.060841137
0.040711942
0.016877656
0.13146585
0.12754804
0.12136416
0.11398785
0.1048291
0.093135979
0.078483631
0.060840363
0.040711667
0.016877649
0.13146608
0.12754784
0.12136314
0.11398615
0.10482715
0.093134203
0.07848232
0.060839616
0.040711402
0.01687764
)
;

boundaryField
{
    water_inlet
    {
        type            calculated;
        value           uniform 0.041850807;
    }
    water_outlet
    {
        type            calculated;
        value           nonuniform List<scalar> 10(0.13146608 0.12754784 0.12136314 0.11398615 0.10482715 0.093134203 0.07848232 0.060839616 0.040711402 0.01687764);
    }
    water_wedge1
    {
        type            wedge;
    }
    water_wedge2
    {
        type            wedge;
    }
    water_to_rock
    {
        type            compressible::alphatWallFunction;
        value           nonuniform List<scalar> 
100
(
0.0020384971
0.0022594581
0.0022621707
0.0022020355
0.0021407408
0.0020983185
0.0020752209
0.0020650585
0.0020616933
0.0020613682
0.0020623023
0.0020638118
0.0020656911
0.0020678962
0.0020704177
0.00207324
0.0020763208
0.0020796122
0.002083082
0.0020867026
0.002090445
0.0020942778
0.0020981688
0.0021020848
0.0021059917
0.0021098532
0.00211363
0.0021172794
0.0021207558
0.0021240126
0.0021270056
0.0021296965
0.0021320562
0.0021340677
0.0021357271
0.0021370431
0.0021380353
0.0021387317
0.0021391657
0.0021393735
0.0021393918
0.002139256
0.0021389992
0.0021386516
0.0021382373
0.0021377772
0.0021372916
0.0021367976
0.0021363086
0.0021358353
0.0021353853
0.0021349645
0.0021345766
0.0021342238
0.002133907
0.0021336261
0.0021333803
0.0021331681
0.0021329879
0.0021328374
0.0021327146
0.0021326168
0.0021325415
0.0021324862
0.0021324483
0.0021324256
0.0021324159
0.002132417
0.0021324269
0.002132444
0.0021324665
0.002132493
0.002132522
0.0021325526
0.0021325839
0.0021326151
0.0021326458
0.0021326753
0.0021327033
0.0021327294
0.0021327535
0.0021327754
0.0021327952
0.0021328128
0.0021328283
0.0021328419
0.0021328535
0.0021328632
0.0021328711
0.0021328775
0.0021328823
0.0021328859
0.0021328884
0.0021328901
0.0021328909
0.0021328911
0.0021328906
0.0021328897
0.0021328883
0.0021328866
)
;
    }
}


// ************************************************************************* //
