/*--------------------------------*- C++ -*----------------------------------*\
| =========                 |                                                 |
| \\      /  F ield         | OpenFOAM: The Open Source CFD Toolbox           |
|  \\    /   O peration     | Version:  2506                                  |
|   \\  /    A nd           | Website:  www.openfoam.com                      |
|    \\/     M anipulation  |                                                 |
\*---------------------------------------------------------------------------*/
FoamFile
{
    version     2.0;
    format      ascii;
    arch        "LSB;label=32;scalar=64";
    class       volScalarField;
    location    "30000/water";
    object      epsilon;
}
// * * * * * * * * * * * * * * * * * * * * * * * * * * * * * * * * * * * * * //

dimensions      [0 2 -3 0 0 0 0];

internalField   nonuniform List<scalar> 
1000
(
7.2399316e-05
7.2397808e-05
7.2397502e-05
7.2398682e-05
7.2424146e-05
7.2686938e-05
7.4736184e-05
8.8973294e-05
0.00019794853
0.0013048048
4.7739543e-05
4.7745807e-05
4.7746167e-05
4.7748745e-05
4.7810065e-05
4.8371228e-05
5.2145894e-05
7.5319307e-05
0.00023607333
0.0016574915
3.3261229e-05
3.326441e-05
3.3263962e-05
3.3272039e-05
3.3396639e-05
3.4348943e-05
3.9973154e-05
7.1502147e-05
0.00026549999
0.0016622
2.4212884e-05
2.4213778e-05
2.421353e-05
2.4236018e-05
2.446883e-05
2.5979979e-05
3.4086806e-05
7.6375873e-05
0.00030233811
0.001560026
1.8263229e-05
1.8263302e-05
1.8265922e-05
1.8318446e-05
1.8730726e-05
2.1090755e-05
3.2935831e-05
9.0424331e-05
0.00035053848
0.0014605604
1.4183053e-05
1.4183388e-05
1.4193787e-05
1.4301413e-05
1.5003319e-05
1.867817e-05
3.6168093e-05
0.00011337749
0.00040230489
0.0013944175
1.1285033e-05
1.1287109e-05
1.1313191e-05
1.1514086e-05
1.2672044e-05
1.8360611e-05
4.3854037e-05
0.00014255041
0.00044702234
0.0013593147
9.1651308e-06
9.1712237e-06
9.2251466e-06
9.5765143e-06
1.1437655e-05
2.0107152e-05
5.5828157e-05
0.00017322875
0.00047957539
0.0013440715
7.5754962e-06
7.5890767e-06
7.6892445e-06
8.2760994e-06
1.1198195e-05
2.4041181e-05
7.1187058e-05
0.00020099074
0.00050080756
0.0013390508
6.3585386e-06
6.3848725e-06
6.5589448e-06
7.5064164e-06
1.1984498e-05
3.0236067e-05
8.8277476e-05
0.00022355938
0.00051393034
0.0013385666
5.4111025e-06
5.4581714e-06
5.7474928e-06
7.2369219e-06
1.3906642e-05
3.8515411e-05
0.00010524326
0.0002407832
0.00052197903
0.0013399585
4.6642398e-06
4.7441301e-06
5.2100518e-06
7.4969367e-06
1.7086973e-05
4.8355575e-05
0.00012068257
0.00025359567
0.00052708084
0.0013422102
4.071468e-06
4.2024404e-06
4.9349803e-06
8.3622535e-06
2.157543e-05
5.8975534e-05
0.00013393077
0.00026313435
0.00053055294
0.001345017
3.6019038e-06
3.8114137e-06
4.9402436e-06
9.9350986e-06
2.7272173e-05
6.9567088e-05
0.00014492637
0.00027035438
0.00053316272
0.0013483156
3.2363936e-06
3.5653614e-06
5.2715508e-06
1.2311428e-05
3.3901638e-05
7.9510688e-05
0.00015392449
0.00027595627
0.00053534066
0.0013520947
2.9656648e-06
3.4742255e-06
5.9984089e-06
1.5537475e-05
4.1062693e-05
8.8460998e-05
0.00016127364
0.00028042543
0.00053731668
0.0013563337
2.7900141e-06
3.5645569e-06
7.2040725e-06
1.9569955e-05
4.8330052e-05
9.6307074e-05
0.00016730388
0.00028408932
0.00053917792
0.001360972
2.7202671e-06
3.8804223e-06
8.9663988e-06
2.4261426e-05
5.5350025e-05
0.00010308386
0.00017229244
0.00028715808
0.00054093727
0.0013659397
2.7797413e-06
4.4819715e-06
1.133081e-05
2.9383045e-05
6.1887486e-05
0.00010889378
0.00017645206
0.00028975397
0.00054267269
0.0013711903
3.0065706e-06
5.4387051e-06
1.4283611e-05
3.467503e-05
6.7820842e-05
0.00011385661
0.00017993853
0.00029198032
0.00054443431
0.0013766842
3.4547955e-06
6.814863e-06
1.7738622e-05
3.989971e-05
7.3111829e-05
0.00011808668
0.00018285384
0.00029394145
0.00054623633
0.0013823795
4.1911568e-06
8.6476105e-06
2.1546234e-05
4.4874706e-05
7.7769145e-05
0.00012165877
0.00018531785
0.00029569738
0.00054807377
0.0013882299
5.2835941e-06
1.0924868e-05
2.5521735e-05
4.9478028e-05
8.180366e-05
0.00012466939
0.00018741281
0.00029728399
0.00054993268
0.0013941873
6.7799222e-06
1.3574419e-05
2.9480254e-05
5.3622554e-05
8.5253115e-05
0.0001271993
0.0001891952
0.00029872107
0.00055179408
0.0014002013
8.6832253e-06
1.6474054e-05
3.3249989e-05
5.7259518e-05
8.8167043e-05
0.00012930771
0.00019070229
0.00030001682
0.0005536353
0.0014062195
1.0937798e-05
1.9464209e-05
3.6694109e-05
6.0377162e-05
9.0586589e-05
0.0001310365
0.00019195672
0.00030117061
0.0005554304
0.0014121857
1.3423237e-05
2.2384305e-05
3.972695e-05
6.2977842e-05
9.2544736e-05
0.00013241415
0.00019297013
0.00030217509
0.00055715051
0.0014180385
1.5988081e-05
2.5103486e-05
4.2303142e-05
6.5074386e-05
9.4068635e-05
0.0001334598
0.0001937467
0.00030301841
0.00055876458
0.0014237102
1.8484514e-05
2.7531385e-05
4.4410703e-05
6.6689252e-05
9.5183156e-05
0.0001341876
0.0001942867
0.00030368684
0.00056024108
0.0014291282
2.0793659e-05
2.9617754e-05
4.6063565e-05
6.7854324e-05
9.5914506e-05
0.00013461101
0.0001945904
0.00030416788
0.00056155048
0.0014342174
2.2836489e-05
3.1345734e-05
4.7294074e-05
6.8610012e-05
9.6292913e-05
0.00013474643
0.00019466147
0.00030445342
0.00056266833
0.0014389058
2.4572777e-05
3.2723066e-05
4.8146027e-05
6.9003294e-05
9.6353808e-05
0.00013461557
0.00019450969
0.00030454244
0.00056357815
0.00144313
2.5993512e-05
3.3773766e-05
4.8668852e-05
6.9085051e-05
9.6137493e-05
0.00013424635
0.00019415228
0.00030444245
0.00056427354
0.0014468415
2.7111508e-05
3.4531306e-05
4.8913209e-05
6.8907253e-05
9.5687675e-05
0.00013367224
0.00019361369
0.0003041697
0.0005647588
0.0014500105
2.7952893e-05
3.5033523e-05
4.8928003e-05
6.8520486e-05
9.5049435e-05
0.0001329307
0.00019292429
0.00030374784
0.00056504795
0.0014526284
2.8550552e-05
3.5319086e-05
4.8758556e-05
6.797208e-05
9.4267131e-05
0.000132061
0.00019211816
0.00030320569
0.00056516264
0.001454707
2.8939576e-05
3.5425205e-05
4.8445637e-05
6.7304877e-05
9.3382595e-05
0.00013110204
0.00019123061
0.00030257464
0.00056512935
0.0014562757
2.9154372e-05
3.5386277e-05
4.8025095e-05
6.6556588e-05
9.2433798e-05
0.00013009042
0.00019029594
0.00030188609
0.00056497667
0.0014573777
2.922699e-05
3.5233186e-05
4.7527856e-05
6.5759582e-05
9.1454026e-05
0.00012905905
0.00018934564
0.00030116941
0.00056473302
0.0014580648
2.9186284e-05
3.4993048e-05
4.6980156e-05
6.4941007e-05
9.0471499e-05
0.00012803629
0.00018840709
0.00030045054
0.00056442494
0.0014583939
2.9057595e-05
3.4689236e-05
4.6403894e-05
6.4123105e-05
8.9509355e-05
0.00012704551
0.00018750297
0.0002997511
0.000564076
0.0014584227
2.8862765e-05
3.4341575e-05
4.581705e-05
6.3323644e-05
8.8585877e-05
0.00012610509
0.00018665096
0.00029908808
0.00056370617
0.0014582076
2.8620319e-05
3.3966625e-05
4.5234115e-05
6.2556404e-05
8.7714891e-05
0.00012522865
0.00018586393
0.00029847388
0.00056333159
0.001457801
2.8345751e-05
3.3578008e-05
4.4666519e-05
6.1831674e-05
8.6906251e-05
0.00012442551
0.00018515028
0.0002979166
0.00056296447
0.0014572507
2.8051844e-05
3.3186751e-05
4.4123036e-05
6.1156741e-05
8.6166352e-05
0.00012370114
0.00018451447
0.00029742031
0.0005626091
0.0014565953
2.7748994e-05
3.2801612e-05
4.3610166e-05
6.0536356e-05
8.5498708e-05
0.00012305796
0.00018395785
0.00029698505
0.00056226346
0.0014558678
2.7445531e-05
3.2429394e-05
4.313249e-05
5.9973189e-05
8.4904507e-05
0.00012249583
0.00018347863
0.0002966046
0.00056194027
0.0014551002
2.714801e-05
3.2075241e-05
4.2692995e-05
5.9468219e-05
8.4383054e-05
0.00012201231
0.00018307005
0.00029628029
0.0005616462
0.0014543193
2.6861478e-05
3.1742901e-05
4.2293363e-05
5.9021088e-05
8.393204e-05
0.00012160119
0.00018272933
0.00029601088
0.0005613842
0.0014535468
2.6589728e-05
3.143498e-05
4.193428e-05
5.8630213e-05
8.3546361e-05
0.00012125843
0.00018245244
0.00029579324
0.00056115498
0.0014527991
2.6335528e-05
3.115316e-05
4.1615232e-05
5.8292203e-05
8.3222149e-05
0.00012097922
0.00018223422
0.00029562306
0.00056095779
0.0014520888
2.6100678e-05
3.0898003e-05
4.1334718e-05
5.8004082e-05
8.2954974e-05
0.00012075811
0.00018206887
0.00029549545
0.00056079091
0.0014514248
2.5886074e-05
3.0669395e-05
4.1091057e-05
5.7762504e-05
8.2740029e-05
0.00012058929
0.00018195034
0.00029540525
0.00056065207
0.0014508129
2.5692068e-05
3.0466815e-05
4.0882253e-05
5.7563863e-05
8.2572303e-05
0.00012046684
0.00018187257
0.00029534734
0.0005605387
0.0014502566
2.5518588e-05
3.0289395e-05
4.070606e-05
5.7404386e-05
8.2446722e-05
0.00012038492
0.00018182971
0.00029531686
0.00056044823
0.0014497571
2.5365214e-05
3.013599e-05
4.0560051e-05
5.7280233e-05
8.2358272e-05
0.00012033788
0.00018181622
0.00029530928
0.00056037814
0.0014493142
2.5231252e-05
3.000524e-05
4.0441683e-05
5.7187569e-05
8.2302092e-05
0.00012032036
0.00018182699
0.00029532046
0.00056032607
0.0014489267
2.5115791e-05
2.9895622e-05
4.0348354e-05
5.7122635e-05
8.2273542e-05
0.00012032739
0.00018185734
0.00029534667
0.00056028974
0.0014485923
2.501775e-05
2.98055e-05
4.0277453e-05
5.7081797e-05
8.2268252e-05
0.00012035438
0.00018190303
0.00029538457
0.00056026699
0.0014483083
2.4935927e-05
2.973317e-05
4.0226405e-05
5.7061588e-05
8.2282163e-05
0.00012039714
0.00018196029
0.00029543118
0.00056025573
0.0014480715
2.4869035e-05
2.9676897e-05
4.0192707e-05
5.705875e-05
8.231155e-05
0.00012045194
0.00018202581
0.0002954839
0.00056025404
0.001447878
2.4815739e-05
2.9634948e-05
4.0173959e-05
5.7070253e-05
8.2353041e-05
0.00012051547
0.00018209671
0.00029554049
0.00056026017
0.001447724
2.4774681e-05
2.9605622e-05
4.0167892e-05
5.7093318e-05
8.2403626e-05
0.00012058485
0.00018217055
0.00029559909
0.00056027258
0.0014476054
2.4744513e-05
2.9587273e-05
4.0172388e-05
5.7125428e-05
8.246065e-05
0.00012065761
0.00018224529
0.00029565813
0.00056028991
0.0014475183
2.4723914e-05
2.9578332e-05
4.0185491e-05
5.7164328e-05
8.2521804e-05
0.00012073166
0.00018231925
0.00029571637
0.00056031098
0.0014474586
2.4711609e-05
2.957732e-05
4.0205416e-05
5.7208026e-05
8.2585108e-05
0.00012080525
0.00018239107
0.00029577278
0.00056033474
0.0014474229
2.4706385e-05
2.9582861e-05
4.0230557e-05
5.7254783e-05
8.2648887e-05
0.00012087698
0.00018245966
0.00029582655
0.00056036023
0.0014474075
2.4707101e-05
2.9593687e-05
4.0259481e-05
5.7303105e-05
8.2711754e-05
0.0001209457
0.00018252422
0.00029587706
0.00056038662
0.0014474092
2.4712699e-05
2.960865e-05
4.0290931e-05
5.7351727e-05
8.2772588e-05
0.00012101055
0.00018258414
0.00029592386
0.0005604132
0.0014474249
2.4722208e-05
2.9626716e-05
4.0323821e-05
5.7399602e-05
8.2830507e-05
0.0001210709
0.00018263904
0.00029596668
0.00056043941
0.0014474517
2.4734747e-05
2.9646972e-05
4.0357224e-05
5.7445887e-05
8.2884849e-05
0.00012112633
0.0001826887
0.00029600536
0.00056046481
0.0014474871
2.4749529e-05
2.966862e-05
4.039037e-05
5.7489917e-05
8.2935142e-05
0.00012117658
0.00018273306
0.00029603987
0.00056048888
0.0014475287
2.4765861e-05
2.9690974e-05
4.0422625e-05
5.7531192e-05
8.2981079e-05
0.00012122156
0.00018277216
0.0002960702
0.00056051092
0.0014475745
2.4783137e-05
2.9713453e-05
4.0453488e-05
5.7569357e-05
8.3022498e-05
0.00012126129
0.00018280613
0.00029609624
0.00056053082
0.0014476227
2.4800839e-05
2.9735576e-05
4.0482574e-05
5.7604184e-05
8.3059358e-05
0.00012129589
0.00018283504
0.0002961181
0.00056054887
0.0014476719
2.4818532e-05
2.9756955e-05
4.0509602e-05
5.7635553e-05
8.3091717e-05
0.00012132548
0.0001828591
0.00029613624
0.00056056517
0.0014477212
2.4835854e-05
2.9777284e-05
4.0534388e-05
5.7663445e-05
8.3119666e-05
0.00012135026
0.00018287873
0.00029615102
0.00056057972
0.0014477695
2.4852521e-05
2.9796336e-05
4.055683e-05
5.7687873e-05
8.3143347e-05
0.00012137059
0.00018289438
0.00029616279
0.0005605926
0.001447816
2.4868313e-05
2.9813958e-05
4.0576862e-05
5.7708913e-05
8.3163044e-05
0.0001213869
0.00018290647
0.00029617188
0.00056060386
0.00144786
2.4883059e-05
2.9830025e-05
4.0594481e-05
5.7726734e-05
8.3179075e-05
0.00012139958
0.00018291543
0.00029617862
0.00056061361
0.0014479011
2.4896633e-05
2.9844474e-05
4.060975e-05
5.7741546e-05
8.3191779e-05
0.00012140904
0.00018292165
0.00029618333
0.00056062198
0.001447939
2.4908959e-05
2.9857289e-05
4.062277e-05
5.7753587e-05
8.3201502e-05
0.00012141568
0.00018292552
0.00029618631
0.00056062907
0.0014479736
2.492e-05
2.9868495e-05
4.0633676e-05
5.776311e-05
8.3208584e-05
0.00012141988
0.0001829274
0.0002961878
0.00056063497
0.0014480048
2.4929755e-05
2.9878146e-05
4.0642621e-05
5.7770371e-05
8.3213358e-05
0.000121422
0.00018292759
0.00029618803
0.00056063976
0.0014480327
2.4938251e-05
2.9886321e-05
4.0649773e-05
5.7775628e-05
8.3216141e-05
0.00012142236
0.00018292639
0.00029618721
0.00056064351
0.0014480574
2.4945535e-05
2.9893113e-05
4.0655304e-05
5.7779134e-05
8.3217233e-05
0.00012142127
0.00018292408
0.00029618554
0.00056064628
0.0014480788
2.4951674e-05
2.9898629e-05
4.0659392e-05
5.778113e-05
8.3216918e-05
0.00012141902
0.00018292088
0.00029618317
0.00056064816
0.0014480971
2.4956744e-05
2.9902985e-05
4.0662213e-05
5.778185e-05
8.3215456e-05
0.00012141585
0.00018291704
0.0002961803
0.00056064929
0.0014481124
2.4960833e-05
2.99063e-05
4.0663938e-05
5.7781511e-05
8.3213089e-05
0.00012141202
0.00018291275
0.00029617708
0.00056064979
0.0014481249
2.4964032e-05
2.9908692e-05
4.0664731e-05
5.7780315e-05
8.3210034e-05
0.00012140772
0.0001829082
0.00029617366
0.00056064981
0.0014481348
2.4966436e-05
2.991028e-05
4.0664745e-05
5.7778444e-05
8.3206483e-05
0.00012140313
0.00018290353
0.00029617017
0.00056064945
0.0014481424
2.496814e-05
2.9911177e-05
4.0664122e-05
5.777606e-05
8.32026e-05
0.0001213984
0.00018289886
0.0002961667
0.00056064881
0.0014481481
2.4969235e-05
2.9911489e-05
4.066299e-05
5.7773305e-05
8.3198525e-05
0.00012139366
0.0001828943
0.0002961633
0.00056064794
0.0014481521
2.4969806e-05
2.9911314e-05
4.0661464e-05
5.77703e-05
8.3194373e-05
0.00012138899
0.0001828899
0.00029616002
0.00056064687
0.0014481547
2.4969937e-05
2.9910744e-05
4.0659644e-05
5.7767152e-05
8.3190239e-05
0.00012138448
0.00018288571
0.00029615688
0.00056064562
0.001448156
2.4969704e-05
2.9909859e-05
4.0657619e-05
5.7763947e-05
8.3186203e-05
0.00012138018
0.00018288178
0.00029615391
0.00056064421
0.0014481562
2.4969175e-05
2.9908735e-05
4.0655467e-05
5.7760761e-05
8.3182328e-05
0.00012137615
0.00018287814
0.00029615114
0.00056064269
0.0014481554
2.4968415e-05
2.9907436e-05
4.0653255e-05
5.7757656e-05
8.3178665e-05
0.00012137241
0.0001828748
0.00029614858
0.00056064113
0.0014481538
2.4967482e-05
2.9906023e-05
4.0651041e-05
5.7754684e-05
8.3175255e-05
0.000121369
0.0001828718
0.00029614627
0.00056063958
0.0014481515
2.4966431e-05
2.9904552e-05
4.0648882e-05
5.7751896e-05
8.3172135e-05
0.00012136593
0.00018286912
0.00029614418
0.00056063804
0.0014481487
)
;

boundaryField
{
    water_inlet
    {
        type            turbulentMixingLengthDissipationRateInlet;
        mixingLength    0.005;
        phi             phi;
        k               k;
        value           uniform 0.00011791765;
    }
    water_outlet
    {
        type            inletOutlet;
        inletValue      uniform 0.0001;
        value           nonuniform List<scalar> 10(2.4966431e-05 2.9904552e-05 4.0648882e-05 5.7751896e-05 8.3172135e-05 0.00012136593 0.00018286912 0.00029614418 0.00056063804 0.0014481487);
    }
    water_wedge1
    {
        type            wedge;
    }
    water_wedge2
    {
        type            wedge;
    }
    water_to_rock
    {
        type            epsilonWallFunction;
        blending        stepwise;
        value           nonuniform List<scalar> 
100
(
0.0013048048
0.0016574915
0.0016622
0.001560026
0.0014605604
0.0013944175
0.0013593147
0.0013440715
0.0013390508
0.0013385666
0.0013399585
0.0013422102
0.001345017
0.0013483156
0.0013520947
0.0013563337
0.001360972
0.0013659397
0.0013711903
0.0013766842
0.0013823795
0.0013882299
0.0013941873
0.0014002013
0.0014062195
0.0014121857
0.0014180385
0.0014237102
0.0014291282
0.0014342174
0.0014389058
0.00144313
0.0014468415
0.0014500105
0.0014526284
0.001454707
0.0014562757
0.0014573777
0.0014580648
0.0014583939
0.0014584227
0.0014582076
0.001457801
0.0014572507
0.0014565953
0.0014558678
0.0014551002
0.0014543193
0.0014535468
0.0014527991
0.0014520888
0.0014514248
0.0014508129
0.0014502566
0.0014497571
0.0014493142
0.0014489267
0.0014485923
0.0014483083
0.0014480715
0.001447878
0.001447724
0.0014476054
0.0014475183
0.0014474586
0.0014474229
0.0014474075
0.0014474092
0.0014474249
0.0014474517
0.0014474871
0.0014475287
0.0014475745
0.0014476227
0.0014476719
0.0014477212
0.0014477695
0.001447816
0.00144786
0.0014479011
0.001447939
0.0014479736
0.0014480048
0.0014480327
0.0014480574
0.0014480788
0.0014480971
0.0014481124
0.0014481249
0.0014481348
0.0014481424
0.0014481481
0.0014481521
0.0014481547
0.001448156
0.0014481562
0.0014481554
0.0014481538
0.0014481515
0.0014481487
)
;
    }
}


// ************************************************************************* //
