/*--------------------------------*- C++ -*----------------------------------*\
| =========                 |                                                 |
| \\      /  F ield         | OpenFOAM: The Open Source CFD Toolbox           |
|  \\    /   O peration     | Version:  2506                                  |
|   \\  /    A nd           | Website:  www.openfoam.com                      |
|    \\/     M anipulation  |                                                 |
\*---------------------------------------------------------------------------*/
FoamFile
{
    version     2.0;
    format      ascii;
    arch        "LSB;label=32;scalar=64";
    class       volScalarField;
    location    "30000/water";
    object      k;
}
// * * * * * * * * * * * * * * * * * * * * * * * * * * * * * * * * * * * * * //

dimensions      [0 2 -2 0 0 0 0];

internalField   nonuniform List<scalar> 
1000
(
0.00017657855
0.00017657518
0.00017657131
0.00017655365
0.00017648098
0.00017625478
0.00017589507
0.00017764177
0.00020514192
0.00048657967
0.00013915035
0.00013915817
0.00013914641
0.00013908743
0.00013888206
0.0001383736
0.00013797747
0.00014325065
0.00019616757
0.00057072179
0.00011343696
0.00011343683
0.00011340783
0.00011329561
0.00011298241
0.0001124902
0.00011342552
0.00012641415
0.00020548447
0.00057180213
9.4956345e-05
9.4947216e-05
9.4898274e-05
9.474799e-05
9.4461171e-05
9.4591047e-05
9.8882257e-05
0.00012463442
0.0002316972
0.00054812309
8.1180941e-05
8.1164581e-05
8.1102165e-05
8.0967051e-05
8.0960047e-05
8.2611558e-05
9.2929493e-05
0.00013695621
0.00027128297
0.00052456958
7.0599818e-05
7.0579371e-05
7.0523475e-05
7.0504821e-05
7.1168299e-05
7.5594032e-05
9.5291764e-05
0.00016203299
0.00031585984
0.00050861052
6.2267978e-05
6.2250534e-05
6.2239528e-05
6.2499671e-05
6.4399604e-05
7.3304328e-05
0.00010610256
0.0001961363
0.00035649853
0.00050003864
5.5571435e-05
5.5570247e-05
5.5667665e-05
5.645073e-05
6.0389162e-05
7.5971808e-05
0.00012498813
0.00023351987
0.00038871333
0.00049629337
5.0098705e-05
5.0135846e-05
5.0440302e-05
5.2103067e-05
5.9190733e-05
8.3984629e-05
0.00015029946
0.00026896144
0.00041246871
0.00049505665
4.5567681e-05
4.5677868e-05
4.6337526e-05
4.9391714e-05
6.1096155e-05
9.7487035e-05
0.00017920269
0.00029964206
0.00042963999
0.00049493728
4.1782806e-05
4.2019036e-05
4.325217e-05
4.8416255e-05
6.6518289e-05
0.00011597953
0.00020865691
0.00032501685
0.00044222975
0.00049528033
3.8609678e-05
3.9051434e-05
4.1174544e-05
4.942275e-05
7.5808517e-05
0.0001381904
0.00023642024
0.00034571969
0.00045177426
0.00049583502
3.5960352e-05
3.6725361e-05
4.0189371e-05
5.2766977e-05
8.902806e-05
0.00016237235
0.00026138247
0.00036268767
0.0004593148
0.00049652603
3.3785873e-05
3.504646e-05
4.0478119e-05
5.8837698e-05
0.00010577028
0.00018682876
0.00028330068
0.00037677343
0.00046551933
0.00049733756
3.2074331e-05
3.4079128e-05
4.231585e-05
6.7933577e-05
0.00012516107
0.00021031463
0.00030238169
0.00038864928
0.00047080771
0.00049826648
3.0853738e-05
3.3954415e-05
4.604793e-05
8.0117934e-05
0.00014606393
0.00023213648
0.00031898714
0.00039881705
0.00047543865
0.00049930735
3.0199498e-05
3.4878808e-05
5.2033999e-05
9.5115413e-05
0.00016736964
0.00025203074
0.00033348844
0.00040763738
0.00047952146
0.00050044496
3.0245919e-05
3.7135901e-05
6.0555863e-05
0.00011231893
0.00018821079
0.00026998832
0.00034621435
0.0004153482
0.00048317067
0.00050166198
3.1199908e-05
4.1068816e-05
7.1707305e-05
0.00013091711
0.00020802797
0.00028611997
0.0003574262
0.00042213417
0.00048649173
0.00050294675
3.3351643e-05
4.7031175e-05
8.5310696e-05
0.00015007638
0.00022652183
0.00030057622
0.00036733112
0.00042815007
0.00048955831
0.00050428935
3.7070553e-05
5.5301828e-05
0.00010090957
0.00016908811
0.00024356827
0.00031350337
0.00037608892
0.0004335332
0.0004924159
0.00050567925
4.2767642e-05
6.5979329e-05
0.00011785022
0.00018743147
0.00025913424
0.00032501609
0.00038386951
0.00043837717
0.00049509081
0.000507105
5.0805579e-05
7.889913e-05
0.00013541211
0.0002047554
0.00027320747
0.00033526175
0.0003907969
0.00044274744
0.00049759741
0.0005085547
6.136229e-05
9.362245e-05
0.00015292598
0.00022080466
0.00028583285
0.00034436351
0.00039696081
0.00044668796
0.00049994125
0.00051001609
7.4303218e-05
0.00010951499
0.00016980476
0.00023542182
0.00029707738
0.00035241114
0.0004024225
0.0004502251
0.00050212061
0.00051147644
8.9142891e-05
0.00012582825
0.00018559498
0.00024853512
0.00030699143
0.00035946509
0.00040721942
0.00045337059
0.00050412734
0.00051292214
0.00010508522
0.00014184864
0.00019999873
0.00026010245
0.00031560928
0.00036556179
0.00041136978
0.00045612409
0.00050594779
0.0005143384
0.00012123834
0.00015699651
0.0002128286
0.00027010617
0.000322955
0.00037072083
0.00041487799
0.00045847662
0.00050756435
0.00051570898
0.00013679953
0.00017085444
0.00022398881
0.00027855491
0.00032905178
0.00037495404
0.00041774147
0.00046041492
0.00050895776
0.0005170165
0.00015116485
0.00018316312
0.00023345994
0.00028548708
0.00033393194
0.00037827527
0.00041995818
0.00046192671
0.00051011022
0.00051824314
0.00016395729
0.00019379964
0.00024128468
0.00029097217
0.00033764485
0.00038070902
0.00042153396
0.00046300601
0.00051100875
0.00051937187
0.00017500036
0.00020274878
0.00024755336
0.00029510839
0.00034026089
0.00038229639
0.00042248808
0.00046365759
0.00051164806
0.00052038783
0.000184269
0.00021007381
0.00025238999
0.00029801703
0.00034187126
0.00038309739
0.0004228563
0.00046389961
0.00051203246
0.00052127969
0.00019183959
0.00021589019
0.00025593949
0.00029983516
0.0003425844
0.00038318982
0.00042269093
0.00046376415
0.00051217636
0.00052204065
0.00019784885
0.00022034415
0.00025835701
0.00030070795
0.00034252037
0.00038266553
0.00042205838
0.00046329558
0.00051210334
0.00052266888
0.000202464
0.00022359636
0.00025979957
0.0003007818
0.00034180465
0.00038162508
0.00042103496
0.00046254742
0.00051184415
0.0005231674
0.00020586263
0.00022581023
0.00026041975
0.00030019861
0.00034056211
0.0003801721
0.00041970188
0.00046157829
0.00051143386
0.00052354344
0.00020822003
0.00022714405
0.00026036136
0.00029909165
0.0003389121
0.00037840797
0.00041814024
0.00046044773
0.00051090903
0.00052380745
0.0002097017
0.00022774602
0.00025975656
0.00029758264
0.00033696469
0.00037642755
0.00041642687
0.00045921257
0.00051030497
0.00052397203
0.00021045928
0.00022775142
0.00025872431
0.00029578012
0.00033481827
0.00037431618
0.00041463113
0.00045792418
0.00050965387
0.00052405084
0.00021062872
0.00022728128
0.00025736975
0.00029377884
0.00033255831
0.00037214795
0.0004128131
0.00045662681
0.0005089835
0.00052405776
0.00021032995
0.00022644214
0.00025578428
0.00029165982
0.00033025713
0.00036998501
0.0004110227
0.00045535688
0.0005083168
0.00052400625
0.00020966734
0.00022532648
0.00025404615
0.00028949109
0.00032797435
0.00036787783
0.00040929981
0.00045414297
0.00050767185
0.00052390889
0.0002087307
0.00022401355
0.00025222141
0.00028732858
0.00032575773
0.00036586582
0.00040767471
0.00045300629
0.00050706205
0.00052377707
0.00020759645
0.00022257047
0.00025036486
0.00028521723
0.00032364424
0.0003639782
0.00040616871
0.00045196019
0.00050648808
0.00052362
0.00020632898
0.00022105329
0.0002485212
0.00028319215
0.00032166119
0.00036223522
0.00040479507
0.00045100875
0.00050595626
0.0005234456
0.00020498186
0.00021950819
0.00024672608
0.00028127977
0.0003198275
0.00036064908
0.00040355826
0.00045015499
0.00050547538
0.00052326157
0.00020359914
0.00021797257
0.0002450072
0.00027949895
0.00031815469
0.00035922404
0.00040245867
0.00044940281
0.00050504941
0.00052307437
0.0002022165
0.00021647614
0.00024338531
0.00027786198
0.00031664732
0.00035795894
0.00040149677
0.00044875196
0.00050467903
0.00052288913
0.00020086234
0.00021504196
0.0002418752
0.00027637505
0.0003153043
0.00035685228
0.00040066933
0.00044819907
0.00050436278
0.00052270984
0.00019955884
0.00021368733
0.00024048585
0.00027503922
0.00031412384
0.00035589923
0.00039997025
0.00044773871
0.00050409785
0.00052253945
0.00019832253
0.00021242398
0.00023922195
0.00027385397
0.00031310103
0.00035509231
0.00039939142
0.00044736409
0.0005038806
0.00052238012
0.00019716507
0.00021125967
0.00023808558
0.00027281601
0.00031222859
0.00035442215
0.00039892338
0.00044706758
0.00050370687
0.00052223327
0.00019609451
0.00021019906
0.00023707615
0.00027191975
0.0003114974
0.00035387806
0.00039855589
0.00044684113
0.00050357223
0.00052209973
0.00019511588
0.00020924414
0.00023619081
0.0002711578
0.00031089702
0.0003534485
0.00039827824
0.00044667652
0.00050347215
0.00052197984
0.00019423164
0.00020839458
0.00023542485
0.00027052141
0.00031041616
0.00035312157
0.00039807973
0.00044656566
0.00050340215
0.00052187354
0.00019344207
0.00020764817
0.00023477213
0.00027000091
0.00031004311
0.00035288536
0.00039794993
0.00044650085
0.00050335797
0.00052178053
0.00019274567
0.00020700118
0.00023422543
0.00026958606
0.00030976608
0.00035272827
0.00039787893
0.00044647488
0.0005033357
0.00052170026
0.00019213948
0.00020644866
0.00023377679
0.00026926639
0.0003095735
0.00035263922
0.00039785747
0.00044648116
0.00050333176
0.00052163207
0.00019161942
0.0002059848
0.0002334178
0.00026903144
0.0003094542
0.0003526078
0.00039787703
0.00044651371
0.00050334291
0.00052157518
0.00019118051
0.00020560313
0.00023313977
0.00026887092
0.00030939753
0.00035262431
0.0003979298
0.00044656711
0.00050336621
0.0005215287
0.00019081713
0.00020529673
0.00023293399
0.00026877488
0.00030939348
0.0003526798
0.0003980087
0.00044663647
0.00050339898
0.00052149171
0.00019052317
0.00020505846
0.00023279182
0.0002687338
0.00030943272
0.00035276611
0.00039810737
0.00044671746
0.00050343881
0.00052146323
0.00019029228
0.00020488106
0.00023270487
0.00026873876
0.00030950669
0.00035287592
0.00039822019
0.00044680629
0.00050348358
0.00052144231
0.00019011796
0.00020475736
0.00023266513
0.00026878146
0.00030960769
0.00035300275
0.0003983423
0.00044689971
0.00050353148
0.000521428
0.00018999374
0.00020468038
0.00023266504
0.00026885432
0.00030972881
0.00035314097
0.00039846953
0.00044699501
0.00050358099
0.00052141942
0.0001899133
0.00020464342
0.00023269759
0.00026895051
0.00030986403
0.00035328575
0.00039859842
0.00044708995
0.00050363086
0.00052141573
0.00018987056
0.00020464019
0.00023275636
0.00026906395
0.00031000809
0.00035343298
0.00039872608
0.00044718272
0.00050368005
0.00052141613
0.00018985975
0.0002046648
0.00023283551
0.00026918927
0.0003101565
0.00035357926
0.00039885015
0.00044727182
0.00050372771
0.0005214199
0.00018987546
0.00020471184
0.00023292982
0.0002693218
0.00031030544
0.00035372175
0.00039896873
0.00044735609
0.00050377311
0.00052142635
0.0001899127
0.00020477638
0.00023303468
0.00026945753
0.00031045176
0.00035385822
0.00039908037
0.00044743467
0.00050381574
0.00052143487
0.00018996691
0.000204854
0.00023314605
0.00026959312
0.00031059293
0.00035398693
0.00039918401
0.00044750691
0.00050385484
0.00052144489
0.00019003397
0.00020494081
0.00023326051
0.0002697258
0.00031072697
0.00035410663
0.00039927893
0.00044757225
0.00050388998
0.00052145588
0.00019011026
0.0002050334
0.00023337516
0.00026985339
0.00031085243
0.00035421648
0.00039936465
0.00044763041
0.00050392128
0.00052146744
0.00019019259
0.00020512887
0.00023348764
0.00026997419
0.00031096826
0.00035431594
0.00039944089
0.00044768151
0.00050394901
0.00052147926
0.00019027822
0.00020522476
0.00023359604
0.00027008694
0.00031107379
0.00035440469
0.00039950774
0.00044772591
0.00050397337
0.00052149109
0.00019036483
0.00020531904
0.00023369886
0.00027019074
0.00031116855
0.0003544827
0.00039956558
0.00044776398
0.00050399452
0.00052150268
0.00019045046
0.00020541007
0.00023379496
0.00027028494
0.0003112524
0.00035455032
0.00039961488
0.00044779609
0.00050401263
0.00052151385
0.00019053354
0.00020549653
0.00023388347
0.00027036919
0.00031132554
0.00035460803
0.00039965614
0.00044782266
0.00050402784
0.00052152443
0.00019061275
0.00020557738
0.00023396385
0.00027044352
0.00031138839
0.0003546564
0.00039968997
0.00044784412
0.00050404036
0.00052153431
0.00019068711
0.0002056519
0.00023403585
0.00027050816
0.00031144148
0.00035469613
0.00039971701
0.00044786096
0.00050405039
0.00052154342
0.00019075592
0.00020571968
0.00023409949
0.00027056352
0.00031148551
0.00035472799
0.00039973796
0.00044787369
0.00050405822
0.00052155171
0.00019081877
0.00020578053
0.00023415498
0.00027061017
0.00031152124
0.00035475279
0.00039975354
0.00044788284
0.0005040641
0.00052155918
0.00019087544
0.00020583446
0.00023420268
0.00027064876
0.0003115495
0.00035477135
0.00039976446
0.00044788891
0.00050406833
0.00052156585
0.00019092593
0.00020588165
0.00023424305
0.00027068
0.00031157109
0.00035478446
0.00039977137
0.00044789239
0.00050407113
0.00052157173
0.00019097033
0.00020592238
0.00023427662
0.0002707046
0.00031158681
0.00035479286
0.00039977486
0.00044789366
0.00050407273
0.00052157686
0.00019100885
0.00020595699
0.00023430393
0.00027072327
0.00031159738
0.00035479722
0.00039977548
0.00044789309
0.00050407328
0.00052158124
0.00019104176
0.00020598588
0.00023432555
0.00027073667
0.0003116035
0.00035479814
0.00039977369
0.00044789099
0.00050407294
0.00052158492
0.0001910694
0.00020600947
0.00023434204
0.00027074546
0.00031160582
0.0003547962
0.00039976994
0.00044788764
0.00050407184
0.00052158792
0.00019109212
0.00020602822
0.00023435399
0.00027075027
0.00031160497
0.00035479194
0.00039976463
0.00044788332
0.00050407011
0.00052159032
0.00019111034
0.00020604261
0.00023436195
0.00027075173
0.00031160153
0.00035478588
0.00039975816
0.0004478783
0.00050406792
0.00052159215
0.00019112448
0.00020605313
0.00023436649
0.00027075043
0.00031159608
0.00035477849
0.00039975092
0.00044787284
0.00050406541
0.00052159351
0.00019113501
0.00020606028
0.00023436816
0.00027074693
0.00031158912
0.00035477021
0.00039974324
0.00044786718
0.00050406274
0.00052159447
0.00019114236
0.00020606453
0.00023436746
0.00027074172
0.0003115811
0.00035476141
0.00039973538
0.0004478615
0.00050406002
0.00052159508
0.00019114697
0.00020606633
0.00023436486
0.00027073523
0.0003115724
0.00035475238
0.00039972756
0.00044785594
0.00050405733
0.0005215954
0.00019114924
0.00020606608
0.00023436075
0.00027072784
0.00031156332
0.00035474333
0.00039971992
0.00044785058
0.0005040547
0.00052159546
0.00019114952
0.00020606415
0.00023435546
0.00027071983
0.00031155408
0.00035473443
0.00039971254
0.00044784546
0.00050405216
0.0005215953
0.00019114814
0.00020606085
0.00023434929
0.00027071143
0.00031154485
0.00035472578
0.0003997055
0.00044784059
0.00050404969
0.00052159495
0.00019114538
0.00020605644
0.00023434248
0.00027070286
0.0003115358
0.00035471748
0.00039969882
0.00044783599
0.00050404729
0.00052159442
0.00019114153
0.0002060512
0.00023433528
0.00027069431
0.00031152705
0.00035470961
0.00039969256
0.00044783167
0.00050404495
0.00052159378
)
;

boundaryField
{
    water_inlet
    {
        type            turbulentIntensityKineticEnergyInlet;
        intensity       0.05;
        value           uniform 0.000234375;
    }
    water_outlet
    {
        type            inletOutlet;
        inletValue      uniform 0.0001;
        value           nonuniform List<scalar> 10(0.00019114153 0.0002060512 0.00023433528 0.00027069431 0.00031152705 0.00035470961 0.00039969256 0.00044783167 0.00050404495 0.00052159378);
    }
    water_wedge1
    {
        type            wedge;
    }
    water_wedge2
    {
        type            wedge;
    }
    water_to_rock
    {
        type            kqRWallFunction;
        value           nonuniform List<scalar> 
100
(
0.00048657967
0.00057072179
0.00057180213
0.00054812309
0.00052456958
0.00050861052
0.00050003864
0.00049629337
0.00049505665
0.00049493728
0.00049528033
0.00049583502
0.00049652603
0.00049733756
0.00049826648
0.00049930735
0.00050044496
0.00050166198
0.00050294675
0.00050428935
0.00050567925
0.000507105
0.0005085547
0.00051001609
0.00051147644
0.00051292214
0.0005143384
0.00051570898
0.0005170165
0.00051824314
0.00051937187
0.00052038783
0.00052127969
0.00052204065
0.00052266888
0.0005231674
0.00052354344
0.00052380745
0.00052397203
0.00052405084
0.00052405776
0.00052400625
0.00052390889
0.00052377707
0.00052362
0.0005234456
0.00052326157
0.00052307437
0.00052288913
0.00052270984
0.00052253945
0.00052238012
0.00052223327
0.00052209973
0.00052197984
0.00052187354
0.00052178053
0.00052170026
0.00052163207
0.00052157518
0.0005215287
0.00052149171
0.00052146323
0.00052144231
0.000521428
0.00052141942
0.00052141573
0.00052141613
0.0005214199
0.00052142635
0.00052143487
0.00052144489
0.00052145588
0.00052146744
0.00052147926
0.00052149109
0.00052150268
0.00052151385
0.00052152443
0.00052153431
0.00052154342
0.00052155171
0.00052155918
0.00052156585
0.00052157173
0.00052157686
0.00052158124
0.00052158492
0.00052158792
0.00052159032
0.00052159215
0.00052159351
0.00052159447
0.00052159508
0.0005215954
0.00052159546
0.0005215953
0.00052159495
0.00052159442
0.00052159378
)
;
    }
}


// ************************************************************************* //
