/*--------------------------------*- C++ -*----------------------------------*\
| =========                 |                                                 |
| \\      /  F ield         | OpenFOAM: The Open Source CFD Toolbox           |
|  \\    /   O peration     | Version:  2506                                  |
|   \\  /    A nd           | Website:  www.openfoam.com                      |
|    \\/     M anipulation  |                                                 |
\*---------------------------------------------------------------------------*/
FoamFile
{
    version     2.0;
    format      ascii;
    arch        "LSB;label=32;scalar=64";
    class       volScalarField;
    location    "30000/water";
    object      nut;
}
// * * * * * * * * * * * * * * * * * * * * * * * * * * * * * * * * * * * * * //

dimensions      [0 2 -1 0 0 0 0];

internalField   nonuniform List<scalar> 
1000
(
3.8760013e-05
3.8759344e-05
3.875781e-05
3.8749426e-05
3.8703919e-05
3.8465194e-05
3.7257946e-05
3.1920746e-05
1.9133704e-05
1.6330702e-05
3.6503362e-05
3.6502673e-05
3.6496233e-05
3.646333e-05
3.6309099e-05
3.5625575e-05
3.2857821e-05
2.4520506e-05
1.4670672e-05
1.7686427e-05
3.4818769e-05
3.4815355e-05
3.4798028e-05
3.4720761e-05
3.4400236e-05
3.3155726e-05
2.8966476e-05
2.0114756e-05
1.4313176e-05
1.7703159e-05
3.3515366e-05
3.3507685e-05
3.3473492e-05
3.3336595e-05
3.2819802e-05
3.0995866e-05
2.5816237e-05
1.8304688e-05
1.598053e-05
1.7332726e-05
3.247679e-05
3.2463573e-05
3.2409014e-05
3.2208501e-05
3.1494114e-05
2.9122726e-05
2.3598316e-05
1.8668983e-05
1.8895217e-05
1.6956226e-05
3.1628598e-05
3.1609535e-05
3.1536364e-05
3.1282481e-05
3.0382839e-05
2.7534881e-05
2.2595796e-05
2.0841193e-05
2.2319066e-05
1.6696304e-05
3.0922115e-05
3.0899108e-05
3.0816972e-05
3.0532932e-05
2.9455217e-05
2.6339929e-05
2.3103865e-05
2.4287901e-05
2.5587554e-05
1.6555017e-05
3.0325437e-05
3.0303995e-05
3.0232582e-05
2.9948437e-05
2.8696143e-05
2.583431e-05
2.5184118e-05
2.8331542e-05
2.8355969e-05
1.6492903e-05
2.9818406e-05
2.9809196e-05
2.977928e-05
2.9521838e-05
2.8158008e-05
2.6405009e-05
2.8559876e-05
3.2392652e-05
3.0574098e-05
1.6472338e-05
2.9389964e-05
2.9410468e-05
2.9462814e-05
2.9249474e-05
2.8031764e-05
2.8288567e-05
3.2740223e-05
3.6145577e-05
3.2325678e-05
1.6470352e-05
2.9037015e-05
2.9113037e-05
2.9294081e-05
2.9152178e-05
2.8635342e-05
3.1431904e-05
3.7231774e-05
3.9484631e-05
3.3719829e-05
1.6476058e-05
2.8764313e-05
2.8930763e-05
2.9285866e-05
2.9323275e-05
3.0270067e-05
3.5542804e-05
4.1683796e-05
4.2417875e-05
3.4850438e-05
1.6485281e-05
2.8585076e-05
2.8885048e-05
2.9456389e-05
2.9967023e-05
3.306259e-05
4.0234144e-05
4.5910819e-05
4.4991507e-05
3.5787772e-05
1.6496765e-05
2.8522047e-05
2.9003121e-05
2.9849344e-05
3.1360405e-05
3.6919013e-05
4.5157112e-05
4.9841413e-05
4.7257378e-05
3.658122e-05
1.6510244e-05
2.8608586e-05
2.9316755e-05
3.0571042e-05
3.3736735e-05
4.1587265e-05
5.0067505e-05
5.3462069e-05
4.9262674e-05
3.7264853e-05
1.6525657e-05
2.8889233e-05
2.9865996e-05
3.1814614e-05
3.7181042e-05
4.6760705e-05
5.482485e-05
5.6783933e-05
5.1047273e-05
3.7861792e-05
1.6542908e-05
2.9419519e-05
3.0715687e-05
3.3825081e-05
4.1605858e-05
5.216493e-05
5.9359651e-05
5.9827115e-05
5.264239e-05
3.8381903e-05
1.656174e-05
3.0266662e-05
3.1985375e-05
3.6807545e-05
4.6798515e-05
5.759884e-05
6.3641703e-05
6.2613273e-05
5.4068725e-05
3.8841565e-05
1.6581864e-05
3.1516993e-05
3.3868642e-05
4.0842126e-05
5.2497492e-05
6.2933681e-05
6.766059e-05
6.5161122e-05
5.5349554e-05
3.9251428e-05
1.6603085e-05
3.3297035e-05
3.6603167e-05
4.5857617e-05
5.8458859e-05
6.8092529e-05
7.1415668e-05
6.7489125e-05
5.650423e-05
3.9619215e-05
1.6625234e-05
3.5799609e-05
4.0389117e-05
5.1663915e-05
6.4490974e-05
7.3029158e-05
7.4907621e-05
6.9617673e-05
5.7547492e-05
3.9950853e-05
1.6648132e-05
3.9277082e-05
4.5306673e-05
5.8013882e-05
7.0457287e-05
7.7711408e-05
7.814637e-05
7.1563654e-05
5.8491249e-05
4.0250681e-05
1.6671585e-05
4.3967916e-05
5.1282684e-05
6.4661732e-05
7.6260712e-05
8.2121127e-05
8.1142928e-05
7.334077e-05
5.9344861e-05
4.0521844e-05
1.6695396e-05
4.9982838e-05
5.8114064e-05
7.1395989e-05
8.1829798e-05
8.624949e-05
8.3905809e-05
7.4959668e-05
6.0115317e-05
4.0766499e-05
1.6719366e-05
5.7223798e-05
6.5522305e-05
7.8046012e-05
8.7114057e-05
9.0089755e-05
8.6440514e-05
7.6427755e-05
6.0807384e-05
4.0985934e-05
1.6743284e-05
6.5386193e-05
7.3208592e-05
8.4484807e-05
9.2075766e-05
9.3633465e-05
8.8749038e-05
7.7749242e-05
6.1423789e-05
4.1180666e-05
1.6766932e-05
7.4040366e-05
8.0900137e-05
9.0617435e-05
9.6681557e-05
9.6870227e-05
9.0830077e-05
7.8925471e-05
6.1965486e-05
4.135056e-05
1.6790065e-05
8.2742014e-05
8.8366671e-05
9.6367341e-05
0.00010090239
9.9788776e-05
9.2679996e-05
7.9955621e-05
6.2432091e-05
4.1495009e-05
1.6812422e-05
9.1117889e-05
9.5426059e-05
0.00010167344
0.00010471485
0.000102379
9.4294467e-05
8.0837823e-05
6.2822515e-05
4.1613192e-05
1.6833721e-05
9.8903851e-05
0.00010194512
0.00010649022
0.00010810303
0.00010463432
9.5670456e-05
8.1570514e-05
6.3135747e-05
4.1704389e-05
1.6853677e-05
0.00010594357
0.00010783754
0.00011078865
0.00011106007
0.00010655368
9.6808078e-05
8.2153798e-05
6.3371634e-05
4.1768292e-05
1.6872017e-05
0.00011216727
0.00011305897
0.00011455649
0.00011358887
0.00010814282
9.7711931e-05
8.2590515e-05
6.3531548e-05
4.180527e-05
1.6888509e-05
0.0001175661
0.00011759987
0.00011779739
0.00011570192
0.00010941451
9.8391688e-05
8.2886851e-05
6.3618777e-05
4.1816513e-05
1.6902976e-05
0.00012217021
0.00012147735
0.00012052883
0.00011742016
0.00011038795
9.8861963e-05
8.3052426e-05
6.3638642e-05
4.1804069e-05
1.6915311e-05
0.00012603258
0.00012472737
0.0001227794
0.00011877141
0.00011108765
9.9141596e-05
8.309993e-05
6.3598319e-05
4.1770765e-05
1.692549e-05
0.00012921819
0.00012739797
0.0001245858
0.00011978848
0.00011154193
9.9252562e-05
8.3044414e-05
6.3506429e-05
4.1720024e-05
1.6933562e-05
0.00013179695
0.00012954401
0.00012598988
0.00012050729
0.00011178132
9.9218699e-05
8.2902367e-05
6.3372484e-05
4.1655621e-05
1.6939646e-05
0.00013383936
0.00013122312
0.00012703615
0.00012096508
0.00011183709
9.9064428e-05
8.2690748e-05
6.3206259e-05
4.1581404e-05
1.6943914e-05
0.00013541362
0.00013249278
0.00012776954
0.00012119889
0.00011173995
9.8813626e-05
8.242609e-05
6.3017211e-05
4.1501035e-05
1.6946573e-05
0.00013658401
0.00013340833
0.00012823381
0.00012124434
0.00011151904
9.8488753e-05
8.2123808e-05
6.2814032e-05
4.1417794e-05
1.6947846e-05
0.00013740989
0.0001340217
0.00012847041
0.00012113481
0.00011120125
9.8110264e-05
8.1797738e-05
6.2604354e-05
4.1334463e-05
1.6947959e-05
0.00013794527
0.00013438067
0.00012851774
0.00012090098
0.00011081088
9.769631e-05
8.1459906e-05
6.2394629e-05
4.1253296e-05
1.6947128e-05
0.0001382387
0.00013452858
0.00012841083
0.00012057052
0.00011036946
9.7262637e-05
8.1120474e-05
6.2190116e-05
4.1176038e-05
1.6945555e-05
0.00013833345
0.0001345043
0.00012818119
0.00012016809
0.00010989577
9.6822606e-05
8.078778e-05
6.1994945e-05
4.1103968e-05
1.6943424e-05
0.00013826777
0.00013434232
0.00012785681
0.00011971531
0.00010940585
9.6387238e-05
8.0468336e-05
6.1811921e-05
4.1036869e-05
1.6940883e-05
0.00013807521
0.00013407299
0.00012746227
0.00011923085
0.00010891314
9.5965284e-05
8.0166813e-05
6.164216e-05
4.0975909e-05
1.693806e-05
0.00013778493
0.0001337227
0.00012701883
0.00011873052
0.00010842848
9.5563241e-05
7.9885787e-05
6.1487773e-05
4.0921577e-05
1.6935082e-05
0.00013742204
0.00013331416
0.00012654459
0.00011822735
0.00010796026
9.5185247e-05
7.9628366e-05
6.1349541e-05
4.0874026e-05
1.6932053e-05
0.00013700795
0.00013286664
0.0001260547
0.00011773174
0.00010751433
9.483554e-05
7.9395948e-05
6.1227644e-05
4.0833146e-05
1.6929056e-05
0.00013656067
0.00013239627
0.00012556136
0.00011725158
0.00010709637
9.4516478e-05
7.918903e-05
6.1121806e-05
4.0798646e-05
1.6926154e-05
0.00013609507
0.00013191614
0.00012507464
0.0001167942
0.00010671006
9.4229269e-05
7.9007435e-05
6.1031422e-05
4.0770123e-05
1.6923396e-05
0.00013562347
0.00013143746
0.00012460331
0.00011636491
0.00010635773
9.3974222e-05
7.8850467e-05
6.0955647e-05
4.074711e-05
1.6920814e-05
0.0001351563
0.00013096959
0.00012415419
0.00011596748
0.0001060406
9.3750909e-05
7.8717018e-05
6.0893461e-05
4.0729101e-05
1.6918434e-05
0.00013470208
0.00013051998
0.00012373239
0.00011560433
0.00010575891
9.3558284e-05
7.8605649e-05
6.0843714e-05
4.0715564e-05
1.691627e-05
0.00013426756
0.00013009438
0.00012334155
0.00011527673
0.00010551209
9.3394802e-05
7.8514674e-05
6.080517e-05
4.0705951e-05
1.6914327e-05
0.00013385787
0.00012969699
0.000122984
0.00011498496
0.00010529892
9.3258553e-05
7.8442245e-05
6.0776554e-05
4.0699722e-05
1.6912606e-05
0.00013347673
0.0001293307
0.00012266096
0.0001147285
0.00010511769
9.3147385e-05
7.8386455e-05
6.0756613e-05
4.0696362e-05
1.6911099e-05
0.00013312662
0.00012899728
0.00012237276
0.00011450623
0.00010496633
9.3059034e-05
7.834541e-05
6.0744154e-05
4.0695399e-05
1.6909799e-05
0.000132809
0.00012869754
0.00012211902
0.00011431657
0.0001048426
9.2991201e-05
7.8317283e-05
6.073807e-05
4.0696414e-05
1.6908693e-05
0.00013252446
0.00012843152
0.00012189874
0.00011415758
0.0001047441
9.2941608e-05
7.8300334e-05
6.0737341e-05
4.0699035e-05
1.690777e-05
0.00013227288
0.00012819865
0.00012171049
0.00011402706
0.00010466836
9.2908021e-05
7.8292914e-05
6.0741029e-05
4.0702926e-05
1.6907016e-05
0.00013205353
0.00012799777
0.00012155242
0.00011392264
0.00010461288
9.2888269e-05
7.8293468e-05
6.0748265e-05
4.070778e-05
1.6906416e-05
0.00013186515
0.00012782732
0.00012142242
0.00011384182
0.00010457519
9.2880268e-05
7.830054e-05
6.0758253e-05
4.0713321e-05
1.6905955e-05
0.00013170611
0.00012768539
0.00012131816
0.00011378203
0.00010455284
9.2882058e-05
7.8312798e-05
6.077028e-05
4.0719303e-05
1.6905616e-05
0.00013157445
0.0001275698
0.00012123718
0.00011374073
0.00010454356
9.2891832e-05
7.8329044e-05
6.0783722e-05
4.0725519e-05
1.6905384e-05
0.000131468
0.00012747825
0.000121177
0.00011371548
0.00010454517
9.2907956e-05
7.834823e-05
6.0798051e-05
4.0731802e-05
1.6905246e-05
0.00013138448
0.00012740836
0.00012113516
0.00011370393
0.00010455573
9.2928977e-05
7.836945e-05
6.0812826e-05
4.0738016e-05
1.6905186e-05
0.00013132154
0.00012735772
0.00012110928
0.00011370391
0.00010457343
9.2953607e-05
7.8391921e-05
6.0827678e-05
4.0744056e-05
1.6905192e-05
0.00013127684
0.00012732398
0.00012109707
0.00011371336
0.00010459664
9.2980706e-05
7.8414969e-05
6.0842296e-05
4.0749832e-05
1.6905254e-05
0.00013124808
0.00012730484
0.00012109634
0.00011373042
0.00010462391
9.3009278e-05
7.8438017e-05
6.0856421e-05
4.0755274e-05
1.6905359e-05
0.00013123301
0.00012729809
0.00012110507
0.00011375336
0.00010465395
9.3038464e-05
7.8460585e-05
6.0869845e-05
4.0760324e-05
1.6905498e-05
0.0001312295
0.00012730166
0.00012112138
0.00011378066
0.00010468562
9.3067547e-05
7.8482286e-05
6.0882403e-05
4.0764901e-05
1.690566e-05
0.00013123557
0.00012731365
0.00012114359
0.00011381097
0.000104718
9.3095944e-05
7.8502817e-05
6.0893946e-05
4.0768983e-05
1.6905839e-05
0.0001312494
0.00012733231
0.00012117019
0.00011384314
0.00010475029
9.3123194e-05
7.8521935e-05
6.0904417e-05
4.07726e-05
1.6906026e-05
0.00013126934
0.00012735609
0.00012119988
0.0001138762
0.00010478185
9.314892e-05
7.8539497e-05
6.0913824e-05
4.0775774e-05
1.6906217e-05
0.00013129391
0.0001273836
0.0001212315
0.00011390931
0.00010481215
9.3172853e-05
7.8555453e-05
6.0922175e-05
4.0778531e-05
1.6906408e-05
0.0001313218
0.00012741363
0.00012126405
0.00011394174
0.00010484075
9.3194847e-05
7.8569766e-05
6.0929495e-05
4.0780895e-05
1.6906596e-05
0.00013135183
0.00012744509
0.00012129665
0.00011397292
0.00010486738
9.3214785e-05
7.8582429e-05
6.0935814e-05
4.0782889e-05
1.6906778e-05
0.00013138296
0.000127477
0.00012132858
0.00011400241
0.00010489183
9.3232607e-05
7.8593463e-05
6.0941175e-05
4.0784532e-05
1.690695e-05
0.0001314143
0.00012750862
0.00012135929
0.00011402989
0.00010491395
9.3248306e-05
7.8602919e-05
6.0945628e-05
4.0785847e-05
1.6907111e-05
0.00013144514
0.00012753931
0.00012138834
0.00011405513
0.0001049337
9.3261931e-05
7.8610879e-05
6.0949241e-05
4.0786863e-05
1.6907258e-05
0.00013147494
0.00012756861
0.00012141544
0.00011407803
0.00010495111
9.3273581e-05
7.8617456e-05
6.0952095e-05
4.0787614e-05
1.6907392e-05
0.0001315033
0.00012759619
0.0001214404
0.00011409856
0.00010496626
9.3283395e-05
7.862278e-05
6.0954278e-05
4.0788137e-05
1.6907512e-05
0.00013152994
0.00012762185
0.00012146314
0.00011411676
0.00010497928
9.329153e-05
7.8626991e-05
6.0955884e-05
4.0788472e-05
1.6907618e-05
0.00013155469
0.00012764546
0.00012148365
0.00011413272
0.00010499032
9.3298148e-05
7.8630223e-05
6.0956997e-05
4.0788653e-05
1.6907712e-05
0.00013157745
0.00012766695
0.00012150193
0.00011414654
0.00010499953
9.3303401e-05
7.8632595e-05
6.0957689e-05
4.078871e-05
1.6907794e-05
0.00013159815
0.0001276863
0.00012151804
0.00011415834
0.00010500706
9.3307424e-05
7.8634211e-05
6.0958021e-05
4.0788663e-05
1.6907864e-05
0.00013161677
0.00012770352
0.00012153204
0.00011416822
0.00010501303
9.3310341e-05
7.8635159e-05
6.0958041e-05
4.0788525e-05
1.6907924e-05
0.00013163328
0.00012771862
0.00012154399
0.0001141763
0.00010501758
9.331227e-05
7.8635525e-05
6.0957791e-05
4.078831e-05
1.6907973e-05
0.00013164772
0.00012773165
0.00012155401
0.00011418273
0.00010502086
9.3313337e-05
7.8635395e-05
6.0957318e-05
4.078803e-05
1.6908013e-05
0.00013166014
0.00012774271
0.00012156223
0.00011418766
0.00010502302
9.3313674e-05
7.8634859e-05
6.0956669e-05
4.07877e-05
1.6908043e-05
0.00013167065
0.00012775193
0.0001215688
0.00011419127
0.00010502425
9.3313421e-05
7.8634015e-05
6.0955899e-05
4.0787341e-05
1.6908064e-05
0.00013167937
0.00012775945
0.00012157392
0.00011419376
0.0001050247
9.3312712e-05
7.8632954e-05
6.0955057e-05
4.0786972e-05
1.6908079e-05
0.00013168649
0.00012776547
0.00012157776
0.0001141953
0.00010502454
9.3311668e-05
7.8631755e-05
6.0954188e-05
4.078661e-05
1.6908089e-05
0.00013169215
0.00012777014
0.0001215805
0.00011419606
0.00010502389
9.3310384e-05
7.8630478e-05
6.095332e-05
4.0786266e-05
1.6908094e-05
0.00013169651
0.00012777361
0.00012158229
0.00011419616
0.00010502286
9.3308928e-05
7.8629162e-05
6.0952472e-05
4.0785944e-05
1.6908096e-05
0.00013169969
0.00012777602
0.00012158324
0.00011419569
0.00010502152
9.3307347e-05
7.8627828e-05
6.0951648e-05
4.0785642e-05
1.6908095e-05
0.00013170179
0.00012777747
0.00012158345
0.00011419475
0.00010501993
9.330567e-05
7.862649e-05
6.0950849e-05
4.0785355e-05
1.6908091e-05
0.00013170291
0.00012777804
0.00012158301
0.00011419339
0.00010501813
9.3303926e-05
7.8625156e-05
6.0950073e-05
4.078508e-05
1.6908084e-05
0.00013170315
0.00012777784
0.00012158199
0.0001141917
0.00010501618
9.3302147e-05
7.8623843e-05
6.0949325e-05
4.0784814e-05
1.6908075e-05
)
;

boundaryField
{
    water_inlet
    {
        type            calculated;
        value           uniform 4.1926275e-05;
    }
    water_outlet
    {
        type            calculated;
        value           nonuniform List<scalar> 10(0.00013170315 0.00012777784 0.00012158199 0.0001141917 0.00010501618 9.3302147e-05 7.8623843e-05 6.0949325e-05 4.0784814e-05 1.6908075e-05);
    }
    water_wedge1
    {
        type            wedge;
    }
    water_wedge2
    {
        type            wedge;
    }
    water_to_rock
    {
        type            nutkWallFunction;
        blending        stepwise;
        value           nonuniform List<scalar> 
100
(
1.7358471e-06
1.9240026e-06
1.9263124e-06
1.8751054e-06
1.822911e-06
1.7867869e-06
1.7671186e-06
1.758465e-06
1.7555994e-06
1.7553225e-06
1.7561179e-06
1.7574034e-06
1.7590036e-06
1.7608813e-06
1.7630285e-06
1.7654318e-06
1.7680552e-06
1.7708579e-06
1.7738126e-06
1.7768956e-06
1.7800824e-06
1.7833462e-06
1.7866595e-06
1.7899941e-06
1.7933209e-06
1.7966091e-06
1.7998252e-06
1.8029328e-06
1.805893e-06
1.8086663e-06
1.811215e-06
1.8135063e-06
1.8155157e-06
1.8172286e-06
1.8186416e-06
1.8197622e-06
1.8206071e-06
1.8212001e-06
1.8215697e-06
1.8217466e-06
1.8217622e-06
1.8216465e-06
1.8214279e-06
1.8211319e-06
1.8207791e-06
1.8203873e-06
1.8199739e-06
1.8195532e-06
1.8191368e-06
1.8187337e-06
1.8183506e-06
1.8179922e-06
1.8176619e-06
1.8173615e-06
1.8170917e-06
1.8168525e-06
1.8166432e-06
1.8164625e-06
1.816309e-06
1.816181e-06
1.8160763e-06
1.815993e-06
1.8159289e-06
1.8158818e-06
1.8158496e-06
1.8158303e-06
1.815822e-06
1.8158229e-06
1.8158314e-06
1.8158459e-06
1.8158651e-06
1.8158876e-06
1.8159124e-06
1.8159384e-06
1.815965e-06
1.8159916e-06
1.8160177e-06
1.8160429e-06
1.8160667e-06
1.816089e-06
1.8161095e-06
1.8161281e-06
1.8161449e-06
1.81616e-06
1.8161732e-06
1.8161847e-06
1.8161946e-06
1.8162029e-06
1.8162097e-06
1.816215e-06
1.8162192e-06
1.8162222e-06
1.8162244e-06
1.8162258e-06
1.8162265e-06
1.8162266e-06
1.8162263e-06
1.8162255e-06
1.8162243e-06
1.8162228e-06
)
;
    }
}


// ************************************************************************* //
