/*--------------------------------*- C++ -*----------------------------------*\
| =========                 |                                                 |
| \\      /  F ield         | OpenFOAM: The Open Source CFD Toolbox           |
|  \\    /   O peration     | Version:  2506                                  |
|   \\  /    A nd           | Website:  www.openfoam.com                      |
|    \\/     M anipulation  |                                                 |
\*---------------------------------------------------------------------------*/
FoamFile
{
    version     2.0;
    format      ascii;
    arch        "LSB;label=32;scalar=64";
    class       surfaceScalarField;
    location    "30000/water";
    object      phi;
}
// * * * * * * * * * * * * * * * * * * * * * * * * * * * * * * * * * * * * * //

dimensions      [1 0 -1 0 0 0 0];

oriented        oriented;

internalField   nonuniform List<scalar> 
1890
(
-4.1736248e-05
0.0022168351
-0.00015753622
0.0059586937
-0.00032930669
0.0087985477
-0.00054203243
0.010900937
-0.00078239504
0.012402155
-0.0010351826
0.013412336
-0.0012746193
0.014013996
-0.0014359745
0.014245356
-0.001284859
0.0140006
0.012745539
-3.1455823e-05
0.0022482909
-0.00011269722
0.006039935
-0.00023219387
0.0089180443
-0.00037999424
0.011048737
-0.00054594259
0.012568103
-0.00071649908
0.013582893
-0.00086674521
0.014164242
-0.00093361964
0.01431223
-0.00073394519
0.013800926
0.012011594
-2.9138826e-05
0.0022774298
-0.00010672995
0.0061175261
-0.00022105541
0.0090323697
-0.00036160328
0.011189285
-0.00051700146
0.012723501
-0.00067116245
0.013737054
-0.00079396222
0.014287042
-0.00081139888
0.014329667
-0.00056730051
0.013556827
0.011444293
-2.7339928e-05
0.0023047697
-0.00010102594
0.0061912121
-0.00020924231
0.0091405861
-0.00034097885
0.011321022
-0.00048374649
0.012866269
-0.00061911465
0.013872422
-0.00071088186
0.014378809
-0.00067660017
0.014295385
-0.00042026244
0.01330049
0.011024031
-2.5625222e-05
0.0023303949
-9.4386091e-05
0.006259973
-0.00019506678
0.0092412667
-0.00031669835
0.011442653
-0.00044589445
0.012995465
-0.00056132281
0.01398785
-0.00061882562
0.014436312
-0.00053651058
0.01421307
-0.00029565376
0.013059633
0.010728377
-2.415949e-05
0.0023545544
-8.8799476e-05
0.006324613
-0.00018306041
0.0093355277
-0.00029574154
0.011555334
-0.00041210841
0.013111832
-0.00050662197
0.014082364
-0.00052703427
0.014456724
-0.00040878181
0.014094818
-0.000200431
0.012851282
0.010527946
-2.2965501e-05
0.0023775199
-8.4333533e-05
0.006385981
-0.00017335355
0.0094245477
-0.00027826881
0.01166025
-0.00038232706
0.01321589
-0.00045437863
0.014154415
-0.00043820503
0.014440551
-0.00030321642
0.013959829
-0.00013378856
0.012681854
0.010394158
-2.2023864e-05
0.0023995437
-8.0769878e-05
0.006444727
-0.00016540596
0.0095091837
-0.00026327235
0.011758116
-0.00035472739
0.013307345
-0.00040244434
0.014202132
-0.00035546029
0.014393567
-0.0002223711
0.01382674
-8.9856685e-05
0.01254934
0.010304301
-2.1260582e-05
0.0024208043
-7.7812672e-05
0.0065012791
-0.00015855251
0.0095899235
-0.00024948566
0.011849049
-0.00032712294
0.013384982
-0.00034954684
0.014224556
-0.00028213043
0.01432615
-0.00016300346
0.013707613
-6.1426711e-05
0.012447763
0.010242874
-2.0607158e-05
0.0024414115
-7.5216707e-05
0.0065558886
-0.0001522325
0.0096669393
-0.00023577801
0.011932595
-0.00029784677
0.013447051
-0.00029644843
0.014223158
-0.0002202396
0.014249941
-0.00011980541
0.013607179
-4.2689303e-05
0.012370647
0.010200185
-2.0018287e-05
0.0024614298
-7.2804722e-05
0.0066086751
-0.00014600142
0.009740136
-0.00022120596
0.012007799
-0.00026613551
0.01349198
-0.00024532012
0.014202342
-0.00016974855
0.01417437
-8.7951766e-05
0.013525382
-2.9806043e-05
0.012312501
0.010170379
-1.9463529e-05
0.0024808933
-7.0441401e-05
0.0066596529
-0.00013947753
0.0098091721
-0.00020502204
0.012073344
-0.0002322811
0.01351924
-0.00019838513
0.014168446
-0.00012919767
0.014105182
-6.3918646e-05
0.013460103
-2.0485954e-05
0.012269068
0.010149893
-1.8918741e-05
0.002499812
-6.8008103e-05
0.0067087423
-0.00013229873
0.0098734627
-0.00018675568
0.012127801
-0.00019748156
0.013529965
-0.00015698
0.014127945
-9.67002e-05
0.014044902
-4.5354673e-05
0.013408757
-1.3426428e-05
0.01223714
0.010136466
-1.8360391e-05
0.0025181724
-6.5381818e-05
0.0067557637
-0.00012410697
0.0099321879
-0.00016633449
0.012170028
-0.00016333281
0.013526964
-0.00012140675
0.014086019
-7.0530309e-05
0.013994026
-3.0719769e-05
0.013368947
-7.8893704e-06
0.01221431
0.010128577
-1.7761435e-05
0.0025359339
-6.2419699e-05
0.006800422
-0.00011457704
0.0099843452
-0.00014416274
0.012199614
-0.00013124037
0.013514041
-9.1273941e-05
0.014046052
-4.9296995e-05
0.013952049
-1.8986946e-05
0.013338637
-3.4329766e-06
0.012198756
0.010125144
-1.7087921e-05
0.0025530218
-5.8952556e-05
0.0068422866
-0.00010349051
0.010028883
-0.00012105303
0.012217176
-0.00010208401
0.013495072
-6.5900349e-05
0.014009869
-3.1933436e-05
0.013918082
-9.4520535e-06
0.013316155
2.8613078e-07
0.012189017
0.01012543
-1.629646e-05
0.0025693182
-5.4793257e-05
0.0068807834
-9.0832341e-05
0.010064922
-9.7998954e-05
0.012224343
-7.6210339e-05
0.013473284
-4.457258e-05
0.013978231
-1.7627755e-05
0.013891137
-1.5577211e-06
0.013300085
3.3714742e-06
0.012184088
0.010128802
-1.5331742e-05
0.00258465
-4.9761914e-05
0.0069152136
-7.6852493e-05
0.010092013
-7.5898285e-05
0.012223389
-5.3588612e-05
0.013450974
-2.6634238e-05
0.013951277
-5.7250654e-06
0.013870228
4.9983258e-06
0.013289362
5.8498417e-06
0.012183237
0.010134652
-1.4126713e-05
0.0025987767
-4.373261e-05
0.0069448196
-6.2043936e-05
0.010110324
-5.5379024e-05
0.012216724
-3.398528e-05
0.01342958
-1.1511138e-05
0.013928803
4.2384215e-06
0.013854479
1.0369067e-05
0.013283231
7.8676736e-06
0.012185738
0.010142519
-1.2609117e-05
0.0026113858
-3.669462e-05
0.0069689051
-4.7031068e-05
0.010120661
-3.67749e-05
0.012206468
-1.7080162e-05
0.013409886
1.3286378e-06
0.013910394
1.2527355e-05
0.01384328
1.4774288e-05
0.013280984
9.5160524e-06
0.012190997
0.010152035
-1.0718593e-05
0.0026221044
-2.8800768e-05
0.0069869873
-3.2420108e-05
0.01012428
-2.0181502e-05
0.012194229
-2.4815031e-06
0.013392186
1.2170917e-05
0.013895741
1.9375547e-05
0.013836075
1.8388581e-05
0.013281971
1.0860892e-05
0.012198524
0.010162896
-8.4362532e-06
0.0026305407
-2.0369272e-05
0.0069989203
-1.868474e-05
0.010122596
-5.518226e-06
0.012181063
1.0030259e-05
0.013376637
2.1195732e-05
0.013884576
2.5022051e-05
0.013832249
2.1343369e-05
0.01328565
1.1950162e-05
0.012207918
0.010174846
-5.8189253e-06
0.0026363596
-1.1825404e-05
0.0070049268
-6.110665e-06
0.010116881
7.2765086e-06
0.012167676
2.0570054e-05
0.013363344
2.8683583e-05
0.013876462
2.9653086e-05
0.01383128
2.3736859e-05
0.013291566
1.281836e-05
0.012218836
0.010187665
-3.014258e-06
0.0026393739
-3.5961367e-06
0.0070055087
5.1024681e-06
0.010108182
1.8190489e-05
0.012154588
2.9353903e-05
0.01335218
3.4839278e-05
0.013870977
3.340612e-05
0.013832713
2.5640181e-05
0.013299332
1.3489665e-05
0.012230987
0.010201154
-2.3422296e-07
0.0026396081
3.9067225e-06
0.0070013677
1.4739745e-05
0.010097349
2.7284549e-05
0.012142043
3.6559087e-05
0.013342906
3.9811593e-05
0.013867725
3.6376846e-05
0.013836148
2.710054e-05
0.013308609
1.3978884e-05
0.012244108
0.010215133
2.2769039e-06
0.0026373312
1.0308388e-05
0.0069933363
2.2681226e-05
0.010084976
3.4655316e-05
0.012130069
4.2308205e-05
0.013335253
4.3696611e-05
0.013866336
3.8621739e-05
0.013841222
2.8141663e-05
0.013319089
1.4290913e-05
0.012257959
0.010229424
4.3216749e-06
0.0026330096
1.5394943e-05
0.006982263
2.892033e-05
0.010071451
4.037312e-05
0.012118616
4.6677353e-05
0.013328949
4.6545821e-05
0.013866468
4.0163663e-05
0.013847605
2.8766722e-05
0.013330486
1.4421834e-05
0.012272304
0.010243846
5.8172006e-06
0.0026271924
1.9123604e-05
0.0069689566
3.3492954e-05
0.010057082
4.4499302e-05
0.01210761
4.9715186e-05
0.013323733
4.8382337e-05
0.013867801
4.1003703e-05
0.013854983
2.8965699e-05
0.013342524
1.4362246e-05
0.012286908
0.010258208
6.775617e-06
0.0026204167
2.1562172e-05
0.00695417
3.6486595e-05
0.010042157
4.7107692e-05
0.012096988
5.1466173e-05
0.013319374
4.9221163e-05
0.013870046
4.1136606e-05
0.013863068
2.8725635e-05
0.013354935
1.4102463e-05
0.012301531
0.010272311
7.2691933e-06
0.0026131475
2.2857243e-05
0.006938582
3.8041441e-05
0.010026973
4.8301203e-05
0.012086729
5.1991189e-05
0.013315684
4.9088367e-05
0.013872948
4.0566098e-05
0.01387159
2.8040933e-05
0.01336746
1.3637281e-05
0.012315934
0.010285948
7.3945802e-06
0.002605753
2.3198944e-05
0.0069227776
3.8341424e-05
0.010011831
4.8219232e-05
0.012076851
5.138147e-05
0.013312522
4.8035968e-05
0.013876294
3.9317701e-05
0.013880308
2.6922493e-05
0.013379855
1.2970739e-05
0.012329886
0.010298919
7.2477748e-06
0.0025985052
2.2789443e-05
0.006907236
3.7597501e-05
0.0099970225
4.7034402e-05
0.012067414
4.9762671e-05
0.013309794
4.614882e-05
0.013879908
3.7445557e-05
0.013889012
2.5402719e-05
0.013391898
1.2118371e-05
0.01234317
0.010311037
6.9116741e-06
0.0025915935
2.1820368e-05
0.0068923273
3.6028863e-05
0.009982814
4.494187e-05
0.012058501
4.7290364e-05
0.013307445
4.3543611e-05
0.013883654
3.5032934e-05
0.013897522
2.3536206e-05
0.013403395
1.1107583e-05
0.012355599
0.010322145
6.4524262e-06
0.0025851411
2.0459913e-05
0.0068783198
3.3846503e-05
0.0099694274
4.2145266e-05
0.012050202
4.4139548e-05
0.013305451
4.0361326e-05
0.013887433
3.2186817e-05
0.013905697
2.1395963e-05
0.013414185
9.9754993e-06
0.01236702
0.01033212
5.9203646e-06
0.0025792207
1.8847828e-05
0.0068653923
3.124162e-05
0.0099570336
3.8843185e-05
0.012042601
4.0491892e-05
0.013303802
3.6756135e-05
0.013891168
2.9028795e-05
0.013913424
1.906675e-05
0.013424147
8.7654049e-06
0.012377321
0.010340886
5.3525999e-06
0.0025738681
1.7095469e-05
0.0068536494
2.8379014e-05
0.0099457501
3.5218338e-05
0.012035761
3.6523369e-05
0.013302497
3.2883247e-05
0.013894809
2.5684344e-05
0.013920623
1.6636849e-05
0.013433195
7.5221318e-06
0.012386436
0.010348408
4.7758616e-06
0.0025690923
1.5288594e-05
0.0068431367
2.5394803e-05
0.0099356439
3.1430493e-05
0.012029726
3.2394547e-05
0.013301533
2.8888386e-05
0.013898315
2.2273023e-05
0.013927238
1.4190508e-05
0.013441277
6.2881139e-06
0.012394338
0.010354696
4.2089438e-06
0.0025648833
1.3491157e-05
0.0068338545
2.2397032e-05
0.009926738
2.7612914e-05
0.01202451
2.8244047e-05
0.013300902
2.4899895e-05
0.013901659
1.8900756e-05
0.013933238
1.1801769e-05
0.013448376
5.0998514e-06
0.01240104
0.010359796
3.6647076e-06
0.0025612186
1.1749332e-05
0.0068257699
1.9468251e-05
0.0099190191
2.3871943e-05
0.012020106
2.4185606e-05
0.013300589
2.1024412e-05
0.01390482
1.5655373e-05
0.013938607
9.5310054e-06
0.013454501
3.9862378e-06
0.012406585
0.010363782
3.1516136e-06
0.002558067
1.0095181e-05
0.0068188263
1.6668982e-05
0.0099124453
2.0288662e-05
0.012016486
2.0307868e-05
0.013300569
1.7345491e-05
0.013907782
1.2604912e-05
0.013943347
7.4236558e-06
0.013459682
2.9680076e-06
0.01241104
0.01036675
2.6748903e-06
0.0025553921
8.5498265e-06
0.0068129514
1.404147e-05
0.0099069536
1.6921815e-05
0.012013606
1.6676149e-05
0.013300815
1.3924522e-05
0.013910534
9.7981999e-06
0.013947473
5.5107728e-06
0.013463969
2.0582011e-06
0.012414493
0.010368808
2.2374174e-06
0.0025531547
7.1260784e-06
0.0068080627
1.1613259e-05
0.0099024664
1.3811242e-05
0.012011408
1.3335252e-05
0.013301291
1.0802993e-05
0.013913066
7.2667814e-06
0.01395101
3.8107236e-06
0.013467426
1.2633747e-06
0.01241704
0.010370071
1.8403752e-06
0.0025513143
5.830529e-06
0.0068040725
9.4003756e-06
0.0098988966
1.0981358e-05
0.012009827
1.0312783e-05
0.01330196
8.0055326e-06
0.013915374
5.0276872e-06
0.013953987
2.3315497e-06
0.013470122
5.8509015e-07
0.012418787
0.010370657
1.4837141e-06
0.0025498306
4.6651208e-06
0.0068008911
7.4098492e-06
0.0098961519
8.4440419e-06
0.012008793
7.6219606e-06
0.013302782
5.5424297e-06
0.013917453
3.085658e-06
0.013956444
1.0736506e-06
0.013472134
3.1482795e-08
0.012419829
0.010370688
1.1664482e-06
0.0025486641
3.6281367e-06
0.0067984294
5.6413315e-06
0.0098941387
6.2004754e-06
0.012008234
5.2633734e-06
0.013303719
3.4114471e-06
0.013919305
1.4361535e-06
0.01395842
3.8817846e-08
0.013473531
-4.120622e-07
0.01242028
0.010370276
8.8694133e-07
0.0025477772
2.7152504e-06
0.0067966011
4.0890598e-06
0.0098927649
4.2439291e-06
0.012008079
3.2286352e-06
0.013304734
1.6029118e-06
0.013920931
7.3856303e-08
0.013959949
-7.9644323e-07
0.013474401
-7.7058068e-07
0.012420254
0.010369505
6.4316089e-07
0.002547134
1.9204946e-06
0.0067953238
2.7438167e-06
0.0098919415
2.562831e-06
0.01200826
1.5047881e-06
0.013305792
1.0629169e-07
0.013922329
-1.0298547e-06
0.013961085
-1.4653166e-06
0.013474837
-1.0488884e-06
0.012419837
0.010368456
4.3284483e-07
0.0025467012
1.2368773e-06
0.0067945198
1.5942613e-06
0.0098915841
1.143139e-06
0.012008711
7.8095486e-08
0.013306857
-1.1090408e-06
0.013923516
-1.9123922e-06
0.013961888
-1.9815771e-06
0.013474906
-1.2535342e-06
0.012419109
0.010367203
2.5364279e-07
0.0025464476
6.5705769e-07
0.0067941163
6.2884755e-07
0.0098916124
-2.9579796e-08
0.012009369
-1.0813731e-06
0.013307909
-2.0811075e-06
0.013924516
-2.5943163e-06
0.013962401
-2.3606855e-06
0.013474672
-1.392907e-06
0.012418142
0.01036581
1.0329953e-07
0.0025463443
1.7399433e-07
0.0067940457
-1.6594734e-07
0.0098919523
-9.8197103e-07
0.012010185
-2.0088588e-06
0.013308936
-2.8336315e-06
0.013925341
-3.0966924e-06
0.013962664
-2.6189818e-06
0.013474195
-1.4757769e-06
0.012416998
0.010364334
-2.0660997e-08
0.0025463649
-2.2154229e-07
0.0067942465
-8.100268e-07
0.0098925408
-1.742939e-06
0.012011118
-2.7274698e-06
0.01330992
-3.3900746e-06
0.013926003
-3.4411314e-06
0.013962715
-2.7729089e-06
0.013473526
-1.5108185e-06
0.012415736
0.010362823
-1.2124769e-07
0.0025464862
-5.4034024e-07
0.0067946656
-1.322052e-06
0.0098933225
-2.3314528e-06
0.012012128
-3.2598865e-06
0.013310849
-3.7742054e-06
0.013926518
-3.6491441e-06
0.01396259
-2.8384868e-06
0.013472716
-1.5062812e-06
0.012414404
0.010361317
-2.0124556e-07
0.0025466874
-7.9111993e-07
0.0067952555
-1.7156657e-06
0.009894247
-2.7667192e-06
0.012013179
-3.6288609e-06
0.013311711
-4.0094888e-06
0.013926898
-3.7416219e-06
0.013962322
-2.8310091e-06
0.013471805
-1.4699144e-06
0.012413043
0.010359847
-2.6291507e-07
0.0025469503
-9.8131101e-07
0.0067959739
-2.0044075e-06
0.0098952701
-3.0676436e-06
0.012014242
-3.8565685e-06
0.0133125
-4.1184713e-06
0.01392716
-3.7383164e-06
0.013961942
-2.7646747e-06
0.013470831
-1.4087605e-06
0.012411687
0.010358439
-3.0840062e-07
0.0025472587
-1.1181297e-06
0.0067967836
-2.2014486e-06
0.0098963535
-3.2524814e-06
0.012015293
-3.9641889e-06
0.013313212
-4.1223625e-06
0.013927319
-3.6574779e-06
0.013961477
-2.6523733e-06
0.013469826
-1.3291515e-06
0.012410364
0.010357109
-3.3972684e-07
0.0025475985
-1.2084604e-06
0.0067976524
-2.3193275e-06
0.0098974643
-3.3384658e-06
0.012016312
-3.9714439e-06
0.013313845
-4.0405682e-06
0.013927388
-3.515463e-06
0.013960952
-2.5053679e-06
0.013468816
-1.2364302e-06
0.012409095
0.010355873
-3.5880349e-07
0.0025479573
-1.2587979e-06
0.0067985524
-2.3698219e-06
0.0098985754
-3.3416151e-06
0.012017284
-3.8963961e-06
0.013314399
-3.8905307e-06
0.013927382
-3.3266383e-06
0.013960388
-2.3333181e-06
0.013467823
-1.1351023e-06
0.012407897
0.010354738
-3.6741367e-07
0.0025483247
-1.2751974e-06
0.0067994602
-2.3638373e-06
0.009899664
-3.2766018e-06
0.012018197
-3.7553368e-06
0.013314878
-3.6876756e-06
0.013927314
-3.1034353e-06
0.013959804
-2.1443592e-06
0.013466864
-1.0288149e-06
0.012406781
0.010353709
-3.6721421e-07
0.0025486919
-1.2632652e-06
0.0068003562
-2.3113991e-06
0.0099007122
-3.1567632e-06
0.012019042
-3.5628625e-06
0.013315284
-3.4455929e-06
0.013927197
-2.856579e-06
0.013959215
-1.945352e-06
0.013465953
-9.2056936e-07
0.012405756
0.010352788
-3.5973894e-07
0.0025490516
-1.228164e-06
0.0068012246
-2.2216764e-06
0.0099017057
-2.9941696e-06
0.012019815
-3.3320117e-06
0.013315622
-3.1762389e-06
0.013927041
-2.5953614e-06
0.013958634
-1.7421458e-06
0.013465099
-8.1289409e-07
0.012404827
0.010351976
-3.4639499e-07
0.002549398
-1.1746154e-06
0.0068020529
-2.102984e-06
0.009902634
-2.7996572e-06
0.012020511
-3.074337e-06
0.013315897
-2.8900587e-06
0.013926857
-2.327789e-06
0.013958072
-1.5397199e-06
0.013464311
-7.0790688e-07
0.012403995
0.010351268
-3.2846481e-07
0.0025497265
-1.1068988e-06
0.0068028313
-1.9628003e-06
0.0099034899
-2.5828513e-06
0.012021131
-2.7999613e-06
0.013316114
-2.5960606e-06
0.013926653
-2.0606448e-06
0.013957537
-1.3422208e-06
0.013463593
-6.0735902e-07
0.01240326
0.01035066
-3.070987e-07
0.0025500336
-1.028838e-06
0.006803553
-1.8077369e-06
0.0099042688
-2.3521424e-06
0.012021676
-2.517541e-06
0.013316279
-2.3017797e-06
0.013926437
-1.7994561e-06
0.013957034
-1.1529153e-06
0.013462946
-5.1257119e-07
0.01240262
0.010350148
-2.8331811e-07
0.0025503169
-9.4380069e-07
0.0068042135
-1.6435442e-06
0.0099049686
-2.1146979e-06
0.012022147
-2.2343118e-06
0.013316399
-2.0133291e-06
0.013926216
-1.5485345e-06
0.01395657
-9.7423797e-07
0.013462372
-4.2448052e-07
0.01240207
0.010349723
-2.5801158e-07
0.0025505749
-8.5469819e-07
0.0068048102
-1.4751201e-06
0.009905589
-1.8765001e-06
0.012022548
-1.9561407e-06
0.013316478
-1.7354903e-06
0.013925996
-1.3110815e-06
0.013956145
-8.0783173e-07
0.013461869
-3.4359868e-07
0.012401606
0.01034938
-2.3194729e-07
0.0025508069
-7.6401428e-07
0.0068053423
-1.306577e-06
0.0099061316
-1.6424567e-06
0.012022884
-1.6877022e-06
0.013316524
-1.4719116e-06
0.01392578
-1.0893923e-06
0.013955763
-6.5476521e-07
0.013461434
-2.7021935e-07
0.012401222
0.010349109
-2.057727e-07
0.0025510126
-6.7383105e-07
0.0068058103
-1.1413029e-06
0.0099065991
-1.4165186e-06
0.012023159
-1.4326352e-06
0.01331654
-1.2253016e-06
0.013925572
-8.850313e-07
0.013955422
-5.1564412e-07
0.013461065
-2.0439063e-07
0.01240091
0.010348905
-1.800336e-07
0.0025511927
-5.8587362e-07
0.0068062162
-9.8205522e-07
0.0099069952
-1.2018161e-06
0.012023379
-1.1937262e-06
0.013316532
-9.9763345e-07
0.013925376
-6.9905056e-07
0.013955124
-3.9080342e-07
0.013460757
-1.461196e-07
0.012400666
0.010348759
-1.5517047e-07
0.0025513479
-5.0152709e-07
0.0068065625
-8.3099759e-07
0.0099073247
-1.0007267e-06
0.012023549
-9.7297451e-07
0.013316504
-7.9018248e-07
0.013925194
-5.3198234e-07
0.013954866
-2.802614e-07
0.013460505
-9.5248935e-08
0.012400481
0.010348664
-1.3153508e-07
0.0025514794
-4.2187121e-07
0.0068068529
-6.8976626e-07
0.0099075926
-8.1494968e-07
0.012023674
-7.7167969e-07
0.013316461
-6.036182e-07
0.013925025
-3.8390737e-07
0.013954646
-1.8377726e-07
0.013460305
-5.1563551e-08
0.012400349
0.010348612
-1.0938626e-07
0.0025515888
-3.4768898e-07
0.0068070912
-5.5947866e-07
0.0099078044
-6.4552494e-07
0.01202376
-5.9043982e-07
0.013316406
-4.3796573e-07
0.013924873
-2.5439111e-07
0.013954462
-1.0070055e-07
0.013460151
-1.4147706e-08
0.012400262
0.010348598
-8.8914202e-08
0.0025516777
-2.7952212e-07
0.0068072818
-4.4084457e-07
0.0099079657
-4.9298186e-07
0.012023812
-4.2934836e-07
0.013316342
-2.9281422e-07
0.013924736
-1.4263353e-07
0.013954312
-2.9857082e-08
0.013460038
1.7404905e-08
0.012400215
0.010348615
-7.0235584e-08
0.0025517479
-2.1768663e-07
0.0068074292
-3.3419533e-07
0.0099080822
-3.5738983e-07
0.012023835
-2.8801819e-07
0.013316273
-1.6729649e-07
0.013924616
-4.7264389e-08
0.013954192
2.9654362e-08
0.013459961
4.2807448e-08
0.012400202
0.010348658
-5.3417409e-08
0.0025518013
-1.6232335e-07
0.0068075381
-2.3957004e-07
0.0099081595
-2.3845881e-07
0.012023834
-1.6569244e-07
0.0133162
-6.0104622e-08
0.01392451
3.2880699e-08
0.013954099
7.7947873e-08
0.013459916
6.2427455e-08
0.012400217
0.010348721
-3.8472921e-08
0.0025518398
-1.1341043e-07
0.0068076131
-1.5673937e-07
0.0099082028
-1.3556695e-07
0.012023813
-6.1199553e-08
0.013316126
3.0044572e-08
0.013924419
9.8224468e-08
0.013954031
1.1573107e-07
0.013459899
7.7146276e-08
0.012400256
0.010348798
-2.5380167e-08
0.0025518652
-7.0807551e-08
0.0068076585
-8.5272579e-08
0.0099082173
-4.7784745e-08
0.012023776
2.6610001e-08
0.013316051
1.0366827e-07
0.013924342
1.4954081e-07
0.013953985
1.4418114e-07
0.013459904
8.7580664e-08
0.012400312
0.010348885
-1.4076662e-08
0.0025518793
-3.424332e-08
0.0068076787
-2.4479849e-08
0.0099082075
2.5804917e-08
0.012023725
9.830767e-08
0.013315979
1.6160698e-07
0.013924279
1.8829091e-07
0.013953958
1.6439213e-07
0.013459928
9.4291097e-08
0.012400382
0.01034898
-4.4604791e-09
0.0025518837
-3.3244657e-09
0.0068076775
2.6225566e-08
0.009908178
8.5729191e-08
0.012023666
1.5475279e-07
0.01331591
2.0545574e-07
0.013924228
2.1589252e-07
0.013953948
1.773711e-07
0.013459967
9.7753181e-08
0.012400462
0.010349077
3.5667638e-09
0.0025518802
2.222727e-08
0.0068076589
6.7279039e-08
0.0099081329
1.32859e-07
0.0120236
1.9755917e-07
0.013315845
2.3687281e-07
0.013924189
2.3380595e-07
0.013953951
1.8416007e-07
0.013460016
9.8483279e-08
0.012400548
0.010349176
1.008751e-08
0.0025518701
4.2691067e-08
0.0068076263
9.9427662e-08
0.0099080762
1.6858227e-07
0.012023531
2.2837073e-07
0.013315785
2.575338e-07
0.013924159
2.4348295e-07
0.013953965
1.8578295e-07
0.013460074
9.6948045e-08
0.012400637
0.010349273
1.5229521e-08
0.0025518548
5.8572758e-08
0.0068075829
1.2368845e-07
0.0099080111
1.9433151e-07
0.01202346
2.4886366e-07
0.013315731
2.6912433e-07
0.013924139
2.4638566e-07
0.013953988
1.8328778e-07
0.013460137
9.3706168e-08
0.012400726
0.010349366
1.9137754e-08
0.0025518357
7.0400296e-08
0.0068075317
1.4105149e-07
0.0099079404
2.1148256e-07
0.01202339
2.6061858e-07
0.013315681
2.7320398e-07
0.013924127
2.4383366e-07
0.013954017
1.7759595e-07
0.013460203
8.9180561e-08
0.012400815
0.010349456
2.1961349e-08
0.0025518137
7.8691214e-08
0.0068074749
1.5247104e-07
0.0099078666
2.2133662e-07
0.012023321
2.6510521e-07
0.013315638
2.7119507e-07
0.01392412
2.3701408e-07
0.013954051
1.695363e-07
0.013460271
8.3808617e-08
0.0124009
0.010349539
2.3834177e-08
0.0025517899
8.3915046e-08
0.0068074149
1.5879497e-07
0.0099077917
2.2502488e-07
0.012023255
2.6355682e-07
0.013315599
2.6424678e-07
0.01392412
2.268442e-07
0.013954089
1.5969964e-07
0.013460338
7.7824254e-08
0.012400982
0.010349617
2.4886519e-08
0.002551765
8.6509103e-08
0.0068073532
1.6079718e-07
0.0099077175
2.2355624e-07
0.012023192
2.5705022e-07
0.013315566
2.5333382e-07
0.013924123
2.140706e-07
0.013954128
1.4855785e-07
0.013460403
7.1463101e-08
0.012401059
0.010349689
2.523357e-08
0.0025517398
8.6860738e-08
0.0068072916
1.5914981e-07
0.0099076452
2.1778606e-07
0.012023134
2.464727e-07
0.013315537
2.3922725e-07
0.013924131
1.9924567e-07
0.013954168
1.3641747e-07
0.013460466
6.4808982e-08
0.012401131
0.010349754
2.4988953e-08
0.0025517148
8.5337461e-08
0.0068072313
1.5448393e-07
0.009907576
2.0851371e-07
0.01202308
2.3265114e-07
0.013315513
2.2264765e-07
0.013924141
1.8290282e-07
0.013954208
1.2358427e-07
0.013460526
5.7992645e-08
0.012401196
0.010349812
2.425573e-08
0.0025516905
8.2278574e-08
0.0068071732
1.473797e-07
0.0099075109
1.9647364e-07
0.01202303
2.1633919e-07
0.013315493
2.0425265e-07
0.013924153
1.6551323e-07
0.013954247
1.1032258e-07
0.013460581
5.1078855e-08
0.012401256
0.010349863
2.3139932e-08
0.0025516674
7.8021468e-08
0.0068071184
1.3841739e-07
0.0099074505
1.8240638e-07
0.012022986
1.9832709e-07
0.013315477
1.847642e-07
0.013924166
1.4765166e-07
0.013954284
9.7013636e-08
0.013460631
4.4267629e-08
0.012401308
0.010349907
2.1733618e-08
0.0025516457
7.2874845e-08
0.0068070672
1.281307e-07
0.0099073953
1.6700017e-07
0.012022948
1.7933955e-07
0.013315465
1.6484012e-07
0.013924181
1.2983419e-07
0.013954319
8.3990629e-08
0.013460677
3.768414e-08
0.012401355
0.010349945
2.0128755e-08
0.0025516255
6.7136096e-08
0.0068070202
1.1703133e-07
0.0099073454
1.509069e-07
0.012022914
1.6007726e-07
0.013315456
1.451332e-07
0.013924196
1.1259038e-07
0.013954351
7.1625475e-08
0.013460718
3.1550728e-08
0.012401395
0.010349976
1.8395569e-08
0.0025516071
6.1044968e-08
0.0068069775
1.0552991e-07
0.0099073009
1.3464499e-07
0.012022885
1.4106633e-07
0.013315449
1.2610211e-07
0.013924211
9.626877e-08
0.013954381
6.0134002e-08
0.013460754
2.5930758e-08
0.012401429
0.010350002
1.6598487e-08
0.0025515905
5.4809026e-08
0.0068069393
9.3971754e-08
0.0099072617
1.1862912e-07
0.01202286
1.2271558e-07
0.013315445
1.0808689e-07
0.013924225
8.1110357e-08
0.013954408
4.9665818e-08
0.013460786
2.0920774e-08
0.012401458
0.010350023
1.478232e-08
0.0025515758
4.8575018e-08
0.0068069055
8.2592331e-08
0.0099072277
1.031217e-07
0.012022839
1.0524958e-07
0.013315443
9.122808e-08
0.013924239
6.7164881e-08
0.013954432
4.0198701e-08
0.013460813
1.6472813e-08
0.012401481
0.010350039
1.2982617e-08
0.0025515628
4.2452073e-08
0.0068068761
7.1550997e-08
0.0099071986
8.8279785e-08
0.012022823
8.8764032e-08
0.013315442
7.5535809e-08
0.013924253
5.4364408e-08
0.013954453
3.1635601e-08
0.013460835
1.2514277e-08
0.0124015
0.010350052
1.1227866e-08
0.0025515515
3.6521313e-08
0.0068068508
6.0959999e-08
0.0099071741
7.4199226e-08
0.012022809
7.3303669e-08
0.013315443
6.0984826e-08
0.013924265
4.2623641e-08
0.013954472
2.386659e-08
0.013460854
8.9676216e-09
0.012401515
0.010350061
9.5405928e-09
0.002551542
3.0845795e-08
0.0068068295
5.0904251e-08
0.0099071541
6.0951826e-08
0.012022799
5.8892312e-08
0.013315445
4.7544189e-08
0.013924276
3.1867581e-08
0.013954487
1.6793323e-08
0.013460869
5.7458887e-09
0.012401526
0.010350067
7.9401466e-09
0.0025515341
2.548216e-08
0.0068068119
4.1467058e-08
0.0099071381
4.8624289e-08
0.012022792
4.5602023e-08
0.013315448
3.5252413e-08
0.013924287
2.2100795e-08
0.0139545
1.0398948e-08
0.013460881
2.8387585e-09
0.012401534
0.01035007
6.4543439e-09
0.0025515276
2.0505236e-08
0.0068067979
3.2792642e-08
0.0099071258
3.7454228e-08
0.012022787
3.3763603e-08
0.013315452
2.4515276e-08
0.013924296
1.3746403e-08
0.013954511
5.0477495e-09
0.01346089
4.6049288e-10
0.012401539
0.01035007
2.9036575e-09
9.188961e-09
1.4567883e-08
1.6390363e-08
1.4459529e-08
1.0096785e-08
5.2821943e-09
1.5981974e-09
-3.4208318e-11
)
;

boundaryField
{
    water_inlet
    {
        type            calculated;
        value           nonuniform List<scalar> 10(-0.0021750989 -0.0058428937 -0.0086267772 -0.010688211 -0.012161792 -0.013159549 -0.01377456 -0.014084001 -0.014151716 -0.014030398);
    }
    water_outlet
    {
        type            calculated;
        value           nonuniform List<scalar> 10(0.0025515247 0.0068067916 0.0099071205 0.012022786 0.013315454 0.0139243 0.013954516 0.013460893 0.01240154 0.01035007);
    }
    water_wedge1
    {
        type            wedge;
        value           nonuniform List<scalar> 
1000
(
-1.129627e-13
-1.4267453e-13
-1.1215742e-13
-1.0631399e-13
-9.9358999e-14
-9.339222e-14
-8.8689917e-14
-8.4952168e-14
-8.1976875e-14
-7.9491089e-14
-7.7280809e-14
-7.5238237e-14
-7.3267257e-14
-7.1278994e-14
-6.9183466e-14
-6.685659e-14
-6.41338e-14
-6.0814584e-14
-5.6667327e-14
-5.140922e-14
-4.4795444e-14
-3.6661693e-14
-2.7078604e-14
-1.6554402e-14
-5.8648077e-15
4.0621574e-15
1.2375097e-14
1.8668626e-14
2.2899196e-14
2.530061e-14
2.621933e-14
2.6006939e-14
2.5030786e-14
2.351172e-14
2.1685265e-14
1.9704867e-14
1.7623792e-14
1.5587851e-14
1.361116e-14
1.1729789e-14
9.9974899e-15
8.3926047e-15
6.9340649e-15
5.6143269e-15
4.4341663e-15
3.4020199e-15
2.5013544e-15
1.7155537e-15
1.0421861e-15
4.7624427e-16
1.2298103e-17
-3.6880758e-16
-6.7404895e-16
-9.0447573e-16
-1.0863382e-15
-1.2097275e-15
-1.2871142e-15
-1.3282799e-15
-1.3304696e-15
-1.3071967e-15
-1.2632525e-15
-1.2084989e-15
-1.1311474e-15
-1.0471375e-15
-9.5612045e-16
-8.5794418e-16
-7.6612047e-16
-6.7401561e-16
-5.8542062e-16
-5.0254902e-16
-4.2034551e-16
-3.3763303e-16
-2.6662945e-16
-2.0848891e-16
-1.5800488e-16
-1.0658317e-16
-6.0625333e-17
-3.0268471e-17
2.2781156e-18
3.0626931e-17
4.8439525e-17
5.9563711e-17
7.2046014e-17
8.2791047e-17
8.3558571e-17
8.8229261e-17
8.7387228e-17
8.1820636e-17
8.0019881e-17
7.2070508e-17
7.0402066e-17
6.4686033e-17
5.3693889e-17
5.0405974e-17
4.2854389e-17
4.2023698e-17
3.5440896e-17
2.4345593e-17
1.8630408e-17
6.6966287e-18
-6.8081444e-13
-1.0335471e-12
-8.3929136e-13
-7.9752856e-13
-7.4939912e-13
-7.031395e-13
-6.6536559e-13
-6.3522979e-13
-6.1093765e-13
-5.9052975e-13
-5.7245008e-13
-5.556046e-13
-5.3912456e-13
-5.2219999e-13
-5.0397502e-13
-4.8343138e-13
-4.5934312e-13
-4.3018787e-13
-3.9436506e-13
-3.5055267e-13
-2.9813854e-13
-2.3765426e-13
-1.7103277e-13
-1.015546e-13
-3.3370832e-14
2.8946385e-14
8.1485505e-14
1.2214875e-13
1.5063668e-13
1.6797466e-13
1.7589506e-13
1.763554e-13
1.7127106e-13
1.6227529e-13
1.507314e-13
1.3769303e-13
1.2392755e-13
1.1003714e-13
9.6438665e-14
8.3436532e-14
7.1224757e-14
5.9906485e-14
4.9554226e-14
4.0194691e-14
3.1825807e-14
2.4416536e-14
1.7932797e-14
1.231662e-14
7.5090759e-15
3.4627929e-15
1.1095078e-16
-2.6193029e-15
-4.8026332e-15
-6.4999927e-15
-7.7708489e-15
-8.6590091e-15
-9.2165445e-15
-9.4954906e-15
-9.5308214e-15
-9.3740149e-15
-9.0620409e-15
-8.6214645e-15
-8.0825038e-15
-7.4752332e-15
-6.830026e-15
-6.1575184e-15
-5.4784511e-15
-4.8120722e-15
-4.157551e-15
-3.5419848e-15
-2.9658856e-15
-2.417738e-15
-1.9194804e-15
-1.4762733e-15
-1.081957e-15
-7.3350265e-16
-4.315989e-16
-1.747139e-16
4.573736e-17
2.2092948e-16
3.5929748e-16
4.6805052e-16
5.4320525e-16
6.0124398e-16
6.316386e-16
6.4252659e-16
6.4479784e-16
6.2626726e-16
5.9671925e-16
5.6363909e-16
5.2232068e-16
4.82354e-16
4.3450829e-16
3.8333928e-16
3.3851337e-16
2.9532417e-16
2.5203304e-16
2.0837674e-16
1.7138525e-16
9.8072072e-17
3.1339107e-12
4.8023003e-12
3.9072338e-12
3.7113874e-12
3.4900562e-12
3.2689372e-12
3.0860222e-12
2.9387813e-12
2.8176153e-12
2.7124768e-12
2.6152706e-12
2.5197171e-12
2.420508e-12
2.3123572e-12
2.1894943e-12
2.0461135e-12
1.8774923e-12
1.6810989e-12
1.4574243e-12
1.2105498e-12
9.4809048e-13
6.8016519e-13
4.1759849e-13
1.7020153e-13
-5.3293197e-14
-2.4553011e-13
-4.021581e-13
-5.2203604e-13
-6.0636743e-13
-6.5807716e-13
-6.8130885e-13
-6.8089035e-13
-6.6178019e-13
-6.2868203e-13
-5.8578344e-13
-5.3662903e-13
-4.8410832e-13
-4.3048389e-13
-3.7748253e-13
-3.2636186e-13