/*--------------------------------*- C++ -*----------------------------------*\
| =========                 |                                                 |
| \\      /  F ield         | OpenFOAM: The Open Source CFD Toolbox           |
|  \\    /   O peration     | Version:  2506                                  |
|   \\  /    A nd           | Website:  www.openfoam.com                      |
|    \\/     M anipulation  |                                                 |
\*---------------------------------------------------------------------------*/
FoamFile
{
    version     2.0;
    format      ascii;
    arch        "LSB;label=32;scalar=64";
    class       volVectorField;
    location    "30000/water";
    object      U;
}
// * * * * * * * * * * * * * * * * * * * * * * * * * * * * * * * * * * * * * //

dimensions      [0 1 -1 0 0 0 0];

internalField   nonuniform List<vector> 
1000
(
(0.25225587 -0.00012859767 2.9841108e-18)
(0.25226258 -0.00027067836 1.4983578e-18)
(0.25227485 -0.0004145054 2.2669937e-18)
(0.25228819 -0.00055572716 3.5416267e-19)
(0.25229018 -0.00068575789 7.4258718e-19)
(0.25223998 -0.00079863172 4.3319126e-20)
(0.25200713 -0.00089615194 -2.27612e-19)
(0.25115686 -0.0010460356 -3.6564524e-19)
(0.24780473 -0.0012820719 -2.3170714e-19)
(0.23308261 0.0010121611 -4.616539e-19)
(0.25653043 -7.7330448e-05 9.9573054e-19)
(0.25653977 -0.0001890383 2.0986743e-18)
(0.25655871 -0.00029096535 2.7505901e-18)
(0.25657276 -0.00039024484 8.2076813e-19)
(0.25654377 -0.00048175036 7.2792924e-19)
(0.25636039 -0.00055898439 1.7017803e-19)
(0.25570613 -0.00060536494 -2.4152454e-19)
(0.25355952 -0.00065441362 -4.6655133e-19)
(0.24574266 -0.00084724772 -3.5649004e-19)
(0.21968686 0.00025718802 -4.9239679e-19)
(0.26021787 -7.3909971e-05 -2.5124794e-18)
(0.26022468 -0.00018059829 7.3714446e-19)
(0.26023383 -0.00027741904 8.7679549e-19)
(0.26021807 -0.00037159732 6.3705065e-19)
(0.26010153 -0.00045735761 -1.185942e-19)
(0.25968006 -0.00053044581 -1.9757851e-20)
(0.25840621 -0.00057093063 -1.5986252e-19)
(0.25452353 -0.00056554676 -3.9061051e-19)
(0.24186464 -0.00061987577 -4.4137012e-19)
(0.20839343 1.1252944e-05 -4.1362649e-19)
(0.26340526 -6.8945974e-05 -2.8999784e-19)
(0.26340956 -0.00017058504 5.9657448e-19)
(0.26340596 -0.00026279221 4.6268826e-19)
(0.2633478 -0.00035138357 5.7911092e-20)
(0.26310913 -0.00042951125 -1.9478602e-19)
(0.26237282 -0.00049394967 -4.7058185e-19)
(0.26030373 -0.00052750915 -2.7191711e-19)
(0.25430847 -0.00049289731 -4.3196342e-19)
(0.23723183 -0.00045933996 -4.2338644e-19)
(0.19958842 -4.8874332e-05 -3.4028208e-19)
(0.26641628 -6.4388962e-05 -8.6045831e-20)
(0.26641555 -0.00015946873 1.0769701e-18)
(0.266392 -0.00024539856 6.6380338e-19)
(0.26627267 -0.00032748765 -1.0711597e-19)
(0.26586988 -0.00039791749 8.1265137e-20)
(0.26472852 -0.00045250625 -3.5928223e-20)
(0.26164541 -0.00047360842 -4.6102753e-20)
(0.25321248 -0.00041483708 -3.2557288e-19)
(0.23271016 -0.00033459138 -3.6834354e-19)
(0.19329513 -5.0631304e-05 -3.3284667e-19)
(0.26927573 -6.0867539e-05 1.159122e-18)
(0.26926715 -0.0001502433 1.4390173e-18)
(0.2692148 -0.00023070446 1.0305799e-18)
(0.26901237 -0.00030702741 3.1357014e-19)
(0.26839647 -0.00037050011 7.8014036e-20)
(0.26673516 -0.00041493271 4.1733099e-19)
(0.26236787 -0.00041871916 -7.4166105e-21)
(0.25136278 -0.00033835151 -1.6881952e-19)
(0.22869804 -0.00023663017 -8.4478258e-20)
(0.18902132 -3.9494986e-05 -3.0998122e-19)
(0.27197991 -5.8057561e-05 1.8245964e-18)
(0.27196006 -0.0001428714 2.590022e-18)
(0.27186829 -0.00021894842 6.6958163e-19)
(0.2715565 -0.00029030361 7.3783969e-19)
(0.27066607 -0.00034729001 -7.4642347e-20)
(0.2683315 -0.00038068305 8.1815087e-20)
(0.26239846 -0.00036437331 -1.9116031e-19)
(0.24902639 -0.00026852618 -1.8900101e-19)
(0.22536103 -0.00016272845 -4.5051809e-20)
(0.18616829 -2.8775058e-05 -3.2903508e-19)
(0.27455816 -5.5861853e-05 -1.0459639e-18)
(0.27452281 -0.00013703216 2.0068041e-18)
(0.27437848 -0.00020952025 1.0287143e-18)
(0.27392442 -0.00027640514 7.58232e-19)
(0.27267855 -0.00032682101 1.0170545e-19)
(0.26947683 -0.00034738433 1.5105856e-19)
(0.26178464 -0.00031092685 1.2829353e-19)
(0.24657381 -0.0002081688 -9.8246287e-20)
(0.22271523 -0.00011050089 -2.9492113e-19)
(0.1842584 -2.0836448e-05 -2.3886389e-19)
(0.27704027 -5.408575e-05 1.0829122e-18)
(0.27698407 -0.00013225444 7.6243992e-19)
(0.27677058 -0.00020162587 1.5966834e-18)
(0.2761317 -0.00026417308 8.4274044e-19)
(0.27442311 -0.00030720603 4.2548061e-19)
(0.27014169 -0.00031294783 2.9663645e-19)
(0.26068996 -0.00025925798 1.4432881e-19)
(0.24429833 -0.00015836459 -2.1930578e-20)
(0.22067584 -7.5408543e-05 -2.871072e-20)
(0.18296199 -1.5153153e-05 -1.0442822e-20)
(0.27944341 -5.2555756e-05 3.6019969e-18)
(0.27935955 -0.0001281414 2.0929021e-18)
(0.27905543 -0.00019460764 3.6101709e-19)
(0.27817575 -0.00025259257 4.986025e-19)
(0.27586795 -0.00028673476 6.3214299e-19)
(0.2703264 -0.00027659229 1.5506706e-19)
(0.25933499 -0.00021094065 -1.5128722e-19)
(0.24234215 -0.00011891269 -9.1231298e-20)
(0.21912383 -5.2172421e-05 -6.1014539e-21)
(0.18206599 -1.0945857e-05 -9.2044138e-20)
(0.28177654 -5.1166655e-05 1.259034e-18)
(0.2816562 -0.00012441973 7.6176315e-19)
(0.2812333 -0.00018797306 -3.7369665e-19)
(0.28003901 -0.00024077472 6.8524451e-19)
(0.27697396 -0.00026417659 3.5136312e-19)
(0.27008759 -0.00023880413 -3.258344e-20)
(0.25792266 -0.00016762337 -1.417034e-19)
(0.2407318 -8.8481653e-05 -1.7597567e-19)
(0.21795022 -3.644604e-05 -2.1179455e-19)
(0.18143936 -7.6994365e-06 -1.788839e-19)
(0.28404477 -4.9854736e-05 1.1879417e-18)
(0.28387626 -0.00012089419 3.2326641e-19)
(0.2832974 -0.00018132913 4.7894261e-20)
(0.28169344 -0.00022787721 6.5084363e-19)
(0.27771471 -0.00023897382 2.1905634e-19)
(0.26953507 -0.00020087534 -7.758023e-20)
(0.25659136 -0.00013036498 -1.0225274e-19)
(0.23943781 -6.5171295e-05 -1.0842894e-19)
(0.21706902 -2.5325412e-05 -2.6195217e-19)
(0.18100323 -5.121965e-06 -2.1883163e-19)
(0.28625049 -4.8572077e-05 1.7256974e-18)
(0.28601827 -0.00011740091 5.8954408e-19)
(0.28523427 -0.00017430197 3.0790725e-20)
(0.28310494 -0.00021314204 5.1831852e-19)
(0.27809436 -0.00021129064 5.1228093e-19)
(0.26879938 -0.00016439813 1.9133726e-19)
(0.25541091 -9.9329482e-05 8.2790615e-20)
(0.238414 -4.7155977e-05 -6.006165e-20)
(0.21641539 -1.7079141e-05 -2.0655238e-19)
(0.18070893 -3.0436897e-06 -1.5828479e-19)
(0.28839355 -4.7270947e-05 1.0071755e-18)
(0.28807683 -0.00011377575 1.0527178e-18)
(0.28702342 -0.0001664599 3.0213613e-19)
(0.28424078 -0.00019602614 6.8419715e-19)
(0.27815546 -0.00018188547 5.3382043e-19)
(0.26799597 -0.00013078998 3.0970579e-19)
(0.25440305 -7.393764e-05 -2.3452976e-19)
(0.23761477 -3.3004496e-05 -2.0280092e-19)
(0.21594075 -1.0716549e-05 -2.1102424e-19)
(0.1805245 -1.3532025e-06 -2.2309927e-19)
(0.29047097 -4.5891426e-05 9.409402e-19)
(0.29004195 -0.00010982907 2.8770811e-18)
(0.2886378 -0.00015729308 7.4730677e-19)
(0.28508023 -0.00017633862 2.5675437e-19)
(0.2779708 -0.00015188732 3.9929031e-19)
(0.26720623 -0.00010094707 2.0226288e-19)
(0.253564 -5.3259383e-05 -3.2853625e-19)
(0.23700054 -2.1699277e-05 -2.8457488e-19)
(0.21560862 -5.6600825e-06 -2.0052343e-19)
(0.1804276 3.3581116e-08 -1.3140214e-19)
(0.29247637 -4.4351485e-05 1.3355234e-18)
(0.29189831 -0.00010531329 -6.0356706e-20)
(0.29004631 -0.000146282 5.142076e-19)
(0.2856247 -0.00015430652 6.3037967e-19)
(0.27762406 -0.00012253949 1.5744934e-19)
(0.26647731 -7.5148158e-05 -2.9302221e-19)
(0.25287922 -3.6358299e-05 -7.8448439e-20)
(0.23653862 -1.254486e-05 -1.8932037e-19)
(0.21539111 -1.527874e-06 -8.4652621e-20)
(0.18040204 1.2056481e-06 4.3238522e-20)
(0.294399 -4.2542594e-05 1.0916875e-18)
(0.29362441 -9.9894475e-05 5.0039921e-19)
(0.29121911 -0.00013303031 2.8723291e-19)
(0.28590173 -0.00013054536 5.2133223e-19)
(0.27719084 -9.494403e-05 -2.4863817e-19)
(0.26583132 -5.3198341e-05 -3.2038418e-19)
(0.25233096 -2.2452932e-05 -7.3085724e-20)
(0.23620235 -5.0205085e-06 1.6985964e-21)
(0.21526449 1.897478e-06 -5.4050705e-20)
(0.18043771 2.1937432e-06 -1.6084377e-19)
(0.29622248 -4.0322214e-05 1.5826067e-19)
(0.29519259 -9.3155289e-05 6.5234167e-19)
(0.29213505 -0.00011739305 2.4383242e-19)
(0.28595989 -0.00010594349 9.2000333e-19)
(0.2767282 -6.9857121e-05 2.703428e-19)
(0.26527515 -3.464927e-05 1.6661238e-19)
(0.25190109 -1.0910821e-05 1.4824176e-19)
(0.23596806 1.2317786e-06 -2.8123572e-20)
(0.21521691 4.7058682e-06 -1.0969421e-19)
(0.18052212 2.9886195e-06 -1.0184448e-19)
(0.29792334 -3.750125e-05 7.8339762e-19)
(0.29657069 -8.4660363e-05 4.1304401e-19)
(0.29278919 -9.9552191e-05 2.8114374e-19)
(0.28585702 -8.1496119e-05 3.4182841e-19)
(0.27627356 -4.7619195e-05 3.1800933e-19)
(0.26480712 -1.8983792e-05 1.6075794e-19)
(0.25157193 -1.2539033e-06 -1.9423742e-19)
(0.23582161 6.4204435e-06 -1.5466681e-19)
(0.21523437 6.9888317e-06 -1.6713631e-19)
(0.18064612 3.6200621e-06 -2.1874585e-19)
(0.29946982 -3.3841561e-05 -1.5564904e-18)
(0.29772604 -7.4080167e-05 1.1286547e-18)
(0.2931963 -8.0019705e-05 -2.5224168e-19)
(0.28564803 -5.812576e-05 -1.9979833e-18)
(0.2758486 -2.8225025e-05 -4.5883031e-19)
(0.26442119 -5.6902113e-06 -5.0314774e-19)
(0.25132936 6.8561085e-06 -2.3104918e-19)
(0.23575038 1.0704542e-05 -1.0112325e-19)
(0.21530525 8.8446316e-06 -6.7702049e-20)
(0.18080245 4.123054e-06 -3.7775348e-20)
(0.30082184 -2.9094797e-05 3.3713597e-19)
(0.29863175 -6.1332143e-05 1.3889582e-18)
(0.29338823 -5.9567095e-05 -3.3204667e-19)
(0.28537718 -3.6522457e-05 -8.3863963e-19)
(0.27546383 -1.1417112e-05 -9.5533801e-20)
(0.26410764 5.6162824e-06 -4.7639035e-19)
(0.2511654 1.3622946e-05 -1.694157e-19)
(0.23574182 1.4219208e-05 7.9777462e-21)
(0.21542012 1.0354489e-05 5.8966461e-20)
(0.18098521 4.5259564e-06 2.3259206e-19)
(0.30193374 -2.3108722e-05 4.1144768e-18)
(0.29927338 -4.6684755e-05 1.3904117e-18)
(0.29340604 -3.9091769e-05 4.4285443e-19)
(0.28507547 -1.7047817e-05 1.1178928e-18)
(0.27512088 3.0834514e-06 1.3825145e-18)
(0.26386444 1.5139722e-05 2.5804841e-19)
(0.25106782 1.920923e-05 -1.5176878e-19)
(0.2357854 1.7094233e-05 -3.4508671e-20)
(0.2155712 1.1580577e-05 6.4212584e-20)
(0.18118948 4.847639e-06 2.3778007e-20)
(0.3027611 -1.5976997e-05 -1.4981456e-18)
(0.29965288 -3.0773357e-05 -9.671838e-19)
(0.29329057 -1.9436593e-05 -4.6749031e-19)
(0.28476122 1.6736171e-07 -3.7764083e-19)
(0.27482457 1.5440252e-05 5.1355154e-19)
(0.26368339 2.3071017e-05 8.8284782e-20)
(0.25102649 2.3801951e-05 2.4045004e-19)
(0.2358724 1.9434095e-05 1.608835e-19)
(0.21575199 1.2564958e-05 7.5279646e-20)
(0.18141107 5.0991785e-06 9.3284544e-20)
(0.30327133 -8.1280448e-06 -1.1822346e-18)
(0.29978735 -1.448648e-05 1.5381557e-18)
(0.29307479 -1.3059156e-06 -8.5093096e-19)
(0.28444919 1.5039046e-05 -8.668817e-19)
(0.27457434 2.580363e-05 -9.7836746e-19)
(0.26355616 2.9613364e-05 -1.3692424e-20)
(0.25103262 2.7544511e-05 -8.7538756e-20)
(0.23599543 2.1311317e-05 7.7222583e-20)
(0.21595696 1.3336132e-05 9.363704e-20)
(0.18164628 5.2876348e-06 1.0412998e-19)
(0.30345397 -2.4255294e-07 2.2845055e-19)
(0.29970264 1.1324882e-06 1.1832353e-18)
(0.29278638 1.4661838e-05 -6.7935015e-19)
(0.28414894 2.7525373e-05 -8.5328284e-19)
(0.2743656 3.4336449e-05 -1.1277305e-18)
(0.26347497 3.4929715e-05 -2.5670489e-19)
(0.25107851 3.0535974e-05 -1.2567356e-19)
(0.2361481 2.2774105e-05 -6.0386772e-20)
(0.21618129 1.3912583e-05 2.6709582e-20)
(0.1818918 5.4172161e-06 8.5727085e-20)
(0.30332514 6.8807579e-06 -2.67208e-18)
(0.29943296 1.4984447e-05 -1.7680004e-18)
(0.2924469 2.7993536e-05 -1.0511987e-18)
(0.28386233 3.7676307e-05 -1.7853024e-18)
(0.27419303 4.1186845e-05 -1.380025e-18)
(0.26343257 3.9127659e-05 -8.132896e-19)
(0.2511573 3.2835807e-05 1.5635932e-19)
(0.23632475 2.3848843e-05 8.5974251e-20)
(0.21642057 1.430248e-05 1.0285177e-19)
(0.18214445 5.4887784e-06 1.8957675e-19)
(0.30293053 1.2606735e-05 1.247194e-18)
(0.29901533 2.6252462e-05 -1.0333026e-18)
(0.29206924 3.8507522e-05 -1.7958847e-19)
(0.28358877 4.5589434e-05 1.4754491e-19)
(0.27405096 4.6451685e-05 1.0256419e-18)
(0.2634222 4.2266627e-05 2.7427614e-19)
(0.25126272 3.447194e-05 1.7178798e-19)
(0.23652015 2.4543336e-05 1.8334413e-20)
(0.21667065 1.4504552e-05 1.0607154e-19)
(0.18240107 5.4999981e-06 1.3509617e-20)
(0.30233166 1.6686003e-05 1.4180106e-18)
(0.29848534 3.460055e-05 -7.4886157e-19)
(0.29166295 4.6231148e-05 -7.4769664e-19)
(0.28332653 5.1360026e-05 -1.0060448e-19)
(0.27393383 5.0194892e-05 9.3916217e-19)
(0.26343755 4.4378202e-05 3.3138819e-19)
(0.25138895 3.5452425e-05 -8.0726312e-20)
(0.23672934 2.4853045e-05 -8.7083788e-20)
(0.21692738 1.4511205e-05 2.8524724e-20)
(0.18265837 5.4464385e-06 -2.5501129e-21)
(0.30159327 1.9181973e-05 1.2520419e-18)
(0.2978766 4.0084183e-05 2.6905434e-18)
(0.29123637 5.1327065e-05 -8.8739572e-19)
(0.28307385 5.5102948e-05 -3.8112739e-19)
(0.2738365 5.2477991e-05 -1.0138093e-18)
(0.26347282 4.5486845e-05 -8.8375738e-20)
(0.25153053 3.5779006e-05 -4.0918636e-19)
(0.23694749 2.476979e-05 -1.7233828e-19)
(0.21718658 1.4313392e-05 -1.2521693e-19)
(0.18291285 5.3233718e-06 -3.9607074e-20)
(0.30077409 2.0343989e-05 -5.4596384e-19)
(0.29721995 4.30299e-05 1.7109096e-18)
(0.2907979 5.4063486e-05 -1.7092373e-20)
(0.28282963 5.6975233e-05 -6.6777668e-19)
(0.2737546 5.338287e-05 -1.1310483e-18)
(0.26352282 4.5627909e-05 -1.6718531e-19)
(0.25168237 3.546064e-05 -2.098132e-19)
(0.23716991 2.4290866e-05 -5.6457382e-20)
(0.217444 1.3905774e-05 -9.337693e-20)
(0.18316087 5.127662e-06 1.7071778e-20)
(0.29992223 2.0484051e-05 -1.9952595e-18)
(0.29654263 4.3899478e-05 -2.0401168e-18)
(0.29035627 5.4781246e-05 -8.5621662e-19)
(0.28259385 5.718248e-05 -2.1049321e-18)
(0.27368475 5.3024975e-05 -1.3853508e-18)
(0.26358307 4.4861064e-05 -1.1294704e-18)
(0.25183984 3.4524672e-05 -1.8505973e-19)
(0.23739211 2.3426998e-05 -3.4000632e-20)
(0.21769543 1.3291489e-05 2.4356904e-20)
(0.18339877 4.8596358e-06 1.3781971e-19)
(0.29907423 1.9897117e-05 2.7161566e-18)
(0.29586747 4.3180086e-05 -2.6693631e-19)
(0.28992021 5.3855948e-05 1.9433743e-19)
(0.2823675 5.5970348e-05 8.4949292e-19)
(0.27362456 5.1555498e-05 1.2730066e-18)
(0.26364989 4.3276019e-05 1.4391831e-19)
(0.2519988 3.3022698e-05 1.0973984e-19)
(0.23760991 2.220686e-05 -1.9248475e-20)
(0.21793688 1.2484952e-05 -7.171979e-20)
(0.18362303 4.5241927e-06 -1.4204519e-19)
(0.29825613 1.8826519e-05 -8.8697079e-19)
(0.29521262 4.1317076e-05 -3.1773691e-19)
(0.28949796 5.1662512e-05 5.8435372e-19)
(0.28215235 5.3607164e-05 1.1620752e-18)
(0.27357255 4.9154487e-05 1.4569849e-18)
(0.26372035 4.0990682e-05 1.0118177e-18)
(0.25215572 3.1030689e-05 5.1098868e-19)
(0.2378196 2.0677659e-05 1.3313125e-19)
(0.21816473 1.151239e-05 -2.752073e-20)
(0.18383054 4.131087e-06 -9.7450029e-20)
(0.2974854 1.7458083e-05 2.6734951e-18)
(0.29459164 3.8684002e-05 3.1664846e-18)
(0.28909667 4.8548103e-05 3.6570971e-19)
(0.28195051 5.0364046e-05 3.362543e-19)
(0.27352797 4.6018313e-05 -8.1736133e-19)
(0.26379222 3.814338e-05 3.470744e-19)
(0.25230769 2.8643981e-05 -7.4789243e-20)
(0.23801802 1.8901824e-05 1.0165352e-19)
(0.21837595 1.0409815e-05 1.9768604e-21)
(0.18401879 3.6940685e-06 1.7987568e-20)
(0.29677287 1.5927406e-05 1.8811699e-18)
(0.29401392 3.5577065e-05 2.8927115e-18)
(0.28872206 4.481593e-05 3.8605156e-19)
(0.2817641 4.6497678e-05 -2.0735565e-19)
(0.27349053 4.2345736e-05 -8.1629662e-19)
(0.26386387 3.4882219e-05 -5.6862999e-19)
(0.25245241 2.5969292e-05 -2.4893133e-19)
(0.23820266 1.6951278e-05 -3.6392631e-20)
(0.21856819 9.2194276e-06 8.9018148e-20)
(0.18418597 3.2293546e-06 7.5712995e-20)
(0.29612444 1.4330617e-05 -4.3469558e-18)
(0.29348536 3.2221995e-05 -2.0631605e-18)
(0.28837831 4.0718567e-05 -8.356369e-20)
(0.28159488 4.2238044e-05 -9.825535e-19)
(0.27346016 3.8325432e-05 -5.3808578e-19)
(0.26393413 3.1354132e-05 -1.1205538e-18)
(0.25258815 2.3115769e-05 -2.2290864e-20)
(0.23837166 1.4900738e-05 -1.0804211e-19)
(0.21873988 7.9852949e-06 6.5641373e-20)
(0.1843311 2.7537811e-06 7.7083292e-20)
(0.29554243 1.2734403e-05 3.5748156e-18)
(0.29300901 2.8785565e-05 -7.0487738e-19)
(0.28806806 3.6458164e-05 5.5189333e-19)
(0.28144413 3.7781574e-05 1.1050543e-18)
(0.27343686 3.4126759e-05 1.4042119e-18)
(0.26400216 2.7695695e-05 9.2727213e-19)
(0.2527137 2.0186983e-05 3.388925e-19)
(0.23852383 1.2821571e-05 4.4715816e-20)
(0.2188902 6.7493932e-06 -9.0254627e-20)
(0.18445399 2.2831662e-06 -6.7671628e-20)
(0.29502659 1.1184011e-05 1.1517892e-18)
(0.29258573 2.5387574e-05 8.9914183e-19)
(0.28779255 3.2190756e-05 4.543918e-19)
(0.28131252 3.3288939e-05 4.0943419e-19)
(0.27342051 2.9894265e-05 9.1865352e-19)
(0.26406734 2.4026687e-05 8.0919551e-19)
(0.25282827 1.7274957e-05 2.7073502e-19)
(0.23865858 1.0777147e-05 1.1683455e-19)
(0.21901906 5.5486491e-06 -2.5868939e-20)
(0.18455516 1.8311758e-06 -1.4788164e-20)
(0.2945749 9.7092313e-06 2.0577464e-18)
(0.29221469 2.2111481e-05 4.0742845e-18)
(0.28755187 2.8032525e-05 1.6662165e-18)
(0.28120012 2.8886195e-05 9.9064116e-19)
(0.2734109 2.5745571e-05 -2.9032169e-19)
(0.26412921 2.0446604e-05 7.8371687e-20)
(0.25293145 1.4456574e-05 -1.5316058e-19)
(0.23877584 8.8199957e-06 5.4567531e-20)
(0.21912697 4.4131544e-06 9.8584898e-20)
(0.18463572 1.4087019e-06 -3.2300543e-20)
(0.29418416 8.328788e-06 5.9386257e-18)
(0.29189389 1.9013223e-05 3.9908443e-18)
(0.28734516 2.4066627e-05 2.1160147e-18)
(0.28110651 2.4668093e-05 2.7365329e-18)
(0.27340761 2.1771916e-05 2.399131e-18)
(0.26418744 1.7033741e-05 1.5184698e-18)
(0.25302316 1.1792244e-05 6.3037617e-19)
(0.238876 6.9907028e-06 2.1326716e-19)
(0.21921496 3.365538e-06 1.3119212e-19)
(0.18469721 1.0237282e-06 -4.3533681e-20)
(0.29385042 7.0534855e-06 1.5909588e-18)
(0.2916205 1.6128169e-05 6.2988119e-19)
(0.28717086 2.034966e-05 3.4392877e-18)
(0.28103079 2.0702373e-05 2.9983799e-18)
(0.27341011 1.804036e-05 2.5759236e-18)
(0.26424177 1.3846068e-05 1.7421929e-18)
(0.25310353 9.3261697e-06 1.2114625e-18)
(0.23895979 5.3180299e-06 6.0616557e-19)
(0.2192844 2.4210639e-06 4.2695878e-19)
(0.18474149 6.8139523e-07 1.2463939e-19)
(0.29356928 5.8885112e-06 1.1729066e-18)
(0.29139116 1.3476541e-05 6.2596698e-19)
(0.28702688 1.6917416e-05 2.34736e-18)
(0.28097177 1.7034352e-05 2.9212886e-18)
(0.27341772 1.4596911e-05 2.1361808e-18)
(0.26429199 1.092329e-05 1.7080273e-18)
(0.25317294 7.0877555e-06 1.0932915e-18)
(0.23902821 3.819952e-06 8.281625e-19)
(0.21933695 1.5883471e-06 4.9531471e-19)
(0.18477057 3.8428932e-07 2.0101992e-19)
(0.2933361 4.8350775e-06 5.5105332e-20)
(0.29120217 1.1067533e-05 1.3969917e-18)
(0.28691079 1.3789754e-05 2.2621231e-18)
(0.28092798 1.3691344e-05 3.4292968e-18)
(0.27342969 1.1470043e-05 3.0771535e-18)
(0.26433799 8.2895616e-06 1.6394316e-18)
(0.2532319 5.0937557e-06 1.3238894e-18)
(0.23908249 2.5053353e-06 1.0522966e-18)
(0.21937441 8.7055243e-07 7.6210493e-19)
(0.18478653 1.329121e-07 5.0834299e-19)
(0.29314623 3.8915851e-06 1.2434201e-18)
(0.29104971 8.9023134e-06 2.4959638e-18)
(0.28681998 1.097439e-05 3.7747905e-18)
(0.28089781 1.0686323e-05 3.6790836e-18)
(0.27344521 8.6737847e-06 2.943289e-18)
(0.26437966 5.9559184e-06 1.6976312e-18)
(0.25328104 3.3499811e-06 1.54404e-18)
(0.23912394 1.3748839e-06 1.0882736e-18)
(0.21939866 2.7141213e-07 8.5297511e-19)
(0.18479143 -6.9954196e-08 6.2180963e-19)
(0.29299504 3.0543005e-06 3.4860157e-18)
(0.29092993 6.9758896e-06 2.7403079e-18)
(0.28675172 8.4693137e-06 1.8881942e-18)
(0.2808796 8.0202831e-06 1.4447745e-18)
(0.27346349 6.2096007e-06 2.2954682e-18)
(0.26441701 3.921739e-06 2.0807151e-18)
(0.25332108 1.8532818e-06 1.6114039e-18)
(0.23915392 4.2828857e-07 1.05546e-18)
(0.21941124 -2.140901e-07 7.0778371e-19)
(0.18478767 -2.2849547e-07 5.3134083e-19)
(0.29287809 2.3180801e-06 1.9021414e-18)
(0.29083906 5.2790053e-06 3.5554958e-18)
(0.28670331 6.2655227e-06 3.1962424e-18)
(0.28087166 5.6853671e-06 1.8780169e-18)
(0.27348375 4.0697553e-06 1.0118748e-18)
(0.26445004 2.1789123e-06 1.9569832e-18)
(0.25335275 5.9895671e-07 1.679409e-18)
(0.23917355 -3.4352541e-07 1.4159081e-18)
(0.2194146 -6.0434176e-07 1.1819623e-18)
(0.18477677 -3.5389233e-07 7.6239853e-19)
(0.29279116 1.6769694e-06 -1.1408776e-19)
(0.29077348 3.7997799e-06 1.9890849e-18)
(0.2866721 4.349515e-06 2.1352712e-18)
(0.28087237 3.6680812e-06 2.5784425e-18)
(0.27350524 2.2415671e-06 2.0864014e-18)
(0.26447878 7.1827572e-07 1.857816e-18)
(0.25337659 -4.2742462e-07 1.5912694e-18)
(0.23918483 -9.6365027e-07 1.4326995e-18)
(0.21941034 -9.1319419e-07 1.1067357e-18)
(0.18476022 -4.509736e-07 8.2672857e-19)
(0.29273025 1.124565e-06 5.1349771e-19)
(0.29072976 2.5246875e-06 8.164287e-19)
(0.2866556 2.7049206e-06 2.4075396e-18)
(0.28088014 1.9520287e-06 3.9385638e-18)
(0.27352725 7.1174714e-07 3.3249463e-18)
(0.26450318 -4.7903041e-07 2.2000426e-18)
(0.253394 -1.2537902e-06 1.6221488e-18)
(0.23918902 -1.451519e-06 1.3381963e-18)
(0.2193999 -1.147296e-06 1.1402158e-18)
(0.18473941 -5.2138245e-07 9.9952523e-19)
(0.29269166 6.5428325e-07 1.6986749e-18)
(0.29070468 1.4396011e-06 1.8633951e-18)
(0.2866514 1.3151793e-06 2.712883e-18)
(0.28089348 5.2134493e-07 3.4329048e-18)
(0.27354903 -5.4219618e-07 3.0428623e-18)
(0.2645239 -1.4444577e-06 2.5220041e-18)
(0.25340576 -1.9044463e-06 1.96823e-18)
(0.23918729 -1.8200494e-06 1.5700782e-18)
(0.21938462 -1.3135043e-06 1.3894351e-18)
(0.18471557 -5.6748539e-07 1.1035497e-18)
(0.29267195 2.6000064e-07 2.4148999e-18)
(0.29069525 5.3148264e-07 2.3592159e-18)
(0.28665724 1.6297589e-07 1.0652151e-18)
(0.28091095 -6.4950744e-07 9.939282e-19)
(0.2735705 -1.5538472e-06 2.4172604e-18)
(0.26454117 -2.2056366e-06 2.1102472e-18)
(0.25341263 -2.3971916e-06 2.0280573e-18)
(0.23918074 -2.0819361e-06 1.7853897e-18)
(0.21936572 -1.4200552e-06 1.4011178e-18)
(0.18468978 -5.923951e-07 1.0732217e-18)
(0.29266792 -6.4774364e-08 1.3911413e-18)
(0.29069864 -2.1550795e-07 2.8792307e-18)
(0.28667111 -7.7681479e-07 3.2526959e-18)
(0.28093166 -1.5932617e-06 1.0381927e-18)
(0.27359126 -2.3517107e-06 8.2435049e-19)
(0.26455524 -2.7836191e-06 1.5519401e-18)
(0.25341532 -2.7494612e-06 1.6302953e-18)
(0.23917034 -2.2508012e-06 1.6417921e-18)
(0.21934424 -1.475675e-06 1.4994754e-18)
(0.18466299 -5.994704e-07 1.1760199e-18)
(0.2926767 -3.2805932e-07 1.5907437e-18)
(0.29071244 -8.205787e-07 2.0725177e-18)
(0.28669135 -1.5306166e-06 1.5247327e-18)
(0.2809546 -2.3352966e-06 6.5818595e-19)
(0.27361098 -2.9579023e-06 7.2422134e-19)
(0.26456635 -3.1990427e-06 1.4904606e-18)
(0.25341449 -2.9793285e-06 1.6201999e-18)
(0.23915702 -2.3403173e-06 1.6114624e-18)
(0.21932113 -1.488855e-06 1.4583244e-18)
(0.18463595 -5.920132e-07 1.1870304e-18)
(0.29269579 -5.3727375e-07 1.9377959e-18)
(0.29073451 -1.3002008e-06 1.4632287e-18)
(0.28671642 -2.1185889e-06 1.47545e-18)
(0.28097888 -2.8971368e-06 1.2558075e-18)
(0.27362943 -3.3944455e-06 1.1300517e-18)
(0.26457479 -3.4728142e-06 1.7277284e-18)
(0.25341078 -3.1045643e-06 1.8016226e-18)
(0.23914157 -2.3635424e-06 1.8533539e-18)
(0.21929718 -1.4675351e-06 1.6613158e-18)
(0.18460932 -5.7310582e-07 1.2565567e-18)
(0.29272297 -6.9836698e-07 -2.0202762e-19)
(0.29076292 -1.668154e-06 1.2242079e-18)
(0.28674494 -2.5591696e-06 2.1080527e-18)
(0.28100377 -3.2999466e-06 1.4805031e-18)
(0.27364643 -3.6831334e-06 9.3205973e-19)
(0.26458082 -3.6251813e-06 1.5945191e-18)
(0.25340477 -3.1419851e-06 1.7692428e-18)
(0.2391247 -2.3325621e-06 1.695881e-18)
(0.21927305 -1.4189e-06 1.613269e-18)
(0.18458358 -5.4547846e-07 1.2836737e-18)
(0.29275623 -8.1699196e-07 1.7168791e-18)
(0.29079599 -1.9375375e-06 2.8988649e-18)
(0.28677572 -2.8702119e-06 3.4473004e-18)
(0.28102863 -3.5642953e-06 2.4907112e-18)
(0.27366187 -3.8448971e-06 2.4932667e-18)
(0.26458474 -3.6752671e-06 1.1695822e-18)
(0.25339699 -3.1071747e-06 1.4495702e-18)
(0.23910701 -2.2583262e-06 1.4670522e-18)
(0.21924928 -1.3492896e-06 1.2256751e-18)
(0.18455912 -5.1145081e-07 1.1343227e-18)
(0.29279386 -8.9848532e-07 1.5736926e-18)
(0.29083222 -2.1207993e-06 2.9954707e-18)
(0.28680773 -3.0687759e-06 4.9118241e-18)
(0.28105294 -3.709749e-06 3.4791273e-18)
(0.2736757 -3.8994145e-06 2.4912453e-18)
(0.26458683 -3.6407647e-06 2.0361797e-18)
(0.2533879 -3.014272e-06 1.5098389e-18)
(0.23908902 -2.1505439e-06 1.5178279e-18)
(0.2192263 -1.2641819e-06 1.4311729e-18)
(0.18453622 -4.729519e-07 1.1203261e-18)
(0.29283433 -9.4786125e-07 1.3198508e-18)
(0.29087033 -2.2296736e-06 2.2786092e-18)
(0.28684011 -3.1709458e-06 6.5883662e-20)
(0.2810763 -3.7546307e-06 2.2678675e-18)
(0.2736879 -3.8648922e-06 2.0900574e-18)
(0.26458737 -3.5377868e-06 2.0533068e-18)
(0.25337793 -2.8759113e-06 1.6684956e-18)
(0.23907115 -2.0177118e-06 1.4270674e-18)
(0.21920445 -1.1682672e-06 1.478154e-18)
(0.18451506 -4.3159179e-07 1.2492223e-18)
(0.29287634 -9.698038e-07 2.1068985e-18)
(0.29090924 -2.2751314e-06 2.6587175e-18)
(0.28687213 -3.1917131e-06 1.1353205e-18)
(0.2810984 -3.7158836e-06 1.1884346e-18)
(0.27369851 -3.7579589e-06 1.6284737e-18)
(0.26458661 -3.3808188e-06 1.776366e-18)
(0.25336744 -2.7032535e-06 1.591988e-18)
(0.23905376 -1.8672073e-06 1.4723631e-18)
(0.21918397 -1.0655522e-06 1.4561843e-18)
(0.18449577 -3.8874691e-07 1.2198318e-18)
(0.29291879 -9.6866239e-07 8.0406363e-19)
(0.29094802 -2.2673563e-06 7.0248475e-19)
(0.28690321 -3.1449313e-06 9.7659142e-19)
(0.28111901 -3.6090284e-06 6.318049e-19)
(0.27370758 -3.5936582e-06 3.3818817e-19)
(0.2645848 -3.1827676e-06 1.6079962e-18)
(0.25335672 -2.5060767e-06 1.5964307e-18)
(0.2390371 -1.7053823e-06 1.5851025e-18)
(0.21916504 -9.5943233e-07 1.3050263e-18)
(0.1844784 -3.4559758e-07 1.1049016e-18)
(0.29296076 -9.484619e-07 1.9975773e-19)
(0.29098592 -2.2157537e-06 5.7941561e-19)
(0.28693288 -3.0433219e-06 2.2532682e-18)
(0.28113795 -3.4481865e-06 1.9268588e-18)
(0.2737152 -3.3855073e-06 1.6947652e-18)
(0.26458216 -2.9550581e-06 5.7598594e-19)
(0.25334606 -2.2928951e-06 1.3296656e-18)
(0.23902141 -1.5376771e-06 1.3603267e-18)
(0.21914777 -8.5277113e-07 1.0266306e-18)
(0.18446297 -3.0314965e-07 1.0368223e-18)
(0.29300149 -9.128925e-07 1.5592427e-19)
(0.29102233 -2.1289373e-06 2.155768e-18)
(0.28696079 -2.898463e-06 5.3094832e-18)
(0.28115514 -3.2460842e-06 2.8060984e-18)
(0.27372147 -3.1455264e-06 1.9858069e-18)
(0.26457888 -2.7076866e-06 1.7654866e-18)
(0.25333564 -2.0710189e-06 1.515608e-18)
(0.23900682 -1.3686598e-06 1.463484e-18)
(0.21913221 -7.4790642e-07 1.5366936e-18)
(0.18444944 -2.6219661e-07 1.1324758e-18)
(0.29304038 -8.6531745e-07 2.4927433e-18)
(0.29105679 -2.0147397e-06 2.5804842e-18)
(0.28698669 -2.7208057e-06 9.6262666e-19)
(0.28117054 -3.0140782e-06 2.0755212e-18)
(0.2737265 -2.8842862e-06 2.5173617e-18)
(0.26457516 -2.449288e-06 2.7203188e-18)
(0.25332565 -1.8466284e-06 1.9312189e-18)
(0.23899343 -1.20209e-06 1.7487141e-18)
(0.21911838 -6.4669883e-07 1.6195364e-18)
(0.18443774 -2.2333469e-07 1.2282924e-18)
(0.29307699 -8.0875159e-07 1.5320983e-18)
(0.29108895 -1.8801779e-06 1.7263231e-18)
(0.2870104 -2.5196404e-06 4.8218434e-19)
(0.28118415 -2.7621376e-06 2.0006861e-18)
(0.2737304 -2.6109053e-06 2.5717239e-18)
(0.26457114 -2.1871509e-06 2.0151981e-18)
(0.25331621 -1.6247983e-06 2.010215e-18)
(0.23898131 -1.0409422e-06 1.8233603e-18)
(0.21910625 -5.5054187e-07 1.5845257e-18)
(0.18442779 -1.8695485e-07 1.331914e-18)
(0.29311098 -7.4587705e-07 1.5796837e-18)
(0.29111856 -1.7314723e-06 7.1264946e-19)
(0.28703183 -2.3031197e-06 3.9706172e-19)
(0.28119601 -2.4988804e-06 1.1415198e-18)
(0.2737333 -2.333117e-06 7.4696204e-19)
(0.26456696 -1.9273077e-06 1.4367343e-18)
(0.25330741 -1.4096028e-06 1.7444824e-18)
(0.23897048 -8.8751426e-07 1.6939725e-18)
(0.21909575 -4.6045927e-07 1.6708022e-18)
(0.18441948 -1.5331452e-07 1.3660545e-18)
(0.29314212 -6.7902589e-07 1.3397395e-18)
(0.29114547 -1.5740289e-06 2.073852e-18)
(0.28705096 -2.0782568e-06 2.6323014e-18)
(0.28120619 -2.2315983e-06 1.2853935e-18)
(0.27373532 -2.0573172e-06 1.5141163e-18)
(0.26456274 -1.6746049e-06 1.3105343e-18)
(0.25329934 -1.2041932e-06 1.5263288e-18)
(0.23896092 -7.4349108e-07 1.5037901e-18)
(0.21908682 -3.7713848e-07 1.3351272e-18)
(0.18441267 -1.2255772e-07 1.2322137e-18)
(0.29317029 -6.102155e-07 -2.5667006e-19)
(0.29116962 -1.4125002e-06 1.987903e-18)
(0.28706779 -1.8510092e-06 4.3210415e-18)
(0.28121479 -1.966373e-06 2.4822223e-18)
(0.27373657 -1.7887124e-06 2.0758162e-18)
(0.26455858 -1.4328654e-06 1.9383347e-18)
(0.25329201 -1.0109542e-06 1.8592068e-18)
(0.23895261 -6.1008063e-07 1.7662658e-18)
(0.21907935 -3.010426e-07 1.6185004e-18)
(0.18440723 -9.4788424e-08 1.3521166e-18)
(0.29319544 -5.4114908e-07 7.1117361e-19)
(0.291191 -1.2508073e-06 1.7076644e-18)
(0.2870824 -1.6263346e-06 3.3768083e-19)
(0.28122191 -1.7081636e-06 2.312593e-18)
(0.27373718 -1.5314294e-06 2.6829436e-18)
(0.26455454 -1.205e-06 2.1239696e-18)
(0.25328545 -8.3159789e-07 2.0648693e-18)
(0.23894549 -4.8806982e-07 1.9517076e-18)
(0.21907324 -2.3241023e-07 1.7293747e-18)
(0.18440304 -7.0040168e-08 1.3898488e-18)
(0.29321759 -4.7325871e-07 1.1691266e-18)
(0.29120967 -1.0922245e-06 3.0083474e-18)
(0.28709489 -1.4083049e-06 9.8589853e-19)
(0.28122766 -1.4609486e-06 1.9729379e-18)
(0.27373724 -1.2886726e-06 1.9502875e-18)
(0.2645507 -9.9316605e-07 2.3648807e-18)
(0.25327966 -6.672985e-07 2.0973098e-18)
(0.2389395 -3.779181e-07 1.7255778e-18)
(0.21906836 -1.7132998e-07 1.5667024e-18)
(0.18439995 -4.8315593e-08 1.2943078e-18)
(0.29323682 -4.0770074e-07 1.8673311e-18)
(0.29122573 -9.3939602e-07 9.7061672e-19)
(0.28710537 -1.2001538e-06 1.1441951e-18)
(0.28123219 -1.227794e-06 1.5493042e-18)
(0.27373684 -1.0627919e-06 5.0769031e-19)
(0.26454709 -7.988126e-07 1.9246613e-18)
(0.25327461 -5.1870859e-07 1.9034456e-18)
(0.23893455 -2.7974534e-07 1.6322797e-18)
(0.21906459 -1.1768947e-07 1.4969503e-18)
(0.18439783 -2.9518006e-08 1.3090707e-18)
(0.29325326 -3.4539737e-07 3.118506e-18)
(0.29123931 -7.944099e-07 2.3732603e-18)
(0.28711398 -1.0043681e-06 4.2638625e-18)
(0.2812356 -1.010956e-06 2.3192826e-18)
(0.27373609 -8.5539119e-07 2.5306029e-18)
(0.26454375 -6.2278426e-07 9.1481971e-19)
(0.25327029 -3.8604348e-07 1.3427753e-18)
(0.23893056 -1.9339611e-07 1.5738208e-18)
(0.21906182 -7.1241303e-08 1.3551386e-18)
(0.18439655 -1.3498996e-08 1.2927565e-18)