/*--------------------------------*- C++ -*----------------------------------*\
| =========                 |                                                 |
| \\      /  F ield         | OpenFOAM: The Open Source CFD Toolbox           |
|  \\    /   O peration     | Version:  2506                                  |
|   \\  /    A nd           | Website:  www.openfoam.com                      |
|    \\/     M anipulation  |                                                 |
\*---------------------------------------------------------------------------*/
FoamFile
{
    version     2.0;
    format      ascii;
    arch        "LSB;label=32;scalar=64";
    class       volScalarField;
    location    "30000/water";
    object      wallHeatFlux;
}
// * * * * * * * * * * * * * * * * * * * * * * * * * * * * * * * * * * * * * //

dimensions      [1 0 -3 0 0 0 0];

internalField   uniform 0;

boundaryField
{
    water_inlet
    {
        type            calculated;
        value           uniform 0;
    }
    water_outlet
    {
        type            calculated;
        value           uniform 0;
    }
    water_wedge1
    {
        type            wedge;
    }
    water_wedge2
    {
        type            wedge;
    }
    water_to_rock
    {
        type            calculated;
        value           nonuniform List<scalar> 
100
(
-791.56193
-605.91884
-524.45298
-475.75781
-441.56401
-415.39062
-394.2239
-376.47719
-361.21762
-347.79516
-335.91072
-325.19259
-315.49294
-306.691
-298.61556
-291.17897
-284.3187
-277.97216
-272.10749
-266.66556
-261.64383
-256.95478
-252.59591
-248.56495
-244.77421
-241.27837
-237.98925
-234.93265
-232.10573
-229.47692
-227.01486
-224.71752
-222.5838
-220.61371
-218.75059
-217.05437
-215.44125
-213.97264
-212.59449
-211.33966
-210.15404
-209.04117
-208.03323
-207.10411
-206.22714
-205.43316
-204.72399
-204.04327
-203.45005
-202.88736
-202.38478
-201.94277
-201.53272
-201.18368
-200.89569
-200.61094
-200.38711
-200.19516
-200.0638
-199.96395
-199.89541
-199.85795
-199.88021
-199.96196
-200.04525
-200.18761
-200.35997
-200.59103
-200.82287
-201.11308
-201.46152
-201.86807
-202.30372
-202.79726
-203.31975
-203.92887
-204.62458
-205.3202
-206.10232
-206.97091
-207.89709
-208.90971
-210.00878
-211.1943
-212.46626
-213.85356
-215.38507
-217.00305
-218.76524
-220.72943
-222.80899
-225.09057
-227.60306
-230.37535
-233.49408
-237.01701
-241.08853
-246.02628
-252.5233
-263.09183
)
;
    }
}


// ************************************************************************* //
