/*--------------------------------*- C++ -*----------------------------------*\
| =========                 |                                                 |
| \\      /  F ield         | OpenFOAM: The Open Source CFD Toolbox           |
|  \\    /   O peration     | Version:  2506                                  |
|   \\  /    A nd           | Website:  www.openfoam.com                      |
|    \\/     M anipulation  |                                                 |
\*---------------------------------------------------------------------------*/
FoamFile
{
    version     2.0;
    format      ascii;
    arch        "LSB;label=32;scalar=64";
    class       volScalarField;
    location    "30000/water";
    object      yPlus;
}
// * * * * * * * * * * * * * * * * * * * * * * * * * * * * * * * * * * * * * //

dimensions      [0 0 0 0 0 0 0];

internalField   uniform 0;

boundaryField
{
    water_inlet
    {
        type            calculated;
        value           uniform 0;
    }
    water_outlet
    {
        type            calculated;
        value           uniform 0;
    }
    water_wedge1
    {
        type            wedge;
    }
    water_wedge2
    {
        type            wedge;
    }
    water_to_rock
    {
        type            calculated;
        value           nonuniform List<scalar> 
100
(
39.759286
43.05998
43.100716
42.198853
41.28223
40.649412
40.305413
40.154187
40.104125
40.09929
40.113184
40.13564
40.163597
40.196406
40.233928
40.27593
40.321786
40.370785
40.422447
40.476364
40.532105
40.589205
40.647181
40.705541
40.763777
40.821346
40.877664
40.932092
40.983949
41.032538
41.077198
41.117354
41.152573
41.182599
41.207372
41.227019
41.241833
41.25223
41.25871
41.261813
41.262085
41.260058
41.256224
41.251034
41.244848
41.237979
41.230729
41.223353
41.216053
41.208986
41.202269
41.195987
41.190196
41.18493
41.180201
41.176008
41.172338
41.169171
41.16648
41.164235
41.162401
41.160941
41.159818
41.158992
41.158427
41.158088
41.157943
41.157959
41.158107
41.158362
41.158698
41.159094
41.159527
41.159984
41.16045
41.160917
41.161374
41.161815
41.162233
41.162623
41.162982
41.163309
41.163604
41.163867
41.164099
41.164302
41.164475
41.16462
41.164738
41.164833
41.164905
41.164959
41.164997
41.165021
41.165033
41.165036
41.165029
41.165016
41.164995
41.164969
)
;
    }
}


// ************************************************************************* //
