/*--------------------------------*- C++ -*----------------------------------*\
| =========                 |                                                 |
| \\      /  F ield         | OpenFOAM: The Open Source CFD Toolbox           |
|  \\    /   O peration     | Version:  2506                                  |
|   \\  /    A nd           | Website:  www.openfoam.com                      |
|    \\/     M anipulation  |                                                 |
\*---------------------------------------------------------------------------*/
FoamFile
{
    version     2.0;
    format      ascii;
    arch        "LSB;label=32;scalar=64";
    class       volScalarField;
    location    "5000/rock";
    object      T;
}
// * * * * * * * * * * * * * * * * * * * * * * * * * * * * * * * * * * * * * //

dimensions      [0 0 0 1 0 0 0];

internalField   nonuniform List<scalar> 
2500
(
315.05134
304.03821
298.34127
294.95088
292.74509
291.21738
290.10902
289.27564
288.63107
288.12108
287.71
287.37354
287.09462
286.86093
286.66341
286.49521
286.35112
286.22705
286.11975
286.02661
285.94541
285.87422
285.81124
285.75455
285.70182
319.29827
309.19954
303.22864
299.32805
296.62102
294.65953
293.18995
292.05885
291.1687
290.45506
289.87394
289.39447
288.99446
288.65758
288.37163
288.12733
287.91747
287.73642
287.57968
287.44359
287.32517
287.22187
287.13148
287.05207
286.98189
321.14674
312.06847
306.39507
302.48019
299.63032
297.48202
295.82016
294.50778
293.45349
292.59415
291.88494
291.29336
290.79536
290.37286
290.01204
289.70222
289.43501
289.20377
289.00315
288.82884
288.6773
288.54561
288.43133
288.33246
288.2474
322.2459
313.9215
308.59789
304.81693
301.98145
299.78331
298.03969
296.6323
295.48028
294.52615
293.72799
293.05453
292.48208
291.99241
291.57132
291.20763
290.89245
290.61862
290.38038
290.17302
289.99268
289.8362
289.70098
289.58492
289.48638
323.01595
315.25747
310.24245
306.62505
303.86293
301.68126
299.91897
298.47218
297.26948
296.25955
295.40433
294.67495
294.04913
293.50942
293.04201
292.63584
292.28201
291.97328
291.70373
291.46851
291.26362
291.08578
290.93227
290.80093
290.69
323.60665
316.29365
311.54014
308.08099
305.41019
303.27435
301.5268
300.07382
298.85129
297.81303
296.92465
296.15982
295.49799
294.92288
294.42143
293.98309
293.59922
293.26276
292.96786
292.7097
292.48426
292.28824
292.11889
291.97397
291.85167
324.08556
317.13762
312.60685
309.2921
306.71455
304.63602
302.91988
301.47963
300.25648
299.20833
298.30378
297.51878
296.83445
296.23573
295.71046
295.2487
294.84228
294.48444
294.16953
293.89288
293.65053
293.43923
293.25625
293.09933
292.96662
324.48819
317.84867
313.51034
310.32546
307.83716
305.81904
304.14195
302.72471
301.51254
300.4664
299.55732
298.76312
298.06638
297.45317
296.91221
296.4342
296.01148
295.63764
295.30733
295.01604
294.75999
294.53599
294.34135
294.17385
294.03163
324.83531
318.46238
314.29271
311.22455
308.81962
306.86115
305.22595
303.83697
302.64247
301.60583
300.69996
299.9042
299.20237
298.58152
298.03112
297.54252
297.10853
296.72312
296.38124
296.0786
295.81157
295.57707
295.37252
295.19572
295.04483
325.14003
319.00152
314.98154
312.01869
309.6909
307.78963
306.19663
304.83819
303.66503
302.6424
301.74476
300.95265
300.25089
299.62737
299.07224
298.5774
298.13609
297.74266
297.39232
297.08101
296.80528
296.56219
296.34921
296.16423
296.00542
325.41116
319.48149
315.59569
312.72834
310.47172
308.6245
307.07269
305.74538
304.59532
303.5893
302.70299
301.91796
301.21985
300.59722
300.04081
299.54298
299.09739
298.69869
298.34236
298.02457
297.74201
297.49187
297.27174
297.07955
296.91351
325.6549
319.91313
316.14859
313.36826
311.17728
309.38077
307.86847
306.5719
305.44552
304.45741
303.58428
302.8085
302.11641
301.49715
300.94192
300.44352
299.99591
299.59407
299.23369
298.91112
298.62324
298.36735
298.14112
297.94255
297.76991
325.87575
320.30433
316.6501
313.94939
311.81902
310.0699
308.59512
307.32833
306.22549
305.25578
304.39678
303.63155
302.94701
302.33277
301.78046
301.2832
300.83527
300.43186
300.06891
299.74292
299.45091
299.1903
298.95886
298.75463
298.57594
326.0771
320.66105
317.10766
314.48006
312.40573
310.70082
309.26144
308.02317
306.94328
305.99193
305.14742
304.39343
303.71735
303.10921
302.56097
302.06606
301.61901
301.21522
300.85081
300.52244
300.22725
299.96276
299.72681
299.51754
299.3333
326.26156
320.98787
317.52705
314.96679
312.94431
311.28061
309.87452
308.66336
307.60557
306.67219
305.84215
305.09965
304.4325
303.8311
303.28768
302.79594
302.35061
301.94729
301.58225
301.25228
300.95464
300.68694
300.4471
300.23331
300.04396
326.43116
321.28839
317.91282
315.41474
313.44033
311.81501
310.44014
309.25461
308.21794
307.30191
306.48605
305.75501
305.09698
304.50263
303.96448
303.47642
303.03339
302.63114
302.26607
301.9351
301.63558
301.3652
301.12196
300.9041
300.71004
326.58758
321.56556
318.2687
315.82813
313.89832
312.30876
310.96312
309.80174
308.7851
307.88569
307.08356
306.36376
305.71479
305.12761
304.59494
304.11088
303.67052
303.26974
302.90507
302.57354
302.27258
301.99995
301.75372
301.53216
301.33377
326.73217
321.82176
318.59772
316.21045
314.32205
312.7658
311.4475
310.30881
309.31111
308.42753
307.63857
306.92964
306.28955
305.70948
305.18236
304.70244
304.26496
303.86592
303.50196
303.17019
302.86812
302.59359
302.3447
302.11979
301.91739
326.86607
322.05901
318.90245
316.56462
314.71472
313.1895
311.89675
310.77934
309.7995
308.9309
308.15449
307.45601
306.82451
306.2514
305.72977
305.25402
304.81952
304.42239
304.05933
303.72756
303.42464
303.14847
302.89722
302.66925
302.46312
326.99023
322.27903
319.18507
316.89316
315.07906
313.58276
312.31386
311.2164
310.25333
309.39888
308.63437
307.94585
307.3226
306.75621
306.23995
305.76833
305.33684
304.94168
304.57966
304.24805
303.94447
303.66689
303.41351
303.18274
302.97317
327.10551
322.48328
319.44747
317.19824
315.41745
313.94809
312.70148
311.62268
310.67535
309.83421
309.08095
308.40188
307.78649
307.22656
306.71548
306.24789
305.81937
305.42622
305.0653
304.73396
304.42988
304.15107
303.89576
303.66241
303.44964
327.21262
322.67307
319.69131
317.48177
315.73198
314.28774
313.06192
312.00057
311.06799
310.23936
309.49669
308.82655
308.21863
307.66485
307.15874
306.69504
306.26941
305.87825
305.51847
305.18748
304.88301
304.60311
304.34605
304.11033
303.8946
327.31221
322.84954
319.91804
317.74543
316.02451
314.60367
313.39725
312.35221
311.43344
310.61654
309.88383
309.22211
308.62125
308.0733
307.57192
307.11195
306.68912
306.2999
305.94127
305.61067
305.3059
305.02503
304.76638
304.52847
304.30997
327.40485
323.0137
320.12896
317.99073
316.2967
314.89767
313.70935
312.67954
311.77369
310.96778
310.24441
309.59061
308.99639
308.45396
307.95707
307.50064
307.0805
306.69315
306.33565
306.00548
305.70047
305.41873
305.15862
304.91869
304.69762
327.49106
323.16646
320.32525
318.21903
316.55004
315.17135
313.99991
312.98431
312.09053
311.2949
310.5803
309.93392
309.34596
308.80873
308.31608
307.86302
307.44543
307.05988
306.70347
306.37373
306.06853
305.78602
305.52457
305.28276
305.05931
327.57129
323.30865
320.50797
318.43155
316.7859
315.42615
314.27045
313.26812
312.38562
311.5996
310.8932
310.25379
309.6717
309.13936
308.6507
308.20081
307.78565
307.40181
307.04646
306.71716
306.41181
306.12859
305.86591
305.62236
305.39668
327.64598
323.44102
320.67808
318.62942
317.0055
315.66341
314.52239
313.53244
312.66046
311.88343
311.18469
310.5518
309.97522
309.44746
308.96256
308.51567
308.10279
307.72058
307.36624
307.03737
306.7319
306.44804
306.18421
305.93905
305.71131
327.71551
323.56426
320.83647
318.81366
317.20999
315.88435
314.75702
313.77861
312.91645
312.14781
311.45624
310.82944
310.25801
309.73456
309.25318
308.8091
308.39837
308.0177
307.66433
307.33587
307.0303
306.74585
306.48098
306.23431
306.00464
327.78022
323.67899
320.98393
318.9852
317.40039
316.09009
314.97551
314.00787
313.15487
312.39406
311.70918
311.08808
310.52147
310.00204
309.52396
309.08252
308.67382
308.2946
307.94213
307.61408
307.30843
307.02344
306.75759
306.50953
306.27807
327.84045
323.7858
321.12122
319.14492
317.57767
316.28166
315.17896
314.22136
313.3769
312.6234
311.94476
311.32898
310.76687
310.2512
309.77622
309.33725
308.93044
308.55259
308.20098
307.87331
307.56759
307.28211
307.01536
306.766
306.53287
327.8965
323.88521
321.24901
319.2936
317.74272
316.46001
315.36839
314.42013
313.58364
312.83695
312.16413
311.55332
310.99541
310.48326
310.01117
309.57451
309.16948
308.7929
308.4421
308.1148
307.80903
307.52309
307.2555
307.00494
306.77026
327.94863
323.97773
321.36795
319.43198
317.89634
316.62602
315.54472
314.60517
313.77611
313.03575
312.36837
311.76219
311.2082
310.69933
310.22994
309.79544
309.39208
309.0167
308.66665
308.33969
308.03388
307.74752
307.47915
307.22748
306.99135
327.99711
324.06379
321.47861
319.56075
318.03929
316.78051
315.70881
314.77738
313.95523
313.22079
312.55847
311.95661
311.40627
310.90046
310.43359
310.00111
309.5993
309.22504
308.87571
308.54908
308.24322
307.95647
307.68738
307.43467
307.19719
328.04217
324.14384
321.58155
319.68053
318.17228
316.92424
315.86148
314.9376
314.12189
313.39296
312.73535
312.13751
311.59058
311.08763
310.6231
310.19251
309.79214
309.41893
309.07027
308.74394
308.43805
308.15094
307.88118
307.6275
307.38877
328.08404
324.21825
321.67726
319.79191
318.29595
317.0579
316.00346
315.08662
314.27689
313.55309
312.89987
312.30578
311.76202
311.26172
310.79938
310.37054
309.97154
309.5993
309.25126
308.92522
308.6193
308.33186
308.06148
307.8069
307.56701
328.12291
324.28739
321.7662
319.89544
318.4109
317.18214
316.13545
315.22514
314.42099
313.70196
313.05282
312.46222
311.92141
311.42359
310.96329
310.53608
310.13834
309.76701
309.41955
309.09378
308.78783
308.50009
308.22913
307.97371
307.73274
328.15899
324.3516
321.84882
319.99161
318.51769
317.29758
316.25808
315.35385
314.55488
313.84029
313.19495
312.60758
312.06953
311.57401
311.1156
310.68992
310.29335
309.92287
309.57595
309.25044
308.94446
308.65643
308.38494
308.12875
307.88677
328.19244
324.41119
321.92552
320.0809
318.61685
317.40476
316.37195
315.47337
314.67921
313.96874
313.32694
312.74258
312.20709
311.7137
311.25706
310.8328
310.43731
310.06763
309.72121
309.39593
309.08994
308.80164
308.52965
308.27274
308.02983
328.22343
324.46645
321.99666
320.16373
318.70884
317.50421
316.47761
315.58427
314.79459
314.08795
313.44942
312.86787
312.33474
311.84335
311.38834
310.96539
310.57093
310.20197
309.85603
309.53097
309.22496
308.93642
308.66396
308.40639
308.16261
328.25212
324.51765
322.0626
320.24051
318.79413
317.59641
316.57556
315.6871
314.90157
314.19847
313.56299
312.98403
312.45311
311.96356
311.51008
311.08835
310.69483
310.32656
309.98105
309.65619
309.35017
309.0614
308.78852
308.53032
308.28575
328.27865
324.56504
322.12365
320.31162
318.87311
317.68181
316.6663
315.78234
315.00066
314.30086
313.6682
313.09165
312.56277
312.07493
311.62286
311.20226
310.80961
310.44198
310.09688
309.77221
309.46617
309.17719
308.90392
308.64515
308.39983
328.30314
324.60886
322.18012
320.37739
318.94618
317.76081
316.75025
315.87047
315.09235
314.3956
313.76555
313.19123
312.66424
312.17799
311.72722
311.30768
310.91584
310.54879
310.20406
309.87957
309.57352
309.28435
309.01071
308.75141
308.5054
328.32573
324.64932
322.23227
320.43815
319.01369
317.83381
316.82781
315.9519
315.17707
314.48315
313.85551
313.28326
312.75801
312.27323
311.82367
311.4051
311.01401
310.6475
310.30313
309.9788
309.67274
309.38339
309.10941
308.84962
308.60298
328.34653
324.68662
322.28036
320.49419
319.07596
317.90115
316.89938
316.02703
315.25525
314.56392
313.93852
313.36817
312.84455
312.36112
311.91268
311.495
311.1046
310.7386
310.39454
310.07037
309.7643
309.47479
309.2005
308.94026
308.69302
328.36563
324.72093
322.32463
320.54579
319.1333
317.96316
316.96528
316.09623
315.32725
314.63833
314.01498
313.44639
312.92425
312.44207
311.99466
311.57781
311.18805
310.82251
310.47876
310.15472
309.84864
309.55898
309.28441
309.02375
308.77597
328.38314
324.75243
322.36529
320.59319
319.18598
318.02015
317.02585
316.15982
315.39342
314.70671
314.08525
313.51828
312.99751
312.51649
312.07002
311.65393
311.26476
310.89965
310.55617
310.23226
309.92617
309.63638
309.36154
309.1005
308.85223
328.39915
324.78128
322.40255
320.63663
319.23427
318.07238
317.08137
316.21812
315.45409
314.7694
314.14969
313.5842
313.06469
312.58472
312.13912
311.72373
311.33511
310.97038
310.62715
310.30337
309.99727
309.70735
309.43227
309.17088
308.92215
328.41373
324.80762
322.43657
320.67632
319.2784
318.12012
317.13212
316.27141
315.50954
314.82672
314.20859
313.64446
313.1261
312.6471
312.2023
311.78755
311.39942
311.03505
310.69205
310.36838
310.06228
309.77224
309.49694
309.23523
308.98609
328.42696
324.83157
322.46754
320.71245
319.31858
318.16359
317.17833
316.31994
315.56006
314.87892
314.26225
313.69935
313.18205
312.70392
312.25985
311.84569
311.45801
311.09397
310.75118
310.42761
310.12151
309.83136
309.55587
309.29386
309.04434
328.4389
324.85325
322.4956
320.7452
319.35501
318.20301
317.22024
316.36396
315.60587
314.92628
314.31092
313.74915
313.2328
312.75548
312.31207
311.89843
311.51116
311.14743
310.80483
310.48135
310.17524
309.885
309.60932
309.34706
309.09719
328.44963
324.87278
322.52089
320.77473
319.38786
318.23857
317.25805
316.40368
315.64721
314.969
314.35484
313.79409
313.2786
312.802
312.35919
311.94604
311.55914
311.19567
310.85325
310.52985
310.22374
309.93342
309.65758
309.39507
309.14489
328.45919
324.89025
322.54353
320.80118
319.4173
318.27044
317.29195
316.43928
315.68427
315.00732
314.39422
313.83439
313.31968
312.84373
312.40146
311.98873
311.60217
311.23894
310.89668
310.57336
310.26724
309.97684
309.70086
309.43814
309.18768
328.46764
324.90574
322.56364
320.82469
319.44347
318.29878
317.32209
316.47095
315.71724
315.0414
314.42926
313.87024
313.35623
312.88086
312.43906
312.02673
311.64046
311.27745
310.93533
310.61207
310.30596
310.01549
309.73937
309.47647
309.22576
328.47501
324.91934
322.58132
320.84537
319.4665
318.32372
317.34863
316.49884
315.74628
315.07142
314.46013
313.90183
313.38842
312.91357
312.4722
312.0602
311.6742
311.31138
310.96938
310.64619
310.34007
310.04955
309.77332
309.51024
309.25932
328.48135
324.93112
322.59665
320.86332
319.4865
318.34539
317.37169
316.52308
315.77152
315.09753
314.48697
313.9293
313.41643
312.94202
312.50102
312.08932
311.70355
311.3409
310.99901
310.67587
310.36976
310.07918
309.80285
309.53963
309.28852
328.48669
324.94113
322.60971
320.87863
319.50358
318.3639
317.3914
316.54379
315.7931
315.11984
314.50992
313.95279
313.44038
312.96636
312.52567
312.11423
311.72866
311.36616
311.02436
310.70126
310.39515
310.10453
309.82811
309.56477
309.3135
328.49106
324.94942
322.62057
320.89138
319.51781
318.37934
317.40784
316.56109
315.81112
315.13848
314.52909
313.97241
313.46039
312.98669
312.54627
312.13505
311.74965
311.38726
311.04555
310.72249
310.41638
310.12572
309.84924
309.58579
309.33438
328.49449
324.95604
322.62929
320.90164
319.52927
318.39178
317.4211
316.57504
315.82566
315.15353
314.54457
313.98827
313.47656
313.00312
312.56293
312.15188
311.76661
311.40433
311.06268
310.73966
310.43354
310.14286
309.86632
309.60279
309.35127
328.49699
324.96103
322.6359
320.90944
319.53802
318.40129
317.43125
316.58572
315.83681
315.16507
314.55644
314.00043
313.48897
313.01574
312.57571
312.1648
311.77964
311.41744
311.07584
310.75284
310.44674
310.15603
309.87945
309.61585
309.36425
328.49857
324.9644
322.64044
320.91484
319.54409
318.40792
317.43833
316.59319
315.8446
315.17315
314.56477
314.00896
313.49768
313.0246
312.5847
312.17389
311.78881
311.42666
311.0851
310.76212
310.45602
310.1653
309.88869
309.62505
309.37338
328.49926
324.96618
322.64294
320.91787
319.54753
318.41169
317.44239
316.59748
315.8491
315.17782
314.56959
314.01391
313.50273
313.02975
312.58992
312.17918
311.79414
311.43204
311.0905
310.76754
310.46143
310.17071
309.89408
309.63042
309.37872
328.49906
324.96639
322.64341
320.91853
319.54835
318.41264
317.44344
316.59862
315.85032
315.1791
314.57093
314.0153
313.50416
313.03122
312.59142
312.1807
311.79569
311.43359
311.09207
310.76911
310.46302
310.17229
309.89566
309.63199
309.38028
328.49797
324.96502
322.64185
320.91685
319.54656
318.41076
317.44149
316.59662
315.84826
315.177
314.5688
314.01314
313.50198
313.02901
312.5892
312.17846
311.79344
311.43135
311.08982
310.76687
310.46077
310.17006
309.89343
309.62978
309.37809
328.49598
324.96206
322.63827
320.9128
319.54215
318.40606
317.43654
316.59146
315.84293
315.17152
314.56318
314.00742
313.49616
313.02312
312.58325
312.17246
311.78741
311.42528
311.08374
310.76078
310.4547
310.16399
309.8874
309.62377
309.37212
328.4931
324.95752
322.63265
320.90638
319.5351
318.3985
317.42856
316.58313
315.83429
315.16263
314.55407
313.99811
313.4867
313.01352
312.57354
312.16267
311.77755
311.41538
311.07381
310.75084
310.44476
310.15408
309.87752
309.61394
309.36235
328.4893
324.95137
322.62496
320.89756
319.52539
318.38807
317.41753
316.57158
315.82231
315.15028
314.5414
313.98518
313.47354
313.00017
312.56004
312.14904
311.76382
311.40159
311.05998
310.73699
310.43091
310.14026
309.86375
309.60025
309.34875
328.48458
324.94359
322.61517
320.88629
319.51297
318.3747
317.40338
316.55677
315.80694
315.13442
314.52514
313.96856
313.45663
312.98301
312.54267
312.13151
311.74617
311.38385
311.04218
310.71917
310.4131
310.12249
309.84604
309.58262
309.33124
328.47892
324.93413
322.60323
320.87253
319.49777
318.35835
317.38605
316.53863
315.7881
315.11499
314.50519
313.94818
313.43588
312.96195
312.52136
312.11
311.72451
311.36207
311.02034
310.6973
310.39124
310.10067
309.82429
309.56099
309.30975
328.47229
324.92297
322.58909
320.8562
319.47974
318.33892
317.36547
316.51707
315.7657
315.09188
314.48147
313.92394
313.4112
312.93691
312.49601
312.08441
311.69873
311.33616
310.99435
310.67127
310.36522
310.0747
309.79842
309.53524
309.28417
328.46466
324.91003
322.57269
320.83725
319.45878
318.31634
317.34153
316.49198
315.73965
315.06499
314.45387
313.89573
313.38247
312.90775
312.4665
312.05462
311.66872
311.306
310.96408
310.64097
310.33492
310.04446
309.76829
309.50526
309.25439
328.456
324.89528
322.55394
320.81557
319.4348
318.29048
317.31412
316.46326
315.7098
315.03418
314.42225
313.86341
313.34956
312.87434
312.43269
312.02048
311.63433
311.27143
310.92941
310.60624
310.30021
310.00981
309.73376
309.47091
309.22026
328.44626
324.87863
322.53277
320.79106
319.40768
318.26124
317.28311
316.43076
315.67603
314.99933
314.38646
313.82683
313.31231
312.83653
312.39442
311.98184
311.59541
311.23231
310.89015
310.56693
310.26091
309.97059
309.69468
309.43202
309.18162
328.43542
324.86001
322.50906
320.76361
319.3773
318.22847
317.24836
316.39433
315.63817
314.96025
314.34633
313.78581
313.27054
312.79413
312.3515
311.93851
311.55176
311.18843
310.84614
310.52285
310.21684
309.92661
309.65085
309.38842
309.1383
328.42341
324.83933
322.48271
320.73308
319.3435
318.19202
317.20969
316.35379
315.59604
314.91676
314.30168
313.74017
313.22406
312.74695
312.30374
311.89029
311.50319
311.1396
310.79715
310.4738
310.1678
309.87767
309.60208
309.33989
309.09009
328.41017
324.81649
322.45358
320.69933
319.30613
318.1517
317.16692
316.30895
315.54944
314.86865
314.25228
313.68967
313.17263
312.69475
312.25091
311.83694
311.44945
311.08559
310.74296
310.41953
310.11355
309.82352
309.54813
309.28621
309.03676
328.39566
324.79138
322.42155
320.6622
319.265
318.10732
317.11984
316.25959
315.49814
314.81569
314.19791
313.63409
313.11603
312.63729
312.19274
311.77822
311.39031
311.02614
310.68331
310.3598
310.05384
309.76393
309.48874
309.22713
308.97806
328.37979
324.76388
322.38644
320.62149
319.21991
318.05867
317.06822
316.20547
315.44189
314.75762
314.13828
313.57314
313.05396
312.57429
312.12898
311.71385
311.32546
310.96096
310.61793
310.29432
309.98839
309.69861
309.42365
309.16237
308.91372
328.3625
324.73386
322.34809
320.57702
319.17064
318.0055
317.01181
316.14633
315.38042
314.69416
314.07312
313.50654
312.98614
312.50545
312.0593
311.64351
311.25461
310.88975
310.54649
310.22279
309.91688
309.62724
309.35254
309.09162
308.84344
328.34369
324.70116
322.30631
320.52855
319.11694
317.94755
316.95032
316.08186
315.31341
314.62499
314.00211
313.43395
312.91223
312.43044
311.98339
311.56687
311.17742
310.81217
310.46867
310.14487
309.83899
309.54951
309.27509
309.01456
308.76688
328.32327
324.66563
322.26088
320.47585
319.05854
317.88452
316.88345
316.01175
315.24055
314.54978
313.92489
313.35503
312.83187
312.34888
311.90086
311.48356
311.09353
310.72785
310.38409
310.06019
309.75435
309.46504
309.19093
308.93082
308.68369
328.30115
324.62707
322.21157
320.41863
318.99514
317.8161
316.81086
315.93564
315.16146
314.46814
313.84109
313.26939
312.74468
312.2604
311.81132
311.39319
311.00252
310.6364
310.29237
309.96835
309.66256
309.37345
309.09967
308.84003
308.5935
328.2772
324.58528
322.15812
320.3566
318.9264
317.74192
316.73216
315.85314
315.07573
314.37966
313.75027
313.17659
312.65021
312.16455
311.71434
311.29532
310.90397
310.53737
310.19306
309.86894
309.5632
309.27431
309.00089
308.74176
308.49588
328.25129
324.54004
322.10024
320.28943
318.85196
317.66159
316.64694
315.76381
314.98292
314.28389
313.65198
313.07617
312.54801
312.06086
311.60945
311.18948
310.79742
310.43032
310.08571
309.76148
309.45582
309.16716
308.89414
308.63557
308.39038
328.22329
324.4911
322.0376
320.21674
318.77141
317.57467
316.55475
315.66718
314.88254
314.18033
313.54572
312.96762
312.43755
311.94882
311.49613
311.07516
310.68234
310.31473
309.96981
309.64548
309.33991
309.05153
308.77895
308.52098
308.27655
328.19304
324.43817
321.96985
320.13811
318.68429
317.48067
316.45506
315.56272
314.77404
314.06841
313.43091
312.85038
312.31827
311.82788
311.37384
310.95181
310.55821
310.19005
309.84484
309.52042
309.21496
308.92688
308.65479
308.39748
308.15387
328.16034
324.38093
321.89658
320.05308
318.59008
317.37903
316.34729
315.44982
314.65682
313.94754
313.30695
312.72384
312.18957
311.69741
311.24196
310.81883
310.42442
310.05572
309.71021
309.38572
309.08041
308.79268
308.52112
308.26452
308.0218
328.125
324.31902
321.81732
319.96109
318.48818
317.26914
316.2308
315.32783
314.5302
313.81702
313.17316
312.5873
312.05077
311.55676
311.09984
310.67558
310.28035
309.91111
309.56532
309.24079
308.93567
308.64833
308.37737
308.12155
307.87979
328.08677
324.252
321.73152
319.86153
318.37792
317.15026
316.10484
315.19597
314.39341
313.67609
313.02876
312.44003
311.90113
311.40521
310.94677
310.52136
310.12531
309.75555
309.40951
309.08499
308.78011
308.49323
308.22293
307.96797
307.72724
328.04537
324.17939
321.63854
319.75368
318.25851
317.02158
315.96856
315.05339
314.24558
313.52389
312.87292
312.28119
311.73984
311.24196
310.78199
310.35544
309.95859
309.58835
309.24211
308.91766
308.61308
308.32673
308.05717
307.80315
307.56355
328.00045
324.10056
321.53764
319.63666
318.12902
316.88211
315.82096
314.89908
314.08572
313.35943
312.70468
312.10985
311.566
311.06614
310.60466
310.177
309.7794
309.40875
309.06239
308.73808
308.4339
308.14817
307.87945
307.62645
307.38807
327.95159
324.0148
321.42788
319.50943
317.98833
316.7307
315.66085
314.73188
313.91268
313.18161
312.52296
311.92498
311.37863
310.87682
310.41388
309.98518
309.58694
309.21597
308.8696
308.54555
308.24187
307.95688
307.68909
307.43724
307.20017
327.89827
323.92118
321.30809
319.37068
317.83504
316.56592
315.48684
314.55039
313.72512
312.98914
312.32654
311.72541
311.17662
310.67296
310.20868
309.77909
309.38034
309.0092
308.66297
308.33932
308.03629
307.75216
307.48544
307.23484
306.99921
327.83979
323.81849
321.1768
319.21876
317.66742
316.38602
315.29719
314.35294
313.52145
312.78051
312.11401
311.50986
310.95878
310.45345
309.98803
309.55775
309.1587
308.78761
308.4417
308.11865
307.81644
307.53334
307.26784
307.01863
306.78455
327.77522
323.70511
321.032
319.05148
317.48322
316.18877
315.08975
314.13752
313.29979
312.55401
311.8838
311.27687
310.72378
310.21709
309.75083
309.32017
308.92112
308.55033
308.20502
307.8828
307.58162
307.29975
307.03564
306.78797
306.55558
327.70322
323.57877
320.87092
318.86586
317.27946
315.9713
314.86184
313.90165
313.05788
312.3076
311.63409
311.02484
310.47021
309.96261
309.49596
309.06533
308.66666
308.29654
307.95215
307.63105
307.33118
307.05075
306.78824
306.54229
306.31173
327.62176
323.43601
320.68949
318.65768
317.05203
315.72979
314.61
313.64226
312.79307
312.03896
311.36288
310.75203
310.19655
309.68869
309.22226
308.79222
308.39443
308.02544
307.68237
307.36275
307.06449
306.78579
306.5251
306.28105
306.05248
327.52739
323.27122
320.48137
318.42066
316.79516
315.45915
314.32985
313.35566
312.50222
311.74549
311.06799
310.4566
309.90125
309.39403
308.92861
308.49987
308.1036
307.7363
307.39503
307.07731
306.78103
306.50436
306.24575
306.00383
305.77741
327.41345
323.07422
320.23592
318.14514
316.5006
315.1526
314.01593
313.03746
312.18185
311.42439
310.74716
310.13675
309.58285
309.07742
308.61402
308.18746
307.79346
307.42849
307.0896
306.77427
306.48037
306.20608
305.94984
305.71026
305.48618
327.26357
322.82387
319.93415
317.8159
316.15678
314.8015
313.6618
312.68287
311.82835
311.07293
310.39831
309.79084
309.24007
308.73785
308.27767
307.85431
307.46347
307.10159
306.76569
306.45329
306.16223
305.8907
305.63712
305.40014
305.17858
327.02074
322.47008
319.5415
317.41038
315.74904
314.39618
313.261
312.28746
311.43863
310.6889
310.01983
309.41769
308.87202
308.37463
307.91905
307.50003
307.1133
306.75532
306.42312
306.11421
305.82647
305.55809
305.30751
305.07337
304.85452
)
;

boundaryField
{
    rock_inlet
    {
        type            externalWallHeatFluxTemperature;
        mode            coefficient;
        kappaMethod     solidThermo;
        h               constant 10;
        Ta              uniform 283.15;
        qr              none;
        refValue        uniform 283.15;
        refGradient     uniform 0;
        valueFraction   nonuniform List<scalar> 
25
(
0.25
0.25
0.25
0.25
0.25
0.25
0.25
0.25
0.25
0.25
0.25
0.25
0.25
0.25
0.25
0.25
0.25
0.25
0.25
0.25
0.25
0.25
0.25
0.25
0.25
)
;
        value           nonuniform List<scalar> 
25
(
307.076
298.81616
294.54345
292.00066
290.34631
289.20054
288.36927
287.74423
287.2608
286.87831
286.57
286.31765
286.10847
285.9332
285.78506
285.65891
285.55084
285.45779
285.37732
285.30746
285.24656
285.19317
285.14593
285.10342
285.06387
)
;
    }
    rock_outlet
    {
        type            externalWallHeatFluxTemperature;
        mode            coefficient;
        kappaMethod     solidThermo;
        h               constant 0.2;
        Ta              uniform 279.15;
        qr              none;
        refValue        uniform 279.15;
        refGradient     uniform 0;
        valueFraction   nonuniform List<scalar> 
25
(
0.0066225166
0.0066225166
0.0066225166
0.0066225166
0.0066225166
0.0066225166
0.0066225166
0.0066225166
0.0066225166
0.0066225166
0.0066225166
0.0066225166
0.0066225166
0.0066225166
0.0066225166
0.0066225166
0.0066225166
0.0066225166
0.0066225166
0.0066225166
0.0066225166
0.0066225166
0.0066225166
0.0066225166
0.0066225166
)
;
        value           nonuniform List<scalar> 
25
(
326.70372
322.18319
319.27401
317.157
315.50666
314.16277
313.0351
312.06801
311.2248
310.48003
309.81539
309.21724
308.67518
308.18109
307.72853
307.31229
306.92812
306.5725
306.2425
305.93564
305.64981
305.3832
305.13428
304.90169
304.68429
)
;
    }
    rock_outer
    {
        type            externalWallHeatFluxTemperature;
        mode            coefficient;
        kappaMethod     solidThermo;
        h               constant 0.2;
        Ta              uniform 279.15;
        qr              none;
        refValue        uniform 279.15;
        refGradient     uniform 0;
        valueFraction   nonuniform List<scalar> 
100
(
0.003954211
0.003954211
0.003954211
0.003954211
0.003954211
0.003954211
0.003954211
0.003954211
0.003954211
0.003954211
0.003954211
0.003954211
0.003954211
0.003954211
0.003954211
0.003954211
0.003954211
0.003954211
0.003954211
0.003954211
0.003954211
0.003954211
0.003954211
0.003954211
0.003954211
0.003954211
0.003954211
0.003954211
0.003954211
0.003954211
0.003954211
0.003954211
0.003954211
0.003954211
0.003954211
0.003954211
0.003954211
0.003954211
0.003954211
0.003954211
0.003954211
0.003954211
0.003954211
0.003954211
0.003954211
0.003954211
0.003954211
0.003954211
0.003954211
0.003954211
0.003954211
0.003954211
0.003954211
0.003954211
0.003954211
0.003954211
0.003954211
0.003954211
0.003954211
0.003954211
0.003954211
0.003954211
0.003954211
0.003954211
0.003954211
0.003954211
0.003954211
0.003954211
0.003954211
0.003954211
0.003954211
0.003954211
0.003954211
0.003954211
0.003954211
0.003954211
0.003954211
0.003954211
0.003954211
0.003954211
0.003954211
0.003954211
0.003954211
0.003954211
0.003954211
0.003954211
0.003954211
0.003954211
0.003954211
0.003954211
0.003954211
0.003954211
0.003954211
0.003954211
0.003954211
0.003954211
0.003954211
0.003954211
0.003954211
0.003954211
)
;
        value           nonuniform List<scalar> 
100
(
285.67592
286.95092
288.21143
289.4455
290.64437
291.80144
292.91198
293.97279
294.98197
295.93877
296.84327
297.69628
298.49912
299.25349
299.96134
300.62479
301.24605
301.82736
302.37094
302.87896
303.35356
303.79675
304.21048
304.5966
304.95686
305.2929
305.60628
305.89846
306.1708
306.4246
306.66104
306.88126
307.08629
307.27711
307.45464
307.61972
307.77314
307.91563
308.04789
308.17054
308.28417
308.38932
308.48651
308.5762
308.65883
308.73478
308.80443
308.86811
308.92613
308.97877
309.02629
309.06891
309.10684
309.14026
309.16934
309.19422
309.21502
309.23185
309.24478
309.25388
309.25919
309.26075
309.25856
309.25261
309.24289
309.22934
309.2119
309.19049
309.16501
309.13535
309.10135
309.06287
309.01972
308.9717
308.91858
308.86012
308.79603
308.72602
308.64977
308.56691
308.47707
308.37984
308.27476
308.16138
308.03918