/*--------------------------------*- C++ -*----------------------------------*\
| =========                 |                                                 |
| \\      /  F ield         | OpenFOAM: The Open Source CFD Toolbox           |
|  \\    /   O peration     | Version:  2506                                  |
|   \\  /    A nd           | Website:  www.openfoam.com                      |
|    \\/     M anipulation  |                                                 |
\*---------------------------------------------------------------------------*/
FoamFile
{
    version     2.0;
    format      ascii;
    arch        "LSB;label=32;scalar=64";
    class       volScalarField;
    location    "18000/water";
    object      alphat;
}
// * * * * * * * * * * * * * * * * * * * * * * * * * * * * * * * * * * * * * //

dimensions      [1 -1 -1 0 0 0 0];

internalField   nonuniform List<scalar> 
2600
(
0.040489031
0.04048893
0.040488932
0.040488969
0.04048893
0.040488424
0.040485257
0.04046703
0.040362559
0.039762099
0.036475623
0.024118064
0.014862723
0.039376404
0.039376463
0.039376584
0.03937667
0.03937627
0.039373342
0.039357935
0.03928206
0.038918252
0.037247647
0.030707814
0.017504579
0.016810247
0.03845331
0.038453299
0.038453385
0.038453188
0.038451259
0.038441479
0.038397507
0.038208927
0.037432867
0.034484227
0.025768479
0.01464355
0.017680736
0.037674097
0.037673994
0.037673876
0.037672833
0.03766736
0.037643826
0.037549741
0.037190974
0.035896577
0.031717985
0.022022178
0.013507107
0.017935556
0.037006829
0.037006634
0.03700605
0.037003229
0.036991211
0.03694503
0.036777672
0.036201229
0.034343725
0.029136321
0.019390213
0.01332192
0.01787019
0.036428097
0.036427705
0.036426239
0.036420305
0.036397905
0.036319194
0.03605724
0.035231095
0.03281421
0.026833154
0.017684561
0.01376901
0.017658004
0.035920433
0.035919673
0.03591673
0.035905979
0.035868817
0.035747845
0.035374204
0.034281783
0.031338745
0.024847734
0.016751764
0.014701365
0.017395975
0.035470606
0.03546924
0.035464057
0.035446499
0.035390052
0.035218253
0.034721129
0.033357857
0.029935921
0.02320089
0.016491475
0.016024754
0.017137191
0.035068412
0.03506614
0.035057811
0.035031314
0.034951338
0.034722033
0.034094772
0.032463227
0.028616047
0.021918168
0.016839593
0.01764423
0.016909598
0.034705855
0.034702323
0.034689851
0.034652315
0.034545228
0.034254009
0.03349406
0.031599319
0.027389013
0.021039007
0.017742707
0.01944683
0.016725717
0.034376582
0.0343714
0.034353768
0.03430331
0.034166516
0.033811296
0.032918608
0.030765036
0.026274288
0.020612421
0.019134169
0.021310298
0.0165878
0.034075484
0.034068256
0.034044512
0.033979658
0.033811775
0.033392551
0.032367695
0.029958513
0.025310237
0.020682514
0.02092045
0.023125093
0.01649134
0.03379842
0.033788771
0.033758129
0.033677993
0.033478994
0.032997353
0.031839672
0.029180919
0.024557973
0.021270679
0.022983308
0.024813263
0.016428198
0.033542011
0.033529635
0.033491576
0.033396025
0.033167279
0.032625685
0.031331906
0.02844226
0.024095308
0.02236241
0.02519592
0.026333969
0.016389375
0.033303501
0.033288203
0.033242589
0.033132389
0.0328766
0.032277488
0.030841496
0.027768047
0.024001078
0.023903802
0.027443847
0.027676786
0.016366908
0.033080659
0.033062404
0.03300959
0.032886524
0.032607559
0.031952311
0.030367144
0.027204004
0.02433601
0.025808536
0.029640409
0.028850257
0.01635471
0.032871707
0.032850677
0.032791627
0.032658586
0.032361164
0.031649138
0.029912405
0.026815112
0.025128026
0.027972561
0.031731261
0.029871995
0.016348606
0.032675278
0.032651931
0.032588332
0.032449362
0.032138606
0.031366538
0.029490156
0.026676983
0.02636662
0.030291378
0.033689748
0.030762439
0.016345973
0.032490392
0.032465523
0.0323999
0.032260198
0.031941021
0.031103392
0.02912715
0.026861558
0.028006318
0.032674378
0.035508202
0.031541613
0.016345289
0.03231644
0.032291251
0.032227075
0.032092906
0.0317693
0.030860474
0.028866522
0.027422392
0.02997661
0.035052626
0.037189756
0.032227633
0.016345749
0.032153193
0.032129365
0.032071151
0.03194966
0.031623986
0.030643051
0.028765901
0.028384666
0.032194873
0.037379728
0.038742713
0.03283612
0.016346971
0.032000817
0.031980587
0.031933965
0.031832869
0.031505423
0.030464306
0.028890209
0.029742268
0.034578895
0.039628039
0.040177388
0.03338011
0.016348812
0.031859898
0.031846136
0.031817892
0.031745018
0.031414332
0.030348688
0.029300795
0.031461309
0.037056244
0.041783221
0.041504536
0.033870256
0.016351246
0.031731488
0.031727775
0.031725824
0.031688525
0.031353059
0.030333689
0.030044463
0.033487924
0.039569151
0.043839375
0.042734578
0.034315152
0.016354289
0.031617156
0.031627852
0.031661123
0.031665646
0.031327616
0.030468391
0.031145811
0.035757862
0.042075207
0.045795593
0.043877213
0.034721702
0.016357969
0.031519059
0.031549348
0.031627545
0.031678558
0.031350386
0.030808116
0.032604583
0.038205562
0.044545297
0.047653852
0.044941233
0.035095453
0.016362308
0.03144002
0.031495925
0.031629136
0.031729781
0.031442847
0.031406233
0.034397782
0.040771061
0.046960464
0.049417769
0.045934484
0.035440885
0.01636731
0.031383622
0.031471952
0.031670108
0.031823119
0.03163718
0.032305488
0.03648515
0.043403916
0.049308923
0.051091864
0.046863894
0.035761637
0.016372969
0.03135431
0.031482519
0.031754745
0.031965285
0.031975485
0.033531429
0.038816233
0.046064361
0.051583769
0.052681066
0.047735561
0.036060692
0.016379266
0.031357497
0.031533412
0.031887427
0.032168113
0.032505947
0.03508941
0.041337345
0.048722491
0.053781404
0.054190403
0.048554837
0.036340517
0.016386174
0.03139966
0.031631057
0.032072922
0.032450916
0.033276476
0.036965353
0.043997169
0.051356524
0.055900494
0.05562481
0.049326441
0.03660325
0.016393659
0.031488427
0.031782429
0.032317111
0.032842101
0.034327513
0.039129418
0.046750334
0.053950903
0.057941209
0.056988874
0.05005408
0.036848497
0.016401672
0.031632621
0.031994974
0.03262831
0.033378946
0.035685991
0.041541303
0.049558969
0.056494686
0.059904721
0.058286907
0.050741229
0.037078062
0.016410157
0.031842264
0.032276621
0.033019164
0.034104842
0.037361932
0.044155839
0.052392718
0.058980328
0.061792818
0.059522759
0.051390028
0.037293994
0.016419061
0.03212853
0.032636022
0.033508773
0.035064184
0.039348114
0.046927809
0.055227862
0.061402785
0.063607643
0.060699938
0.052002678
0.037497696
0.016428334
0.03250367
0.033083205
0.034124298
0.036296102
0.041622406
0.04981536
0.058046136
0.063758862
0.065351546
0.061821638
0.05258258
0.037690193
0.016437945
0.032981001
0.033630796
0.03490106
0.037828735
0.044151817
0.052781871
0.060833586
0.066046679
0.0670267
0.062889499
0.053132467
0.03787253
0.016447871
0.033575094
0.034295804
0.035880366
0.03967545
0.046897156
0.055796505
0.063579599
0.068265331
0.068635567
0.063907353
0.053654301
0.038045473
0.016458088
0.034302367
0.035101604
0.037105068
0.041833721
0.049817346
0.058833933
0.066276152
0.070414392
0.070179107
0.064878396
0.054149994
0.038209783
0.016468569
0.035182277
0.036079353
0.038613762
0.044286505
0.052872735
0.061873597
0.068917175
0.072494025
0.071660188
0.065805209
0.054621164
0.038366084
0.016479288
0.036239041
0.037267811
0.040435156
0.047005437
0.056027177
0.064898916
0.071498027
0.07450382
0.073081483
0.0666901
0.055069327
0.038514917
0.016490218
0.037503416
0.038710789
0.042584046
0.049954865
0.05924894
0.067896466
0.074015184
0.076444643
0.074445477
0.067535119
0.05549582
0.038656743
0.016501334
0.039013499
0.040452268
0.04505972
0.053095835
0.062510849
0.070855337
0.076465326
0.078317613
0.075754306
0.068342168
0.055901827
0.038791954
0.01651261
0.040813302
0.042530159
0.047846811
0.056389301
0.06578981
0.073766508
0.078846466
0.080124252
0.077009868
0.069112939
0.056288385
0.038920882
0.016524019
0.042948309
0.044970318
0.050918052
0.059798378
0.06906632
0.076621967
0.081156915
0.081865792
0.078213923
0.06984894
0.056656394
0.039043804
0.016535536
0.045458361
0.04778228
0.054237937
0.063289382
0.072323484
0.079415202
0.083396337
0.083543323
0.079368015
0.070551487
0.057006626
0.039160948
0.016547136
0.048369469
0.050957543
0.057766445
0.066832228
0.075546546
0.082140735
0.085564126
0.085157801
0.080473478
0.071221704
0.057339732
0.039272495
0.016558794
0.051686888
0.054470386
0.061462093
0.070399908
0.078721978
0.084794901
0.087659685
0.086709982
0.081531424
0.071860528
0.057656244
0.039378583
0.016570485
0.055391449
0.058280519
0.065283654
0.073967529
0.081839598
0.087374097
0.089682316
0.088200388
0.082542722
0.072468711
0.057956584
0.039479307
0.016582185
0.05944001
0.06233648
0.069190784
0.077513994
0.084890563
0.089874871
0.091631139
0.089629276
0.083507999
0.073046817
0.058241059
0.039574722
0.016593867
0.063769452
0.066579708
0.073146287
0.081021467
0.08786673
0.092293802
0.093505045
0.090996619
0.084427623
0.073595224
0.058509872
0.039664845
0.016605507
0.068304147
0.070949121
0.077116116
0.084473711
0.090760483
0.094627433
0.095302674
0.092302093
0.085301708
0.074114122
0.058763114
0.03974965
0.016617076
0.072963948
0.075384334
0.081068527
0.087855779
0.093564624
0.096872251
0.097022414
0.093545089
0.086130114
0.07460352
0.059000775
0.039829075
0.016628545
0.077671207
0.079828353
0.084974037
0.091153822
0.096272328
0.09902471
0.098662436
0.094724733
0.086912468
0.075063255
0.059222744
0.039903019
0.016639885
0.082355839
0.084229573
0.08880553
0.094354999
0.098877157
0.1010813
0.10022076
0.095839938
0.087648196
0.075493014
0.05942882
0.039971351
0.016651062
0.086958199
0.088543074
0.092538481
0.097447492
0.10137312
0.10303863
0.10169536
0.096889475
0.088336563
0.075892353
0.059618729
0.04003391
0.016662042
0.091430075
0.092731259
0.096151237
0.10042061
0.10375477
0.10489358
0.10308425
0.097872058
0.088976742
0.076260744
0.059792138
0.040090514
0.016672786
0.095734354
0.096763924
0.099625269
0.10326491
0.10601733
0.10664338
0.10438563
0.098786448
0.089567881
0.076597615
0.059948686
0.040140974
0.016683256
0.099843891
0.1006179
0.10294532
0.10597236
0.10815676
0.10828578
0.10559801
0.099631559
0.090109185
0.076902408
0.060088011
0.040185101
0.016693412
0.10374006
0.10427638
0.10609944
0.10853646
0.11016992
0.10981911
0.10672029
0.10040656
0.090600004
0.077174634
0.060209787
0.040222724
0.016703211
0.10741121
0.10772814
0.10907888
0.1109523
0.1120546
0.11124238
0.10775188
0.10111097
0.091039903
0.077413932
0.060313756
0.040253706
0.016712613
0.11085131
0.11096668
0.11187788
0.11321659
0.11380959
0.11255534
0.10869276
0.10174472
0.091428737
0.077620122
0.060399764
0.040277952
0.016721578
0.11405869
0.11398935
0.11449339
0.11532764
0.11543467
0.11375848
0.10954353
0.10230821
0.091766698
0.07779325
0.060467788
0.040295431
0.01673007
0.11703506
0.11679669
0.11692475
0.11728523
0.11693059
0.11485304
0.11030536
0.10280236
0.092054356
0.077933619
0.060517961
0.04030618
0.016738054
0.11978467
0.11939168
0.11917332
0.11909054
0.11829904
0.11584096
0.11098007
0.10322855
0.092292671
0.078041811
0.060550586
0.040310312
0.016745503
0.12231371
0.12177927
0.1212422
0.12074596
0.11954253
0.11672486
0.11157
0.10358868
0.092482993
0.078118692
0.060566144
0.04030802
0.016752392
0.12462973
0.12396584
0.12313585
0.12225494
0.12066436
0.11750793
0.11207805
0.10388509
0.092627043
0.078165405
0.060565291
0.040299576
0.016758707
0.12674129
0.12595889
0.12485987
0.12362186
0.12166848
0.11819391
0.11250751
0.1041205
0.09272688
0.078183351
0.060548846
0.040285324
0.016764435
0.12865764
0.12776668
0.12642072
0.12485181
0.1225594
0.11878694
0.11286211
0.10429799
0.092784857
0.078174159
0.060517779
0.040265675
0.016769575
0.13038845
0.12939804
0.12782547
0.12595048
0.12334207
0.11929154
0.11314584
0.10442091
0.092803577
0.078139656
0.060473183
0.040241093
0.01677413
0.13194366
0.1308621
0.12908169
0.12692401
0.1240218
0.11971249
0.11336295
0.10449284
0.092785833
0.078081821
0.060416253
0.040212085
0.01677811
0.13333328
0.13216819
0.13019724
0.12777887
0.12460416
0.12005476
0.11351783
0.1045175
0.092734559
0.078002747
0.060348256
0.040179187
0.016781529
0.13456731
0.13332569
0.13118014
0.12852172
0.12509488
0.12032344
0.11361499
0.1044987
0.092652779
0.077904601
0.060270505
0.040142951
0.016784408
0.13565565
0.13434391
0.13203848
0.12915935
0.1254998
0.12052371
0.11365897
0.10444029
0.092543551
0.077789582
0.06018433
0.040103933
0.016786772
0.136608
0.13523205
0.13278031
0.12969856
0.12582477
0.12066071
0.11365429
0.10434612
0.092409931
0.077659885
0.060091058
0.04006268
0.016788648
0.13743382
0.1359991
0.13341358
0.13014614
0.12607562
0.12073954
0.11360542
0.10421996
0.09225493
0.077517673
0.059991986
0.040019725
0.016790069
0.13814226
0.1366538
0.13394609
0.13050876
0.12625809
0.12076523
0.11351673
0.1040655
0.092081477
0.077365042
0.059888364
0.039975571
0.016791065
0.13874217
0.13720461
0.13438542
0.13079295
0.1263778
0.12074266
0.11339246
0.10388632
0.091892398
0.077204004
0.059781384
0.039930692
0.016791671
0.13924205
0.13765966
0.13473889
0.13100505
0.12644019
0.12067656
0.1132367
0.10368585
0.09169039
0.077036467
0.059672161
0.039885524
0.016791921
0.13965001
0.13802676
0.13501356
0.13115118
0.12645054
0.12057148
0.11305336
0.10346733
0.091478001
0.076864219
0.059561728
0.039840465
0.01679185
0.13997381
0.13831335
0.13521619
0.13123724
0.1264139
0.12043179
0.11284616
0.10323386
0.091257622
0.076688921
0.059451031
0.039795867
0.016791489
0.14022081
0.13852651
0.13535324
0.13126886
0.12633513
0.12026162
0.11261861
0.10298831
0.091031476
0.076512097
0.059340924
0.039752044
0.016790873
0.14039797
0.13867296
0.13543083
0.1312514
0.12621883
0.12006491
0.11237403
0.10273338
0.090801614
0.076335134
0.059232169
0.039709266
0.016790032
0.1405119
0.13875905
0.13545478
0.13118996
0.12606936
0.11984536
0.11211551
0.10247157
0.09056991
0.076159282
0.059125436
0.039667764
0.016788996
0.14056878
0.13879078
0.13543058
0.13108936
0.12589083
0.11960646
0.11184594
0.10220518
0.090338067
0.075985651
0.059021305
0.039627727
0.016787793
0.14057447
0.13877376
0.13536339
0.13095412
0.12568714
0.11935145
0.11156799
0.10193631
0.090107612
0.075815206
0.058920224
0.039589098
0.016786448
0.14053442
0.13871329
0.13525807
0.13078852
0.1254619
0.11908337
0.11128412
0.10166686
0.089879898
0.07564877
0.058822549
0.039551828
0.016784983
0.14045376
0.13861431
0.13511916
0.13059654
0.12521852
0.11880502
0.11099657
0.10139853
0.089656096
0.075486981
0.058728303
0.039516207
0.016783417
0.14033725
0.13848143
0.13495091
0.13038192
0.12496013
0.11851898
0.1107074
0.10113286
0.089437232
0.07533042
0.058637825
0.03948236
0.016781768
0.14018935
0.13831895
0.13475727
0.13014812
0.12468968
0.11822765
0.11041845
0.10087117
0.089224096
0.07517921
0.058551549
0.039450381
0.016780059
0.14001419
0.13813086
0.13454192
0.12989836
0.12440984
0.11793317
0.11013136
0.1006146
0.089017319
0.075034047
0.058469622
0.039420318
0.016778308
0.13981559
0.13792088
0.13430828
0.12963562
0.12412311
0.11763752
0.10984761
0.10036413
0.088817443
0.074895392
0.058392169
0.039392205
0.016776531
0.13959711
0.13769241
0.13405948
0.12936264
0.12383173
0.11734245
0.10956843
0.10012041
0.088625269
0.074763489
0.05831927
0.039366052
0.016774744
0.139362
0.13744863
0.13379842
0.12908192
0.12353777
0.11704952
0.10929484
0.099884387
0.088441262
0.074638517
0.058250962
0.03934185
0.016772961
0.13911328
0.13719243
0.13352777
0.12879577
0.12324306
0.11676006
0.10902786
0.099656854
0.088265766
0.074520591
0.058187243
0.039319574
0.016771193
0.13885371
0.13692648
0.13324995
0.12850625
0.1229492
0.11647524
0.10876855
0.099438358
0.088099037
0.074409766
0.058128077
0.039299181
0.016769451
0.1385858
0.1366532
0.13296715
0.12821517
0.12265761
0.11619639
0.10851771
0.099229339
0.087941243
0.074306046
0.058073397
0.03928062
0.016767743
0.13831182
0.13637475
0.1326813
0.12792418
0.1223698
0.11592455
0.108276
0.099030129
0.087792481
0.074209382
0.058023111
0.039263828
0.016766077
0.1380338
0.13609308
0.1323942
0.12763493
0.12208706
0.11566061
0.10804396
0.09884097
0.087652777
0.074119684
0.057977103
0.039248738
0.016764459
0.1377536
0.13581
0.13210757
0.12734889
0.1218105
0.11540535
0.10782202
0.098662013
0.087522096
0.074036824
0.05793524
0.039235273
0.016762895
0.13747293
0.13552719
0.13182294
0.12706735
0.1215411
0.11515939
0.10761049
0.098493334
0.087400349
0.073960638
0.05789737
0.039223355
0.016761388
0.13719335
0.13524617
0.13154169
0.12679144
0.1212797
0.11492325
0.10740961
0.098334936
0.087287396
0.073890935
0.057863332
0.039212902
0.016759942
0.13691628
0.13496831
0.13126505
0.12652216
0.121027
0.11469734
0.10721952
0.098186759
0.087183058
0.073827503
0.057832954
0.039203831
0.016758561
0.13664299
0.13469482
0.1309941
0.12626037
0.12078359
0.11448197
0.10704029
0.09804869
0.08708712
0.073770108
0.057806057
0.039196057
0.016757244
0.13637462
0.13442678
0.13072979
0.12600683
0.12054997
0.11427737
0.10687192
0.097920564
0.086999335
0.073718503
0.057782459
0.039189497
0.016755994
0.13611218
0.13416516
0.13047296
0.12576217
0.12032652
0.11408368
0.10671433
0.097802178
0.086919434
0.07367243
0.057761977
0.039184069
0.016754812
0.13585654
0.13391079
0.13022432
0.1255269
0.12011355
0.11390099
0.10656743
0.09769329
0.086847129
0.073631626
0.057744426
0.039179692
0.016753698
0.13560849
0.13366439
0.12998448
0.12530146
0.11991126
0.11372928
0.10643104
0.097593629
0.086782114
0.073595822
0.057729625
0.039176288
0.016752651
0.13536866
0.13342656
0.12975393
0.1250862
0.11971981
0.11356852
0.10630496
0.0975029
0.086724074
0.073564747
0.057717394
0.039173782
0.016751671
0.13513763
0.13319784
0.1295331
0.12488136
0.11953925
0.11341859
0.10618894
0.097420784
0.086672683
0.073538131
0.057707557
0.039172101
0.016750757
0.13491584
0.13297862
0.1293223
0.12468712
0.1193696
0.11327933
0.10608271
0.097346943
0.086627609
0.073515701
0.05769994
0.039171176
0.016749909
0.13470366
0.13276924
0.12912178
0.12450357
0.1192108
0.11315054
0.10598596
0.097281021
0.086588511
0.073497188
0.057694375
0.039170938
0.016749124
0.13450136
0.13256994
0.12893168
0.12433076
0.11906272
0.11303198
0.10589834
0.097222646
0.086555047
0.073482322
0.057690695
0.039171323
0.016748402
0.13430915
0.13238089
0.12875209
0.12416865
0.1189252
0.11292335
0.1058195
0.097171438
0.086526868
0.073470837
0.057688737
0.039172266
0.01674774
0.13412713
0.13220216
0.12858303
0.12401713
0.11879803
0.11282434
0.10574906
0.097127004
0.086503627
0.073462469
0.057688342
0.039173706
0.016747136
0.13395536
0.13203379
0.12842445
0.12387607
0.11868095
0.11273459
0.10568661
0.097088947
0.086484978
0.073456959
0.057689357
0.039175585
0.016746588
0.13379384
0.13187573
0.12827626
0.12374528
0.11857366
0.11265375
0.10563175
0.097056874
0.086470583
0.07345406
0.057691635
0.039177846
0.016746094
0.13364251
0.13172792
0.12813831
0.12362453
0.11847587
0.11258142
0.10558407
0.097030394
0.086460111
0.073453531
0.057695038
0.039180438
0.016745651
0.13350126
0.13159021
0.12801042
0.12351356
0.11838722
0.11251723
0.10554317
0.097009127
0.086453248
0.073455147
0.057699436
0.039183313
0.016745257
0.13336995
0.13146246
0.12789239
0.1234121
0.11830738
0.11246077
0.10550864
0.096992705
0.086449693
0.073458698
0.05770471
0.039186427
0.016744908
0.13324842
0.13134447
0.12778397
0.12331985
0.118236
0.11241167
0.1054801
0.096980775
0.086449162
0.073463985
0.057710753
0.039189743
0.016744603
0.13313647
0.13123601
0.12768492
0.1232365
0.11817271
0.11236953
0.10545717
0.096973
0.086451387
0.073470825
0.057717464
0.039193226
0.01674434
0.13303385
0.13113685
0.12759494
0.12316172
0.11811714
0.11233396
0.10543946
0.096969051
0.086456111
0.073479047
0.057724751
0.039196845
0.016744116
0.13294032
0.1310467
0.12751373
0.12309516
0.11806891
0.11230458
0.10542662
0.09696861
0.086463088
0.073488484
0.057732527
0.039200572
0.01674393
0.13285557
0.13096526
0.12744095
0.12303645
0.11802763
0.11228099
0.10541828
0.096971364
0.086472078
0.073498978
0.057740707
0.039204377
0.016743778
0.13277928
0.1308922
0.12737624
0.12298521
0.11799289
0.11226279
0.10541407
0.096977003
0.086482844
0.073510372
0.057749208
0.039208234
0.01674366
0.13271109
0.13082714
0.12731923
0.12294104
0.1179643
0.11224958
0.10541362
0.096985221
0.086495154
0.073522514
0.05775795
0.039212114
0.016743572
0.13265064
0.13076972
0.12726951
0.12290351
0.11794141
0.11224096
0.10541657
0.096995716
0.086508783
0.073535254
0.057766853
0.03921599
0.016743511
0.13259752
0.13071952
0.12722667
0.12287221
0.11792381
0.11223653
0.10542257
0.097008198
0.086523512
0.07354845
0.057775843
0.039219837
0.016743477
0.13255133
0.13067613
0.12719029
0.1228467
0.11791109
0.1122359
0.10543127
0.097022387
0.086539136
0.073561971
0.05778485
0.03922363
0.016743465
0.13251167
0.13063915
0.12715995
0.12282658
0.11790283
0.11223869
0.10544235
0.097038024
0.086555467
0.073575698
0.057793815
0.039227349
0.016743474
0.13247814
0.13060817
0.12713525
0.12281143
0.11789866
0.11224455
0.10545552
0.097054874
0.086572337
0.073589527
0.057802687
0.039230979
0.016743501
0.13245035
0.13058281
0.12711579
0.12280088
0.11789821
0.11225316
0.10547049
0.097072722
0.086589597
0.07360337
0.057811425
0.039234506
0.016743544
0.13242795
0.1305627
0.1271012
0.12279455
0.11790113
0.11226422
0.10548701
0.097091381
0.086607121
0.073617153
0.057819997
0.039237924
0.016743602
0.13241057
0.13054747
0.12709114
0.12279212
0.11790712
0.11227744
0.10550487
0.097110681
0.086624794
0.073630814
0.057828377
0.039241227
0.016743673
0.13239788
0.1305368
0.12708526
0.12279325
0.11791587
0.11229258
0.10552386
0.09713047
0.086642518
0.073644299
0.057836544
0.039244412
0.016743756
0.13238955
0.13053036
0.12708325
0.12279764
0.11792711
0.11230939
0.10554378
0.097150607
0.086660203
0.073657559
0.05784448
0.039247475
0.016743849
0.13238527
0.13052782
0.12708478
0.12280499
0.11794056
0.11232764
0.10556445
0.097170962
0.086677763
0.073670547
0.057852163
0.039250397
0.016743951
0.13238472
0.13052888
0.12708956
0.12281501
0.11795597
0.11234711
0.10558569
0.097191409
0.086695118
0.07368322
0.057859571
0.039253162
0.016744062
0.13238759
0.13053322
0.12709728
0.12282741
0.11797308
0.11236759
0.10560735
0.09721183
0.08671219
0.073695528
0.057866666
0.039255779
0.016744178
0.13239356
0.13054053
0.12710763
0.12284191
0.11799165
0.11238888
0.10562927
0.097232112
0.086728908
0.073707434
0.057873434
0.039258249
0.016744299
0.13240232
0.1305505
0.12712033
0.12285826
0.11801144
0.11241079
0.1056513
0.097252153
0.086745202
0.07371888
0.057879879
0.039260573
0.016744423
0.13241356
0.13056284
0.12713508
0.12287617
0.11803222
0.11243313
0.10567329
0.097271857
0.086761013
0.07372985
0.057885994
0.039262753
0.01674455
0.13242698
0.13057725
0.12715161
0.12289541
0.11805378
0.11245572
0.10569514
0.097291134
0.086776273
0.07374034
0.057891778
0.039264792
0.016744679
0.13244229
0.13059344
0.12716965
0.12291572
0.11807592
0.11247842
0.1057167
0.097309901
0.08679096
0.073750334
0.057897228
0.039266693
0.016744809
0.1324592
0.13061112
0.12718893
0.12293689
0.11809845
0.11250107
0.10573789
0.097328089
0.086805053
0.073759825
0.057902348
0.03926846
0.016744939
0.13247744
0.13063004
0.12720921
0.12295868
0.11812118
0.11252353
0.10575858
0.097345657
0.086818525
0.073768804
0.057907142
0.039270097
0.016745069
0.13249675
0.13064995
0.12723024
0.12298089
0.11814393
0.11254566
0.10577871
0.097362559
0.086831353
0.073777268
0.057911612
0.039271608
0.016745197
0.13251688
0.1306706
0.12725182
0.12300332
0.11816656
0.11256734
0.1057982
0.097378751
0.086843516
0.07378521
0.057915761
0.039272997
0.016745324
0.13253761
0.13069177
0.12727373
0.1230258
0.1181889
0.11258849
0.10581699
0.097394191
0.086854995
0.073792626
0.057919591
0.039274264
0.016745448
0.13255874
0.13071327
0.12729578
0.12304815
0.11821084
0.11260901
0.10583502
0.097408845
0.086865775
0.073799513
0.057923105
0.039275412
0.016745569
0.13258009
0.13073491
0.12731781
0.12307025
0.11823229
0.11262883
0.10585223
0.09742269
0.086875848
0.073805872
0.057926304
0.039276441
0.016745686
0.1326015
0.13075655
0.12733969
0.123092
0.11825315
0.11264789
0.1058686
0.09743571
0.086885212
0.073811709
0.057929197
0.039277355
0.0167458
0.13262285
0.13077807
0.12736132
0.12311329
0.11827337
0.11266615
0.10588411
0.097447906
0.086893879
0.073817038
0.057931793
0.039278158
0.016745908
0.13264405
0.13079938
0.1273826
0.12313406
0.11829289
0.11268359
0.10589876
0.09745929
0.086901867
0.073821877
0.057934107
0.039278856
0.016746012
0.13266501
0.1308204
0.12740348
0.12315428
0.11831169
0.11270021
0.10591256
0.097469888
0.086909206
0.073826255
0.057936157
0.039279456
0.01674611
0.13268569
0.13084107
0.12742391
0.12317389
0.11832976
0.11271601
0.10592553
0.097479732
0.086915932
0.073830203
0.057937965
0.039279967
0.016746204
0.13270601
0.13086135
0.12744384
0.12319289
0.11834709
0.11273101
0.1059377
0.097488858
0.086922084
0.073833752
0.057939553
0.0392804
0.016746294
0.13272594
0.13088119
0.12746325
0.12321124
0.11836369
0.11274522
0.10594911
0.097497303
0.086927696
0.073836934
0.057940942
0.039280764
0.016746379
0.13274541
0.13090053
0.12748208
0.12322893
0.11837953
0.11275864
0.10595977
0.097505097
0.0869328
0.073839774
0.057942148
0.039281067
0.01674646
0.13276437
0.13091933
0.12750029
0.12324592
0.11839461
0.11277129
0.10596969
0.097512261
0.086937419
0.073842292
0.057943184
0.039281315
0.016746536
0.13278275
0.13093752
0.12751784
0.12326217
0.11840892
0.11278316
0.10597889
0.097518808
0.086941568
0.0738445
0.057944059
0.03928151
0.016746609
0.13280049
0.13095505
0.12753467
0.12327765
0.11842241
0.11279424
0.10598737
0.097524747
0.086945255
0.073846404
0.057944775
0.039281655
0.016746678
0.13281751
0.13097183
0.12755073
0.12329231
0.11843508
0.11280452
0.10599512
0.097530081
0.086948486
0.073848009
0.057945335
0.039281748
0.016746743
0.13283376
0.13098783
0.12756597
0.12330613
0.1184469
0.11281399
0.10600215
0.097534817
0.086951269
0.073849322
0.057945741
0.039281791
0.016746803
0.1328492
0.13100301
0.12758035
0.12331908
0.11845786
0.11282265
0.10600846
0.097538968
0.086953615
0.07385035
0.057945998
0.039281782
0.016746858
0.1328638
0.13101734
0.12759388
0.12333117
0.11846798
0.11283052
0.10601409
0.097542557
0.086955547
0.07385111
0.057946114
0.039281725
0.016746907
0.13287756
0.13103082
0.12760654
0.12334239
0.11847727
0.11283764
0.10601905
0.097545617
0.086957091
0.073851623
0.057946103
0.039281623
0.016746952
0.13289049
0.13104345
0.12761836
0.12335278
0.11848576
0.11284403
0.10602341
0.097548189
0.086958285
0.073851917
0.057945981
0.039281484
0.016746992
0.1329026
0.13105527
0.12762936
0.12336237
0.11849351
0.11284975
0.10602719
0.097550321
0.08695917
0.073852022
0.057945768
0.039281315
0.016747028
0.13291393
0.1310663
0.12763957
0.12337121
0.11850054
0.11285485
0.10603046
0.097552059
0.086959783
0.073851968
0.057945482
0.039281125
0.01674706
0.13292451
0.13107657
0.12764904
0.12337932
0.11850692
0.11285938
0.10603326
0.097553445
0.086960162
0.073851781
0.057945139
0.03928092
0.016747089
0.13293435
0.13108611
0.12765778
0.12338675
0.11851267
0.11286336
0.10603563
0.097554512
0.086960331
0.07385148
0.05794475
0.039280707
0.016747115
0.13294348
0.13109494
0.12766583
0.12339351
0.11851783
0.11286684
0.10603759
0.097555283
0.08696031
0.073851075
0.057944321
0.039280488
0.016747138
0.1329519
0.13110307
0.12767319
0.12339963
0.1185224
0.11286982
0.10603917
0.097555771
0.086960105
0.073850571
0.057943853
0.039280261
0.016747159
0.13295964
0.13111051
0.12767988
0.12340512
0.11852641
0.11287233
0.10604036
0.097555984
0.086959721
0.073849968
0.057943344
0.039280027
0.016747177
0.13296671
0.13111728
0.12768592
0.12341
0.11852987
0.11287437
0.1060412
0.097555931
0.08695916
0.073849264
0.05794279
0.03927978
0.016747193
0.13297312
0.13112341
0.12769133
0.12341429
0.11853282
0.11287598
0.10604168
0.097555624
0.08695843
0.073848463
0.057942191
0.039279521
0.016747205
0.13297892
0.13112892
0.12769615
0.12341803
0.11853527
0.11287718
0.10604185
0.097555087
0.086957549
0.073847573
0.057941551
0.039279247
0.016747214
0.13298413
0.13113386
0.12770041
0.12342126
0.11853729
0.11287803
0.10604175
0.097554356
0.086956543
0.073846616
0.057940881
0.039278963
0.01674722
0.13298881
0.13113827
0.12770418
0.12342405
0.11853893
0.11287858
0.10604142
0.097553477
0.086955451
0.073845617
0.057940194
0.039278671
0.016747224
0.13299302
0.13114222
0.12770751
0.12342645
0.11854025
0.11287888
0.10604094
0.097552504
0.086954318
0.073844611
0.057939515
0.039278384
0.016747225
0.13299678
0.13114573
0.12771045
0.12342851
0.11854132
0.11287901
0.10604034
0.09755149
0.086953188
0.073843632
0.057938864
0.03927811
0.016747225
0.13300012
0.13114885
0.12771303
0.12343028
0.11854216
0.112879
0.10603969
0.097550475
0.086952098
0.073842708
0.05793826
0.039277858
0.016747225
0.13300304
0.13115157
0.12771526
0.12343177
0.1185428
0.11287887
0.106039
0.097549482
0.086951067
0.073841854
0.057937715
0.039277636
0.016747225
0.13300552
0.13115388
0.12771712
0.12343296
0.11854324
0.11287863
0.10603827
0.097548508
0.086950093
0.073841069
0.057937225
0.039277444
0.016747225
0.13300749
0.13115571
0.12771856
0.12343381
0.11854342
0.11287822
0.10603746
0.097547524
0.086949151
0.073840335
0.057936783
0.03927728
0.016747226
0.13300892
0.13115702
0.12771954
0.12343428
0.1185433
0.1128776
0.10603652
0.097546479
0.086948197
0.073839615
0.057936363
0.039277136
0.016747227
0.13300974
0.13115776
0.12772
0.12343428
0.11854281
0.1128767
0.10603538
0.09754531
0.086947174
0.073838864
0.057935936
0.039276996
0.016747227
0.13300993
0.13115788
0.12771988
0.12343378
0.1185419
0.11287547
0.10603399
0.097543954
0.086946022
0.073838029
0.057935459
0.039276836
0.016747225
0.1330095
0.1311574
0.12771919
0.12343277
0.11854054
0.11287385
0.1060323
0.097542366
0.086944699
0.073837075
0.057934908
0.039276639
0.01674722
0.13300851
0.13115635
0.12771797
0.12343126
0.11853875
0.11287188
0.1060303
0.097540533
0.086943186
0.073835982
0.057934267
0.039276399
0.016747212
0.13300709
0.13115487
0.12771631
0.12342935
0.11853659
0.11286958
0.10602804
0.097538479
0.086941498
0.07383476
0.057933542
0.039276117
0.016747199
0.1330054
0.1311531
0.12771436
0.12342716
0.11853419
0.11286708
0.10602559
0.097536276
0.08693969
0.07383345
0.057932763
0.039275808
0.016747182
0.13300365
0.13115124
0.12771232
0.12342489
0.11853172
0.11286452
0.1060231
0.097534035
0.086937853
0.073832123