/*--------------------------------*- C++ -*----------------------------------*\
| =========                 |                                                 |
| \\      /  F ield         | OpenFOAM: The Open Source CFD Toolbox           |
|  \\    /   O peration     | Version:  2506                                  |
|   \\  /    A nd           | Website:  www.openfoam.com                      |
|    \\/     M anipulation  |                                                 |
\*---------------------------------------------------------------------------*/
FoamFile
{
    version     2.0;
    format      ascii;
    arch        "LSB;label=32;scalar=64";
    class       volScalarField;
    location    "18000/water";
    object      epsilon;
}
// * * * * * * * * * * * * * * * * * * * * * * * * * * * * * * * * * * * * * //

dimensions      [0 2 -3 0 0 0 0];

internalField   nonuniform List<scalar> 
2600
(
8.8079773e-05
8.8079245e-05
8.8079271e-05
8.807949e-05
8.8079744e-05
8.8080245e-05
8.8082926e-05
8.8104349e-05
8.8272771e-05
8.9512908e-05
9.8428186e-05
0.00017145296
0.0010138716
6.7789348e-05
6.7791881e-05
6.7793339e-05
6.7794963e-05
6.7796901e-05
6.7799886e-05
6.7810178e-05
6.7875511e-05
6.8312468e-05
7.1039872e-05
8.7857083e-05
0.00021159534
0.0014669324
5.3500886e-05
5.3503148e-05
5.3504846e-05
5.3506859e-05
5.3509287e-05
5.3513643e-05
5.3532992e-05
5.3656306e-05
5.4399641e-05
5.8506995e-05
8.1500797e-05
0.00023956052
0.0017068244
4.3127504e-05
4.3128883e-05
4.3130503e-05
4.3132598e-05
4.3135149e-05
4.3140834e-05
4.3171684e-05
4.3362646e-05
4.4413342e-05
4.9710824e-05
7.7552644e-05
0.00025818579
0.0017816909
3.539909e-05
3.5400132e-05
3.5401605e-05
3.5403513e-05
3.5405834e-05
3.5412916e-05
3.5457613e-05
3.5722605e-05
3.7073304e-05
4.3450503e-05
7.5629285e-05
0.00027290618
0.0017622817
2.9510599e-05
2.9511446e-05
2.95127e-05
2.9514227e-05
2.9516143e-05
2.9525119e-05
2.9586798e-05
2.9933924e-05
3.159515e-05
3.9095388e-05
7.5939385e-05
0.00028837858
0.0017002497
2.4935213e-05
2.4935877e-05
2.4936847e-05
2.4937875e-05
2.4939416e-05
2.4951342e-05
2.503458e-05
2.5477125e-05
2.7489448e-05
3.6318413e-05
7.8818158e-05
0.0003073199
0.0016256765
2.1318423e-05
2.1318913e-05
2.1319549e-05
2.132003e-05
2.1321464e-05
2.1338095e-05
2.144948e-05
2.2008273e-05
2.4447975e-05
3.4968795e-05
8.4593389e-05
0.00033066897
0.0015541994
1.8415642e-05
1.8415958e-05
1.8416233e-05
1.8416208e-05
1.8418091e-05
1.8442025e-05
1.8590687e-05
1.9295945e-05
2.2279378e-05
3.5010665e-05
9.3512814e-05
0.00035786641
0.0014930959
1.6054297e-05
1.6054439e-05
1.6054351e-05
1.6053968e-05
1.6057197e-05
1.6092028e-05
1.6290179e-05
1.7183376e-05
2.0872546e-05
3.6486908e-05
0.00010564207
0.00038720676
0.0014449141
1.411016e-05
1.4110129e-05
1.4109712e-05
1.4109249e-05
1.4115119e-05
1.4165612e-05
1.4429188e-05
1.5565379e-05
2.0175367e-05
3.9486471e-05
0.00012074249
0.00041640752
0.0014094648
1.249217e-05
1.2491978e-05
1.249131e-05
1.24912e-05
1.2501471e-05
1.2573786e-05
1.2923263e-05
1.4374121e-05
2.0181311e-05
4.4103574e-05
0.00013819401
0.00044331751
0.0013850187
1.1132483e-05
1.1132152e-05
1.1131368e-05
1.1132227e-05
1.1149209e-05
1.1251189e-05
1.1712642e-05
1.3570321e-05
2.0918928e-05
5.0386672e-05
0.00015703479
0.00046647967
0.0013691707
9.9797899e-06
9.9793621e-06
9.9786681e-06
9.9813266e-06
1.0007987e-05
1.0149541e-05
1.0756002e-05
1.3137755e-05
2.2440689e-05
5.8285038e-05
0.00017613324
0.00048532286
0.0013594869
8.994766e-06
8.994305e-06
8.9939894e-06
8.9995396e-06
9.0396464e-06
9.2332357e-06
1.0026406e-05
1.3079617e-05
2.4808572e-05
6.7609618e-05
0.00019442665
0.00050000486
0.0013539038
8.1468971e-06
8.1464947e-06
8.1469469e-06
8.1567947e-06
8.2150975e-06
8.4763588e-06
9.5087285e-06
1.3415553e-05
2.807526e-05
7.8026841e-05
0.0002111215
0.00051110137
0.0013508788
7.4122408e-06
7.412023e-06
7.4137548e-06
7.4296903e-06
7.5121568e-06
7.8606834e-06
9.1980663e-06
1.4178291e-05
3.2262331e-05
8.9094588e-05
0.00022578146
0.00051932558
0.0013493668
6.7718206e-06
6.7719549e-06
6.7756276e-06
6.7999151e-06
6.9140283e-06
7.3743439e-06
9.0987625e-06
1.5408888e-05
3.7339829e-05
0.00010033156
0.00023829849
0.00052535583
0.0013487149
6.2104575e-06
6.2111621e-06
6.2176208e-06
6.2531142e-06
6.4082476e-06
7.0110033e-06
9.2236697e-06
1.7149875e-05
4.3213605e-05
0.00011129559
0.0002487951
0.00052976262
0.0013485457
5.7159095e-06
5.7174657e-06
5.7277834e-06
5.7780724e-06
5.9859581e-06
6.7693776e-06
9.5932706e-06
1.9436233e-05
4.9726067e-05
0.00012164394
0.00025751549
0.00053299526
0.0013486594
5.2782322e-06
5.2809984e-06
5.2965329e-06
5.3661281e-06
5.6414368e-06
6.6530083e-06
1.0234238e-05
2.228513e-05
5.6672016e-05
0.00013115952
0.00026474159
0.0005353945
0.0013489619
4.889296e-06
4.893728e-06
4.9161934e-06
5.0107595e-06
5.3718124e-06
6.6701645e-06
1.1177042e-05
2.5686553e-05
6.3825678e-05
0.00013974422
0.00027074338
0.00053721257
0.0013494179
4.5424222e-06
4.549097e-06
4.5806559e-06
4.707302e-06
5.1769356e-06
6.8337316e-06
1.2452335e-05
2.9597477e-05
7.097079e-05
0.00014739148
0.0002757568
0.0005386328
0.0013500205
4.2321037e-06
4.2417515e-06
4.2851315e-06
4.4527719e-06
5.0593678e-06
7.1609028e-06
1.4086152e-05
3.394183e-05
7.7925113e-05
0.00015415333
0.00027997823
0.00053978641
0.0013507744
3.9537926e-06
3.9673375e-06
4.0259782e-06
4.2457763e-06
5.0244499e-06
7.6724686e-06
1.6094424e-05
3.8616919e-05
8.4553951e-05
0.00016011197
0.00028356674
0.00054076615
0.0013516866
3.7037376e-06
3.7223496e-06
3.8005873e-06
4.0864974e-06
5.0804009e-06
8.3914976e-06
1.8477844e-05
4.3504911e-05
9.077206e-05
0.00016536002
0.00028664926
0.00054163685
0.0013527623
3.4788613e-06
3.504022e-06
3.6073203e-06
3.9767408e-06
5.2383695e-06
9.3412707e-06
2.1218352e-05
4.8486364e-05
9.6537094e-05
0.00016998886
0.00028932618
0.00054244334
0.0013540034
3.2766694e-06
3.3102566e-06
3.4454921e-06
3.9200366e-06
5.512335e-06
1.0542478e-05
2.4278371e-05
5.3452376e-05
0.00010183911
0.00017408281
0.00029167657
0.00054321637
0.0013554084
3.0951868e-06
3.1395803e-06
3.315394e-06
3.9217755e-06
5.9187332e-06
1.2009945e-05
2.7603266e-05
5.8312862e-05
0.0001066899
0.0001777168
0.00029376257
0.00054397676
0.0013569729
2.9329181e-06
2.991133e-06
3.2183574e-06
3.9893517e-06
6.4756801e-06
1.3749403e-05
3.112658e-05
6.3000085e-05
0.00011111418
0.00018095591
0.00029563313
0.00054473837
0.0013586903
2.7888292e-06
2.8646819e-06
3.1568532e-06
4.132263e-06
7.2016968e-06
1.5755029e-05
3.4776808e-05
6.7468124e-05
0.00011514328
0.00018385585
0.00029732665
0.00054550992
0.0013605531
2.6623516e-06
2.7606641e-06
3.1346228e-06
4.362102e-06
8.1139276e-06
1.8008404e-05
3.8484156e-05
7.1689805e-05
0.00011881108
0.00018646428
0.00029887505
0.00054629402
0.0013625491
2.5534088e-06
2.680258e-06
3.1568304e-06
4.6923497e-06
9.22598e-06
2.0479255e-05
4.21859e-05
7.5652556e-05
0.00012215122
0.00018882083
0.00030030031
0.00054708344
0.001364665
2.4624667e-06
2.6254826e-06
3.2302147e-06
5.1378784e-06
1.0545685e-05
2.3127918e-05
4.5829653e-05
7.9354439e-05
0.00012519597
0.00019095973
0.00030162122
0.00054787012
0.0013668874
2.3906118e-06
2.5993266e-06
3.3632045e-06
5.714089e-06
1.2073206e-05
2.5908984e-05
4.9374527e-05
8.2800767e-05
0.00012797522
0.0001929092
0.00030285018
0.00054865287
0.0013692048
2.3396576e-06
2.6059009e-06
3.565945e-06
6.4356565e-06
1.379994e-05
2.8775319e-05
5.2790669e-05
8.6001443e-05
0.00013051585
0.00019469159
0.00030399376
0.00054944272
0.0013716092
2.3122834e-06
2.6506068e-06
3.8501617e-06
7.314953e-06
1.5708513e-05
3.1681692e-05
5.6057927e-05
8.8969441e-05
0.00013284315
0.00019632773
0.00030505437
0.00055025018
0.0013740956
2.312204e-06
2.740297e-06
4.2287855e-06
8.3603379e-06
1.7773921e-05
3.4587408e-05
5.9163895e-05
9.1718485e-05
0.000134977
0.0001978295
0.00030604752
0.00055107622
0.0013766577
2.3443664e-06
2.8833943e-06
4.7152659e-06
9.5746044e-06
1.9965609e-05
3.7457895e-05
6.2102575e-05
9.4263947e-05
0.00013693775
0.00019920349
0.00030698675
0.00055192215
0.0013792894
2.4151613e-06
3.0899099e-06
5.3225442e-06
1.0953905e-05
2.2249993e-05
4.026506e-05
6.4872079e-05
9.6618924e-05
0.00013873802
0.00020046565
0.00030788006
0.00055278756
0.0013819844
2.5326204e-06
3.3712891e-06
6.0617307e-06
1.2487421e-05
2.4593018e-05
4.2987257e-05
6.7474462e-05
9.8797812e-05
0.00014038632
0.00020163083
0.00030873382
0.00055367121
0.0013847362
2.7065544e-06
3.7399969e-06
6.9406288e-06
1.4157864e-05
2.6962172e-05
4.5608169e-05
6.9912765e-05
0.00010081055
0.00014189658
0.00020271014
0.00030955281
0.00055457137
0.0013875385
2.94855e-06
4.208776e-06
7.9623501e-06
1.5942734e-05
2.9328091e-05
4.8116704e-05
7.2192972e-05
0.0001026631
0.00014328329
0.00020371266
0.00031034058
0.00055548595
0.0013903847
3.2717205e-06
4.7895533e-06
9.124282e-06
1.7815986e-05
3.1665e-05
5.0504533e-05
7.4318479e-05
0.00010436656
0.00014455809
0.0002046458
0.0003110997
0.00055641259
0.0013932686
3.6900855e-06
5.4920727e-06
1.0417683e-05
1.9750012e-05
3.3951699e-05
5.2768183e-05
7.6289668e-05
0.00010593299
0.00014573089
0.00020551555
0.00031183196
0.00055734877
0.0013961839
4.2174845e-06
6.3224277e-06
1.1827951e-05
2.171714e-05
3.6170246e-05
5.4901159e-05
7.8113757e-05
0.00010737249
0.00014680993
0.00020632674
0.00031253851
0.0005582918
0.0013991243
4.8660259e-06
7.2817744e-06
1.3335593e-05
2.3691123e-05
3.8306688e-05
5.6898168e-05
7.9798304e-05
0.0001086939
0.00014780214
0.00020708321
0.00031321994
0.0005592389
0.0014020836
5.6442493e-06
8.3655565e-06
1.4917866e-05
2.564878e-05
4.0344257e-05
5.8760207e-05
8.1350099e-05
0.00010990478
0.00014871321
0.00020778792
0.00031387636
0.00056018713
0.0014050556
6.5553594e-06
9.56346e-06
1.6550686e-05
2.7565321e-05
4.2272541e-05
6.0488808e-05
8.2775228e-05
0.00011101156
0.00014954783
0.00020844308
0.00031450745
0.00056113341
0.0014080338
7.5961537e-06
1.0860442e-05
1.8207369e-05
2.9419102e-05
4.408453e-05
6.2085814e-05
8.4079034e-05
0.0001120196
0.00015030969
0.00020905022
0.00031511249
0.00056207454
0.0014110119
8.7563157e-06
1.2235551e-05
1.9861232e-05
3.1193216e-05
4.5774965e-05
6.3553181e-05
8.5266112e-05
0.00011293328
0.00015100165
0.00020961024
0.00031569038
0.00056300712
0.0014139832
1.0017522e-05
1.3664335e-05
2.1488449e-05
3.2873859e-05
4.7340054e-05
6.4892868e-05
8.6340348e-05
0.00011375612
0.0001516258
0.00021012347
0.00031623966
0.00056392756
0.0014169405
1.1355901e-05
1.5121211e-05
2.3068172e-05
3.4450178e-05
4.8777289e-05
6.6106812e-05
8.7304985e-05
0.00011449085
0.00015218355
0.00021058975
0.00031675852
0.00056483204
0.0014198766
1.2744265e-05
1.6581081e-05
2.4582903e-05
3.5914123e-05
5.0085355e-05
6.7196971e-05
8.8162738e-05
0.00011513953
0.00015267569
0.00021100843
0.00031724483
0.00056571653
0.0014227834
1.4154482e-05
1.8020637e-05
2.6018604e-05
3.7260265e-05
5.1264092e-05
6.8165413e-05
8.8915932e-05
0.0001157037
0.00015310253
0.00021137848
0.00031769616
0.00056657675
0.0014256524
1.555958e-05
1.9419302e-05
2.7364606e-05
3.8485598e-05
5.2314489e-05
6.9014449e-05
8.9566665e-05
0.0001161845
0.00015346401
0.00021169859
0.00031810989
0.00056740823
0.0014284744
1.6935339e-05
2.0759786e-05
2.8613378e-05
3.9589303e-05
5.3238669e-05
6.9746756e-05
9.0116987e-05
0.00011658289
0.00015375982
0.00021196724
0.00031848323
0.00056820633
0.0014312396
1.8261268e-05
2.2028325e-05
2.9760206e-05
4.0572478e-05
5.4039842e-05
7.0365496e-05
9.0569077e-05
0.00011689975
0.00015398961
0.00021218284
0.00031881337
0.00056896639
0.0014339377
1.9521047e-05
2.3214635e-05
3.0802835e-05
4.1437841e-05
5.4722227e-05
7.0874392e-05
9.0925391e-05
0.00011713613
0.00015415307
0.0002123439
0.00031909759
0.00056968378
0.0014365579
2.0702515e-05
2.4311688e-05
3.1741086e-05
4.2189436e-05
5.5290937e-05
7.1277772e-05
9.1188791e-05
0.00011729337
0.00015425016
0.00021244916
0.00031933341
0.00057035411
0.0014390892
2.179737e-05
2.5315353e-05
3.257649e-05
4.2832332e-05
5.5751828e-05
7.1580559e-05
9.1362626e-05
0.00011737319
0.0001542812
0.00021249774
0.00031951874
0.00057097332
0.0014415208
2.2800694e-05
2.6223984e-05
3.3311942e-05
4.3372362e-05
5.6111338e-05
7.178822e-05
9.1450778e-05
0.00011737787
0.00015424704
0.00021248927
0.00031965202
0.0005715379
0.0014438419
2.3710404e-05
2.7037978e-05
3.3951389e-05
4.3815874e-05
5.6376317e-05
7.1906693e-05
9.1457658e-05
0.00011731022
0.00015414912
0.00021242401
0.00031973234
0.000572045
0.0014460427
2.4526702e-05
2.7759361e-05
3.4499555e-05
4.416953e-05
5.6553871e-05
7.1942284e-05
9.1388171e-05
0.00011717368
0.00015398952
0.00021230292
0.00031975955
0.00057249258
0.001448114
2.5251563e-05
2.8391404e-05
3.4961708e-05
4.4440131e-05
5.6651214e-05
7.1901561e-05
9.1247657e-05
0.00011697222
0.000153771
0.00021212769
0.00031973428
0.00057287947
0.0014500481
2.5888279e-05
2.8938287e-05
3.5343457e-05
4.4634487e-05
5.6675547e-05
7.1791236e-05
9.1041805e-05
0.00011671034
0.00015349695
0.00021190076
0.000319658
0.00057320544
0.0014518386
2.6441083e-05
2.9404818e-05
3.5650593e-05
4.4759304e-05
5.663395e-05
7.1618069e-05
9.0776557e-05
0.00011639299
0.00015317136
0.00021162527
0.00031953296
0.00057347117
0.0014534809
2.6914835e-05
2.9796197e-05
3.5888958e-05
4.4821108e-05
5.6533306e-05
7.1388768e-05
9.0458015e-05
0.00011602548
0.00015279874
0.00021130498
0.00031936213
0.00057367826
0.001454972
2.7314771e-05
3.0117837e-05
3.6064346e-05
4.4826185e-05
5.6380238e-05
7.1109906e-05
9.0092345e-05
0.00011561335
0.00015238399
0.0002109442
0.00031914914
0.00057382911
0.0014563107
2.7646311e-05
3.0375211e-05
3.6182416e-05
4.4780538e-05
5.618106e-05
7.0787859e-05
8.9685681e-05
0.00011516233
0.00015193234
0.00021054765
0.00031889813
0.00057392679
0.0014574977
2.7914911e-05
3.0573746e-05
3.6248644e-05
4.4689864e-05
5.5941755e-05
7.0428743e-05
8.924405e-05
0.00011467816
0.0001514492
0.00021012035
0.00031861364
0.000573975
0.0014585352
2.8125955e-05
3.0718739e-05
3.6268274e-05
4.4559537e-05
5.5667947e-05
7.0038382e-05
8.8773301e-05
0.00011416657
0.00015094006
0.00020966751
0.00031830045
0.00057397784
0.001459427
2.8284674e-05
3.0815301e-05
3.6246293e-05
4.4394595e-05
5.5364899e-05
6.9622266e-05
8.8279043e-05
0.00011363314
0.00015041038
0.00020919438
0.0003179635
0.00057393973
0.0014601783
2.8396091e-05
3.0868312e-05
3.6187413e-05
4.4199746e-05
5.5037504e-05
6.918554e-05
8.7766603e-05
0.00011308327
0.00014986552
0.00020870617
0.00031760771
0.00057386523
0.0014607953
2.846499e-05
3.0882398e-05
3.609606e-05
4.3979367e-05
5.4690293e-05
6.8732985e-05
8.7240984e-05
0.0001125221
0.00014931061
0.0002082079
0.00031723789
0.00057375897
0.0014612853
2.8495887e-05
3.0861915e-05
3.5976372e-05
4.3737513e-05
5.4327437e-05
6.8269015e-05
8.6706842e-05
0.00011195443
0.00014875053
0.00020770439
0.00031685867
0.00057362552
0.0014616562
2.8493021e-05
3.0810941e-05
3.5832201e-05
4.3477921e-05
5.3952762e-05
6.7797676e-05
8.616847e-05
0.00011138475
0.00014818983
0.00020720012
0.00031647438
0.00057346927
0.0014619165
2.846035e-05
3.0733279e-05
3.5667115e-05
4.3204029e-05
5.3569756e-05
6.7322651e-05
8.5629786e-05
0.00011081715
0.00014763269
0.00020669923
0.00031608904
0.0005732944
0.0014620748
2.8401554e-05
3.0632453e-05
3.5484409e-05
4.2918982e-05
5.3181584e-05
6.684727e-05
8.5094334e-05
0.00011025536
0.0001470829
0.00020620547
0.00031570628
0.00057310482
0.0014621402
2.8320041e-05
3.0511723e-05
3.5287114e-05
4.2625646e-05
5.2791104e-05
6.637452e-05
8.4565285e-05
0.0001097027
0.00014654384
0.00020572216
0.00031532932
0.00057290412
0.0014621214
2.821895e-05
3.0374091e-05
3.5078006e-05
4.2326624e-05
5.2400883e-05
6.590706e-05
8.4045449e-05
0.0001091621
0.00014601849
0.0002052522
0.00031496099
0.00057269555
0.0014620273
2.8101172e-05
3.0222309e-05
3.4859618e-05
4.2024268e-05
5.2013209e-05
6.5447237e-05
8.3537286e-05
0.00010863612
0.00014550941
0.00020479808
0.00031460371
0.00057248203
0.0014618663
2.7969351e-05
3.0058895e-05
3.4634254e-05
4.1720694e-05
5.1630112e-05
6.49971e-05
8.3042922e-05
0.00010812694
0.00014501876
0.00020436186
0.00031425948
0.00057226613
0.0014616466
2.7825903e-05
2.9886144e-05
3.4404002e-05
4.1417793e-05
5.1253377e-05
6.4558422e-05
8.2564165e-05
0.00010763639
0.00014454834
0.00020394522
0.00031392995
0.00057205007
0.0014613761
2.7673029e-05
2.9706137e-05
3.4170743e-05
4.1117251e-05
5.088456e-05
6.4132715e-05
8.2102527e-05
0.00010716596
0.00014409956
0.00020354947
0.00031361637
0.00057183574
0.001461062
2.7512723e-05
2.9520761e-05
3.3936165e-05
4.0820555e-05
5.0525005e-05
6.3721249e-05
8.1659245e-05
0.00010671685
0.00014367354
0.0002031756
0.00031331978
0.00057162449
0.0014607109
2.734679e-05
2.9331714e-05
3.3701778e-05
4.0529012e-05
5.0175861e-05
6.3325073e-05
8.1235296e-05
0.00010628995
0.00014327103
0.00020282423
0.0003130407
0.00057141641
0.0014603285
2.7176857e-05
2.9140521e-05
3.3468922e-05
4.024376e-05
4.9838093e-05
6.2945028e-05
8.083143e-05
0.00010588593
0.00014289261
0.00020249588
0.00031277953
0.00057120928
0.0014599197
2.7004382e-05
2.8948545e-05
3.3238783e-05
3.9965778e-05
4.9512499e-05
6.2581767e-05
8.0448178e-05
0.00010550517
0.00014253849
0.00020219043
0.00031253534
0.00057100468
0.0014594896
2.6830672e-05
2.8756999e-05
3.3012399e-05
3.9695904e-05
4.9199726e-05
6.223578e-05
8.0085897e-05
0.00010514794
0.00014220886
0.000201908
0.00031230611
0.00057080571
0.0014590437
2.6656887e-05
2.8566956e-05
3.2790676e-05
3.9434841e-05
4.890028e-05
6.1907402e-05
7.9744772e-05
0.00010481424
0.00014190343
0.00020164698
0.00031209275
0.00057061391
0.0014585869
2.6484058e-05
2.8379361e-05
3.2574396e-05
3.9183171e-05
4.8614544e-05
6.1596828e-05
7.942482e-05
0.00010450389
0.00014162171
0.00020140638
0.00031189574
0.00057043043
0.0014581236
2.6313091e-05
2.819504e-05
3.2364227e-05
3.8941369e-05
4.834279e-05
6.1304151e-05
7.9125975e-05
0.00010421666
0.0001413622
0.0002011862
0.00031171519
0.00057025604
0.0014576577
2.6144781e-05
2.801471e-05
3.2160736e-05
3.8709806e-05
4.8085192e-05
6.1029346e-05
7.8847991e-05
0.00010395153
0.00014112445
0.00020098612
0.00031155094
0.00057009123
0.001457193
2.597982e-05
2.7838989e-05
3.1964394e-05
3.8488768e-05
4.7841828e-05
6.077228e-05
7.8590339e-05
0.00010370764
0.00014090797
0.00020080564
0.00031140263
0.00056993626
0.0014567323
2.5818807e-05
2.7668404e-05
3.1775589e-05
3.8278461e-05
4.761271e-05
6.0532709e-05
7.8352159e-05
0.0001034845
0.00014071216
0.00020064413
0.00031126977
0.00056979122
0.0014562783
2.5662254e-05
2.7503402e-05
3.1594636e-05
3.8079038e-05
4.7397762e-05
6.0309962e-05
7.8132966e-05
0.00010328147
0.00014053629
0.00020050085
0.00031115174
0.00056965607
0.0014558335
2.5510601e-05
2.7344363e-05
3.1421803e-05
3.7890538e-05
4.7196578e-05
6.0103648e-05
7.7932213e-05
0.00010309789
0.00014037957
0.00020037497
0.00031104788
0.00056953066
0.0014553996
2.5364229e-05
2.7191607e-05
3.1257216e-05
3.7712815e-05
4.7008903e-05
5.9913332e-05
7.7749298e-05
0.00010293299
0.00014024115
0.00020026562
0.00031095745
0.00056941477
0.0014549783
2.5223417e-05
2.7045323e-05
3.1100918e-05
3.7545753e-05
4.6834444e-05
5.9738542e-05
7.7583576e-05
0.00010278598
0.00014012012
0.00020017188
0.00031087967
0.00056930814
0.001454571
2.5088367e-05
2.6905647e-05
3.0952919e-05
3.7389207e-05
4.6672874e-05
5.9578769e-05
7.7434364e-05
0.00010265603
0.00014001555
0.00020009281
0.00031081377
0.00056921044
0.0014541788
2.495923e-05
2.6772669e-05
3.0813192e-05
3.7242995e-05
4.652384e-05
5.9433475e-05
7.7300949e-05
0.00010254229
0.0001399265
0.00020002746
0.00031075896
0.00056912133
0.0014538026
2.4836109e-05
2.6646437e-05
3.0681675e-05
3.7106909e-05
4.6386957e-05
5.9302096e-05
7.7182597e-05
0.00010244386
0.000139852
0.00019997487
0.00031071443
0.00056904044
0.0014534429
2.4719069e-05
2.6526965e-05
3.0558276e-05
3.6980709e-05
4.626182e-05
5.9184048e-05
7.7078556e-05
0.00010235987
0.00013979108
0.00019993412
0.00031067943
0.00056896739
0.0014531003
2.4608139e-05
2.6414232e-05
3.0442874e-05
3.6864134e-05
4.6147999e-05
5.907873e-05
7.6988066e-05
0.00010228944
0.00013974281
0.00019990427
0.00031065319
0.0005689018
0.0014527751
2.4503317e-05
2.6308187e-05
3.033532e-05
3.67569e-05
4.6045051e-05
5.8985532e-05
7.6910362e-05
0.00010223167
0.00013970624
0.00019988444
0.00031063498
0.00056884328
0.0014524675
2.4404571e-05
2.6208756e-05
3.0235442e-05
3.6658703e-05
4.5952517e-05
5.8903832e-05
7.6844678e-05
0.0001021857
0.00013968045
0.00019987374
0.0003106241
0.00056879147
0.0014521777
2.4311844e-05
2.6115835e-05
3.0143049e-05
3.6569224e-05
4.5869928e-05
5.8833009e-05
7.6790252e-05
0.00010215066
0.00013966456
0.00019987134
0.00031061986
0.00056874598
0.0014519055
2.4225056e-05
2.6029302e-05
3.005793e-05
3.648813e-05
4.5796807e-05
5.8772436e-05
7.6746332e-05
0.00010212573
0.0001396577
0.00019987643
0.00031062163
0.00056870642
0.0014516508
2.4144104e-05
2.5949016e-05
2.9979858e-05
3.6415075e-05
4.573267e-05
5.8721493e-05
7.6712176e-05
0.00010211007
0.00013965902
0.00019988824
0.00031062877
0.00056867243
0.0014514134
2.406887e-05
2.5874817e-05
2.9908593e-05
3.6349707e-05
4.5677034e-05
5.8679564e-05
7.6687058e-05
0.00010210289
0.00013966774
0.00019990604
0.00031064071
0.00056864364
0.001451193
2.3999216e-05
2.5806532e-05
2.9843883e-05
3.6291665e-05
4.5629413e-05
5.864604e-05
7.6670269e-05
0.00010210342
0.00013968308
0.00019992913
0.00031065689
0.00056861968
0.0014509893
2.3934991e-05
2.5743972e-05
2.9785467e-05
3.6240585e-05
4.5589326e-05
5.8620325e-05
7.6661119e-05
0.00010211093
0.00013970432
0.00019995685
0.00031067677
0.00056860018
0.0014508016
2.3876033e-05
2.568694e-05
2.9733074e-05
3.61961e-05
4.5556294e-05
5.8601833e-05
7.6658942e-05
0.00010212471
0.00013973075
0.00019998859
0.00031069988
0.00056858481
0.0014506296
2.3822166e-05
2.563523e-05
2.9686431e-05
3.6157843e-05
4.5529846e-05
5.8589996e-05
7.6663094e-05
0.00010214409
0.00013976173
0.00020002375
0.00031072575
0.00056857324
0.0014504726
2.3773207e-05
2.5588625e-05
2.9645259e-05
3.6125448e-05
4.5509519e-05
5.8584259e-05
7.6672957e-05
0.00010216841
0.00013979663
0.00020006181
0.00031075395
0.00056856516
0.0014503302
2.3728965e-05
2.5546906e-05
2.9609276e-05
3.6098552e-05
4.5494859e-05
5.8584088e-05
7.668794e-05
0.00010219707
0.00013983488
0.00020010226
0.00031078411
0.00056856028
0.0014502015
2.3689242e-05
2.5509847e-05
2.95782e-05
3.6076795e-05
4.5485424e-05
5.8588967e-05
7.6707478e-05
0.0001022295
0.00013987594
0.00020014464
0.00031081586
0.00056855834
0.0014500862
2.3653838e-05
2.5477221e-05
2.9551749e-05
3.6059824e-05
4.5480786e-05
5.85984e-05
7.6731035e-05
0.00010226516
0.00013991931
0.00020018852
0.00031084888
0.00056855911
0.0014499835
2.3622545e-05
2.5448796e-05
2.9529643e-05
3.6047294e-05
4.5480527e-05
5.8611913e-05
7.6758104e-05
0.00010230353
0.00013996452
0.00020023352
0.00031088286
0.00056856234
0.0014498929
2.3595157e-05
2.5424341e-05
2.9511604e-05
3.6038865e-05
4.5484246e-05
5.8629051e-05
7.6788203e-05
0.00010234416
0.00014001115
0.00020027927
0.00031091754
0.00056856781
0.0014498139
2.3571463e-05
2.5403627e-05
2.9497359e-05
3.6034208e-05
4.5491555e-05
5.8649384e-05
7.682088e-05
0.00010238659
0.00014005878
0.00020032545
0.00031095266
0.00056857529
0.0014497458
2.3551255e-05
2.5386423e-05
2.9486636e-05
3.6033001e-05
4.5502082e-05
5.8672499e-05
7.6855709e-05
0.00010243042
0.00014010707
0.00020037175
0.00031098797
0.00056858457
0.001449688
2.3534323e-05
2.5372501e-05
2.9479173e-05
3.6034933e-05
4.5515472e-05
5.8698009e-05
7.6892293e-05
0.00010247526
0.00014015566
0.0002004179
0.00031102326
0.00056859539
0.0014496399
2.352046e-05
2.5361638e-05
2.9474711e-05
3.6039706e-05
4.5531384e-05
5.8725547e-05
7.6930258e-05
0.00010252077
0.00014020426
0.00020046365
0.00031105833
0.00056860754
0.001449601
2.3509462e-05
2.5353613e-05
2.9473e-05
3.6047031e-05
4.5549497e-05
5.8754769e-05
7.6969261e-05
0.00010256661
0.00014025258
0.00020050877
0.00031109297
0.0005686208
0.0014495704
2.3501126e-05
2.5348211e-05
2.9473796e-05
3.6056632e-05
4.5569504e-05
5.8785352e-05
7.7008982e-05
0.00010261251
0.00014030037
0.00020055306
0.00031112704
0.00056863495
0.0014495476
2.3495256e-05
2.534522e-05
2.9476865e-05
3.6068246e-05
4.5591118e-05
5.8816998e-05
7.7049127e-05
0.00010265818
0.00014034742
0.00020059634
0.00031116039
0.00056864982
0.0014495318
2.3491658e-05
2.5344438e-05
2.9481981e-05
3.6081622e-05
4.5614068e-05
5.8849427e-05
7.7089431e-05
0.0001027034
0.00014039351
0.00020063847
0.00031119289
0.00056866526
0.0014495225
2.3490145e-05
2.5345666e-05
2.9488929e-05
3.6096523e-05
4.5638102e-05
5.8882385e-05
7.7129649e-05
0.00010274794
0.00014043849
0.00020067932
0.00031122445
0.00056868113
0.001449519
2.3490535e-05
2.5348714e-05
2.9497501e-05
3.6112726e-05
4.5662985e-05
5.8915636e-05
7.7169562e-05
0.00010279163
0.00014048221
0.00020071878
0.000311255
0.00056869735
0.0014495208
2.3492653e-05
2.5353399e-05
2.9507501e-05
3.613002e-05
4.5688497e-05
5.8948966e-05
7.7208975e-05
0.00010283429
0.00014052453
0.00020075677
0.00031128446
0.00056871381
0.0014495274
2.3496329e-05
2.5359546e-05
2.9518743e-05
3.6148207e-05
4.5714438e-05
5.898218e-05
7.7247713e-05
0.00010287579
0.00014056537
0.00020079321
0.00031131279
0.00056873043
0.0014495384
2.3501402e-05
2.5366986e-05
2.953105e-05
3.6167105e-05
4.5740622e-05
5.9015101e-05
7.7285619e-05
0.00010291599
0.00014060462
0.00020082807
0.00031133996
0.00056874714
0.0014495533
2.3507715e-05
2.5375562e-05
2.9544255e-05
3.618654e-05
4.5766879e-05
5.9047572e-05
7.7322559e-05
0.0001029548
0.00014064222
0.00020086128
0.00031136592
0.00056876384
0.0014495718
2.3515121e-05
2.538512e-05
2.9558203e-05
3.6206355e-05
4.5793055e-05
5.907945e-05
7.7358414e-05
0.00010299213
0.00014067811
0.00020089283
0.00031139064
0.00056878046
0.0014495935
2.3523478e-05
2.5395518e-05
2.9572747e-05
3.6226403e-05
4.5819008e-05
5.911061e-05
7.7393082e-05
0.0001030279
0.00014071225
0.00020092269
0.0003114141
0.00056879688
0.001449618
2.3532652e-05
2.540662e-05
2.958775e-05
3.6246548e-05
4.5844612e-05
5.9140942e-05
7.7426477e-05
0.00010306205
0.00014074461
0.00020095084
0.00031143628
0.00056881301
0.001449645
2.3542516e-05
2.5418299e-05
2.9603084e-05
3.6266667e-05
4.5869753e-05
5.9170349e-05
7.7458526e-05
0.00010309455
0.00014077517
0.00020097729
0.00031145717
0.00056882866
0.0014496739
2.3552953e-05
2.5430436e-05
2.9618633e-05
3.6286649e-05
4.5894331e-05
5.919875e-05
7.7489174e-05
0.00010312536
0.00014080393
0.00020100206
0.00031147676
0.00056884355
0.0014497043
2.3563849e-05
2.5442919e-05
2.9634288e-05
3.6306391e-05
4.5918258e-05
5.9226077e-05
7.7518375e-05
0.00010315447
0.00014083089
0.00020102514
0.00031149499
0.00056885767
0.0014497359
2.3575102e-05
2.5455647e-05
2.964995e-05
3.6325803e-05
4.5941458e-05
5.9252273e-05
7.7546098e-05
0.00010318187
0.00014085608
0.00020104657
0.00031151174
0.00056887114
0.0014497684
2.3586613e-05
2.5468524e-05
2.9665529e-05
3.6344805e-05
4.5963865e-05
5.9277294e-05
7.7572325e-05
0.00010320756
0.00014087951
0.00020106633
0.00031152709
0.00056888402
0.0014498016
2.3598295e-05
2.5481463e-05
2.9680944e-05
3.6363327e-05
4.5985425e-05
5.9301107e-05
7.7597046e-05
0.00010323157
0.00014090121
0.00020108437
0.00031154113
0.00056889634
0.0014498351
2.3610064e-05
2.5494384e-05
2.9696122e-05
3.6381306e-05
4.6006093e-05
5.9323689e-05
7.7620263e-05
0.00010325391
0.00014092117
0.00020110078
0.00031155394
0.00056890811
0.0014498689
2.3621846e-05
2.5507216e-05
2.9710997e-05
3.639869e-05
4.6025835e-05
5.9345027e-05
7.7641983e-05
0.00010327459
0.00014093939
0.00020111564
0.00031156559
0.00056891934
0.0014499027
2.3633573e-05
2.5519894e-05
2.9725515e-05
3.6415436e-05
4.6044625e-05
5.9365117e-05
7.7662228e-05
0.00010329361
0.00014095595
0.00020112902
0.00031157611
0.00056893
0.0014499363
2.3645183e-05
2.5532359e-05
2.9739624e-05
3.6431509e-05
4.6062447e-05
5.9383965e-05
7.7680984e-05
0.00010331101
0.00014097092
0.00020114099
0.00031158558
0.00056894009
0.0014499696
2.3656621e-05
2.5544561e-05
2.9753283e-05
3.644688e-05
4.6079292e-05
5.9401563e-05
7.7698267e-05
0.00010332684
0.00014098436
0.00020115163
0.00031159402
0.00056894959
0.0014500022
2.3667839e-05
2.5556456e-05
2.9766459e-05
3.6461532e-05
4.6095148e-05
5.941791e-05
7.7714117e-05
0.00010334116
0.00014099635
0.00020116099
0.0003116015
0.0005689585
0.0014500341
2.3678795e-05
2.5568007e-05
2.9779124e-05
3.6475442e-05
4.6110004e-05
5.9433026e-05
7.7728578e-05
0.00010335404
0.00014100695
0.00020116915
0.00031160806
0.00056896681
0.0014500652
2.3689453e-05
2.5579183e-05
2.979125e-05
3.6488595e-05
4.6123866e-05
5.9446941e-05
7.7741699e-05
0.00010336554
0.00014101625
0.00020117619
0.00031161376
0.00056897456
0.0014500952
2.3699779e-05
2.5589951e-05
2.9802815e-05
3.6500982e-05
4.6136746e-05
5.9459686e-05
7.7753532e-05
0.00010337573
0.00014102431
0.00020118217
0.00031161866
0.00056898177
0.0014501242
2.3709745e-05
2.5600286e-05
2.9813804e-05
3.6512602e-05
4.614866e-05
5.9471299e-05
7.7764133e-05
0.00010338467
0.00014103122
0.00020118717
0.00031162281
0.00056898847
0.0014501521
2.3719324e-05
2.5610169e-05
2.9824204e-05
3.652346e-05
4.6159632e-05
5.9481821e-05
7.7773558e-05
0.00010339244
0.00014103704
0.00020119125
0.00031162628
0.0005689947
0.0014501789
2.3728498e-05
2.5619583e-05
2.983401e-05
3.6533564e-05
4.6169685e-05
5.9491295e-05
7.7781867e-05
0.0001033991
0.00014104186
0.0002011945
0.00031162913
0.00056900051
0.0014502046
2.3737249e-05
2.5628516e-05
2.9843221e-05
3.6542924e-05
4.617885e-05
5.9499766e-05
7.7789119e-05
0.00010340473
0.00014104573
0.00020119697
0.0003116314
0.00056900591
0.0014502292
2.3745566e-05
2.5636962e-05
2.9851838e-05
3.6551558e-05
4.6187155e-05
5.9507279e-05
7.7795372e-05
0.00010340939
0.00014104874
0.00020119873
0.00031163313
0.0005690109
0.0014502528
2.3753439e-05
2.5644915e-05
2.9859866e-05
3.6559482e-05
4.6194634e-05
5.9513882e-05
7.7800685e-05
0.00010341314
0.00014105094
0.00020119982
0.00031163436
0.00056901549
0.0014502754
2.3760865e-05
2.5652376e-05
2.9867313e-05
3.6566716e-05
4.6201321e-05
5.9519621e-05
7.7805114e-05
0.00010341605
0.00014105239
0.00020120031
0.00031163513
0.00056901966
0.0014502968
2.3767842e-05
2.5659346e-05
2.987419e-05
3.6573284e-05
4.6207251e-05
5.9524544e-05
7.7808717e-05
0.00010341818
0.00014105316
0.00020120024
0.00031163545
0.0005690234
0.0014503172
2.377437e-05
2.566583e-05
2.988051e-05
3.6579208e-05
4.621246e-05
5.9528698e-05
7.781155e-05
0.00010341959
0.0001410533
0.00020119966
0.00031163536
0.00056902668