/*--------------------------------*- C++ -*----------------------------------*\
| =========                 |                                                 |
| \\      /  F ield         | OpenFOAM: The Open Source CFD Toolbox           |
|  \\    /   O peration     | Version:  2506                                  |
|   \\  /    A nd           | Website:  www.openfoam.com                      |
|    \\/     M anipulation  |                                                 |
\*---------------------------------------------------------------------------*/
FoamFile
{
    version     2.0;
    format      ascii;
    arch        "LSB;label=32;scalar=64";
    class       volScalarField;
    location    "18000/water";
    object      k;
}
// * * * * * * * * * * * * * * * * * * * * * * * * * * * * * * * * * * * * * //

dimensions      [0 2 -2 0 0 0 0];

internalField   nonuniform List<scalar> 
2600
(
0.0001992401
0.00019923925
0.00019923929
0.00019923963
0.00019923982
0.00019923914
0.00019923438
0.00019921375
0.00019914651
0.00019904325
0.00019990841
0.00021454267
0.00040955349
0.00017237279
0.00017237614
0.00017237826
0.00017238051
0.0001723821
0.00017237949
0.00017235884
0.00017227555
0.000172027
0.00017162102
0.00017329371
0.00020304806
0.00052391648
0.00015132731
0.00015133049
0.00015133306
0.00015133552
0.00015133516
0.00015132207
0.00015126283
0.00015106462
0.00015055477
0.00014985944
0.0001528957
0.00019760629
0.00057958156
0.00013448336
0.00013448533
0.00013448764
0.00013448905
0.00013448325
0.00013445009
0.00013432997
0.00013398205
0.00013321503
0.00013247936
0.00013787909
0.00019702317
0.00059640815
0.00012075551
0.00012075697
0.00012075853
0.00012075718
0.00012074152
0.0001206782
0.00012048052
0.00011997843
0.0001190486
0.00011870929
0.00012776334
0.00020116854
0.00059206885
0.0001093899
0.00010939088
0.000109391
0.00010938492
0.00010935483
0.00010925313
0.00010897207
0.00010834649
0.00010742643
0.0001080609
0.00012226457
0.00021023394
0.00057809221
9.984982e-05
9.9850093e-05
9.9847944e-05
9.9835056e-05
9.9786463e-05
9.9641865e-05
9.9284958e-05
9.859999e-05
9.7925044e-05
0.00010022517
0.00012123091
0.00022425603
0.00056106272
9.1744874e-05
9.174416e-05
9.1738826e-05
9.1717148e-05
9.1647174e-05
9.1460104e-05
9.1049018e-05
9.0398665e-05
9.0258419e-05
9.5030413e-05
0.00012461431
0.00024286356
0.00054449405
8.4785472e-05
8.4783454e-05
8.4774018e-05
8.4741918e-05
8.4649457e-05
8.4426122e-05
8.3996574e-05
8.3502376e-05
8.4241543e-05
9.2421343e-05
0.00013239492
0.00026511347
0.00053012765
7.8752977e-05
7.8749319e-05
7.8734951e-05
7.8691403e-05
7.8577619e-05
7.8330528e-05
7.7932172e-05
7.7743318e-05
7.9771153e-05
9.2438123e-05
0.00014444361
0.00028951151
0.0005186607
7.3479682e-05
7.3474066e-05
7.3454131e-05
7.3398964e-05
7.3267704e-05
7.3016085e-05
7.2712929e-05
7.3009357e-05
7.6815021e-05
9.5182833e-05
0.00016036324
0.00031428525
0.00051014247
6.8835097e-05
6.8827266e-05
6.8801436e-05
6.8735571e-05
6.8593744e-05
6.836405e-05
6.8235745e-05
6.9234209e-05
7.5403717e-05
0.00010076472
0.00017939076
0.00033780739
0.0005042266
6.4716374e-05
6.4706175e-05
6.4674551e-05
6.4600233e-05
6.4458202e-05
6.4284863e-05
6.4429045e-05
6.6391811e-05
7.5619872e-05
0.0001092241
0.00020043528
0.00035894529
0.00050037283
6.1041501e-05
6.1028932e-05
6.0992164e-05
6.091321e-05
6.0785257e-05
6.0711783e-05
6.1247563e-05
6.4493003e-05
7.7580808e-05
0.00012045028
0.00022225715
0.00037717552
0.0004980107
5.7744396e-05
5.7729653e-05
5.7689074e-05
5.7611142e-05
5.751606e-05
5.7596592e-05
5.8669223e-05
6.3582872e-05
8.1411587e-05
0.00013412437
0.00024370832
0.00039247762
0.00049664628
5.4771313e-05
5.4754847e-05
5.4712615e-05
5.4643526e-05
5.4605384e-05
5.4906753e-05
5.6693486e-05
6.3736861e-05
8.7208043e-05
0.00014971788
0.00026392364
0.00040513366
0.00049590625
5.2078186e-05
5.206076e-05
5.2020025e-05
5.1970154e-05
5.2019282e-05
5.2623661e-05
5.5340604e-05
6.5053658e-05
9.4994185e-05
0.00016655656
0.0002823955
0.00041554871
0.00049553614
4.9628636e-05
4.9611393e-05
4.9576492e-05
4.9559258e-05
4.9733503e-05
5.0741692e-05
5.4651195e-05
6.7643172e-05
0.00010468473
0.00018392817
0.00029893687
0.00042413794
0.00049537652
4.7392458e-05
4.7377004e-05
4.7353699e-05
4.7386176e-05
4.773248e-05
4.9267885e-05
5.4685329e-05
7.1608743e-05
0.00011606686
0.00020119288
0.00031358495
0.0004312733
0.0004953351
4.5344476e-05
4.5332971e-05
4.5328746e-05
4.5432431e-05
4.600877e-05
4.8222045e-05
5.5520138e-05
7.7024461e-05
0.0001288111
0.00021785898
0.00032650009
0.00043726613
0.00049536294
4.3463657e-05
4.3458933e-05
4.3483358e-05
4.3685127e-05
4.4562868e-05
4.7637065e-05
5.7244887e-05
8.3911106e-05
0.00014251076
0.00023360813
0.00033789056
0.00044236711
0.00049543702
4.1732429e-05
4.173814e-05
4.1803329e-05
4.2136614e-05
4.3403329e-05
4.7559127e-05
5.9952699e-05
9.2216773e-05
0.00015673762
0.00024827797
0.00034796834
0.00044677301
0.00049554866
4.0136167e-05
4.015697e-05
4.0278148e-05
4.0784372e-05
4.2547129e-05
4.8047288e-05
6.3728701e-05
0.00010180889
0.00017109624
0.00026182259
0.0003569282
0.00045063571
0.00049569617
3.8662802e-05
3.8704582e-05
3.8900797e-05
3.9631107e-05
4.2020194e-05
4.9171841e-05
6.8635431e-05
0.00011248166
0.0001852623
0.00027427018
0.00036494028
0.00045407114
0.00049588069
3.7302531e-05
3.7372692e-05
3.7667676e-05
3.8685008e-05
4.1857944e-05
5.1010817e-05
7.4697747e-05
0.00012397798
0.00019899861
0.00028568912
0.00037214923
0.00045716736
0.00049610392
3.6047628e-05
3.6155447e-05
3.6578682e-05
3.7960182e-05
4.2105652e-05
5.3644138e-05
8.1890767e-05
0.00013601988
0.00021215193
0.00029616533
0.00037867608
0.00045999117
0.00049636709
3.4892327e-05
3.5049398e-05
3.5637398e-05
3.7477201e-05
4.2818255e-05
5.7145346e-05
9.013449e-05
0.00014833915
0.00022463802
0.00030578893
0.00038462123
0.0004625934
0.00049667064
3.383279e-05
3.4053569e-05
3.4851411e-05
3.7263736e-05
4.4059204e-05
6.1571463e-05
9.9297382e-05
0.00016070076
0.00023642316
0.00031464713
0.00039006764
0.00046501299
0.00049701416
3.2867148e-05
3.316962e-05
3.4232755e-05
3.7355162e-05
4.589791e-05
6.6952453e-05
0.00010920861
0.0001729158
0.00024750738
0.00032282077
0.00039508379
0.00046727996
0.00049739654
3.1995627e-05
3.2402111e-05
3.3798454e-05
3.7794962e-05
4.8405428e-05
7.3282439e-05
0.00011967597
0.00018484396
0.00025791153
0.00033038288
0.00039972633
0.00046941774
0.00049781615
3.1220754e-05
3.1758868e-05
3.3571166e-05
3.8634689e-05
5.1648302e-05
8.0515038e-05
0.00013050501
0.00019638897
0.00026766839
0.00033739836
0.00040404224
0.00047144508
0.00049827105
3.0547674e-05
3.1251458e-05
3.3579859e-05
3.9933129e-05
5.5680958e-05
8.8564417e-05
0.00014151527
0.00020749041
0.00027681665
0.00034392427
0.00040806987
0.00047336165
0.00049875826
2.9984563e-05
3.0895779e-05
3.3860462e-05
4.1754324e-05
6.0537586e-05
9.7312155e-05
0.00015255089
0.00021811502
0.00028539699
0.00035000997
0.00041183983
0.00047517684
0.00049927448
2.9543172e-05
3.0712741e-05
3.4456304e-05
4.4164152e-05
6.6225008e-05
0.00010661844
0.0001634853
0.00022824915
0.00029345002
0.00035569879
0.00041537498
0.00047690098
0.00049981638
2.9239498e-05
3.072904e-05
3.5418149e-05
4.7225366e-05
7.2718219e-05
0.00011633497
0.00017422102
0.00023789273
0.00030101459
0.00036102773
0.000418694
0.00047854313
0.00050038114
2.9094595e-05
3.0977952e-05
3.6803502e-05
5.0991335e-05
7.9959885e-05
0.00012631696
0.00018468652
0.00024705469
0.00030812684
0.00036602759
0.00042181619
0.00048011509
0.00050096676
2.9135496e-05
3.1500046e-05
3.8674861e-05
5.549919e-05
8.7864166e-05
0.00013643209
0.00019483195
0.00025575014
0.00031482083
0.00037072328
0.00042475508
0.00048162854
0.000501572
2.9396231e-05
3.2343669e-05
4.1096631e-05
6.0763504e-05
9.6324073e-05
0.00014656574
0.00020462431
0.0002639967
0.00032112526
0.00037513787
0.00042753007
0.00048308916
0.00050219529
2.991884e-05
3.3564908e-05
4.4130584e-05
6.6771884e-05
0.00010522079
0.00015662302
0.00021404417
0.00027181504
0.00032706606
0.00037928746
0.00043015897
0.00048450265
0.00050283511
3.075424e-05
3.5226723e-05
4.7830031e-05
7.3483552e-05
0.00011443287
0.00016652783
0.00022308101
0.00027922363
0.00033266467
0.00038319522
0.0004326545
0.00048587307
0.00050348988
3.1962693e-05
3.739684e-05
5.2233346e-05
8.0831454e-05
0.00012384408
0.00017622136
0.00023173237
0.0002862417
0.00033793723
0.00038688253
0.00043502773
0.00048720352
0.00050415803
3.3613502e-05
4.0144088e-05
5.7357846e-05
8.8727393e-05
0.00013334836
0.00018565851
0.00023999855
0.00029288457
0.000342906
0.00039036649
0.00043728791
0.00048849634
0.00050483797
3.5783405e-05
4.3533071e-05
6.3195309e-05
9.7069232e-05
0.00014285306
0.00019480683
0.00024788469
0.00029916231
0.0003475933
0.00039366187
0.00043944269
0.00048975325
0.00050552812
3.8553066e-05
4.7617432e-05
6.9710117e-05
0.00010574827
0.00015227865
0.00020364078
0.00025539329
0.00030509328
0.00035201758
0.00039678117
0.00044149842
0.00049097544
0.00050622692
4.2001153e-05
5.2432562e-05
7.684072e-05
0.00011465641
0.00016156001
0.00021214494
0.00026252193
0.00031069682
0.00035619499
0.00039973503
0.00044346029
0.00049216366
0.00050693282
4.6195918e-05
5.7988962e-05
8.4503814e-05
0.0001236906
0.00017064178
0.00022029901
0.00026928193
0.00031598927
0.00036013924
0.00040253237
0.00044533251
0.00049331826
0.00050764432
5.1185014e-05
6.4267708e-05
9.2600632e-05
0.00013275649
0.00017947938
0.00022808588
0.00027568469
0.00032098501
0.000363862
0.00040518055
0.00044711835
0.0004944392
0.00050835988
5.6985354e-05
7.1219284e-05
0.00010102456
0.00014177164
0.00018802207
0.00023550302
0.00028174029
0.00032569629
0.00036737302
0.00040768554
0.00044882024
0.00049552613
0.00050907799
6.357547e-05
7.8766073e-05
0.00010966807
0.00015065101
0.00019623699
0.00024254863
0.00028745745
0.00033013329
0.00037068022
0.00041005204
0.00045043986
0.00049657836
0.00050979712
7.0893476e-05
8.6809018e-05
0.00011841799
0.00015932162
0.00020409989
0.00024922138
0.00029284335
0.00033430426
0.00037378983
0.00041228347
0.00045197811
0.00049759483
0.00051051571
7.8838257e-05
9.522537e-05
0.00012716547
0.00016772589
0.00021159052
0.00025551999
0.00029790358
0.00033821554
0.00037670648
0.00041438213
0.00045343518
0.00049857418
0.00051123214
8.7271744e-05
0.00010388138
0.00013581417
0.00017581507
0.00021869192
0.00026144297
0.00030264214
0.00034187168
0.00037943325
0.0004163492
0.00045481055
0.0004995147
0.00051194473
9.6036192e-05
0.00011264289
0.00014427886
0.00018354851
0.00022538999
0.00026698863
0.00030706161
0.00034527556
0.00038197182
0.00041818479
0.00045610305
0.00050041433
0.00051265169
0.00010496811
0.00012138219
0.00015248589
0.00019089302
0.00023167335
0.00027215518
0.00031116333
0.00034842867
0.00038432262
0.00041988809
0.00045731084
0.00050127065
0.00051335113
0.0001139106
0.00012998323
0.00016037326
0.00019782236
0.00023753334
0.00027694109
0.00031494782
0.0003513313
0.00038648499
0.00042145745
0.00045843155
0.00050208096
0.000514041
0.00012272249
0.00013834519
0.00016789035
0.00020431696
0.00024296425
0.00028134553
0.00031841516
0.00035398297
0.00038845747
0.00042289053
0.00045946232
0.00050284227
0.00051471912
0.00013128389
0.00014638429
0.00017499755
0.00021036346
0.00024796341
0.00028536876
0.00032156551
0.00035638279
0.00039023808
0.00042418455
0.00046039997
0.0005035514
0.00051538316
0.00013949844
0.0001540343
0.00018166559
0.00021595442
0.00025253142
0.00028901261
0.00032439959
0.00035852995
0.00039182471
0.00042533656
0.00046124116
0.00050420508
0.00051603066
0.00014729306
0.00016124584
0.00018787484
0.00022108782
0.00025667211
0.00029228085
0.00032691919
0.00036042414
0.00039321546
0.00042634368
0.00046198262
0.00050480009
0.00051665909
0.00015461612
0.00016798499
0.00019361429
0.00022576657
0.00026039249
0.00029517936
0.00032912751
0.00036206599
0.00039440905
0.00042720346
0.00046262136
0.00050533339
0.00051726585
0.00016143467
0.00017423145
0.00019888061
0.00022999796
0.00026370257
0.00029771632
0.00033102948
0.00036345743
0.00039540518
0.00042791418
0.00046315496
0.0005058023
0.00051784834
0.00016773141
0.00017997641
0.00020367703
0.00023379302
0.00026661508
0.00029990217
0.00033263197
0.00036460196
0.00039620481
0.00042847513
0.00046358173
0.0005062047
0.00051840409
0.00017350166
0.00018522057
0.00020801227
0.00023716599
0.00026914508
0.00030174947
0.00033394378
0.00036550485
0.00039681039
0.00042888684
0.00046390098
0.00050653909
0.00051893073
0.00017875061
0.00018997216
0.0002118995
0.00024013365
0.00027130963
0.0003032727
0.00033497567
0.00036617318
0.00039722604
0.00042915123
0.00046411314
0.00050680479
0.00051942617
0.00018349098
0.00019424526
0.00021535542
0.0002427148
0.00027312734
0.00030448801
0.00033574018
0.00036661586
0.00039745758
0.00042927175
0.00046421989
0.000507002
0.00051988856
0.000187741
0.0001980583
0.00021839936
0.00024492975
0.00027461803
0.00030541288
0.00033625141
0.00036684347
0.00039751249
0.00042925336
0.00046422414
0.0005071318
0.00052031645
0.00019152277
0.00020143281
0.00022105258
0.00024679982
0.00027580231
0.00030606584
0.00033652481
0.00036686813
0.00039739981
0.00042910247
0.00046413006
0.0005071962
0.00052070875
0.00019486098
0.00020439242
0.0002233376
0.00024834698
0.0002767013
0.00030646611
0.00033657686
0.00036670326
0.00039712998
0.00042882685
0.00046394298
0.00050719807
0.00052106481
0.0001977819
0.00020696202
0.00022527765
0.0002495935
0.00027733631
0.00030663334
0.00033642479
0.00036636327
0.00039671461
0.00042843542
0.00046366925
0.00050714102
0.00052138438
0.00020031253
0.00020916714
0.00022689632
0.00025056161
0.00027772856
0.00030658731
0.00033608631
0.00036586336
0.00039616622
0.00042793805
0.00046331607
0.00050702935
0.00052166765
0.0002024801
0.00021103342
0.0002282171
0.00025127332
0.00027789902
0.00030634772
0.0003355793
0.00036521919
0.000395498
0.00042734535
0.00046289132
0.00050686785
0.00052191518
0.00020431153
0.00021258623
0.00022926317
0.0002517502
0.00027786819
0.00030593397
0.00033492163
0.00036444663
0.00039472354
0.0004266684
0.00046240333
0.00050666173
0.00052212791
0.00020583316
0.00021385041
0.00023005719
0.00025201319
0.00027765595
0.00030536494
0.00033413087
0.00036356152
0.00039385657
0.00042591852
0.0004618607
0.00050641639
0.00052230708
0.00020707048
0.00021485002
0.00023062107
0.00025208254
0.00027728147
0.0003046589
0.00033322415
0.00036257946
0.00039291074
0.00042510706
0.00046127211
0.00050613736
0.00052245421
0.00020804801
0.00021560821
0.00023097591
0.00025197766
0.00027676309
0.00030383339
0.000332218
0.00036151558
0.00039189942
0.0004242452
0.00046064612
0.00050583015
0.00052257104
0.00020878912
0.0002161471
0.00023114189
0.00025171706
0.00027611827
0.00030290507
0.00033112821
0.00036038445
0.00039083551
0.00042334376
0.00045999105
0.0005055001
0.00052265946
0.00020931603
0.00021648774
0.0002311382
0.00025131834
0.00027536353
0.00030188972
0.00032996972
0.00035919991
0.00038973131
0.00042241307
0.00045931483
0.00050515234
0.0005227215
0.00020964974
0.00021665003
0.000230983
0.00025079811
0.00027451443
0.00030080215
0.00032875661
0.00035797496
0.00038859841
0.00042146286
0.00045862494
0.00050479173
0.00052275924
0.00020981002
0.00021665275
0.00023069343
0.00025017199
0.00027358555
0.00029965619
0.00032750195
0.00035672173
0.00038744759
0.00042050216
0.00045792827
0.00050442273
0.00052277482
0.00020981541
0.0002165135
0.00023028557
0.00024945462
0.00027259047
0.00029846469
0.00032621788
0.00035545142
0.00038628877
0.00041953926
0.00045723112
0.00050404943
0.00052277035
0.00020968327
0.00021624878
0.00022977446
0.00024865965
0.0002715418
0.00029723948
0.00032491552
0.00035417426
0.00038513099
0.00041858165
0.00045653917
0.00050367553
0.00052274791
0.00020942977
0.00021587395
0.00022917413
0.00024779977
0.00027045117
0.00029599144
0.000323605
0.00035289951
0.00038398238
0.00041763602
0.00045585742
0.00050330428
0.00052270954
0.00020906993
0.00021540331
0.00022849761
0.0002468867
0.00026932928
0.00029473045
0.00032229551
0.0003516355
0.00038285017
0.00041670827
0.00045519027
0.00050293854
0.00052265717
0.00020861769
0.0002148501
0.00022775694
0.00024593127
0.00026818592
0.00029346549
0.00032099525
0.00035038961
0.00038174072
0.00041580351
0.00045454147
0.00050258074
0.00052259267
0.00020808595
0.00021422658
0.00022696325
0.00024494338
0.00026702998
0.00029220463
0.00031971156
0.00034916833
0.00038065952
0.0004149261
0.00045391415
0.00050223294
0.00052251779
0.00020748656
0.00021354402
0.00022612676
0.00024393213
0.00026586953
0.00029095509
0.00031845087
0.0003479773
0.00037961127
0.00041407966
0.0004533108
0.00050189536
0.00052243408
0.00020683046
0.00021281279
0.00022525682
0.00024290574
0.00026471181
0.00028972326
0.00031721881
0.0003468213
0.00037859986
0.00041326709
0.00045273314
0.00050156774
0.00052234289
0.00020612765
0.00021204237
0.00022436199
0.00024187171
0.00026356331
0.00028851478
0.00031602022
0.00034570441
0.0003776285
0.00041249063
0.00045218156
0.00050125095
0.00052224541
0.00020538729
0.00021124143
0.00022345003
0.00024083676
0.00026242979
0.00028733454
0.0003148592
0.00034462993
0.00037669965
0.00041175175
0.0004516567
0.00050094651
0.00052214285
0.00020461772
0.00021041785
0.00022252797
0.00023980695
0.00026131633
0.00028618677
0.00031373921
0.00034360057
0.00037581522
0.00041105091
0.00045115877
0.00050065633
0.00052203649
0.00020382653
0.00020957878
0.00022160215
0.00023878764
0.00026022739
0.00028507507
0.00031266307
0.00034261834
0.00037497617
0.00041038834
0.00045068899
0.00050038145
0.00052192751
0.00020302056
0.00020873067
0.00022067825
0.00023778362
0.00025916682
0.00028400244
0.00031163297
0.00034168464
0.00037418296
0.00040976431
0.0004502482
0.00050012256
0.00052181698
0.00020220603
0.00020787934
0.00021976136
0.00023679907
0.00025813792
0.00028297136
0.00031065062
0.0003408002
0.00037343533
0.00040917948
0.00044983681
0.00049988009
0.00052170584
0.00020138849
0.00020702998
0.000218856
0.00023583767
0.00025714348
0.00028198378
0.00030971705
0.000339965
0.00037273362
0.000408634
0.00044945483
0.00049965419
0.00052159493
0.00020057294
0.00020618723
0.00021796612
0.00023490257
0.00025618581
0.00028104113
0.0003088327
0.00033917898
0.00037207792
0.00040812769
0.000449102
0.00049944481
0.00052148499
0.0001997638
0.00020535522
0.00021709524
0.00023399648
0.00025526677
0.00028014433
0.00030799744
0.00033844226
0.00037146795
0.00040766006
0.00044877785
0.00049925174
0.00052137665
0.00019896501
0.00020453756
0.00021624637
0.00023312167
0.00025438771
0.00027929348
0.00030721146
0.00033775456
0.00037090313
0.00040723036
0.00044848167
0.00049907463
0.00052127046
0.00019818006
0.00020373745
0.00021542216
0.00023227992
0.00025354926
0.00027848902
0.00030647465
0.00033711534
0.0003703826
0.00040683762
0.00044821263
0.00049891302
0.00052116689
0.00019741199
0.00020295765
0.00021462465
0.0002314724
0.00025275214
0.00027773106
0.0003057866
0.00033652378
0.00036990528
0.00040648071
0.00044796976
0.00049876638
0.00052106632
0.00019666333
0.00020220036
0.0002138555
0.00023070019
0.00025199679
0.00027701944
0.00030514663
0.00033597882
0.0003694699
0.00040615835
0.00044775199
0.00049863413
0.00052096907
0.00019593623
0.00020146746
0.0002131161
0.00022996411
0.00025128342
0.00027635378
0.00030455388
0.00033547922
0.00036907505
0.00040586914
0.00044755819
0.00049851561
0.00052087542
0.00019523248
0.00020076051
0.00021240758
0.00022926472
0.00025061196
0.00027573346
0.00030400726
0.00033502358
0.00036871917
0.00040561159
0.00044738715
0.00049841016
0.00052078556
0.00019455361
0.00020008081
0.0002117308
0.00022860232
0.00024998217
0.00027515769
0.00030350552
0.00033461037
0.00036840061
0.00040538415
0.00044723766
0.00049831709
0.00052069967
0.00019390084
0.0001994294
0.0002110864
0.00022797704
0.00024939359
0.00027462549
0.00030304728
0.00033423793
0.00036811767
0.00040518525
0.00044710846
0.0004982357
0.00052061785
0.0001932752
0.00019880708
0.00021047479
0.00022738878
0.00024884559
0.00027413574
0.00030263104
0.00033390453
0.00036786855
0.00040501327
0.00044699831
0.00049816529
0.00052054018
0.00019267745
0.00019821445
0.00020989617
0.00022683727
0.0002483374
0.0002736872
0.00030225519
0.00033360838
0.00036765147
0.0004048666
0.00044690598
0.00049810517
0.00052046672
0.00019210817
0.00019765188
0.00020935058
0.00022632207
0.00024786808
0.00027327851
0.00030191807
0.00033334764
0.0003674646
0.00040474363
0.00044683026
0.00049805466
0.00052039747
0.00019156773
0.00019711958
0.00020883789
0.00022584262
0.00024743662
0.00027290823
0.00030161793
0.00033312045
0.00036730614
0.00040464279
0.00044676994
0.00049801311
0.00052033244
0.00019105633
0.00019661759
0.0002083578
0.00022539821
0.00024704187
0.00027257485
0.00030135301
0.00033292492
0.00036717426
0.00040456251
0.00044672388
0.00049797986
0.00052027158
0.000190574
0.00019614579
0.00020790988
0.00022498801
0.00024668259
0.00027227679
0.0003011215
0.00033275918
0.0003670672
0.00040450126
0.00044669094
0.0004979543
0.00052021485
0.00019012064
0.00019570392
0.00020749358
0.0002246111
0.0002463575
0.00027201242
0.00030092156
0.00033262136
0.0003669832
0.00040445758
0.00044667005
0.00049793581
0.00052016218
0.000189696
0.00019529158
0.00020710824
0.00022426646
0.0002460652
0.00027178009
0.00030075137
0.00033250959
0.00036692052
0.00040443
0.00044666013
0.00049792381
0.00052011348
0.00018929971
0.00019490827
0.00020675308
0.00022395299
0.00024580428
0.0002715781
0.0003006091
0.00033242204
0.0003668775
0.00040441713
0.00044666018
0.00049791772
0.00052006863
0.00018893127
0.00019455339
0.00020642724
0.00022366953
0.00024557328
0.00027140475
0.00030049291
0.0003323569
0.00036685247
0.00040441761
0.00044666921
0.00049791698
0.00052002753
0.0001885901
0.00019422621
0.0002061298
0.00022341486
0.00024537069
0.00027125833
0.00030040101
0.00033231242
0.00036684386
0.00040443013
0.00044668628
0.00049792107
0.00051999002
0.00018827554
0.00019392597
0.00020585975
0.00022318772
0.00024519499
0.00027113715
0.00030033161
0.00033228686
0.00036685011
0.00040445344
0.00044671048
0.00049792947
0.00051995598
0.00018798683
0.00019365181
0.00020561604
0.00022298681
0.00024504466
0.00027103952
0.00030028299
0.00033227857
0.00036686976
0.00040448634
0.00044674098
0.0004979417
0.00051992525
0.00018772316
0.00019340282
0.00020539758
0.00022281081
0.00024491819
0.00027096378
0.00030025345
0.00033228595
0.0003669014
0.00040452772
0.00044677697
0.00049795733
0.00051989769
0.00018748367
0.00019317805
0.00020520324
0.0002226584
0.00024481406
0.00027090832
0.00030024138
0.00033230747
0.00036694371
0.00040457651
0.00044681773
0.00049797593
0.00051987316
0.00018726745
0.00019297651
0.00020503189
0.00022252826
0.0002447308
0.00027087158
0.00030024521
0.00033234168
0.00036699545
0.00040463176
0.00044686258
0.00049799713
0.00051985151
0.00018707357
0.00019279719
0.00020488236
0.00022241907
0.00024466696
0.00027085203
0.00030026346
0.00033238722
0.00036705544
0.00040469255
0.0004469109
0.0004980206
0.00051983261
0.00018690105
0.00019263905
0.0002047535
0.00022232952
0.00024462112
0.00027084821
0.00030029469
0.00033244279
0.0003671226
0.00040475804
0.00044696212
0.00049804601
0.00051981631
0.00018674891
0.00019250104
0.00020464414
0.00022225833
0.00024459189
0.0002708587
0.00030033754
0.00033250717
0.00036719591
0.00040482746
0.00044701572
0.00049807306
0.00051980248
0.00018661613
0.0001923821
0.00020455311
0.00022220422
0.00024457793
0.00027088214
0.00030039072
0.00033257919
0.0003672744
0.00040490008
0.00044707119
0.00049810148
0.00051979097
0.00018650168
0.00019228113
0.00020447925
0.00022216594
0.00024457791
0.00027091722
0.00030045298
0.00033265774
0.00036735716
0.0004049752
0.00044712806
0.00049813098
0.00051978163
0.00018640453
0.00019219707
0.0002044214
0.00022214225
0.00024459055
0.00027096265
0.00030052313
0.00033274179
0.00036744333
0.00040505216
0.00044718588
0.00049816128
0.00051977431
0.00018632362
0.00019212883
0.0002043784
0.00022213193
0.00024461462
0.00027101722
0.00030060002
0.00033283033
0.00036753209
0.00040513035
0.00044724421
0.00049819213
0.00051976885
0.00018625791
0.00019207533
0.00020434913
0.00022213379
0.00024464888
0.00027107975
0.00030068258
0.0003329224
0.00036762266
0.00040520917
0.00044730265
0.00049822327
0.0005197651
0.00018620635
0.00019203549
0.00020433247
0.00022214668
0.0002446922
0.00027114912
0.00030076976
0.00033301714
0.00036771433
0.00040528808
0.00044736081
0.00049825447
0.00051976288
0.00018616792
0.00019200827
0.00020432732
0.00022216948
0.00024474345
0.00027122427
0.00030086063
0.00033311371
0.00036780643
0.00040536659
0.00044741837
0.00049828552
0.00051976208
0.00018614162
0.00019199265
0.00020433264
0.00022220114
0.00024480159
0.00027130421
0.00030095428
0.00033321137
0.00036789838
0.00040544426
0.00044747503
0.00049831624
0.00051976253
0.00018612645
0.00019198762
0.00020434742
0.00022224063
0.00024486563
0.00027138803
0.00030104991
0.00033330944
0.00036798966
0.00040552073
0.00044753056
0.00049834651
0.00051976414
0.0001861215
0.00019199225
0.0002043707
0.00022228701
0.00024493466
0.00027147489
0.0003011468
0.00033340734
0.0003680798
0.00040559569
0.00044758475
0.0004983762
0.00051976678
0.00018612584
0.00019200563
0.00020440157
0.00022233938
0.00024500784
0.00027156401
0.00030124428
0.00033350453
0.00036816844
0.00040566886
0.00044763746
0.00049840523
0.00051977035
0.00018613862
0.00019202688
0.00020443918
0.00022239691
0.00024508438
0.00027165471
0.00030134177
0.00033360056
0.00036825523
0.00040574005
0.00044768856
0.00049843352
0.00051977478
0.00018615902
0.00019205519
0.0002044827
0.00022245881
0.00024516355
0.00027174635
0.00030143875
0.00033369502
0.00036833989
0.00040580907
0.00044773795
0.00049846103
0.00051977995
0.00018618624
0.00019208978
0.00020453138
0.00022252437
0.0002452447
0.00027183834
0.00030153474
0.00033378756
0.00036842218
0.00040587576
0.00044778553
0.00049848768
0.00051978579
0.00018621953
0.0001921299
0.00020458449
0.00022259289
0.00024532721
0.00027193017
0.00030162931
0.00033387785
0.00036850187
0.00040593998
0.00044783122
0.0004985133
0.00051979221
0.00018625817
0.00019217483
0.00020464135
0.00022266374
0.00024541049
0.00027202134
0.00030172209
0.00033396562
0.00036857877
0.00040600161
0.00044787491
0.00049853772
0.0005197991
0.00018630147
0.0001922239
0.0002047013
0.00022273632
0.00024549404
0.00027211142
0.00030181273
0.00033405061
0.00036865271
0.00040606053
0.00044791645
0.00049856086
0.00051980636
0.00018634876
0.00019227646
0.00020476373
0.00022281006
0.00024557734
0.0002722
0.00030190092
0.0003341326
0.00036872354
0.00040611665
0.00044795576
0.00049858273
0.0005198139
0.00018639941
0.00019233189
0.00020482806
0.00022288444
0.00024565997
0.00027228672
0.00030198638
0.00033421141
0.00036879116
0.00040616983
0.00044799275
0.00049860339
0.00051982167
0.00018645283
0.00019238963
0.00020489375
0.00022295898
0.00024574151
0.00027237127
0.00030206888
0.00033428687
0.00036885543
0.00040622001
0.00044802745
0.00049862288
0.00051982958
0.00018650845
0.00019244911
0.0002049603
0.00022303324
0.00024582159
0.00027245335
0.00030214823
0.00033435888
0.00036891628
0.00040626713
0.00044805992
0.00049864123
0.0005198376
0.00018656574
0.00019250983
0.00020502724
0.00022310681
0.00024589988
0.00027253272
0.00030222426
0.0003344273
0.00036897363
0.00040631124
0.00044809023
0.00049865846
0.00051984568
0.0001866242
0.0001925713
0.00020509413
0.00022317932
0.00024597609
0.00027260917
0.00030229683
0.00033449206
0.00036902744
0.00040635239
0.00044811842
0.0004986746
0.00051985375
0.00018668337
0.00019263311
0.00020516058
0.00022325043
0.00024604997
0.00027268252
0.00030236582
0.00033455304
0.00036907776
0.00040639065
0.00044814454
0.00049868967
0.00051986179
0.00018674282
0.00019269482
0.00020522623
0.00022331986
0.00024612129
0.00027275262
0.00030243111
0.00033461026
0.00036912462
0.00040642605
0.00044816864
0.00049870369
0.00051986974
0.00018680217
0.0001927561
0.00020529076
0.00022338734
0.00024618985
0.00027281931
0.00030249261
0.00033466372
0.00036916807
0.00040645867
0.00044819077
0.00049871666
0.00051987756
0.00018686107
0.00019281659
0.00020535389
0.00022345265
0.00024625548
0.00027288247
0.00030255033
0.00033471345
0.00036920816
0.00040648856
0.00044821097
0.00049872861
0.00051988521
0.00018691921
0.00019287602
0.00020541536
0.00022351558
0.00024631803
0.00027294205
0.00030260424
0.00033475949
0.00036924496
0.00040651578
0.00044822928
0.00049873954
0.00051989265
0.00018697633
0.00019293414
0.00020547496
0.00022357595
0.0002463774
0.00027299802
0.00030265439
0.0003348019
0.00036927854
0.0004065404
0.00044824576
0.00049874947
0.00051989986
0.00018703218
0.00019299071
0.0002055325
0.00022363365
0.00024643353
0.00027305039
0.00030270083
0.00033484077
0.000369309
0.00040656252
0.00044826047
0.00049875844
0.00051990681
0.00018708656
0.00019304557
0.00020558784
0.00022368858
0.00024648642
0.00027309918
0.00030274364
0.00033487621
0.00036933646
0.00040658224
0.0004482735
0.00049876647
0.0005199135
0.0001871393
0.00019309855
0.00020564088
0.00022374072
0.00024653606
0.00027314448
0.00030278293
0.00033490835
0.00036936107
0.0004065997
0.00044828495
0.00049877364
0.00051991991
0.00018719028
0.00019314956
0.00020569154
0.00022379003
0.0002465825
0.00027318638
0.00030281883
0.00033493735
0.00036938297
0.00040661504
0.00044829493
0.00049877999
0.00051992605
0.00018723938
0.00019319849
0.00020573978
0.00022383652
0.0002466258
0.00027322498
0.00030285149
0.00033496338
0.00036940234
0.0004066284
0.00044830356
0.0004987856
0.00051993192
0.00018728652
0.0001932453
0.00020578557
0.00022388022
0.00024666604
0.0002732604
0.00030288107
0.0003349866
0.00036941934
0.00040663995
0.00044831095
0.00049879054
0.00051993754
0.00018733163
0.00019328992
0.00020582891
0.00022392117
0.00024670331
0.00027329278
0.00030290771
0.00033500719
0.00036943415
0.00040664982
0.0004483172
0.00049879486
0.0005199429
0.00018737466
0.00019333232
0.00020586978
0.00022395939
0.00024673767
0.00027332223
0.00030293157
0.0003350253
0.0003694469
0.00040665814
0.00044832242
0.00049879861
0.000519948
0.00018741555
0.00019337247
0.00020590819
0.00022399494
0.00024676923
0.00027334887
0.00030295277
0.00033504105
0.00036945772
0.000406665
0.00044832666
0.00049880182
0.00051995284
0.00018745426