/*--------------------------------*- C++ -*----------------------------------*\
| =========                 |                                                 |
| \\      /  F ield         | OpenFOAM: The Open Source CFD Toolbox           |
|  \\    /   O peration     | Version:  2506                                  |
|   \\  /    A nd           | Website:  www.openfoam.com                      |
|    \\/     M anipulation  |                                                 |
\*---------------------------------------------------------------------------*/
FoamFile
{
    version     2.0;
    format      ascii;
    arch        "LSB;label=32;scalar=64";
    class       volScalarField;
    location    "18000/water";
    object      nut;
}
// * * * * * * * * * * * * * * * * * * * * * * * * * * * * * * * * * * * * * //

dimensions      [0 2 -1 0 0 0 0];

internalField   nonuniform List<scalar> 
2600
(
4.0562043e-05
4.0561942e-05
4.0561944e-05
4.0561981e-05
4.0561942e-05
4.0561434e-05
4.0558261e-05
4.0540002e-05
4.0435343e-05
3.98338e-05
3.6541397e-05
2.4161555e-05
1.4889524e-05
3.944741e-05
3.9447468e-05
3.944759e-05
3.9447676e-05
3.9447275e-05
3.9444342e-05
3.9428907e-05
3.9352895e-05
3.8988431e-05
3.7314814e-05
3.0763187e-05
1.7536144e-05
1.684056e-05
3.852265e-05
3.852264e-05
3.8522725e-05
3.8522528e-05
3.8520597e-05
3.8510798e-05
3.8466747e-05
3.8277827e-05
3.7500368e-05
3.454641e-05
2.5814945e-05
1.4669956e-05
1.7712619e-05
3.7742032e-05
3.774193e-05
3.7741811e-05
3.7740766e-05
3.7735283e-05
3.7711707e-05
3.7617453e-05
3.7258039e-05
3.5961308e-05
3.177518e-05
2.2061889e-05
1.3531464e-05
1.7967898e-05
3.7073562e-05
3.7073366e-05
3.7072781e-05
3.7069955e-05
3.7057916e-05
3.7011651e-05
3.6843992e-05
3.6266509e-05
3.4405655e-05
2.9188861e-05
1.9425178e-05
1.3345943e-05
1.7902414e-05
3.6493786e-05
3.6493393e-05
3.6491924e-05
3.648598e-05
3.646354e-05
3.6384687e-05
3.612226e-05
3.5294625e-05
3.2873382e-05
2.6881541e-05
1.771645e-05
1.3793839e-05
1.7689846e-05
3.5985207e-05
3.5984445e-05
3.5981496e-05
3.5970726e-05
3.5933497e-05
3.5812307e-05
3.5437992e-05
3.4343601e-05
3.1395257e-05
2.4892541e-05
1.6781972e-05
1.4727875e-05
1.7427344e-05
3.5534568e-05
3.55332e-05
3.5528007e-05
3.5510417e-05
3.5453869e-05
3.5281761e-05
3.478374e-05
3.3418009e-05
2.9989903e-05
2.3242727e-05
1.6521213e-05
1.605365e-05
1.7168093e-05
3.5131649e-05
3.5129373e-05
3.5121029e-05
3.5094485e-05
3.5014364e-05
3.4784646e-05
3.4156253e-05
3.2521766e-05
2.8667649e-05
2.1957692e-05
1.6869959e-05
1.7676047e-05
1.694009e-05
3.4768438e-05
3.47649e-05
3.4752406e-05
3.4714802e-05
3.4607522e-05
3.4315777e-05
3.3554458e-05
3.16563e-05
2.7438403e-05
2.1076946e-05
1.7774701e-05
1.9481897e-05
1.6755877e-05
3.4438571e-05
3.443338e-05
3.4415717e-05
3.4365168e-05
3.4228127e-05
3.3872266e-05
3.2977968e-05
3.0820513e-05
2.6321667e-05
2.0649591e-05
1.9168673e-05
2.1348725e-05
1.6617712e-05
3.4136931e-05
3.4129689e-05
3.4105903e-05
3.4040932e-05
3.3872746e-05
3.3452766e-05
3.2426062e-05
3.0012536e-05
2.5355877e-05
2.0719809e-05
2.0958175e-05
2.3166793e-05
1.6521078e-05
3.3859367e-05
3.3849701e-05
3.3819003e-05
3.3738723e-05
3.3539365e-05
3.3056856e-05
3.1897087e-05
2.923354e-05
2.4602257e-05
2.1309035e-05
2.3024752e-05
2.4858007e-05
1.6457822e-05
3.3602495e-05
3.3590098e-05
3.355197e-05
3.3456247e-05
3.3227088e-05
3.2684517e-05
3.1388405e-05
2.8493549e-05
2.4138758e-05
2.2402735e-05
2.5241354e-05
2.6381456e-05
1.6418929e-05
3.3363555e-05
3.334823e-05
3.3302533e-05
3.3192135e-05
3.2935885e-05
3.2335692e-05
3.0897111e-05
2.781812e-05
2.4044358e-05
2.3946907e-05
2.7493335e-05
2.7726694e-05
1.6396422e-05
3.3140311e-05
3.3122024e-05
3.3069114e-05
3.2945826e-05
3.2666358e-05
3.2009929e-05
3.0421904e-05
2.725306e-05
2.4379894e-05
2.5855075e-05
2.9693858e-05
2.8902281e-05
1.6384202e-05
3.2930983e-05
3.2909915e-05
3.2850758e-05
3.2717477e-05
3.2419519e-05
3.1706209e-05
2.9966345e-05
2.6863467e-05
2.5173338e-05
2.8023002e-05
3.178848e-05
2.9925862e-05
1.6378087e-05
3.27342e-05
3.2710811e-05
3.2647097e-05
3.2507877e-05
3.219656e-05
3.1423099e-05
2.9543334e-05
2.6725088e-05
2.6414165e-05
3.0346001e-05
3.3750499e-05
3.0817911e-05
1.6375449e-05
3.254898e-05
3.2524066e-05
3.2458325e-05
3.2318371e-05
3.1998619e-05
3.1159479e-05
2.9179673e-05
2.6909996e-05
2.805682e-05
3.2733298e-05
3.5572232e-05
3.159849e-05
1.6374764e-05
3.2374714e-05
3.234948e-05
3.2285189e-05
3.2150777e-05
3.1826588e-05
3.0916123e-05
2.8918575e-05
2.7471841e-05
3.0030665e-05
3.5115834e-05
3.7256818e-05
3.2285747e-05
1.6375224e-05
3.2211173e-05
3.2187303e-05
3.2128983e-05
3.2007273e-05
3.1681012e-05
3.0698308e-05
2.8817773e-05
2.843585e-05
3.2252929e-05
3.7447133e-05
3.8812576e-05
3.2895331e-05
1.6376448e-05
3.2058522e-05
3.2038256e-05
3.199155e-05
3.1890271e-05
3.1562235e-05
3.051924e-05
2.8942305e-05
2.9795901e-05
3.464125e-05
3.9699498e-05
4.0249838e-05
3.3440303e-05
1.6378293e-05
3.1917349e-05
3.1903563e-05
3.1875268e-05
3.1802262e-05
3.147098e-05
3.0403414e-05
2.9353632e-05
3.1518041e-05
3.7123065e-05
4.1858567e-05
4.1579379e-05
3.3931333e-05
1.6380731e-05
3.1788707e-05
3.1784988e-05
3.1783034e-05
3.1745667e-05
3.1409596e-05
3.0388388e-05
3.0098641e-05
3.3548311e-05
3.9640503e-05
4.3918428e-05
4.2811639e-05
3.4377031e-05
1.638378e-05
3.167417e-05
3.1684884e-05
3.1718215e-05
3.1722747e-05
3.1384108e-05
3.0523333e-05
3.1201975e-05
3.5822342e-05
4.2151079e-05
4.5878174e-05
4.3956334e-05
3.4784314e-05
1.6387467e-05
3.1575896e-05
3.1606239e-05
3.1684577e-05
3.1735683e-05
3.1406919e-05
3.0863671e-05
3.2663377e-05
3.8274456e-05
4.4625623e-05
4.7739783e-05
4.5022273e-05
3.5158739e-05
1.6391813e-05
3.1496714e-05
3.155272e-05
3.1686171e-05
3.1786998e-05
3.1499546e-05
3.1462866e-05
3.445981e-05
4.0844581e-05
4.7045145e-05
4.9506882e-05
4.6017315e-05
3.5504794e-05
1.6396824e-05
3.1440215e-05
3.1528703e-05
3.1727217e-05
3.1880504e-05
3.1694229e-05
3.2363743e-05
3.6550942e-05
4.3482184e-05
4.9397839e-05
5.1183995e-05
4.6948402e-05
3.5826124e-05
1.6402494e-05
3.141085e-05
3.1539289e-05
3.1812006e-05
3.2022927e-05
3.2033145e-05
3.3591894e-05
3.8886228e-05
4.6147426e-05
5.1676787e-05
5.2776063e-05
4.782164e-05
3.6125718e-05
1.6408802e-05
3.1414042e-05
3.1590274e-05
3.1944928e-05
3.222612e-05
3.2564563e-05
3.5152685e-05
4.1411887e-05
4.8810349e-05
5.3878385e-05
5.4288122e-05
4.8642393e-05
3.6406048e-05
1.6415722e-05
3.1456281e-05
3.1688095e-05
3.2130757e-05
3.2509433e-05
3.3336482e-05
3.7032011e-05
4.4076507e-05
5.1449132e-05
5.6001297e-05
5.5725115e-05
4.9415389e-05
3.6669254e-05
1.642322e-05
3.1545208e-05
3.183974e-05
3.2375387e-05
3.2901324e-05
3.4389414e-05
3.9199978e-05
4.6834636e-05
5.404819e-05
5.8045691e-05
5.7091639e-05
5.014434e-05
3.6914944e-05
1.6431248e-05
3.1689662e-05
3.2052669e-05
3.2687147e-05
3.3439137e-05
3.5750342e-05
4.1616212e-05
4.9648336e-05
5.659656e-05
6.0012744e-05
5.8392012e-05
5.0832728e-05
3.7144923e-05
1.6439749e-05
3.1899684e-05
3.2334824e-05
3.3078705e-05
3.4166342e-05
3.7429305e-05
4.4235463e-05
5.2487195e-05
5.9086684e-05
6.1904245e-05
5.9630093e-05
5.1482697e-05
3.7361244e-05
1.6448668e-05
3.2186465e-05
3.2694873e-05
3.3569198e-05
3.5127413e-05
3.9419068e-05
4.7012431e-05
5.5327451e-05
6.1513509e-05
6.3722344e-05
6.0809395e-05
5.2096451e-05
3.7565314e-05
1.6457958e-05
3.2562282e-05
3.3142862e-05
3.4185833e-05
3.6361553e-05
4.1697462e-05
4.990519e-05
5.8150808e-05
6.3873835e-05
6.5469391e-05
6.1933117e-05
5.2677399e-05
3.7758158e-05
1.6467586e-05
3.3040474e-05
3.3691441e-05
3.4963995e-05
3.7896949e-05
4.4231434e-05
5.2877049e-05
6.0943284e-05
6.6165777e-05
6.7147566e-05
6.3002904e-05
5.3228278e-05
3.7940823e-05
1.6477531e-05
3.3635638e-05
3.4357648e-05
3.5945067e-05
3.9746995e-05
4.6981723e-05
5.589712e-05
6.3694249e-05
6.838843e-05
6.8759334e-05
6.4022594e-05
5.3751053e-05
3.8114078e-05
1.6487766e-05
3.4364223e-05
3.5164901e-05
3.7171978e-05
4.1909157e-05
4.9907179e-05
5.8940025e-05
6.6395665e-05
7.0541366e-05
7.0305657e-05
6.4995388e-05
5.4247639e-05
3.8278684e-05
1.6498266e-05
3.5245719e-05
3.6144413e-05
3.8683392e-05
4.4366364e-05
5.2968078e-05
6.198517e-05
6.904145e-05
7.2624749e-05
7.1789409e-05
6.5923872e-05
5.4719659e-05
3.8435268e-05
1.6509004e-05
3.6304389e-05
3.7335014e-05
4.050807e-05
4.7090199e-05
5.6128207e-05
6.5015945e-05
7.1626955e-05
7.4638169e-05
7.3213266e-05
6.6810358e-05
5.516863e-05
3.8584369e-05
1.6519954e-05
3.7571044e-05
3.8780595e-05
4.2660836e-05
5.0044946e-05
5.935578e-05
6.80189e-05
7.4148651e-05
7.6582492e-05
7.4579721e-05
6.7656902e-05
5.5595892e-05
3.872645e-05
1.653109e-05
3.908385e-05
4.0525214e-05
4.5140974e-05
5.319158e-05
6.2623572e-05
7.0983106e-05
7.6603212e-05
7.8458839e-05
7.589091e-05
6.8465406e-05
5.6002632e-05
3.8861905e-05
1.6542386e-05
4.0886898e-05
4.2606851e-05
4.7933091e-05
5.6490985e-05
6.5908446e-05
7.3899528e-05
7.8988646e-05
8.0268736e-05
7.7148735e-05
6.9237566e-05
5.6389887e-05
3.8991066e-05
1.6553816e-05
4.3025756e-05
4.505141e-05
5.100987e-05
5.9906209e-05
6.9190864e-05
7.6760135e-05
8.1303261e-05
8.2013416e-05
7.8354962e-05
6.9974895e-05
5.6758559e-05
3.911421e-05
1.6565353e-05
4.5540334e-05
4.7868443e-05
5.4335741e-05
6.3403508e-05
7.2453901e-05
7.9558407e-05
8.3546722e-05
8.3693972e-05
7.9511135e-05
7.0678709e-05
5.7109423e-05
3.9231565e-05
1.6576974e-05
4.8456691e-05
5.1049432e-05
5.7870613e-05
6.6952743e-05
7.5682775e-05
8.2288855e-05
8.5718419e-05
8.5311361e-05
8.0618592e-05
7.1350134e-05
5.744313e-05
3.9343313e-05
1.6588653e-05
5.1780093e-05
5.4568609e-05
6.1572924e-05
7.0526856e-05
7.8863933e-05
8.4947807e-05
8.7817757e-05
8.6866342e-05
8.1678445e-05
7.199011e-05
5.7760213e-05
3.9449592e-05
1.6600366e-05
5.5491334e-05
5.8385613e-05
6.5401377e-05
7.4100911e-05
8.1987174e-05
8.7531654e-05
8.9844035e-05
8.8359435e-05
8.2691567e-05
7.259939e-05
5.8061094e-05
3.9550498e-05
1.6612086e-05
5.9547195e-05
6.2448888e-05
6.9315552e-05
7.7653771e-05
8.5043641e-05
9.0036938e-05
9.1796372e-05
8.97909e-05
8.3658584e-05
7.3178539e-05
5.8346082e-05
3.9646085e-05
1.662379e-05
6.3884444e-05
6.6699767e-05
7.3278188e-05
8.1167569e-05
8.8025175e-05
9.246023e-05
9.3673658e-05
9.1160708e-05
8.4579867e-05
7.3727934e-05
5.8615379e-05
3.973637e-05
1.663545e-05
6.8427316e-05
7.1077059e-05
7.7255175e-05
8.4626037e-05
9.0924147e-05
9.479807e-05
9.5474529e-05
9.2468537e-05
8.5455528e-05
7.4247768e-05
5.8869078e-05
3.9821328e-05
1.664704e-05
7.309552e-05
7.552027e-05
8.1214713e-05
8.8014204e-05
9.3733344e-05
9.7046936e-05
9.7197369e-05
9.3713774e-05
8.6285428e-05
7.4738048e-05
5.9107168e-05
3.9900896e-05
1.6658531e-05
7.7811267e-05
7.9972303e-05
8.5127266e-05
9.1318195e-05
9.6445931e-05
9.9203276e-05
9.8840349e-05
9.4895545e-05
8.7069193e-05
7.5198613e-05
5.9329537e-05
3.9974974e-05
1.6669891e-05
8.2504347e-05
8.4381459e-05
8.8965668e-05
9.4525144e-05
9.9055457e-05
0.00010126357
0.00010040149
9.6012761e-05
8.7806247e-05
7.5629146e-05
5.9535985e-05
4.0043429e-05
1.6681088e-05
8.7115006e-05
8.8702739e-05
9.270535e-05
9.7623214e-05
0.00010155592
0.00010322444
0.00010187874
9.7064191e-05
8.8495856e-05
7.6029206e-05
5.9726236e-05
4.0106101e-05
1.6692087e-05
9.1594946e-05
9.2898476e-05
9.6324621e-05
0.00010060169
0.00010394187
0.00010508273
0.00010327014
9.8048545e-05
8.9137189e-05
7.6398261e-05
5.9899958e-05
4.0162807e-05
1.6702851e-05
9.5906986e-05
9.6938413e-05
9.9804918e-05
0.00010345112
0.0001062085
0.00010683569
0.00010457387
9.8964584e-05
8.9729393e-05
7.6735739e-05
6.0056788e-05
4.0213358e-05
1.671334e-05
0.00010002393
0.00010079934
0.00010313096
0.00010616345
0.00010835179
0.00010848105
0.00010578843
9.9811219e-05
9.0271674e-05
7.7041082e-05
6.0196364e-05
4.0257564e-05
1.6723514e-05
0.00010392713
0.00010446442
0.00010629077
0.00010873218
0.00011036858
0.00011001714
0.00010691273
0.00010058762
9.0763378e-05
7.7313798e-05
6.031836e-05
4.0295256e-05
1.6733331e-05
0.0001076049
0.0001079224
0.00010927558
0.00011115237
0.00011225666
0.00011144298
0.00010794618
0.0001012933
9.1204071e-05
7.7553528e-05
6.0422517e-05
4.0326293e-05
1.674275e-05
0.0001110512
0.00011116678
0.00011207962
0.00011342075
0.00011401482
0.00011275831
0.00010888876
0.00010192819
9.1593605e-05
7.776009e-05
6.050868e-05
4.0350583e-05
1.6751731e-05
0.00011426436
0.0001141949
0.00011469985
0.00011553561
0.00011564283
0.00011396362
0.00010974106
0.0001024927
9.1932176e-05
7.793353e-05
6.0576826e-05
4.0368094e-05
1.6760238e-05
0.0001172461
0.0001170073
0.00011713559
0.00011749673
0.00011714145
0.00011506015
0.00011050427
0.00010298773
9.2220352e-05
7.8074152e-05
6.062709e-05
4.0378862e-05
1.6768237e-05
0.00012000067
0.00011960698
0.00011938822
0.00011930529
0.00011851236
0.00011604985
0.00011118019
0.0001034147
9.2459097e-05
7.818254e-05
6.0659774e-05
4.0383001e-05
1.6775699e-05
0.00012253427
0.00012199887
0.00012146083
0.00012096369
0.00011975809
0.00011693534
0.00011177119
0.00010377548
9.2649763e-05
7.8259559e-05
6.067536e-05
4.0380705e-05
1.6782601e-05
0.00012485447
0.00012418938
0.0001233579
0.0001224754
0.00012088195
0.00011771983
0.00011228015
0.00010407242
9.2794073e-05
7.8306357e-05
6.0674505e-05
4.0372246e-05
1.6788927e-05
0.00012696984
0.00012618602
0.00012508503
0.00012384478
0.00012188788
0.00011840704
0.00011271039
0.00010430825
9.2894089e-05
7.8324335e-05
6.0658031e-05
4.0357968e-05
1.6794666e-05
0.00012888964
0.00012799708
0.00012664868
0.00012507694
0.00012278041
0.00011900114
0.00011306563
0.00010448606
9.2952171e-05
7.8315127e-05
6.0626907e-05
4.0338284e-05
1.6799815e-05
0.00013062358
0.00012963138
0.00012805597
0.0001261776
0.00012356448
0.00011950665
0.00011334987
0.00010460921
9.2970924e-05
7.8280561e-05
6.0582231e-05
4.0313657e-05
1.6804378e-05
0.00013218158
0.00013109808
0.00012931446
0.00012715289
0.00012424544
0.00011992836
0.00011356737
0.00010468127
9.2953148e-05
7.8222621e-05
6.0525198e-05
4.0284597e-05
1.6808365e-05
0.00013357371
0.00013240652
0.00013043202
0.00012800929
0.00012482885
0.00012027124
0.00011372253
0.00010470597
9.2901783e-05
7.8143405e-05
6.0457079e-05
4.025164e-05
1.681179e-05
0.00013480997
0.00013356611
0.00013141669
0.00012875348
0.00012532046
0.00012054042
0.00011381987
0.00010468714
9.2819854e-05
7.8045082e-05
6.0379187e-05
4.0215338e-05
1.6814674e-05
0.00013590027
0.00013458616
0.00013227657
0.00012939225
0.00012572611
0.00012074104
0.00011386393
0.00010462863
9.271043e-05
7.7929856e-05
6.0292857e-05
4.017625e-05
1.6817042e-05
0.00013685434
0.00013547591
0.00013301974
0.00012993244
0.00012605167
0.00012087829
0.00011385924
0.00010453428
9.2576569e-05
7.7799925e-05
6.0199417e-05
4.0134923e-05
1.6818922e-05
0.00013768164
0.00013624434
0.00013365416
0.00013038083
0.00012630297
0.00012095726
0.00011381028
0.00010440789
9.2421288e-05
7.7657456e-05
6.0100166e-05
4.009189e-05
1.6820345e-05
0.00013839136
0.00013690022
0.00013418763
0.0001307441
0.00012648577
0.000120983
0.00011372143
0.00010425316
9.2247522e-05
7.750455e-05
5.9996358e-05
4.0047657e-05
1.6821344e-05
0.00013899236
0.00013745202
0.00013462775
0.0001310288
0.00012660569
0.00012096038
0.00011359694
0.00010407366
9.2058103e-05
7.7343222e-05
5.9889185e-05
4.0002697e-05
1.6821951e-05
0.00013949314
0.0001379079
0.00013498185
0.00013124128
0.00012666819
0.00012089417
0.0001134409
0.00010387282
9.185573e-05
7.7175383e-05
5.9779764e-05
3.9957448e-05
1.6822201e-05
0.00013990184
0.00013827566
0.00013525702
0.00013138768
0.00012667856
0.0001207889
0.00011325723
0.00010365391
9.1642958e-05
7.7002824e-05
5.9669132e-05
3.9912307e-05
1.6822129e-05
0.00014022622
0.00013856276
0.00013546002
0.00013147389
0.00012664186
0.00012064895
0.00011304965
0.00010342001
9.1422182e-05
7.682721e-05
5.9558236e-05
3.9867629e-05
1.6821768e-05
0.00014047366
0.00013877631
0.00013559731
0.00013150557
0.00012656295
0.00012047848
0.00011282169
0.00010317402
9.1195629e-05
7.6650067e-05
5.944793e-05
3.9823727e-05
1.6821151e-05
0.00014065115
0.00013892302
0.00013567505
0.00013148808
0.00012644643
0.00012028142
0.00011257667
0.00010291864
9.0965351e-05
7.6472785e-05
5.9338979e-05
3.9780872e-05
1.6820308e-05
0.00014076527
0.00013900927
0.00013569904
0.00013142653
0.00012629669
0.00012006147
0.00011231768
0.00010265636
9.073323e-05
7.6296616e-05
5.9232053e-05
3.9739295e-05
1.681927e-05
0.00014082226
0.00013904105
0.0001356748
0.00013132574
0.00012611784
0.00011982214
0.00011204763
0.00010238949
9.0500969e-05
7.6122672e-05
5.9127735e-05
3.9699186e-05
1.6818065e-05
0.00014082796
0.00013902401
0.00013560748
0.00013119026
0.00012591378
0.00011956667
0.00011176917
0.00010212013
9.0270098e-05
7.5951919e-05
5.9026472e-05
3.9660487e-05
1.6816718e-05
0.00014078784
0.00013896343
0.00013550197
0.00013102436
0.00012568814
0.00011929811
0.00011148479
0.00010185019
9.0041974e-05
7.5785184e-05
5.8928621e-05
3.9623149e-05
1.681525e-05
0.00014070703
0.00013886427
0.00013536281
0.00013083204
0.00012544432
0.00011901925
0.00011119672
0.00010158138
8.9817768e-05
7.5623103e-05
5.8834205e-05
3.9587464e-05
1.6813681e-05
0.00014059031
0.00013873115
0.00013519426
0.00013061703
0.00012518547
0.0001187327
0.00011090703
0.00010131523
8.9598509e-05
7.5466259e-05
5.8743563e-05
3.9553557e-05
1.681203e-05
0.00014044215
0.00013856837
0.00013500027
0.00013038281
0.00012491452
0.00011844084
0.00011061756
0.00010105307
8.9384989e-05
7.5314777e-05
5.8657132e-05
3.952152e-05
1.6810318e-05
0.00014026667
0.00013837995
0.00013478454
0.0001301326
0.00012463419
0.00011814583
0.00011032996
0.00010079603
8.9177839e-05
7.5169352e-05
5.8575057e-05
3.9491403e-05
1.6808563e-05
0.00014006771
0.00013816958
0.00013455047
0.00012986938
0.00012434693
0.00011784965
0.0001100457
0.00010054511
8.8977603e-05
7.5030446e-05
5.8497464e-05
3.9463239e-05
1.6806783e-05
0.00013984883
0.0001379407
0.00013430122
0.00012959591
0.00012405503
0.00011755405
0.00010976601
0.00010030095
8.8785082e-05
7.4898306e-05
5.8424434e-05
3.9437039e-05
1.6804993e-05
0.00013961331
0.00013769648
0.00013403969
0.00012931469
0.00012376054
0.00011726059
0.00010949193
0.0001000645
8.8600743e-05
7.4773109e-05
5.8356003e-05
3.9412793e-05
1.6803207e-05
0.00013936414
0.00013743982
0.00013376855
0.00012902802
0.00012346529
0.00011697061
0.00010922446
9.983656e-05
8.8424931e-05
7.465497e-05
5.8292169e-05
3.9390477e-05
1.6801436e-05
0.0001391041
0.00013717339
0.00013349023
0.00012873798
0.00012317091
0.00011668528
0.00010896468
9.961767e-05
8.8257901e-05
7.4543945e-05
5.8232896e-05
3.9370047e-05
1.679969e-05
0.0001388357
0.00013689962
0.00013320693
0.00012844637
0.00012287879
0.00011640592
0.00010871339
9.9408273e-05
8.8099823e-05
7.4440038e-05
5.8178118e-05
3.9351452e-05
1.6797979e-05
0.00013856123
0.00013662067
0.00013292056
0.00012815486
0.00012259046
0.00011613359
0.00010847125
9.9208705e-05
8.7950793e-05
7.43432e-05
5.8127741e-05
3.9334631e-05
1.679631e-05
0.00013828271
0.00013633849
0.00013263294
0.00012786509
0.00012230721
0.00011586918
0.00010823879
9.9019204e-05
8.7810837e-05
7.425334e-05
5.808165e-05
3.9319513e-05
1.679469e-05
0.000138002
0.0001360549
0.00013234579
0.00012757853
0.00012203016
0.00011561346
0.00010801645
9.8839925e-05
8.767992e-05
7.417033e-05
5.8039711e-05
3.9306024e-05
1.6793122e-05
0.00013772082
0.00013577158
0.00013206065
0.00012729648
0.00012176027
0.00011536705
0.00010780454
9.8670941e-05
8.7557953e-05
7.4094007e-05
5.8001773e-05
3.9294085e-05
1.6791613e-05
0.00013744074
0.00013549005
0.00013177889
0.00012702007
0.0001214984
0.00011513048
0.0001076033
9.8512258e-05
8.7444797e-05
7.4024179e-05
5.7967674e-05
3.9283613e-05
1.6790165e-05
0.00013716317
0.00013521169
0.00013150175
0.00012675031
0.00012124524
0.00011490416
0.00010741287
9.8363814e-05
8.7340271e-05
7.3960632e-05
5.7937241e-05
3.9274525e-05
1.678878e-05
0.00013688939
0.0001349377
0.00013123031
0.00012648805
0.00012100139
0.00011468841
0.00010723331
9.8225496e-05
8.7244159e-05
7.3903133e-05
5.7910296e-05
3.9266737e-05
1.6787461e-05
0.00013662054
0.00013466919
0.00013096553
0.00012623406
0.00012076735
0.00011448344
0.00010706463
9.8097139e-05
8.7156216e-05
7.3851435e-05
5.7886655e-05
3.9260166e-05
1.6786209e-05
0.00013635762
0.0001344071
0.00013070824
0.00012598895
0.0001205435
0.00011428941
0.00010690677
9.7978539e-05
8.7076172e-05
7.380528e-05
5.7866136e-05
3.9254728e-05
1.6785025e-05
0.00013610153
0.00013415226
0.00013045915
0.00012575326
0.00012033014
0.00011410638
0.0001067596
9.7869455e-05
8.7003735e-05
7.3764402e-05
5.7848554e-05
3.9250343e-05
1.6783909e-05
0.00013585302
0.00013390542
0.00013021887
0.00012552741
0.00012012749
0.00011393436
0.00010662296
9.7769615e-05
8.6938603e-05
7.3728534e-05
5.7833726e-05
3.9246932e-05
1.678286e-05
0.00013561276
0.00013366716
0.00012998791
0.00012531176
0.00011993569
0.00011377331
0.00010649665
9.7678722e-05
8.6880459e-05
7.3697403e-05
5.7821473e-05
3.9244422e-05
1.6781878e-05
0.00013538131
0.00013343802
0.00012976668
0.00012510655
0.00011975481
0.00011362311
0.00010638043
9.7596458e-05
8.6828975e-05
7.3670738e-05
5.7811617e-05
3.9242738e-05
1.6780963e-05
0.00013515912
0.00013321841
0.0001295555
0.00012491196
0.00011958485
0.0001134836
0.000106274
9.7522484e-05
8.678382e-05
7.3648268e-05
5.7803987e-05
3.9241811e-05
1.6780113e-05
0.00013494656
0.00013300866
0.00012935461
0.00012472808
0.00011942576
0.00011335458
0.00010617708
9.7456442e-05
8.6744652e-05
7.3629721e-05
5.7798412e-05
3.9241573e-05
1.6779327e-05
0.0001347439
0.000132809
0.00012916417
0.00012455496
0.00011927742
0.0001132358
0.0001060893
9.7397963e-05
8.6711127e-05
7.3614829e-05
5.7794726e-05
3.9241959e-05
1.6778603e-05
0.00013455134
0.0001326196
0.00012898426
0.00012439255
0.00011913966
0.00011312698
0.00010601032
9.7346662e-05
8.6682897e-05
7.3603323e-05
5.7792764e-05
3.9242903e-05
1.677794e-05
0.00013436899
0.00013244055
0.0001288149
0.00012424077
0.00011901225
0.00011302779
0.00010593975
9.7302147e-05
8.6659614e-05
7.359494e-05
5.7792368e-05
3.9244346e-05
1.6777335e-05
0.00013419692
0.00013227188
0.00012865603
0.00012409945
0.00011889496
0.00011293788
0.00010587718
9.7264023e-05
8.6640932e-05
7.358942e-05
5.7793385e-05
3.9246228e-05
1.6776787e-05
0.00013403511
0.00013211354
0.00012850757
0.00012396842
0.00011878748
0.00011285689
0.00010582223
9.7231892e-05
8.662651e-05
7.3586515e-05
5.7795667e-05
3.9248494e-05
1.6776292e-05
0.0001338835
0.00013196546
0.00012836937
0.00012384745
0.00011868951
0.00011278443
0.00010577446
9.7205364e-05
8.661602e-05
7.3585986e-05
5.7799076e-05
3.925109e-05
1.6775848e-05
0.00013374199
0.0001318275
0.00012824125
0.00012373628
0.0001186007
0.00011272012
0.00010573349
9.7184058e-05
8.6609145e-05
7.3587605e-05
5.7803482e-05
3.925397e-05
1.6775452e-05
0.00013361045
0.00013169952
0.00012812301
0.00012363464
0.00011852072
0.00011266357
0.0001056989
9.7167607e-05
8.6605583e-05
7.3591162e-05
5.7808766e-05
3.925709e-05
1.6775103e-05
0.0001334887
0.00013158131
0.0001280144
0.00012354223
0.00011844921
0.00011261437
0.00010567031
9.7155656e-05
8.6605052e-05
7.3596458e-05
5.7814819e-05
3.9260412e-05
1.6774798e-05
0.00013337655
0.00013147266
0.00012791517
0.00012345873
0.0001183858
0.00011257216
0.00010564733
9.7147866e-05
8.660728e-05
7.3603311e-05
5.7821543e-05
3.9263901e-05
1.6774534e-05
0.00013327375
0.00013137332
0.00012782502
0.00012338381
0.00011833013
0.00011253653
0.0001056296
9.714391e-05
8.6612013e-05
7.3611548e-05
5.7828843e-05
3.9267527e-05
1.677431e-05
0.00013318004
0.00013128301
0.00012774367
0.00012331713
0.00011828181
0.00011250709
0.00010561673
9.7143468e-05
8.6619003e-05
7.3621002e-05
5.7836633e-05
3.927126e-05
1.6774123e-05
0.00013309514
0.00013120143
0.00012767076
0.00012325832
0.00011824046
0.00011248346
0.00010560838
9.7146227e-05
8.6628008e-05
7.3631515e-05
5.7844827e-05
3.9275072e-05
1.6773971e-05
0.00013301871
0.00013112823
0.00012760593
0.00012320699
0.00011820566
0.00011246523
0.00010560415
9.7151876e-05
8.6638794e-05
7.364293e-05
5.7853344e-05
3.9278936e-05
1.6773853e-05
0.0001329504
0.00013106306
0.00012754882
0.00012316273
0.00011817701
0.000112452
0.0001056037
9.7160109e-05
8.6651126e-05
7.3655093e-05
5.7862102e-05
3.9282823e-05
1.6773764e-05
0.00013288984
0.00013100553
0.00012749901
0.00012312514
0.00011815409
0.00011244336
0.00010560666
9.7170624e-05
8.6664779e-05
7.3667856e-05
5.787102e-05
3.9286706e-05
1.6773704e-05
0.00013283663
0.00013095524
0.00012745609
0.00012309378
0.00011813646
0.00011243892
0.00010561267
9.7183128e-05
8.6679535e-05
7.3681076e-05
5.7880027e-05
3.929056e-05
1.6773669e-05
0.00013279035
0.00013091177
0.00012741965
0.00012306823
0.00011812371
0.00011243829
0.00010562139
9.7197342e-05
8.6695187e-05
7.3694621e-05
5.788905e-05
3.929436e-05
1.6773658e-05
0.00013275062
0.00013087472
0.00012738925
0.00012304807
0.00011811544
0.00011244108
0.00010563249
9.7213008e-05
8.6711548e-05
7.3708373e-05
5.7898031e-05
3.9298086e-05
1.6773666e-05
0.00013271703
0.00013084369
0.0001273645
0.00012303289
0.00011811126
0.00011244696
0.00010564568
9.7229888e-05
8.6728448e-05
7.3722227e-05
5.7906919e-05
3.9301722e-05
1.6773694e-05
0.0001326892
0.00013081828
0.00012734501
0.00012302232
0.00011811081
0.00011245558
0.00010566068
9.7247768e-05
8.674574e-05
7.3736095e-05
5.7915673e-05
3.9305256e-05
1.6773737e-05
0.00013266675
0.00013079813
0.0001273304
0.00012301598
0.00011811374
0.00011246666
0.00010567723
9.7266461e-05
8.6763295e-05
7.3749903e-05
5.792426e-05
3.930868e-05
1.6773795e-05
0.00013264934
0.00013078288
0.00012732032
0.00012301354
0.00011811973
0.00011247991
0.00010569513
9.7285796e-05
8.6781e-05
7.3763588e-05
5.7932656e-05
3.9311989e-05
1.6773866e-05
0.00013263662
0.00013077219
0.00012731443
0.00012301468
0.0001181285
0.00011249507
0.00010571414
9.730562e-05
8.6798756e-05
7.3777097e-05
5.7940838e-05
3.9315179e-05
1.6773949e-05
0.00013262828
0.00013076574
0.00012731241
0.00012301908
0.00011813976
0.00011251191
0.0001057341
9.7325794e-05
8.6816473e-05
7.3790381e-05
5.7948788e-05
3.9318248e-05
1.6774042e-05
0.000132624
0.00013076319
0.00012731395
0.00012302644
0.00011815324
0.00011253019
0.0001057548
9.7346185e-05
8.6834065e-05
7.3803394e-05
5.7956485e-05
3.9321176e-05
1.6774145e-05
0.00013262345
0.00013076425
0.00012731874
0.00012303647
0.00011816867
0.0001125497
0.00010577609
9.7366669e-05
8.6851451e-05
7.3816088e-05
5.7963906e-05
3.9323945e-05
1.6774255e-05
0.00013262632
0.0001307686
0.00012732646
0.00012304889
0.00011818582
0.00011257022
0.00010579779
9.7387126e-05
8.6868554e-05
7.3828419e-05
5.7971014e-05
3.9326567e-05
1.6774372e-05
0.0001326323
0.00013077592
0.00012733684
0.00012306343
0.00011820442
0.00011259155
0.00010581975
9.7407446e-05
8.6885302e-05
7.3840346e-05
5.7977794e-05
3.9329041e-05
1.6774493e-05
0.00013264107
0.00013078592
0.00012734956
0.0001230798
0.00011822424
0.00011261349
0.00010584181
9.7427523e-05
8.6901625e-05
7.3851813e-05
5.7984251e-05
3.933137e-05
1.6774618e-05
0.00013265234
0.00013079828
0.00012736434
0.00012309775
0.00011824506
0.00011263587
0.00010586385
9.7447262e-05
8.6917465e-05
7.3862803e-05
5.7990377e-05
3.9333554e-05
1.6774745e-05
0.00013266578
0.00013081271
0.0001273809
0.00012311702
0.00011826666
0.00011265851
0.00010588573
9.7466574e-05
8.6932752e-05
7.3873312e-05
5.7996171e-05
3.9335596e-05
1.6774874e-05
0.00013268112
0.00013082893
0.00012739897
0.00012313737
0.00011828884
0.00011268125
0.00010590734
9.7485375e-05
8.6947465e-05
7.3883324e-05
5.8001631e-05
3.9337501e-05
1.6775004e-05
0.00013269806
0.00013084665
0.00012741828
0.00012315857
0.00011831141
0.00011270394
0.00010592856
9.7503595e-05
8.6961583e-05
7.3892832e-05
5.800676e-05
3.9339271e-05
1.6775134e-05
0.00013271633
0.0001308656
0.00012743859
0.0001231804
0.00011833418
0.00011272644
0.00010594929
9.7521195e-05
8.697508e-05
7.3901828e-05
5.8011563e-05
3.9340911e-05
1.6775264e-05
0.00013273567
0.00013088554
0.00012745967
0.00012320265
0.00011835698
0.00011274861
0.00010596946
9.7538128e-05
8.6987931e-05
7.3910306e-05
5.8016041e-05
3.9342425e-05
1.6775393e-05
0.00013275584
0.00013090623
0.00012748129
0.00012322513
0.00011837964
0.00011277033
0.00010598898
9.7554349e-05
8.7000117e-05
7.3918263e-05
5.8020198e-05
3.9343816e-05
1.677552e-05
0.00013277661
0.00013092744
0.00012750323
0.00012324764
0.00011840202
0.00011279151
0.00010600781
9.7569816e-05
8.7011616e-05
7.3925692e-05
5.8024035e-05
3.9345085e-05
1.6775644e-05
0.00013279778
0.00013094897
0.00012752532
0.00012327004
0.00011842401
0.00011281207
0.00010602586
9.7584497e-05
8.7022416e-05
7.3932592e-05
5.8027554e-05
3.9346235e-05
1.6775765e-05
0.00013281916
0.00013097066
0.0001275474
0.00012329218
0.00011844549
0.00011283193
0.00010604311
9.7598367e-05
8.7032506e-05
7.3938962e-05
5.803076e-05
3.9347266e-05
1.6775883e-05
0.00013284061
0.00013099233
0.00012756932
0.00012331396
0.00011846639
0.00011285102
0.00010605951
9.761141e-05
8.7041888e-05
7.394481e-05
5.8033658e-05
3.9348182e-05
1.6775996e-05
0.00013286201
0.00013101389
0.00012759098
0.00012333529
0.00011848664
0.00011286931
0.00010607505
9.7623628e-05
8.705057e-05
7.3950148e-05
5.8036258e-05
3.9348987e-05
1.6776105e-05
0.00013288324
0.00013103524
0.0001276123
0.0001233561
0.0001185062
0.00011288679
0.00010608972
9.7635033e-05
8.7058572e-05
7.3954996e-05
5.8038576e-05
3.9349685e-05
1.6776209e-05
0.00013290424
0.0001310563
0.00012763322
0.00012337635
0.00011852503
0.00011290344
0.00010610354
9.764565e-05
8.7065925e-05
7.3959382e-05
5.804063e-05
3.9350286e-05
1.6776308e-05
0.00013292495
0.00013107701
0.00012765369
0.00012339601
0.00011854314
0.00011291927
0.00010611654
9.7655512e-05
8.7072663e-05
7.3963337e-05
5.8042441e-05
3.9350799e-05
1.6776402e-05
0.00013294531
0.00013109732
0.00012767366
0.00012341504
0.0001185605
0.00011293429
0.00010612874
9.7664655e-05
8.7078826e-05
7.3966892e-05
5.8044032e-05
3.9351232e-05
1.6776491e-05
0.00013296527
0.0001311172
0.00012769309
0.00012343342
0.00011857712
0.00011294852
0.00010614016
9.7673115e-05
8.7084448e-05
7.397008e-05
5.8045423e-05
3.9351597e-05
1.6776576e-05
0.00013298478
0.00013113658
0.00012771196
0.00012345114
0.000118593
0.00011296198
0.00010615084
9.7680922e-05
8.7089561e-05
7.3972926e-05
5.8046632e-05
3.93519e-05
1.6776658e-05
0.00013300378
0.00013115541
0.00012773021
0.00012346816
0.00011860811
0.00011297465
0.00010616078
9.7688099e-05
8.7094189e-05
7.3975448e-05
5.804767e-05
3.9352149e-05
1.6776735e-05
0.00013302219
0.00013117364