/*--------------------------------*- C++ -*----------------------------------*\
| =========                 |                                                 |
| \\      /  F ield         | OpenFOAM: The Open Source CFD Toolbox           |
|  \\    /   O peration     | Version:  2506                                  |
|   \\  /    A nd           | Website:  www.openfoam.com                      |
|    \\/     M anipulation  |                                                 |
\*---------------------------------------------------------------------------*/
FoamFile
{
    version     2.0;
    format      ascii;
    arch        "LSB;label=32;scalar=64";
    class       volVectorField;
    location    "18000/water";
    object      U;
}
// * * * * * * * * * * * * * * * * * * * * * * * * * * * * * * * * * * * * * //

dimensions      [0 1 -1 0 0 0 0];

internalField   nonuniform List<vector> 
2600
(
(0.2509291 -6.6886033e-05 2.9620216e-23)
(0.25093316 -0.00014739222 -2.8654154e-18)
(0.25094167 -0.00023143146 -4.5711508e-19)
(0.2509543 -0.00031980043 -5.165573e-19)
(0.25097092 -0.0004082391 2.6268869e-19)
(0.25099124 -0.00049673665 -4.1485774e-20)
(0.25101467 -0.0005856609 2.1191651e-19)
(0.25103908 -0.00067482201 -1.3520829e-20)
(0.25105541 -0.00075972197 -1.4955518e-19)
(0.25102652 -0.00083857781 7.4226112e-20)
(0.25079811 -0.00098580402 -1.5052979e-19)
(0.24954942 -0.001485464 -4.2631629e-20)
(0.2411817 0.0014904344 -5.0696313e-19)
(0.25290631 -5.2391824e-05 -9.6036159e-19)
(0.25291356 -0.00012867936 -3.1446743e-18)
(0.25292967 -0.00020232594 -1.3192058e-18)
(0.25295369 -0.00027812692 -4.8849143e-19)
(0.25298503 -0.00035187867 7.5214558e-20)
(0.25302278 -0.00042368282 7.4675195e-20)
(0.25306456 -0.0004936843 3.03999e-19)
(0.25310219 -0.00056251339 -6.6447859e-21)
(0.25310631 -0.00062550536 -1.6821393e-19)
(0.25297401 -0.00066089399 -1.8738092e-20)
(0.25231856 -0.00068576655 -2.2884174e-19)
(0.24919071 -0.0011507908 -2.3517382e-19)
(0.23317376 0.00055016191 -5.6873678e-19)
(0.25485703 -5.0201261e-05 -6.956311e-19)
(0.25486389 -0.00012463928 -2.6077747e-19)
(0.2548791 -0.00019574884 -2.1187477e-18)
(0.2549016 -0.00026956178 -1.5733445e-19)
(0.25493052 -0.00034177627 1.1123083e-19)
(0.25496396 -0.00041257844 2.9082716e-19)
(0.25499618 -0.00048173979 4.4250691e-19)
(0.25500857 -0.00054996705 6.1120683e-19)
(0.25494172 -0.00061637669 5.0285597e-19)
(0.2546073 -0.0006602417 3.5457301e-20)
(0.25332071 -0.00063871076 -8.3353875e-20)
(0.2478214 -0.00092597142 -2.4387874e-19)
(0.22526486 0.00012340436 -4.9062434e-19)
(0.25664521 -4.974385e-05 2.492154e-18)
(0.25665224 -0.00012488064 1.6718754e-18)
(0.2566674 -0.00019721364 4.0611387e-23)
(0.2566896 -0.0002720698 1.8019175e-19)
(0.25671747 -0.00034495172 1.7252834e-19)
(0.25674738 -0.00041609227 3.2152794e-19)
(0.25676826 -0.0004848948 4.6726378e-19)
(0.25674667 -0.00055096518 5.9858075e-19)
(0.25658539 -0.00061444887 2.1451672e-19)
(0.2559957 -0.0006636637 9.3794743e-20)
(0.2539403 -0.00063277351 -8.2989086e-20)
(0.24583249 -0.00077044467 -2.4812074e-19)
(0.21800982 -5.9385922e-05 -5.0366866e-19)
(0.25841323 -4.8556775e-05 1.9700839e-18)
(0.2584204 -0.00012219546 1.2912439e-18)
(0.25843571 -0.00019301892 1.1568487e-18)
(0.25845781 -0.00026625064 -3.9674829e-19)
(0.25848442 -0.00033744492 6.120635e-20)
(0.25850914 -0.00040689654 3.2514825e-19)
(0.25851346 -0.00047389151 2.5000364e-19)
(0.25844542 -0.00053705871 -9.3027866e-21)
(0.25816424 -0.00059536594 -4.2735099e-20)
(0.25726648 -0.00064373127 1.6530142e-20)
(0.25431322 -0.00061442321 -9.3350946e-20)
(0.24352458 -0.00065114415 -2.5499508e-19)
(0.21163262 -0.00012321892 -4.4727521e-19)
(0.26015467 -4.709344e-05 5.233602e-19)
(0.26016187 -0.0001185153 1.526885e-18)
(0.26017704 -0.0001870764 1.5472991e-18)
(0.2601984 -0.00025799462 5.5494694e-19)
(0.26022227 -0.00032687702 1.9812981e-19)
(0.26023853 -0.00039398781 8.1416276e-20)
(0.26021927 -0.00045855461 8.3576525e-20)
(0.26009115 -0.00051865148 -2.552753e-19)
(0.25966515 -0.00057157394 -8.9670972e-20)
(0.2584067 -0.00061480871 -1.1513963e-20)
(0.25443266 -0.00058544056 -4.1630883e-20)
(0.24102793 -0.0005571206 -2.2803536e-20)
(0.20612335 -0.00013293671 -3.4162576e-19)
(0.26183846 -4.5390267e-05 -3.7547982e-19)
(0.26184561 -0.00011435405 8.6235677e-19)
(0.26186042 -0.00018050108 1.1819212e-18)
(0.26188043 -0.00024892327 1.4078959e-18)
(0.26190008 -0.00031528561 -5.40278e-20)
(0.26190445 -0.00037977027 3.9974798e-24)
(0.26185458 -0.00044151446 -1.3354098e-19)
(0.2616533 -0.00049832849 -1.4897636e-19)
(0.26105826 -0.00054618084 -3.5171762e-19)
(0.25938354 -0.00058222647 -1.5150553e-19)
(0.25426994 -0.00054801504 -1.191327e-19)
(0.23842933 -0.00047868139 9.0265833e-21)
(0.20141646 -0.00011963306 -3.7765619e-19)
(0.26345768 -4.3664882e-05 -2.1866377e-18)
(0.26346469 -0.00011008558 -8.6251829e-19)
(0.26347885 -0.00017377013 -2.8015379e-19)
(0.26349678 -0.00023963045 -1.4660934e-19)
(0.26351051 -0.00030340684 -9.9082843e-20)
(0.26349932 -0.00036518044 1.1486506e-19)
(0.26341166 -0.00042394823 -8.7955162e-20)
(0.2631242 -0.00047735793 5.1884818e-20)
(0.26233468 -0.00052050214 5.0681786e-20)
(0.26018092 -0.00054846095 -1.4798484e-19)
(0.25381559 -0.00050481858 -1.3382354e-19)
(0.23581666 -0.00040978299 7.602777e-20)
(0.19745226 -9.8494616e-05 -2.314894e-19)
(0.26501552 -4.2046877e-05 2.0900482e-18)
(0.26502225 -0.00010599907 1.3875515e-18)
(0.26503542 -0.0001673021 1.3607331e-18)
(0.26505044 -0.00023067618 4.7816064e-19)
(0.26505633 -0.00029193976 2.3799068e-19)
(0.26502564 -0.00035106733 -3.7817934e-20)
(0.26489279 -0.0004068816 -1.0140143e-19)
(0.26450568 -0.00045685738 -1.4129858e-19)
(0.26349313 -0.00049549056 -2.0307238e-19)
(0.26078727 -0.00051473411 -1.5644803e-19)
(0.25307513 -0.00045847926 -4.7206509e-20)
(0.23327192 -0.00034737981 7.4751439e-20)
(0.19416843 -7.6932878e-05 -6.1226986e-20)
(0.2665165 -4.057706e-05 2.2951882e-18)
(0.26652283 -0.00010224007 8.7168404e-19)
(0.26653459 -0.00016134013 7.7578593e-19)
(0.26654572 -0.0002224043 8.9949111e-19)
(0.26654166 -0.00028132047 2.2717318e-19)
(0.26648729 -0.00033795568 -1.7261908e-19)
(0.26630156 -0.0003909415 -2.5216584e-19)
(0.26580019 -0.00043752442 -2.7584404e-19)
(0.26453091 -0.00047164498 -2.6111503e-19)
(0.26118849 -0.00048140525 -1.6561763e-19)
(0.25206937 -0.00041120617 -1.4690928e-19)
(0.23086314 -0.00029047958 -2.9724074e-19)
(0.19149027 -5.8333255e-05 -2.4158731e-19)
(0.26796591 -3.9276698e-05 -1.6161909e-18)
(0.26797166 -9.8886216e-05 -4.1686852e-19)
(0.26798155 -0.00015601486 -4.2249973e-19)
(0.26798768 -0.00021499986 8.9669998e-19)
(0.26797137 -0.00027178437 1.6047128e-19)
(0.26788889 -0.00032612646 -2.0154941e-19)
(0.26764202 -0.00037645613 -2.0383171e-19)
(0.26700984 -0.00041972353 -2.3654817e-19)
(0.26544297 -0.00044912486 -3.2309049e-19)
(0.26137042 -0.00044842588 -1.9175169e-19)
(0.25083979 -0.00036475941 -2.1958828e-19)
(0.22864123 -0.00023936527 -5.3099751e-19)
(0.18933265 -4.3854023e-05 -3.4345318e-19)
(0.26936985 -3.8151202e-05 -1.6191429e-19)
(0.26937484 -9.5961772e-05 -2.6681244e-19)
(0.26938229 -0.00015136516 9.1337339e-21)
(0.2693822 -0.00020851724 6.8218311e-19)
(0.26935114 -0.00026339986 1.9647231e-19)
(0.26923575 -0.00031565718 6.0641172e-20)
(0.26891866 -0.00036350366 2.1264238e-20)
(0.26813622 -0.00040351927 -2.1969127e-19)
(0.26622207 -0.00042777198 -2.0635373e-19)
(0.26132397 -0.00041560855 -1.22309e-19)
(0.24944814 -0.00032041762 -1.6976838e-19)
(0.22663743 -0.00019477817 -3.7306711e-19)
(0.18760708 -3.3365972e-05 -3.4725093e-19)
(0.27073452 -3.7186892e-05 3.4365865e-19)
(0.27073851 -9.3441595e-05 -4.2098715e-19)
(0.27074291 -0.00014735094 4.5532093e-20)
(0.27073523 -0.00020290125 3.5094945e-19)
(0.27068668 -0.0002560959 3.24307e-19)
(0.27053315 -0.00030645578 1.1532044e-19)
(0.27013553 -0.00035195662 6.1217776e-20)
(0.26917943 -0.00038871662 -2.5584246e-19)
(0.26685881 -0.00040716162 -2.3733155e-19)
(0.26105041 -0.00038281108 -1.2002321e-19)
(0.24796793 -0.00027903903 -2.0534404e-19)
(0.2248628 -0.00015723519 -4.5721233e-19)
(0.18622942 -2.6089621e-05 -3.1652483e-19)
(0.27206549 -3.6358598e-05 1.2432402e-19)
(0.27206822 -9.1270025e-05 -4.626953e-19)
(0.27206885 -0.00014388431 -5.7557147e-20)
(0.27205207 -0.00019803069 6.7875906e-19)
(0.27198302 -0.00024971698 5.0456247e-20)
(0.27178551 -0.0002983267 -1.6244081e-19)
(0.27129541 -0.00034156266 2.386567e-19)
(0.27013718 -0.00037494839 -1.241913e-19)
(0.26734241 -0.00038673535 -3.404814e-19)
(0.2605654 -0.00035005845 -2.4448294e-19)
(0.24647172 -0.00024119444 -2.5984627e-19)
(0.22331131 -0.00012666963 -4.1231836e-19)
(0.18512583 -2.1076371e-05 -4.3619211e-19)
(0.27336737 -3.5638788e-05 6.2225752e-19)
(0.27336856 -8.9381861e-05 -1.2604985e-19)
(0.27336463 -0.00014086217 1.0170954e-18)
(0.27333706 -0.00019376295 8.0862366e-20)
(0.27324415 -0.00024407934 -1.133432e-19)
(0.27299604 -0.00029103799 -9.1081449e-21)
(0.27239931 -0.00033202383 1.7634976e-19)
(0.27100443 -0.00036176734 -1.5897322e-20)
(0.26766283 -0.00036596046 9.4103206e-20)
(0.25989992 -0.00031757793 -2.3842408e-19)
(0.24502002 -0.00020725746 -5.4848672e-19)
(0.22196569 -0.00010242448 -1.5619661e-19)
(0.18423545 -1.7507118e-05 -1.8693033e-19)
(0.27464382 -3.5002894e-05 -8.7204702e-19)
(0.27464313 -8.7716018e-05 -3.2629428e-20)
(0.27463375 -0.00013818758 1.2758109e-18)
(0.2745935 -0.00018996324 3.3643199e-19)
(0.27447297 -0.0002390078 5.6653544e-19)
(0.27416661 -0.00028436529 2.3240409e-19)
(0.27344636 -0.00032304577 -1.0301898e-19)
(0.27177364 -0.00034871442 -3.9143534e-20)
(0.26781391 -0.00034445793 -2.0115325e-19)
(0.25909705 -0.00028576383 -2.7407355e-19)
(0.2436552 -0.00017740821 -5.0547285e-19)
(0.22080343 -8.3473061e-05 -4.9978798e-19)
(0.18351045 -1.4804615e-05 -5.8546049e-20)
(0.27589768 -3.4431105e-05 4.5091055e-19)
(0.27589473 -8.6221418e-05 1.8174366e-19)
(0.27587888 -0.00013577914 -6.6396913e-20)
(0.27582384 -0.00018651757 3.0467942e-19)
(0.27567139 -0.00023435206 5.7867848e-19)
(0.27529788 -0.00027811161 1.6558671e-19)
(0.27443375 -0.00031435606 -1.3532986e-19)
(0.27243556 -0.00033536392 2.9894985e-20)
(0.26779662 -0.00032206948 -2.6657928e-19)
(0.25820551 -0.00025510598 -2.0850395e-19)
(0.24240122 -0.00015160162 -2.1607879e-19)
(0.21980119 -6.8691003e-05 -3.5077618e-19)
(0.18291435 -1.2618554e-05 -3.7184533e-19)
(0.27713109 -3.3908297e-05 -1.631658e-19)
(0.27712546 -8.4858001e-05 1.0145924e-18)
(0.27710201 -0.00013357264 -1.8690029e-19)
(0.27702977 -0.00018333501 3.9825078e-19)
(0.27684047 -0.00022998947 2.2625391e-19)
(0.2763893 -0.00027211088 1.8383571e-19)
(0.27535691 -0.00030570399 -1.6762802e-19)
(0.2729805 -0.00032135787 -4.8178301e-20)
(0.26762111 -0.00029886295 -1.6003715e-19)
(0.25727242 -0.00022610441 -1.8199084e-19)
(0.24126718 -0.00012956886 -9.046605e-20)
(0.21893722 -5.7057435e-05 -1.8383538e-19)
(0.18241982 -1.0759083e-05 -3.0770838e-19)
(0.27834572 -3.3423243e-05 -1.3353625e-18)
(0.27833694 -8.3595438e-05 7.855603e-19)
(0.2783046 -0.00013151911 4.2148709e-19)
(0.27821241 -0.00018034488 9.852636e-19)
(0.27798052 -0.00022582105 -1.3987032e-19)
(0.27743925 -0.00026622306 2.035544e-19)
(0.27620962 -0.00029685485 2.3874926e-19)
(0.27340008 -0.00030643644 -9.467049e-20)
(0.26730692 -0.00027509383 -4.0780549e-20)
(0.25633756 -0.0001991843 -1.1164788e-19)
(0.24025214 -0.0001108758 -1.2189697e-19)
(0.21819234 -4.7749367e-05 -2.897493e-19)
(0.18200662 -9.1303524e-06 -4.3034705e-19)
(0.27954284 -3.2967675e-05 2.8883252e-20)
(0.27953036 -8.2411064e-05 4.5958065e-19)
(0.27948767 -0.00012958149 1.3255432e-18)
(0.27937237 -0.00017749197 1.60641e-19)
(0.27909121 -0.00022176546 1.1468822e-19)
(0.27844503 -0.00026032527 1.8526372e-19)
(0.27698441 -0.00028758731 2.6923869e-19)
(0.27368915 -0.00029046172 1.7784098e-21)
(0.26688073 -0.00025114512 2.9399231e-19)
(0.25543062 -0.00017462896 2.1345715e-19)
(0.2393495 -9.5013854e-05 -2.1807435e-19)
(0.21755 -4.0152308e-05 -5.7239829e-20)
(0.18165972 -7.6839572e-06 -1.8372305e-19)
(0.28072346 -3.253541e-05 2.6930315e-19)
(0.28070667 -8.1287793e-05 -3.7061683e-20)
(0.28065194 -0.00012773124 7.3519325e-19)
(0.28050986 -0.0001747318 1.5813861e-19)
(0.28017156 -0.00021775304 2.5767024e-19)
(0.27940289 -0.00025430188 1.1228742e-19)
(0.27767312 -0.00027769789 2.7584162e-19)
(0.27384765 -0.00027342827 3.1488862e-19)
(0.26637281 -0.00022746053 2.60587e-20)
(0.2545711 -0.0001525485 -4.2435921e-19)
(0.23855012 -8.148403e-05 -3.9303667e-19)
(0.21699614 -3.3827434e-05 -1.6543294e-19)
(0.18136794 -6.3925384e-06 4.3283455e-20)
(0.28188837 -3.2121655e-05 5.6755817e-19)
(0.28186655 -8.0212343e-05 6.526496e-19)
(0.28179785 -0.00012594549 -2.0066246e-19)
(0.28162471 -0.00017202641 1.2007308e-19)
(0.28121999 -0.00021372065 1.2687719e-19)
(0.28030804 -0.00024803603 3.1824141e-20)
(0.27826773 -0.00026701328 2.0610172e-19)
(0.27388156 -0.00025545692 4.0184844e-19)
(0.26581311 -0.00020447967 -9.7930291e-20)
(0.25377001 -0.00013289057 -5.2194417e-19)
(0.23784411 -6.9849922e-05 -1.9775481e-19)
(0.21651887 -2.8467156e-05 -2.3599918e-19)
(0.18112283 -5.2370941e-06 -1.5241512e-19)
(0.28303819 -3.1722486e-05 2.4723617e-18)
(0.28301052 -7.9173849e-05 1.1691829e-18)
(0.28292559 -0.00012420469 -4.1829595e-20)
(0.28271638 -0.00016934096 -3.1281633e-19)
(0.2822343 -0.00020960734 5.6011559e-19)
(0.28115476 -0.00024140493 1.9807418e-19)
(0.27876144 -0.00025540747 -4.3561758e-20)
(0.27380291 -0.00023677356 3.0267568e-19)
(0.26522808 -0.00018258167 4.4585709e-20)
(0.25303215 -0.00011548282 1.458341e-19)
(0.23722187 -5.9756963e-05 1.2427709e-19)
(0.21610816 -2.3855676e-05 -9.4866266e-20)
(0.18091788 -4.2018451e-06 6.9494781e-20)
(0.28417339 -3.1334452e-05 7.4073111e-19)
(0.28413893 -7.8162818e-05 4.0599152e-19)
(0.28403512 -0.00012249081 -1.4892434e-20)
(0.28378396 -0.00016664114 2.745615e-19)
(0.28321158 -0.0002053501 9.6150268e-20)
(0.28193659 -0.00023428041 3.1950666e-19)
(0.27914984 -0.00024281874 2.7895165e-19)
(0.27362851 -0.00021767781 4.203204e-19)
(0.26463906 -0.00016204558 1.3090072e-19)
(0.25235823 -0.00010008753 -2.878041e-19)
(0.23667446 -5.0928434e-05 -4.7291985e-19)
(0.21575559 -1.9839555e-05 -1.6684398e-19)
(0.18074793 -3.2726394e-06 4.6166736e-20)
(0.28529433 -3.0954305e-05 2.4046436e-19)
(0.28525196 -7.7170336e-05 1.1051681e-18)
(0.28512619 -0.000120786 8.9007515e-19)
(0.28482614 -0.00016389138 2.7172105e-19)
(0.28414822 -0.00020087986 1.438788e-19)
(0.28264669 -0.00022653515 1.8303052e-19)
(0.27943202 -0.00022926076 1.1077645e-19)
(0.27337791 -0.00019850621 1.2194562e-19)
(0.26406181 -0.0001430334 1.9810817e-19)
(0.25174654 -8.6449679e-05 2.7201141e-20)
(0.23619383 -4.3151082e-05 -2.5948953e-19)
(0.21545404 -1.6307484e-05 7.7592753e-21)
(0.18060883 -2.4367092e-06 1.7263289e-20)
(0.28640123 -3.0578784e-05 1.5571999e-18)
(0.28634965 -7.6187463e-05 5.6067269e-19)
(0.28619826 -0.00011907139 7.869491e-19)
(0.28584114 -0.00016105348 -3.7674131e-19)
(0.28503985 -0.00019611847 4.4093373e-19)
(0.2832784 -0.00021805401 -2.0872239e-20)
(0.27961117 -0.00021482471 -1.649746e-19)
(0.27307114 -0.00017959426 3.6206592e-19)
(0.26350715 -0.00012559657 2.6153205e-19)
(0.25119402 -7.4328963e-05 3.0081906e-19)
(0.23577276 -3.6259369e-05 3.0557619e-19)
(0.21519748 -1.3176835e-05 6.3895301e-20)
(0.18049716 -1.6827571e-06 1.3721042e-19)
(0.28749419 -3.0204451e-05 1.4215385e-18)
(0.28743185 -7.520472e-05 7.0616524e-19)
(0.28725056 -0.00011732616 1.4832724e-20)
(0.28682673 -0.0001580853 -1.0982982e-19)
(0.28588145 -0.00019097762 1.3761846e-19)
(0.28382593 -0.00020874813 1.945488e-19)
(0.27969464 -0.00019967158 1.0528241e-19)
(0.27272685 -0.00016124193 1.1862e-19)
(0.26298189 -0.00010969945 1.1120357e-19)
(0.25069697 -6.3515011e-05 1.3418257e-20)
(0.23540492 -3.0122534e-05 1.3685209e-19)
(0.21498079 -1.0384795e-05 -6.0385177e-20)
(0.18041 -1.0009983e-06 -3.429715e-20)
(0.28857317 -2.9827536e-05 1.8900901e-18)
(0.28849825 -7.4211612e-05 8.3251802e-19)
(0.28828196 -0.00011552671 3.1305195e-19)
(0.28778008 -0.00015493915 6.5723633e-20)
(0.28666738 -0.00018536089 2.4056452e-19)
(0.28428521 -0.00019856895 2.2930665e-19)
(0.27969326 -0.00018401637 1.6685474e-19)
(0.27236107 -0.0001436879 7.1696668e-20)
(0.26248991 -9.5249857e-05 9.4285234e-20)
(0.25025143 -5.3830543e-05 1.2809389e-19)
(0.23508472 -2.4635261e-05 1.7497853e-19)
(0.21479959 -7.8824797e-06 1.3317854e-19)
(0.18034487 -3.8307337e-07 -4.0016125e-20)
(0.28963798 -2.944375e-05 5.1735214e-19)
(0.28954832 -7.3196106e-05 -7.2073666e-19)
(0.28929102 -0.00011364593 -2.4724782e-19)
(0.2886978 -0.00015155982 3.9278555e-19)
(0.28739173 -0.00017916927 -8.2018266e-20)
(0.28465455 -0.00018751865 7.7493094e-20)
(0.27962017 -0.0001681064 6.7410154e-19)
(0.2719867 -0.00012709647 7.2227846e-19)
(0.26203302 -8.2127508e-05 1.2746398e-19)
(0.24985346 -4.5128119e-05 -3.0235738e-19)
(0.23480728 -1.9711254e-05 -3.413677e-19)
(0.21465012 -5.630982e-06 3.0645701e-20)
(0.18029962 1.7813438e-07 -1.3858912e-20)
(0.29068824 -2.9047997e-05 1.3863733e-18)
(0.29058125 -7.2143822e-05 5.1848757e-19)
(0.29027586 -0.00011165221 5.2803773e-19)
(0.28957586 -0.00014788248 6.4314104e-19)
(0.28804865 -0.00017230925 2.3739114e-19)
(0.28493523 -0.00017565384 4.1377624e-19)
(0.2794894 -0.00015219578 5.6066465e-19)
(0.2716136 -0.0001115566 9.7112397e-20)
(0.26161163 -7.0203553e-05 1.0989407e-20)
(0.24949925 -3.7283199e-05 7.5662593e-20)
(0.23456828 -1.5277053e-05 -2.8943684e-19)
(0.21452909 -3.5978686e-06 -7.0253246e-20)
(0.18027234 6.889202e-07 -1.1850902e-20)
(0.29172336 -2.863428e-05 4.9594546e-19)
(0.291596 -7.1037635e-05 1.8130329e-18)
(0.29123415 -0.00010950892 1.4347315e-18)
(0.29040962 -0.00014383257 4.150651e-19)
(0.28863287 -0.00016470429 7.2470715e-19)
(0.28513156 -0.00016308395 2.935814e-19)
(0.27931466 -0.00013652205 -5.5748613e-20)
(0.27124896 -9.7093552e-05 5.5707687e-20)
(0.26122524 -5.9353644e-05 1.1481816e-19)
(0.24918522 -3.0190173e-05 5.7666309e-19)
(0.23436395 -1.1270299e-05 4.8203005e-19)
(0.2144337 -1.7305504e-06 8.1951158e-20)
(0.18026136 1.1761553e-06 1.0072413e-19)
(0.29274252 -2.8196035e-05 -6.7487666e-19)
(0.29259116 -6.9858461e-05 2.5150336e-18)
(0.29216305 -0.00010717577 1.3385113e-19)
(0.29119393 -0.00013933085 3.330686e-19)
(0.28914031 -0.00015631032 5.6841009e-19)
(0.28525057 -0.00014996782 2.5140529e-19)
(0.27910837 -0.00012129297 1.8887495e-19)
(0.2708978 -8.3692845e-05 2.2487981e-19)
(0.26087272 -4.9471605e-05 3.6177417e-19)
(0.24890802 -2.3766778e-05 1.9437292e-19)
(0.23419085 -7.6476635e-06 4.6170977e-19)
(0.21436056 -1.6265202e-08 4.5705911e-20)
(0.18026627 1.6403908e-06 -7.1462497e-21)
(0.2937446 -2.7725099e-05 1.1929776e-18)
(0.29356496 -6.8583191e-05 1.2498961e-18)
(0.29305914 -0.00010460504 3.3294389e-19)
(0.29192334 -0.00013429446 2.1334943e-19)
(0.28956868 -0.00014712078 3.6594546e-19)
(0.2853013 -0.00013649478 2.9600948e-19)
(0.27888121 -0.00010666837 6.2128316e-20)
(0.27056351 -7.1310476e-05 2.1771956e-19)
(0.26055265 -4.0462897e-05 4.4589796e-19)
(0.24866458 -1.7940262e-05 2.8025611e-19)
(0.23404606 -4.3539165e-06 2.9631786e-19)
(0.21430781 1.5373949e-06 1.3962825e-19)
(0.18028522 2.056379e-06 6.355161e-20)
(0.29472815 -2.7211025e-05 -1.3185187e-19)
(0.29451518 -6.7183247e-05 -1.9684764e-19)
(0.29391842 -0.00010173906 1.2522351e-18)
(0.29259237 -0.00012864185 8.9895843e-19)
(0.28991788 -0.00013716949 -1.5725454e-19)
(0.28529395 -0.00012286451 1.162274e-19)
(0.27864192 -9.2752926e-05 5.6256178e-19)
(0.27024822 -5.9882445e-05 7.6047715e-19)
(0.26026336 -3.2238668e-05 9.3419034e-20)
(0.24845204 -1.2642385e-05 -2.0828899e-19)
(0.23392646 -1.3358922e-06 -3.2066196e-19)
(0.21427448 2.9561656e-06 3.6149192e-20)
(0.18031663 2.4263034e-06 6.760075e-20)
(0.29569132 -2.6641403e-05 -1.1330454e-18)
(0.2954391 -6.5625549e-05 2.1806363e-19)
(0.29473631 -9.8512687e-05 8.8088123e-19)
(0.29319592 -0.0001223057 8.5230446e-19)
(0.29019018 -0.00012653597 1.5812912e-19)
(0.2852389 -0.00010927515 4.6193498e-19)
(0.27839743 -7.9607264e-05 6.3214788e-19)
(0.26995312 -4.9342229e-05 4.5227303e-19)
(0.26000309 -2.4722182e-05 2.9571225e-19)
(0.24826773 -7.8150972e-06 1.8658805e-19)
(0.23382955 1.4151431e-06 -8.364537e-20)
(0.21425921 4.239074e-06 -8.115463e-20)
(0.18035932 2.7544294e-06 1.375356e-20)
(0.29663173 -2.6001182e-05 2.184761e-18)
(0.29633339 -6.3871158e-05 -4.7758981e-19)
(0.29550768 -9.4853898e-05 -6.5260124e-20)
(0.29372976 -0.0001152412 4.5550033e-20)
(0.29039011 -0.00011533898 8.5589531e-19)
(0.28514604 -9.5905386e-05 4.2658942e-19)
(0.27815305 -6.7254141e-05 2.1051272e-19)
(0.26967872 -3.9623334e-05 2.7204302e-19)
(0.25977003 -1.7841857e-05 5.8669864e-19)
(0.24810923 -3.3839682e-06 6.2061651e-19)
(0.23375398 3.9312058e-06 6.0266564e-19)
(0.21425996 5.3906106e-06 1.4293756e-19)
(0.18041214 3.0443402e-06 1.7108913e-19)
(0.29754645 -2.5272391e-05 1.1797804e-18)
(0.29719411 -6.1874453e-05 2.608339e-18)
(0.29622706 -9.0687765e-05 3.6014196e-19)
(0.29419101 -0.0001074348 1.8385711e-19)
(0.290524 -0.00010372737 8.9178083e-19)
(0.28502427 -8.290337e-05 6.0964238e-19)
(0.27791277 -5.5688939e-05 2.5111307e-19)
(0.26942499 -3.0662234e-05 2.5745533e-19)
(0.25956226 -1.1539681e-05 2.9675621e-19)
(0.24797362 6.7589902e-07 2.5969229e-19)
(0.23369893 6.2277254e-06 3.8596377e-19)
(0.21427538 6.4296427e-06 3.3291045e-19)
(0.18047413 3.3030925e-06 4.3184201e-20)
(0.29843186 -2.443409e-05 -1.0217615e-18)
(0.29801658 -5.9582982e-05 2.5611361e-18)
(0.29688883 -8.59434e-05 6.4609673e-19)
(0.29457851 -9.891085e-05 5.4138985e-19)
(0.29059935 -9.1868436e-05 6.2714395e-19)
(0.28488126 -7.0382626e-05 6.8096784e-19)
(0.27767954 -4.4890683e-05 3.8791366e-19)
(0.26919163 -2.2395842e-05 2.5364031e-19)
(0.25937815 -5.7364131e-06 5.2971345e-20)
(0.24785972 4.3904907e-06 2.3234969e-19)
(0.2336621 8.3016061e-06 2.8120998e-19)
(0.21430404 7.3667085e-06 3.6568723e-19)
(0.18054443 3.5354735e-06 1.2035741e-19)
(0.29928359 -2.3462154e-05 2.4430797e-18)
(0.29879547 -5.6937594e-05 -1.5101288e-19)
(0.29748763 -8.0561626e-05 9.6740307e-19)
(0.29489309 -8.9732433e-05 1.0968691e-18)
(0.29062422 -7.9932344e-05 -2.0523121e-19)
(0.28472341 -5.8420105e-05 3.8375683e-19)
(0.27745536 -3.4827531e-05 1.3073702e-18)
(0.26897782 -1.4770404e-05 9.5202388e-19)
(0.25921519 -3.9179208e-07 1.2144959e-19)
(0.24776702 7.7920537e-06 -5.3106465e-19)
(0.23364198 1.0181112e-05 -2.720266e-19)
(0.21434474 8.2147728e-06 -7.2942893e-20)
(0.18062225 3.745005e-06 1.1237196e-19)
(0.30009637 -2.2329731e-05 2.0625992e-18)
(0.29952479 -5.3875501e-05 2.4248189e-18)
(0.29801875 -7.450526e-05 1.3699126e-18)
(0.29513749 -7.9999956e-05 9.784173e-19)
(0.29060659 -6.8080585e-05 8.3144004e-20)
(0.28455591 -4.7062483e-05 6.351612e-19)
(0.27724164 -2.5459227e-05 7.7475311e-19)
(0.2687829 -7.7156703e-06 4.3195789e-19)
(0.25907248 4.5153929e-06 3.6208416e-19)
(0.24769347 1.0881386e-05 -1.9904495e-19)
(0.23363709 1.1884867e-05 -4.466859e-19)
(0.21439637 8.9837475e-06 -1.9506762e-19)
(0.1807069 3.9343517e-06 -1.1050356e-19)
(0.30086402 -2.1007838e-05 -1.8366832e-19)
(0.30019808 -5.0335143e-05 3.761006e-18)
(0.29847858 -6.7767506e-05 1.7865528e-18)
(0.29531608 -6.9843628e-05 -2.8914887e-19)
(0.29055391 -5.6454429e-05 6.2180223e-19)
(0.28438287 -3.6332028e-05 2.3556953e-19)
(0.27703906 -1.6748267e-05 -3.9031378e-19)
(0.2686053 -1.1875296e-06 -5.5767122e-19)
(0.25894976 9.0213337e-06 2.1453891e-19)
(0.24763751 1.3689792e-05 4.6395027e-19)
(0.23364609 1.3431084e-05 9.3926859e-20)
(0.21445793 9.6806778e-06 -1.5865159e-19)
(0.18079772 4.1050171e-06 -1.2095478e-19)
(0.30157943 -1.9467192e-05 2.069216e-18)
(0.30080863 -4.6264344e-05 1.3571502e-18)
(0.29886499 -6.0378835e-05 7.113609e-19)
(0.29543444 -5.9413962e-05 -1.8708379e-19)
(0.29047287 -4.5169376e-05 4.2574799e-19)
(0.28420752 -2.6229162e-05 -3.0864252e-20)
(0.27684812 -8.6362802e-06 -3.115739e-19)
(0.26844451 4.8386335e-06 -4.5586062e-19)
(0.25884557 1.3135754e-05 -2.7560297e-20)
(0.2475977 1.6244083e-05 4.3706501e-19)
(0.23366777 1.4835341e-05 4.1789797e-19)
(0.21452852 1.0311971e-05 -3.4911851e-20)
(0.18089414 4.2585211e-06 -1.0303676e-19)
(0.30223466 -1.7681571e-05 1.8527192e-18)
(0.3013499 -4.1630434e-05 -8.158175e-19)
(0.29917751 -5.2409547e-05 -5.9894444e-19)
(0.29549883 -4.8869432e-05 7.73602e-19)
(0.29036918 -3.4313665e-05 8.008267e-19)
(0.28403214 -1.6747528e-05 5.2286893e-19)
(0.27666826 -1.0891243e-06 4.53356e-19)
(0.26830088 1.039096e-05 -5.7622741e-20)
(0.25875851 1.6888466e-05 -3.8880815e-20)
(0.24757272 1.8568164e-05 -1.924734e-19)
(0.23370102 1.611e-05 1.1737923e-19)
(0.21460732 1.0882742e-05 -9.1283501e-20)
(0.18099561 4.3960606e-06 -7.4287319e-20)
(0.30282117 -1.5633393e-05 9.9171383e-19)
(0.30181594 -3.6431492e-05 1.7685055e-18)
(0.29941741 -4.3968565e-05 9.2761369e-19)
(0.29551566 -3.8365478e-05 9.9712918e-19)
(0.2902477 -2.3945238e-05 8.1639767e-19)
(0.28385859 -7.8477424e-06 5.5906766e-19)
(0.27649982 5.9141042e-06 3.9198289e-19)
(0.26817344 1.5479792e-05 5.5139975e-20)
(0.25868728 2.0310818e-05 -1.102471e-19)
(0.24756135 2.0682612e-05 -1.3910235e-19)
(0.23374484 1.7265677e-05 -3.0907216e-21)
(0.21469357 1.1397564e-05 5.5587737e-20)
(0.18110164 4.5187451e-06 -7.6054672e-21)
(0.30333026 -1.332079e-05 1.0475607e-18)
(0.30220189 -3.0705591e-05 2.8770327e-18)
(0.29958744 -3.519638e-05 1.5835721e-18)
(0.29549103 -2.8043655e-05 5.2321036e-19)
(0.29011218 -1.4099852e-05 1.9172849e-19)
(0.28368733 4.8515949e-07 1.0079978e-19)
(0.276344 1.2388885e-05 -1.1809011e-19)
(0.26806118 2.0135111e-05 2.1161809e-19)
(0.2586307 2.3431334e-05 -4.6317077e-20)
(0.24756246 2.2604547e-05 3.3624722e-19)
(0.23379832 1.8311453e-05 2.0686123e-19)
(0.21478659 1.1860447e-05 2.6466026e-19)
(0.18121176 4.6275358e-06 -1.9850058e-21)
(0.30375374 -1.0764902e-05 9.8747954e-19)
(0.30250438 -2.4536354e-05 3.456871e-18)
(0.29969147 -2.6255596e-05 2.476949e-18)
(0.29543051 -1.80242e-05 -4.4202863e-19)
(0.28996562 -4.7858158e-06 -8.6931249e-20)
(0.28352015 8.2431163e-06 -4.4094661e-19)
(0.27620025 1.8335879e-05 -4.6363681e-19)
(0.26796311 2.4389462e-05 1.343038e-20)
(0.25858763 2.6274652e-05 3.8670505e-20)
(0.24757502 2.4348907e-05 6.5481258e-20)
(0.2338606 1.9255528e-05 -1.7733055e-20)
(0.21488574 1.2275078e-05 -2.0352128e-19)
(0.18132555 4.7233377e-06 -3.1007775e-20)
(0.30408466 -8.0145707e-06 -1.656065e-19)
(0.30272186 -1.8051785e-05 3.0602532e-18)
(0.29973407 -1.7315879e-05 1.0812113e-18)
(0.29533886 -8.3895762e-06 2.3220175e-19)
(0.28980995 3.9789708e-06 2.5514065e-19)
(0.28335875 1.542451e-05 -3.5348926e-19)
(0.27606809 2.3784745e-05 -4.5057687e-19)
(0.26787825 2.8272294e-05 -3.9251361e-20)
(0.25855702 2.8860179e-05 1.3380218e-19)
(0.24759808 2.5927628e-05 1.3719549e-19)
(0.23393092 2.0104424e-05 -6.8439272e-20)
(0.21499042 1.2644241e-05 1.3170818e-19)
(0.1814426 4.8067303e-06 4.5857654e-20)
(0.30431819 -5.1449364e-06 1.1154055e-18)
(0.30285461 -1.1412626e-05 -1.9846716e-18)
(0.29971994 -8.5331456e-06 -5.8409622e-19)
(0.29521955 7.8210277e-07 9.6143425e-19)
(0.28964857 1.2143104e-05 3.3388609e-19)
(0.28320331 2.2022643e-05 6.620318e-19)
(0.27594691 2.8765146e-05 9.3737668e-19)
(0.26780566 3.1808721e-05 5.092797e-19)
(0.25853789 3.12052e-05 1.6132147e-19)
(0.24763076 2.735174e-05 -2.4903655e-19)
(0.23400854 2.0864228e-05 -3.8792231e-20)
(0.2151001 1.2970575e-05 1.6648104e-19)
(0.18156252 4.8783021e-06 1.3954711e-20)
(0.30445222 -2.2472224e-06 2.5425627e-18)
(0.30290466 -4.7892175e-06 4.0133176e-19)
(0.2996534 -5.7418921e-08 1.0783755e-18)
(0.29507686 9.3869015e-06 9.7783371e-19)
(0.28948321 1.9670583e-05 8.212145e-19)
(0.28305386 2.8057834e-05 9.2920732e-19)
(0.27583605 3.3302712e-05 7.3965606e-19)
(0.26774441 3.5018227e-05 2.9637342e-19)
(0.25852929 3.332347e-05 1.5292602e-20)
(0.24767222 2.8629947e-05 -1.7373866e-19)
(0.23409279 2.1539528e-05 -6.5449872e-20)
(0.21521426 1.3255924e-05 -9.5849038e-20)
(0.18168496 4.9383764e-06 -1.0149071e-20)
(0.30448759 5.8144209e-07 7.7409683e-19)
(0.30287533 1.6332172e-06 4.535907e-18)
(0.29953939 7.9404131e-06 1.2786185e-18)
(0.29491435 1.7334275e-05 1.3066933e-18)
(0.28931491 2.6550419e-05 7.3341351e-19)
(0.28291026 3.3548754e-05 4.9481063e-19)
(0.2757348 3.7416558e-05 -2.3639463e-19)
(0.26769361 3.7916309e-05 -5.5897784e-20)
(0.25853035 3.5226148e-05 1.2006292e-19)
(0.24772169 2.9769113e-05 4.9880884e-19)
(0.23418305 2.2133769e-05 2.1591077e-19)
(0.2153324 1.3501559e-05 2.7810891e-19)
(0.18180955 4.987105e-06 1.0258162e-19)
(0.30442824 3.2381491e-06 7.1034958e-19)
(0.30277199 7.6570059e-06 1.6920069e-18)
(0.29938292 1.5304032e-05 2.5038214e-18)
(0.29473444 2.4565401e-05 -1.0157146e-19)
(0.28914434 3.2781728e-05 1.6131974e-19)
(0.28277222 3.8508157e-05 4.1537931e-19)
(0.27564244 4.1120483e-05 3.1362636e-19)
(0.26765239 4.0514621e-05 2.2531968e-19)
(0.25854021 3.6921394e-05 3.2758837e-19)
(0.24777843 3.0773932e-05 5.6540149e-19)
(0.23427872 2.2649031e-05 2.7964235e-19)
(0.21545406 1.3708044e-05 -2.6726288e-21)
(0.18193595 5.0244104e-06 1.0246427e-19)
(0.30428147 5.6355977e-06 1.1427209e-18)
(0.30260141 1.31224e-05 1.2075592e-18)
(0.29918843 2.1930445e-05 8.9987195e-19)
(0.29453912 3.1047546e-05 7.4594542e-20)
(0.28897192 3.8362712e-05 4.6092655e-19)
(0.28263933 4.2943572e-05 2.6734421e-19)
(0.2755582 4.4423864e-05 5.0741807e-19)
(0.26761989 4.2821008e-05 4.09171e-19)
(0.25855808 3.8414275e-05 3.9064047e-19)
(0.24784174 3.1646872e-05 2.9408536e-19)
(0.23437921 2.3085981e-05 2.3449648e-19)
(0.21557877 1.387519e-05 -4.4889865e-20)
(0.18206381 5.0499642e-06 8.2106806e-20)
(0.30405678 7.720549e-06 1.4297395e-18)
(0.30237113 1.7926724e-05 1.4788494e-18)
(0.29896016 2.7756835e-05 5.200779e-19)
(0.29433004 3.6759538e-05 3.0478045e-19)
(0.28879784 4.3291021e-05 2.7836705e-19)
(0.2825111 4.6859631e-05 -1.1683361e-19)
(0.2754813 4.7332623e-05 1.8036917e-20)
(0.26759529 4.4839963e-05 -3.4430835e-20)
(0.25858316 3.9707115e-05 2.0766261e-19)
(0.24791094 3.2388414e-05 9.6403134e-20)
(0.23448396 2.3444011e-05 1.7729911e-19)
(0.21570609 1.4002121e-05 1.1411622e-19)
(0.18219278 5.0632134e-06 7.4155392e-20)
(0.30376497 9.4676961e-06 8.5349038e-19)
(0.30208913 2.2015491e-05 3.8285064e-19)
(0.29870222 3.2751941e-05 9.4349108e-19)
(0.29410866 4.169147e-05 1.4903191e-19)
(0.2886222 4.7566334e-05 -2.2996059e-20)
(0.28238699 5.02595e-05 8.2560371e-20)