/*--------------------------------*- C++ -*----------------------------------*\
| =========                 |                                                 |
| \\      /  F ield         | OpenFOAM: The Open Source CFD Toolbox           |
|  \\    /   O peration     | Version:  2506                                  |
|   \\  /    A nd           | Website:  www.openfoam.com                      |
|    \\/     M anipulation  |                                                 |
\*---------------------------------------------------------------------------*/
FoamFile
{
    version     2.0;
    format      ascii;
    arch        "LSB;label=32;scalar=64";
    class       volScalarField;
    location    "18000/rock";
    object      T;
}
// * * * * * * * * * * * * * * * * * * * * * * * * * * * * * * * * * * * * * //

dimensions      [0 0 0 1 0 0 0];

internalField   nonuniform List<scalar> 
16000
(
317.74815
306.98096
301.16142
297.53597
295.07359
293.30137
291.97148
290.94143
290.12349
289.46076
288.91476
288.45857
288.07284
287.74331
287.45926
287.21249
286.99662
286.80661
286.63848
286.48897
286.35546
286.23577
286.12812
286.03099
285.94313
285.86347
285.79108
285.72518
285.66509
285.61021
285.56003
285.51406
285.47189
285.43313
285.39738
285.36427
285.33338
285.30423
285.27615
285.24806
320.43308
309.70696
303.49489
299.50882
296.76113
294.76669
293.26192
292.0921
291.16067
290.40446
289.78047
289.25848
288.81667
288.43892
288.11309
287.82984
287.58195
287.36367
287.17044
286.99856
286.84503
286.70737
286.58352
286.47176
286.37064
286.27895
286.19561
286.11975
286.05056
285.98738
285.9296
285.87668
285.82813
285.78351
285.74238
285.70432
285.66887
285.6355
285.60357
285.57218
321.96793
311.71521
305.42003
301.23726
298.29298
296.12738
294.47894
293.1894
292.15794
291.31759
290.62229
290.03939
289.54516
289.12197
288.7565
288.43849
288.15991
287.91443
287.69699
287.50346
287.33051
287.17537
287.03574
286.9097
286.79563
286.69216
286.5981
286.51246
286.43436
286.36302
286.29778
286.23803
286.18324
286.13289
286.08652
286.04366
286.00383
285.96651
285.93111
285.89692
322.95161
313.22602
307.00387
302.73929
299.6718
297.38142
295.61933
294.2301
293.11238
292.19763
291.43807
290.79948
290.25675
289.79115
289.38839
289.03745
288.72967
288.45819
288.2175
288.00312
287.81141
287.63934
287.48439
287.34446
287.21777
287.10281
286.99829
286.9031
286.81626
286.73694
286.66439
286.59797
286.53706
286.48113
286.42966
286.38216
286.33814
286.2971
286.25849
286.22179
323.64303
314.39728
308.31627
304.04285
300.90771
298.53161
296.68292
295.2129
294.02234
293.04291
292.22626
291.53734
290.95022
290.44537
290.00781
289.62591
289.2905
288.9943
288.7314
288.49704
288.28728
288.09887
287.92911
287.77572
287.63678
287.51065
287.39593
287.29142
287.19606
287.10894
287.02926
286.95631
286.88944
286.82806
286.77164
286.71967
286.67163
286.62706
286.58546
286.54639
324.16375
315.33328
309.41678
305.17771
302.01462
299.58395
297.67186
296.13812
294.88731
293.85255
292.98585
292.25198
291.62461
291.08375
290.61395
290.20314
289.84177
289.52218
289.23819
288.98474
288.7577
288.5536
288.36957
288.20318
288.05237
287.91541
287.79079
287.67721
287.57355
287.47884
287.39221
287.3129
287.24022
287.17355
287.11233
287.05603
287.00414
286.95619
286.91175
286.87043
324.57605
316.10195
310.35221
306.17143
303.00757
300.54621
298.58991
297.00734
295.70769
294.62637
293.71636
292.94278
292.27927
291.70565
291.2062
290.76857
290.38292
290.04134
289.7374
289.46584
289.2223
289.00318
288.80545
288.62654
288.46429
288.31685
288.18263
288.06026
287.94855
287.84646
287.75307
287.66757
287.58925
287.51744
287.45157
287.39108
287.33548
287.28431
287.23714
287.19365
324.91464
316.74805
311.15817
307.04778
303.90111
301.42684
299.44178
297.82303
296.48464
295.36474
294.41775
293.60946
292.91381
292.31061
291.7841
291.32175
290.91354
290.55138
290.22866
289.93995
289.68076
289.44731
289.23646
289.04555
288.87229
288.71475
288.57126
288.44039
288.32087
288.21162
288.11167
288.02017
287.93637
287.85958
287.7892
287.72467
287.66549
287.6112
287.56141
287.5158
325.20036
317.3018
311.86143
307.82649
304.7085
302.23429
300.23261
298.5882
297.21984
296.06853
295.09035
294.25205
293.52805
292.89838
292.34732
291.86232
291.43327
291.05195
290.71164
290.40679
290.13277
289.88572
289.66237
289.45996
289.27614
289.10889
288.95648
288.8174
288.69034
288.57416
288.46785
288.37054
288.28143
288.19981
288.12507
288.05663
287.99399
287.9367
287.88437
287.83668
325.44657
317.78415
312.48217
308.52371
305.44143
302.97653
300.96764
299.30617
297.91532
296.73891
295.7348
294.87083
294.12205
293.46886
292.89569
292.39006
291.94185
291.54279
291.18609
290.86609
290.5781
290.31816
290.08293
289.86957
289.67565
289.49909
289.3381
289.19112
289.05678
288.93391
288.82147
288.71853
288.62428
288.53799
288.45903
288.38681
288.32083
288.26062
288.20582
288.1561
325.66228
318.21005
313.03573
309.1525
306.10997
303.66086
301.65194
299.98037
298.57332
297.37729
296.35194
295.46625
294.69602
294.02209
293.42916
292.90486
292.43913
292.02372
291.65178
291.31764
291.01653
290.74444
290.49795
290.27418
290.07063
289.88517
289.71596
289.56138
289.42005
289.29073
289.17236
289.06399
288.96478
288.87398
288.79094
288.71506
288.64584
288.58281
288.5256
288.47389
325.85383
318.59042
313.53389
309.72343
306.72271
304.29383
302.2903
300.61419
299.19618
297.98525
296.9428
296.03897
295.25034
294.55826
293.94776
293.40666
292.92501
292.49459
292.10858
291.76128
291.4479
291.16437
290.90726
290.67362
290.46091
290.26697
290.08989
289.92804
289.77999
289.64448
289.5204
289.4068
289.30279
289.20764
289.12065
289.04124
288.96888
288.90311
288.84356
288.78989
326.02583
318.93346
313.98579
310.24508
307.28693
304.88122
302.88712
301.21086
299.78622
298.56443
297.50849
296.58972
295.78547
295.07766
294.45165
293.89552
293.39946
292.95533
292.55637
292.19688
291.87206
291.57783
291.31072
291.06775
290.84636
290.64434
290.45977
290.29096
290.13647
289.99501
289.86546
289.74681
289.63819
289.53883
289.44803
289.3652
289.2898
289.22137
289.15953
289.10394
326.18176
319.24542
314.39867
310.72444
307.80876
305.42811
303.44641
301.77346
300.34573
299.11648
298.05022
297.11934
296.30198
295.58063
294.94103
294.37154
293.86252
293.40594
292.99511
292.62436
292.28891
291.98469
291.70819
291.45644
291.22684
291.01716
290.82545
290.65002
290.48938
290.34222
290.2074
290.08391
289.97085
289.86743
289.77296
289.68682
289.60848
289.53746
289.47338
289.4159
326.32424
319.53119
314.77826
311.16726
308.29341
305.93893
303.97178
302.30483
300.8769
299.64307
298.56919
297.6287
296.8005
296.06761
295.4162
294.8349
294.31428
293.84644
293.42478
293.04368
292.6984
292.38487
292.0996
291.83959
291.60225
291.38532
291.18684
291.00509
290.83858
290.68597
290.54611
290.41797
290.30064
290.19333
290.09531
290.00598
289.92478
289.85125
289.78499
289.72565
326.45537
319.79463
315.12922
311.57827
308.7453
306.41752
304.46645
302.80758
301.3818
300.14578
299.06663
298.11871
297.28167
296.53907
295.87748
295.28582
294.75487
294.2769
293.8454
293.45482
293.10047
292.77831
292.48485
292.21712
291.97249
291.74872
291.54383
291.35609
291.18398
291.02618
290.8815
290.7489
290.62747
290.5164
290.41497
290.32255
290.23859
290.16262
290.09422
290.03305
326.57677
320.03883
315.45533
311.96142
309.16815
306.86726
304.9333
303.2841
301.86236
300.62616
299.54372
298.59029
297.7462
296.99553
296.32524
295.72456
295.18448
294.69743
294.25702
293.85781
293.49512
293.16498
292.86391
292.58895
292.3375
292.10728
291.89633
291.70291
291.52549
291.36274
291.21345
291.07659
290.95123
290.83656
290.73184
290.63644
290.5498
290.47145
290.40097
290.338
326.68978
320.26632
315.7597
312.31999
309.56519
307.29105
305.37489
303.73657
302.32037
301.08564
300.00161
299.04434
298.19478
297.43751
296.75988
296.15139
295.60329
295.10816
294.65974
294.25267
293.88236
293.54486
293.23674
292.95506
292.69721
292.46094
292.24428
292.04548
291.86303
291.69556
291.54189
291.40095
291.27183
291.15369
291.04581
290.94753
290.85831
290.77765
290.70513
290.6404
326.79548
320.47917
316.04494
312.65678
309.93913
307.69145
305.7935
304.16695
302.75749
301.5256
300.44143
299.48176
298.62812
297.86556
297.1818
296.56664
296.01154
295.50926
295.05366
294.63948
294.26221
293.91796
293.60333
293.31539
293.05158
292.80964
292.5876
292.38374
292.19651
292.02457
291.86672
291.7219
291.58918
291.46772
291.35679
291.25575
291.16402
291.08112
291.00661
290.94014
326.89476
320.67912
316.31321
312.97414
310.29235
308.07069
306.19114
304.57701
303.17524
301.94732
300.86422
299.90338
299.04689
298.28021
297.59144
296.97063
296.40947
295.9009
295.4389
295.01832
294.63474
294.2843
293.96367
293.66994
293.40058
293.15333
292.92626
292.71762
292.52588
292.3497
292.18788
292.03936
291.9032
291.77856
291.6647
291.56099
291.46684
291.38176
291.30531
291.23714
326.98835
320.86759
316.56635
313.27408
310.62688
308.43071
306.56961
304.96835
303.57501
302.35199
301.27098
300.31005
299.45177
298.68202
297.98922
297.3637
296.79735
296.28327
295.81561
295.3893
295
294.64392
294.31778
294.01871
293.74419
293.492
293.2602
293.04707
292.85109
292.6709
292.50531
292.35326
292.21382
292.08613
291.96947
291.86318
291.76669
291.67949
291.60115
291.5313
327.07688
321.04581
316.80592
313.55835
310.94449
308.77323
306.9305
305.34242
303.95808
302.7407
301.66265
300.70255
299.84341
299.07152
298.37558
297.74619
297.17543
296.6566
296.18395
295.75253
295.35808
294.99688
294.6657
294.3617
294.08241
293.82562
293.58941
293.37207
293.17208
292.9881
292.81894
292.66355
292.52097
292.39037
292.27102
292.16226
292.0635
291.97425
291.89406
291.82256
327.16086
321.21482
317.03327
313.82844
311.24671
309.09976
307.27525
305.70052
304.32562
303.11448
302.04011
301.08162
300.22245
299.44922
298.75094
298.11844
297.54401
297.02109
296.54408
296.10813
295.70906
295.34323
295.00746
294.69894
294.41524
294.15418
293.91386
293.69257
293.48882
293.30127
293.12874
292.97016
292.8246
292.69122
292.56929
292.45814
292.3572
292.26595
292.18397
292.11085
327.24074
321.37551
317.24955
314.08563
311.53491
309.41164
307.60512
306.04383
304.67867
303.47428
302.40419
301.44797
300.58947
299.81563
299.11572
298.4808
297.90336
297.37698
296.89619
296.45625
296.05306
295.68306
295.34311
295.03046
294.7427
294.47769
294.23353
294.00856
293.80129
293.61037
293.43465
293.27305
293.12466
292.98863
292.86422
292.75078
292.64773
292.55455
292.4708
292.3961
327.31689
321.52864
317.45575
314.33107
311.81026
309.71004
307.92125
306.37341
305.01823
303.82096
302.75564
301.80227
300.94506
300.17124
299.47033
298.83362
298.25375
297.72448
297.24044
296.79702
296.39019
296.01644
295.67271
295.35629
295.0648
294.79614
294.54844
294.32003
294.10945
293.91538
293.73664
293.57219
293.4211
293.28254
293.15576
293.04012
292.93503
292.83998
292.75452
292.67825
327.38965
321.67487
317.65276
314.56575
312.07382
309.99603
308.22465
306.69022
305.34517
304.15532
303.09518
302.14515
301.28975
300.5165
299.81516
299.17721
298.59547
298.06382
297.57704
297.1306
296.72055
296.34347
295.99633
295.67648
295.38159
295.10957
294.85858
294.62698
294.4133
294.21626
294.03468
293.86754
293.71389
293.57291
293.44387
293.32611
293.21906
293.12219
293.03505
292.95726
327.45929
321.8148
317.84134
314.79053
312.3265
310.27052
308.51625
306.99514
305.6603
304.4781
303.42348
302.4772
301.62407
300.85188
300.1506
299.51191
298.92878
298.39524
297.90617
297.45713
297.04428
296.66423
296.31404
295.9911
295.69309
295.41799
295.16396
294.92939
294.71284
294.51301
294.32876
294.15906
294.00299
293.85971
293.72851
293.60872
293.49977
293.40113
293.31237
293.23308
327.52606
321.94892
318.02215
315.0062
312.56914
310.53438
308.79686
307.28894
305.96436
304.78998
303.74115
302.79896
301.9485
301.17779
300.47702
299.83804
299.25396
298.71896
298.22801
297.77678
297.36149
296.97884
296.62593
296.30019
295.99936
295.72142
295.4646
295.22728
295.00804
294.80562
294.61886
294.44675
294.28838
294.14292
294.00964
293.88791
293.77712
293.67678
293.58643
293.50566
327.59019
322.0777
318.1958
315.21344
312.80246
310.78833
309.06724
307.57235
306.25803
305.09159
304.04877
303.11095
302.26349
301.49464
300.79477
300.15589
299.57128
299.0352
298.54276
298.0897
297.67233
297.2874
296.93207
296.60382
296.30043
296.01992
295.76052
295.52066
295.29893
295.09408
294.90496
294.73058
294.57003
294.42249
294.28724
294.16364
294.05109
293.94909
293.85719
293.77498
327.65186
322.20151
318.36282
315.41285
313.02713
311.03307
309.32804
307.84602
306.54192
305.38351
304.34687
303.41366
302.56949
301.80282
301.10419
300.46578
299.88098
299.34419
298.8506
298.39605
297.97691
297.59001
297.23255
296.90207
296.59637
296.31352
296.05176
295.80955
295.58551
295.37839
295.18707
295.01055
294.84794
294.69843
294.56129
294.43589
294.32164
294.21804
294.12463
294.04101
327.71126
322.32073
318.52366
315.60499
313.24374
311.2692
309.5799
308.11054
306.81661
305.66628
304.63593
303.70753
302.8669
302.10268
301.4056
300.76797
300.18331
299.64613
299.15171
298.69598
298.27537
297.88678
297.52747
297.195
296.88723
296.60225
296.33834
296.09398
295.86779
295.65856
295.46517
295.28665
295.12209
294.9707
294.83176
294.70464
294.58876
294.4836
294.38872
294.30371
327.76853
322.43567
318.67877
315.79034
313.45281
311.49727
309.82334
308.36646
307.08262
305.94038
304.91643
303.993
303.15611
302.39459
301.69932
301.06275
300.47852
299.94124
299.44628
298.98965
298.56785
298.17784
297.81691
297.4827
297.17308
296.88618
296.62031
296.37396
296.1458
295.9346
295.73929
295.55887
295.39247
295.2393
295.09865
294.96988
294.85242
294.74576
294.64944
294.56307
327.82382
322.54662
318.82852
315.96936
313.65483
311.71779
310.05889
308.61427
307.34042
306.20626
305.18879
304.27045
303.43747
302.67886
301.98564
301.35037
300.76683
300.22972
299.73448
299.27721
298.85447
298.46327
298.10097
297.76523
297.45397
297.16534
296.89769
296.64954
296.41955
296.20653
296.00941
295.82722
295.65909
295.50423
295.36195
295.23159
295.11261
295.00449
294.90678
294.81907
327.87724
322.65382
318.97325
316.14242
313.85023
311.93119
310.28699
308.85443
307.59046
306.46436
305.4534
304.54025
303.71133
302.95581
302.26483
301.6311
301.04848
300.51176
300.01649
299.55881
299.13537
298.74321
298.37975
298.04268
297.72997
297.4398
297.17055
296.92074
296.68907
296.47437
296.27557
296.09171
295.92195
295.76549
295.62164
295.48978
295.36933
295.25979
295.16072
295.0717
327.92893
322.75752
319.11326
316.30991
314.0394
312.13791
310.50807
309.08735
307.83314
306.71506
305.71064
304.80275
303.97801
303.22572
302.53717
301.90516
301.32367
300.78757
300.29248
299.83461
299.41066
299.01775
298.65333
298.31513
298.00116
297.70962
297.43891
297.1876
296.95439
296.73813
296.53776
296.35235
296.18104
296.02307
295.87774
295.74442
295.62256
295.51166
295.41126
295.32095
327.97897
322.85792
319.24885
316.47214
314.22272
312.33831
310.72252
309.31342
308.06884
306.95872
305.96084
305.05828
304.23781
303.48888
302.80291
302.1728
301.59261
301.05731
300.5626
300.10474
299.68049
299.28702
298.92182
298.58267
298.2676
297.97484
297.70284
297.45016
297.21555
296.99784
296.79602
296.60916
296.43639
296.27698
296.13023
295.99553
295.87231
295.76008
295.65838
295.56682
328.02747
322.95521
319.38026
316.62942
314.40049
312.53274
310.93068
309.53299
308.2979
307.19567
306.20432
305.30712
304.49101
303.74555
303.06228
302.43422
301.8555
301.32118
300.82702
300.36935
299.94498
299.55112
299.18531
298.84537
298.52935
298.23554
297.96238
297.70847
297.47257
297.25354
297.05037
296.86214
296.68801
296.52724
296.37914
296.24311
296.11858
296.00506
295.90211
295.80931
328.0745
323.04958
319.50773
316.78202
314.57302
312.72151
311.13288
309.74638
308.52065
307.42624
306.4414
305.54958
304.73787
303.99597
303.31552
302.68964
302.11254
301.57935
301.0859
300.62857
300.20424
299.81015
299.44389
299.10331
298.78651
298.49177
298.21758
297.96257
297.72549
297.50525
297.30083
297.11132
296.93591
296.77385
296.62447
296.48716
296.36137
296.24661
296.14242
296.04842
328.12016
323.14117
319.63147
316.93018
314.7406
312.90492
311.32942
309.95389
308.73737
307.6507
306.67234
305.78591
304.97865
304.24038
303.56285
302.93925
302.3639
301.83198
301.33938
300.88255
300.4584
300.06423
299.69767
299.35659
299.03912
298.7436
298.46851
298.2125
297.97436
297.753
297.54742
297.35673
297.18011
297.01683
296.86623
296.7277
296.60069
296.48472
296.37934
296.28415
328.16451
323.23014
319.75168
317.07414
314.90346
313.08324
311.52057
310.15581
308.94836
307.86933
306.8974
306.01636
305.21358
304.479
303.80447
303.18326
302.60976
302.07922
301.5876
301.1314
300.70757
300.31346
299.94672
299.60528
299.28728
298.99108
298.7152
298.45831
298.21922
297.99683
297.79018
297.59838
297.42063
297.2562
297.10443
296.96473
296.83656
296.71941
296.61287
296.51651
328.20762
323.31661
319.86853
317.21411
315.06185
313.2567
311.70659
310.35238
309.15385
308.08238
307.11683
306.24117
305.44289
304.71204
304.04057
303.42183
302.85028
302.32125
301.83072
301.37527
300.95188
300.55795
300.19116
299.84946
299.53105
299.23429
298.95773
298.70006
298.4601
298.23679
298.02915
297.83632
297.6575
297.49198
297.3391
297.19828
297.06897
296.9507
296.84301
296.74552
328.24955
323.40071
319.98219
317.35028
315.21597
313.42555
311.88772
310.54386
309.3541
308.29008
307.33086
306.46055
305.66678
304.9397
304.27134
303.65515
303.08563
302.55819
302.06887
301.61426
301.19143
300.79779
300.43106
300.08923
299.7705
299.47329
299.19615
298.93779
298.69706
298.47289
298.26435
298.07056
297.89074
297.72419
297.57026
297.42836
297.29797
297.17859
297.0698
296.97119
328.29036
323.48257
320.09281
317.48283
315.36603
313.58998
312.06417
310.73046
309.54933
308.49265
307.53969
306.67471
305.88545
305.16216
304.49696
303.88337
303.31597
302.7902
302.30216
301.84851
301.42634
301.03308
300.66651
300.32465
300.00571
299.70814
299.43051
299.17156
298.93013
298.7052
298.49582
298.30113
298.12038
297.95286
297.79792
297.655
297.52355
297.40311
297.29323
297.19352
328.3301
323.56227
320.20054
317.61193
315.5122
313.7502
312.23614
310.91239
309.73973
308.6903
307.74354
306.88385
306.09909
305.37961
304.7176
304.10666
303.54143
303.01741
302.53075
302.07813
301.6567
301.26393
300.89762
300.5558
300.23675
299.93891
299.66088
299.40141
299.15937
298.93374
298.72359
298.52808
298.34645
298.17801
298.02212
297.8782
297.74574
297.62427
297.51333
297.41255
328.36881
323.63991
320.3055
317.73772
315.65467
313.90639
312.40383
311.08983
309.92551
308.88322
307.94259
307.08815
306.30787
305.5922
304.93341
304.32516
303.76216
303.23995
302.75473
302.30323
301.88262
301.49042
301.12445
300.78278
300.46369
300.16566
299.88731
299.6274
299.38482
299.15857
298.94771
298.75144
298.56899
298.39967
298.24287
298.09801
297.96457
297.84209
297.73013
297.6283
328.40655
323.7156
320.40781
317.86036
315.79358
314.05871
312.56742
311.26298
310.10685
309.07159
308.13701
307.28777
306.51196
305.8001
305.14455
304.53903
303.9783
303.45795
302.97424
302.52392
302.10421
301.71265
301.3471
301.00564
300.6866
300.38846
300.10986
299.84959
299.60654
299.37971
299.16822
298.97124
298.78801
298.61788
298.46021
298.31444
298.18006
298.0566
297.94363
297.84077
328.44335
323.7894
320.50759
317.97998
315.92908
314.20733
312.72705
311.432
310.28391
309.25558
308.32697
307.48289
306.71151
306.00347
305.35117
304.74839
304.18997
303.67153
303.18938
302.74031
302.32156
301.93071
301.56564
301.22448
300.90555
300.60737
300.32859
300.06801
299.82456
299.59723
299.38516
299.18751
299.00357
298.83266
298.67416
298.52752
298.39223
298.26783
298.15388
298.05
328.47926
323.8614
320.60494
318.09669
316.06132
314.35238
312.8829
311.59705
310.45686
309.43535
308.51264
307.67366
306.90669
306.20243
305.55339
304.95338
304.3973
303.88081
303.40026
302.95249
302.53476
302.14469
301.78017
301.43937
301.12062
300.82245
300.54356
300.28274
300.03893
299.81117
299.59856
299.40031
299.21569
299.04404
298.88476
298.73728
298.60112
298.47579
298.36089
298.25602
328.51431
323.93168
320.69995
318.21061
316.19041
314.49402
313.03511
311.75827
310.62584
309.61104
308.69415
307.86021
307.09762
306.39714
305.75135
305.15412
304.6004
304.0859
303.607
303.16057
302.74391
302.35467
301.99076
301.65037
301.33186
301.03378
300.75482
300.49382
300.24972
300.02156
299.80847
299.60966
299.42441
299.25207
299.09203
298.94376
298.80674
298.68052
298.56469
298.45885
328.54852
324.00029
320.79272
318.32186
316.31649
314.63236
313.1838
311.91581
310.791
309.7828
308.87165
308.0427
307.28444
306.58772
305.94517
305.35074
304.79939
304.28691
303.80969
303.36464
302.9491
302.56074
302.19749
301.85757
301.53935
301.2414
300.96244
300.70131
300.45697
300.22846
300.01493
299.81561
299.62977
299.45677
299.29602
299.14698
299.00914
298.88205
298.7653
298.65851
328.58195
324.0673
320.88333
318.43053
316.43966
314.76753
313.32911
312.06979
310.95246
309.95076
309.04526
308.22125
307.46728
306.7743
306.13498
305.54334
304.99439
304.48393
304.00843
303.5648
303.15042
302.76297
302.40044
302.06103
301.74315
301.44539
301.16647
300.90526
300.66072
300.43191
300.218
300.01819
299.83181
299.65819
299.49675
299.34697
299.20834
299.08041
298.96277
298.85504
328.6146
324.13278
320.97187
318.53671
316.56002
314.89965
313.47115
312.22033
311.11036
310.11505
309.21512
308.39598
307.64626
306.95698
306.32089
305.73203
305.18548
304.67708
304.20331
303.76114
303.34795
302.96146
302.59968
302.26082
301.94333
301.6458
301.36697
301.10572
300.86103
300.63197
300.4177
300.21746
300.03056
299.85635
299.69427
299.54377
299.40437
299.27562
299.15711
299.04847
328.64652
324.19677
321.0584
318.64049
316.67768
315.02881
313.61004
312.36757
311.26481
310.27578
309.38135
308.567
307.82149
307.13589
306.503
305.91693
305.37278
304.86645
304.39443
303.95373
303.54177
303.15628
302.79528
302.45702
302.13995
301.8427
301.564
301.30275
301.05795
300.82867
300.61408
300.41344
300.22606
300.0513
299.8886
299.73741
299.59727
299.46773
299.34837
299.23882
328.67773
324.25932
321.143
318.74197
316.79273
315.15512
313.74588
312.51159
311.41592
310.43308
309.54405
308.73444
307.99309
307.31113
306.68143
306.09813
305.55639
305.05213
304.58188
304.14268
303.73196
303.34749
302.98731
302.64969
302.33309
302.03614
301.75761
301.4964
301.25152
301.02206
300.8072
300.60619
300.41836
300.24308
300.07978
299.92794
299.78708
299.65676
299.53657
299.42614
328.70825
324.3205
321.22573
318.84121
316.90526
315.27867
313.87878
312.65251
311.56381
310.58703
309.70333
308.8984
308.16115
307.4828
306.85626
306.27573
305.73639
305.2342
304.76574
304.32805
303.91861
303.53519
303.17585
302.83889
302.52279
302.22618
301.94786
301.68673
301.4418
301.21219
300.99709
300.79574
300.60749
300.43172
300.26785
300.11538
299.97382
299.84274
299.72174
299.61045
328.7381
324.38034
321.30665
318.93829
317.01534
315.39956
314.00882
312.79042
311.70855
310.73775
309.85929
309.05897
308.32579
307.65101
307.0276
306.44981
305.91287
305.41276
304.94609
304.50993
304.10178
303.71943
303.36097
303.0247
302.70912
302.41289
302.1348
301.87378
301.62884
301.39912
301.18379
300.98215
300.7935
300.61726
300.45285
300.29977
300.15754
300.02572
299.90393
299.79179
328.76731
324.43889
321.38583
319.03328
317.12306
315.51786
314.1361
312.92543
311.85027
310.88534
310.01204
309.21626
308.48708
307.81583
307.19554
306.62048
306.08593
305.5879
305.12302
304.6884
304.28155
303.90029
303.54273
303.20717
302.89215
302.59631
302.31849
302.0576
301.81269
301.58287
301.36736
301.16544
300.97643
300.79974
300.63481
300.48114
300.33826
300.20573
300.08317
299.97019
328.7959
324.49618
321.46332
319.12625
317.2285
315.63366
314.26069
313.0576
311.98903
311.02988
310.16165
309.37035
308.64513
307.97737
307.36016
306.78781
306.25563
305.75968
305.29659
304.86352
304.45799
304.07784
303.72119
303.38637
303.07192
302.77652
302.49898
302.23826
301.99339
301.76351
301.54784
301.34566
301.15631
300.9792
300.81378
300.65955
300.51603
300.38281
300.25948
300.14569
328.82388
324.55227
321.53917
319.21725
317.33172
315.74703
314.38269
313.18703
312.12494
311.17145
310.30822
309.52134
308.80002
308.13571
307.52155
306.95189
306.42207
305.92818
305.4669
305.03538
304.63117
304.25214
303.89642
303.56236
303.24851
302.95355
302.67633
302.41579
302.17099
301.94108
301.72527
301.52286
301.3332
301.15569
300.98979
300.83501
300.69088
300.55698
300.43291
300.31832
328.85128
324.60717
321.61343
319.30635
317.43278
315.85805
314.50217
313.3138
312.25806
311.31015
310.45184
309.6693
308.95183
308.29093
307.67979
307.11279
306.58532
306.09349
305.634
305.20403
304.80116
304.42326
304.06849
303.7352
303.42196
303.12747
302.85058
302.59025
302.34555
302.11562
301.8997
301.69708
301.50712
301.32924
301.16289
301.00758
300.86285
300.72829
300.6035
300.48811
328.87811
324.66094
321.68615
319.39361
317.53176
315.96678
314.61919
313.43799
312.38848
311.44605
310.59257
309.81432
309.10064
308.44311
307.83495
307.2706
306.74546
306.25567
305.79797
305.36956
304.96802
304.59126
304.23744
303.90495
303.59233
303.29833
303.02179
302.76169
302.5171
302.28718
302.07116
301.86836
301.67813
301.49988
301.3331
301.17728
301.03198
300.89677
300.77127
300.65512
328.90439
324.7136
321.75737
319.47907
317.6287
316.07329
314.73384
313.55965
312.51628
311.57923
310.73051
309.95647
309.24653
308.59233
307.98712
307.42538
306.90255
306.4148
305.95888
305.53202
305.13183
304.75621
304.40336
304.07166
303.75969
303.46619
303.19002
302.93017
302.68571
302.45581
302.23972
302.03674
301.84625
301.66768
301.50048
301.34417
301.1983
301.06246
300.93627
300.81936
328.93013
324.76519
321.82714
319.56279
317.72368
316.17764
314.84617
313.67887
312.64151
311.70976
310.86571
310.09582
309.38958
308.73865
308.13635
307.5772
307.05667
306.57094
306.11679
305.69148
305.29263
304.91816
304.56628
304.23538
303.92407
303.63109
303.3553
303.09571
302.8514
302.62155
302.4054
302.20227
302.01155
301.83265
301.66505
301.50826
301.36185
301.2254
301.09853
300.98087
328.95536
324.81573
321.89549
319.64482
317.81674
316.27989
314.95624
313.79571
312.76426
311.8377
310.99826
310.23245
309.52984
308.88215
308.28273
307.72614
307.20787
306.72415
306.27177
305.848
305.45049
305.07717
304.72627
304.39619
304.08554
303.79309
303.5177
303.25839
303.01424
302.78444
302.56825
302.365
302.17405
301.99484
301.82686
301.66962
301.52268
301.38562
301.25808
301.1397
328.98007
324.86525
321.96247
319.7252
317.90793
316.3801
315.06413
313.91023
312.88458
311.96313
311.12821
310.36643
309.66739
309.0229
308.42632
307.87226
307.35624
306.87451
306.42388
306.00165
305.60547
305.2333
304.88338
304.55412
304.24415
303.95223
303.67726
303.41823
303.17426
302.94454
302.72833
302.52495
302.33379
302.1543
301.98595
301.82826
301.6808
301.54317
301.41498
301.29588
329.0043
324.91378
322.02812
319.80397
317.99731
316.47832
315.16987
314.02249
313.00254
312.08611
311.25564
310.49781
309.8023
309.16095
308.56718
308.01562
307.50182
307.02206
306.57318
306.15247
305.75762
305.38661
305.03767
304.70924
304.39995
304.10858
303.83402
303.5753
303.33152
303.10188
302.88565
302.68217
302.49083
302.31106
302.14235
301.98424
301.83628
301.69807
301.56924
301.44945
329.02804
324.96135
322.09246
319.88119
318.08492
316.57459
315.27354
314.13255
313.11819
312.2067
311.3806
310.62666
309.93463
309.29638
308.70537
308.15629
307.64469
307.16688
306.71972
306.30053
305.90701
305.53715
305.18919
304.86159
304.55299
304.26217
303.98804
303.72963
303.48605
303.25651
303.04029
302.83671
302.64519
302.46516
302.29611
302.13758
301.98914
301.85037
301.72092
301.60043
329.05132
325.00798
322.15553
319.95688
318.17081
316.66898
315.37518
314.24047
313.2316
312.32495
311.50315
310.75305
310.06443
309.42923
308.84096
308.29431
307.78489
307.30901
306.86357
306.44589
306.05369
305.68497
305.33799
305.01122
304.70331
304.41305
304.13936
303.88127
303.6379
303.40847
303.19226
302.98861
302.79692
302.61664
302.44726
302.28833
302.13941
302.0001
301.87004
301.74888
329.07414
325.05369
322.21736
320.03109
318.25502
316.76153
315.47484
314.34629
313.34281
312.44093
311.62336
310.87702
310.19176
309.55958
308.974
308.42976
307.92249
307.44853
307.00477
306.58859
306.1977
305.83012
305.48413
305.15819
304.85098
304.56128
304.28803
304.03027
303.78712
303.55781
303.34162
303.1379
302.94605
302.76554
302.59585
302.43653
302.28715
302.14731
302.01665
301.89482
329.09652
325.09852
322.27799
320.10386
318.33759
316.85228
315.57257
314.45006
313.45189
312.55468
311.74127
310.99863
310.31669
309.68747
309.10455
308.56269
308.05754
307.58547
307.14339
306.7287
306.33911
305.97266
305.62765
305.30254
304.99602
304.70689
304.43409
304.17666
303.93375
303.70456
303.48841
303.28463
303.09264
302.9119
302.74191
302.58221
302.43238
302.29202
302.16077
302.03829
329.11847
325.14247
322.33744
320.17521
318.41856
316.94128
315.66842
314.55185
313.55887
312.66626
311.85693
311.11794
310.43926
309.81297
309.23266
308.69315
308.19009
307.71989
307.27948
306.86625
306.47795
306.11264
305.7686
305.44433
305.1385
304.84994
304.57759
304.32051
304.07782
303.84878
303.63266
303.42883
303.23671
303.05576
302.88547
302.72541
302.57514
302.43427
302.30245
302.17933
329.13999
325.18558
322.39574
320.24519
318.49797
317.02857
315.76243
314.65168
313.66382
312.77572
311.97041
311.235
310.55953
309.93611
309.35839
308.82118
308.3202
307.85185
307.41308
307.00131
306.61429
306.2501
305.90703
305.58358
305.27846
304.99047
304.71858
304.46183
304.21939
303.99049
303.77442
303.57056
303.37831
303.19715
303.02659
302.86616
302.71547
302.5741
302.44172
302.31797
329.1611
325.22786
322.45293
320.31382
318.57586
317.11419
315.85464
314.74962
313.76677
312.88311
312.08174
311.34986
310.67755
310.05696
309.48178
308.94686
308.44791
307.98139
307.54425
307.13392
306.74817
306.38509
306.04298
305.72037
305.41593
305.12852
304.85708
304.60069
304.3585
304.12974
303.91373
303.70984
303.51748
303.33612
303.16528
303.00452
302.8534
302.71155
302.57862
302.45426
329.1818
325.26933
322.50902
320.38115
318.65226
317.19817
315.9451
314.8457
313.86777
312.98847
312.19098
311.46257
310.79336
310.17556
309.60289
309.07021
308.57328
308.10856
307.67303
307.26412
306.87964
306.51766