/*--------------------------------*- C++ -*----------------------------------*\
| =========                 |                                                 |
| \\      /  F ield         | OpenFOAM: The Open Source CFD Toolbox           |
|  \\    /   O peration     | Version:  2506                                  |
|   \\  /    A nd           | Website:  www.openfoam.com                      |
|    \\/     M anipulation  |                                                 |
\*---------------------------------------------------------------------------*/
FoamFile
{
    version     2.0;
    format      ascii;
    arch        "LSB;label=32;scalar=64";
    class       volScalarField;
    location    "18000/water";
    object      alphat;
}
// * * * * * * * * * * * * * * * * * * * * * * * * * * * * * * * * * * * * * //

dimensions      [1 -1 -1 0 0 0 0];

internalField   nonuniform List<scalar> 
1000
(
0.038690245
0.038689577
0.038688046
0.038679676
0.038634252
0.038395956
0.037190881
0.031863289
0.019099264
0.016301307
0.036437656
0.036436968
0.036430539
0.036397696
0.036243742
0.035561449
0.032798675
0.024476364
0.01464426
0.017654592
0.034756095
0.034752687
0.034735392
0.034658264
0.034338316
0.033096043
0.028914321
0.020078512
0.014287382
0.017671293
0.033455039
0.033447371
0.03341324
0.033276591
0.032760734
0.030940116
0.025769936
0.018272058
0.015952045
0.01730153
0.032418332
0.032405139
0.032350678
0.032150526
0.031437436
0.029070405
0.02355622
0.018635963
0.018861613
0.016925715
0.031571667
0.031552637
0.031479594
0.031226156
0.030328097
0.027485227
0.022555075
0.020803681
0.022278868
0.016666255
0.030866455
0.030843487
0.03076149
0.030477919
0.029402004
0.026292059
0.023061717
0.024243818
0.025541344
0.016525212
0.03027085
0.030249445
0.030178146
0.029894448
0.028644202
0.025787265
0.02513836
0.028280493
0.028305
0.016463212
0.029764733
0.029755538
0.029725665
0.029468624
0.028107066
0.026357129
0.02850839
0.03233457
0.030519243
0.016442692
0.029337064
0.029357535
0.029409788
0.029196787
0.027981118
0.02823743
0.032681314
0.036080715
0.03226761
0.016440711
0.028984755
0.029060651
0.029241391
0.029099716
0.02858366
0.031375142
0.037164758
0.039413686
0.033659213
0.016446406
0.028712551
0.028878723
0.029233235
0.029270559
0.03021547
0.035478649
0.041608755
0.042341632
0.034787793
0.016455611
0.028533645
0.028833112
0.029403496
0.029913167
0.03300292
0.040161486
0.045828111
0.044910571
0.035723403
0.016467073
0.028470738
0.028950994
0.029795771
0.031303992
0.036852293
0.045075511
0.049751549
0.047172278
0.036515364
0.016480525
0.028557129
0.029264088
0.030516192
0.033676011
0.041512126
0.049977103
0.053365716
0.049173974
0.037197773
0.01649591
0.028837283
0.029812384
0.031757605
0.037114218
0.046676418
0.05472608
0.056681755
0.050955475
0.037793707
0.016513133
0.029366635
0.03066063
0.033764607
0.041531255
0.052071128
0.059252907
0.059719592
0.052547813
0.038312939
0.016531935
0.030212279
0.031928126
0.036741818
0.04671464
0.057495309
0.06352726
0.062500703
0.053971538
0.038771745
0.016552023
0.03146035
0.033808009
0.040769064
0.052403213
0.062820396
0.067538746
0.065043793
0.055249915
0.039180777
0.016573202
0.033237083
0.036537458
0.045775276
0.058353598
0.06796976
0.071286893
0.067367457
0.05640239
0.039547826
0.016595307
0.035734938
0.040316351
0.051570883
0.064374712
0.072897451
0.074772547
0.069492173
0.057443773
0.039878864
0.016618161
0.039205922
0.045224896
0.057909365
0.07033035
0.07757141
0.078005622
0.07143479
0.058385936
0.040178211
0.016641573
0.043888212
0.051190172
0.064545368
0.076123512
0.081973394
0.080996971
0.07320886
0.059238123
0.040448949
0.016665346
0.049892373
0.058009379
0.071267633
0.081682694
0.086094425
0.083754949
0.074824887
0.060007219
0.040693181
0.016689274
0.057120414
0.06540435
0.077905681
0.086957397
0.089927705
0.086285003
0.076290243
0.060697972
0.040912184
0.016713149
0.065268154
0.073076738
0.084332747
0.091910011
0.093464868
0.08858921
0.077609211
0.061313161
0.041106506
0.01673675
0.073906723
0.080754327
0.09045419
0.096507376
0.096695686
0.090666405
0.078783244
0.061853823
0.041276056
0.01675984
0.082592753
0.08820741
0.096193735
0.10072063
0.099609025
0.092513049
0.079811592
0.062319623
0.041420261
0.016782156
0.090953782
0.095254264
0.10149045
0.10452642
0.10219479
0.094124803
0.080692366
0.062709462
0.041538295
0.016803419
0.098726118
0.1017619
0.10629883
0.10790876
0.10444628
0.095498527
0.081423913
0.06302226
0.041629403
0.016823343
0.10575356
0.10764401
0.11058974
0.11086064
0.10636233
0.096634212
0.082006234
0.063257789
0.041693236
0.016841654
0.11196626
0.11285617
0.11435085
0.11338489
0.10794857
0.097536384
0.082442115
0.06341738
0.041730131
0.016858117
0.1173553
0.1173888
0.11758576
0.11549395
0.10921777
0.098214736
0.082737763
0.063504336
0.041741287
0.016872556
0.1219508
0.12125901
0.12031201
0.11720883
0.11018922
0.098683952
0.082902866
0.063524036
0.041728787
0.016884865
0.12580577
0.12450281
0.12255824
0.11855741
0.11088748
0.098962938
0.082950176
0.063483706
0.041695494
0.016895021
0.12898519
0.12716828
0.12436117
0.11957252
0.11134086
0.099073672
0.08289475
0.063391983
0.041644847
0.016903077
0.13155898
0.12931023
0.12576263
0.12029002
0.11157985
0.099039923
0.082753021
0.063258338
0.041580601
0.01690915
0.1335975
0.13098619
0.12680699
0.12074703
0.11163559
0.098886007
0.082541859
0.06309248
0.041506566
0.016913413
0.13516883
0.13225352
0.12753907
0.12098046
0.11153868
0.098635708
0.082277723
0.062903811
0.041426368
0.016916068
0.13633711
0.13316742
0.12800252
0.12102584
0.11131818
0.098311429
0.08197599
0.062700995
0.041343271
0.01691734
0.13716155
0.13377971
0.1282387
0.12091652
0.11100096
0.09793361
0.08165049
0.062491671
0.041260067
0.016917452
0.13769604
0.13413808
0.12828597
0.12068311
0.11061129
0.097520393
0.081313252
0.062282303
0.041179024
0.016916622
0.13798901
0.13428577
0.12817926
0.12035324
0.11017066
0.097087496
0.080974427
0.062078153
0.041101899
0.016915053
0.13808363
0.13426154
0.12795002
0.11995151
0.10969779
0.096648236
0.08064232
0.061883332
0.041029963
0.016912926
0.13801807
0.13409983
0.12762617
0.11949947
0.10920868
0.096213591
0.08032341
0.061700622
0.040962983
0.016910389
0.1378258
0.1338309
0.12723223
0.11901577
0.10871674
0.095792298
0.080022357
0.061531124
0.040902122
0.01690757
0.13753597
0.13348115
0.12678948
0.11851622
0.10823285
0.095390885
0.079741765
0.061376965
0.040847866
0.016904595
0.13717373
0.13307331
0.12631606
0.11801392
0.10776544
0.095013545
0.079484784
0.061238964
0.040800386
0.01690157
0.13676051
0.13262671
0.12582714
0.11751929
0.1073204
0.094664544
0.079252844
0.06111732
0.04075959
0.016898579
0.13631432
0.13215743
0.12533492
0.11704021
0.10690339
0.09434622
0.079046422
0.061011751
0.040725185
0.016895684
0.13584996
0.13167853
0.12484939
0.11658392
0.10651799
0.094059704
0.078865283
0.060921614
0.040696755
0.016892934
0.13537964
0.13120109
0.12437921
0.11615563
0.10616646
0.093805228
0.07870867
0.060846021
0.04067381
0.01689036
0.13491369
0.13073436
0.12393109
0.11575902
0.10584994
0.09358232
0.078575447
0.060783934
0.040655831
0.016887985
0.13446054
0.13028574
0.12351014
0.11539653
0.1055687
0.093389963
0.078464201
0.060734221
0.040642293
0.016885823
0.13402694
0.12986099
0.12312001
0.11506946
0.10532225
0.093226686
0.07837331
0.060695688
0.040632668
0.016883882
0.13361807
0.12946437
0.1227631
0.11477819
0.10510943
0.093090654
0.07830099
0.060667106
0.040626438
0.016882163
0.13323769
0.12909881
0.12244071
0.11452226
0.10492859
0.092979753
0.078245355
0.060647237
0.040623098
0.016880659
0.13288833
0.12876611
0.12215316
0.11430054
0.10477765
0.09289169
0.078204487
0.060634868
0.04062217
0.016879363
0.1325714
0.12846705
0.12190002
0.11411136
0.10465428
0.092824099
0.078176503
0.060628856
0.040623214
0.016878262
0.13228744
0.12820159
0.12168023
0.11395274
0.10455602
0.092774641
0.078159613
0.060628147
0.04062584
0.016877342
0.13203625
0.1279691
0.12149228
0.11382242
0.10448037
0.092741062
0.078152158
0.060631794
0.040629708
0.016876588
0.13181708
0.12776841
0.12133434
0.11371804
0.10442486
0.092721228
0.078152617
0.060638953
0.040634523
0.016875988
0.13162872
0.12759799
0.12120435
0.11363718
0.10438708
0.092713126
0.078159592
0.060648868
0.040640027
0.016875525
0.1314696
0.12745601
0.12110006
0.11357735
0.10436469
0.092714857
0.078171797
0.060660856
0.04064599
0.016875185
0.13133783
0.12734037
0.12101907
0.11353606
0.10435541
0.092724634
0.078188047
0.060674301
0.040652208
0.016874954
0.13123129
0.12724879
0.12095891
0.11351085
0.10435706
0.092740793
0.078207261
0.060688651
0.0406585
0.016874816
0.13114768
0.12717886
0.12091708
0.11349932
0.10436763
0.092761818
0.078228482
0.060703427
0.040664716
0.016874757
0.13108461
0.12712813
0.12089113
0.11349922
0.10438525
0.092786369
0.078250888
0.060718236
0.040670735
0.016874764
0.1310397
0.12709419
0.12087874
0.11350849
0.10440828
0.092813301
0.078273801
0.060732765
0.04067647
0.016874824
0.13101062
0.12707476
0.12087773
0.11352528
0.1044353
0.092841654
0.078296683
0.060746783
0.040681862
0.016874926
0.13099521
0.12706769
0.12088616
0.11354794
0.10446508
0.09287064
0.078319106
0.06076012
0.040686874
0.016875062
0.13099142
0.12707099
0.12090223
0.11357503
0.10449659
0.092899599
0.078340728
0.060772637
0.040691436
0.016875223
0.13099734
0.12708283
0.12092432
0.11360526
0.10452891
0.092927968
0.078361254
0.060784185
0.040695527
0.016875401
0.1310112
0.1271015
0.12095094
0.11363746
0.10456124
0.092955258
0.078380412
0.060794691
0.040699164
0.016875589
0.13103134
0.12712544
0.12098075
0.11367061
0.10459287
0.09298104
0.078398017
0.060804131
0.040702358
0.016875782
0.13105623
0.12715319
0.12101252
0.1137038
0.10462321
0.093004993
0.078413985
0.060812492
0.040705122
0.016875975
0.13108447
0.12718347
0.1210452
0.11373627
0.10465179
0.093026948
0.07842826
0.060819786
0.040707476
0.016876163
0.13111485
0.12721515
0.12107788
0.11376743
0.10467836
0.093046803
0.078440849
0.060826055
0.040709445
0.016876344
0.1311463
0.12724727
0.12110988
0.11379688
0.10470272
0.093064536
0.078451806
0.060831363
0.040711063
0.016876515
0.13117797
0.12727911
0.12114068
0.11382437
0.10472482
0.093080192
0.078461224
0.06083579
0.040712367
0.016876674
0.13120922
0.12731009
0.12116991
0.11384972
0.10474463
0.093093856
0.07846921
0.06083942
0.040713393
0.016876822
0.13123951
0.1273398
0.1211973
0.11387284
0.1047622
0.093105633
0.078475878
0.060842334
0.040714176
0.016876957
0.13126846
0.12736789
0.12122266
0.11389367
0.10477759
0.09311563
0.078481336
0.060844605
0.040714745
0.016877079
0.13129573
0.12739409
0.12124583
0.11391221
0.10479087
0.093123959
0.078485684
0.060846297
0.040715124
0.016877189
0.13132107
0.12741821
0.12126673
0.11392846
0.10480213
0.09313073
0.078489017
0.060847471
0.040715336
0.016877285
0.13134429
0.1274401
0.12128531
0.11394249
0.10481147
0.093136067
0.078491437
0.060848187
0.040715402
0.016877369
0.13136525
0.12745969
0.12130157
0.11395438
0.10481905
0.093140107
0.07849305
0.060848509
0.040715346
0.01687744
0.13138392
0.12747696
0.1213156
0.11396426
0.104825
0.093142999
0.07849397
0.060848501
0.040715191
0.016877499
0.13140029
0.12749196
0.12132749
0.1139723
0.10482952
0.093144902
0.078494312
0.06084823
0.040714961
0.016877547
0.13141444
0.1275048
0.1213374
0.11397867
0.10483278
0.093145969
0.078494185
0.060847757
0.040714677
0.016877585
0.1314265
0.12751561
0.12134549
0.11398357
0.10483496
0.09314634
0.078493684
0.060847132
0.040714358
0.016877615
0.13143658
0.12752455
0.12135194
0.11398716
0.10483622
0.093146139
0.078492891
0.060846398
0.040714016
0.016877637
0.13144485
0.12753175
0.1213569
0.11398961
0.10483669
0.093145469
0.07849187
0.060845587
0.040713662
0.016877653
0.13145143
0.12753739
0.12136053
0.11399105
0.10483649
0.09314442
0.078490678
0.060844724
0.040713303
0.016877663
0.13145649
0.12754159
0.12136298
0.11399162
0.10483573
0.09314307
0.078489361
0.060843833
0.040712946
0.016877667
0.13146016
0.12754452
0.12136438
0.11399146
0.10483453
0.093141493
0.078487964
0.060842934
0.040712596
0.016877667
0.13146258
0.12754631
0.12136489
0.11399069
0.10483297
0.09313976
0.078486529
0.060842046
0.040712259
0.016877664
0.13146392
0.12754712
0.12136464
0.11398942
0.10483116
0.093137933
0.078485092
0.060841185
0.04071194
0.016877657
0.13146432
0.12754709
0.12136377
0.11398778
0.10482917
0.09313607
0.078483686
0.060840368
0.040711643
0.016877648
0.13146394
0.12754638
0.1213624
0.11398586
0.10482708
0.093134213
0.078482332
0.060839599
0.040711367
0.016877638
)
;

boundaryField
{
    water_inlet
    {
        type            calculated;
        value           uniform 0.041850807;
    }
    water_outlet
    {
        type            calculated;
        value           nonuniform List<scalar> 10(0.13146394 0.12754638 0.1213624 0.11398586 0.10482708 0.093134213 0.078482332 0.060839599 0.040711367 0.016877638);
    }
    water_wedge1
    {
        type            wedge;
    }
    water_wedge2
    {
        type            wedge;
    }
    water_to_rock
    {
        type            compressible::alphatWallFunction;
        value           nonuniform List<scalar> 
100
(
0.0020384971
0.0022594581
0.0022621707
0.0022020356
0.0021407408
0.0020983177
0.0020752199
0.0020650583
0.0020616934
0.0020613681
0.0020623021
0.0020638117
0.0020656909
0.0020678959
0.0020704177
0.0020732402
0.0020763211
0.0020796123
0.0020830817
0.0020867022
0.0020904447
0.002094278
0.0020981691
0.002102085
0.0021059916
0.0021098528
0.0021136297
0.0021172794
0.0021207561
0.0021240133
0.0021270063
0.0021296969
0.0021320562
0.0021340674
0.0021357266
0.0021370425
0.0021380348
0.0021387313
0.0021391654
0.0021393734
0.0021393918
0.002139256
0.0021389993
0.0021386515
0.002138237
0.0021377767
0.0021372911
0.0021367972
0.0021363086
0.0021358356
0.0021353859
0.0021349651
0.002134577
0.002134224
0.0021339071
0.0021336263
0.0021333806
0.0021331687
0.0021329885
0.0021328379
0.0021327148
0.0021326167
0.0021325413
0.002132486
0.0021324483
0.0021324257
0.0021324159
0.0021324168
0.0021324265
0.0021324432
0.0021324656
0.0021324921
0.0021325214
0.0021325523
0.0021325838
0.0021326152
0.0021326458
0.0021326752
0.0021327031
0.0021327293
0.0021327535
0.0021327758
0.0021327959
0.0021328138
0.0021328295
0.0021328431
0.0021328545
0.0021328641
0.0021328719
0.0021328782
0.002132883
0.0021328866
0.0021328891
0.0021328906
0.0021328913
0.0021328912
0.0021328905
0.0021328893
0.0021328878
0.0021328861
)
;
    }
}


// ************************************************************************* //
