/*--------------------------------*- C++ -*----------------------------------*\
| =========                 |                                                 |
| \\      /  F ield         | OpenFOAM: The Open Source CFD Toolbox           |
|  \\    /   O peration     | Version:  2506                                  |
|   \\  /    A nd           | Website:  www.openfoam.com                      |
|    \\/     M anipulation  |                                                 |
\*---------------------------------------------------------------------------*/
FoamFile
{
    version     2.0;
    format      ascii;
    arch        "LSB;label=32;scalar=64";
    class       volScalarField;
    location    "18000/water";
    object      epsilon;
}
// * * * * * * * * * * * * * * * * * * * * * * * * * * * * * * * * * * * * * //

dimensions      [0 2 -3 0 0 0 0];

internalField   nonuniform List<scalar> 
1000
(
7.2399316e-05
7.2397808e-05
7.2397502e-05
7.2398682e-05
7.2424146e-05
7.2686938e-05
7.4736184e-05
8.8973295e-05
0.00019794853
0.0013048048
4.7739543e-05
4.7745807e-05
4.7746167e-05
4.7748745e-05
4.7810065e-05
4.8371228e-05
5.2145895e-05
7.5319311e-05
0.00023607335
0.0016574915
3.3261229e-05
3.326441e-05
3.3263962e-05
3.3272039e-05
3.3396639e-05
3.4348945e-05
3.9973168e-05
7.150223e-05
0.00026550032
0.0016622
2.4212884e-05
2.4213778e-05
2.421353e-05
2.4236018e-05
2.4468828e-05
2.5979967e-05
3.408672e-05
7.6375403e-05
0.00030233644
0.0015600259
1.8263229e-05
1.8263302e-05
1.8265922e-05
1.8318446e-05
1.8730721e-05
2.1090709e-05
3.2935525e-05
9.0422891e-05
0.00035053486
0.0014605594
1.4183053e-05
1.4183388e-05
1.4193787e-05
1.4301413e-05
1.5003315e-05
1.8678131e-05
3.6167833e-05
0.00011337657
0.00040230375
0.0013944155
1.1285033e-05
1.1287109e-05
1.1313191e-05
1.1514087e-05
1.2672051e-05
1.8360637e-05
4.3854085e-05
0.00014255056
0.00044702328
0.0013593133
9.1651308e-06
9.1712238e-06
9.2251473e-06
9.5765185e-06
1.1437678e-05
2.0107236e-05
5.582831e-05
0.00017322887
0.00047957588
0.0013440712
7.5754963e-06
7.5890768e-06
7.6892456e-06
8.2761063e-06
1.1198229e-05
2.4041268e-05
7.1187041e-05
0.00020099036
0.00050080723
0.0013390507
6.3585386e-06
6.3848727e-06
6.5589461e-06
7.5064258e-06
1.1984538e-05
3.0236116e-05
8.8277285e-05
0.00022355885
0.00051392989
0.001338566
5.4111025e-06
5.4581716e-06
5.7474943e-06
7.2369326e-06
1.3906679e-05
3.8515408e-05
0.00010524299
0.00024078272
0.00052197863
0.0013399578
4.6642397e-06
4.7441301e-06
5.2100529e-06
7.4969471e-06
1.7087001e-05
4.8355526e-05
0.00012068228
0.00025359526
0.00052708044
0.0013422096
4.0714678e-06
4.2024401e-06
4.9349811e-06
8.3622657e-06
2.1575462e-05
5.8975495e-05
0.00013393058
0.00026313412
0.00053055276
0.0013450164
3.6019036e-06
3.8114132e-06
4.9402454e-06
9.9351214e-06
2.7272237e-05
6.9567115e-05
0.00014492633
0.00027035441
0.00053316292
0.0013483152
3.2363932e-06
3.5653608e-06
5.2715553e-06
1.2311468e-05
3.3901734e-05
7.9510759e-05
0.00015392454
0.0002759564
0.00053534099
0.0013520947
2.9656642e-06
3.4742244e-06
5.9984147e-06
1.5537521e-05
4.1062777e-05
8.8461036e-05
0.00016127364
0.00028042543
0.00053731674
0.001356334
2.7900129e-06
3.5645536e-06
7.2040724e-06
1.9569983e-05
4.8330081e-05
9.6307025e-05
0.00016730375
0.00028408909
0.00053917753
0.0013609721
2.7202644e-06
3.8804138e-06
8.9663849e-06
2.4261424e-05
5.5350001e-05
0.00010308376
0.00017229224
0.00028715775
0.00054093671
0.0013659394
2.7797362e-06
4.4819558e-06
1.1330784e-05
2.9383032e-05
6.1887454e-05
0.00010889369
0.00017645192
0.00028975376
0.00054267236
0.0013711895
3.0065628e-06
5.4386849e-06
1.4283587e-05
3.4675032e-05
6.7820846e-05
0.0001138566
0.00017993853
0.00029198036
0.00054443443
0.0013766835
3.4547869e-06
6.8148451e-06
1.7738616e-05
3.989974e-05
7.3111875e-05
0.00011808675
0.00018285395
0.00029394167
0.00054623677
0.0013823794
4.1911505e-06
8.6476e-06
2.1546243e-05
4.4874748e-05
7.7769203e-05
0.00012165885
0.00018531797
0.0002956976
0.00054807418
0.0013882304
5.2835921e-06
1.0924862e-05
2.5521744e-05
4.9478056e-05
8.180369e-05
0.00012466943
0.00018741285
0.00029728405
0.00054993277
0.0013941878
6.7799224e-06
1.3574411e-05
2.948025e-05
5.3622553e-05
8.5253106e-05
0.00012719928
0.00018919514
0.00029872094
0.00055179382
0.0014002014
8.6832244e-06
1.6474039e-05
3.3249972e-05
5.7259499e-05
8.8167011e-05
0.00012930765
0.00019070219
0.00030001663
0.00055363493
0.0014062191
1.0937796e-05
1.9464192e-05
3.6694091e-05
6.0377146e-05
9.0586569e-05
0.00013103647
0.00019195667
0.00030117053
0.00055543025
0.0014121851
1.342324e-05
2.2384296e-05
3.9726945e-05
6.2977847e-05
9.254475e-05
0.00013241418
0.00019297019
0.0003021752
0.00055715072
0.0014180382
1.5988093e-05
2.5103489e-05
4.2303153e-05
6.5074411e-05
9.4068678e-05
0.00013345987
0.00019374683
0.00030301865
0.00055876505
0.0014237105
1.8484531e-05
2.7531395e-05
4.4410718e-05
6.6689279e-05
9.51832e-05
0.00013418767
0.00019428682
0.00030368705
0.0005602415
0.001429129
2.0793672e-05
2.9617761e-05
4.6063572e-05
6.7854335e-05
9.5914521e-05
0.00013461103
0.00019459043
0.00030416792
0.00056155059
0.0014342184
2.2836491e-05
3.134573e-05
4.7294065e-05
6.8609998e-05
9.6292889e-05
0.00013474638
0.00019466139
0.00030445327
0.00056266805
0.0014389066
2.4572762e-05
3.272305e-05
4.8146005e-05
6.9003262e-05
9.6353759e-05
0.0001346155
0.00019450956
0.00030454219
0.00056357767
0.0014431303
2.5993484e-05
3.3773741e-05
4.8668825e-05
6.9085016e-05
9.6137444e-05
0.00013424628
0.00019415216
0.00030444225
0.00056427313
0.0014468411
2.7111471e-05
3.4531276e-05
4.8913184e-05
6.8907226e-05
9.5687643e-05
0.0001336722
0.00019361363
0.00030416962
0.00056475862
0.0014500098
2.7952854e-05
3.5033493e-05
4.8927983e-05
6.8520469e-05
9.504942e-05
0.00013293069
0.00019292429
0.00030374785
0.00056504796
0.0014526275
2.8550514e-05
3.5319056e-05
4.8758536e-05
6.7972064e-05
9.4267118e-05
0.000132061
0.00019211816
0.00030320571
0.00056516265
0.0014547061
2.8939542e-05
3.5425175e-05
4.8445615e-05
6.7304855e-05
9.3382569e-05
0.00013110201
0.00019123056
0.00030257457
0.0005651292
0.0014562749
2.9154343e-05
3.5386247e-05
4.8025068e-05
6.6556556e-05
9.2433755e-05
0.00013009036
0.00019029585
0.00030188594
0.00056497638
0.001457377
2.9226968e-05
3.5233159e-05
4.7527828e-05
6.5759545e-05
9.1453976e-05
0.00012905898
0.00018934553
0.00030116925
0.00056473274
0.0014580643
2.9186271e-05
3.4993028e-05
4.6980132e-05
6.4940975e-05
9.0471457e-05
0.00012803623
0.00018840702
0.00030045047
0.00056442485
0.0014583937
2.9057593e-05
3.4689226e-05
4.6403879e-05
6.4123084e-05
8.9509328e-05
0.00012704548
0.00018750296
0.00029975115
0.00056407616
0.0014584228
2.8862773e-05
3.4341574e-05
4.5817042e-05
6.3323631e-05
8.8585863e-05
0.00012610508
0.00018665098
0.00029908819
0.00056370647
0.0014582078
2.8620334e-05
3.396663e-05
4.523411e-05
6.2556391e-05
8.7714875e-05
0.00012522864
0.00018586393
0.00029847395
0.00056333179
0.0014578012
2.8345769e-05
3.3578015e-05
4.4666512e-05
6.1831654e-05
8.690622e-05
0.00012442546
0.00018515022
0.00029791652
0.00056296438
0.0014572506
2.8051863e-05
3.3186759e-05
4.4123026e-05
6.1156713e-05
8.6166304e-05
0.00012370107
0.00018451434
0.0002974201
0.00056260873
0.0014565947
2.7749016e-05
3.2801621e-05
4.3610157e-05
6.0536329e-05
8.5498658e-05
0.00012305787
0.00018395771
0.00029698481
0.00056226302
0.0014558668
2.7445558e-05
3.2429409e-05
4.3132491e-05
5.9973176e-05
8.4904479e-05
0.00012249578
0.00018347855
0.00029660449
0.00056194009
0.0014550992
2.7148045e-05
3.2075269e-05
4.2693013e-05
5.9468231e-05
8.4383066e-05
0.00012201233
0.00018307009
0.0002962804
0.00056164646
0.0014543189
2.6861524e-05
3.1742942e-05
4.22934e-05
5.9021126e-05
8.3932091e-05
0.00012160127
0.00018272948
0.00029601118
0.00056138483
0.0014535471
2.6589783e-05
3.1435032e-05
4.193433e-05
5.8630268e-05
8.3546432e-05
0.00012125853
0.00018245262
0.00029579357
0.00056115568
0.0014528
2.6335587e-05
3.1153218e-05
4.1615286e-05
5.8292259e-05
8.3222215e-05
0.00012097931
0.00018223435
0.00029562328
0.00056095824
0.0014520899
2.6100736e-05
3.0898059e-05
4.1334767e-05
5.8004125e-05
8.2955015e-05
0.00012075815
0.0001820689
0.00029549547
0.00056079097
0.0014514257
2.5886125e-05
3.0669446e-05
4.1091097e-05
5.7762534e-05
8.2740047e-05
0.00012058929
0.00018195029
0.00029540513
0.00056065183
0.0014508134
2.5692111e-05
3.0466858e-05
4.0882287e-05
5.7563885e-05
8.2572313e-05
0.00012046683
0.00018187252
0.00029534721
0.00056053844
0.0014502567
2.5518623e-05
3.0289433e-05
4.0706093e-05
5.7404414e-05
8.2446747e-05
0.00012038494
0.00018182971
0.00029531685
0.00056044819
0.0014497571
2.5365243e-05
3.0136025e-05
4.0560088e-05
5.7280275e-05
8.2358325e-05
0.00012033794
0.00018181632
0.00029530943
0.00056037842
0.0014493146
2.5231276e-05
3.0005273e-05
4.0441725e-05
5.7187624e-05
8.2302167e-05
0.00012032047
0.00018182715
0.00029532071
0.00056032655
0.0014489275
2.5115808e-05
2.9895651e-05
4.0348395e-05
5.7122692e-05
8.2273621e-05
0.0001203275
0.00018185749
0.00029534691
0.00056029017
0.0014485934
2.5017757e-05
2.980552e-05
4.0277486e-05
5.7081842e-05
8.2268312e-05
0.00012035445
0.00018190312
0.00029538469
0.00056026715
0.0014483094
2.4935921e-05
2.9733178e-05
4.0226423e-05
5.7061614e-05
8.2282192e-05
0.00012039717
0.0001819603
0.00029543113
0.00056025556
0.0014480721
2.4869016e-05
2.967689e-05
4.0192708e-05
5.7058755e-05
8.231155e-05
0.00012045192
0.00018202575
0.00029548374
0.00056025365
0.001447878
2.4815707e-05
2.9634927e-05
4.0173946e-05
5.7070244e-05
8.2353027e-05
0.00012051544
0.00018209664
0.00029554032
0.00056025977
0.0014477236
2.477464e-05
2.9605591e-05
4.0167873e-05
5.7093306e-05
8.2403615e-05
0.00012058484
0.00018217052
0.000295599
0.00056027235
0.0014476049
2.4744467e-05
2.9587237e-05
4.0172367e-05
5.7125418e-05
8.246065e-05
0.00012065762
0.00018224531
0.00029565816
0.00056028992
0.0014475179
2.4723866e-05
2.9578294e-05
4.018547e-05
5.7164322e-05
8.2521812e-05
0.00012073168
0.0001823193
0.00029571647
0.00056031114
0.0014474586
2.4711561e-05
2.9577281e-05
4.0205393e-05
5.7208017e-05
8.258511e-05
0.00012080527
0.00018239111
0.00029577286
0.00056033487
0.001447423
2.4706337e-05
2.9582819e-05
4.0230527e-05
5.7254762e-05
8.2648869e-05
0.00012087696
0.00018245965
0.00029582653
0.00056036018
0.0014474075
2.4707054e-05
2.9593642e-05
4.0259442e-05
5.7303067e-05
8.271171e-05
0.00012094564
0.00018252414
0.00029587692
0.00056038634
0.0014474088
2.4712653e-05
2.9608601e-05
4.0290884e-05
5.7351674e-05
8.2772521e-05
0.00012101046
0.00018258401
0.00029592364
0.00056041277
0.0014474239
2.4722164e-05
2.9626667e-05
4.032377e-05
5.7399543e-05
8.2830432e-05
0.0001210708
0.0001826389
0.00029596646
0.000560439
0.0014474503
2.473471e-05
2.9646928e-05
4.0357177e-05
5.7445832e-05
8.2884782e-05
0.00012112624
0.0001826886
0.00029600522
0.00056046457
0.0014474857
2.4749504e-05
2.9668586e-05
4.0390332e-05
5.7489874e-05
8.2935094e-05
0.00012117653
0.00018273301
0.00029603984
0.00056048886
0.0014475276
2.4765851e-05
2.9690954e-05
4.0422601e-05
5.7531165e-05
8.2981052e-05
0.00012122154
0.00018277217
0.00029607026
0.00056051107
0.0014475738
2.4783143e-05
2.9713448e-05
4.0453477e-05
5.7569343e-05
8.3022486e-05
0.00012126129
0.00018280616
0.00029609633
0.00056053106
0.0014476225
2.480086e-05
2.9735585e-05
4.0482574e-05
5.7604178e-05
8.3059352e-05
0.00012129589
0.00018283507
0.00029611818
0.0005605491
0.0014476721
2.4818564e-05
2.9756975e-05
4.050961e-05
5.7635552e-05
8.3091711e-05
0.00012132548
0.0001828591
0.00029613628
0.00056056531
0.0014477215
2.4835897e-05
2.9777313e-05
4.0534402e-05
5.7663447e-05
8.311966e-05
0.00012135024
0.00018287871
0.00029615101
0.00056057977
0.0014477696
2.485257e-05
2.9796374e-05
4.0556852e-05
5.7687882e-05
8.3143348e-05
0.00012137059
0.00018289437
0.00029616277
0.00056059261
0.0014478159
2.4868368e-05
2.9814004e-05
4.0576893e-05
5.7708935e-05
8.3163062e-05
0.00012138691
0.00018290649
0.00029617189
0.00056060393
0.0014478599
2.4883119e-05
2.9830079e-05
4.0594524e-05
5.7726773e-05
8.3179118e-05
0.00012139963
0.00018291549
0.00029617872
0.00056061381
0.0014479011
2.4896696e-05
2.9844535e-05
4.0609806e-05
5.7741605e-05
8.319185e-05
0.00012140913
0.00018292177
0.00029618352
0.00056062233
0.0014479394
2.4909023e-05
2.9857356e-05
4.0622837e-05
5.7753663e-05
8.3201595e-05
0.0001214158
0.00018292569
0.00029618655
0.00056062953
0.0014479745
2.4920061e-05
2.9868564e-05
4.063375e-05
5.7763196e-05
8.3208691e-05
0.00012142002
0.00018292758
0.00029618806
0.00056063546
0.0014480063
2.4929809e-05
2.9878212e-05
4.0642696e-05
5.7770459e-05
8.3213467e-05
0.00012142214
0.00018292776
0.00029618827
0.00056064017
0.0014480345
2.4938293e-05
2.9886378e-05
4.0649842e-05
5.7775712e-05
8.3216244e-05
0.00012142249
0.00018292654
0.00029618739
0.00056064378
0.0014480593
2.4945562e-05
2.9893158e-05
4.0655364e-05
5.7779209e-05
8.3217327e-05
0.00012142138
0.0001829242
0.00029618565
0.00056064641
0.0014480805
2.4951682e-05
2.989866e-05
4.0659441e-05
5.7781198e-05
8.3217003e-05
0.00012141912
0.00018292098
0.00029618325
0.0005606482
0.0014480985
2.4956734e-05
2.9903e-05
4.0662252e-05
5.7781911e-05
8.3215537e-05
0.00012141595
0.00018291714
0.00029618038
0.00056064931
0.0014481135
2.4960805e-05
2.99063e-05
4.0663967e-05
5.7781567e-05
8.3213168e-05
0.00012141212
0.00018291286
0.00029617718
0.00056064984
0.0014481258
2.4963988e-05
2.9908678e-05
4.066475e-05
5.7780365e-05
8.3210112e-05
0.00012140782
0.00018290832
0.0002961738
0.00056064991
0.0014481356
2.4966378e-05
2.9910252e-05
4.0664754e-05
5.7778486e-05
8.3206553e-05
0.00012140323
0.00018290365
0.00029617032
0.00056064958
0.0014481433
2.4968068e-05
2.9911135e-05
4.0664118e-05
5.7776089e-05
8.3202656e-05
0.00012139848
0.00018289897
0.00029616682
0.0005606489
0.0014481489
2.4969149e-05
2.9911433e-05
4.0662971e-05
5.7773316e-05
8.319856e-05
0.00012139371
0.00018289437
0.00029616337
0.00056064793
0.0014481528
2.4969709e-05
2.9911244e-05
4.0661429e-05
5.7770293e-05
8.3194383e-05
0.00012138902
0.00018288993
0.00029616002
0.00056064674
0.0014481552
2.496983e-05
2.9910661e-05
4.0659593e-05
5.7767125e-05
8.3190227e-05
0.00012138447
0.0001828857
0.00029615682
0.00056064538
0.0014481561
2.4969589e-05
2.9909766e-05
4.0657555e-05
5.7763905e-05
8.3186173e-05
0.00012138016
0.00018288175
0.00029615383
0.00056064393
0.0014481559
2.4969056e-05
2.9908634e-05
4.0655394e-05
5.7760709e-05
8.3182288e-05
0.00012137611
0.0001828781
0.00029615106
0.00056064244
0.0014481548
2.4968295e-05
2.9907332e-05
4.0653177e-05
5.7757598e-05
8.3178621e-05
0.00012137237
0.00018287477
0.00029614853
0.00056064095
0.0014481529
2.4967364e-05
2.9905918e-05
4.0650961e-05
5.7754624e-05
8.3175209e-05
0.00012136896
0.00018287178
0.00029614626
0.0005606395
0.0014481505
2.4966317e-05
2.9904447e-05
4.06488e-05
5.7751834e-05
8.3172087e-05
0.0001213659
0.00018286911
0.0002961442
0.00056063803
0.0014481477
)
;

boundaryField
{
    water_inlet
    {
        type            turbulentMixingLengthDissipationRateInlet;
        mixingLength    0.005;
        phi             phi;
        k               k;
        value           uniform 0.00011791765;
    }
    water_outlet
    {
        type            inletOutlet;
        inletValue      uniform 0.0001;
        value           nonuniform List<scalar> 10(2.4966317e-05 2.9904447e-05 4.06488e-05 5.7751834e-05 8.3172087e-05 0.0001213659 0.00018286911 0.0002961442 0.00056063803 0.0014481477);
    }
    water_wedge1
    {
        type            wedge;
    }
    water_wedge2
    {
        type            wedge;
    }
    water_to_rock
    {
        type            epsilonWallFunction;
        blending        stepwise;
        value           nonuniform List<scalar> 
100
(
0.0013048048
0.0016574915
0.0016622
0.0015600259
0.0014605594
0.0013944155
0.0013593133
0.0013440712
0.0013390507
0.001338566
0.0013399578
0.0013422096
0.0013450164
0.0013483152
0.0013520947
0.001356334
0.0013609721
0.0013659394
0.0013711895
0.0013766835
0.0013823794
0.0013882304
0.0013941878
0.0014002014
0.0014062191
0.0014121851
0.0014180382
0.0014237105
0.001429129
0.0014342184
0.0014389066
0.0014431303
0.0014468411
0.0014500098
0.0014526275
0.0014547061
0.0014562749
0.001457377
0.0014580643
0.0014583937
0.0014584228
0.0014582078
0.0014578012
0.0014572506
0.0014565947
0.0014558668
0.0014550992
0.0014543189
0.0014535471
0.0014528
0.0014520899
0.0014514257
0.0014508134
0.0014502567
0.0014497571
0.0014493146
0.0014489275
0.0014485934
0.0014483094
0.0014480721
0.001447878
0.0014477236
0.0014476049
0.0014475179
0.0014474586
0.001447423
0.0014474075
0.0014474088
0.0014474239
0.0014474503
0.0014474857
0.0014475276
0.0014475738
0.0014476225
0.0014476721
0.0014477215
0.0014477696
0.0014478159
0.0014478599
0.0014479011
0.0014479394
0.0014479745
0.0014480063
0.0014480345
0.0014480593
0.0014480805
0.0014480985
0.0014481135
0.0014481258
0.0014481356
0.0014481433
0.0014481489
0.0014481528
0.0014481552
0.0014481561
0.0014481559
0.0014481548
0.0014481529
0.0014481505
0.0014481477
)
;
    }
}


// ************************************************************************* //
