/*--------------------------------*- C++ -*----------------------------------*\
| =========                 |                                                 |
| \\      /  F ield         | OpenFOAM: The Open Source CFD Toolbox           |
|  \\    /   O peration     | Version:  2506                                  |
|   \\  /    A nd           | Website:  www.openfoam.com                      |
|    \\/     M anipulation  |                                                 |
\*---------------------------------------------------------------------------*/
FoamFile
{
    version     2.0;
    format      ascii;
    arch        "LSB;label=32;scalar=64";
    class       volScalarField;
    location    "18000/water";
    object      k;
}
// * * * * * * * * * * * * * * * * * * * * * * * * * * * * * * * * * * * * * //

dimensions      [0 2 -2 0 0 0 0];

internalField   nonuniform List<scalar> 
1000
(
0.00017657855
0.00017657518
0.00017657131
0.00017655365
0.00017648098
0.00017625478
0.00017589507
0.00017764177
0.00020514192
0.00048657967
0.00013915035
0.00013915817
0.00013914641
0.00013908743
0.00013888206
0.0001383736
0.00013797747
0.00014325064
0.00019616754
0.00057072179
0.00011343696
0.00011343683
0.00011340783
0.00011329561
0.00011298241
0.0001124902
0.00011342551
0.0001264141
0.00020548438
0.00057180213
9.4956345e-05
9.4947216e-05
9.4898274e-05
9.4747991e-05
9.4461179e-05
9.459109e-05
9.8882455e-05
0.00012463513
0.00023169859
0.00054812312
8.1180941e-05
8.1164581e-05
8.1102165e-05
8.096705e-05
8.096005e-05
8.2611612e-05
9.2929811e-05
0.00013695727
0.0002712845
0.00052456956
7.0599818e-05
7.0579371e-05
7.052347e-05
7.0504802e-05
7.1168228e-05
7.5593826e-05
9.5291319e-05
0.00016203235
0.00031585923
0.00050861021
6.2267978e-05
6.2250532e-05
6.2239517e-05
6.2499621e-05
6.439941e-05
7.3303739e-05
0.00010610133
0.00019613493
0.00035649784
0.00050003829
5.5571434e-05
5.5570245e-05
5.5667651e-05
5.6450665e-05
6.0388919e-05
7.5971167e-05
0.00012498724
0.00023351973
0.00038871402
0.00049629328
5.0098705e-05
5.0135845e-05
5.0440295e-05
5.2103023e-05
5.9190552e-05
8.3984221e-05
0.00015029924
0.00026896212
0.00041246978
0.00049505669
4.5567683e-05
4.5677873e-05
4.6337536e-05
4.9391713e-05
6.1096052e-05
9.7486741e-05
0.00017920256
0.00029964253
0.00042964059
0.00049493726
4.1782812e-05
4.201905e-05
4.3252204e-05
4.84163e-05
6.6518217e-05
0.00011597919
0.00020865664
0.00032501706
0.0004422301
0.00049528026
3.8609688e-05
3.9051458e-05
4.1174607e-05
4.942284e-05
7.5808441e-05
0.00013818998
0.00023641993
0.00034571986
0.00045177464
0.00049583495
3.5960365e-05
3.6725396e-05
4.0189462e-05
5.276709e-05
8.9027914e-05
0.00016237182
0.00026138208
0.0003626877
0.00045931504
0.00049652595
3.378589e-05
3.5046506e-05
4.0478232e-05
5.8837799e-05
0.00010577002
0.00018682814
0.00028330022
0.0003767733
0.00046551936
0.00049733748
3.2074351e-05
3.4079185e-05
4.2315991e-05
6.793369e-05
0.00012516082
0.00021031413
0.00030238139
0.00038864927
0.00047080783
0.00049826646
3.0853761e-05
3.3954493e-05
4.6048138e-05
8.0118163e-05
0.0001460639
0.00023213634
0.00031898723
0.00039881739
0.0004754391
0.00049930743
3.0199528e-05
3.4878924e-05
5.2034316e-05
9.5115811e-05
0.00016736985
0.00025203089
0.00033348877
0.00040763791
0.00047952206
0.00050044507
3.0245953e-05
3.7136049e-05
6.055625e-05
0.00011231936
0.00018821099
0.00026998842
0.00034621451
0.00041534848
0.000483171
0.00050166201
3.1199924e-05
4.1068945e-05
7.1707622e-05
0.00013091735
0.00020802791
0.00028611974
0.00035742596
0.00042213398
0.00048649159
0.00050294665
3.3351591e-05
4.7031202e-05
8.5310816e-05
0.00015007634
0.0002265215
0.00030057573
0.00036733061
0.00042814959
0.0004895579
0.00050428919
3.7070386e-05
5.5301711e-05
0.00010090951
0.00016908794
0.00024356792
0.00031350295
0.00037608853
0.00043353286
0.00049241562
0.00050567917
4.2767359e-05
6.5979125e-05
0.00011785015
0.00018743141
0.00025913414
0.00032501602
0.00038386951
0.00043837723
0.00049509088
0.00050710505
5.0805245e-05
7.8898953e-05
0.00013541216
0.00020475555
0.00027320766
0.000335262
0.00039079722
0.00044274779
0.00049759772
0.00050855482
6.1361986e-05
9.3622355e-05
0.00015292613
0.00022080491
0.00028583314
0.00034436382
0.00039696113
0.00044668827
0.00049994151
0.00051001617
7.4302966e-05
0.00010951493
0.00016980488
0.00023542198
0.00029707751
0.00035241123
0.00040242255
0.00045022511
0.0005021206
0.00051147641
8.914265e-05
0.00012582813
0.00018559495
0.00024853506
0.0003069913
0.00035946488
0.00040721915
0.00045337028
0.00050412705
0.00051292203
0.00010508497
0.00014184845
0.00019999857
0.00026010226
0.00031560902
0.00036556147
0.00041136942
0.00045612371
0.00050594745
0.00051433828
0.00012123814
0.00015699634
0.00021282847
0.00027010604
0.00032295486
0.00037072068
0.00041487785
0.00045847647
0.00050756421
0.00051570897
0.00013679952
0.00017085444
0.00022398888
0.00027855504
0.00032905196
0.00037495427
0.00041774173
0.00046041519
0.00050895799
0.00051701663
0.00015116512
0.00018316339
0.00023346029
0.00028548751
0.00033393246
0.00037827585
0.0004199588
0.00046192733
0.00051011078
0.00051824338
0.00016395782
0.00019380014
0.00024128521
0.00029097278
0.00033764552
0.00038070973
0.00042153468
0.00046300672
0.0005110094
0.00051937212
0.000175001
0.00020274937
0.00024755391
0.00029510894
0.00034026144
0.00038229694
0.00042248861
0.00046365809
0.00051164852
0.00052038799
0.00018426955
0.00021007427
0.00025239036
0.00029801732
0.0003418715
0.00038309758
0.00042285645
0.00046389972
0.00051203254
0.00052127971
0.00019183985
0.00021589038
0.00025593956
0.00029983513
0.00034258429
0.00038318965
0.00042269071
0.00046376388
0.00051217606
0.00052204053
0.00019784875
0.00022034401
0.00025835679
0.00030070765
0.00034252001
0.00038266512
0.00042205794
0.0004632951
0.00051210284
0.00052266866
0.00020246355
0.00022359593
0.00025979913
0.00030078134
0.00034180418
0.00038162461
0.0004210345
0.00046254694
0.00051184365
0.00052316715
0.00020586193
0.0002258096
0.0002604192
0.00030019812
0.00034056166
0.0003801717
0.00041970152
0.00046157796
0.00051143356
0.00052354322
0.00020821919
0.00022714332
0.00026036077
0.00029909118
0.00033891173
0.00037840768
0.00041814003
0.00046044759
0.00051090895
0.00052380728
0.00020970082
0.00022774527
0.00025975599
0.00029758222
0.00033696439
0.00037642734
0.00041642676
0.00045921256
0.00051030506
0.00052397192
0.00021045842
0.0002277507
0.00025872377
0.00029577974
0.00033481801
0.00037431602
0.00041463107
0.00045792423
0.00050965401
0.00052405079
0.00021062794
0.00022728061
0.00025736925
0.00029377848
0.00033255806
0.0003721478
0.00041281305
0.00045662686
0.00050898361
0.00052405776
0.00021032927
0.00022644154
0.00025578382
0.00029165949
0.0003302569
0.00036998488
0.00041102266
0.00045535691
0.00050831684
0.00052400629
0.00020966675
0.00022532593
0.00025404572
0.00028949076
0.00032797411
0.00036787768
0.00040929974
0.00045414294
0.00050767179
0.00052390891
0.00020873015
0.00022401303
0.00025222095
0.0002873282
0.00032575743
0.00036586559
0.00040767454
0.00045300615
0.0005070619
0.00052377704
0.00020759591
0.00022256993
0.00025036434
0.00028521675
0.00032364379
0.0003639778
0.00040616837
0.00045195988
0.0005064878
0.00052361988
0.0002063284
0.00022105269
0.00024852058
0.00028319153
0.00032166057
0.00036223463
0.00040479453
0.00045100827
0.00050595587
0.0005234454
0.00020498125
0.00021950754
0.00024672539
0.00028127905
0.00031982677
0.00036064837
0.0004035576
0.00045015443
0.00050547497
0.00052326135
0.00020359857
0.00021797194
0.00024500653
0.00027949825
0.00031815398
0.00035922337
0.00040245809
0.00044940235
0.00050504911
0.00052307422
0.00020221606
0.00021647565
0.00024338478
0.00027786145
0.00031664682
0.0003579585
0.00040149644
0.00044875176
0.00050467896
0.00052288912
0.00020086215
0.00021504171
0.00024187493
0.0002763748
0.00031530412
0.00035685219
0.00040066935
0.0004481992
0.00050436295
0.00052270996
0.00019955896
0.00021368739
0.0002404859
0.00027503929
0.00031412397
0.00035589945
0.00039997055
0.00044773905
0.00050409817
0.00052253966
0.00019832297
0.00021242434
0.00023922227
0.00027385428
0.00031310136
0.00035509267
0.00039939179
0.00044736445
0.0005038809
0.00052238033
0.00019716576
0.00021126025
0.00023808606
0.00027281642
0.00031222894
0.00035442246
0.00039892364
0.00044706779
0.00050370703
0.00052223341
0.00019609535
0.00021019977
0.00023707669
0.00027192014
0.00031149765
0.0003538782
0.00039855594
0.00044684112
0.00050357222
0.00052209979
0.00019511679
0.0002092449
0.00023619135
0.00027115814
0.00031089718
0.00035344852
0.00039827815
0.00044667639
0.00050347206
0.00052197986
0.00019423258
0.00020839537
0.00023542541
0.00027052175
0.00031041633
0.00035312161
0.00039807969
0.00044656559
0.00050340212
0.0005218736
0.00019344305
0.00020764902
0.00023477276
0.00027000136
0.00031004342
0.00035288558
0.0003979501
0.00044650099
0.00050335812
0.00052178067
0.0001927467
0.0002070021
0.00023422619
0.00026958668
0.00030976661
0.00035272874
0.00039787935
0.00044647526
0.00050333603
0.00052170048
0.00019214057
0.00020644967
0.00023377767
0.00026926717
0.0003095742
0.00035263987
0.00039785806
0.00044648167
0.00050333216
0.00052163232
0.0001916205
0.00020598583
0.00023341872
0.00026903226
0.00030945494
0.00035260847
0.00039787759
0.00044651416
0.00050334322
0.00052157537
0.00019118149
0.00020560407
0.00023314061
0.00026887165
0.00030939815
0.00035262481
0.00039793017
0.00044656734
0.00050336633
0.00052152878
0.00019081791
0.00020529749
0.00023293464
0.0002687754
0.00030939387
0.00035268005
0.00039800881
0.00044663647
0.0005033989
0.00052149168
0.00019052368
0.00020505896
0.00023279223
0.0002687341
0.00030943289
0.00035276616
0.00039810731
0.00044671732
0.00050343864
0.00052146315
0.0001902925
0.0002048813
0.00023270507
0.00026873889
0.00030950675
0.00035287591
0.00039822012
0.00044680618
0.00050348347
0.00052144223
0.00019011792
0.00020475739
0.00023266518
0.00026878152
0.00030960774
0.0003530028
0.00039834234
0.00044689975
0.00050353152
0.00052142798
0.0001899935
0.00020468024
0.000232665
0.00026885436
0.00030972892
0.00035314113
0.00039846973
0.00044699521
0.00050358115
0.00052141944
0.00018991289
0.00020464315
0.00023269747
0.00026895053
0.00030986415
0.00035328594
0.00039859866
0.00044709018
0.00050363102
0.00052141575
0.00018986998
0.00020463975
0.00023275609
0.00026906384
0.00031000809
0.00035343305
0.00039872618
0.00044718279
0.00050368005
0.00052141608
0.00018985895
0.00020466415
0.00023283503
0.00026918893
0.00031015624
0.00035357905
0.00039884995
0.0004472716
0.00050372744
0.00052141973
0.00018987442
0.00020471092
0.00023292906
0.00026932116
0.00031030486
0.00035372121
0.0003989682
0.00044735557
0.00050377261
0.00052142607
0.00018991142
0.00020477521
0.00023303365
0.00026945662
0.00031045091
0.00035385742
0.00039907961
0.00044743398
0.00050381513
0.00052143453
0.00018996546
0.00020485265
0.00023314485
0.00026959205
0.00031059195
0.00035398604
0.00039918321
0.00044750623
0.00050385429
0.00052144457
0.00019003247
0.0002049394
0.00023325927
0.00026972472
0.00031072604
0.00035410583
0.00039927827
0.00044757174
0.0005038896
0.00052145564
0.00019010886
0.00020503209
0.00023337403
0.00026985244
0.00031085166
0.00035421588
0.00039936421
0.00044763012
0.00050392111
0.00052146731
0.00019019142
0.00020512776
0.0002334867
0.00026997344
0.00031096769
0.00035431554
0.00039944064
0.00044768139
0.00050394899
0.00052147923
0.00019027736
0.00020522393
0.00023359533
0.00027008638
0.00031107337
0.00035440439
0.00039950757
0.00044772585
0.00050397338
0.0005214911
0.0001903643
0.00020531849
0.00023369834
0.0002701903
0.00031116818
0.0003544824
0.00039956536
0.00044776384
0.00050399446
0.00052150269
0.00019045025
0.00020540977
0.00023379461
0.00027028456
0.00031125201
0.00035454994
0.00039961453
0.0004477958
0.00050401242
0.00052151382
0.00019053362
0.00020549646
0.00023388326
0.00027036886
0.00031132513
0.00035460757
0.00039965568
0.00044782224
0.00050402752
0.00052152437
0.00019061314
0.00020557757
0.00023396381
0.0002704433
0.00031138803
0.00035465597
0.00039968951
0.00044784369
0.00050404004
0.00052153426
0.00019068784
0.00020565241
0.00023403608
0.00027050816
0.00031144132
0.00035469588
0.00039971671
0.00044786068
0.00050405022
0.00052154344
0.00019075706
0.00020572057
0.00023410008
0.00027056387
0.00031148569
0.00035472806
0.00039973797
0.00044787371
0.0005040583
0.00052155185
0.00019082036
0.00020578187
0.00023415601
0.00027061095
0.00031152185
0.00035475327
0.00039975394
0.0004478832
0.00050406449
0.00052155946
0.0001908775
0.00020583627
0.00023420417
0.00027064998
0.00031155053
0.00035477222
0.00039976521
0.00044788959
0.00050406895
0.00052156624
0.0001909284
0.00020588389
0.00023424494
0.0002706816
0.00031157246
0.00035478563
0.00039977237
0.00044789325
0.00050407189
0.00052157219
0.0001909731
0.00020592492
0.0002342788
0.00027070646
0.00031158838
0.00035479419
0.00039977596
0.00044789456
0.00050407348
0.00052157731
0.00019101177
0.0002059597
0.00023430626
0.00027072523
0.00031159903
0.00035479857
0.00039977656
0.00044789393
0.00050407394
0.00052158165
0.00019104467
0.0002059886
0.0002343279
0.00027073864
0.00031160514
0.00035479946
0.00039977471
0.00044789173
0.00050407348
0.00052158526
0.00019107216
0.00020601209
0.00023434433
0.00027074739
0.00031160742
0.00035479748
0.0003997709
0.00044788832
0.00050407229
0.00052158821
0.00019109464
0.00020603065
0.00023435615
0.00027075214
0.00031160655
0.00035479323
0.00039976561
0.00044788402
0.00050407057
0.00052159057
0.00019111254
0.00020604481
0.00023436398
0.00027075356
0.00031160312
0.00035478723
0.00039975924
0.00044787909
0.00050406844
0.00052159241
0.00019112635
0.00020605507
0.00023436837
0.0002707522
0.00031159769
0.00035477991
0.0003997521
0.00044787374
0.00050406602
0.00052159378
0.00019113649
0.00020606192
0.00023436986
0.00027074861
0.00031159072
0.00035477167
0.00039974448
0.00044786814
0.00050406339
0.00052159472
0.00019114343
0.00020606582
0.00023436892
0.00027074324
0.0003115826
0.0003547628
0.00039973658
0.00044786244
0.00050406064
0.00052159529
0.00019114757
0.00020606721
0.00023436599
0.0002707365
0.0003115737
0.0003547536
0.00039972861
0.00044785674
0.00050405782
0.00052159553
0.00019114931
0.00020606649
0.00023436147
0.00027072876
0.00031156431
0.00035474428
0.00039972073
0.00044785117
0.000504055
0.0005215955
0.00019114903
0.00020606404
0.00023435573
0.00027072035
0.00031155472
0.00035473507
0.00039971309
0.00044784581
0.00050405224
0.00052159524
0.00019114709
0.0002060602
0.0002343491
0.00027071156
0.00031154516
0.00035472613
0.0003997058
0.00044784073
0.0005040496
0.0005215948
0.00019114382
0.00020605531
0.00023434187
0.00027070264
0.00031153582
0.0003547176
0.00039969895
0.000447836
0.0005040471
0.00052159423
0.00019113954
0.00020604967
0.00023433432
0.00027069382
0.00031152686
0.00035470958
0.00039969258
0.00044783162
0.00050404473
0.00052159356
)
;

boundaryField
{
    water_inlet
    {
        type            turbulentIntensityKineticEnergyInlet;
        intensity       0.05;
        value           uniform 0.000234375;
    }
    water_outlet
    {
        type            inletOutlet;
        inletValue      uniform 0.0001;
        value           nonuniform List<scalar> 10(0.00019113954 0.00020604967 0.00023433432 0.00027069382 0.00031152686 0.00035470958 0.00039969258 0.00044783162 0.00050404473 0.00052159356);
    }
    water_wedge1
    {
        type            wedge;
    }
    water_wedge2
    {
        type            wedge;
    }
    water_to_rock
    {
        type            kqRWallFunction;
        value           nonuniform List<scalar> 
100
(
0.00048657967
0.00057072179
0.00057180213
0.00054812312
0.00052456956
0.00050861021
0.00050003829
0.00049629328
0.00049505669
0.00049493726
0.00049528026
0.00049583495
0.00049652595
0.00049733748
0.00049826646
0.00049930743
0.00050044507
0.00050166201
0.00050294665
0.00050428919
0.00050567917
0.00050710505
0.00050855482
0.00051001617
0.00051147641
0.00051292203
0.00051433828
0.00051570897
0.00051701663
0.00051824338
0.00051937212
0.00052038799
0.00052127971
0.00052204053
0.00052266866
0.00052316715
0.00052354322
0.00052380728
0.00052397192
0.00052405079
0.00052405776
0.00052400629
0.00052390891
0.00052377704
0.00052361988
0.0005234454
0.00052326135
0.00052307422
0.00052288912
0.00052270996
0.00052253966
0.00052238033
0.00052223341
0.00052209979
0.00052197986
0.0005218736
0.00052178067
0.00052170048
0.00052163232
0.00052157537
0.00052152878
0.00052149168
0.00052146315
0.00052144223
0.00052142798
0.00052141944
0.00052141575
0.00052141608
0.00052141973
0.00052142607
0.00052143453
0.00052144457
0.00052145564
0.00052146731
0.00052147923
0.0005214911
0.00052150269
0.00052151382
0.00052152437
0.00052153426
0.00052154344
0.00052155185
0.00052155946
0.00052156624
0.00052157219
0.00052157731
0.00052158165
0.00052158526
0.00052158821
0.00052159057
0.00052159241
0.00052159378
0.00052159472
0.00052159529
0.00052159553
0.0005215955
0.00052159524
0.0005215948
0.00052159423
0.00052159356
)
;
    }
}


// ************************************************************************* //
