/*--------------------------------*- C++ -*----------------------------------*\
| =========                 |                                                 |
| \\      /  F ield         | OpenFOAM: The Open Source CFD Toolbox           |
|  \\    /   O peration     | Version:  2506                                  |
|   \\  /    A nd           | Website:  www.openfoam.com                      |
|    \\/     M anipulation  |                                                 |
\*---------------------------------------------------------------------------*/
FoamFile
{
    version     2.0;
    format      ascii;
    arch        "LSB;label=32;scalar=64";
    class       volScalarField;
    location    "18000/water";
    object      nut;
}
// * * * * * * * * * * * * * * * * * * * * * * * * * * * * * * * * * * * * * //

dimensions      [0 2 -1 0 0 0 0];

internalField   nonuniform List<scalar> 
1000
(
3.8760013e-05
3.8759344e-05
3.875781e-05
3.8749425e-05
3.8703919e-05
3.8465194e-05
3.7257946e-05
3.1920746e-05
1.9133704e-05
1.6330702e-05
3.6503362e-05
3.6502673e-05
3.6496233e-05
3.646333e-05
3.6309099e-05
3.5625575e-05
3.2857819e-05
2.4520501e-05
1.4670667e-05
1.7686427e-05
3.4818769e-05
3.4815355e-05
3.4798028e-05
3.4720761e-05
3.4400236e-05
3.3155723e-05
2.8966461e-05
2.0114719e-05
1.4313145e-05
1.7703159e-05
3.3515366e-05
3.3507685e-05
3.3473492e-05
3.3336597e-05
3.281981e-05
3.0995909e-05
2.5816405e-05
1.8305007e-05
1.5980811e-05
1.7332729e-05
3.2476791e-05
3.2463573e-05
3.2409014e-05
3.2208501e-05
3.1494125e-05
2.9122826e-05
2.3598697e-05
1.8669568e-05
1.8895625e-05
1.6956236e-05
3.1628598e-05
3.1609534e-05
3.153636e-05
3.1282464e-05
3.0382786e-05
2.7534789e-05
2.2595747e-05
2.0841195e-05
2.2319043e-05
1.6696308e-05
3.0922114e-05
3.0899106e-05
3.0816961e-05
3.0532878e-05
2.9455023e-05
2.633947e-05
2.3103303e-05
2.4287536e-05
2.5587401e-05
1.6555011e-05
3.0325436e-05
3.0303992e-05
3.0232565e-05
2.9948355e-05
2.8695855e-05
2.5833766e-05
2.5183691e-05
2.8331489e-05
2.835604e-05
1.64929e-05
2.9818406e-05
2.9809195e-05
2.9779268e-05
2.9521763e-05
2.815775e-05
2.6404657e-05
2.8559798e-05
3.2392877e-05
3.0574277e-05
1.6472342e-05
2.9389966e-05
2.9410473e-05
2.9462821e-05
2.9249436e-05
2.8031575e-05
2.8288349e-05
3.2740247e-05
3.6145778e-05
3.2325797e-05
1.6470357e-05
2.9037022e-05
2.9113055e-05
2.929412e-05
2.915219e-05
2.8635203e-05
3.1431719e-05
3.7231775e-05
3.9484759e-05
3.3719909e-05
1.6476062e-05
2.8764327e-05
2.8930798e-05
2.9285949e-05
2.9323341e-05
3.0269955e-05
3.5542626e-05
4.1683786e-05
4.2417984e-05
3.4850524e-05
1.6485285e-05
2.8585099e-05
2.8885105e-05
2.9456518e-05
2.9967108e-05
3.3062432e-05
4.0233907e-05
4.5910751e-05
4.4991556e-05
3.5787821e-05
1.6496767e-05
2.8522078e-05
2.90032e-05
2.98495e-05
3.1360441e-05
3.6918746e-05
4.5156793e-05
4.9841263e-05
4.7257341e-05
3.658121e-05
1.6510243e-05
2.8608624e-05
2.9316858e-05
3.057122e-05
3.3736737e-05
4.1586982e-05
5.0067224e-05
5.3461947e-05
4.9262647e-05
3.726485e-05
1.6525656e-05
2.8889283e-05
2.9866143e-05
3.1814871e-05
3.7181144e-05
4.6760587e-05
5.4824764e-05
5.6783966e-05
5.1047361e-05
3.7861858e-05
1.654291e-05
2.9419591e-05
3.0715919e-05
3.3825493e-05
4.1606146e-05
5.2165025e-05
5.9359754e-05
5.9827281e-05
5.264257e-05
3.8382026e-05
1.6561746e-05
3.026676e-05
3.1985701e-05
3.6808073e-05
4.6798878e-05
5.7598988e-05
6.3641815e-05
6.2613407e-05
5.4068862e-05
3.884166e-05
1.6581871e-05
3.1517081e-05
3.3868973e-05
4.084258e-05
5.2497709e-05
6.2933677e-05
6.7660535e-05
6.5161083e-05
5.5349544e-05
3.925143e-05
1.6603088e-05
3.3297018e-05
3.6603344e-05
4.585782e-05
5.8458824e-05
6.8092327e-05
7.141544e-05
6.7488937e-05
5.6504098e-05
3.9619141e-05
1.6625232e-05
3.5799376e-05
4.0389051e-05
5.1663878e-05
6.4490795e-05
7.3028903e-05
7.4907381e-05
6.9617484e-05
5.7547359e-05
3.9950775e-05
1.6648127e-05
3.927662e-05
4.5306448e-05
5.801379e-05
7.0457173e-05
7.7711291e-05
7.8146285e-05
7.1563605e-05
5.849122e-05
4.0250662e-05
1.6671582e-05
4.3967353e-05
5.128248e-05
6.4661759e-05
7.6260782e-05
8.2121212e-05
8.1143029e-05
7.3340873e-05
5.9344943e-05
4.0521888e-05
1.6695398e-05
4.9982341e-05
5.8113984e-05
7.1396146e-05
8.1829988e-05
8.6249675e-05
8.390598e-05
7.4959814e-05
6.0115427e-05
4.076656e-05
1.6719369e-05
5.7223416e-05
6.552229e-05
7.8046164e-05
8.7114203e-05
9.0089867e-05
8.6440596e-05
7.6427813e-05
6.0807425e-05
4.0985959e-05
1.6743287e-05
6.5385849e-05
7.3208513e-05
8.4484819e-05
9.2075748e-05
9.3633408e-05
8.8748958e-05
7.774916e-05
6.1423724e-05
4.1180631e-05
1.6766931e-05
7.4039995e-05
8.0899947e-05
9.0617301e-05
9.6681402e-05
9.6870052e-05
9.0829899e-05
7.8925309e-05
6.1965361e-05
4.1350487e-05
1.6790062e-05
8.2741688e-05
8.8366469e-05
9.6367196e-05
0.00010090225
9.9788645e-05
9.2679873e-05
7.9955512e-05
6.2432001e-05
4.1494952e-05
1.6812418e-05
9.1117794e-05
9.542603e-05
0.00010167347
0.00010471491
0.00010237907
9.4294534e-05
8.0837874e-05
6.2822543e-05
4.1613199e-05
1.683372e-05
9.8904146e-05
0.0001019454
0.00010649051
0.00010810335
0.00010463462
9.5670735e-05
8.157074e-05
6.3135904e-05
4.1704472e-05
1.685368e-05
0.00010594426
0.00010783812
0.00011078916
0.00011106055
0.00010655412
9.6808467e-05
8.2154111e-05
6.3371859e-05
4.1768419e-05
1.6872024e-05
0.00011216816
0.00011305968
0.00011455705
0.00011358935
0.00010814323
9.7712266e-05
8.2590779e-05
6.3531737e-05
4.1805381e-05
1.6888517e-05
0.00011756692
0.00011760048
0.0001177978
0.00011570221
0.00010941472
9.8391841e-05
8.2886959e-05
6.361885e-05
4.1816557e-05
1.6902981e-05
0.00012217071
0.00012147767
0.00012052896
0.00011742019
0.00011038792
9.8861903e-05
8.305236e-05
6.3638585e-05
4.1804034e-05
1.6915312e-05
0.00012603262
0.00012472732
0.00012277924
0.0001187712
0.00011108743
9.9141392e-05
8.3099756e-05
6.3598183e-05
4.1770682e-05
1.6925487e-05
0.00012921778
0.00012739759
0.00012458543
0.00011978814
0.00011154164
9.9252326e-05
8.304423e-05
6.3506294e-05
4.1719943e-05
1.6933557e-05
0.00013179621
0.00012954341
0.00012598941
0.00012050694
0.00011178106
9.9218516e-05
8.2902245e-05
6.3372408e-05
4.1655581e-05
1.6939642e-05
0.00013383841
0.00013122239
0.00012703565
0.00012096477
0.0001118369
9.9064323e-05
8.2690702e-05
6.3206251e-05
4.1581412e-05
1.6943912e-05
0.00013541258
0.000132492
0.00012776905
0.00012119862
0.00011173981
9.8813572e-05
8.242609e-05
6.3017242e-05
4.1501069e-05
1.6946572e-05
0.00013658296
0.00013340755
0.00012823334
0.00012124408
0.00011151892
9.8488709e-05
8.2123813e-05
6.281406e-05
4.1417823e-05
1.6947846e-05
0.00013740889
0.00013402095
0.00012846995
0.00012113456
0.00011120112
9.8110209e-05
8.1797726e-05
6.2604358e-05
4.1334469e-05
1.6947958e-05
0.00013794434
0.00013437996
0.0001285173
0.00012090073
0.00011081075
9.7696246e-05
8.145988e-05
6.2394613e-05
4.125328e-05
1.6947127e-05
0.00013823784
0.00013452792
0.0001284104
0.00012057027
0.00011036932
9.7262569e-05
8.1120444e-05
6.2190096e-05
4.1176015e-05
1.6945555e-05
0.00013833263
0.00013450365
0.00012818075
0.00012016781
0.0001098956
9.6822516e-05
8.0787738e-05
6.1994923e-05
4.110395e-05
1.6943424e-05
0.00013826695
0.00013434164
0.00012785631
0.00011971496
0.00010940561
9.6387088e-05
8.0468253e-05
6.1811883e-05
4.103685e-05
1.6940882e-05
0.00013807433
0.00013407223
0.00012746166
0.00011923038
0.00010891279
9.5965036e-05
8.0166657e-05
6.1642079e-05
4.0975878e-05
1.6938059e-05
0.00013778398
0.00013372185
0.00012701812
0.00011872993
0.00010842802
9.5562898e-05
7.9885559e-05
6.1487643e-05
4.0921524e-05
1.6935078e-05
0.00013742108
0.00013331327
0.00012654384
0.00011822673
0.00010795976
9.5184878e-05
7.9628115e-05
6.1349393e-05
4.0873959e-05
1.6932048e-05
0.00013700712
0.00013286586
0.00012605404
0.00011773121
0.00010751393
9.4835248e-05
7.9395757e-05
6.1227529e-05
4.0833089e-05
1.6929051e-05
0.00013656012
0.00013239574
0.00012556093
0.00011725126
0.00010709616
9.4516349e-05
7.9188962e-05
6.112177e-05
4.0798623e-05
1.6926151e-05
0.00013609493
0.00013191597
0.00012507452
0.00011679415
0.00010671007
9.4229317e-05
7.9007496e-05
6.103147e-05
4.0770141e-05
1.6923396e-05
0.00013562376
0.00013143767
0.00012460349
0.00011636509
0.0001063579
9.3974381e-05
7.8850601e-05
6.0955741e-05
4.0747155e-05
1.6920817e-05
0.00013515697
0.0001309701
0.00012415457
0.00011596777
0.00010604082
9.3751072e-05
7.8717138e-05
6.0893542e-05
4.0729144e-05
1.6918438e-05
0.00013470301
0.00013052068
0.00012373286
0.00011560461
0.00010575907
9.3558368e-05
7.8605692e-05
6.084374e-05
4.0715581e-05
1.6916273e-05
0.00013426863
0.00013009516
0.00012334202
0.00011527696
0.00010551217
9.3394796e-05
7.8514636e-05
6.0805138e-05
4.0705939e-05
1.6914328e-05
0.00013385902
0.00012969782
0.00012298447
0.00011498516
0.00010529897
9.3258519e-05
7.8442186e-05
6.0776504e-05
4.0699698e-05
1.6912605e-05
0.00013347795
0.00012933161
0.0001226615
0.00011472877
0.0001051178
9.3147418e-05
7.8386451e-05
6.0756598e-05
4.0696352e-05
1.6911099e-05
0.00013312796
0.00012899831
0.00012237344
0.00011450665
0.00010496659
9.3059196e-05
7.8345509e-05
6.0744208e-05
4.0695421e-05
1.6909801e-05
0.00013281046
0.00012869871
0.00012211984
0.00011431714
0.000104843
9.2991484e-05
7.8317474e-05
6.0738185e-05
4.0696467e-05
1.6908697e-05
0.00013252598
0.00012843277
0.00012189965
0.00011415822
0.00010474456
9.2941937e-05
7.8300554e-05
6.0737474e-05
4.0699099e-05
1.6907776e-05
0.00013227434
0.00012819986
0.00012171136
0.00011402767
0.00010466878
9.2908297e-05
7.8293086e-05
6.0741128e-05
4.0702974e-05
1.6907021e-05
0.00013205478
0.0001279988
0.00012155314
0.0001139231
0.00010461317
9.2888427e-05
7.8293545e-05
6.07483e-05
4.0707797e-05
1.6906419e-05
0.00013186608
0.00012782808
0.00012142291
0.0001138421
0.00010457532
9.288031e-05
7.8300533e-05
6.0758233e-05
4.0713311e-05
1.6905955e-05
0.00013170667
0.00012768584
0.00012131843
0.00011378216
0.00010455288
9.2882045e-05
7.831276e-05
6.0770243e-05
4.0719285e-05
1.6905615e-05
0.00013157466
0.00012757
0.0001212373
0.0001137408
0.00010454358
9.2891839e-05
7.8329039e-05
6.0783712e-05
4.0725514e-05
1.6905383e-05
0.00013146793
0.00012747825
0.00012117703
0.00011371554
0.00010454525
9.2908027e-05
7.8348288e-05
6.0798087e-05
4.0731818e-05
1.6905246e-05
0.00013138417
0.0001274082
0.00012113513
0.00011370399
0.00010455583
9.292909e-05
7.8369547e-05
6.0812891e-05
4.0738045e-05
1.6905187e-05
0.00013132099
0.00012735737
0.00012110913
0.00011370389
0.00010457348
9.2953686e-05
7.8391993e-05
6.0827725e-05
4.0744075e-05
1.6905194e-05
0.00013127599
0.00012732338
0.00012109671
0.00011371318
0.00010459655
9.2980666e-05
7.8414948e-05
6.0842281e-05
4.074982e-05
1.6905254e-05
0.00013124687
0.00012730391
0.00012109571
0.00011372999
0.00010462362
9.300907e-05
7.8437871e-05
6.0856324e-05
4.0755222e-05
1.6905356e-05
0.00013123143
0.00012729682
0.00012110415
0.0001137527
0.00010465346
9.3038108e-05
7.8460334e-05
6.0869685e-05
4.0760243e-05
1.6905492e-05
0.00013122763
0.00012730013
0.00012112025
0.00011377983
0.00010468503
9.306712e-05
7.8481996e-05
6.0882225e-05
4.0764813e-05
1.6905653e-05
0.00013123356
0.00012731199
0.00012114238
0.00011381011
0.0001047174
9.309554e-05
7.8502558e-05
6.0893794e-05
4.0768911e-05
1.6905831e-05
0.00013124745
0.0001273307
0.00012116905
0.00011384237
0.00010474979
9.3122879e-05
7.8521751e-05
6.0904318e-05
4.0772554e-05
1.690602e-05
0.00013126762
0.00012735468
0.00012119891
0.00011387558
0.00010478148
9.3148707e-05
7.8539388e-05
6.0913776e-05
4.0775754e-05
1.6906213e-05
0.00013129256
0.00012738248
0.00012123074
0.00011390884
0.00010481187
9.3172704e-05
7.8555384e-05
6.0922152e-05
4.0778523e-05
1.6906406e-05
0.00013132085
0.00012741282
0.00012126348
0.00011394136
0.00010484051
9.3194699e-05
7.8569686e-05
6.0929459e-05
4.0780881e-05
1.6906595e-05
0.00013135128
0.00012744455
0.00012129622
0.00011397258
0.00010486712
9.3214589e-05
7.8582297e-05
6.0935739e-05
4.0782854e-05
1.6906776e-05
0.00013138279
0.00012747673
0.00012132827
0.00011400209
0.00010489153
9.3232355e-05
7.8593274e-05
6.0941057e-05
4.0784475e-05
1.6906947e-05
0.00013141452
0.00012750862
0.00012135912
0.00011402962
0.00010491366
9.3248039e-05
7.8602708e-05
6.0945492e-05
4.0785781e-05
1.6907107e-05
0.00013144582
0.00012753967
0.00012138841
0.00011405502
0.00010493351
9.3261727e-05
7.8610709e-05
6.0949129e-05
4.0786809e-05
1.6907255e-05
0.00013147617
0.00012756942
0.00012141585
0.00011407818
0.00010495111
9.3273525e-05
7.861739e-05
6.0952048e-05
4.0787594e-05
1.690739e-05
0.00013150517
0.00012759756
0.00012144125
0.00011409905
0.00010496653
9.3283541e-05
7.8622857e-05
6.0954323e-05
4.0788163e-05
1.6907513e-05
0.00013153249
0.00012762381
0.00012146447
0.00011411762
0.00010497983
9.3291884e-05
7.8627213e-05
6.0956018e-05
4.0788543e-05
1.6907622e-05
0.00013155788
0.00012764797
0.0001214854
0.0001141339
0.00010499111
9.3298668e-05
7.8630552e-05
6.0957194e-05
4.0788756e-05
1.6907719e-05
0.00013158113
0.00012766991
0.00012150401
0.00011414796
0.00010500047
9.3304015e-05
7.8632976e-05
6.0957911e-05
4.0788822e-05
1.6907803e-05
0.00013160214
0.00012768953
0.00012152031
0.00011415987
0.00010500806
9.3308061e-05
7.8634592e-05
6.0958233e-05
4.0788766e-05
1.6907874e-05
0.00013162083
0.00012770683
0.00012153436
0.00011416977
0.00010501403
9.3310959e-05
7.8635514e-05
6.0958226e-05
4.0788611e-05
1.6907933e-05
0.00013163724
0.00012772186
0.00012154627
0.00011417782
0.00010501855
9.3312865e-05
7.8635857e-05
6.0957955e-05
4.078838e-05
1.6907981e-05
0.00013165142
0.00012773472
0.0001215562
0.00011418421
0.00010502182
9.3313934e-05
7.8635729e-05
6.095748e-05
4.0788096e-05
1.690802e-05
0.00013166349
0.00012774556
0.00012156431
0.00011418911
0.00010502401
9.3314306e-05
7.8635227e-05
6.0956854e-05
4.0787776e-05
1.6908049e-05
0.00013167359
0.0001277545
0.00012157077
0.00011419271
0.00010502526
9.3314104e-05
7.8634433e-05
6.0956119e-05
4.0787433e-05
1.6908072e-05
0.00013168187
0.00012776173
0.00012157574
0.00011419516
0.00010502573
9.3313433e-05
7.8633411e-05
6.0955306e-05
4.0787079e-05
1.6908087e-05
0.00013168847
0.00012776737
0.00012157937
0.0001141966
0.00010502553
9.3312382e-05
7.8632216e-05
6.0954442e-05
4.078672e-05
1.6908097e-05
0.00013169354
0.00012777158
0.00012158182
0.00011419718
0.00010502478
9.331103e-05
7.8630897e-05
6.095355e-05
4.0786362e-05
1.6908102e-05
0.00013169721
0.00012777451
0.00012158323
0.00011419702
0.00010502357
9.330945e-05
7.8629498e-05
6.0952649e-05
4.0786011e-05
1.6908102e-05
0.00013169964
0.00012777631
0.00012158374
0.00011419624
0.00010502201
9.3307713e-05
7.8628059e-05
6.0951759e-05
4.0785674e-05
1.6908098e-05
0.00013170098
0.00012777712
0.00012158349
0.00011419498
0.00010502019
9.3305883e-05
7.862662e-05
6.0950897e-05
4.0785354e-05
1.6908092e-05
0.00013170139
0.00012777709
0.00012158261
0.00011419333
0.0001050182
9.3304017e-05
7.8625211e-05
6.0950078e-05
4.0785056e-05
1.6908083e-05
0.00013170101
0.00012777638
0.00012158125
0.0001141914
0.00010501611
9.3302157e-05
7.8623855e-05
6.0949308e-05
4.0784779e-05
1.6908072e-05
)
;

boundaryField
{
    water_inlet
    {
        type            calculated;
        value           uniform 4.1926275e-05;
    }
    water_outlet
    {
        type            calculated;
        value           nonuniform List<scalar> 10(0.00013170101 0.00012777638 0.00012158125 0.0001141914 0.00010501611 9.3302157e-05 7.8623855e-05 6.0949308e-05 4.0784779e-05 1.6908072e-05);
    }
    water_wedge1
    {
        type            wedge;
    }
    water_wedge2
    {
        type            wedge;
    }
    water_to_rock
    {
        type            nutkWallFunction;
        blending        stepwise;
        value           nonuniform List<scalar> 
100
(
1.7358471e-06
1.9240026e-06
1.9263124e-06
1.8751055e-06
1.8229109e-06
1.7867862e-06
1.7671178e-06
1.7584648e-06
1.7555995e-06
1.7553225e-06
1.7561178e-06
1.7574032e-06
1.7590034e-06
1.7608811e-06
1.7630285e-06
1.765432e-06
1.7680554e-06
1.770858e-06
1.7738123e-06
1.7768952e-06
1.7800822e-06
1.7833463e-06
1.7866597e-06
1.7899943e-06
1.7933208e-06
1.7966088e-06
1.7998249e-06
1.8029327e-06
1.8058933e-06
1.8086669e-06
1.8112155e-06
1.8135067e-06
1.8155157e-06
1.8172283e-06
1.8186411e-06
1.8197617e-06
1.8206066e-06
1.8211997e-06
1.8215694e-06
1.8217465e-06
1.8217622e-06
1.8216466e-06
1.821428e-06
1.8211318e-06
1.8207788e-06
1.8203869e-06
1.8199734e-06
1.8195528e-06
1.8191368e-06
1.818734e-06
1.818351e-06
1.8179927e-06
1.8176622e-06
1.8173616e-06
1.8170918e-06
1.8168527e-06
1.8166435e-06
1.816463e-06
1.8163096e-06
1.8161814e-06
1.8160765e-06
1.815993e-06
1.8159287e-06
1.8158816e-06
1.8158496e-06
1.8158303e-06
1.815822e-06
1.8158228e-06
1.815831e-06
1.8158453e-06
1.8158643e-06
1.8158869e-06
1.8159118e-06
1.8159381e-06
1.815965e-06
1.8159917e-06
1.8160178e-06
1.8160428e-06
1.8160666e-06
1.8160889e-06
1.8161095e-06
1.8161284e-06
1.8161456e-06
1.8161608e-06
1.8161742e-06
1.8161858e-06
1.8161955e-06
1.8162036e-06
1.8162103e-06
1.8162156e-06
1.8162198e-06
1.8162228e-06
1.816225e-06
1.8162262e-06
1.8162268e-06
1.8162267e-06
1.8162261e-06
1.8162251e-06
1.8162238e-06
1.8162223e-06
)
;
    }
}


// ************************************************************************* //
