/*--------------------------------*- C++ -*----------------------------------*\
| =========                 |                                                 |
| \\      /  F ield         | OpenFOAM: The Open Source CFD Toolbox           |
|  \\    /   O peration     | Version:  2506                                  |
|   \\  /    A nd           | Website:  www.openfoam.com                      |
|    \\/     M anipulation  |                                                 |
\*---------------------------------------------------------------------------*/
FoamFile
{
    version     2.0;
    format      ascii;
    arch        "LSB;label=32;scalar=64";
    class       surfaceScalarField;
    location    "18000/water";
    object      phi;
}
// * * * * * * * * * * * * * * * * * * * * * * * * * * * * * * * * * * * * * //

dimensions      [1 0 -1 0 0 0 0];

oriented        oriented;

internalField   nonuniform List<scalar> 
1890
(
-4.1736246e-05
0.0022168351
-0.00015753622
0.0059586937
-0.00032930669
0.0087985477
-0.00054203243
0.010900937
-0.00078239503
0.012402155
-0.0010351826
0.013412336
-0.0012746193
0.014013996
-0.0014359745
0.014245356
-0.001284859
0.0140006
0.012745539
-3.1455821e-05
0.0022482909
-0.00011269722
0.0060399351
-0.00023219386
0.0089180443
-0.00037999424
0.011048737
-0.00054594258
0.012568103
-0.00071649906
0.013582893
-0.00086674519
0.014164242
-0.00093361964
0.01431223
-0.00073394519
0.013800926
0.012011594
-2.9138827e-05
0.0022774298
-0.00010672996
0.0061175262
-0.00022105543
0.0090323698
-0.00036160331
0.011189285
-0.00051700148
0.012723501
-0.00067116241
0.013737054
-0.0007939619
0.014287042
-0.0008113979
0.014329666
-0.00056729941
0.013556827
0.011444294
-2.7339938e-05
0.0023047697
-0.00010102598
0.0061912122
-0.00020924239
0.0091405862
-0.000340979
0.011321022
-0.0004837467
0.012866269
-0.00061911484
0.013872422
-0.0007108817
0.014378809
-0.00067659925
0.014295384
-0.00042026141
0.01330049
0.011024033
-2.562523e-05
0.0023303949
-9.4386139e-05
0.0062599731
-0.00019506689
0.0092412669
-0.00031669858
0.011442653
-0.0004458949
0.012995465
-0.00056132379
0.013987851
-0.00061882758
0.014436313
-0.00053651351
0.01421307
-0.00029565599
0.013059632
0.010728377
-2.4159475e-05
0.0023545544
-8.8799438e-05
0.0063246131
-0.00018306036
0.0093355278
-0.00029574154
0.011555335
-0.00041210874
0.013111832
-0.00050662337
0.014082365
-0.00052703756
0.014456727
-0.00040878624
0.014094818
-0.00020043404
0.01285128
0.010527943
-2.2965463e-05
0.0023775199
-8.4333395e-05
0.006385981
-0.00017335328
0.0094245477
-0.00027826846
0.01166025
-0.00038232689
0.013215891
-0.00045437908
0.014154418
-0.00043820591
0.014440554
-0.00030321669
0.013959829
-0.00013378838
0.012681852
0.010394155
-2.2023831e-05
0.0023995437
-8.0769744e-05
0.006444727
-0.00016540568
0.0095091837
-0.00026327192
0.011758116
-0.00035472683
0.013307346
-0.0004024435
0.014202134
-0.00035545846
0.014393568
-0.0002223685
0.013826739
-8.9854878e-05
0.012549338
0.0103043
-2.1260567e-05
0.0024208043
-7.7812603e-05
0.006501279
-0.00015855234
0.0095899234
-0.00024948533
0.011849049
-0.00032712234
0.013384983
-0.00034954576
0.014224558
-0.00028212872
0.014326151
-0.00016300189
0.013707612
-6.1425906e-05
0.012447762
0.010242874
-2.0607161e-05
0.0024414114
-7.5216688e-05
0.0065558885
-0.00015223241
0.0096669391
-0.00023577774
0.011932594
-0.00029784631
0.013447051
-0.00029644787
0.014223159
-0.0002202391
0.014249943
-0.0001198053
0.013607179
-4.2689448e-05
0.012370646
0.010200184
-2.0018289e-05
0.0024614297
-7.2804711e-05
0.0066086749
-0.00014600133
0.0097401357
-0.00022120571
0.012007799
-0.00026613519
0.013491981
-0.00024531991
0.014202344
-0.00016974845
0.014174371
-8.7951788e-05
0.013525382
-2.9806078e-05
0.0123125
0.010170378
-1.946354e-05
0.0024808933
-7.0441407e-05
0.0066596528
-0.00013947747
0.0098091718
-0.00020502188
0.012073343
-0.00023228104
0.01351924
-0.00019838523
0.014168448
-0.00012919776
0.014105184
-6.3918722e-05
0.013460103
-2.0486012e-05
0.012269068
0.010149892
-1.8918748e-05
0.002499812
-6.8008111e-05
0.0067087422
-0.00013229868
0.0098734623
-0.00018675563
0.0121278
-0.00019748174
0.013529966
-0.00015698029
0.014127947
-9.6700438e-05
0.014044904
-4.5354926e-05
0.013408757
-1.3426646e-05
0.012237139
0.010136466
-1.8360401e-05
0.0025181724
-6.5381825e-05
0.0067557636
-0.00012410693
0.0099321874
-0.00016633446
0.012170028
-0.00016333289
0.013526965
-0.00012140668
0.014086021
-7.0530099e-05
0.013994027
-3.0719627e-05
0.013368947
-7.8893967e-06
0.012214309
0.010128576
-1.7761439e-05
0.0025359339
-6.2419689e-05
0.0068004218
-0.00011457693
0.0099843447
-0.0001441625
0.012199613
-0.00013123989
0.013514042
-9.1273016e-05
0.014046054
-4.9295788e-05
0.01395205
-1.8985824e-05
0.013338637
-3.4322848e-06
0.012198756
0.010125144
-1.7087937e-05
0.0025530218
-5.8952563e-05
0.0068422865
-0.00010349038
0.010028882
-0.00012105265
0.012217175
-0.00010208325
0.013495073
-6.5899099e-05
0.014009869
-3.1931929e-05
0.013918083
-9.4506567e-06
0.013316156
2.8699997e-07
0.012189018
0.010125431
-1.6296485e-05
0.0025693183
-5.4793298e-05
0.0068807833
-9.0832301e-05
0.010064921
-9.7998826e-05
0.012224342
-7.6210056e-05
0.013473284
-4.4572095e-05
0.013978232
-1.7627206e-05
0.013891138
-1.5572737e-06
0.013300086
3.3717239e-06
0.012184089
0.010128803
-1.5331783e-05
0.00258465
-4.9762035e-05
0.0069152135
-7.6852742e-05
0.010092012
-7.5898794e-05
0.012223388
-5.3589337e-05
0.013450974
-2.6635087e-05
0.013951277
-5.7260161e-06
0.013870229
4.9973905e-06
0.013289362
5.849175e-06
0.012183237
0.010134652
-1.4126767e-05
0.0025987768
-4.3732828e-05
0.0069448196
-6.2044496e-05
0.010110324
-5.5380052e-05
0.012216724
-3.3986636e-05
0.013429581
-1.1512647e-05
0.013928803
4.2368902e-06
0.013854479
1.0367701e-05
0.013283231
7.8667523e-06
0.012185738
0.010142519
-1.2609181e-05
0.002611386
-3.6694897e-05
0.0069689053
-4.7031705e-05
0.010120661
-3.677586e-05
0.012206468
-1.7081199e-05
0.013409886
1.3277256e-06
0.013910394
1.2526645e-05
0.01384328
1.4773766e-05
0.013280984
9.5157095e-06
0.012190996
0.010152034
-1.0718655e-05
0.0026221046
-2.8800989e-05
0.0069869876
-3.2420484e-05
0.01012428
-2.0181858e-05
0.012194229
-2.481582e-06
0.013392186
1.2171238e-05
0.013895742
1.9376196e-05
0.013836075
1.838932e-05
0.013281971
1.0861366e-05
0.012198524
0.010162896
-8.4362782e-06
0.0026305409
-2.0369319e-05
0.0069989207
-1.8684708e-05
0.010122595
-5.5179449e-06
0.012181062
1.0030946e-05
0.013376637
2.1196833e-05
0.013884576
2.5023416e-05
0.013832249
2.1344691e-05
0.01328565
1.1951019e-05
0.012207918
0.010174847
-5.8189049e-06
0.0026363598
-1.1825299e-05
0.0070049271
-6.1104225e-06
0.010116881
7.2769308e-06
0.012167675
2.0570683e-05
0.013363343
2.8684382e-05
0.013876462
2.9653941e-05
0.013831279
2.3737607e-05
0.013291566
1.28188e-05
0.012218837
0.010187665
-3.0142068e-06
0.002639374
-3.5959963e-06
0.0070055089
5.1026151e-06
0.010108182
1.8190562e-05
0.012154587
2.935386e-05
0.01335218
3.4839096e-05
0.013870977
3.3405806e-05
0.013832713
2.5639811e-05
0.013299332
1.3489398e-05
0.012230987
0.010201155
-2.3417916e-07
0.0026396082
3.9067828e-06
0.0070013679
1.4739648e-05
0.010097349
2.7284176e-05
0.012142043
3.6558393e-05
0.013342906
3.98106e-05
0.013867725
3.6375664e-05
0.013836148
2.7099391e-05
0.013308609
1.3978118e-05
0.012244108
0.010215133
2.2769419e-06
0.0026373313
1.0308411e-05
0.0069933364
2.2681077e-05
0.010084977
3.4654913e-05
0.012130069
4.2307542e-05
0.013335253
4.3695731e-05
0.013866336
3.862074e-05
0.013841223
2.8140723e-05
0.013319089
1.4290296e-05
0.012257959
0.010229423
4.3217348e-06
0.0026330096
1.5395067e-05
0.0069822631
2.8920446e-05
0.010071451
4.0373213e-05
0.012118616
4.6677441e-05
0.013328949
4.6545915e-05
0.013866468
4.0163757e-05
0.013847605
2.8766789e-05
0.013330486
1.4421846e-05
0.012272304
0.010243845
5.8173082e-06
0.0026271923
1.9123927e-05
0.0069689565
3.3493514e-05
0.010057082
4.4500124e-05
0.012107609
4.9716281e-05
0.013323733
4.8383653e-05
0.013867801
4.10051e-05
0.013854983
2.8966945e-05
0.013342524
1.4363024e-05
0.012286908
0.010258208
6.7757402e-06
0.0026204165
2.1562608e-05
0.0069541696
3.6487414e-05
0.010042157
4.7108918e-05
0.012096988
5.1467785e-05
0.013319374
4.9223068e-05
0.013870045
4.1138614e-05
0.013863068
2.8727434e-05
0.013354935
1.4103615e-05
0.012301532
0.010272312
7.2692643e-06
0.0026131473
2.2857569e-05
0.0069385813
3.8042083e-05
0.010026972
4.8302156e-05
0.012086728
5.1992419e-05
0.013315684
4.9089795e-05
0.013872948
4.0567602e-05
0.01387159
2.8042311e-05
0.01336746
1.3638204e-05
0.012315936
0.01028595
7.3945421e-06
0.0026057527
2.3198941e-05
0.0069227769
3.8341469e-05
0.01001183
4.8219299e-05
0.01207685
5.1381543e-05
0.013312521
4.8036051e-05
0.013876293
3.9317825e-05
0.013880308
2.6922685e-05
0.013379855
1.2970953e-05
0.012329887
0.010298921
7.2476177e-06
0.0025985051
2.2789031e-05
0.0069072355
3.7596791e-05
0.009997022
4.7033376e-05
0.012067413
4.9761365e-05
0.013309794
4.6147349e-05
0.013879907
3.7444112e-05
0.013889011
2.5401546e-05
0.013391898
1.2117713e-05
0.012343171
0.010311039
6.9114474e-06
0.0025915936
2.1819665e-05
0.0068923273
3.6027604e-05
0.009982814
4.4940071e-05
0.012058501
4.7288128e-05
0.013307445
4.3541135e-05
0.013883654
3.5030497e-05
0.013897522
2.3534157e-05
0.013403394
1.1106348e-05
0.012355599
0.010322145
6.452204e-06
0.0025851414
2.0459148e-05
0.0068783204
3.3845117e-05
0.0099694281
4.2143316e-05
0.012050203
4.4137185e-05
0.013305452
4.0358765e-05
0.013887433
3.218432e-05
0.013905697
2.1393848e-05
0.013414185
9.9741859e-06
0.012367019
0.010332119
5.9202072e-06
0.0025792212
1.8847223e-05
0.0068653933
3.1240516e-05
0.0099570348
3.884167e-05
0.012042602
4.0490115e-05
0.013303803
3.6754264e-05
0.013891169
2.9027003e-05
0.013913424
1.9065224e-05
0.013424147
8.7644239e-06
0.012377319
0.010340884
5.3525437e-06
0.0025738687
1.709517e-05
0.0068536507
2.8378455e-05
0.0099457515
3.5217603e-05
0.012035762
3.6522568e-05
0.013302498
3.2882456e-05
0.013894809
2.568362e-05
0.013920623
1.6636248e-05
0.013433194
7.5217714e-06
0.012386434
0.010348405
4.7758951e-06
0.0025690928
1.5288601e-05
0.006843138
2.5394793e-05
0.0099356453
3.1430516e-05
0.012029727
3.2394643e-05
0.013301534
2.8888545e-05
0.013898315
2.2273209e-05
0.013927238
1.4190689e-05
0.013441277
6.2882615e-06
0.012394336
0.010354694
4.2090396e-06
0.0025648838
1.3491397e-05
0.0068338557
2.2397436e-05
0.0099267393
2.7613485e-05
0.012024511
2.8244757e-05
0.013300903
2.4900669e-05
0.013901659
1.8901514e-05
0.013933237
1.1802436e-05
0.013448376
5.1003171e-06
0.012401039
0.010359794
3.6648315e-06
0.0025612189
1.1749696e-05
0.0068257708
1.9468873e-05
0.0099190201
2.3872787e-05
0.012020107
2.4186603e-05
0.013300589
2.1025462e-05
0.01390482
1.5656382e-05
0.013938606
9.5318863e-06
0.0134545
3.9868468e-06
0.012406584
0.010363781
3.1517286e-06
0.0025580672
1.0095552e-05
0.006818827
1.6669624e-05
0.0099124461
2.0289522e-05
0.012016487
2.0308863e-05
0.01330057
1.7346532e-05
0.013907782
1.260591e-05
0.013943347
7.4244987e-06
0.013459682
2.9685235e-06
0.01241104
0.010366749
2.6749828e-06
0.0025553922
8.5501419e-06
0.0068129518
1.4042019e-05
0.0099069542
1.6922546e-05
0.012013606
1.6676995e-05
0.013300815
1.392542e-05
0.013910534
9.7990718e-06
0.013947473
5.5114958e-06
0.013463969
2.0586186e-06
0.012414492
0.010368808
2.2374722e-06
0.0025531547
7.1262818e-06
0.006808063
1.161361e-05
0.0099024668
1.38117e-05
0.012011408
1.3335768e-05
0.013301291
1.0803538e-05
0.013913066
7.2673054e-06
0.013951009
3.811124e-06
0.013467425
1.2635435e-06
0.01241704
0.010370071
1.8403957e-06
0.0025513143
5.8306104e-06
0.0068040728
9.4004947e-06
0.0098988969
1.098147e-05
0.012009827
1.0312857e-05
0.01330196
8.0055661e-06
0.013915374
5.0276722e-06
0.013953987
2.3314694e-06
0.013470121
5.8496925e-07
0.012418786
0.010370656
1.4837114e-06
0.0025498306
4.6651006e-06
0.0068008914
7.4097565e-06
0.0098961523
8.4438179e-06
0.012008793
7.6215764e-06
0.013302782
5.5418969e-06
0.013917453
3.0850314e-06
0.013956444
1.0730375e-06
0.013472133
3.1088696e-08
0.012419828
0.010370688
1.1664391e-06
0.0025486642
3.6280678e-06
0.0067984298
5.6411197e-06
0.0098941392
6.2000447e-06
0.012008234
5.2626892e-06
0.013303719
3.4105272e-06
0.013919305
1.4351009e-06
0.01395842
3.7845331e-08
0.013473531
-4.1266113e-07
0.012420279
0.010370275
8.8695119e-07
0.0025477772
2.7152233e-06
0.0067966015
4.0889105e-06
0.0098927655
4.2435787e-06
0.01200808
3.2280413e-06
0.013304735
1.602086e-06
0.013920931
7.2889655e-08
0.013959949
-7.9733973e-07
0.013474401
-7.7115054e-07
0.012420253
0.010369504
6.4321008e-07
0.002547134
1.9205982e-06
0.0067953241
2.7439263e-06
0.0098919422
2.562889e-06
0.012008261
1.5047514e-06
0.013305793
1.0613311e-07
0.01392233
-1.0301027e-06
0.013961085
-1.4655784e-06
0.013474836
-1.049062e-06
0.012419836
0.010368455
4.329362e-07
0.0025467011
1.2371536e-06
0.0067945199
1.5947403e-06
0.0098915846
1.1437961e-06
0.012008712
7.8890478e-08
0.013306858
-1.1081728e-06
0.013923517
-1.911535e-06
0.013961888
-1.9808613e-06
0.013474906
-1.2531399e-06
0.012419109
0.010367202
2.5376804e-07
0.0025464473
6.574931e-07
0.0067941162
6.2967684e-07
0.0098916125
-2.8342568e-08
0.01200937
-1.0797739e-06
0.013307909
-2.0792563e-06
0.013924517
-2.5924253e-06
0.013962402
-2.3590739e-06
0.013474672
-1.3919623e-06
0.012418141
0.01036581
1.0342848e-07
0.0025463439
1.7449333e-07
0.0067940451
-1.6495194e-07
0.0098919519
-9.8045166e-07
0.012010185
-2.0068924e-06
0.013308936
-2.83138e-06
0.013925341
-3.0944235e-06
0.013962665
-2.6170833e-06
0.013474195
-1.474677e-06
0.012416999
0.010364335
-2.055679e-08
0.0025463645
-2.2109583e-07
0.0067942456
-8.0911616e-07
0.0098925399
-1.7415729e-06
0.012011118
-2.7257557e-06
0.01330992
-3.3881901e-06
0.013926003
-3.4393156e-06
0.013962716
-2.7714466e-06
0.013473527
-1.5099845e-06
0.012415737
0.010362825
-1.2119045e-07
0.0025464856
-5.4004834e-07
0.0067946645
-1.321456e-06
0.0098933213
-2.3306085e-06
0.012012127
-3.2589213e-06
0.013310848
-3.7732674e-06
0.013926518
-3.6483657e-06
0.013962591
-2.837954e-06
0.013472717
-1.5060057e-06
0.012414406
0.010361319
-2.0123954e-07
0.0025466869
-7.9102044e-07
0.0067952543
-1.7154653e-06
0.0098942458
-2.7665031e-06
0.012013178
-3.6287427e-06
0.01331171
-4.0095556e-06
0.013926899
-3.7418841e-06
0.013962323
-2.8313617e-06
0.013471806
-1.4701653e-06
0.012413044
0.010359849
-2.6294651e-07
0.0025469498
-9.8136326e-07
0.0067959727
-2.0045099e-06
0.0098952689
-3.0678687e-06
0.012014241
-3.8569842e-06
0.0133125
-4.1190932e-06
0.013927161
-3.7390762e-06
0.013961943
-2.7653992e-06
0.013470833
-1.409224e-06
0.012411688
0.01035844
-3.084452e-07
0.0025472583
-1.1182448e-06
0.0067967825
-2.201652e-06
0.0098963523
-3.252794e-06
0.012015292
-3.9646119e-06
0.013313211
-4.1228646e-06
0.013927319
-3.6579907e-06
0.013961478
-2.652791e-06
0.013469827
-1.329388e-06
0.012410365
0.01035711
-3.3977147e-07
0.0025475981
-1.2085682e-06
0.0067976513
-2.3194723e-06
0.0098974632
-3.3385969e-06
0.012016311
-3.9715063e-06
0.013313844
-4.0405172e-06
0.013927388
-3.5152872e-06
0.013960953
-2.5051208e-06
0.013468817
-1.236258e-06
0.012409096
0.010355874
-3.5884298e-07
0.0025479569
-1.2588716e-06
0.0067985513
-2.3698528e-06
0.0098985742
-3.3415009e-06
0.012017283
-3.8960533e-06
0.013314399
-3.8899258e-06
0.013927382
-3.3258335e-06
0.013960389
-2.3324952e-06
0.013467824
-1.1345588e-06
0.012407898
0.010354739
-3.67462e-07
0.0025483244
-1.2752828e-06
0.0067994591
-2.3638635e-06
0.0098996628
-3.2764519e-06
0.012018196
-3.7549318e-06
0.013314877
-3.6869965e-06
0.013927314
-3.1025632e-06
0.013959805
-2.143495e-06
0.013466865
-1.0282508e-06
0.012406783
0.010353711
-3.6728773e-07
0.0025486916
-1.2634348e-06
0.0068003553
-2.3115952e-06
0.0099007109
-3.156893e-06
0.012019041
-3.5628659e-06
0.013315283
-3.4454453e-06
0.013927196
-2.8563138e-06
0.013959215
-1.9450564e-06
0.013465953
-9.2036358e-07
0.012405758
0.010352791
-3.598454e-07
0.0025490515
-1.2284696e-06
0.0068012239
-2.2221687e-06
0.0099017046
-2.9948005e-06
0.012019814
-3.3327283e-06
0.013315621
-3.176988e-06
0.013927041
-2.5960777e-06
0.013958634
-1.7427359e-06
0.0134651
-8.1322299e-07
0.012404828
0.010351977
-3.465298e-07
0.002549398
-1.1750556e-06
0.0068020524
-2.1037772e-06
0.0099026333
-2.8007822e-06
0.012020511
-3.0757334e-06
0.013315896
-2.8916199e-06
0.013926857
-2.3293535e-06
0.013958072
-1.5410448e-06
0.013464312
-7.0869096e-07
0.012403996
0.010351269
-3.2860535e-07
0.0025497266
-1.1074007e-06
0.0068028312
-1.9637415e-06
0.0099034897
-2.5842049e-06
0.012021131
-2.8016362e-06
0.013316114
-2.5979101e-06
0.013926653
-2.0624628e-06
0.013957537
-1.3437216e-06
0.013463593
-6.082369e-07
0.012403261
0.010350661
-3.0722186e-07
0.0025500338
-1.0293066e-06
0.0068035533
-1.8086168e-06
0.009904269
-2.3533735e-06
0.012021676
-2.5189968e-06
0.013316279
-2.3032957e-06
0.013926437
-1.800851e-06
0.013957034
-1.1539984e-06
0.013462946
-5.1318098e-07
0.01240262
0.010350147
-2.8340791e-07
0.0025503173
-9.4415996e-07
0.0068042141
-1.6441987e-06
0.009904969
-2.115548e-06
0.012022147
-2.2352109e-06
0.013316399
-2.0141322e-06
0.013926216
-1.5491341e-06
0.013956569
-9.7458838e-07
0.013462372
-4.2463384e-07
0.01240207
0.010349723
-2.5806678e-07
0.0025505753
-8.5492947e-07
0.0068048109
-1.4755152e-06
0.0099055896
-1.8769406e-06
0.012022549
-1.956489e-06
0.013316478
-1.7356374e-06
0.013925995
-1.3109986e-06
0.013956145
-8.0759401e-07
0.013461868
-3.4339226e-07
0.012401606
0.010349379
-2.3198179e-07
0.0025508073
-7.6416639e-07
0.0068053431
-1.3068246e-06
0.0099061323
-1.6427003e-06
0.012022884
-1.687838e-06
0.013316524
-1.4718679e-06
0.013925779
-1.0891674e-06
0.013955762
-6.5445189e-07
0.013461434
-2.699818e-07
0.012401221
0.010349109
-2.0580476e-07
0.0025510131
-6.739765e-07
0.0068058113
-1.1415719e-06
0.0099065999
-1.4168636e-06
0.01202316
-1.4329997e-06
0.01331654
-1.22563e-06
0.013925572
-8.8529027e-07
0.013955422
-5.1582682e-07
0.013461064
-2.0449173e-07
0.01240091
0.010348905
-1.8006929e-07
0.0025511932
-5.8605836e-07
0.0068062173
-9.8245693e-07
0.0099069963
-1.2024509e-06
0.01202338
-1.1945718e-06
0.013316532
-9.9862881e-07
0.013925376
-7.0009221e-07
0.013955123
-3.9173503e-07
0.013460756
-1.4669663e-07
0.012400665
0.010348758
-1.5520534e-07
0.0025513484
-5.0174242e-07
0.0068065638
-8.3151646e-07
0.009907326
-1.0016117e-06
0.01202355
-9.7422345e-07
0.013316504
-7.9171988e-07
0.013925193
-5.3364215e-07
0.013954865
-2.8177271e-07
0.013460504
-9.6213823e-08
0.012400479
0.010348662
-1.3154388e-07
0.0025514799
-4.220353e-07
0.0068068543
-6.9022756e-07
0.0099075942
-8.1578813e-07
0.012023675
-7.7289629e-07
0.013316462
-6.0513694e-07
0.013925026
-3.8555683e-07
0.013954645
-1.8527232e-07
0.013460304
-5.2507705e-08
0.012400346
0.010348609
-1.0934891e-07
0.0025515893
-3.4770532e-07
0.0068070927
-5.5966707e-07
0.0099078062
-6.4595127e-07
0.012023762
-5.9110939e-07
0.013316407
-4.3883326e-07
0.013924873
-2.5535457e-07
0.013954462
-1.0158803e-07
0.01346015
-1.4722267e-08
0.01240026
0.010348595
-8.8813077e-08
0.0025516781
-2.793092e-07
0.0068072832
-4.4057885e-07
0.0099079675
-4.9270768e-07
0.012023814
-4.2908817e-07
0.013316343
-2.9258704e-07
0.013924737
-1.4245194e-07
0.013954312
-2.9720747e-08
0.013460037
1.7468465e-08
0.012400212
0.010348612
-7.0076528e-08
0.0025517482
-2.1723778e-07
0.0068074303
-3.3345066e-07
0.0099080837
-3.5638389e-07
0.012023837
-2.8681248e-07
0.013316274
-1.6598549e-07
0.013924616
-4.5969008e-08
0.013954192
3.0739552e-08
0.01345996
4.3438603e-08
0.0124002
0.010348656
-5.3223099e-08
0.0025518014
-1.6170543e-07
0.0068075388
-2.3847829e-07
0.0099081605
-2.3694557e-07
0.012023835
-1.6386861e-07
0.0133162
-5.8123568e-08
0.01392451
3.4795366e-08
0.013954099
7.9503012e-08
0.013459916
6.3326406e-08
0.012400216
0.010348719
-3.8273402e-08
0.0025518397
-1.1273323e-07
0.0068076133
-1.5552859e-07
0.0099082033
-1.3391142e-07
0.012023814
-5.9255528e-08
0.013316126
3.2070133e-08
0.013924419
1.0008599e-07
0.013954031
1.1719331e-07
0.013459899
7.7969754e-08
0.012400255
0.010348797
-2.5203313e-08
0.0025518649
-7.0181131e-08
0.0068076582
-8.416613e-08
0.0099082172
-4.6329378e-08
0.012023776
2.8212709e-08
0.013316051
1.0520485e-07
0.013924342
1.5084404e-07
0.013953985
1.4511859e-07
0.013459904
8.8059598e-08
0.012400312
0.010348885
-1.3934446e-08
0.0025518788
-3.3727151e-08
0.006807678
-2.3595546e-08
0.0099082071
2.6890415e-08
0.012023725
9.9377854e-08
0.013315979
1.6249612e-07
0.013924279
1.8889684e-07
0.013953959
1.646954e-07
0.013459929
9.4364136e-08
0.012400383
0.010348979
-4.3469857e-09
0.0025518831
-2.9099299e-09
0.0068076766
2.6911592e-08
0.0099081773
8.6512877e-08
0.012023666
1.5544399e-07
0.01331591
2.0591469e-07
0.013924228
2.1606191e-07
0.013953949
1.7729513e-07
0.013459967
9.7598676e-08
0.012400462
0.010349077
3.6650815e-09
0.0025518795
2.2593666e-08
0.0068076577
6.7891099e-08
0.009908132
1.3357554e-07
0.0120236
1.9821784e-07
0.013315845
2.3734567e-07
0.013924189
2.3402883e-07
0.013953952
1.8415646e-07
0.013460017
9.8370618e-08
0.012400548
0.010349175
1.0188454e-08
0.0025518693
4.3081012e-08
0.0068076248
1.0013073e-07
0.0099080749
1.6950703e-07
0.012023531
2.293819e-07
0.013315785
2.5848901e-07
0.01392416
2.442628e-07
0.013953966
1.8630983e-07
0.013460075
9.7194554e-08
0.012400637
0.010349273
1.5336367e-08
0.002551854
5.901976e-08
0.0068075811
1.2456558e-07
0.0099080094
1.956014e-07
0.01202346
2.5041093e-07
0.013315731
2.7077897e-07
0.01392414
2.4794709e-07
0.013953989
1.8454424e-07
0.013460139
9.4422228e-08
0.012400727
0.010349367
1.9241281e-08
0.0025518347
7.0883919e-08
0.0068075294
1.4206785e-07
0.0099079382
2.130384e-07
0.012023389
2.6261143e-07
0.013315681
2.7544027e-07
0.013924127
2.4605038e-07
0.013954018
1.7946618e-07
0.013460205
9.0303761e-08
0.012400816
0.010349457
2.2038675e-08
0.0025518127
7.913277e-08
0.0068074723
1.5346413e-07
0.0099078639
2.2291671e-07
0.012023319
2.6718111e-07
0.013315637
2.7357433e-07
0.013924121
2.3942192e-07
0.013954053
1.7160659e-07
0.013460273
8.5077922e-08
0.012400903
0.010349542
2.3858424e-08
0.0025517888
8.4208429e-08
0.006807412
1.5954451e-07
0.0099077885
2.2627844e-07
0.012023252
2.6524356e-07
0.013315598
2.6621062e-07
0.01392412
2.2885652e-07
0.01395409
1.6145355e-07
0.01346034
7.8915837e-08
0.012400985
0.010349621
2.483843e-08
0.002551764
8.6563925e-08
0.0068073503
1.6110886e-07
0.009907714
2.2417668e-07
0.012023189
2.5794681e-07
0.013315564
2.5442032e-07
0.013924123
2.152139e-07
0.013954129
1.4958315e-07
0.013460406
7.2119323e-08
0.012401063
0.010349693
2.5109224e-08
0.0025517389
8.663686e-08
0.0068072887
1.5893035e-07
0.0099076417
2.1763537e-07
0.012023131
2.4641299e-07
0.013315535
2.3925796e-07
0.01392413
1.9935431e-07
0.013954169
1.365708e-07
0.013460469
6.4943754e-08
0.012401134
0.010349758
2.4799253e-08
0.0025517141
8.485574e-08
0.0068072287
1.5376864e-07
0.0099075728
2.0765303e-07
0.012023077
2.317299e-07
0.013315511
2.2175397e-07
0.01392414
1.8212335e-07
0.013954209
1.2300601e-07
0.013460528
5.7678732e-08
0.0124012
0.010349816
2.4026611e-08
0.00255169
8.1617406e-08
0.0068071711
1.4631918e-07
0.009907508
1.9513983e-07
0.012023028
2.1488298e-07
0.013315491
2.0282822e-07
0.013924152
1.6426757e-07
0.013954247
1.0939057e-07
0.013460583
5.057709e-08
0.012401259
0.010349867
2.289442e-08
0.0025516671
7.7269423e-08
0.0068071167
1.3718752e-07
0.0099074481
1.8086992e-07
0.012022984
1.966861e-07
0.013315475
1.8321097e-07
0.013924166
1.4634753e-07
0.013954284
9.6078692e-08
0.013460633
4.3773239e-08
0.012401311
0.01034991
2.1495307e-08
0.0025516456
7.2116962e-08
0.0068070661
1.2689345e-07
0.0099073933
1.6549096e-07
0.012022946
1.7779884e-07
0.013315463
1.6347223e-07
0.01392418
1.287779e-07
0.013954319
8.3316366e-08
0.013460678
3.7388509e-08
0.012401357
0.010349948
1.9902123e-08
0.0025516257
6.6403575e-08
0.0068070196
1.1584436e-07
0.0099073439
1.4949423e-07
0.012022912
1.5869102e-07
0.013315454
1.4397651e-07
0.013924195
1.1178204e-07
0.013954351
7.1185954e-08
0.013460719
3.1397988e-08
0.012401397
0.010349979
1.8183661e-08
0.0025516075
6.0344747e-08
0.0068069774
1.0439099e-07
0.0099072998
1.3329228e-07
0.012022883
1.3975333e-07
0.013315447
1.2502885e-07
0.01392421
9.5549872e-08
0.01395438
5.9783916e-08
0.013460755
2.5858123e-08
0.01240143
0.010350005
1.6390844e-08
0.0025515912
5.4106845e-08
0.0068069397
9.2800858e-08
0.0099072611
1.1719241e-07
0.012022859
1.2125536e-07
0.013315443
1.0680884e-07
0.013924224
8.0158977e-08
0.013954407
4.9098958e-08
0.013460786
2.0703993e-08
0.012401459
0.010350026
1.4577554e-08
0.0025515766
4.7851029e-08
0.0068069064
8.1332064e-08
0.0099072277
1.0149341e-07
0.012022838
1.0348484e-07
0.013315441
8.9550511e-08
0.013924238
6.5768807e-08
0.013954431
3.9230987e-08
0.013460812
1.6021007e-08
0.012401482
0.010350042
1.2778374e-08
0.0025515638
4.1696943e-08
0.0068068775
7.0178142e-08
0.0099071992
8.6422491e-08
0.012022822
8.6641256e-08
0.013315441
7.3396522e-08
0.013924251
5.2454807e-08
0.013954452
3.0186294e-08
0.013460835
1.1726359e-08
0.0124015
0.010350053
1.1039755e-08
0.0025515528
3.5776589e-08
0.0068068527
5.9551179e-08
0.0099071754
7.2228993e-08
0.01202281
7.0985528e-08
0.013315442
5.8578069e-08
0.013924264
4.0408431e-08
0.01395447
2.2127554e-08
0.013460853
7.9993591e-09
0.012401515
0.010350061
9.3799756e-09
0.0025515434
3.0162984e-08
0.006806832
4.9569043e-08
0.009907156
5.9046844e-08
0.0120228
5.6616728e-08
0.013315445
4.514999e-08
0.013924275
2.9632605e-08
0.013954485
1.5003723e-08
0.013460867
4.7113182e-09
0.012401525
0.010350066
7.8283415e-09
0.0025515356
2.4937814e-08
0.0068068149
4.0361869e-08
0.0099071406
4.7025077e-08
0.012022793
4.3689478e-08
0.013315448
3.3244097e-08
0.013924285
2.0230063e-08
0.013954498
8.9036091e-09
0.013460879
1.998842e-09
0.012401532
0.010350068
6.3966284e-09
0.0025515292
2.0140501e-08
0.0068068011
3.2012344e-08
0.0099071287
3.631106e-08
0.012022789
3.2401465e-08
0.013315452
2.3100259e-08
0.013924295
1.2442003e-08
0.013954509
4.008347e-09
0.013460887
-1.2945401e-10
0.012401536
0.010350068
2.8863362e-09
9.0576968e-09
1.4264476e-08
1.5956552e-08
1.3927673e-08
9.5872659e-09
4.7680314e-09
1.1587488e-09
-3.8453359e-10
)
;

boundaryField
{
    water_inlet
    {
        type            calculated;
        value           nonuniform List<scalar> 10(-0.0021750989 -0.0058428937 -0.0086267772 -0.010688211 -0.012161792 -0.013159549 -0.01377456 -0.014084001 -0.014151716 -0.014030398);
    }
    water_outlet
    {
        type            calculated;
        value           nonuniform List<scalar> 10(0.0025515263 0.006806795 0.0099071235 0.012022787 0.013315454 0.013924299 0.013954514 0.013460891 0.012401538 0.010350068);
    }
    water_wedge1
    {
        type            wedge;
        value           nonuniform List<scalar> 
1000
(
-1.1295959e-13
-1.4267425e-13
-1.1215888e-13
-1.0631526e-13
-9.9359196e-14
-9.3388046e-14
-8.868958e-14
-8.4954153e-14
-8.1975078e-14
-7.9489806e-14
-7.7281938e-14
-7.5237467e-14
-7.3264264e-14
-7.1276858e-14
-6.9186533e-14
-6.685776e-14
-6.4132892e-14
-6.0817606e-14
-5.6666344e-14
-5.1410107e-14
-4.4796196e-14
-3.6657716e-14
-2.7076474e-14
-1.6556292e-14
-5.8668657e-15
4.0618465e-15
1.2376734e-14
1.8672546e-14
2.28952e-14
2.5295729e-14
2.6227566e-14
2.6008881e-14
2.5021051e-14
2.3510371e-14
2.168765e-14
1.9704108e-14
1.7625503e-14
1.5588826e-14
1.360824e-14
1.1729369e-14
9.9987511e-15
8.3904835e-15
6.9290237e-15
5.6181534e-15
4.44709e-15
3.4022504e-15
2.4952565e-15
1.7142113e-15
1.041517e-15
4.7800709e-16
1.4432901e-17
-3.6344702e-16
-6.7389839e-16
-9.1370535e-16
-1.0889236e-15
-1.2075853e-15
-1.2806014e-15
-1.3266126e-15
-1.3370439e-15
-1.3133003e-15
-1.2649995e-15
-1.2049518e-15
-1.1304758e-15
-1.0422897e-15
-9.5394046e-16
-8.6736235e-16
-7.7204375e-16
-6.700095e-16
-5.8506941e-16
-5.0074783e-16
-4.1252477e-16
-3.3952088e-16
-2.7150241e-16
-2.0931248e-16
-1.5575526e-16
-1.0758832e-16
-5.8775766e-17
-2.173487e-17
5.1031613e-18
3.1006644e-17
4.2775543e-17
5.5911861e-17
7.2727432e-17
7.804308e-17
8.6138064e-17
9.0607306e-17
8.3526281e-17
8.4423661e-17
8.2072325e-17
7.4512054e-17
6.9261512e-17
6.4537413e-17
5.885546e-17
4.6803785e-17
3.8898873e-17
3.4587014e-17
3.1548555e-17
2.9983595e-17
2.1376058e-17
7.3877616e-18
-6.8081427e-13
-1.0335471e-12
-8.3928924e-13
-7.9752747e-13
-7.4940086e-13
-7.0313978e-13
-6.653647e-13
-6.3522752e-13
-6.1093598e-13
-5.9052835e-13
-5.7244848e-13
-5.5560516e-13
-5.3912395e-13
-5.2219962e-13
-5.039771e-13
-4.8343279e-13
-4.5934347e-13
-4.3018796e-13
-3.9436622e-13
-3.5055519e-13
-2.9813905e-13
-2.3765293e-13
-1.7103303e-13
-1.0155436e-13
-3.3368951e-14
2.8947882e-14
8.1485176e-14
1.22151e-13
1.5064044e-13
1.6797577e-13
1.7589598e-13
1.7634969e-13
1.7126434e-13
1.622721e-13
1.5073026e-13
1.3769353e-13
1.2392584e-13
1.1003601e-13
9.6438093e-14
8.3442076e-14
7.1231185e-14
5.9905184e-14
4.954925e-14
4.0193339e-14
3.1830277e-14
2.4421765e-14
1.7935285e-14
1.2316318e-14
7.5117252e-15
3.4694521e-15
1.1522794e-16
-2.6177684e-15
-4.8062748e-15
-6.5041861e-15
-7.7722483e-15
-8.6629472e-15
-9.216125e-15
-9.4946742e-15
-9.5346092e-15
-9.3802484e-15
-9.0694418e-15
-8.6231806e-15
-8.0837763e-15
-7.4766102e-15
-6.8281475e-15
-6.1602119e-15
-5.4781835e-15
-4.8077305e-15
-4.1624002e-15
-3.5438843e-15
-2.9583062e-15
-2.4132967e-15
-1.9182293e-15
-1.4735434e-15
-1.0785989e-15
-7.3387917e-16
-4.2745482e-16
-1.6782558e-16
4.9360391e-17
2.2647173e-16
3.5893764e-16
4.6786438e-16
5.4949856e-16
5.9877113e-16
6.2778707e-16
6.442598e-16
6.4329833e-16
6.2227173e-16
5.922253e-16
5.5786921e-16
5.1606827e-16
4.7305045e-16
4.2745643e-16
3.8101964e-16
3.3488794e-16
2.87233e-16
2.4552028e-16
2.0738333e-16
1.6699501e-16
9.2511018e-17
3.1339114e-12
4.802301e-12
3.9072345e-12
3.7113892e-12
3.4900563e-12
3.2689343e-12
3.0860176e-12
2.9387771e-12
2.8176146e-12
2.7124781e-12
2.6152719e-12
2.5197179e-12
2.4205067e-12
2.3123551e-12
2.1894936e-12
2.0461152e-12
1.8774965e-12
1.6811054e-12
1.4574312e-12
1.210553e-12
9.4809102e-13
6.8016475e-13
4.1759639e-13
1.7020184e-13
-5.3291874e-14
-2.4553296e-13
-4.0216545e-13
-5.2204638e-13
-6.0638074e-13
-6.5808466e-13
-6.8130496e-13
-6.8087837e-13
-6.617601e-13
-6.2866181e-13
-5.8576793e-13
-5.3661595e-13
-4.8410288e-13
-4.3049066e-13
-3.7749768e-13
-3.2637968e-13