/*--------------------------------*- C++ -*----------------------------------*\
| =========                 |                                                 |
| \\      /  F ield         | OpenFOAM: The Open Source CFD Toolbox           |
|  \\    /   O peration     | Version:  2506                                  |
|   \\  /    A nd           | Website:  www.openfoam.com                      |
|    \\/     M anipulation  |                                                 |
\*---------------------------------------------------------------------------*/
FoamFile
{
    version     2.0;
    format      ascii;
    arch        "LSB;label=32;scalar=64";
    class       volVectorField;
    location    "28000/water";
    object      U;
}
// * * * * * * * * * * * * * * * * * * * * * * * * * * * * * * * * * * * * * //

dimensions      [0 1 -1 0 0 0 0];

internalField   nonuniform List<vector> 
6000
(
(0.25028648 -3.4193492e-05 1.7133234e-18)
(0.25028875 -7.4648812e-05 -3.9491082e-18)
(0.25029344 -0.00011804414 -1.3436095e-18)
(0.25030059 -0.00016540046 -3.7127603e-19)
(0.25031046 -0.00021487336 2.2426251e-19)
(0.25032332 -0.00026685039 1.6538427e-19)
(0.25033948 -0.00032192175 1.3491281e-19)
(0.25035939 -0.00038078672 5.2167201e-20)
(0.25038356 -0.00044434477 -6.0723355e-20)
(0.25041254 -0.00051362452 -4.8601732e-20)
(0.25044587 -0.0005867756 -1.6394656e-19)
(0.25047643 -0.00065822056 -5.8709574e-21)
(0.25046276 -0.00078466513 4.4302808e-21)
(0.25013031 -0.0015987837 -1.6134787e-19)
(0.24584996 0.0019968142 4.4546922e-20)
(0.25104035 -3.7261304e-05 3.3821194e-18)
(0.25104514 -8.9895979e-05 -1.3439674e-18)
(0.2510558 -0.00014352114 -1.6936195e-18)
(0.25107219 -0.00020025424 -1.0419962e-19)
(0.2510947 -0.0002571822 9.46244e-19)
(0.25112368 -0.00031440571 3.080619e-19)
(0.25115965 -0.00037188242 -1.8013551e-19)
(0.25120324 -0.00042947839 2.1830683e-20)
(0.2512551 -0.00048709454 -1.3615425e-19)
(0.25131538 -0.00054561245 -7.3120354e-20)
(0.25138039 -0.00060405492 -3.6807603e-19)
(0.25142587 -0.00063755821 -9.5854292e-20)
(0.25133175 -0.00059164843 8.815374e-24)
(0.25037931 -0.0014370973 -8.5607135e-20)
(0.24194277 0.00099520264 4.5357797e-20)
(0.25195051 -3.6589029e-05 -2.7434551e-18)
(0.25195563 -9.0250613e-05 3.1013101e-18)
(0.25196731 -0.00014313025 1.9268697e-18)
(0.25198528 -0.00019912655 -2.0473105e-19)
(0.25200977 -0.00025508716 7.1735114e-19)
(0.25204101 -0.0003112558 -8.2490744e-19)
(0.25207932 -0.00036762123 -1.292889e-18)
(0.25212505 -0.00042413945 -1.0341311e-18)
(0.25217823 -0.00048056787 -8.7209307e-19)
(0.25223708 -0.0005377572 -1.4633018e-19)
(0.25229114 -0.00060007155 -7.9391702e-19)
(0.25229033 -0.00065419843 -4.6654226e-19)
(0.25200573 -0.00054460881 -4.2188147e-19)
(0.25014357 -0.0012195308 -1.093588e-19)
(0.23758495 0.00043820543 -7.6731521e-20)
(0.25283353 -3.7446604e-05 -2.387686e-19)
(0.25283867 -9.3611088e-05 -6.7791018e-19)
(0.25285018 -0.00014906892 2.0767809e-18)
(0.25286783 -0.00020791578 -4.828395e-19)
(0.25289182 -0.00026672308 5.8602841e-19)
(0.25292238 -0.00032582165 -4.7564925e-19)
(0.25295982 -0.00038519269 -5.4512359e-19)
(0.25300432 -0.00044485276 -6.741457e-19)
(0.25305525 -0.00050441426 -7.6298843e-19)
(0.25310809 -0.00056332944 6.4446825e-20)
(0.25314261 -0.00062607506 -6.1203889e-19)
(0.25307635 -0.00069910336 -2.9364697e-19)
(0.25255493 -0.0005845712 -3.7063862e-19)
(0.24963188 -0.001063787 -1.56811e-19)
(0.23320285 0.0001058672 -1.0957041e-19)
(0.25372643 -3.8342944e-05 1.0729016e-17)
(0.2537317 -9.6368691e-05 2.6794465e-18)
(0.25374347 -0.00015372841 1.933158e-18)
(0.25376156 -0.00021453144 7.4137652e-19)
(0.25378616 -0.00027516439 5.1640445e-19)
(0.25381749 -0.00033599427 7.6499703e-19)
(0.25385581 -0.00039694563 5.1166088e-19)
(0.25390101 -0.00045805575 2.4352311e-19)
(0.25395133 -0.00051907431 2.275683e-19)
(0.25399821 -0.00057855465 1.2046668e-19)
(0.25400834 -0.00063773998 4.3192997e-20)
(0.25386022 -0.0007177221 1.0032253e-19)
(0.25305737 -0.00062191547 1.7297965e-20)
(0.24895451 -0.00093835859 -8.4939882e-21)
(0.22897365 -8.3792338e-05 -3.7471317e-20)
(0.25464474 -3.866162e-05 1.4587707e-18)
(0.25465014 -9.7320119e-05 1.1893924e-18)
(0.2546622 -0.00015516462 7.0825538e-19)
(0.25468073 -0.00021648309 9.6893411e-19)
(0.2547059 -0.00027758564 -7.4870616e-19)
(0.25473792 -0.000338881 3.5135306e-19)
(0.25477689 -0.00040025681 2.4950084e-19)
(0.25482222 -0.000461728 1.2821673e-20)
(0.25487049 -0.00052322808 8.6534477e-20)
(0.2549078 -0.000583188 1.1624829e-19)
(0.25488519 -0.00063896641 1.9931436e-19)
(0.25463685 -0.00071821651 -9.3635011e-20)
(0.25350729 -0.0006469875 7.8523768e-20)
(0.248129 -0.00083894719 -3.0799572e-20)
(0.2249409 -0.00018589273 2.0804125e-20)
(0.25557031 -3.8595293e-05 -2.4777681e-18)
(0.25557581 -9.7309346e-05 -1.4327363e-18)
(0.25558805 -0.00015511983 -1.5329271e-18)
(0.25560682 -0.00021642526 5.3245046e-19)
(0.2556323 -0.00027749359 -1.4363186e-18)
(0.25566463 -0.00033876345 -1.4854368e-19)
(0.25570371 -0.00040009734 4.4416371e-19)
(0.25574825 -0.00046144626 1.6529877e-19)
(0.25579256 -0.00052279714 -9.7726715e-20)
(0.25581623 -0.0005828814 8.042625e-20)
(0.25575267 -0.00063600478 1.4154574e-19)
(0.25538743 -0.00071016267 -3.6488735e-21)
(0.25388915 -0.00066107344 1.5270026e-19)
(0.24716598 -0.00076077854 -2.3215909e-20)
(0.22112141 -0.00023459296 9.8331854e-20)
(0.25649134 -3.8297106e-05 3.9147472e-18)
(0.25649692 -9.6712128e-05 1.3822399e-18)
(0.25650928 -0.00015419069 1.6867009e-18)
(0.25652824 -0.00021515485 8.2911551e-19)
(0.25655393 -0.00027585718 -4.2521189e-19)
(0.25658641 -0.0003367553 -2.8442925e-19)
(0.25662528 -0.00039769653 6.9090809e-19)
(0.2566683 -0.00045856441 3.7932528e-19)
(0.25670691 -0.00051927104 1.9066414e-19)
(0.25671305 -0.00057893859 -1.9939526e-19)
(0.25660095 -0.00063003278 -5.1409929e-20)
(0.25610359 -0.00069722485 2.5728817e-21)
(0.25419746 -0.0006651972 8.0255543e-21)
(0.24608527 -0.00069788903 2.3685967e-20)
(0.21752738 -0.00025081848 4.4810473e-20)
(0.25740382 -3.7852859e-05 -2.505665e-18)
(0.25740947 -9.5689494e-05 -2.5884071e-18)
(0.25742193 -0.00015257331 1.5634387e-18)
(0.25744104 -0.00021291358 1.0212618e-18)
(0.25746687 -0.00027297291 2.9230235e-19)
(0.25749936 -0.0003332193 3.173613e-19)
(0.2575377 -0.00039348924 6.0782297e-19)
(0.2575784 -0.00045361302 5.3783466e-19)
(0.25760945 -0.00051335259 2.4915386e-19)
(0.25759421 -0.00057212213 2.2403145e-19)
(0.25742635 -0.00062159363 1.5266354e-19)
(0.25678237 -0.00068144217 -3.2789018e-20)
(0.25443121 -0.00066103685 -3.3565274e-20)
(0.24490935 -0.00064561644 -3.0423524e-20)
(0.21416513 -0.00024776584 2.564879e-20)
(0.25830515 -3.7308638e-05 -3.5490035e-19)
(0.25831084 -9.4372769e-05 -8.2493723e-19)
(0.25832339 -0.00015047649 -9.0595554e-19)
(0.2583426 -0.00020999612 6.5077467e-19)
(0.25836849 -0.00026922145 -6.2933308e-19)
(0.25840083 -0.00032862339 2.0232797e-19)
(0.25843826 -0.00038802595 2.0080549e-19)
(0.25847573 -0.00044722018 1.7051207e-19)
(0.25849727 -0.00050579279 2.387703e-19)
(0.25845683 -0.00056328987 2.7562109e-19)
(0.25822634 -0.00061131676 3.5382632e-19)
(0.25742154 -0.00066417743 2.0415809e-20)
(0.2545896 -0.00065044234 1.3782538e-20)
(0.24365871 -0.00060064453 -5.7986162e-20)
(0.21103455 -0.00023378679 -6.9301088e-20)
(0.259193 -3.669388e-05 6.0944524e-18)
(0.25919873 -9.285746e-05 5.2860711e-18)
(0.25921134 -0.00014806165 -1.8584559e-18)
(0.25923061 -0.00020663289 1.7885844e-19)
(0.25925648 -0.0002648995 9.3266876e-19)
(0.25928848 -0.00032332972 -5.8078483e-20)
(0.25932457 -0.00038173097 1.8927041e-20)
(0.25935785 -0.00043986308 3.3624451e-20)
(0.25936788 -0.00049714489 1.1540778e-19)
(0.25929853 -0.00055310431 -2.8273047e-19)
(0.2589988 -0.00059970361 2.2181997e-20)
(0.25801896 -0.00064623361 1.095095e-20)
(0.25467145 -0.00063499349 -4.564675e-20)
(0.24235144 -0.00056062195 -2.2889694e-20)
(0.20813123 -0.0002141088 -7.7734712e-20)
(0.26006576 -3.6034054e-05 5.0265582e-18)
(0.26007152 -9.1214285e-05 4.3214359e-18)
(0.26008417 -0.00014544281 -4.2704285e-19)
(0.26010346 -0.00020298347 -1.9423488e-19)
(0.26012923 -0.00026021093 8.2063565e-19)
(0.2601607 -0.0003175869 2.8825446e-19)
(0.26019497 -0.00037489796 8.2590089e-20)
(0.26022303 -0.0004318747 5.0804261e-20)
(0.26021952 -0.00048779066 3.7684153e-20)
(0.26011767 -0.00054204301 -1.02906e-19)
(0.25974224 -0.00058714002 -9.7307823e-20)
(0.25857279 -0.00062806077 1.3146852e-19)
(0.25467557 -0.00061594005 -5.7890009e-20)
(0.24100379 -0.00052390611 2.0267649e-20)
(0.20544863 -0.00019196316 7.9912614e-20)
(0.2609225 -3.5349633e-05 4.4592026e-18)
(0.26092828 -8.9497286e-05 3.4327349e-18)
(0.26094096 -0.00014270541 -2.3583346e-19)
(0.26096023 -0.00019916671 -4.936742e-19)
(0.2609858 -0.00025530722 7.0575844e-19)
(0.2610165 -0.00031157922 6.1921942e-19)
(0.26104844 -0.00036774517 2.4522712e-19)
(0.2610702 -0.00042350433 5.8036613e-20)
(0.26105114 -0.00047801113 4.8925381e-20)
(0.26091327 -0.00053046086 2.6052788e-20)
(0.2604557 -0.00057393662 5.540919e-20)
(0.2590814 -0.00060990566 2.2023259e-19)
(0.2546009 -0.00059424331 6.7662627e-20)
(0.23963056 -0.00048937354 2.1286221e-20)
(0.20297926 -0.00016931833 1.1496087e-20)
(0.26176274 -3.4655538e-05 1.9318892e-18)
(0.26176854 -8.7746856e-05 2.9710755e-18)
(0.26178122 -0.00013991377 -7.3617472e-19)
(0.26180042 -0.00019527246 -4.1070071e-19)
(0.26182568 -0.00025030306 3.1054411e-19)
(0.26185536 -0.00030544608 3.7633423e-19)
(0.26188442 -0.00036043768 3.8368241e-19)
(0.26189878 -0.00041494196 3.7292513e-19)
(0.26186213 -0.00046801763 7.622527e-20)
(0.2616848 -0.00051862213 -1.5201833e-21)
(0.26113855 -0.00056034346 2.0930763e-19)
(0.25954316 -0.00059189152 1.6662142e-19)
(0.25444651 -0.0005706321 1.1279273e-19)
(0.23824529 -0.00045627776 -4.1632957e-20)
(0.20071509 -0.00014735259 5.3556424e-21)
(0.26258633 -3.3963061e-05 2.8398081e-18)
(0.26259213 -8.5993781e-05 2.4263149e-18)
(0.26260479 -0.00013711719 3.6753636e-18)
(0.26262388 -0.00019136968 8.5681626e-19)
(0.2626487 -0.00024528655 -1.2680173e-18)
(0.26267708 -0.00029929459 2.1254286e-19)
(0.26270267 -0.00035310243 3.6674986e-19)
(0.26270848 -0.00040633486 5.2390675e-19)
(0.26265224 -0.00045797299 3.3955158e-19)
(0.26243199 -0.00050672605 1.2229884e-19)
(0.26179026 -0.00054656345 1.591351e-19)
(0.25995633 -0.0005740675 4.024191e-20)
(0.25421177 -0.00054566294 4.0243684e-20)
(0.23686046 -0.00042415213 1.2512129e-20)
(0.19864765 -0.0001267576 7.2964892e-21)
(0.26339335 -3.32814e-05 3.042944e-18)
(0.26339915 -8.4262741e-05 4.5907702e-18)
(0.26341177 -0.0001343551 2.7044251e-18)
(0.26343068 -0.0001875135 1.5856406e-18)
(0.26345493 -0.00024032822 1.1934123e-18)
(0.26348171 -0.00029321054 7.7478796e-19)
(0.2635032 -0.00034584107 1.1460803e-19)
(0.2634993 -0.00039780175 6.7024846e-20)
(0.26342146 -0.00044800829 1.4457584e-19)
(0.26315482 -0.00049492779 -9.5515531e-21)
(0.26241041 -0.00053276478 9.5589921e-20)
(0.26031893 -0.00055643964 4.7285011e-20)
(0.2538966 -0.000519773 3.358958e-20)
(0.23548766 -0.00039274464 4.2743628e-21)
(0.19676807 -0.00010792878 -4.4716659e-20)
(0.26418413 -3.2618312e-05 1.0820413e-18)
(0.26418991 -8.2574226e-05 2.8734825e-18)
(0.26420246 -0.00013166021 8.5577371e-19)
(0.26422112 -0.0001837496 6.5616194e-19)
(0.26424465 -0.00023548649 9.8582367e-19)
(0.2642695 -0.00028726512 5.8149034e-19)
(0.26428624 -0.00033873796 2.1023568e-19)
(0.26427145 -0.00038944152 1.1221066e-19)
(0.26416998 -0.0004382328 1.8243579e-19)
(0.26385341 -0.00048335173 -1.9806418e-20)
(0.26299854 -0.00051908846 2.8410491e-19)
(0.26062878 -0.00053898815 1.0002993e-19)
(0.25350187 -0.00049331965 8.7713719e-20)
(0.2341376 -0.00036197184 -1.6202745e-20)
(0.19506692 -9.1079356e-05 -2.6016627e-20)
(0.26495914 -3.1980324e-05 1.7639965e-18)
(0.2649649 -8.0945389e-05 2.5255209e-18)
(0.26497734 -0.00012905989 1.4380648e-18)
(0.26499568 -0.00018011622 1.0129238e-18)
(0.26501831 -0.00023081031 1.1313292e-18)
(0.26504088 -0.00028151807 5.8589682e-19)
(0.2650522 -0.00033186392 2.7454081e-19)
(0.2650253 -0.00038133727 2.0532227e-19)
(0.26489816 -0.00042873842 3.3695554e-19)
(0.26452796 -0.00047209828 1.7724238e-19)
(0.26355413 -0.00050565096 1.3192031e-19)
(0.2608835 -0.00052167636 1.6423402e-19)
(0.25302971 -0.00046660631 5.3153105e-20)
(0.23282016 -0.00033188327 3.8996243e-20)
(0.19353413 -7.6303786e-05 7.6286662e-20)
(0.26571903 -3.1372765e-05 4.2731539e-18)
(0.26572475 -7.9390278e-05 2.4237206e-18)
(0.26573705 -0.00012657658 -2.1607652e-19)
(0.26575498 -0.00017664472 9.0116642e-19)
(0.26577653 -0.00022633987 1.1123307e-18)
(0.26579644 -0.0002760185 8.769261e-19)
(0.26580163 -0.0003252772 4.3852311e-19)
(0.26576141 -0.00037355728 7.0589832e-20)
(0.26560652 -0.00041960061 4.4266379e-20)
(0.26517878 -0.00046124611 2.1943365e-19)
(0.26407657 -0.00049254343 5.0352985e-20)
(0.26108058 -0.00050445572 1.4175822e-19)
(0.25248384 -0.00043989699 -5.7522501e-21)
(0.23154421 -0.00030262987 2.2073189e-20)
(0.19215888 -6.3609731e-05 1.4348826e-19)
(0.26646455 -3.0799672e-05 7.8344776e-18)
(0.26647021 -7.791971e-05 9.3625211e-19)
(0.26648233 -0.00012422759 3.6947158e-18)
(0.26649975 -0.0001733593 1.7185705e-18)
(0.26652002 -0.00022210618 -2.7894787e-19)
(0.26653688 -0.0002708044 1.1136318e-18)
(0.26653522 -0.00031902283 1.3830835e-18)
(0.26648042 -0.00036615421 1.1443761e-18)
(0.26629564 -0.00041087723 5.1136575e-19)
(0.26580617 -0.00045085191 -1.7805622e-19)
(0.26456508 -0.00047982866 4.9795311e-19)
(0.26121753 -0.00048726982 3.0765131e-19)
(0.25186982 -0.00041342264 2.4391251e-19)
(0.23031742 -0.00027443217 1.8770347e-19)
(0.1909297 -5.2932834e-05 2.208786e-19)
(0.26719653 -3.0263687e-05 2.405846e-18)
(0.26720212 -7.6541022e-05 -4.4501916e-19)
(0.26721401 -0.00012202465 2.7518984e-18)
(0.26723083 -0.00017027641 1.7549598e-18)
(0.2672496 -0.00021813033 1.0684768e-18)
(0.26726299 -0.00026590165 1.106586e-18)
(0.26725373 -0.0003131315 1.1322094e-18)
(0.26718309 -0.00035916374 1.0358148e-18)
(0.26696618 -0.00040260692 4.8997934e-19)
(0.26641044 -0.00044094906 -1.2681066e-19)
(0.26501868 -0.00046753759 4.4519202e-19)
(0.26129202 -0.00047005901 3.3933755e-19)
(0.25119506 -0.00038738325 3.6861791e-19)
(0.2291461 -0.00024754677 1.8793964e-19)
(0.18983455 -4.4145099e-05 1.4669743e-19)
(0.26791589 -2.9765992e-05 -1.8381201e-18)
(0.26792138 -7.5257932e-05 1.4209508e-18)
(0.26793299 -0.00011997376 2.6814324e-19)
(0.26794908 -0.00016740448 7.0619201e-19)
(0.26796613 -0.00021442312 1.1984755e-18)
(0.26797562 -0.00026132351 5.6563027e-19)
(0.267958 -0.00030761887 2.3968313e-19)
(0.26787018 -0.00035260382 1.8715436e-19)
(0.2676188 -0.00039480805 9.6841543e-21)
(0.2669918 -0.00043154706 -4.5833806e-20)
(0.26543617 -0.00045566687 -2.4534538e-20)
(0.2613021 -0.00045276643 1.089813e-19)
(0.2504687 -0.00036194908 1.3566762e-19)
(0.22803501 -0.00022223217 5.7685497e-20)
(0.18886112 -3.7064085e-05 6.6920612e-20)
(0.26862352 -2.9306383e-05 6.1822144e-18)
(0.2686289 -7.4070661e-05 2.1879073e-18)
(0.26864017 -0.00011807532 2.7674659e-18)
(0.26865542 -0.00016474412 2.6395385e-18)
(0.26867049 -0.00021098533 1.2345271e-18)
(0.26867563 -0.000257071 1.2806122e-18)
(0.26864885 -0.00030248606 9.6823882e-19)
(0.26854251 -0.00034647515 9.3717905e-19)
(0.26825414 -0.00038747924 5.4640834e-19)
(0.26755035 -0.00042263245 -1.746154e-19)
(0.2658161 -0.00044417905 2.6141817e-19)
(0.26124652 -0.00043534493 3.4087607e-19)
(0.24970133 -0.00033726333 3.0252526e-19)
(0.22698727 -0.00019871676 3.3941597e-19)
(0.18799711 -3.1466398e-05 3.4569404e-19)
(0.26932033 -2.8883461e-05 3.6179145e-18)
(0.26932558 -7.2976356e-05 -1.4520335e-18)
(0.26933645 -0.00011632481 3.2007351e-19)
(0.26935072 -0.00016228909 1.7097795e-18)
(0.26936357 -0.0002078089 1.4651803e-18)
(0.26936389 -0.00025313433 1.1356404e-18)
(0.26932713 -0.0002977213 1.2029031e-18)
(0.26920083 -0.00034076321 7.8984826e-19)
(0.2688728 -0.00038060158 4.4425257e-19)
(0.26808605 -0.00041417146 4.0894491e-19)
(0.26615679 -0.00043300583 3.5820847e-19)
(0.26112496 -0.00041776402 4.4002393e-19)
(0.24890441 -0.00031344658 4.5388009e-19)
(0.22600436 -0.0001771726 4.1207185e-19)
(0.18723056 -2.7105585e-05 2.5280957e-19)
(0.27000719 -2.849491e-05 1.2881717e-18)
(0.27001228 -7.1969743e-05 2.4206498e-18)
(0.27002267 -0.00011471384 1.8553013e-18)
(0.27003582 -0.00016002771 1.1121195e-18)
(0.27004618 -0.00020487885 3.1621421e-19)
(0.27004119 -0.00024949516 1.2895593e-18)
(0.2699936 -0.00029330262 1.1846858e-18)
(0.26984584 -0.00033544136 7.6904122e-19)
(0.26947524 -0.00037414208 5.2220625e-19)
(0.2685986 -0.00040611399 4.3857201e-19)
(0.26645635 -0.00042205446 3.2061879e-19)
(0.2609383 -0.00040001524 4.0201178e-19)
(0.24808975 -0.00029060213 5.7739531e-19)
(0.22508629 -0.00015769827 5.3721016e-19)
(0.18655015 -2.3732128e-05 1.9860806e-19)
(0.27068489 -2.8137825e-05 6.8549149e-18)
(0.2706898 -7.1043906e-05 3.4747938e-18)
(0.27069965 -0.00011323138 4.408406e-18)
(0.27071153 -0.00015794462 3.0695859e-18)
(0.2707191 -0.00020217545 9.2552113e-19)
(0.27070829 -0.00024612933 2.1338386e-18)
(0.27064898 -0.00028920108 1.8288503e-18)
(0.27047818 -0.00033047455 1.5994141e-18)
(0.27006181 -0.00036805783 1.1544595e-18)
(0.26908753 -0.00039839812 -4.2426508e-20)
(0.26671278 -0.00041121648 5.08381e-19)
(0.26068881 -0.00038211515 6.7540821e-19)
(0.24726882 -0.00026882041 7.4821013e-19)
(0.22423175 -0.00014031231 6.7185511e-19)
(0.18594537 -2.1112146e-05 4.4709802e-19)
(0.27135418 -2.7809012e-05 1.2275432e-18)
(0.27135887 -7.019104e-05 4.1712817e-18)
(0.2713681 -0.00011186497 3.4206958e-18)
(0.27137855 -0.00015602247 2.3410687e-18)
(0.27138303 -0.00019967637 2.5354215e-18)
(0.27136587 -0.00024300948 1.1025587e-18)
(0.27129391 -0.00028538386 1.4089898e-18)
(0.27109836 -0.000325823 1.1141854e-18)
(0.27063272 -0.00036230005 4.8661278e-19)
(0.26955206 -0.00039095432 5.3539195e-20)
(0.26692403 -0.00040037783 2.1068933e-19)
(0.26038022 -0.00036410564 4.6273616e-19)
(0.24645221 -0.00024818088 3.0770066e-19)
(0.22343841 -0.00012495718 2.7439114e-19)
(0.18540672 -1.904183e-05 2.8476646e-19)
(0.27201571 -2.7505235e-05 3.1485585e-18)
(0.27202015 -6.9403099e-05 4.2711694e-18)
(0.27202866 -0.00011060176 3.9005947e-18)
(0.27203751 -0.00015424331 2.6963574e-18)
(0.2720386 -0.00019735858 2.4886632e-18)
(0.27201452 -0.00024010733 1.5687e-18)
(0.27192892 -0.00028181693 1.5716481e-18)
(0.2717068 -0.00032144525 1.0364835e-18)
(0.27118802 -0.00035681747 4.4081873e-19)
(0.2699912 -0.00038370884 2.2800357e-19)
(0.26708822 -0.000389429 3.1169511e-19)
(0.26001771 -0.00034605163 3.9803899e-19)
(0.24564917 -0.00022875086 4.1825674e-19)
(0.22270325 -0.00011151161 3.4736943e-19)
(0.18492573 -1.7355843e-05 1.9356838e-19)
(0.27267005 -2.7223403e-05 3.3597497e-18)
(0.27267421 -6.8672268e-05 1.0203614e-18)
(0.27268192 -0.00010942927 1.513821e-18)
(0.27268898 -0.00015258973 2.4365846e-18)
(0.27268634 -0.00019519966 2.4493913e-18)
(0.27265476 -0.00023739527 1.8579174e-18)
(0.27255447 -0.00027846699 1.3114878e-18)
(0.2723038 -0.00031730047 8.5036164e-19)
(0.27172757 -0.00035155883 6.5526715e-19)
(0.27040369 -0.00037658611 6.1132638e-19)
(0.26720375 -0.00037827411 2.5569919e-19)
(0.25960771 -0.00032803713 4.0015387e-19)
(0.24486735 -0.00021058183 4.1358746e-19)
(0.22202277 -9.9808138e-05 3.7998252e-19)
(0.18449494 -1.5929484e-05 2.2205373e-19)
(0.27331772 -2.6960666e-05 3.2461579e-19)
(0.27332155 -6.7991274e-05 4.3382615e-18)
(0.27332837 -0.00010833587 2.5917277e-18)
(0.27333345 -0.00015104547 2.2132083e-18)
(0.27332673 -0.00019317869 1.5013821e-18)
(0.27328702 -0.00023484751 1.7872823e-18)
(0.27317093 -0.0002753027 1.1848343e-18)
(0.27288957 -0.00031334989 8.3412274e-19)
(0.27225107 -0.00034647442 7.9537268e-19)
(0.27078808 -0.00036951039 7.0473478e-19)
(0.26726952 -0.00036683813 2.2716501e-19)
(0.25915765 -0.0003101602 3.0529353e-19)
(0.24411266 -0.00019370463 2.9926901e-19)
(0.22139331 -8.96524e-05 2.9272482e-19)
(0.1841079 -1.4675689e-05 2.0541235e-19)
(0.27395916 -2.6714475e-05 6.3093434e-18)
(0.27396262 -6.7353542e-05 4.214961e-18)
(0.27396843 -0.00010731104 4.9021023e-18)
(0.27397134 -0.00014959583 3.8428902e-18)
(0.27396016 -0.00019127671 1.7066961e-18)
(0.27391168 -0.00023244055 2.2930696e-18)
(0.2737786 -0.00027229533 1.9957138e-18)
(0.27346419 -0.00030955757 1.7540884e-18)
(0.27275806 -0.00034151676 1.2995237e-18)
(0.27114274 -0.00036240704 4.7237858e-19)
(0.26728512 -0.00035507155 6.1576682e-19)
(0.25867552 -0.00029252748 6.3100513e-19)
(0.24338933 -0.00017812521 7.4467411e-19)
(0.22081116 -8.0841191e-05 6.0974387e-19)
(0.18375901 -1.3538667e-05 4.372907e-19)
(0.27459475 -2.648259e-05 9.7415592e-19)
(0.2745978 -6.675326e-05 4.5080472e-18)
(0.27460249 -0.0001063455 3.3567496e-18)
(0.274603 -0.0001482278 2.3313127e-18)
(0.27458699 -0.00018947691 3.0562534e-18)
(0.27452902 -0.00023015345 1.4899239e-18)
(0.27437767 -0.00026941895 1.4364899e-18)
(0.27402763 -0.00030589064 1.3972215e-18)
(0.27324789 -0.00033664079 9.0540736e-19)
(0.27146593 -0.0003552038 5.5982357e-19)
(0.26725094 -0.00034295249 4.7919891e-19)
(0.25816956 -0.00027524859 4.3782721e-19)
(0.24270004 -0.00016382254 3.2661493e-19)
(0.22027275 -7.3177108e-05 4.1622556e-19)
(0.18344349 -1.2486088e-05 3.6223837e-19)
(0.27522481 -2.6263071e-05 2.3522998e-18)
(0.27522741 -6.6185368e-05 4.1706754e-18)
(0.27523087 -0.00010543114 3.114232e-18)
(0.27522875 -0.00014693 2.7281518e-18)
(0.27520748 -0.00018776456 2.4934463e-18)
(0.2751393 -0.00022796774 1.5541933e-18)
(0.27496829 -0.00026665041 1.3955709e-18)
(0.27457978 -0.00030231921 1.0132109e-18)
(0.27371976 -0.0003318036 1.0506928e-18)
(0.27175586 -0.00034783257 6.724255e-19)
(0.26716832 -0.00033048644 5.4537586e-19)
(0.25764777 -0.0002584306 4.7745471e-19)
(0.24204621 -0.0001507494 2.5413478e-19)
(0.21977469 -6.6478883e-05 3.7605723e-19)
(0.18315725 -1.150142e-05 3.0092275e-19)
(0.27584964 -2.6054261e-05 4.4943558e-18)
(0.27585173 -6.5645511e-05 3.9072759e-19)
(0.27585383 -0.00010456099 2.1762338e-18)
(0.27584885 -0.00014569263 2.8759172e-18)
(0.27582189 -0.00018612688 2.0892053e-18)
(0.2757427 -0.00022586725 1.4876168e-18)
(0.27555053 -0.00026396905 1.0887232e-18)
(0.27512041 -0.00029881616 9.7984293e-19)
(0.27417268 -0.00032696406 9.6209273e-19)
(0.27201082 -0.00034023144 9.6671445e-19)
(0.26703956 -0.00031770398 5.7059555e-19)
(0.25711762 -0.00024217267 4.5962109e-19)
(0.24142819 -0.00013883591 4.2528284e-19)
(0.21931381 -6.0587302e-05 4.2706086e-19)
(0.18289682 -1.0577469e-05 3.2845646e-19)
(0.27646948 -2.5854749e-05 3.5202366e-18)
(0.27647102 -6.5129981e-05 4.6361255e-18)
(0.27647162 -0.00010372909 4.0808276e-18)
(0.27646352 -0.00014450731 2.3619462e-18)
(0.2764304 -0.00018455289 1.572439e-18)
(0.27633935 -0.00022383791 1.8638366e-18)
(0.27612438 -0.00026135649 1.2530715e-18)
(0.27564919 -0.00029535665 1.1236349e-18)
(0.27460555 -0.00032208226 8.6554226e-19)
(0.27222923 -0.0003323472 7.9936556e-19)
(0.26686787 -0.00030465719 6.8644483e-19)
(0.25658579 -0.00022656125 4.7825611e-19)
(0.2408456 -0.00012799526 5.0285369e-19)
(0.21888719 -5.5367365e-05 4.0676061e-19)
(0.18265925 -9.7115791e-06 3.8484472e-19)
(0.27708455 -2.5663344e-05 5.6186305e-18)
(0.27708548 -6.4635631e-05 4.9031271e-18)
(0.27708444 -0.0001029304 5.0071359e-18)
(0.27707295 -0.00014336686 3.5854059e-18)
(0.27703318 -0.00018303314 2.3674872e-18)
(0.27692935 -0.00022186743 2.6830045e-18)
(0.2766898 -0.00025879623 1.8570388e-18)
(0.27616569 -0.00029191777 1.5151193e-18)
(0.27501711 -0.00031711916 1.1362826e-18)
(0.27240981 -0.00032413774 4.1369561e-19)
(0.26665728 -0.00029141517 9.104344e-19)
(0.256058 -0.00021166603 1.0283723e-18)
(0.24029748 -0.00011813047 8.0159903e-19)
(0.21849214 -5.0707641e-05 7.6657945e-19)
(0.18244204 -8.9025324e-06 5.2133408e-19)
(0.27769504 -2.5479044e-05 9.5694211e-19)
(0.27769529 -6.4159806e-05 3.8238798e-18)
(0.27769247 -0.00010216064 2.8816705e-18)
(0.27767729 -0.00014226521 2.2072065e-18)
(0.27763035 -0.0001815595 3.0098091e-18)
(0.27751275 -0.00021994503 1.503427e-18)
(0.27724666 -0.00025627339 1.2024741e-18)
(0.27666938 -0.00028847797 8.841842e-19)
(0.275406 -0.00031203634 6.8364645e-19)
(0.27255164 -0.0003155742 3.8347991e-19)
(0.26641246 -0.00027805925 3.6582905e-19)
(0.25553894 -0.0001975371 5.8287147e-19)
(0.23978254 -0.00010914112 3.6084578e-19)
(0.21812621 -4.651786e-05 3.6177445e-19)
(0.18224308 -8.1488536e-06 2.9143573e-19)
(0.27830111 -2.5301005e-05 2.756783e-18)
(0.27830062 -6.3700269e-05 4.8740726e-18)
(0.27829586 -0.0001014162 3.0675811e-18)
(0.2782767 -0.00014119716 2.3548656e-18)
(0.278222 -0.00018012493 2.7385378e-18)
(0.27808956 -0.00021806116 1.4044844e-18)
(0.2777948 -0.00025377436 1.3150979e-18)
(0.27715962 -0.0002850166 8.7694584e-19)
(0.27577079 -0.00030679609 8.3429383e-19)
(0.27265429 -0.00030664248 4.9059626e-19)
(0.26613848 -0.00026467813 3.2441506e-19)
(0.2550323 -0.00018420368 4.0947079e-19)
(0.23929925 -0.00010092916 4.6741519e-19)
(0.21778713 -4.2725644e-05 2.3512383e-19)
(0.18206056 -7.4481422e-06 3.1472301e-19)
(0.27890291 -2.5128516e-05 3.0640787e-18)
(0.27890162 -6.3255127e-05 2.0764845e-18)
(0.27889474 -0.00010069401 1.7441463e-18)
(0.27887126 -0.00014015826 2.2757578e-18)
(0.27880821 -0.00017872332 2.5395588e-18)
(0.27865976 -0.00021620724 1.8144882e-18)
(0.27833397 -0.00025128651 1.1735839e-18)
(0.27763569 -0.00028151345 1.024223e-18)
(0.27611001 -0.00030136188 8.2680112e-19)
(0.2727179 -0.00029734386 8.9326613e-19)
(0.26584062 -0.00025136317 5.7498504e-19)
(0.25454084 -0.00017167439 3.7230811e-19)
(0.23884602 -9.340316e-05 5.1367556e-19)
(0.21747286 -3.9273087e-05 4.2229362e-19)
(0.18189296 -6.7970328e-06 3.7391244e-19)
(0.27950056 -2.4960972e-05 -1.9315147e-18)
(0.2794984 -6.2822774e-05 2.950379e-18)
(0.27948922 -9.9991431e-05 1.4094027e-18)
(0.27946108 -0.00013914466 1.4134058e-18)
(0.279389 -0.00017734922 2.1550036e-18)
(0.27922329 -0.00021437542 1.3287152e-18)
(0.27886389 -0.00024879793 7.392221e-19)
(0.27809674 -0.00027794828 5.0709604e-19)
(0.27642222 -0.00029569921 2.7978273e-19)
(0.27274323 -0.00028769474 7.6387438e-19)
(0.2655241 -0.00023820407 3.1470891e-19)
(0.25406651 -0.00015993912 1.0134353e-19)
(0.23842119 -8.6481052e-05 1.4526153e-19)
(0.21718151 -3.6113612e-05 1.3878049e-19)
(0.18173897 -6.1914738e-06 1.7223747e-19)
(0.28009418 -2.4797856e-05 -1.9139048e-18)
(0.28009107 -6.2401833e-05 2.9723029e-18)
(0.28007941 -9.9306213e-05 3.2568272e-18)
(0.28004623 -0.00013815299 2.2206897e-18)
(0.27996442 -0.00017599777 2.1689851e-18)
(0.27978006 -0.00021255837 1.2385441e-18)
(0.2793842 -0.00024629715 8.5086693e-19)
(0.27854186 -0.00027430051 5.0831e-19)
(0.27670605 -0.00028977676 3.7832204e-19)
(0.27273166 -0.0002777256 7.8309296e-19)
(0.26519392 -0.00022528491 2.5476178e-19)
(0.25361059 -0.00014897206 3.3677985e-19)
(0.23802316 -8.0091232e-05 3.0277288e-19)
(0.21691137 -3.3209339e-05 1.3621135e-19)
(0.18159747 -5.6270979e-06 1.6247055e-19)
(0.28068388 -2.4638721e-05 2.8355839e-18)
(0.28067974 -6.1991114e-05 4.9631001e-18)
(0.28066539 -9.8636369e-05 3.8047567e-18)
(0.28062676 -0.00013718022 2.5038624e-18)
(0.28053445 -0.00017466447 1.617454e-18)
(0.28032993 -0.00021074911 1.1449028e-18)
(0.27989449 -0.00024377295 7.785594e-19)
(0.27897002 -0.0002705489 4.3990534e-19)
(0.27696025 -0.00028356785 5.6704732e-19)
(0.27268518 -0.00026747915 6.7087848e-19)
(0.26485469 -0.00021268092 4.4397317e-19)
(0.25317379 -0.00013873548 4.3446715e-19)
(0.23765034 -7.4172516e-05 1.6540047e-19)
(0.2166609 -3.052903e-05 1.7809037e-19)
(0.18146749 -5.0995652e-06 1.5680463e-19)
(0.28126974 -2.4483172e-05 5.6884121e-18)
(0.28126449 -6.1589566e-05 7.2400938e-18)
(0.28124722 -9.7980135e-05 3.203839e-18)
(0.28120271 -0.00013622363 1.2636435e-18)
(0.28109907 -0.00017334514 5.8969309e-19)
(0.28087275 -0.00020894082 3.3519569e-19)
(0.28039427 -0.00024121406 8.921643e-23)
(0.27938014 -0.00026667151 -1.1997055e-19)
(0.27718382 -0.00027705191 1.2640284e-19)
(0.27260633 -0.00025700811 1.7229383e-19)
(0.26451052 -0.00020045586 7.9642544e-20)
(0.25275643 -0.00012918378 -7.2154261e-20)
(0.23730122 -6.8673276e-05 -2.9576748e-19)
(0.21642866 -2.804656e-05 -8.4828224e-20)
(0.18134818 -4.6048121e-06 -7.5108472e-20)
(0.28185185 -2.4330856e-05 4.6522098e-18)
(0.28184539 -6.119625e-05 5.5250717e-18)
(0.28182498 -9.7335907e-05 3.39846e-18)
(0.28177412 -0.00013528067 1.4429074e-18)
(0.28165823 -0.00017203573 1.0396591e-18)
(0.2814083 -0.00020712676 4.7178631e-19)
(0.28088299 -0.00023860899 1.3858475e-19)
(0.27977106 -0.0002626457 -8.0641375e-20)
(0.27737601 -0.00027021574 -3.9462302e-20)
(0.27249806 -0.00024637257 1.3095462e-19)
(0.26416497 -0.0001886604 -1.4273591e-19)
(0.2523585 -0.00012026722 -1.6144317e-19)
(0.23697438 -6.3550127e-05 -2.8569666e-19)
(0.21621337 -2.5739817e-05 -1.2120113e-19)
(0.18123881 -4.1392044e-06 -1.0773975e-19)
(0.28243029 -2.4181448e-05 4.3445854e-18)
(0.28242252 -6.0810308e-05 4.8926833e-18)
(0.28239871 -9.6702197e-05 4.1858419e-18)
(0.28234099 -0.00013434892 2.6037865e-18)
(0.28221186 -0.00017073227 2.2548665e-18)
(0.28193636 -0.00020530013 1.2919259e-18)
(0.28136003 -0.00023594579 7.8135582e-19)
(0.2801416 -0.00025844846 4.0411655e-19)
(0.27753642 -0.00026305461 1.7865565e-19)
(0.27236366 -0.00023563725 1.5381238e-20)
(0.26382105 -0.00017733136 1.3322206e-19)
(0.25197976 -0.0001119352 1.939344e-19)
(0.23666845 -5.8766491e-05 -1.957005e-20)
(0.21601387 -2.3589921e-05 -1.0396544e-20)
(0.1811387 -3.6995983e-06 8.3464711e-20)
(0.28300512 -2.4034647e-05 4.8267777e-18)
(0.28299594 -6.0430938e-05 2.6333323e-18)
(0.28296845 -9.6077596e-05 3.6632366e-18)
(0.28290332 -0.00013342601 2.231229e-18)
(0.28275987 -0.00016943078 2.0065642e-18)
(0.28245663 -0.00020345398 8.9286151e-19)
(0.28182471 -0.00023321186 6.2764739e-19)
(0.28049057 -0.0002540569 6.8650513e-19)
(0.27766504 -0.00025557285 2.1881209e-19)
(0.27220658 -0.0002248688 5.1002312e-19)
(0.26348123 -0.00016649191 1.19823e-19)
(0.25161982 -0.00010413863 -1.006033e-20)
(0.23638216 -5.4291232e-05 -1.1628319e-20)
(0.21582908 -2.1580661e-05 -7.1631677e-20)
(0.18104728 -3.2833427e-06 1.1129332e-19)
(0.2835764 -2.3890166e-05 3.7643803e-18)
(0.28356569 -6.0057378e-05 3.3262491e-18)
(0.28353424 -9.5460738e-05 3.1468119e-18)
(0.2834611 -0.00013250962 2.4310263e-18)
(0.28330215 -0.00016812719 1.8837523e-18)
(0.28296879 -0.00020158114 8.3577617e-19)