/*--------------------------------*- C++ -*----------------------------------*\
| =========                 |                                                 |
| \\      /  F ield         | OpenFOAM: The Open Source CFD Toolbox           |
|  \\    /   O peration     | Version:  2506                                  |
|   \\  /    A nd           | Website:  www.openfoam.com                      |
|    \\/     M anipulation  |                                                 |
\*---------------------------------------------------------------------------*/
FoamFile
{
    version     2.0;
    format      ascii;
    arch        "LSB;label=32;scalar=64";
    class       volScalarField;
    location    "2000/water";
    object      alphat;
}
// * * * * * * * * * * * * * * * * * * * * * * * * * * * * * * * * * * * * * //

dimensions      [1 -1 -1 0 0 0 0];

internalField   nonuniform List<scalar> 
2600
(
0.040489031
0.04048893
0.040488932
0.040488969
0.04048893
0.040488424
0.040485257
0.04046703
0.040362559
0.039762099
0.036475623
0.024118064
0.014862723
0.039376404
0.039376463
0.039376584
0.03937667
0.03937627
0.039373342
0.039357935
0.03928206
0.038918252
0.037247647
0.030707814
0.017504579
0.016810247
0.03845331
0.038453299
0.038453385
0.038453188
0.038451259
0.038441479
0.038397507
0.038208927
0.037432867
0.034484227
0.025768479
0.01464355
0.017680736
0.037674097
0.037673994
0.037673876
0.037672833
0.03766736
0.037643826
0.037549741
0.037190974
0.035896577
0.031717985
0.022022178
0.013507107
0.017935556
0.037006829
0.037006634
0.03700605
0.037003229
0.036991211
0.03694503
0.036777672
0.036201229
0.034343725
0.029136321
0.019390213
0.01332192
0.01787019
0.036428097
0.036427705
0.036426239
0.036420305
0.036397905
0.036319194
0.03605724
0.035231095
0.03281421
0.026833154
0.017684561
0.01376901
0.017658004
0.035920433
0.035919673
0.03591673
0.035905979
0.035868817
0.035747845
0.035374204
0.034281783
0.031338745
0.024847734
0.016751764
0.014701365
0.017395975
0.035470606
0.03546924
0.035464057
0.035446499
0.035390052
0.035218253
0.034721129
0.033357857
0.029935921
0.02320089
0.016491475
0.016024754
0.017137191
0.035068412
0.03506614
0.035057811
0.035031314
0.034951338
0.034722033
0.034094772
0.032463227
0.028616047
0.021918168
0.016839593
0.01764423
0.016909598
0.034705855
0.034702323
0.034689851
0.034652315
0.034545228
0.034254009
0.03349406
0.031599319
0.027389013
0.021039007
0.017742707
0.01944683
0.016725717
0.034376582
0.0343714
0.034353768
0.03430331
0.034166516
0.033811296
0.032918608
0.030765036
0.026274288
0.020612421
0.019134169
0.021310298
0.0165878
0.034075484
0.034068256
0.034044512
0.033979658
0.033811775
0.033392551
0.032367695
0.029958513
0.025310236
0.020682513
0.02092045
0.023125093
0.01649134
0.03379842
0.033788771
0.033758129
0.033677993
0.033478994
0.032997353
0.031839672
0.029180919
0.024557973
0.021270679
0.022983308
0.024813263
0.016428198
0.033542011
0.033529635
0.033491576
0.033396025
0.033167279
0.032625685
0.031331905
0.02844226
0.024095307
0.02236241
0.02519592
0.026333969
0.016389375
0.033303501
0.033288203
0.033242589
0.033132389
0.0328766
0.032277488
0.030841496
0.027768047
0.024001078
0.023903802
0.027443847
0.027676786
0.016366908
0.033080659
0.033062404
0.03300959
0.032886524
0.032607559
0.031952311
0.030367144
0.027204004
0.02433601
0.025808535
0.029640409
0.028850257
0.01635471
0.032871707
0.032850677
0.032791627
0.032658586
0.032361164
0.031649138
0.029912405
0.026815112
0.025128026
0.027972561
0.031731261
0.029871995
0.016348606
0.032675278
0.032651931
0.032588332
0.032449362
0.032138606
0.031366538
0.029490156
0.026676983
0.026366619
0.030291378
0.033689748
0.030762439
0.016345973
0.032490392
0.032465523
0.0323999
0.032260198
0.031941021
0.031103392
0.029127149
0.026861558
0.028006318
0.032674377
0.035508202
0.031541613
0.016345289
0.03231644
0.032291251
0.032227075
0.032092906
0.0317693
0.030860473
0.028866521
0.027422391
0.029976609
0.035052625
0.037189756
0.032227633
0.016345749
0.032153193
0.032129366
0.032071151
0.03194966
0.031623986
0.030643051
0.0287659
0.028384665
0.032194872
0.037379728
0.038742713
0.032836119
0.016346971
0.032000817
0.031980587
0.031933965
0.031832869
0.031505423
0.030464305
0.028890208
0.029742267
0.034578894
0.039628038
0.040177388
0.03338011
0.016348812
0.031859898
0.031846136
0.031817892
0.031745018
0.031414332
0.030348687
0.029300794
0.031461307
0.037056242
0.04178322
0.041504536
0.033870256
0.016351246
0.031731488
0.031727775
0.031725824
0.031688525
0.031353059
0.030333688
0.030044461
0.033487922
0.039569149
0.043839374
0.042734578
0.034315152
0.016354289
0.031617156
0.031627852
0.031661123
0.031665646
0.031327616
0.030468389
0.031145809
0.03575786
0.042075205
0.045795593
0.043877212
0.034721702
0.016357969
0.031519059
0.031549348
0.031627545
0.031678558
0.031350385
0.030808114
0.032604581
0.038205561
0.044545296
0.047653851
0.044941233
0.035095453
0.016362308
0.03144002
0.031495925
0.031629136
0.031729781
0.031442846
0.031406231
0.03439778
0.040771059
0.046960463
0.049417769
0.045934484
0.035440885
0.01636731
0.031383622
0.031471952
0.031670108
0.031823119
0.031637179
0.032305485
0.036485147
0.043403914
0.049308922
0.051091863
0.046863894
0.035761637
0.016372969
0.03135431
0.031482519
0.031754745
0.031965285
0.031975483
0.033531426
0.03881623
0.046064359
0.051583767
0.052681065
0.047735561
0.036060692
0.016379266
0.031357497
0.031533412
0.031887427
0.032168112
0.032505944
0.035089407
0.041337342
0.048722488
0.053781402
0.054190402
0.048554836
0.036340517
0.016386174
0.03139966
0.031631057
0.032072922
0.032450915
0.033276473
0.036965349
0.043997165
0.05135652
0.055900492
0.055624808
0.04932644
0.036603249
0.016393659
0.031488427
0.031782429
0.032317111
0.0328421
0.034327509
0.039129413
0.046750329
0.053950899
0.057941206
0.056988871
0.050054079
0.036848496
0.016401672
0.031632621
0.031994974
0.032628309
0.033378944
0.035685987
0.041541298
0.049558964
0.056494682
0.059904718
0.058286904
0.050741227
0.037078062
0.016410157
0.031842265
0.032276622
0.033019164
0.03410484
0.037361928
0.044155834
0.052392713
0.058980325
0.061792815
0.059522757
0.051390027
0.037293993
0.01641906
0.032128531
0.032636023
0.033508773
0.035064182
0.03934811
0.046927805
0.055227858
0.061402782
0.063607641
0.060699937
0.052002677
0.037497696
0.016428334
0.032503671
0.033083206
0.034124299
0.036296101
0.041622404
0.049815357
0.058046134
0.06375886
0.065351545
0.061821638
0.05258258
0.037690193
0.016437945
0.032981003
0.033630799
0.034901062
0.037828735
0.044151816
0.052781869
0.060833584
0.066046678
0.0670267
0.062889499
0.053132468
0.03787253
0.016447871
0.033575097
0.034295808
0.03588037
0.039675452
0.046897156
0.055796504
0.063579598
0.06826533
0.068635567
0.063907354
0.053654301
0.038045473
0.016458088
0.034302372
0.03510161
0.037105074
0.041833724
0.049817347
0.058833933
0.066276151
0.070414391
0.070179107
0.064878396
0.054149994
0.038209783
0.016468569
0.035182284
0.036079362
0.038613769
0.044286509
0.052872737
0.061873596
0.068917174
0.072494023
0.071660186
0.065805208
0.054621164
0.038366084
0.016479288
0.036239051
0.037267821
0.040435165
0.047005442
0.056027178
0.064898915
0.071498025
0.074503818
0.07308148
0.066690098
0.055069326
0.038514917
0.016490218
0.037503429
0.038710803
0.042584057
0.049954871
0.059248942
0.067896465
0.074015182
0.076444641
0.074445475
0.067535117
0.055495818
0.038656742
0.016501334
0.039013516
0.040452285
0.045059733
0.053095842
0.062510852
0.070855337
0.076465324
0.078317611
0.075754304
0.068342166
0.055901826
0.038791953
0.01651261
0.040813324
0.042530179
0.047846826
0.05638931
0.065789814
0.07376651
0.078846466
0.080124252
0.077009867
0.069112938
0.056288384
0.038920881
0.016524019
0.042948337
0.044970342
0.05091807
0.059798389
0.069066326
0.07662197
0.081156917
0.081865793
0.078213924
0.069848941
0.056656394
0.039043804
0.016535536
0.045458395
0.047782308
0.054237957
0.063289394
0.072323493
0.079415207
0.083396341
0.083543326
0.079368018
0.070551489
0.057006628
0.039160949
0.016547136
0.048369508
0.050957575
0.057766467
0.066832242
0.075546556
0.082140742
0.085564131
0.085157806
0.080473482
0.071221707
0.057339734
0.039272496
0.016558794
0.051686932
0.054470419
0.061462115
0.070399923
0.078721988
0.084794908
0.087659692
0.086709987
0.081531428
0.071860531
0.057656247
0.039378584
0.016570485
0.055391494
0.058280553
0.065283676
0.073967543
0.081839607
0.087374104
0.089682321
0.088200392
0.082542726
0.072468714
0.057956586
0.039479308
0.016582185
0.059440052
0.062336511
0.069190803
0.077514005
0.084890569
0.089874875
0.091631141
0.089629278
0.083508
0.073046818
0.05824106
0.039574723
0.016593867
0.063769489
0.066579733
0.073146301
0.081021474
0.087866733
0.092293802
0.093505044
0.090996617
0.084427621
0.073595222
0.058509871
0.039664845
0.016605507
0.068304174
0.070949139
0.077116124
0.084473712
0.090760481
0.094627429
0.095302669
0.092302088
0.085301703
0.074114117
0.058763111
0.039749649
0.016617076
0.072963965
0.075384344
0.081068529
0.087855776
0.093564618
0.096872243
0.097022405
0.09354508
0.086130106
0.074603513
0.05900077
0.039829073
0.016628545
0.077671215
0.079828356
0.084974035
0.091153816
0.096272319
0.0990247
0.098662425
0.094724722
0.086912458
0.075063247
0.059222738
0.039903017
0.016639885
0.082355841
0.084229571
0.088805525
0.094354991
0.098877148
0.10108129
0.10022075
0.095839927
0.087648186
0.075493005
0.059428815
0.039971348
0.016651062
0.086958198
0.088543071
0.092538476
0.097447486
0.10137311
0.10303862
0.10169535
0.096889466
0.088336555
0.075892346
0.059618724
0.040033907
0.016662041
0.091430076
0.092731259
0.096151236
0.10042061
0.10375477
0.10489358
0.10308425
0.097872052
0.088976737
0.076260739
0.059792134
0.040090512
0.016672786
0.09573436
0.09676393
0.099625274
0.10326491
0.10601733
0.10664339
0.10438563
0.098786447
0.089567879
0.076597614
0.059948684
0.040140973
0.016683256
0.099843907
0.10061791
0.10294533
0.10597237
0.10815677
0.10828579
0.10559802
0.099631564
0.090109189
0.07690241
0.060088012
0.040185101
0.016693412
0.10374008
0.1042764
0.10609946
0.10853648
0.11016993
0.10981912
0.1067203
0.10040657
0.090600012
0.077174639
0.06020979
0.040222725
0.016703211
0.10741124
0.10772817
0.10907891
0.11095232
0.11205462
0.1112424
0.10775189
0.10111098
0.091039914
0.077413939
0.060313761
0.040253708
0.016712613
0.11085135
0.11096671
0.11187791
0.11321662
0.11380962
0.11255536
0.10869278
0.10174473
0.091428749
0.077620131
0.06039977
0.040277955
0.016721579
0.11405872
0.11398939
0.11449342
0.11532767
0.11543469
0.1137585
0.10954354
0.10230823
0.09176671
0.077793259
0.060467794
0.040295434
0.01673007
0.11703509
0.11679672
0.11692477
0.11728525
0.11693061
0.11485305
0.11030538
0.10280237
0.092054366
0.077933627
0.060517966
0.040306183
0.016738054
0.11978469
0.1193917
0.11917334
0.11909055
0.11829905
0.11584097
0.11098008
0.10322856
0.092292678
0.078041817
0.06055059
0.040310314
0.016745503
0.12231372
0.12177927
0.1212422
0.12074596
0.11954253
0.11672486
0.11157001
0.10358869
0.092482996
0.078118695
0.060566147
0.040308022
0.016752392
0.12462972
0.12396583
0.12313584
0.12225493
0.12066436
0.11750793
0.11207804
0.10388508
0.09262704
0.078165404
0.060565291
0.040299576
0.016758707
0.12674127
0.12595886
0.12485985
0.12362184
0.12166847
0.11819389
0.1125075
0.10412049
0.09272687
0.078183344
0.060548843
0.040285324
0.016764435
0.1286576
0.12776665
0.12642068
0.12485177
0.12255937
0.11878691
0.11286209
0.10429797
0.092784841
0.078174148
0.060517773
0.040265673
0.016769575
0.1303884
0.12939799
0.12782543
0.12595044
0.12334203
0.1192915
0.11314581
0.10442089
0.092803554
0.078139639
0.060473173
0.040241089
0.01677413
0.1319436
0.13086205
0.12908164
0.12692397
0.12402175
0.11971245
0.11336291
0.10449281
0.092785805
0.0780818
0.06041624
0.040212079
0.016778109
0.13333322
0.13216814
0.13019719
0.12777882
0.12460411
0.12005471
0.11351779
0.10451747
0.092734529
0.078002724
0.060348241
0.04017918
0.016781528
0.13456727
0.13332565
0.1311801
0.12852168
0.12509484
0.12032341
0.11361496
0.10449867
0.09265275
0.077904579
0.06027049
0.040142943
0.016784407
0.13565563
0.13434389
0.13203845
0.12915932
0.12549977
0.12052368
0.11365894
0.10444027
0.092543529
0.077789564
0.060184318
0.040103926
0.016786771
0.13660801
0.13523205
0.1327803
0.12969856
0.12582476
0.12066069
0.11365428
0.1043461
0.092409919
0.077659875
0.060091051
0.040062676
0.016788648
0.13743385
0.13599913
0.1334136
0.13014616
0.12607563
0.12073955
0.11360542
0.10421996
0.092254929
0.077517672
0.059991985
0.040019724
0.016790068
0.13814232
0.13665386
0.13394614
0.1305088
0.12625812
0.12076525
0.11351675
0.10406552
0.092081488
0.07736505
0.059888371
0.039975574
0.016791065
0.13874226
0.13720469
0.13438548
0.13079301
0.12637784
0.1207427
0.1133925
0.10388635
0.091892418
0.07720402
0.059781395
0.039930699
0.016791672
0.13924215
0.13765976
0.13473897
0.13100512
0.12644025
0.1206766
0.11323674
0.10368588
0.091690414
0.077036485
0.059672174
0.039885532
0.016791922
0.13965013
0.13802687
0.13501365
0.13115126
0.1264506
0.12057153
0.1130534
0.10346736
0.091478023
0.076864236
0.059561739
0.039840472
0.01679185
0.13997393
0.13831345
0.13521628
0.13123732
0.12641397
0.12043183
0.11284619
0.10323388
0.091257638
0.076688931
0.059451037
0.039795871
0.01679149
0.14022092
0.13852661
0.13535333
0.13126893
0.12633519
0.12026166
0.11261864
0.10298832
0.091031484
0.076512099
0.059340923
0.039752043
0.016790873
0.14039808
0.13867306
0.13543092
0.13125147
0.12621888
0.12006495
0.11237405
0.10273339
0.090801614
0.076335129
0.059232162
0.039709261
0.016790032
0.14051199
0.13875915
0.13545487
0.13119003
0.12606941
0.1198454
0.11211553
0.10247158
0.090569909
0.076159274
0.059125425
0.039667755
0.016788995
0.14056888
0.13879087
0.13543067
0.13108943
0.12589089
0.1196065
0.11184597
0.1022052
0.090338072
0.075985648
0.059021296
0.039627718
0.016787792
0.14057458
0.13877387
0.13536349
0.1309542
0.12568721
0.11935151
0.11156803
0.10193634
0.090107631
0.075815214
0.058920224
0.039589094
0.016786448
0.14053454
0.13871341
0.13525818
0.13078862
0.12546199
0.11908345
0.11128418
0.10166691
0.089879936
0.075648795
0.058822562
0.039551832
0.016784983
0.14045388
0.13861444
0.13511928
0.13059666
0.12521863
0.11880512
0.11099666
0.10139861
0.089656155
0.075487025
0.058728331
0.039516221
0.016783417
0.14033738
0.13848156
0.13495104
0.13038205
0.12496026
0.1185191
0.1107075
0.10113295
0.089437308
0.075330478
0.058637866
0.039482383
0.016781769
0.14018946
0.13831907
0.13475739
0.13014824
0.1246898
0.11822776
0.11041856
0.10087127
0.089224178
0.075179275
0.058551596
0.039450408
0.016780061
0.14001427
0.13813095
0.13454202
0.12989847
0.12440995
0.11793327
0.11013146
0.10061469
0.089017392
0.075034106
0.058469664
0.039420343
0.016778309
0.13981562
0.13792092
0.13430833
0.12963569
0.12412318
0.11763759
0.10984768
0.10036419
0.088817495
0.074895431
0.058392197
0.039392222
0.016776532
0.13959707
0.13769239
0.13405948
0.12936265
0.12383176
0.11734248
0.10956846
0.10012043
0.088625287
0.0747635
0.058319276
0.039366056
0.016774745
0.13936189
0.13744854
0.13379835
0.12908188
0.12353774
0.1170495
0.10929483
0.099884372
0.088441244
0.074638498
0.058250944
0.039341839
0.016772961
0.1391131
0.13719227
0.13352764
0.12879567
0.12324297
0.11676
0.1090278
0.099656803
0.088265718
0.074520546
0.058187205
0.03931955
0.016771193
0.13885347
0.13692627
0.13324977
0.1285061
0.12294908
0.11647514
0.10876846
0.099438284
0.088098971
0.074409708
0.058128029
0.03929915
0.01676945
0.13858552
0.13665294
0.13296694
0.12821499
0.12265747
0.11619627
0.10851761
0.099229259
0.087941176
0.074305989
0.058073351
0.03928059
0.016767741
0.13831153
0.13637449
0.13268107
0.12792399
0.12236966
0.11592443
0.10827591
0.099030062
0.08779243
0.074209341
0.058023079
0.039263807
0.016766075
0.13803352
0.13609282
0.13239398
0.12763476
0.12208693
0.11566052
0.10804389
0.098840928
0.087652752
0.074119669
0.057977093
0.03924873
0.016764458
0.13775335
0.13580977
0.13210737
0.12734874
0.1218104
0.11540528
0.10782198
0.098662001
0.087522101
0.074036836
0.057935253
0.039235281
0.016762894
0.13747272
0.13552699
0.13182278
0.12706723
0.12154102
0.11515935
0.10761048
0.098493346
0.087400376
0.073960672
0.057897402
0.039223376
0.016761388
0.13719318
0.13524601
0.13154156
0.12679134
0.12127964
0.11492322
0.10740961
0.098334959
0.087287433
0.073890978
0.057863372
0.03921293
0.016759943
0.13691615
0.13496818
0.13126494
0.12652207
0.12102694
0.11469731
0.10721952
0.098186777
0.087183088
0.07382754
0.05783299
0.039203858
0.016758562
0.13664289
0.13469471
0.130994
0.1262603
0.12078353
0.11448193
0.10704027
0.098048686
0.087087128
0.073770124
0.057806078
0.039196076
0.016757245
0.13637453
0.13442669
0.1307297
0.12600675
0.12054989
0.11427731
0.10687187
0.097920528
0.086999311
0.073718491
0.057782458
0.039189503
0.016755995
0.13611209
0.13416507
0.13047287
0.12576207
0.12032642
0.11408359
0.10671425
0.097802108
0.086919378
0.073672389
0.057761953
0.039184059
0.016754812
0.13585646
0.1339107
0.13022422
0.12552679
0.12011343
0.11390087
0.10656732
0.097693194
0.086847047
0.073631562
0.057744383
0.03917967
0.016753697
0.1356084
0.13366429
0.12998437
0.12530135
0.11991114
0.11372916
0.10643092
0.097593521
0.08678202
0.073595747
0.057729572
0.039176258
0.016752649
0.13536859
0.13342648
0.12975383
0.12508609
0.11971969
0.1135684
0.10630484
0.097502796
0.086723983
0.073564674
0.05771734
0.03917375
0.016751669
0.13513758
0.13319777
0.12953302
0.12488127
0.11953915
0.11341848
0.10618885
0.097420697
0.086672608
0.07353807
0.057707512
0.039172074
0.016750755
0.13491582
0.13297859
0.12932225
0.12468705
0.11936953
0.11327926
0.10608264
0.097346882
0.086627557
0.07351566
0.057699909
0.039171156
0.016749907
0.13470368
0.13276925
0.12912176
0.12450355
0.11921076
0.11315051
0.10598592
0.097280989
0.086588485
0.073497167
0.057694359
0.039170927
0.016749123
0.13450143
0.13256999
0.12893171
0.12433078
0.11906272
0.11303198
0.10589834
0.097222641
0.086555043
0.073482319
0.057690692
0.03917132
0.016748401
0.13430927
0.13238099
0.12875217
0.1241687
0.11892524
0.11292338
0.10581952
0.097171454
0.086526881
0.073470847
0.057688744
0.03917227
0.016747739
0.13412731
0.13220231
0.12858315
0.12401723
0.11879811
0.11282439
0.1057491
0.097127036
0.086503652
0.073462487
0.057688356
0.039173716
0.016747136
0.1339556
0.132034
0.12842463
0.12387621
0.11868106
0.11273468
0.10568667
0.097088996
0.086485014
0.073456986
0.057689378
0.039175599
0.016746589
0.13379414
0.131876
0.12827648
0.12374547
0.11857381
0.11265386
0.10563183
0.097056941
0.086470631
0.073454096
0.057691663
0.039177865
0.016746095
0.13364286
0.13172824
0.12813859
0.12362476
0.11847606
0.11258157
0.10558418
0.097030482
0.086460177
0.07345358
0.057695075
0.039180462
0.016745652
0.13350166
0.13159059
0.12801075
0.12351384
0.11838745
0.11251741
0.10554331
0.09700924
0.086453334
0.073455212
0.057699482
0.03918334
0.016745258
0.13337039
0.13146287
0.12789276
0.12341242
0.11830765
0.11246099
0.10550882
0.096992842
0.086449798
0.073458776
0.057704765
0.039186457
0.01674491
0.13324886
0.13134489
0.12778436
0.12332019
0.11823629
0.11241191
0.1054803
0.09698093
0.08644928
0.07346407
0.057710809
0.03918977
0.016744606
0.13313688
0.13123641
0.12768529
0.12323684
0.118173
0.11236977
0.10545737
0.096973157
0.086451506
0.073470908
0.057717513
0.039193246
0.016744343
0.1330342
0.1311372
0.12759527
0.12316202
0.1181174
0.11233418
0.10543965
0.096969194
0.086456216
0.073479114
0.057724784
0.039196853
0.016744119
0.13294056
0.13104696
0.12751398
0.12309539
0.11806911
0.11230475
0.10542677
0.096968721
0.086463164
0.073488525
0.057732537
0.039200564
0.016743931
0.13285568
0.1309654
0.12744109
0.12303659
0.11802775
0.1122811
0.10541837
0.09697143
0.086472116
0.073498988
0.057740692
0.039204355
0.016743779
0.13277925
0.1308922
0.12737627
0.12298525
0.11799293
0.11226283
0.1054141
0.09697702
0.086482843
0.073510352
0.057749174
0.039208203
0.016743659
0.13271093
0.13082701
0.12731914
0.12294097
0.11796425
0.11224955
0.10541359
0.096985195
0.086495123
0.073522474
0.057757907
0.039212082
0.01674357
0.13265036
0.13076948
0.12726932
0.12290336
0.11794129
0.11224088
0.1054165
0.096995662
0.086508735
0.073535209
0.057766814
0.039215966
0.016743509
0.13259717
0.1307192
0.12722641
0.122872
0.11792365
0.11223641
0.10542248
0.097008133
0.086523464
0.073548416
0.057775821
0.039219829
0.016743475
0.13255095
0.13067578
0.12719
0.12284647
0.11791091
0.11223577
0.10543118
0.097022327
0.086539101
0.073561958
0.057784853
0.039223642
0.016743463
0.1325113
0.13063881
0.12715966
0.12282635
0.11790266
0.11223857
0.10544227
0.097037979
0.086555451
0.073575707
0.057793842
0.03922738
0.016743473
0.13247782
0.13060787
0.12713499
0.12281123
0.11789851
0.11224445
0.10545545
0.097054843
0.086572335
0.073589551
0.057802729
0.03923102
0.016743501
0.1324501
0.13058258
0.12711559
0.12280072
0.11789809
0.11225308
0.10547044
0.097072698
0.086589598
0.073603394
0.057811466
0.039234546
0.016743545
0.13242777
0.13056253
0.12710106
0.12279444
0.11790105
0.11226415
0.10548697
0.097091351
0.086607109
0.07361716
0.057820021
0.039237951
0.016743604
0.13241047
0.13054738
0.12709106
0.12279205
0.11790706
0.11227739
0.10550483
0.097110637
0.086624759
0.073630792
0.05782837
0.03924123
0.016743674
0.13239784
0.13053677
0.12708523
0.12279322
0.11791584
0.11229254
0.10552381
0.097130412
0.086642459
0.073644246
0.057836504
0.039244388
0.016743756
0.13238957
0.13053037
0.12708326
0.12279765
0.1179271
0.11230937
0.10554374
0.097150549
0.086660133
0.073657486
0.057844415
0.039247429
0.016743848
0.13238532
0.13052787
0.12708484
0.12280504
0.1179406
0.11232765
0.10556443
0.097170927
0.086677708
0.073670478
0.057852091
0.039250339
0.01674395
0.1323848
0.13052896
0.12708966
0.1228151
0.11795606
0.11234718
0.10558574
0.097191429
0.086695109
0.073683184
0.057859517
0.039253108
0.016744059
0.13238768
0.13053333
0.12709741
0.12282756
0.11797324
0.11236774
0.10560748
0.097211933
0.086712257
0.073695554
0.057866653
0.039255745
0.016744176
0.13239365
0.13054065
0.1271078
0.12284212
0.11799188
0.11238912
0.1056295
0.097232314
0.086729069
0.07370754
0.057873479
0.039258247
0.016744298
0.13240238
0.13055061
0.1271205
0.1228585
0.11801172
0.1124111
0.10565161
0.097252447
0.086745453
0.073719066
0.057879986
0.039260608
0.016744424
0.13241355
0.1305629
0.12713523
0.1228764
0.11803252
0.11243347
0.10567366
0.097272213
0.086761331
0.073730098
0.057886153
0.039262822
0.016744553
0.13242685
0.13057719
0.12715167
0.12289557
0.11805404
0.11245605
0.1056955
0.0972915
0.086776611
0.073740615
0.057891964
0.039264883
0.016744684
0.13244197
0.1305932
0.12716954
0.12291575
0.11807606
0.11247865
0.10571699
0.097310211
0.086791261
0.07375059
0.057897411
0.03926679
0.016744814
0.13245863
0.13061065
0.1271886
0.12293671
0.1180984
0.11250113
0.10573803
0.097328275
0.086805257
0.073760013
0.057902493
0.039268545
0.016744944
0.13247659
0.1306293
0.12720861
0.12295824
0.11812088
0.11252336
0.10575851
0.097345665
0.086818584
0.073768884
0.057907218
0.039270153
0.016745073
0.1324956
0.13064891
0.12722936
0.12298016
0.11814336
0.11254522
0.1057784
0.097362357
0.086831236
0.073777213
0.057911601
0.039271623
0.016745199
0.13251547
0.13066929
0.12725066
0.12300232
0.11816571
0.11256665
0.10579766
0.097378335
0.08684322
0.073785018
0.057915659
0.039272967
0.016745323
0.13253601
0.13069025
0.12727235
0.12302457
0.11818783
0.11258758
0.10581624
0.097393592
0.086854544
0.073792315
0.057919411
0.039274194
0.016745444
0.13255704
0.13071163
0.12729426
0.12304678
0.11820963
0.11260796
0.10583413
0.097408122
0.086865219
0.073799122
0.057922872
0.039275314
0.016745563
0.1325784
0.13073326
0.12731627
0.12306885
0.11823103
0.11262772
0.10585129
0.097421914
0.086875248
0.07380545
0.057926052
0.039276333
0.016745678
0.13259994
0.13075501
0.12733823
0.12309065
0.11825194
0.11264682
0.10586769
0.097434959
0.086884633
0.073811306
0.05792896
0.039277254
0.016745791
0.13262152
0.13077674
0.12736004
0.1231121
0.11827229
0.1126652
0.1058833
0.097447242
0.086893373
0.073816694
0.057931597
0.039278077
0.0167459
0.13264301
0.13079831
0.12738157
0.12313309
0.118292
0.11268281
0.10589809
0.097458753
0.086901466
0.073821615
0.057933967
0.039278802
0.016746006
0.13266429
0.13081964
0.12740272
0.12315355
0.11831102
0.11269961
0.10591205
0.097469486
0.086908915
0.073826075
0.057936071
0.039279429
0.016746107
0.13268528
0.13084061
0.12742342
0.1231734
0.11832929
0.11271559
0.10592517
0.097479446
0.086915731
0.073830085
0.057937917
0.039279958
0.016746203
0.13270588
0.13086115
0.12744358
0.12319259
0.11834679
0.11273072
0.10593745
0.09748865
0.086921935
0.073833665
0.057939517
0.039280394
0.016746293
0.13272605
0.13088121
0.12746318
0.1232111
0.1183635
0.11274501
0.10594891
0.097497127
0.086927558
0.073836841
0.057940891
0.039280745
0.016746379
0.13274574
0.13090075
0.12748217
0.12322891
0.11837942
0.11275848
0.10595958
0.097504917
0.086932641
0.073839649
0.057942061
0.039281023
0.016746459
0.1327649
0.13091973
0.12750053
0.123246
0.11839458
0.11277117
0.10596952
0.097512065
0.086937228
0.073842124
0.057943055
0.03928124
0.016746534
0.13278352
0.13093814
0.12751825
0.12326239
0.11840897
0.1127831
0.10597875
0.097518617
0.086941363
0.073844306
0.057943899
0.039281411
0.016746606
0.13280156
0.13095593
0.12753531
0.12327805
0.11842262
0.11279429
0.10598731
0.097524612
0.086945083
0.073846225
0.057944616
0.039281548
0.016746673
0.13281895
0.13097306
0.12755168
0.12329299
0.11843552
0.11280476
0.10599522
0.097530076
0.086948415
0.073847903
0.05794522
0.039281659
0.016746737
0.13283565
0.13098949
0.12756731
0.12330716
0.11844765
0.11281451
0.10600249
0.09753502
0.08695137
0.07384935
0.057945719
0.039281747
0.016746798
0.13285156
0.13100513
0.12758213
0.12332051
0.11845898
0.11282351
0.10600911
0.09753944
0.086953945
0.073850562
0.057946108
0.03928181
0.016746856
0.1328666
0.1310199
0.12759608
0.123333
0.11846948
0.11283173
0.10601506
0.097543318
0.086956127
0.073851528
0.057946377
0.03928184
0.016746911
0.13288068
0.13103371
0.12760908
0.12334455
0.11847908
0.11283915
0.1060203
0.097546634
0.086957897
0.073852229
0.057946509
0.039281825
0.016746961
0.13289372
0.1310465
0.12762107
0.12335513
0.11848776
0.11284573
0.10602483
0.097549371
0.086959239
0.07385265
0.05794649
0.039281755
0.016747007
0.13290568
0.13105822
0.12763201
0.12336469
0.1184955
0.11285145
0.10602863
0.097551524
0.086960148
0.073852782
0.057946309
0.039281619
0.016747047
0.13291655
0.13106885
0.1276419
0.12337325
0.1185023
0.11285635
0.10603173
0.09755311
0.086960636
0.073852633
0.057945966
0.039281413
0.016747081
0.13292637
0.13107844
0.12765077
0.12338083
0.11850821
0.11286046
0.10603416
0.097554172
0.086960739
0.073852228
0.057945474
0.039281139
0.016747108
0.13293523
0.13108708
0.1276587
0.12338754
0.11851332
0.11286386
0.10603601
0.097554781
0.086960516
0.07385161
0.05794486
0.039280809
0.01674713
0.13294327
0.13109488
0.12766583
0.12339348
0.11851774
0.11286668
0.10603738
0.09755503
0.086960045
0.073850841
0.057944166
0.039280442
0.016747145
0.13295065
0.13110201
0.12767228
0.1233988
0.11852161
0.11286904
0.1060384
0.097555026
0.086959417
0.073849989
0.057943437
0.039280061
0.016747156
0.13295754
0.13110863
0.12767823
0.12340365
0.11852506
0.11287107
0.10603918
0.097554875
0.086958719
0.073849125
0.057942724
0.039279695
0.016747164
0.13296409
0.13111489
0.12768382
0.12340816
0.11852823
0.11287288
0.10603982
0.097554667
0.08695803
0.073848309
0.057942069
0.039279366
0.016747171
0.1329704
0.1311209
0.12768915
0.12341242
0.11853121
0.11287456
0.10604041
0.097554469
0.086957401
0.073847583
0.057941503
0.039279095
0.016747179
0.13297654
0.13112671
0.12769427
0.1234165
0.11853404
0.11287616
0.10604097
0.097554308
0.086956855
0.073846962
0.057941037
0.039278889
0.016747188
0.13298249
0.13113234
0.1276992
0.12342039
0.11853671
0.11287766
0.1060415
0.097554171
0.086956377
0.073846432
0.057940662
0.039278746
0.016747199
0.13298818
0.1311377
0.12770386
0.12342404
0.11853919
0.11287901
0.10604195
0.097554011
0.086955922
0.073845956
0.05794035
0.039278653
0.016747212
0.13299346
0.13114267
0.12770816
0.12342734
0.11854136
0.11288013
0.10604223
0.097553748
0.08695542
0.073845474
0.057940057
0.039278584
0.016747226
0.13299818
0.13114711
0.12771194
0.12343017
0.11854313
0.1128809
0.10604224
0.097553296
0.086954792
0.073844919
0.057939733
0.039278512
0.016747239
0.13300216
0.13115085
0.12771507
0.12343241
0.11854436
0.11288124
0.1060419
0.097552568
0.086953964
0.073844229
0.05793933
0.039278407
0.016747251
0.13300526
0.13115376
0.12771742
0.12343394
0.11854499
0.11288106
0.10604114
0.097551505
0.086952882
0.073843358
0.05793881
0.039278246
0.016747259
0.13300741
0.13115574
0.12771892
0.12343471
0.11854495
0.11288031
0.10603992
0.097550081
0.086951522
0.073842283
0.057938154
0.039278008
0.016747262
0.13300857
0.1311568
0.12771956
0.12343472
0.11854426
0.11287903
0.10603826
0.097548313
0.086949901
0.073841015
0.057937362
0.03927769
0.016747258
0.13300883
0.13115697
0.12771941
0.12343403
0.11854299
0.11287728
0.10603624
0.097546265
0.086948072
0.073839598
0.057936466
0.039277304
0.016747248
0.13300832
0.13115641
0.12771859
0.12343279
0.11854127
0.11287518
0.10603396
0.097544039
0.086946123
0.0738381
0.05793551
0.039276874
0.016747233
0.13300725
0.1311553
0.12771729
0.12343115
0.11853926
0.11287289
0.10603156
0.097541756
0.086944158
0.073836606
0.057934558
0.039276441
0.016747214
0.13300586
0.13115387
0.12771571
0.12342931
0.11853713
0.11287056
0.10602919
0.097539544
0.086942283
0.073835198
0.057933669
0.03927604
0.016747193
0.1330044
0.13115236
0.12771408
0.12342747
0.11853507
0.11286835
0.10602698
0.097537517
0.086940592
0.073833949
0.057932895
0.039275699
0.016747173
0.13300308
0.13115096
0.12771257
0.12342579
0.1185332
0.11286637
0.10602504
0.097535759
0.086939153
0.07383291
0.057932271
0.039275434
0.016747155
0.13300205
0.13114985
0.12771133
0.12342438
0.11853163
0.11286472
0.10602342
0.097534315
0.086938
0.073832108
0.057931817
0.039275258
0.01674714
0.1330014
0.13114909
0.12771042
0.1234233
0.11853039
0.11286339
0.10602213
0.097533188
0.086937132
0.073831544
0.057931535