/*--------------------------------*- C++ -*----------------------------------*\
| =========                 |                                                 |
| \\      /  F ield         | OpenFOAM: The Open Source CFD Toolbox           |
|  \\    /   O peration     | Version:  2506                                  |
|   \\  /    A nd           | Website:  www.openfoam.com                      |
|    \\/     M anipulation  |                                                 |
\*---------------------------------------------------------------------------*/
FoamFile
{
    version     2.0;
    format      ascii;
    arch        "LSB;label=32;scalar=64";
    class       volScalarField;
    location    "2000/water";
    object      epsilon;
}
// * * * * * * * * * * * * * * * * * * * * * * * * * * * * * * * * * * * * * //

dimensions      [0 2 -3 0 0 0 0];

internalField   nonuniform List<scalar> 
2600
(
8.8079773e-05
8.8079245e-05
8.8079271e-05
8.807949e-05
8.8079744e-05
8.8080245e-05
8.8082926e-05
8.8104349e-05
8.8272771e-05
8.9512908e-05
9.8428186e-05
0.00017145296
0.0010138716
6.7789348e-05
6.7791881e-05
6.7793339e-05
6.7794963e-05
6.7796901e-05
6.7799886e-05
6.7810178e-05
6.7875511e-05
6.8312468e-05
7.1039872e-05
8.7857083e-05
0.00021159534
0.0014669324
5.3500886e-05
5.3503148e-05
5.3504846e-05
5.3506859e-05
5.3509287e-05
5.3513643e-05
5.3532992e-05
5.3656306e-05
5.4399641e-05
5.8506995e-05
8.1500797e-05
0.00023956052
0.0017068244
4.3127504e-05
4.3128883e-05
4.3130503e-05
4.3132598e-05
4.3135149e-05
4.3140834e-05
4.3171684e-05
4.3362646e-05
4.4413342e-05
4.9710824e-05
7.7552644e-05
0.00025818579
0.0017816909
3.539909e-05
3.5400132e-05
3.5401605e-05
3.5403513e-05
3.5405834e-05
3.5412916e-05
3.5457613e-05
3.5722605e-05
3.7073304e-05
4.3450503e-05
7.5629285e-05
0.00027290618
0.0017622817
2.9510599e-05
2.9511446e-05
2.95127e-05
2.9514227e-05
2.9516143e-05
2.9525119e-05
2.9586798e-05
2.9933924e-05
3.159515e-05
3.9095388e-05
7.5939385e-05
0.00028837858
0.0017002497
2.4935213e-05
2.4935877e-05
2.4936847e-05
2.4937875e-05
2.4939416e-05
2.4951342e-05
2.503458e-05
2.5477125e-05
2.7489448e-05
3.6318413e-05
7.8818158e-05
0.0003073199
0.0016256765
2.1318423e-05
2.1318913e-05
2.1319549e-05
2.132003e-05
2.1321464e-05
2.1338095e-05
2.144948e-05
2.2008273e-05
2.4447975e-05
3.4968795e-05
8.4593389e-05
0.00033066897
0.0015541994
1.8415642e-05
1.8415958e-05
1.8416233e-05
1.8416208e-05
1.8418091e-05
1.8442025e-05
1.8590687e-05
1.9295945e-05
2.2279378e-05
3.5010665e-05
9.3512814e-05
0.00035786641
0.0014930959
1.6054297e-05
1.6054439e-05
1.6054351e-05
1.6053968e-05
1.6057197e-05
1.6092028e-05
1.6290179e-05
1.7183376e-05
2.0872546e-05
3.6486908e-05
0.00010564207
0.00038720676
0.0014449141
1.411016e-05
1.4110129e-05
1.4109712e-05
1.4109249e-05
1.4115119e-05
1.4165612e-05
1.4429188e-05
1.5565379e-05
2.0175367e-05
3.9486471e-05
0.00012074249
0.00041640751
0.0014094648
1.249217e-05
1.2491978e-05
1.249131e-05
1.24912e-05
1.2501471e-05
1.2573786e-05
1.2923263e-05
1.4374121e-05
2.0181311e-05
4.4103574e-05
0.00013819401
0.0004433175
0.0013850187
1.1132483e-05
1.1132152e-05
1.1131368e-05
1.1132227e-05
1.1149209e-05
1.1251189e-05
1.1712642e-05
1.3570321e-05
2.0918928e-05
5.0386672e-05
0.00015703479
0.00046647966
0.0013691707
9.9797899e-06
9.9793621e-06
9.9786681e-06
9.9813266e-06
1.0007987e-05
1.0149541e-05
1.0756002e-05
1.3137755e-05
2.2440689e-05
5.8285037e-05
0.00017613324
0.00048532286
0.0013594869
8.994766e-06
8.994305e-06
8.9939894e-06
8.9995396e-06
9.0396464e-06
9.2332357e-06
1.0026406e-05
1.3079617e-05
2.4808572e-05
6.7609618e-05
0.00019442665
0.00050000486
0.0013539038
8.1468971e-06
8.1464947e-06
8.1469469e-06
8.1567947e-06
8.2150975e-06
8.4763588e-06
9.5087285e-06
1.3415553e-05
2.807526e-05
7.8026841e-05
0.0002111215
0.00051110137
0.0013508788
7.4122408e-06
7.412023e-06
7.4137548e-06
7.4296903e-06
7.5121568e-06
7.8606834e-06
9.1980664e-06
1.4178291e-05
3.2262331e-05
8.9094588e-05
0.00022578146
0.00051932558
0.0013493668
6.7718206e-06
6.7719549e-06
6.7756276e-06
6.7999151e-06
6.9140283e-06
7.3743439e-06
9.0987625e-06
1.5408888e-05
3.7339829e-05
0.00010033155
0.00023829849
0.00052535582
0.0013487149
6.2104575e-06
6.2111621e-06
6.2176208e-06
6.2531142e-06
6.4082476e-06
7.0110033e-06
9.2236697e-06
1.7149875e-05
4.3213605e-05
0.00011129559
0.00024879509
0.00052976262
0.0013485457
5.7159095e-06
5.7174657e-06
5.7277834e-06
5.7780724e-06
5.9859581e-06
6.7693776e-06
9.5932706e-06
1.9436233e-05
4.9726067e-05
0.00012164393
0.00025751549
0.00053299526
0.0013486594
5.2782322e-06
5.2809984e-06
5.2965329e-06
5.3661281e-06
5.6414368e-06
6.6530083e-06
1.0234238e-05
2.228513e-05
5.6672016e-05
0.00013115952
0.00026474159
0.0005353945
0.0013489619
4.889296e-06
4.893728e-06
4.9161934e-06
5.0107595e-06
5.3718124e-06
6.6701645e-06
1.1177042e-05
2.5686553e-05
6.3825677e-05
0.00013974422
0.00027074337
0.00053721257
0.0013494179
4.5424222e-06
4.549097e-06
4.5806559e-06
4.707302e-06
5.1769356e-06
6.8337316e-06
1.2452335e-05
2.9597477e-05
7.0970789e-05
0.00014739148
0.0002757568
0.0005386328
0.0013500205
4.2321037e-06
4.2417515e-06
4.2851315e-06
4.4527719e-06
5.0593678e-06
7.1609029e-06
1.4086152e-05
3.394183e-05
7.7925113e-05
0.00015415333
0.00027997823
0.00053978641
0.0013507744
3.9537926e-06
3.9673375e-06
4.0259782e-06
4.2457763e-06
5.0244499e-06
7.6724686e-06
1.6094424e-05
3.8616919e-05
8.4553951e-05
0.00016011197
0.00028356674
0.00054076615
0.0013516866
3.7037376e-06
3.7223496e-06
3.8005873e-06
4.0864974e-06
5.0804009e-06
8.3914977e-06
1.8477844e-05
4.3504911e-05
9.077206e-05
0.00016536002
0.00028664926
0.00054163684
0.0013527623
3.4788613e-06
3.504022e-06
3.6073203e-06
3.9767408e-06
5.2383696e-06
9.3412708e-06
2.1218352e-05
4.8486364e-05
9.6537094e-05
0.00016998886
0.00028932618
0.00054244334
0.0013540034
3.2766694e-06
3.3102566e-06
3.4454921e-06
3.9200366e-06
5.512335e-06
1.0542479e-05
2.4278371e-05
5.3452376e-05
0.00010183911
0.00017408281
0.00029167656
0.00054321637
0.0013554084
3.0951868e-06
3.1395803e-06
3.315394e-06
3.9217755e-06
5.9187333e-06
1.2009945e-05
2.7603267e-05
5.8312862e-05
0.0001066899
0.00017771679
0.00029376257
0.00054397675
0.0013569728
2.9329181e-06
2.991133e-06
3.2183575e-06
3.9893517e-06
6.4756803e-06
1.3749403e-05
3.112658e-05
6.3000085e-05
0.00011111418
0.0001809559
0.00029563313
0.00054473837
0.0013586903
2.7888292e-06
2.8646819e-06
3.1568533e-06
4.1322631e-06
7.201697e-06
1.575503e-05
3.4776808e-05
6.7468124e-05
0.00011514328
0.00018385585
0.00029732665
0.00054550992
0.0013605531
2.6623516e-06
2.7606642e-06
3.1346229e-06
4.3621021e-06
8.1139279e-06
1.8008404e-05
3.8484156e-05
7.1689805e-05
0.00011881108
0.00018646428
0.00029887505
0.00054629402
0.0013625491
2.5534088e-06
2.680258e-06
3.1568305e-06
4.6923498e-06
9.2259804e-06
2.0479255e-05
4.2185901e-05
7.5652556e-05
0.00012215122
0.00018882083
0.00030030031
0.00054708344
0.001364665
2.4624667e-06
2.6254827e-06
3.2302147e-06
5.1378786e-06
1.0545685e-05
2.3127919e-05
4.5829653e-05
7.935444e-05
0.00012519597
0.00019095973
0.00030162122
0.00054787012
0.0013668874
2.3906118e-06
2.5993266e-06
3.3632046e-06
5.7140893e-06
1.2073207e-05
2.5908985e-05
4.9374528e-05
8.2800768e-05
0.00012797522
0.0001929092
0.00030285018
0.00054865287
0.0013692048
2.3396576e-06
2.6059009e-06
3.5659451e-06
6.4356569e-06
1.3799941e-05
2.877532e-05
5.2790669e-05
8.6001444e-05
0.00013051585
0.00019469159
0.00030399376
0.00054944273
0.0013716092
2.3122834e-06
2.6506068e-06
3.8501619e-06
7.3149535e-06
1.5708514e-05
3.1681693e-05
5.6057927e-05
8.8969442e-05
0.00013284315
0.00019632773
0.00030505437
0.00055025018
0.0013740956
2.312204e-06
2.7402971e-06
4.2287857e-06
8.3603385e-06
1.7773922e-05
3.4587408e-05
5.9163895e-05
9.1718485e-05
0.000134977
0.0001978295
0.00030604752
0.00055107622
0.0013766577
2.3443664e-06
2.8833943e-06
4.7152662e-06
9.574605e-06
1.996561e-05
3.7457896e-05
6.2102576e-05
9.4263947e-05
0.00013693775
0.00019920349
0.00030698675
0.00055192215
0.0013792894
2.4151613e-06
3.08991e-06
5.3225446e-06
1.0953905e-05
2.2249994e-05
4.0265061e-05
6.4872079e-05
9.6618924e-05
0.00013873802
0.00020046565
0.00030788006
0.00055278756
0.0013819844
2.5326205e-06
3.3712892e-06
6.0617312e-06
1.2487422e-05
2.4593018e-05
4.2987258e-05
6.7474462e-05
9.8797813e-05
0.00014038632
0.00020163083
0.00030873382
0.00055367121
0.0013847362
2.7065545e-06
3.7399971e-06
6.9406293e-06
1.4157864e-05
2.6962173e-05
4.560817e-05
6.9912765e-05
0.00010081055
0.00014189658
0.00020271014
0.00030955281
0.00055457138
0.0013875385
2.9485501e-06
4.2087762e-06
7.9623507e-06
1.5942735e-05
2.9328092e-05
4.8116705e-05
7.2192973e-05
0.0001026631
0.00014328329
0.00020371267
0.00031034058
0.00055548595
0.0013903847
3.2717206e-06
4.7895536e-06
9.1242825e-06
1.7815987e-05
3.1665001e-05
5.0504533e-05
7.431848e-05
0.00010436656
0.00014455809
0.0002046458
0.00031109971
0.0005564126
0.0013932686
3.6900857e-06
5.492073e-06
1.0417684e-05
1.9750012e-05
3.3951699e-05
5.2768184e-05
7.6289669e-05
0.00010593299
0.00014573089
0.00020551555
0.00031183197
0.00055734877
0.0013961839
4.2174847e-06
6.322428e-06
1.1827952e-05
2.1717141e-05
3.6170246e-05
5.490116e-05
7.8113758e-05
0.00010737249
0.00014680993
0.00020632674
0.00031253851
0.00055829181
0.0013991243
4.8660259e-06
7.2817747e-06
1.3335593e-05
2.3691123e-05
3.8306688e-05
5.6898168e-05
7.9798305e-05
0.0001086939
0.00014780214
0.00020708321
0.00031321994
0.0005592389
0.0014020836
5.6442493e-06
8.3655567e-06
1.4917866e-05
2.5648781e-05
4.0344258e-05
5.8760207e-05
8.1350099e-05
0.00010990478
0.00014871321
0.00020778792
0.00031387635
0.00056018712
0.0014050556
6.5553592e-06
9.56346e-06
1.6550686e-05
2.7565321e-05
4.2272541e-05
6.0488808e-05
8.2775228e-05
0.00011101156
0.00014954783
0.00020844308
0.00031450744
0.00056113341
0.0014080338
7.5961534e-06
1.0860441e-05
1.8207369e-05
2.9419102e-05
4.408453e-05
6.2085814e-05
8.4079034e-05
0.0001120196
0.00015030969
0.00020905022
0.00031511248
0.00056207453
0.0014110119
8.7563152e-06
1.2235551e-05
1.9861232e-05
3.1193216e-05
4.5774965e-05
6.3553181e-05
8.5266112e-05
0.00011293328
0.00015100165
0.00020961023
0.00031569038
0.00056300711
0.0014139831
1.0017522e-05
1.3664335e-05
2.1488449e-05
3.2873859e-05
4.7340054e-05
6.4892868e-05
8.6340347e-05
0.00011375612
0.0001516258
0.00021012347
0.00031623966
0.00056392754
0.0014169405
1.1355901e-05
1.5121211e-05
2.3068172e-05
3.4450179e-05
4.8777289e-05
6.6106812e-05
8.7304985e-05
0.00011449085
0.00015218355
0.00021058975
0.00031675852
0.00056483203
0.0014198766
1.2744265e-05
1.6581081e-05
2.4582903e-05
3.5914124e-05
5.0085355e-05
6.7196971e-05
8.8162739e-05
0.00011513953
0.00015267569
0.00021100843
0.00031724482
0.00056571653
0.0014227834
1.4154482e-05
1.8020637e-05
2.6018604e-05
3.7260265e-05
5.1264092e-05
6.8165414e-05
8.8915933e-05
0.0001157037
0.00015310253
0.00021137849
0.00031769616
0.00056657675
0.0014256524
1.555958e-05
1.9419302e-05
2.7364607e-05
3.8485598e-05
5.231449e-05
6.901445e-05
8.9566666e-05
0.0001161845
0.00015346401
0.0002116986
0.00031810989
0.00056740823
0.0014284744
1.6935339e-05
2.0759787e-05
2.8613378e-05
3.9589304e-05
5.323867e-05
6.9746758e-05
9.0116989e-05
0.00011658289
0.00015375983
0.00021196724
0.00031848324
0.00056820634
0.0014312396
1.8261269e-05
2.2028326e-05
2.9760207e-05
4.0572479e-05
5.4039843e-05
7.0365497e-05
9.0569079e-05
0.00011689975
0.00015398961
0.00021218284
0.00031881338
0.0005689664
0.0014339377
1.9521048e-05
2.3214636e-05
3.0802835e-05
4.1437842e-05
5.4722228e-05
7.0874393e-05
9.0925393e-05
0.00011713614
0.00015415307
0.0002123439
0.0003190976
0.0005696838
0.0014365579
2.0702516e-05
2.4311688e-05
3.1741086e-05
4.2189436e-05
5.5290938e-05
7.1277774e-05
9.1188792e-05
0.00011729337
0.00015425016
0.00021244916
0.00031933341
0.00057035412
0.0014390893
2.179737e-05
2.5315354e-05
3.257649e-05
4.2832333e-05
5.5751829e-05
7.1580559e-05
9.1362627e-05
0.00011737319
0.0001542812
0.00021249774
0.00031951874
0.00057097333
0.0014415208
2.2800694e-05
2.6223984e-05
3.3311942e-05
4.3372363e-05
5.6111338e-05
7.178822e-05
9.1450779e-05
0.00011737787
0.00015424704
0.00021248927
0.00031965202
0.0005715379
0.0014438419
2.3710403e-05
2.7037978e-05
3.3951389e-05
4.3815874e-05
5.6376316e-05
7.1906692e-05
9.1457658e-05
0.00011731022
0.00015414911
0.00021242401
0.00031973234
0.000572045
0.0014460427
2.4526702e-05
2.7759361e-05
3.4499555e-05
4.4169529e-05
5.655387e-05
7.1942284e-05
9.138817e-05
0.00011717368
0.00015398952
0.00021230291
0.00031975954
0.00057249257
0.001448114
2.5251562e-05
2.8391403e-05
3.4961707e-05
4.444013e-05
5.6651213e-05
7.1901559e-05
9.1247656e-05
0.00011697222
0.00015377099
0.00021212768
0.00031973427
0.00057287945
0.0014500481
2.5888278e-05
2.8938286e-05
3.5343456e-05
4.4634486e-05
5.6675545e-05
7.1791235e-05
9.1041802e-05
0.00011671034
0.00015349694
0.00021190076
0.00031965799
0.00057320541
0.0014518386
2.6441082e-05
2.9404816e-05
3.5650591e-05
4.4759303e-05
5.6633949e-05
7.1618068e-05
9.0776554e-05
0.00011639299
0.00015317136
0.00021162526
0.00031953294
0.00057347114
0.0014534809
2.6914834e-05
2.9796196e-05
3.5888958e-05
4.4821107e-05
5.6533305e-05
7.1388766e-05
9.0458013e-05
0.00011602548
0.00015279874
0.00021130497
0.00031936211
0.00057367823
0.0014549719
2.731477e-05
3.0117836e-05
3.6064345e-05
4.4826184e-05
5.6380237e-05
7.1109905e-05
9.0092343e-05
0.00011561335
0.00015238399
0.00021094419
0.00031914913
0.00057382908
0.0014563106
2.7646311e-05
3.0375211e-05
3.6182416e-05
4.4780538e-05
5.618106e-05
7.0787858e-05
8.968568e-05
0.00011516233
0.00015193234
0.00021054764
0.00031889812
0.00057392677
0.0014574976
2.7914912e-05
3.0573746e-05
3.6248644e-05
4.4689865e-05
5.5941755e-05
7.0428744e-05
8.924405e-05
0.00011467816
0.0001514492
0.00021012035
0.00031861363
0.00057397499
0.0014585351
2.8125956e-05
3.071874e-05
3.6268275e-05
4.4559537e-05
5.5667948e-05
7.0038383e-05
8.8773302e-05
0.00011416657
0.00015094006
0.00020966751
0.00031830046
0.00057397784
0.0014594269
2.8284675e-05
3.0815302e-05
3.6246294e-05
4.4394596e-05
5.5364901e-05
6.9622268e-05
8.8279045e-05
0.00011363314
0.00015041038
0.00020919439
0.00031796351
0.00057393974
0.0014601782
2.8396093e-05
3.0868314e-05
3.6187415e-05
4.4199748e-05
5.5037506e-05
6.9185543e-05
8.7766606e-05
0.00011308328
0.00014986552
0.00020870617
0.00031760772
0.00057386526
0.0014607953
2.8464992e-05
3.08824e-05
3.6096062e-05
4.397937e-05
5.4690295e-05
6.8732988e-05
8.7240987e-05
0.0001125221
0.00014931061
0.00020820791
0.00031723791
0.00057375901
0.0014612853
2.8495889e-05
3.0861917e-05
3.5976374e-05
4.3737515e-05
5.432744e-05
6.8269018e-05
8.6706845e-05
0.00011195443
0.00014875054
0.00020770439
0.00031685868
0.00057362555
0.0014616563
2.8493022e-05
3.0810943e-05
3.5832203e-05
4.3477923e-05
5.3952765e-05
6.7797678e-05
8.6168473e-05
0.00011138475
0.00014818983
0.00020720012
0.00031647439
0.00057346929
0.0014619165
2.8460351e-05
3.073328e-05
3.5667116e-05
4.3204031e-05
5.3569758e-05
6.7322653e-05
8.5629788e-05
0.00011081716
0.00014763269
0.00020669924
0.00031608904
0.00057329441
0.0014620749
2.8401555e-05
3.0632454e-05
3.5484411e-05
4.2918983e-05
5.3181585e-05
6.6847272e-05
8.5094336e-05
0.00011025537
0.0001470829
0.00020620547
0.00031570627
0.00057310481
0.0014621402
2.8320041e-05
3.0511724e-05
3.5287115e-05
4.2625647e-05
5.2791106e-05
6.6374522e-05
8.4565287e-05
0.0001097027
0.00014654385
0.00020572216
0.00031532931
0.0005729041
0.0014621215
2.8218951e-05
3.0374092e-05
3.5078007e-05
4.2326625e-05
5.2400885e-05
6.5907063e-05
8.4045452e-05
0.00010916211
0.0001460185
0.0002052522
0.00031496099
0.00057269554
0.0014620273
2.8101172e-05
3.022231e-05
3.4859619e-05
4.202427e-05
5.2013211e-05
6.544724e-05
8.353729e-05
0.00010863613
0.00014550942
0.00020479808
0.00031460371
0.00057248204
0.0014618663
2.7969351e-05
3.0058896e-05
3.4634256e-05
4.1720695e-05
5.1630115e-05
6.4997104e-05
8.3042927e-05
0.00010812695
0.00014501877
0.00020436187
0.0003142595
0.00057226616
0.0014616466
2.7825903e-05
2.9886144e-05
3.4404003e-05
4.1417795e-05
5.125338e-05
6.4558426e-05
8.2564171e-05
0.0001076364
0.00014454835
0.00020394524
0.00031392998
0.00057205013
0.0014613761
2.7673028e-05
2.9706138e-05
3.4170744e-05
4.1117253e-05
5.0884563e-05
6.4132719e-05
8.2102534e-05
0.00010716597
0.00014409958
0.0002035495
0.00031361641
0.00057183581
0.001461062
2.7512722e-05
2.9520761e-05
3.3936165e-05
4.0820556e-05
5.0525008e-05
6.3721253e-05
8.1659251e-05
0.00010671686
0.00014367355
0.00020317562
0.00031331982
0.00057162457
0.001460711
2.7346788e-05
2.9331713e-05
3.3701777e-05
4.0529013e-05
5.0175863e-05
6.3325076e-05
8.1235301e-05
0.00010628996
0.00014327105
0.00020282425
0.00031304073
0.00057141648
0.0014603286
2.7176854e-05
2.9140519e-05
3.3468921e-05
4.0243759e-05
4.9838093e-05
6.2945029e-05
8.0831432e-05
0.00010588593
0.00014289262
0.00020249589
0.00031277954
0.00057120931
0.0014599199
2.7004379e-05
2.8948542e-05
3.323878e-05
3.9965776e-05
4.9512498e-05
6.2581766e-05
8.0448177e-05
0.00010550517
0.00014253849
0.00020219043
0.00031253533
0.00057100467
0.0014594899
2.6830668e-05
2.8756995e-05
3.3012395e-05
3.96959e-05
4.9199722e-05
6.2235776e-05
8.0085893e-05
0.00010514793
0.00014220885
0.00020190799
0.00031230608
0.00057080564
0.0014590439
2.6656882e-05
2.8566951e-05
3.2790671e-05
3.9434836e-05
4.8900275e-05
6.1907396e-05
7.9744765e-05
0.00010481423
0.00014190342
0.00020164696
0.0003120927
0.0005706138
0.001458587
2.6484053e-05
2.8379356e-05
3.257439e-05
3.9183166e-05
4.8614538e-05
6.1596821e-05
7.9424812e-05
0.00010450388
0.00014162169
0.00020140636
0.00031189569
0.00057043031
0.0014581236
2.6313086e-05
2.8195035e-05
3.2364222e-05
3.8941363e-05
4.8342784e-05
6.1304144e-05
7.9125967e-05
0.00010421665
0.00014136219
0.00020118618
0.00031171515
0.00057025594
0.0014576576
2.6144776e-05
2.8014705e-05
3.2160731e-05
3.8709801e-05
4.8085186e-05
6.102934e-05
7.8847985e-05
0.00010395152
0.00014112445
0.00020098611
0.00031155092
0.00057009117
0.0014571928
2.5979817e-05
2.7838985e-05
3.196439e-05
3.8488764e-05
4.7841824e-05
6.0772276e-05
7.8590336e-05
0.00010370764
0.00014090798
0.00020080565
0.00031140264
0.00056993626
0.001456732
2.5818804e-05
2.7668401e-05
3.1775585e-05
3.8278458e-05
4.7612707e-05
6.0532707e-05
7.8352158e-05
0.0001034845
0.00014071217
0.00020064415
0.0003112698
0.00056979128
0.0014562781
2.5662252e-05
2.75034e-05
3.1594634e-05
3.8079036e-05
4.739776e-05
6.0309961e-05
7.8132967e-05
0.00010328148
0.0001405363
0.00020050088
0.0003111518
0.00056965616
0.0014558333
2.55106e-05
2.7344362e-05
3.1421802e-05
3.7890537e-05
4.7196577e-05
6.0103648e-05
7.7932214e-05
0.00010309789
0.00014037958
0.000200375
0.00031104794
0.00056953076
0.0014553995
2.5364229e-05
2.7191606e-05
3.1257215e-05
3.7712813e-05
4.7008902e-05
5.9913331e-05
7.7749298e-05
0.00010293299
0.00014024115
0.00020026564
0.00031095748
0.00056941485
0.0014549783
2.5223417e-05
2.7045323e-05
3.1100917e-05
3.7545752e-05
4.6834441e-05
5.973854e-05
7.7583573e-05
0.00010278598
0.00014012012
0.00020017188
0.00031087968
0.00056930817
0.0014545711
2.5088368e-05
2.6905647e-05
3.0952918e-05
3.7389205e-05
4.6672871e-05
5.9578764e-05
7.7434357e-05
0.00010265602
0.00014001554
0.00020009279
0.00031081375
0.0005692104
0.0014541789
2.4959231e-05
2.6772669e-05
3.081319e-05
3.7242993e-05
4.6523835e-05
5.9433468e-05
7.7300938e-05
0.00010254227
0.00013992648
0.00020002742
0.0003107589
0.00056912122
0.0014538026
2.4836109e-05
2.6646437e-05
3.0681674e-05
3.7106905e-05
4.6386952e-05
5.9302087e-05
7.7182583e-05
0.00010244384
0.00013985197
0.00019997483
0.00031071435
0.00056904029
0.0014534429
2.471907e-05
2.6526965e-05
3.0558275e-05
3.6980706e-05
4.6261814e-05
5.9184039e-05
7.7078542e-05
0.00010235985
0.00013979105
0.00019993407
0.00031067934
0.00056896723
0.0014531002
2.460814e-05
2.6414232e-05
3.0442873e-05
3.6864131e-05
4.6147994e-05
5.9078722e-05
7.6988054e-05
0.00010228942
0.00013974278
0.00019990423
0.00031065312
0.00056890166
0.001452775
2.4503318e-05
2.6308188e-05
3.0335319e-05
3.6756898e-05
4.6045048e-05
5.8985526e-05
7.6910354e-05
0.00010223166
0.00013970622
0.00019988441
0.00031063494
0.00056884321
0.0014524674
2.4404573e-05
2.6208757e-05
3.0235443e-05
3.6658703e-05
4.5952516e-05
5.890383e-05
7.6844674e-05
0.00010218569
0.00013968045
0.00019987373
0.00031062409
0.00056879146
0.0014521775
2.4311847e-05
2.6115837e-05
3.0143051e-05
3.6569226e-05
4.586993e-05
5.883301e-05
7.6790254e-05
0.00010215067
0.00013966457
0.00019987135
0.00031061989
0.00056874604
0.0014519053
2.4225059e-05
2.6029306e-05
3.0057934e-05
3.6488133e-05
4.5796811e-05
5.8772441e-05
7.6746339e-05
0.00010212574
0.00013965771
0.00019987646
0.00031062168
0.00056870653
0.0014516507
2.4144108e-05
2.5949021e-05
2.9979863e-05
3.641508e-05
4.5732676e-05
5.8721501e-05
7.6712186e-05
0.00010211008
0.00013965905
0.00019988829
0.00031062884
0.00056867256
0.0014514134
2.4068874e-05
2.5874822e-05
2.9908599e-05
3.6349713e-05
4.5677041e-05
5.8679573e-05
7.668707e-05
0.0001021029
0.00013966777
0.00019990609
0.00031064078
0.00056864376
0.001451193
2.3999221e-05
2.5806537e-05
2.9843889e-05
3.6291672e-05
4.5629421e-05
5.864605e-05
7.6670281e-05
0.00010210344
0.00013968311
0.00019992917
0.00031065694
0.00056861977
0.0014509893
2.3934996e-05
2.5743977e-05
2.9785473e-05
3.6240592e-05
4.5589333e-05
5.8620334e-05
7.666113e-05
0.00010211095
0.00013970434
0.00019995688
0.00031067681
0.00056860023
0.0014508016
2.3876037e-05
2.5686946e-05
2.973308e-05
3.6196107e-05
4.5556301e-05
5.8601841e-05
7.665895e-05
0.00010212472
0.00013973076
0.0001999886
0.0003106999
0.00056858483
0.0014506296
2.382217e-05
2.5635234e-05
2.9686436e-05
3.6157849e-05
4.5529852e-05
5.8590002e-05
7.66631e-05
0.00010214409
0.00013976173
0.00020002375
0.00031072575
0.00056857324
0.0014504727
2.377321e-05
2.5588629e-05
2.9645263e-05
3.6125453e-05
4.5509524e-05
5.8584263e-05
7.6672961e-05
0.00010216841
0.00013979663
0.0002000618
0.00031075395
0.00056856516
0.0014503303
2.3728967e-05
2.5546909e-05
2.9609279e-05
3.6098555e-05
4.5494863e-05
5.8584091e-05
7.6687942e-05
0.00010219707
0.00013983488
0.00020010225
0.0003107841
0.0005685603
0.0014502017
2.3689243e-05
2.5509849e-05
2.9578202e-05
3.6076798e-05
4.5485428e-05
5.858897e-05
7.670748e-05
0.0001022295
0.00013987594
0.00020014463
0.00031081585
0.00056855839
0.0014500865
2.3653837e-05
2.5477221e-05
2.955175e-05
3.6059826e-05
4.5480789e-05
5.8598403e-05
7.6731038e-05
0.00010226516
0.00013991931
0.00020018852
0.00031084888
0.00056855917
0.0014499839
2.3622543e-05
2.5448795e-05
2.9529643e-05
3.6047295e-05
4.5480529e-05
5.8611916e-05
7.6758107e-05
0.00010230354
0.00013996453
0.00020023352
0.00031088287
0.00056856241
0.0014498934
2.3595153e-05
2.5424339e-05
2.9511603e-05
3.6038865e-05
4.5484247e-05
5.8629054e-05
7.6788207e-05
0.00010234417
0.00014001116
0.00020027928
0.00031091756
0.00056856788
0.0014498144
2.3571458e-05
2.5403623e-05
2.9497356e-05
3.6034206e-05
4.5491555e-05
5.8649386e-05
7.6820886e-05
0.0001023866
0.0001400588
0.00020032547
0.00031095268
0.00056857535
0.0014497462
2.3551249e-05
2.5386417e-05
2.9486632e-05
3.6032998e-05
4.5502082e-05
5.8672501e-05
7.6855716e-05
0.00010243043
0.00014010709
0.00020037178
0.000310988
0.0005685846
0.0014496883
2.3534316e-05
2.5372495e-05
2.9479168e-05
3.603493e-05
4.551547e-05
5.869801e-05
7.6892299e-05
0.00010247527
0.00014015568
0.00020041794
0.0003110233
0.0005685954
0.00144964
2.3520453e-05
2.5361631e-05
2.9474705e-05
3.6039702e-05
4.5531382e-05
5.8725547e-05
7.6930263e-05
0.00010252078
0.00014020428
0.00020046368
0.00031105836
0.00056860752
0.0014496008
2.3509454e-05
2.5353606e-05
2.9472993e-05
3.6047026e-05
4.5549493e-05
5.8754767e-05
7.6969263e-05
0.00010256662
0.00014025259
0.00020050879
0.000311093
0.00056862076
0.0014495701
2.3501119e-05
2.5348203e-05
2.9473788e-05
3.6056626e-05
4.5569499e-05
5.8785348e-05
7.700898e-05
0.00010261251
0.00014030038
0.00020055307
0.00031112705
0.00056863489
0.0014495471
2.3495248e-05
2.5345212e-05
2.9476857e-05
3.6068239e-05
4.5591111e-05
5.8816991e-05
7.7049121e-05
0.00010265817
0.00014034741
0.00020059633
0.00031116037
0.00056864975
0.0014495313
2.349165e-05
2.534443e-05
2.9481973e-05
3.6081614e-05
4.561406e-05
5.8849417e-05
7.7089418e-05
0.00010270338
0.00014039349
0.00020063844
0.00031119285
0.00056866516
0.0014495221
2.3490138e-05
2.5345658e-05
2.948892e-05
3.6096514e-05
4.5638092e-05
5.8882372e-05
7.7129631e-05
0.00010274792
0.00014043846
0.00020067926
0.00031122438
0.00056868101
0.0014495187
2.3490528e-05
2.5348706e-05
2.9497493e-05
3.6112716e-05
4.5662973e-05
5.8915621e-05
7.7169541e-05
0.0001027916
0.00014048216
0.00020071871
0.00031125489
0.0005686972
0.0014495207
2.3492646e-05
2.5353392e-05
2.9507493e-05
3.613001e-05
4.5688485e-05
5.894895e-05
7.7208953e-05
0.00010283426
0.00014052448
0.00020075669
0.00031128434
0.00056871365
0.0014495274
2.3496324e-05
2.5359539e-05
2.9518736e-05
3.6148199e-05
4.5714428e-05
5.8982166e-05
7.7247693e-05
0.00010287576
0.00014056532
0.00020079314
0.00031131269
0.00056873029
0.0014495385
2.3501397e-05
2.5366981e-05
2.9531044e-05
3.6167098e-05
4.5740615e-05
5.9015091e-05
7.7285606e-05
0.00010291597
0.00014060459
0.00020082802
0.00031133988
0.00056874704
0.0014495534
2.3507711e-05
2.5375558e-05
2.9544252e-05
3.6186537e-05
4.5766876e-05
5.9047568e-05
7.7322555e-05
0.0001029548
0.00014064221
0.00020086127
0.00031136589
0.00056876383
0.0014495719
2.3515118e-05
2.5385118e-05
2.9558202e-05
3.6206355e-05
4.5793056e-05
5.9079454e-05
7.7358422e-05
0.00010299214
0.00014067813
0.00020089286
0.00031139069
0.00056878056
0.0014495936
2.3523476e-05
2.5395517e-05
2.9572747e-05
3.6226405e-05
4.5819014e-05
5.9110621e-05
7.7393101e-05
0.00010302793
0.00014071229
0.00020092276
0.00031141422
0.00056879712
0.0014496181
2.3532651e-05
2.540662e-05
2.9587751e-05
3.6246552e-05
4.5844621e-05
5.9140958e-05
7.7426504e-05
0.0001030621
0.00014074468
0.00020095096
0.00031143647
0.00056881336
0.0014496451
2.3542515e-05
2.5418299e-05
2.9603086e-05
3.6266672e-05
4.5869764e-05
5.9170368e-05
7.7458557e-05
0.0001030946
0.00014077525
0.00020097743
0.0003114574
0.0005688291
0.0014496741
2.3552951e-05
2.5430434e-05
2.9618634e-05
3.6286652e-05
4.589434e-05
5.9198767e-05
7.7489203e-05
0.00010312541
0.00014080401
0.00020100219
0.000311477
0.00056884401
0.0014497048
2.3563846e-05
2.5442916e-05
2.9634286e-05
3.6306391e-05
4.5918262e-05
5.9226088e-05
7.7518396e-05
0.00010315451
0.00014083096
0.00020102525
0.0003114952
0.00056885807
0.0014497365
2.3575095e-05
2.5455641e-05
2.9649944e-05
3.6325798e-05
4.5941454e-05
5.9252273e-05
7.7546105e-05
0.00010318189
0.00014085612
0.00020104664
0.00031151188
0.00056887141
0.0014497692
2.3586604e-05
2.5468514e-05
2.9665518e-05
3.6344793e-05
4.5963852e-05
5.9277281e-05
7.7572312e-05
0.00010320755
0.0001408795
0.00020106634
0.00031152712
0.00056888411
0.0014498023
2.3598283e-05
2.5481449e-05
2.9680927e-05
3.6363306e-05
4.5985401e-05
5.9301079e-05
7.7597013e-05
0.00010323153
0.00014090117
0.00020108432
0.00031154105
0.00056889621
0.0014498357
2.361005e-05
2.5494367e-05
2.96961e-05
3.6381279e-05
4.600606e-05
5.9323648e-05
7.7620211e-05
0.00010325384
0.00014092108
0.00020110066
0.00031155375
0.00056890776
0.0014498692
2.3621831e-05
2.5507196e-05
2.9710972e-05
3.6398658e-05
4.6025794e-05
5.9344974e-05
7.7641915e-05
0.0001032745
0.00014093927
0.00020111547
0.0003115653
0.00056891879
0.0014499026
2.3633558e-05
2.5519873e-05
2.9725488e-05
3.6415401e-05
4.604458e-05
5.9365058e-05
7.7662151e-05
0.00010329351
0.00014095581
0.00020112881
0.00031157577
0.00056892932
0.0014499356
2.364517e-05
2.553234e-05
2.9739598e-05
3.6431474e-05
4.6062401e-05
5.9383905e-05
7.7680903e-05
0.0001033109
0.00014097077
0.00020114077
0.00031158521
0.00056893936
0.0014499684
2.3656612e-05
2.5544546e-05
2.9753261e-05
3.6446849e-05
4.607925e-05
5.9401506e-05
7.769819e-05
0.00010332674
0.00014098421
0.00020115141
0.00031159367
0.00056894889
0.0014500007
2.3667835e-05
2.5556447e-05
2.9766442e-05
3.6461507e-05
4.6095113e-05
5.941786e-05
7.7714049e-05
0.00010334107
0.00014099622
0.0002011608
0.0003116012
0.00056895791
0.0014500324
2.3678798e-05
2.5568005e-05
2.9779115e-05
3.6475426e-05
4.6109978e-05
5.9432987e-05
7.7728523e-05
0.00010335397
0.00014100685
0.000201169
0.00031160783
0.00056896639
0.0014500634
2.3689463e-05
2.5579187e-05
2.9791249e-05
3.6488587e-05
4.612385e-05
5.9446914e-05
7.7741659e-05
0.00010336548
0.00014101617
0.00020117608
0.00031161361
0.00056897432
0.0014500936
2.3699796e-05
2.5589963e-05
2.9802822e-05
3.6500983e-05
4.6136739e-05
5.9459671e-05
7.7753507e-05
0.00010337569
0.00014102426
0.0002011821
0.00031161858
0.00056898169
0.001450123
2.3709767e-05
2.5600305e-05
2.9813818e-05
3.6512611e-05
4.6148663e-05
5.9471295e-05
7.7764121e-05
0.00010338465
0.00014103119
0.00020118713
0.00031162279
0.00056898851
0.0014501513
2.3719352e-05
2.5610194e-05
2.9824224e-05
3.6523476e-05
4.6159642e-05
5.9481827e-05
7.7773558e-05
0.00010339243
0.00014103703
0.00020119125
0.0003116263
0.00056899482
0.0014501785
2.372853e-05
2.5619612e-05
2.9834036e-05
3.6533585e-05
4.6169703e-05
5.9491309e-05
7.7781877e-05
0.00010339911
0.00014104186
0.00020119451
0.00031162916
0.00056900064
0.0014502045
2.3737284e-05
2.562855e-05
2.9843251e-05
3.6542951e-05
4.6178873e-05
5.9499786e-05
7.7789138e-05
0.00010340475
0.00014104575
0.000201197
0.00031163144
0.00056900601
0.0014502293
2.3745603e-05
2.5636998e-05
2.9851872e-05
3.6551589e-05
4.6187184e-05
5.9507307e-05
7.77954e-05
0.00010340942
0.00014104877
0.00020119877
0.00031163319
0.00056901098
0.0014502529
2.3753479e-05
2.5644955e-05
2.9859904e-05
3.6559518e-05
4.6194669e-05
5.9513917e-05
7.7800723e-05
0.00010341319
0.00014105099
0.00020119989
0.00031163445
0.00056901557
0.0014502753
2.3760907e-05
2.5652418e-05
2.9867355e-05
3.6566757e-05
4.6201363e-05
5.9519665e-05
7.7805164e-05
0.00010341611
0.00014105247
0.00020120041
0.00031163526
0.00056901979
0.0014502966
2.3767885e-05
2.5659391e-05
2.9874236e-05
3.657333e-05
4.62073e-05
5.9524597e-05
7.780878e-05
0.00010341826
0.00014105326
0.00020120038
0.00031163565
0.00056902365
0.0014503168
2.3774413e-05
2.5665877e-05
2.9880559e-05
3.6579259e-05
4.6212515e-05
5.9528761e-05
7.7811625e-05
0.00010341968
0.00014105342
0.00020119983
0.00031163563
0.00056902711
0.001450336