/*--------------------------------*- C++ -*----------------------------------*\
| =========                 |                                                 |
| \\      /  F ield         | OpenFOAM: The Open Source CFD Toolbox           |
|  \\    /   O peration     | Version:  2506                                  |
|   \\  /    A nd           | Website:  www.openfoam.com                      |
|    \\/     M anipulation  |                                                 |
\*---------------------------------------------------------------------------*/
FoamFile
{
    version     2.0;
    format      ascii;
    arch        "LSB;label=32;scalar=64";
    class       volScalarField;
    location    "2000/water";
    object      k;
}
// * * * * * * * * * * * * * * * * * * * * * * * * * * * * * * * * * * * * * //

dimensions      [0 2 -2 0 0 0 0];

internalField   nonuniform List<scalar> 
2600
(
0.0001992401
0.00019923925
0.00019923929
0.00019923963
0.00019923982
0.00019923914
0.00019923438
0.00019921375
0.00019914651
0.00019904325
0.00019990841
0.00021454267
0.00040955349
0.00017237279
0.00017237614
0.00017237826
0.00017238051
0.0001723821
0.00017237949
0.00017235884
0.00017227555
0.000172027
0.00017162102
0.00017329371
0.00020304806
0.00052391648
0.00015132731
0.00015133049
0.00015133306
0.00015133552
0.00015133516
0.00015132207
0.00015126283
0.00015106462
0.00015055477
0.00014985944
0.0001528957
0.00019760629
0.00057958156
0.00013448336
0.00013448533
0.00013448764
0.00013448905
0.00013448325
0.00013445009
0.00013432997
0.00013398205
0.00013321503
0.00013247936
0.00013787909
0.00019702317
0.00059640815
0.00012075551
0.00012075697
0.00012075853
0.00012075718
0.00012074152
0.0001206782
0.00012048052
0.00011997843
0.0001190486
0.00011870929
0.00012776334
0.00020116854
0.00059206885
0.0001093899
0.00010939088
0.000109391
0.00010938492
0.00010935483
0.00010925313
0.00010897207
0.00010834649
0.00010742643
0.0001080609
0.00012226457
0.00021023394
0.00057809221
9.984982e-05
9.9850093e-05
9.9847944e-05
9.9835056e-05
9.9786463e-05
9.9641865e-05
9.9284958e-05
9.859999e-05
9.7925044e-05
0.00010022517
0.00012123091
0.00022425603
0.00056106272
9.1744874e-05
9.174416e-05
9.1738826e-05
9.1717148e-05
9.1647174e-05
9.1460104e-05
9.1049018e-05
9.0398665e-05
9.0258419e-05
9.5030413e-05
0.00012461431
0.00024286356
0.00054449405
8.4785472e-05
8.4783454e-05
8.4774018e-05
8.4741918e-05
8.4649457e-05
8.4426122e-05
8.3996574e-05
8.3502376e-05
8.4241543e-05
9.2421343e-05
0.00013239492
0.00026511347
0.00053012765
7.8752977e-05
7.8749319e-05
7.8734951e-05
7.8691403e-05
7.8577619e-05
7.8330528e-05
7.7932172e-05
7.7743318e-05
7.9771153e-05
9.2438122e-05
0.00014444361
0.00028951151
0.0005186607
7.3479682e-05
7.3474066e-05
7.3454131e-05
7.3398964e-05
7.3267704e-05
7.3016085e-05
7.2712929e-05
7.3009357e-05
7.6815021e-05
9.5182833e-05
0.00016036324
0.00031428525
0.00051014247
6.8835097e-05
6.8827266e-05
6.8801436e-05
6.8735571e-05
6.8593744e-05
6.836405e-05
6.8235745e-05
6.9234209e-05
7.5403716e-05
0.00010076472
0.00017939076
0.00033780739
0.0005042266
6.4716374e-05
6.4706175e-05
6.4674551e-05
6.4600233e-05
6.4458202e-05
6.4284863e-05
6.4429045e-05
6.6391811e-05
7.5619872e-05
0.0001092241
0.00020043528
0.00035894529
0.00050037283
6.1041501e-05
6.1028932e-05
6.0992164e-05
6.091321e-05
6.0785257e-05
6.0711783e-05
6.1247563e-05
6.4493003e-05
7.7580807e-05
0.00012045028
0.00022225715
0.00037717552
0.0004980107
5.7744396e-05
5.7729653e-05
5.7689074e-05
5.7611142e-05
5.751606e-05
5.7596592e-05
5.8669223e-05
6.3582872e-05
8.1411586e-05
0.00013412437
0.00024370832
0.00039247762
0.00049664628
5.4771313e-05
5.4754847e-05
5.4712615e-05
5.4643526e-05
5.4605384e-05
5.4906753e-05
5.6693486e-05
6.3736861e-05
8.7208043e-05
0.00014971788
0.00026392364
0.00040513366
0.00049590625
5.2078186e-05
5.206076e-05
5.2020025e-05
5.1970154e-05
5.2019282e-05
5.2623661e-05
5.5340604e-05
6.5053658e-05
9.4994184e-05
0.00016655656
0.0002823955
0.00041554871
0.00049553614
4.9628636e-05
4.9611393e-05
4.9576492e-05
4.9559258e-05
4.9733503e-05
5.0741692e-05
5.4651195e-05
6.7643172e-05
0.00010468473
0.00018392817
0.00029893687
0.00042413794
0.00049537652
4.7392458e-05
4.7377004e-05
4.7353699e-05
4.7386176e-05
4.773248e-05
4.9267885e-05
5.4685329e-05
7.1608742e-05
0.00011606686
0.00020119288
0.00031358495
0.0004312733
0.0004953351
4.5344476e-05
4.5332971e-05
4.5328746e-05
4.5432431e-05
4.600877e-05
4.8222045e-05
5.5520138e-05
7.7024461e-05
0.00012881109
0.00021785898
0.00032650009
0.00043726613
0.00049536293
4.3463657e-05
4.3458933e-05
4.3483358e-05
4.3685127e-05
4.4562868e-05
4.7637065e-05
5.7244887e-05
8.3911104e-05
0.00014251076
0.00023360812
0.00033789056
0.00044236711
0.00049543702
4.1732429e-05
4.173814e-05
4.1803329e-05
4.2136614e-05
4.3403329e-05
4.7559127e-05
5.9952698e-05
9.2216772e-05
0.00015673761
0.00024827796
0.00034796834
0.00044677301
0.00049554866
4.0136167e-05
4.015697e-05
4.0278148e-05
4.0784372e-05
4.2547129e-05
4.8047287e-05
6.37287e-05
0.00010180889
0.00017109624
0.00026182258
0.0003569282
0.0004506357
0.00049569617
3.8662802e-05
3.8704582e-05
3.8900797e-05
3.9631107e-05
4.2020194e-05
4.917184e-05
6.8635429e-05
0.00011248165
0.00018526229
0.00027427017
0.00036494028
0.00045407114
0.00049588069
3.7302531e-05
3.7372692e-05
3.7667676e-05
3.8685008e-05
4.1857944e-05
5.1010816e-05
7.4697745e-05
0.00012397797
0.00019899861
0.00028568912
0.00037214923
0.00045716736
0.00049610392
3.6047628e-05
3.6155447e-05
3.6578682e-05
3.7960181e-05
4.2105652e-05
5.3644137e-05
8.1890765e-05
0.00013601988
0.00021215193
0.00029616533
0.00037867608
0.00045999117
0.00049636709
3.4892327e-05
3.5049398e-05
3.5637398e-05
3.7477201e-05
4.2818254e-05
5.7145344e-05
9.0134487e-05
0.00014833914
0.00022463802
0.00030578893
0.00038462123
0.0004625934
0.00049667064
3.383279e-05
3.4053569e-05
3.4851411e-05
3.7263736e-05
4.4059203e-05
6.1571461e-05
9.9297379e-05
0.00016070076
0.00023642316
0.00031464713
0.00039006764
0.00046501299
0.00049701416
3.2867148e-05
3.316962e-05
3.4232755e-05
3.7355161e-05
4.589791e-05
6.6952451e-05
0.00010920861
0.00017291579
0.00024750737
0.00032282077
0.00039508378
0.00046727996
0.00049739654
3.1995627e-05
3.2402111e-05
3.3798454e-05
3.7794962e-05
4.8405427e-05
7.3282436e-05
0.00011967597
0.00018484396
0.00025791153
0.00033038288
0.00039972633
0.00046941774
0.00049781615
3.1220754e-05
3.1758868e-05
3.3571166e-05
3.8634689e-05
5.16483e-05
8.0515034e-05
0.00013050501
0.00019638896
0.00026766839
0.00033739835
0.00040404224
0.00047144508
0.00049827105
3.0547674e-05
3.1251459e-05
3.3579859e-05
3.9933128e-05
5.5680956e-05
8.8564412e-05
0.00014151526
0.0002074904
0.00027681664
0.00034392426
0.00040806987
0.00047336165
0.00049875826
2.9984563e-05
3.0895779e-05
3.3860462e-05
4.1754323e-05
6.0537584e-05
9.731215e-05
0.00015255089
0.00021811501
0.00028539698
0.00035000997
0.00041183982
0.00047517683
0.00049927448
2.9543172e-05
3.0712741e-05
3.4456304e-05
4.4164151e-05
6.6225006e-05
0.00010661843
0.00016348529
0.00022824914
0.00029345001
0.00035569878
0.00041537498
0.00047690098
0.00049981638
2.9239499e-05
3.0729041e-05
3.541815e-05
4.7225366e-05
7.2718217e-05
0.00011633497
0.00017422102
0.00023789273
0.00030101459
0.00036102772
0.000418694
0.00047854313
0.00050038114
2.9094596e-05
3.0977952e-05
3.6803504e-05
5.0991336e-05
7.9959885e-05
0.00012631696
0.00018468652
0.00024705469
0.00030812684
0.00036602759
0.00042181619
0.00048011509
0.00050096676
2.9135497e-05
3.1500048e-05
3.8674863e-05
5.5499192e-05
8.7864167e-05
0.00013643209
0.00019483195
0.00025575014
0.00031482083
0.00037072328
0.00042475508
0.00048162854
0.000501572
2.9396232e-05
3.2343671e-05
4.1096634e-05
6.0763508e-05
9.6324075e-05
0.00014656574
0.00020462431
0.0002639967
0.00032112526
0.00037513787
0.00042753007
0.00048308916
0.00050219529
2.9918843e-05
3.3564911e-05
4.4130589e-05
6.6771889e-05
0.00010522079
0.00015662302
0.00021404417
0.00027181504
0.00032706606
0.00037928746
0.00043015897
0.00048450265
0.00050283511
3.0754243e-05
3.5226727e-05
4.7830037e-05
7.3483558e-05
0.00011443287
0.00016652783
0.00022308101
0.00027922363
0.00033266467
0.00038319522
0.00043265449
0.00048587307
0.00050348988
3.1962698e-05
3.7396846e-05
5.2233353e-05
8.0831461e-05
0.00012384408
0.00017622136
0.00023173237
0.00028624169
0.00033793722
0.00038688252
0.00043502773
0.00048720352
0.00050415803
3.3613508e-05
4.0144096e-05
5.7357856e-05
8.87274e-05
0.00013334837
0.00018565851
0.00023999854
0.00029288457
0.00034290599
0.00039036649
0.00043728791
0.00048849634
0.00050483797
3.5783414e-05
4.3533082e-05
6.319532e-05
9.706924e-05
0.00014285307
0.00019480683
0.00024788468
0.00029916231
0.0003475933
0.00039366187
0.00043944269
0.00048975325
0.00050552812
3.8553077e-05
4.7617445e-05
6.971013e-05
0.00010574828
0.00015227866
0.00020364078
0.00025539329
0.00030509328
0.00035201758
0.00039678117
0.00044149842
0.00049097544
0.00050622692
4.2001168e-05
5.2432578e-05
7.6840735e-05
0.00011465642
0.00016156002
0.00021214495
0.00026252194
0.00031069682
0.00035619499
0.00039973504
0.0004434603
0.00049216367
0.00050693283
4.6195936e-05
5.798898e-05
8.4503831e-05
0.00012369062
0.00017064179
0.00022029902
0.00026928194
0.00031598928
0.00036013925
0.00040253237
0.00044533252
0.00049331826
0.00050764432
5.1185035e-05
6.4267729e-05
9.2600651e-05
0.0001327565
0.0001794794
0.00022808589
0.0002756847
0.00032098502
0.00036386201
0.00040518056
0.00044711836
0.00049443921
0.00050835988
5.6985378e-05
7.1219307e-05
0.00010102458
0.00014177166
0.00018802208
0.00023550304
0.0002817403
0.0003256963
0.00036737303
0.00040768555
0.00044882025
0.00049552614
0.00050907799
6.3575495e-05
7.8766095e-05
0.00010966809
0.00015065102
0.00019623701
0.00024254864
0.00028745746
0.0003301333
0.00037068023
0.00041005204
0.00045043987
0.00049657836
0.00050979712
7.08935e-05
8.6809039e-05
0.00011841801
0.00015932164
0.0002040999
0.00024922138
0.00029284335
0.00033430426
0.00037378984
0.00041228347
0.00045197811
0.00049759483
0.00051051571
7.8838277e-05
9.5225388e-05
0.00012716548
0.00016772589
0.00021159052
0.00025551999
0.00029790357
0.00033821554
0.00037670647
0.00041438213
0.00045343517
0.00049857418
0.00051123213
8.7271759e-05
0.00010388139
0.00013581417
0.00017581507
0.00021869192
0.00026144297
0.00030264213
0.00034187167
0.00037943324
0.00041634918
0.00045481054
0.00049951469
0.00051194472
9.6036201e-05
0.0001126429
0.00014427886
0.00018354851
0.00022538999
0.00026698862
0.00030706159
0.00034527555
0.00038197181
0.00041818477
0.00045610303
0.00050041431
0.00051265168
0.00010496812
0.00012138219
0.00015248589
0.00019089301
0.00023167334
0.00027215516
0.00031116332
0.00034842865
0.0003843226
0.00041988807
0.00045731082
0.00050127063
0.00051335112
0.0001139106
0.00012998323
0.00016037326
0.00019782236
0.00023753333
0.00027694108
0.00031494781
0.00035133128
0.00038648497
0.00042145743
0.00045843153
0.00050208094
0.00051404099
0.00012272249
0.00013834519
0.00016789035
0.00020431695
0.00024296424
0.00028134552
0.00031841515
0.00035398295
0.00038845745
0.00042289051
0.00045946231
0.00050284226
0.00051471911
0.00013128389
0.00014638429
0.00017499755
0.00021036346
0.00024796341
0.00028536875
0.0003215655
0.00035638278
0.00039023808
0.00042418454
0.00046039996
0.00050355139
0.00051538316
0.00013949844
0.00015403431
0.0001816656
0.00021595443
0.00025253143
0.00028901262
0.0003243996
0.00035852995
0.00039182471
0.00042533656
0.00046124116
0.00050420508
0.00051603067
0.00014729307
0.00016124585
0.00018787485
0.00022108784
0.00025667212
0.00029228086
0.0003269192
0.00036042415
0.00039321547
0.00042634369
0.00046198263
0.0005048001
0.0005166591
0.00015461614
0.00016798501
0.00019361431
0.00022576659
0.00026039251
0.00029517938
0.00032912753
0.00036206601
0.00039440907
0.00042720348
0.00046262138
0.0005053334
0.00051726585
0.0001614347
0.00017423147
0.00019888063
0.00022999798
0.0002637026
0.00029771635
0.00033102951
0.00036345745
0.00039540521
0.00042791421
0.00046315498
0.00050580232
0.00051784835
0.00016773144
0.00017997644
0.00020367706
0.00023379305
0.00026661511
0.0002999022
0.00033263199
0.00036460199
0.00039620483
0.00042847516
0.00046358175
0.00050620471
0.0005184041
0.00017350168
0.00018522059
0.00020801229
0.00023716601
0.00026914511
0.00030174949
0.0003339438
0.00036550487
0.00039681041
0.00042888686
0.000463901
0.0005065391
0.00051893074
0.00017875063
0.00018997218
0.00021189952
0.00024013367
0.00027130965
0.00030327272
0.00033497569
0.0003661732
0.00039722606
0.00042915125
0.00046411316
0.00050680481
0.00051942617
0.00018349099
0.00019424528
0.00021535543
0.00024271481
0.00027312735
0.00030448802
0.00033574019
0.00036661587
0.00039745759
0.00042927176
0.0004642199
0.000507002
0.00051988856
0.000187741
0.0001980583
0.00021839937
0.00024492975
0.00027461803
0.00030541288
0.00033625141
0.00036684347
0.00039751249
0.00042925336
0.00046422414
0.0005071318
0.00052031645
0.00019152276
0.0002014328
0.00022105258
0.00024679981
0.0002758023
0.00030606583
0.0003365248
0.00036686812
0.00039739979
0.00042910246
0.00046413005
0.0005071962
0.00052070875
0.00019486096
0.0002043924
0.00022333757
0.00024834696
0.00027670128
0.00030646608
0.00033657683
0.00036670323
0.00039712995
0.00042882683
0.00046394296
0.00050719805
0.0005210648
0.00019778186
0.00020696199
0.00022527762
0.00024959346
0.00027733627
0.0003066333
0.00033642475
0.00036636323
0.00039671457
0.00042843538
0.00046366921
0.000507141
0.00052138437
0.0002003125
0.0002091671
0.00022689628
0.00025056157
0.00027772852
0.00030658726
0.00033608626
0.00036586331
0.00039616616
0.000427938
0.00046331602
0.00050702931
0.00052166763
0.00020248006
0.00021103338
0.00022821705
0.00025127328
0.00027789897
0.00030634767
0.00033557925
0.00036521913
0.00039549794
0.00042734529
0.00046289127
0.00050686781
0.00052191516
0.00020431149
0.00021258619
0.00022926313
0.00025175015
0.00027786814
0.00030593392
0.00033492157
0.00036444657
0.00039472348
0.00042666834
0.00046240328
0.00050666168
0.00052212789
0.00020583313
0.00021385038
0.00023005716
0.00025201316
0.00027765591
0.00030536489
0.00033413082
0.00036356147
0.00039385651
0.00042591847
0.00046186065
0.00050641635
0.00052230706
0.00020707047
0.00021485001
0.00023062105
0.00025208252
0.00027728144
0.00030465888
0.00033322411
0.00036257942
0.0003929107
0.00042510702
0.00046127207
0.00050613733
0.0005224542
0.00020804802
0.00021560821
0.00023097592
0.00025197766
0.00027676308
0.00030383338
0.00033221799
0.00036151556
0.0003918994
0.00042424518
0.0004606461
0.00050583013
0.00052257103
0.00020878915
0.00021614713
0.00023114192
0.00025171708
0.00027611828
0.00030290508
0.00033112822
0.00036038446
0.00039083552
0.00042334376
0.00045999105
0.00050550011
0.00052265947
0.00020931608
0.00021648779
0.00023113825
0.00025131838
0.00027536357
0.00030188975
0.00032996976
0.00035919994
0.00038973134
0.0004224131
0.00045931486
0.00050515238
0.00052272151
0.00020964981
0.0002166501
0.00023098307
0.00025079817
0.00027451449
0.0003008022
0.00032875666
0.00035797501
0.00038859846
0.0004214629
0.00045862498
0.00050479177
0.00052275926
0.0002098101
0.00021665283
0.00023069351
0.00025017206
0.00027358562
0.00029965625
0.00032750201
0.00035672179
0.00038744764
0.00042050221
0.00045792831
0.00050442277
0.00052277484
0.0002098155
0.00021651359
0.00023028565
0.0002494547
0.00027259054
0.00029846476
0.00032621794
0.00035545148
0.00038628882
0.00041953931
0.00045723116
0.00050404947
0.00052277037
0.00020968336
0.00021624886
0.00022977454
0.00024865973
0.00027154187
0.00029723955
0.00032491557
0.0003541743
0.00038513103
0.00041858168
0.00045653919
0.00050367555
0.00052274792
0.00020942985
0.00021587403
0.00022917421
0.00024779984
0.00027045123
0.00029599149
0.00032360505
0.00035289955
0.0003839824
0.00041763603
0.00045585743
0.00050330428
0.00052270954
0.00020907001
0.00021540338
0.00022849768
0.00024688677
0.00026932934
0.0002947305
0.00032229555
0.00035163553
0.00038285019
0.00041670827
0.00045519026
0.00050293851
0.00052265717
0.00020861777
0.00021485018
0.00022775701
0.00024593133
0.00026818598
0.00029346554
0.00032099529
0.00035038964
0.00038174073
0.00041580351
0.00045454145
0.00050258071
0.00052259267
0.00020808602
0.00021422666
0.00022696332
0.00024494346
0.00026703005
0.00029220469
0.00031971161
0.00034916838
0.00038065955
0.00041492611
0.00045391415
0.00050223292
0.00052251779
0.00020748664
0.0002135441
0.00022612684
0.00024393221
0.00026586961
0.00029095517
0.00031845095
0.00034797737
0.00037961132
0.0004140797
0.00045331083
0.00050189537
0.0005224341
0.00020683054
0.00021281288
0.00022525691
0.00024290584
0.00026471191
0.00028972336
0.00031721892
0.0003468214
0.00037859995
0.00041326717
0.00045273322
0.00050156779
0.00052234292
0.00020612773
0.00021204246
0.00022436209
0.00024187182
0.00026356342
0.0002885149
0.00031602035
0.00034570454
0.00037762863
0.00041249076
0.00045218168
0.00050125106
0.00052224545
0.00020538737
0.00021124152
0.00022345013
0.00024083688
0.00026242991
0.00028733468
0.00031485935
0.00034463008
0.00037669981
0.00041175191
0.00045165685
0.00050094664
0.0005221429
0.00020461779
0.00021041793
0.00022252806
0.00023980705
0.00026131645
0.0002861869
0.00031373936
0.00034360072
0.00037581538
0.00041105107
0.00045115892
0.00050065648
0.00052203654
0.00020382657
0.00020957883
0.00022160221
0.00023878772
0.00026022749
0.00028507518
0.00031266319
0.00034261847
0.00037497631
0.00041038847
0.00045068911
0.00050038156
0.00052192756
0.00020302057
0.00020873069
0.00022067828
0.00023778366
0.00025916688
0.00028400251
0.00031163305
0.00034168472
0.00037418305
0.00040976439
0.00045024827
0.00050012262
0.000521817
0.00020220598
0.0002078793
0.00021976134
0.00023679907
0.00025813792
0.00028297138
0.00031065064
0.00034080023
0.00037343535
0.00040917948
0.0004498368
0.00049988007
0.00052170584
0.0002013884
0.00020702989
0.00021885592
0.00023583761
0.00025714343
0.00028198375
0.00030971702
0.00033996496
0.00037273357
0.00040863394
0.00044945474
0.00049965409
0.0005215949
0.00020057279
0.0002061871
0.000217966
0.00023490246
0.00025618572
0.00028104104
0.00030883262
0.00033917889
0.00037207782
0.00040812758
0.00044910187
0.00049944466
0.00052148494
0.00019976362
0.00020535504
0.00021709508
0.00023399633
0.00025526663
0.0002801442
0.00030799732
0.00033844213
0.00037146782
0.00040765992
0.00044877769
0.00049925157
0.00052137659
0.00019896481
0.00020453736
0.00021624619
0.00023312151
0.00025438756
0.00027929334
0.00030721133
0.00033775444
0.00037090301
0.00040723023
0.00044848153
0.00049907448
0.0005212704
0.00019817985
0.00020373724
0.00021542197
0.00023227975
0.00025354911
0.00027848889
0.00030647453
0.00033711524
0.00037038251
0.00040683754
0.00044821255
0.00049891293
0.00052116684
0.00019741179
0.00020295745
0.00021462447
0.00023147224
0.000252752
0.00027773094
0.00030578651
0.00033652371
0.00036990524
0.00040648069
0.00044796975
0.00049876637
0.00052106629
0.00019666316
0.00020220019
0.00021385534
0.00023070005
0.00025199668
0.00027701935
0.00030514658
0.00033597879
0.00036946991
0.00040615839
0.00044775205
0.00049863419
0.00052096907
0.00019593609
0.00020146731
0.00021311597
0.000229964
0.00025128332
0.00027635371
0.00030455385
0.00033547922
0.00036907509
0.00040586921
0.00044755829
0.00049851573
0.00052087543
0.00019523237
0.00020076039
0.00021240747
0.00022926462
0.00025061189
0.00027573341
0.00030400724
0.0003350236
0.00036871922
0.00040561167
0.00044738727
0.00049841029
0.00052078559
0.00019455351
0.00020008072
0.00021173071
0.00022860224
0.0002499821
0.00027515764
0.00030350549
0.00033461036
0.00036840064
0.00040538421
0.00044723774
0.0004983172
0.00052069969
0.00019390077
0.00019942932
0.00021108632
0.00022797696
0.00024939351
0.00027462542
0.00030304722
0.00033423788
0.00036811764
0.00040518525
0.00044710848
0.00049823575
0.00052061785
0.00019327514
0.00019880701
0.00021047471
0.00022738869
0.0002488455
0.00027413565
0.00030263094
0.00033390444
0.00036786847
0.0004050132
0.00044699826
0.00049816526
0.00052054017
0.0001926774
0.00019821438
0.00020989609
0.00022683717
0.00024833729
0.00027368708
0.00030225506
0.00033360824
0.00036765133
0.00040486646
0.00044690586
0.00049810507
0.00052046668
0.00019210812
0.00019765182
0.0002093505
0.00022632197
0.00024786796
0.00027327837
0.00030191791
0.00033334747
0.00036746442
0.00040474345
0.00044683008
0.00049805452
0.00052039742
0.00019156768
0.00019711952
0.00020883781
0.00022584252
0.0002474365
0.00027290809
0.00030161777
0.00033312027
0.00036730595
0.0004046426
0.00044676975
0.00049801294
0.00052033239
0.00019105629
0.00019661755
0.00020835773
0.00022539812
0.00024704176
0.00027257472
0.00030135286
0.00033292476
0.0003671741
0.00040456234
0.00044672371
0.00049797971
0.00052027154
0.00019057398
0.00019614576
0.00020790983
0.00022498794
0.00024668251
0.00027227669
0.00030112138
0.00033275906
0.00036706708
0.00040450114
0.00044669082
0.00049795418
0.00052021482
0.00019012065
0.00019570391
0.00020749356
0.00022461106
0.00024635744
0.00027201236
0.00030092149
0.00033262128
0.00036698312
0.00040445751
0.00044666998
0.00049793574
0.00052016216
0.00018969604
0.00019529161
0.00020710825
0.00022426645
0.00024606519
0.00027178006
0.00030075134
0.00033250956
0.0003669205
0.00040442998
0.00044666011
0.00049792378
0.00052011347
0.00018929977
0.00019490833
0.00020675312
0.00022395302
0.00024580431
0.00027157811
0.00030060911
0.00033242205
0.00036687751
0.00040441715
0.0004466602
0.00049791772
0.00052006863
0.00018893137
0.00019455348
0.00020642732
0.0002236696
0.00024557334
0.0002714048
0.00030049295
0.00033235695
0.00036685251
0.00040441765
0.00044666925
0.00049791702
0.00052002753
0.00018859024
0.00019422634
0.00020612992
0.00022341497
0.00024537078
0.00027125842
0.00030040108
0.00033231248
0.00036684391
0.00040443019
0.00044668633
0.00049792113
0.00051999003
0.00018827572
0.00019392614
0.00020585991
0.00022318786
0.00024519511
0.00027113727
0.00030033171
0.00033228695
0.00036685018
0.00040445351
0.00044671056
0.00049792956
0.000519956
0.00018798704
0.00019365202
0.00020561624
0.00022298699
0.00024504483
0.00027103967
0.00030028312
0.00033227868
0.00036686986
0.00040448643
0.00044674108
0.00049794183
0.00051992529
0.00018772341
0.00019340307
0.00020539781
0.00022281103
0.00024491839
0.00027096397
0.00030025362
0.0003322861
0.00036690154
0.00040452784
0.00044677711
0.00049795749
0.00051989776
0.00018748395
0.00019317833
0.00020520351
0.00022265866
0.00024481431
0.00027090856
0.0003002416
0.00033230766
0.00036694389
0.00040457669
0.00044681791
0.00049797613
0.00051987325
0.00018726775
0.00019297681
0.00020503218
0.00022252855
0.00024473108
0.00027087185
0.00030024547
0.00033234193
0.00036699567
0.00040463198
0.0004468628
0.00049799735
0.00051985163
0.00018707386
0.00019279749
0.00020488266
0.00022241937
0.00024466726
0.00027085233
0.00030026375
0.0003323875
0.0003670557
0.00040469279
0.00044691113
0.0004980208
0.00051983274
0.00018690132
0.00019263933
0.00020475379
0.00022232982
0.00024462142
0.00027084851
0.00030029498
0.00033244308
0.00036712287
0.00040475829
0.00044696233
0.00049804616
0.00051981643
0.00018674913
0.00019250128
0.00020464438
0.00022225859
0.00024459216
0.00027085897
0.00030033782
0.00033250743
0.00036719615
0.00040482768
0.00044701587
0.00049807312
0.00051980257
0.00018661627
0.00019238226
0.00020455329
0.00022220442
0.00024457813
0.00027088236
0.00030039094
0.0003325794
0.00036727459
0.00040490023
0.00044707125
0.00049810143
0.00051979101
0.00018650173
0.00019228121
0.00020447934
0.00022216605
0.00024457803
0.00027091735
0.00030045312
0.00033265787
0.00036735727
0.00040497526
0.00044712803
0.00049813083
0.00051978162
0.00018640448
0.00019219705
0.00020442139
0.00022214226
0.00024459059
0.0002709627
0.00030052318
0.00033274183
0.00036744335
0.00040505214
0.00044718576
0.00049816107
0.00051977425
0.00018632348
0.00019212871
0.0002043783
0.00022213185
0.00024461455
0.00027101718
0.00030059998
0.00033283028
0.00036753203
0.00040513025
0.00044724405
0.0004981919
0.00051976875
0.00018625769
0.00019207512
0.00020434895
0.00022213363
0.00024464875
0.00027107963
0.00030068247
0.0003329223
0.00036762255
0.00040520904
0.00044730249
0.00049822309
0.00051976498
0.00018620608
0.00019203523
0.00020433223
0.00022214646
0.00024469201
0.00027114895
0.00030076961
0.000333017
0.0003677142
0.00040528795
0.0004473607
0.00049825438
0.00051976278
0.00018616763
0.00019200799
0.00020432706
0.00022216924
0.00024474324
0.00027122408
0.00030086046
0.00033311357
0.00036780631
0.0004053665
0.00044741833
0.00049828554
0.000519762
0.00018614133
0.00019199237
0.00020433238
0.0002222009
0.00024480138
0.00027130403
0.00030095412
0.00033321124
0.00036789829
0.00040544422
0.00044747507
0.00049831638
0.0005197625
0.0001861262
0.00019198738
0.00020434719
0.00022224042
0.00024486545
0.00027138787
0.00030104978
0.00033330934
0.00036798959
0.00040552072
0.00044753064
0.0004983467
0.00051976414
0.0001861213
0.00019199206
0.00020437052
0.00022228684
0.00024493452
0.00027147476
0.00030114669
0.00033340725
0.00036807974
0.00040559568
0.00044758484
0.00049837639
0.00051976681
0.0001861257
0.00019200549
0.00020440144
0.00022233926
0.00024500773
0.00027156391
0.00030124419
0.00033350445
0.00036816837
0.00040566883
0.0004476375
0.00049840535
0.0005197704
0.00018613854
0.0001920268
0.0002044391
0.00022239683
0.00024508431
0.00027165464
0.00030134169
0.00033360047
0.00036825514
0.00040573998
0.00044768852
0.00049843354
0.00051977481
0.00018615898
0.00019205516
0.00020448267
0.00022245878
0.00024516352
0.0002717463
0.00030143869
0.00033369494
0.00036833979
0.00040580895
0.00044773783
0.00049846092
0.00051977997
0.00018618624
0.00019208979
0.00020453139
0.00022252438
0.00024524471
0.00027183834
0.00030153471
0.0003337875
0.00036842209
0.00040587563
0.00044778537
0.00049848748
0.0005197858
0.00018621956
0.00019212994
0.00020458454
0.00022259295
0.00024532727
0.00027193022
0.00030162935
0.00033387786
0.00036850184
0.00040593991
0.00044783108
0.00049851309
0.00051979221
0.00018625822
0.00019217489
0.00020464143
0.00022266385
0.00024541062
0.00027202147
0.00030172222
0.00033396574
0.00036857886
0.00040600165
0.00044787487
0.00049853757
0.00051979912
0.00018630153
0.00019222398
0.00020470141
0.00022273647
0.00024549423
0.00027211164
0.00030181298
0.00033405087
0.00036865296
0.00040606074
0.00044791658
0.00049856085
0.00051980641
0.00018634881
0.00019227654
0.00020476385
0.00022281024
0.0002455776
0.00027220031
0.00030190128
0.00033413301
0.00036872397
0.00040611705
0.00044795608
0.00049858289
0.000519814
0.00018639943
0.00019233195
0.00020482818
0.00022288464
0.00024566026
0.0002722871
0.00030198684
0.00033421194
0.00036879173
0.00040617041
0.00044799326
0.00049860374
0.00051982181
0.00018645279
0.00019238963
0.00020489383
0.00022295915
0.00024574178
0.00027237165
0.00030206938
0.00033428747
0.0003688561
0.00040622071
0.00044802808
0.00049862335
0.00051982976
0.00018650831
0.00019244901
0.00020496029
0.00022303333
0.00024582179
0.00027245367
0.00030214868
0.00033435944
0.00036891694
0.00040626783
0.00044806059
0.00049864175
0.00051983777
0.00018656545
0.00019250959
0.00020502708
0.00022310675
0.00024589993
0.00027253289
0.00030222457
0.00033442772
0.00036897415
0.00040631183
0.0004480908
0.00049865892
0.0005198458
0.00018662373
0.00019257088
0.00020509378
0.00022317906
0.00024597593
0.00027260912
0.00030229689
0.00033449223
0.00036902772
0.00040635274
0.00044811877
0.0004986749
0.0005198538
0.0001866827
0.00019263248
0.00020516001
0.00022324993
0.00024604954
0.00027268218
0.00030236557
0.00033455289
0.0003690777
0.00040639065
0.00044814458
0.00049868972
0.00051986173
0.00018674196
0.00019269399
0.00020522543
0.0002233191
0.00024612057
0.00027275196
0.00030243051
0.00033460974
0.00036912417
0.00040642568
0.00044816833
0.00049870346
0.00051986955
0.00018680114
0.00019275507
0.00020528975
0.00022338634
0.00024618886
0.00027281834
0.00030249168
0.00033466284
0.00036916725
0.00040645793
0.00044819012
0.00049871617
0.00051987726
0.00018685993
0.00019281543
0.00020535272
0.00022345146
0.00024625428
0.00027288126
0.00030254912
0.00033471227
0.00036920703
0.00040648751
0.00044821005
0.00049872791
0.00051988483
0.00018691802
0.0001928748
0.00020541411
0.00022351428
0.0002463167
0.00027294069
0.00030260287
0.00033475812
0.00036924364
0.00040651455
0.00044822821
0.00049873874
0.00051989223
0.00018697518
0.00019293294
0.00020547371
0.00022357464
0.00024637604
0.00027299662
0.00030265297
0.00033480047
0.00036927716
0.00040653913
0.00044824467
0.00049874868
0.00051989945
0.00018703114
0.00019298962
0.00020553135
0.00022363243
0.00024643225
0.00027304906
0.00030269947
0.00033483942
0.0003693077
0.00040656134
0.0004482595
0.00049875776
0.00051990646
0.00018708571
0.00019304466
0.00020558686
0.00022368753
0.0002464853
0.00027309802
0.00030274245
0.00033487503
0.00036933535
0.00040658126
0.00044827273
0.00049876598
0.00051991323
0.00018713868
0.00019309786
0.00020564011
0.00022373988
0.00024653516
0.00027314355
0.00030278198
0.00033490742
0.0003693602
0.00040659897
0.00044828442
0.00049877335
0.00051991974
0.00018718989
0.00019314911
0.00020569101
0.00022378943
0.00024658184
0.00027318569
0.00030281813
0.00033493667
0.00036938236
0.00040661455
0.00044829462
0.00049877987
0.00051992597
0.00018723923
0.00019319828
0.00020573949
0.00022383615
0.00024662537
0.00027322451
0.00030285101
0.00033496292
0.00036940193
0.00040662811
0.0004483034
0.00049878559
0.00051993191
0.00018728658
0.00019324529
0.00020578548
0.00022388005
0.0002466658
0.00027326011
0.00030288075
0.00033498629
0.00036941907
0.00040663976
0.00044831085
0.00049879053
0.00051993755
0.00018733187
0.00019329009
0.00020582899
0.00022392115
0.0002467032
0.00027329261
0.00030290749
0.00033500696
0.00036943392
0.00040664963
0.00044831707
0.00049879477
0.0005199429
0.00018737505
0.00019333264
0.00020587
0.0002239595
0.00024673767
0.00027332214
0.0003029314
0.00033502508
0.00036944666
0.00040665789
0.00044832218
0.00049879839
0.00051994796
0.00018741609
0.00019337294
0.00020590854
0.00022399516
0.00024676932
0.00027334884
0.00030295264
0.00033504084
0.00036945744
0.00040666467
0.00044832631
0.00049880146
0.00051995275