/*--------------------------------*- C++ -*----------------------------------*\
| =========                 |                                                 |
| \\      /  F ield         | OpenFOAM: The Open Source CFD Toolbox           |
|  \\    /   O peration     | Version:  2506                                  |
|   \\  /    A nd           | Website:  www.openfoam.com                      |
|    \\/     M anipulation  |                                                 |
\*---------------------------------------------------------------------------*/
FoamFile
{
    version     2.0;
    format      ascii;
    arch        "LSB;label=32;scalar=64";
    class       volScalarField;
    location    "2000/water";
    object      nut;
}
// * * * * * * * * * * * * * * * * * * * * * * * * * * * * * * * * * * * * * //

dimensions      [0 2 -1 0 0 0 0];

internalField   nonuniform List<scalar> 
2600
(
4.0562043e-05
4.0561942e-05
4.0561944e-05
4.0561981e-05
4.0561942e-05
4.0561434e-05
4.0558261e-05
4.0540002e-05
4.0435343e-05
3.98338e-05
3.6541397e-05
2.4161555e-05
1.4889524e-05
3.944741e-05
3.9447468e-05
3.944759e-05
3.9447676e-05
3.9447275e-05
3.9444342e-05
3.9428907e-05
3.9352895e-05
3.8988431e-05
3.7314814e-05
3.0763187e-05
1.7536144e-05
1.684056e-05
3.852265e-05
3.852264e-05
3.8522725e-05
3.8522528e-05
3.8520597e-05
3.8510798e-05
3.8466747e-05
3.8277827e-05
3.7500368e-05
3.454641e-05
2.5814945e-05
1.4669956e-05
1.7712619e-05
3.7742032e-05
3.774193e-05
3.7741811e-05
3.7740766e-05
3.7735283e-05
3.7711707e-05
3.7617453e-05
3.7258039e-05
3.5961308e-05
3.177518e-05
2.2061889e-05
1.3531464e-05
1.7967898e-05
3.7073562e-05
3.7073366e-05
3.7072781e-05
3.7069955e-05
3.7057916e-05
3.7011651e-05
3.6843992e-05
3.6266509e-05
3.4405655e-05
2.9188861e-05
1.9425178e-05
1.3345943e-05
1.7902414e-05
3.6493786e-05
3.6493393e-05
3.6491924e-05
3.648598e-05
3.646354e-05
3.6384687e-05
3.612226e-05
3.5294625e-05
3.2873382e-05
2.6881541e-05
1.771645e-05
1.3793839e-05
1.7689846e-05
3.5985207e-05
3.5984445e-05
3.5981496e-05
3.5970726e-05
3.5933497e-05
3.5812307e-05
3.5437992e-05
3.4343601e-05
3.1395257e-05
2.4892541e-05
1.6781972e-05
1.4727875e-05
1.7427344e-05
3.5534568e-05
3.55332e-05
3.5528007e-05
3.5510417e-05
3.5453869e-05
3.5281761e-05
3.478374e-05
3.3418009e-05
2.9989903e-05
2.3242727e-05
1.6521213e-05
1.605365e-05
1.7168093e-05
3.5131649e-05
3.5129373e-05
3.5121029e-05
3.5094485e-05
3.5014364e-05
3.4784646e-05
3.4156253e-05
3.2521766e-05
2.8667649e-05
2.1957692e-05
1.6869959e-05
1.7676047e-05
1.694009e-05
3.4768438e-05
3.47649e-05
3.4752406e-05
3.4714802e-05
3.4607522e-05
3.4315777e-05
3.3554458e-05
3.16563e-05
2.7438403e-05
2.1076946e-05
1.7774701e-05
1.9481897e-05
1.6755877e-05
3.4438571e-05
3.443338e-05
3.4415717e-05
3.4365168e-05
3.4228127e-05
3.3872266e-05
3.2977968e-05
3.0820513e-05
2.6321667e-05
2.064959e-05
1.9168673e-05
2.1348725e-05
1.6617712e-05
3.4136931e-05
3.4129689e-05
3.4105903e-05
3.4040932e-05
3.3872746e-05
3.3452766e-05
3.2426062e-05
3.0012536e-05
2.5355877e-05
2.0719809e-05
2.0958175e-05
2.3166793e-05
1.6521078e-05
3.3859367e-05
3.3849701e-05
3.3819003e-05
3.3738723e-05
3.3539365e-05
3.3056856e-05
3.1897087e-05
2.923354e-05
2.4602257e-05
2.1309035e-05
2.3024752e-05
2.4858007e-05
1.6457822e-05
3.3602495e-05
3.3590098e-05
3.355197e-05
3.3456247e-05
3.3227088e-05
3.2684517e-05
3.1388405e-05
2.8493549e-05
2.4138757e-05
2.2402735e-05
2.5241354e-05
2.6381456e-05
1.6418929e-05
3.3363555e-05
3.334823e-05
3.3302533e-05
3.3192135e-05
3.2935885e-05
3.2335692e-05
3.0897111e-05
2.7818119e-05
2.4044358e-05
2.3946906e-05
2.7493335e-05
2.7726694e-05
1.6396422e-05
3.3140311e-05
3.3122024e-05
3.3069114e-05
3.2945826e-05
3.2666358e-05
3.2009929e-05
3.0421904e-05
2.7253059e-05
2.4379893e-05
2.5855075e-05
2.9693858e-05
2.8902281e-05
1.6384202e-05
3.2930983e-05
3.2909915e-05
3.2850758e-05
3.2717477e-05
3.2419519e-05
3.1706209e-05
2.9966344e-05
2.6863467e-05
2.5173338e-05
2.8023002e-05
3.178848e-05
2.9925862e-05
1.6378087e-05
3.27342e-05
3.2710811e-05
3.2647097e-05
3.2507877e-05
3.219656e-05
3.1423099e-05
2.9543334e-05
2.6725088e-05
2.6414165e-05
3.0346001e-05
3.3750499e-05
3.0817911e-05
1.6375449e-05
3.254898e-05
3.2524066e-05
3.2458325e-05
3.2318372e-05
3.1998619e-05
3.1159479e-05
2.9179673e-05
2.6909996e-05
2.805682e-05
3.2733297e-05
3.5572232e-05
3.159849e-05
1.6374764e-05
3.2374714e-05
3.234948e-05
3.2285189e-05
3.2150777e-05
3.1826588e-05
3.0916122e-05
2.8918575e-05
2.747184e-05
3.0030664e-05
3.5115834e-05
3.7256818e-05
3.2285747e-05
1.6375224e-05
3.2211173e-05
3.2187303e-05
3.2128983e-05
3.2007273e-05
3.1681012e-05
3.0698308e-05
2.8817772e-05
2.843585e-05
3.2252928e-05
3.7447133e-05
3.8812575e-05
3.2895331e-05
1.6376448e-05
3.2058522e-05
3.2038256e-05
3.199155e-05
3.1890271e-05
3.1562235e-05
3.051924e-05
2.8942304e-05
2.97959e-05
3.4641248e-05
3.9699497e-05
4.0249838e-05
3.3440303e-05
1.6378293e-05
3.1917349e-05
3.1903563e-05
3.1875268e-05
3.1802262e-05
3.147098e-05
3.0403413e-05
2.935363e-05
3.151804e-05
3.7123064e-05
4.1858566e-05
4.1579378e-05
3.3931332e-05
1.6380731e-05
3.1788707e-05
3.1784988e-05
3.1783034e-05
3.1745667e-05
3.1409596e-05
3.0388387e-05
3.0098639e-05
3.3548309e-05
3.9640502e-05
4.3918427e-05
4.2811638e-05
3.4377031e-05
1.638378e-05
3.167417e-05
3.1684884e-05
3.1718215e-05
3.1722747e-05
3.1384107e-05
3.0523331e-05
3.1201973e-05
3.582234e-05
4.2151077e-05
4.5878173e-05
4.3956334e-05
3.4784313e-05
1.6387467e-05
3.1575896e-05
3.1606239e-05
3.1684577e-05
3.1735682e-05
3.1406918e-05
3.0863669e-05
3.2663375e-05
3.8274455e-05
4.4625622e-05
4.7739783e-05
4.5022273e-05
3.5158739e-05
1.6391813e-05
3.1496714e-05
3.155272e-05
3.1686171e-05
3.1786997e-05
3.1499545e-05
3.1462864e-05
3.4459807e-05
4.0844579e-05
4.7045144e-05
4.9506881e-05
4.6017315e-05
3.5504794e-05
1.6396824e-05
3.1440215e-05
3.1528704e-05
3.1727217e-05
3.1880504e-05
3.1694228e-05
3.236374e-05
3.6550939e-05
4.3482182e-05
4.9397838e-05
5.1183994e-05
4.6948401e-05
3.5826124e-05
1.6402494e-05
3.141085e-05
3.1539289e-05
3.1812006e-05
3.2022926e-05
3.2033143e-05
3.3591891e-05
3.8886225e-05
4.6147424e-05
5.1676785e-05
5.2776062e-05
4.782164e-05
3.6125718e-05
1.6408802e-05
3.1414042e-05
3.1590274e-05
3.1944928e-05
3.2226119e-05
3.2564561e-05
3.5152681e-05
4.1411883e-05
4.8810347e-05
5.3878383e-05
5.4288121e-05
4.8642392e-05
3.6406047e-05
1.6415722e-05
3.1456281e-05
3.1688095e-05
3.2130757e-05
3.2509432e-05
3.3336479e-05
3.7032006e-05
4.4076503e-05
5.1449129e-05
5.6001294e-05
5.5725114e-05
4.9415387e-05
3.6669254e-05
1.642322e-05
3.1545208e-05
3.183974e-05
3.2375386e-05
3.2901322e-05
3.438941e-05
3.9199973e-05
4.6834631e-05
5.4048186e-05
5.8045688e-05
5.7091636e-05
5.0144339e-05
3.6914943e-05
1.6431248e-05
3.1689662e-05
3.2052669e-05
3.2687146e-05
3.3439135e-05
3.5750338e-05
4.1616207e-05
4.9648331e-05
5.6596556e-05
6.0012741e-05
5.839201e-05
5.0832726e-05
3.7144922e-05
1.6439749e-05
3.1899684e-05
3.2334824e-05
3.3078705e-05
3.416634e-05
3.7429301e-05
4.4235458e-05
5.248719e-05
5.9086681e-05
6.1904242e-05
5.9630091e-05
5.1482696e-05
3.7361244e-05
1.6448668e-05
3.2186466e-05
3.2694874e-05
3.3569198e-05
3.5127411e-05
3.9419065e-05
4.7012427e-05
5.5327448e-05
6.1513506e-05
6.3722342e-05
6.0809394e-05
5.2096451e-05
3.7565313e-05
1.6457958e-05
3.2562283e-05
3.3142864e-05
3.4185834e-05
3.6361552e-05
4.1697459e-05
4.9905187e-05
5.8150805e-05
6.3873833e-05
6.546939e-05
6.1933117e-05
5.26774e-05
3.7758158e-05
1.6467586e-05
3.3040476e-05
3.3691443e-05
3.4963997e-05
3.789695e-05
4.4231433e-05
5.2877048e-05
6.0943282e-05
6.6165776e-05
6.7147565e-05
6.3002905e-05
5.3228279e-05
3.7940823e-05
1.6477531e-05
3.3635641e-05
3.4357652e-05
3.5945071e-05
3.9746997e-05
4.6981723e-05
5.5897119e-05
6.3694248e-05
6.8388429e-05
6.8759334e-05
6.4022594e-05
5.3751053e-05
3.8114079e-05
1.6487766e-05
3.4364228e-05
3.5164907e-05
3.7171984e-05
4.1909161e-05
4.990718e-05
5.8940025e-05
6.6395664e-05
7.0541366e-05
7.0305657e-05
6.4995388e-05
5.4247639e-05
3.8278685e-05
1.6498266e-05
3.5245726e-05
3.6144421e-05
3.86834e-05
4.4366369e-05
5.2968079e-05
6.198517e-05
6.9041448e-05
7.2624748e-05
7.1789407e-05
6.5923871e-05
5.4719659e-05
3.8435268e-05
1.6509004e-05
3.6304399e-05
3.7335024e-05
4.050808e-05
4.7090205e-05
5.6128209e-05
6.5015944e-05
7.1626953e-05
7.4638167e-05
7.3213264e-05
6.6810357e-05
5.5168629e-05
3.8584369e-05
1.6519954e-05
3.7571057e-05
3.8780608e-05
4.2660847e-05
5.0044952e-05
5.9355782e-05
6.8018899e-05
7.4148649e-05
7.6582489e-05
7.4579718e-05
6.76569e-05
5.5595891e-05
3.872645e-05
1.653109e-05
3.9083867e-05
4.052523e-05
4.5140986e-05
5.3191587e-05
6.2623574e-05
7.0983106e-05
7.660321e-05
7.8458837e-05
7.5890908e-05
6.8465404e-05
5.6002631e-05
3.8861904e-05
1.6542386e-05
4.088692e-05
4.2606872e-05
4.7933106e-05
5.6490993e-05
6.590845e-05
7.3899529e-05
7.8988646e-05
8.0268735e-05
7.7148734e-05
6.9237565e-05
5.6389886e-05
3.8991065e-05
1.6553816e-05
4.3025784e-05
4.5051434e-05
5.1009888e-05
5.990622e-05
6.919087e-05
7.6760139e-05
8.1303263e-05
8.2013417e-05
7.8354963e-05
6.9974896e-05
5.6758559e-05
3.911421e-05
1.6565353e-05
4.5540368e-05
4.7868472e-05
5.4335761e-05
6.3403521e-05
7.245391e-05
7.9558412e-05
8.3546726e-05
8.3693975e-05
7.9511138e-05
7.0678711e-05
5.7109424e-05
3.9231565e-05
1.6576974e-05
4.845673e-05
5.1049464e-05
5.7870634e-05
6.6952757e-05
7.5682785e-05
8.2288862e-05
8.5718424e-05
8.5311366e-05
8.0618596e-05
7.1350137e-05
5.7443132e-05
3.9343314e-05
1.6588653e-05
5.1780136e-05
5.4568643e-05
6.1572947e-05
7.0526871e-05
7.8863944e-05
8.4947814e-05
8.7817763e-05
8.6866347e-05
8.1678449e-05
7.1990114e-05
5.7760215e-05
3.9449593e-05
1.6600366e-05
5.5491379e-05
5.8385647e-05
6.5401398e-05
7.4100925e-05
8.1987184e-05
8.7531661e-05
8.9844041e-05
8.8359439e-05
8.2691571e-05
7.2599393e-05
5.8061096e-05
3.9550499e-05
1.6612087e-05
5.9547238e-05
6.2448919e-05
6.9315571e-05
7.7653782e-05
8.5043648e-05
9.0036942e-05
9.1796375e-05
8.9790901e-05
8.3658586e-05
7.317854e-05
5.8346083e-05
3.9646086e-05
1.662379e-05
6.3884481e-05
6.6699793e-05
7.3278202e-05
8.1167576e-05
8.8025178e-05
9.2460231e-05
9.3673657e-05
9.1160706e-05
8.4579865e-05
7.3727933e-05
5.8615379e-05
3.973637e-05
1.6635451e-05
6.8427344e-05
7.1077077e-05
7.7255183e-05
8.4626039e-05
9.0924145e-05
9.4798066e-05
9.5474523e-05
9.2468531e-05
8.5455522e-05
7.4247763e-05
5.8869076e-05
3.9821327e-05
1.664704e-05
7.3095537e-05
7.552028e-05
8.1214715e-05
8.8014202e-05
9.3733338e-05
9.7046928e-05
9.719736e-05
9.3713765e-05
8.6285419e-05
7.4738041e-05
5.9107163e-05
3.9900894e-05
1.6658531e-05
7.7811275e-05
7.9972306e-05
8.5127264e-05
9.1318189e-05
9.6445922e-05
9.9203265e-05
9.8840338e-05
9.4895534e-05
8.7069183e-05
7.5198605e-05
5.9329531e-05
3.9974972e-05
1.6669891e-05
8.2504348e-05
8.4381458e-05
8.8965663e-05
9.4525136e-05
9.9055448e-05
0.00010126356
0.00010040148
9.601275e-05
8.7806237e-05
7.5629138e-05
5.9535979e-05
4.0043427e-05
1.6681088e-05
8.7115005e-05
8.8702736e-05
9.2705346e-05
9.7623208e-05
0.00010155591
0.00010322443
0.00010187873
9.7064181e-05
8.8495847e-05
7.6029198e-05
5.9726231e-05
4.0106098e-05
1.6692087e-05
9.1594947e-05
9.2898476e-05
9.6324621e-05
0.00010060169
0.00010394187
0.00010508272
0.00010327013
9.804854e-05
8.9137184e-05
7.6398256e-05
5.9899954e-05
4.0162805e-05
1.6702851e-05
9.5906993e-05
9.6938419e-05
9.9804923e-05
0.00010345112
0.0001062085
0.00010683569
0.00010457387
9.8964583e-05
8.9729392e-05
7.6735738e-05
6.0056787e-05
4.0213357e-05
1.671334e-05
0.00010002395
0.00010079935
0.00010313097
0.00010616346
0.0001083518
0.00010848106
0.00010578843
9.9811224e-05
9.0271678e-05
7.7041084e-05
6.0196365e-05
4.0257564e-05
1.6723514e-05
0.00010392715
0.00010446444
0.00010629079
0.00010873219
0.0001103686
0.00011001716
0.00010691274
0.00010058763
9.0763386e-05
7.7313804e-05
6.0318363e-05
4.0295257e-05
1.6733331e-05
0.00010760493
0.00010792243
0.0001092756
0.00011115239
0.00011225668
0.000111443
0.0001079462
0.00010129331
9.1204081e-05
7.7553536e-05
6.0422521e-05
4.0326295e-05
1.674275e-05
0.00011105124
0.00011116681
0.00011207965
0.00011342078
0.00011401484
0.00011275833
0.00010888878
0.0001019282
9.1593617e-05
7.7760099e-05
6.0508685e-05
4.0350586e-05
1.6751732e-05
0.0001142644
0.00011419494
0.00011469988
0.00011553563
0.00011564285
0.00011396363
0.00010974108
0.00010249271
9.1932188e-05
7.7933539e-05
6.0576832e-05
4.0368097e-05
1.6760238e-05
0.00011724613
0.00011700733
0.00011713561
0.00011749675
0.00011714147
0.00011506016
0.00011050428
0.00010298775
9.2220363e-05
7.807416e-05
6.0627095e-05
4.0378865e-05
1.6768237e-05
0.00012000069
0.00011960699
0.00011938824
0.0001193053
0.00011851237
0.00011604986
0.0001111802
0.00010341471
9.2459104e-05
7.8182545e-05
6.0659778e-05
4.0383003e-05
1.6775699e-05
0.00012253428
0.00012199887
0.00012146083
0.00012096369
0.0001197581
0.00011693534
0.00011177119
0.00010377548
9.2649765e-05
7.8259562e-05
6.0675362e-05
4.0380707e-05
1.6782601e-05
0.00012485446
0.00012418937
0.00012335789
0.00012247539
0.00012088194
0.00011771982
0.00011228014
0.00010407241
9.2794069e-05
7.8306355e-05
6.0674505e-05
4.0372246e-05
1.6788927e-05
0.00012696981
0.000126186
0.00012508501
0.00012384476
0.00012188786
0.00011840702
0.00011271038
0.00010430824
9.2894079e-05
7.8324328e-05
6.0658028e-05
4.0357968e-05
1.6794666e-05
0.0001288896
0.00012799704
0.00012664865
0.00012507691
0.00012278038
0.00011900112
0.00011306561
0.00010448604
9.2952155e-05
7.8315115e-05
6.0626901e-05
4.0338282e-05
1.6799815e-05
0.00013062353
0.00012963133
0.00012805593
0.00012617756
0.00012356445
0.00011950662
0.00011334984
0.00010460918
9.2970901e-05
7.8280544e-05
6.0582221e-05
4.0313654e-05
1.6804378e-05
0.00013218153
0.00013109802
0.00012931441
0.00012715284
0.0001242454
0.00011992832
0.00011356733
0.00010468124
9.295312e-05
7.8222601e-05
6.0525185e-05
4.0284592e-05
1.6808364e-05
0.00013357366
0.00013240647
0.00013043197
0.00012800924
0.0001248288
0.0001202712
0.00011372249
0.00010470594
9.2901753e-05
7.8143382e-05
6.0457064e-05
4.0251633e-05
1.6811789e-05
0.00013480993
0.00013356606
0.00013141665
0.00012875344
0.00012532042
0.00012054038
0.00011381983
0.00010468711
9.2819826e-05
7.804506e-05
6.0379172e-05
4.0215331e-05
1.6814674e-05
0.00013590025
0.00013458614
0.00013227655
0.00012939223
0.00012572608
0.00012074102
0.0001138639
0.0001046286
9.2710407e-05
7.7929838e-05
6.0292845e-05
4.0176243e-05
1.6817042e-05
0.00013685435
0.00013547591
0.00013301974
0.00012993243
0.00012605166
0.00012087828
0.00011385922
0.00010453427
9.2576556e-05
7.7799915e-05
6.019941e-05
4.0134919e-05
1.6818922e-05
0.00013768168
0.00013624437
0.00013365418
0.00013038084
0.00012630298
0.00012095727
0.00011381028
0.00010440789
9.2421287e-05
7.7657455e-05
6.0100165e-05
4.0091889e-05
1.6820345e-05
0.00013839143
0.00013690028
0.00013418768
0.00013074414
0.0001264858
0.00012098302
0.00011372145
0.00010425317
9.2247533e-05
7.7504558e-05
5.9996364e-05
4.004766e-05
1.6821344e-05
0.00013899245
0.00013745211
0.00013462781
0.00013102886
0.00012660573
0.00012096042
0.00011359697
0.00010407368
9.2058123e-05
7.7343237e-05
5.9889196e-05
4.0002703e-05
1.6821951e-05
0.00013949324
0.000137908
0.00013498194
0.00013124135
0.00012666825
0.00012089421
0.00011344094
0.00010387285
9.1855754e-05
7.7175401e-05
5.9779778e-05
3.9957456e-05
1.6822202e-05
0.00013990195
0.00013827576
0.00013525711
0.00013138776
0.00012667862
0.00012078895
0.00011325726
0.00010365394
9.1642981e-05
7.7002841e-05
5.9669144e-05
3.9912314e-05
1.682213e-05
0.00014022633
0.00013856287
0.00013546011
0.00013147397
0.00012664192
0.000120649
0.00011304968
0.00010342004
9.1422198e-05
7.682722e-05
5.9558242e-05
3.9867632e-05
1.6821769e-05
0.00014047377
0.00013877641
0.0001355974
0.00013150564
0.000126563
0.00012047852
0.00011282172
0.00010317404
9.1195636e-05
7.6650069e-05
5.9447929e-05
3.9823726e-05
1.6821151e-05
0.00014065125
0.00013892312
0.00013567513
0.00013148815
0.00012644648
0.00012028145
0.00011257669
0.00010291865
9.0965352e-05
7.647278e-05
5.9338972e-05
3.9780866e-05
1.6820308e-05
0.00014076537
0.00013900936
0.00013569912
0.0001314266
0.00012629674
0.00012006151
0.0001123177
0.00010265637
9.0733229e-05
7.6296608e-05
5.9232043e-05
3.9739286e-05
1.681927e-05
0.00014082236
0.00013904115
0.00013567488
0.00013132581
0.0001261179
0.00011982218
0.00011204766
0.0001023895
9.0500974e-05
7.6122668e-05
5.9127726e-05
3.9699177e-05
1.6818065e-05
0.00014082807
0.00013902411
0.00013560758
0.00013119035
0.00012591385
0.00011956673
0.00011176922
0.00010212016
9.0270117e-05
7.5951927e-05
5.9026471e-05
3.9660483e-05
1.6816718e-05
0.00014078796
0.00013896354
0.00013550208
0.00013102446
0.00012568823
0.00011929818
0.00011148485
0.00010185024
9.0042012e-05
7.5785209e-05
5.8928634e-05
3.9623154e-05
1.681525e-05
0.00014070716
0.00013886439
0.00013536293
0.00013083216
0.00012544443
0.00011901935
0.00011119681
0.00010158145
8.9817827e-05
7.5623147e-05
5.8834233e-05
3.9587478e-05
1.6813682e-05
0.00014059044
0.00013873128
0.00013519439
0.00013061716
0.00012518559
0.00011873282
0.00011090714
0.00010131532
8.9598585e-05
7.5466317e-05
5.8743605e-05
3.9553579e-05
1.6812031e-05
0.00014044226
0.00013856849
0.00013500039
0.00013038293
0.00012491465
0.00011844096
0.00011061767
0.00010105316
8.9385071e-05
7.5314841e-05
5.8657179e-05
3.9521547e-05
1.6810319e-05
0.00014026675
0.00013838004
0.00013478464
0.0001301327
0.00012463429
0.00011814594
0.00011033006
0.00010079612
8.9177913e-05
7.5169411e-05
5.85751e-05
3.9491428e-05
1.6808565e-05
0.00014006774
0.00013816962
0.00013455052
0.00012986945
0.00012434701
0.00011784972
0.00011004577
0.00010054517
8.8977654e-05
7.5030486e-05
5.8497492e-05
3.9463256e-05
1.6806785e-05
0.0001398488
0.00013794069
0.00013430122
0.00012959592
0.00012405506
0.00011755408
0.00010976604
0.00010030097
8.8785101e-05
7.4898317e-05
5.842444e-05
3.9437042e-05
1.6804994e-05
0.00013961319
0.00013769639
0.00013403963
0.00012931464
0.00012376051
0.00011726057
0.00010949192
0.00010006449
8.8600725e-05
7.4773089e-05
5.8355985e-05
3.9412782e-05
1.6803207e-05
0.00013936396
0.00013743967
0.00013376842
0.00012902792
0.00012346521
0.00011697054
0.0001092244
9.9836508e-05
8.8424883e-05
7.4654925e-05
5.8292131e-05
3.9390453e-05
1.6801435e-05
0.00013910386
0.00013717318
0.00013349005
0.00012873783
0.00012317079
0.00011668517
0.0001089646
9.9617596e-05
8.8257835e-05
7.4543887e-05
5.8232848e-05
3.9370016e-05
1.6799689e-05
0.00013883542
0.00013689936
0.00013320671
0.0001284462
0.00012287865
0.0001164058
0.00010871329
9.9408194e-05
8.8099756e-05
7.4439981e-05
5.8178072e-05
3.9351422e-05
1.6797978e-05
0.00013856094
0.0001366204
0.00013292033
0.00012815467
0.00012259032
0.00011613347
0.00010847116
9.9208638e-05
8.7950741e-05
7.4343159e-05
5.8127709e-05
3.9334609e-05
1.6796309e-05
0.00013828243
0.00013633823
0.00013263272
0.00012786492
0.00012230708
0.00011586908
0.00010823872
9.9019163e-05
8.7810812e-05
7.4253325e-05
5.808164e-05
3.9319505e-05
1.6794688e-05
0.00013800175
0.00013605466
0.0001323456
0.00012757838
0.00012203005
0.00011561339
0.00010801641
9.8839913e-05
8.7679925e-05
7.4170343e-05
5.8039724e-05
3.9306032e-05
1.6793122e-05
0.00013772062
0.00013577138
0.00013206049
0.00012729636
0.00012176019
0.00011536701
0.00010780453
9.8670954e-05
8.7557981e-05
7.4094041e-05
5.8001805e-05
3.9294106e-05
1.6791613e-05
0.00013744057
0.0001354899
0.00013177876
0.00012701998
0.00012149834
0.00011513046
0.0001076033
9.8512281e-05
8.7444834e-05
7.4024222e-05
5.7967714e-05
3.9283641e-05
1.6790166e-05
0.00013716304
0.00013521156
0.00013150164
0.00012675023
0.00012124518
0.00011490414
0.00010741287
9.8363832e-05
8.7340301e-05
7.3960669e-05
5.7937277e-05
3.9274552e-05
1.6788781e-05
0.00013688929
0.0001349376
0.00013123022
0.00012648797
0.00012100133
0.00011468837
0.00010723329
9.8225492e-05
8.7244167e-05
7.390315e-05
5.7910317e-05
3.9266756e-05
1.6787463e-05
0.00013662045
0.00013466909
0.00013096544
0.00012623397
0.00012076727
0.00011448338
0.00010706458
9.8097103e-05
8.7156193e-05
7.3851423e-05
5.7886654e-05
3.9260171e-05
1.678621e-05
0.00013635754
0.000134407
0.00013070814
0.00012598885
0.0001205434
0.00011428932
0.00010690669
9.7978469e-05
8.7076115e-05
7.3805239e-05
5.7866112e-05
3.9254718e-05
1.6785025e-05
0.00013610144
0.00013415217
0.00013045904
0.00012575315
0.00012033003
0.00011410626
0.00010675949
9.7869359e-05
8.7003654e-05
7.3764338e-05
5.784851e-05
3.925032e-05
1.6783908e-05
0.00013585294
0.00013390532
0.00013021876
0.0001255273
0.00012012737
0.00011393424
0.00010662284
9.7769506e-05
8.693851e-05
7.3728458e-05
5.7833672e-05
3.9246902e-05
1.6782859e-05
0.00013561269
0.00013366708
0.00012998781
0.00012531165
0.00011993557
0.00011377319
0.00010649654
9.7678617e-05
8.6880368e-05
7.3697329e-05
5.7821419e-05
3.924439e-05
1.6781877e-05
0.00013538126
0.00013343796
0.0001297666
0.00012510646
0.00011975471
0.00011362301
0.00010638033
9.7596371e-05
8.68289e-05
7.3670678e-05
5.7811572e-05
3.924271e-05
1.6780961e-05
0.0001351591
0.00013321838
0.00012955545
0.00012491189
0.00011958478
0.00011348353
0.00010627394
9.7522422e-05
8.6783768e-05
7.3648227e-05
5.7803956e-05
3.9241791e-05
1.6780111e-05
0.00013494658
0.00013300866
0.0001293546
0.00012472806
0.00011942573
0.00011335454
0.00010617704
9.745641e-05
8.6744626e-05
7.3629701e-05
5.7798396e-05
3.9241562e-05
1.6779326e-05
0.00013474397
0.00013280905
0.0001291642
0.00012455498
0.00011927742
0.0001132358
0.0001060893
9.7397957e-05
8.6711123e-05
7.3614826e-05
5.7794722e-05
3.9241956e-05
1.6778603e-05
0.00013455146
0.0001326197
0.00012898434
0.00012439261
0.00011913969
0.00011312701
0.00010601034
9.7346678e-05
8.668291e-05
7.3603333e-05
5.7792771e-05
3.9242908e-05
1.677794e-05
0.00013436917
0.00013244071
0.00012881502
0.00012424086
0.00011901233
0.00011302784
0.00010593979
9.730218e-05
8.6659639e-05
7.3594958e-05
5.7792382e-05
3.9244356e-05
1.6777335e-05
0.00013419715
0.00013227209
0.00012865621
0.00012409959
0.00011889507
0.00011293796
0.00010587725
9.7264071e-05
8.6640968e-05
7.3589447e-05
5.7793406e-05
3.9246243e-05
1.6776787e-05
0.0001340354
0.00013211381
0.0001285078
0.00012396861
0.00011878763
0.00011285701
0.00010582231
9.7231958e-05
8.6626559e-05
7.3586552e-05
5.7795695e-05
3.9248513e-05
1.6776292e-05
0.00013388385
0.00013196578
0.00012836965
0.00012384769
0.0001186897
0.00011278458
0.00010577458
9.7205452e-05
8.6616086e-05
7.3586035e-05
5.7799113e-05
3.9251114e-05
1.6775848e-05
0.00013374239
0.00013182788
0.00012824158
0.00012373657
0.00011860093
0.00011272031
0.00010573363
9.7184172e-05
8.660923e-05
7.358767e-05
5.7803529e-05
3.9253998e-05
1.6775454e-05
0.00013361089
0.00013169993
0.00012812338
0.00012363496
0.00011852099
0.00011266379
0.00010569907
9.7167744e-05
8.6605688e-05
7.359124e-05
5.780882e-05
3.9257119e-05
1.6775105e-05
0.00013348914
0.00013158173
0.00012801479
0.00012354257
0.0001184495
0.00011261462
0.0001056705
9.715581e-05
8.660517e-05
7.3596544e-05
5.7814876e-05
3.9260439e-05
1.67748e-05
0.00013337696
0.00013147307
0.00012791554
0.00012345906
0.00011838609
0.0001125724
0.00010564753
9.7148024e-05
8.6607399e-05
7.3603394e-05
5.7821592e-05
3.9263921e-05
1.6774537e-05
0.00013327409
0.00013137367
0.00012782535
0.00012338411
0.00011833039
0.00011253675
0.00010562978
9.7144053e-05
8.6612118e-05
7.3611615e-05
5.7828876e-05
3.9267535e-05
1.6774312e-05
0.00013318029
0.00013128327
0.00012774392
0.00012331736
0.00011828202
0.00011250727
0.00010561688
9.7143579e-05
8.6619079e-05
7.3621043e-05
5.7836643e-05
3.9271253e-05
1.6774125e-05
0.00013309526
0.00013120156
0.0001276709
0.00012325846
0.00011824059
0.00011248357
0.00010560847
9.7146293e-05
8.6628047e-05
7.3631524e-05
5.7844813e-05
3.9275051e-05
1.6773972e-05
0.00013301868
0.00013112823
0.00012760596
0.00012320702
0.0001182057
0.00011246526
0.00010560418
9.7151893e-05
8.6638793e-05
7.364291e-05
5.785331e-05
3.9278905e-05
1.6773852e-05
0.00013295024
0.00013106293
0.00012754873
0.00012316267
0.00011817697
0.00011245196
0.00010560368
9.7160083e-05
8.6651095e-05
7.3655054e-05
5.7862058e-05
3.9282791e-05
1.6773763e-05
0.00013288956
0.00013100529
0.00012749882
0.00012312499
0.00011815397
0.00011244327
0.00010560659
9.7170569e-05
8.6664732e-05
7.3667811e-05
5.7870982e-05
3.9286682e-05
1.6773702e-05
0.00013283627
0.00013095492
0.00012745583
0.00012309357
0.0001181363
0.0001124388
0.00010561258
9.7183062e-05
8.6679487e-05
7.3681042e-05
5.7880005e-05
3.9290552e-05
1.6773667e-05
0.00013278997
0.00013091142
0.00012741935
0.00012306799
0.00011812353
0.00011243816
0.0001056213
9.7197282e-05
8.6695152e-05
7.3694608e-05
5.7889053e-05
3.9294372e-05
1.6773656e-05
0.00013275025
0.00013087438
0.00012738896
0.00012304784
0.00011811527
0.00011244096
0.00010563241
9.7212963e-05
8.6711531e-05
7.3708382e-05
5.7898059e-05
3.9298117e-05
1.6773666e-05
0.00013271671
0.00013084339
0.00012736425
0.00012303269
0.00011811111
0.00011244686
0.00010564561
9.7229857e-05
8.6728446e-05
7.3722251e-05
5.7906961e-05
3.9301763e-05
1.6773694e-05
0.00013268894
0.00013081805
0.00012734481
0.00012302216
0.00011811069
0.0001124555
0.00010566063
9.7247744e-05
8.674574e-05
7.3736119e-05
5.7915715e-05
3.9305296e-05
1.6773738e-05
0.00013266657
0.00013079797
0.00012733026
0.00012301587
0.00011811365
0.00011246659
0.00010567719
9.7266431e-05
8.6763282e-05
7.374991e-05
5.7924284e-05
3.9308706e-05
1.6773796e-05
0.00013264924
0.00013078279
0.00012732023
0.00012301347
0.00011811968
0.00011247985
0.00010569508
9.7285752e-05
8.6780965e-05
7.3763567e-05
5.7932649e-05
3.9311992e-05
1.6773867e-05
0.00013263659
0.00013077216
0.0001273144
0.00012301465
0.00011812847
0.00011249503
0.00010571409
9.7305562e-05
8.6798697e-05
7.3777045e-05
5.7940798e-05
3.9315155e-05
1.6773949e-05
0.0001326283
0.00013076575
0.00012731242
0.00012301908
0.00011813976
0.00011251189
0.00010573406
9.7325735e-05
8.6816403e-05
7.3790309e-05
5.7948722e-05
3.9318201e-05
1.6774042e-05
0.00013262405
0.00013076325
0.000127314
0.00012302649
0.00011815327
0.00011253021
0.00010575479
9.734615e-05
8.6834009e-05
7.3803324e-05
5.7956412e-05
3.9321117e-05
1.6774143e-05
0.00013262352
0.00013076434
0.00012731883
0.00012303657
0.00011816877
0.00011254977
0.00010577614
9.7366689e-05
8.6851442e-05
7.3816053e-05
5.7963852e-05
3.9323891e-05
1.6774253e-05
0.00013262641
0.00013076871
0.0001273266
0.00012304905
0.00011818598
0.00011257037
0.00010579792
9.738723e-05
8.6868621e-05
7.3828445e-05
5.7971001e-05
3.9326533e-05
1.677437e-05
0.00013263239
0.00013077605
0.00012733701
0.00012306364
0.00011820465
0.00011259179
0.00010581997
9.7407648e-05
8.6885462e-05
7.3840453e-05
5.797784e-05
3.9329039e-05
1.6774492e-05
0.00013264113
0.00013078603
0.00012734973
0.00012308004
0.00011822452
0.0001126138
0.00010584212
9.7427817e-05
8.6901877e-05
7.3852e-05
5.7984358e-05
3.9331404e-05
1.6774618e-05
0.00013265232
0.00013079833
0.00012736448
0.00012309798
0.00011824536
0.00011263622
0.00010586421
9.7447619e-05
8.6917783e-05
7.3863051e-05
5.7990536e-05
3.9333622e-05
1.6774748e-05
0.00013266564
0.00013081265
0.00012738095
0.00012311718
0.00011826692
0.00011265883
0.00010588609
9.746694e-05
8.6933091e-05
7.3873587e-05
5.7996358e-05
3.9335687e-05
1.6774878e-05
0.00013268079
0.00013082869
0.00012739886
0.0001231374
0.00011828898
0.00011268147
0.00010590762
9.7485685e-05
8.6947767e-05
7.3883581e-05
5.8001814e-05
3.9337598e-05
1.6775009e-05
0.00013269749
0.00013084618
0.00012741796
0.00012315839
0.00011831136
0.00011270399
0.0001059287
9.7503782e-05
8.6961789e-05
7.389302e-05
5.8006905e-05
3.9339356e-05
1.6775139e-05
0.00013271548
0.00013086485
0.000127438
0.00012317996
0.00011833388
0.00011272626
0.00010594922
9.7521203e-05
8.6975139e-05
7.3901907e-05
5.8011639e-05
3.9340967e-05
1.6775268e-05
0.00013273453
0.0001308845
0.00012745878
0.00012320193
0.0001183564
0.00011274817
0.00010596915
9.7537925e-05
8.6987814e-05
7.3910252e-05
5.801603e-05
3.934244e-05
1.6775395e-05
0.00013275443
0.00013090492
0.00012748012
0.00012322413
0.00011837879
0.00011276964
0.00010598843
9.7553932e-05
8.6999819e-05
7.391807e-05
5.8020095e-05
3.9343786e-05
1.6775519e-05
0.000132775
0.00013092592
0.00012750185
0.00012324641
0.00011840095
0.00011279061
0.00010600705
9.7569217e-05
8.7011164e-05
7.3925381e-05
5.8023854e-05
3.9345015e-05
1.677564e-05
0.00013279607
0.00013094733
0.00012752381
0.00012326867
0.00011842279
0.00011281102
0.00010602497
9.7583772e-05
8.7021858e-05
7.39322e-05
5.8027321e-05
3.9346137e-05
1.6775759e-05
0.00013281747
0.00013096901
0.00012754585
0.00012329077
0.00011844423
0.00011283082
0.00010604216
9.759759e-05
8.7031905e-05
7.393854e-05
5.8030507e-05
3.9347158e-05
1.6775875e-05
0.00013283905
0.00013099079
0.00012756786
0.00012331261
0.00011846518
0.00011284995
0.00010605859
9.7610658e-05
8.7041308e-05
7.3944406e-05
5.803342e-05
3.934808e-05
1.6775988e-05
0.00013286067
0.00013101256
0.0001275897
0.0001233341
0.00011848556
0.00011286836
0.00010607423
9.7622963e-05
8.7050063e-05
7.3949803e-05
5.8036062e-05
3.9348905e-05
1.6776097e-05
0.0001328822
0.00013103418
0.00012761127
0.00012335513
0.00011850531
0.000112886
0.00010608905
9.7634495e-05
8.7058171e-05
7.3954733e-05
5.8038436e-05
3.9349632e-05
1.6776203e-05
0.00013290352
0.00013105554
0.00012763246
0.00012337562
0.00011852436
0.00011290284
0.00010610304
9.7645247e-05
8.7065634e-05
7.3959201e-05
5.8040544e-05
3.9350259e-05
1.6776304e-05
0.00013292454
0.00013107655
0.00012765319
0.00012339551
0.00011854267
0.00011291884
0.00010611618
9.7655225e-05
8.7072462e-05
7.3963219e-05
5.8042393e-05
3.9350789e-05
1.67764e-05
0.00013294519
0.00013109713
0.0001276734
0.00012341474
0.0001185602
0.000112934
0.00010612848
9.7664446e-05
8.7078677e-05
7.3966805e-05
5.8043996e-05
3.9351226e-05
1.6776491e-05
0.00013296539
0.00013111722
0.00012769302
0.00012343328
0.00011857694
0.00011294832
0.00010613996
9.7672938e-05
8.708431e-05
7.3969987e-05
5.8045372e-05
3.9351578e-05
1.6776577e-05
0.00013298511
0.0001311368
0.00012771205
0.00012345112
0.00011859289
0.00011296182
0.00010615066
9.7680742e-05
8.7089402e-05
7.39728e-05
5.8046545e-05
3.9351856e-05
1.6776657e-05
0.00013300431
0.00013115581
0.00012773045
0.00012346824
0.00011860807
0.00011297453
0.00010616061
9.7687903e-05
8.7093997e-05
7.397528e-05
5.8047541e-05
3.9352074e-05
1.6776733e-05
0.00013302296
0.00013117425