/*--------------------------------*- C++ -*----------------------------------*\
| =========                 |                                                 |
| \\      /  F ield         | OpenFOAM: The Open Source CFD Toolbox           |
|  \\    /   O peration     | Version:  2506                                  |
|   \\  /    A nd           | Website:  www.openfoam.com                      |
|    \\/     M anipulation  |                                                 |
\*---------------------------------------------------------------------------*/
FoamFile
{
    version     2.0;
    format      ascii;
    arch        "LSB;label=32;scalar=64";
    class       surfaceScalarField;
    location    "2000/water";
    object      phi;
}
// * * * * * * * * * * * * * * * * * * * * * * * * * * * * * * * * * * * * * //

dimensions      [1 0 -1 0 0 0 0];

oriented        oriented;

internalField   nonuniform List<scalar> 
4987
(
-6.9167736e-06
0.00085760419
-2.7656569e-05
0.0024926737
-6.1431121e-05
0.0040117068
-0.0001075903
0.0054211695
-0.00016565319
0.0067272392
-0.00023525167
0.0079357375
-0.00031606519
0.0090521266
-0.00040763483
0.010081416
-0.00050867084
0.011027654
-0.00061447105
0.011892066
-0.00070641237
0.012665127
-0.00069017742
0.01327532
0.013255156
-6.4252098e-06
0.00086402939
-2.4701717e-05
0.0025109502
-5.3973207e-05
0.0040409782
-9.3433184e-05
0.0054606295
-0.00014227852
0.0067760845
-0.00019970621
0.0079931652
-0.00026484255
0.0091172629
-0.00033648012
0.010153054
-0.00041221923
0.011103393
-0.0004856843
0.011965531
-0.00053558126
0.012715024
-0.00047144624
0.013211185
0.01278371
-6.163969e-06
0.00087019336
-2.380905e-05
0.0025285953
-5.2164898e-05
0.0040693341
-9.0528703e-05
0.0054989933
-0.00013822172
0.0068237776
-0.00019455674
0.0080495002
-0.00025870612
0.0091814123
-0.00032929751
0.010223645
-0.00040329175
0.011177387
-0.00047276141
0.012035
-0.00051220841
0.012754471
-0.00042242592
0.013121403
0.012361284
-6.1054146e-06
0.00087629878
-2.3924376e-05
0.0025464143
-5.2620538e-05
0.0040980303
-9.1395558e-05
0.0055377683
-0.00013947504
0.006871857
-0.00019604176
0.0081060669
-0.00026004543
0.009245416
-0.00032969289
0.010293293
-0.00040116834
0.011248863
-0.00046497904
0.012098811
-0.00049117541
0.012780667
-0.00037835998
0.013008587
0.011982924
-5.9919784e-06
0.00088229076
-2.3432324e-05
0.0025638546
-5.1502782e-05
0.0041261007
-8.9417765e-05
0.0055756833
-0.0001363976
0.0069188369
-0.00019157934
0.0081612487
-0.00025377584
0.0093076125
-0.0003208868
0.010360404
-0.00038849227
0.011316468
-0.0004456482
0.012155967
-0.00045837524
0.012793394
-0.00033102689
0.012881239
0.011651897
-5.8197984e-06
0.00088811056
-2.2720415e-05
0.0025807553
-4.9911332e-05
0.0041532916
-8.6629801e-05
0.0056124017
-0.00013209822
0.0069643053
-0.00018540983
0.0082145603
-0.00024524283
0.0093674455
-0.00030921061
0.010424371
-0.00037232044
0.011379578
-0.00042207813
0.012205725
-0.00042081904
0.012792135
-0.00028517408
0.012745594
0.011366723
-5.6148951e-06
0.00089372545
-2.1923414e-05
0.0025970638
-4.8158186e-05
0.0041795264
-8.3570099e-05
0.0056478136
-0.00012737381
0.007008109
-0.00017860877
0.0082657952
-0.00023581604
0.0094246528
-0.00029633568
0.010484891
-0.00035458539
0.011437828
-0.00039630862
0.012247448
-0.00038067559
0.012776502
-0.00024201049
0.012606929
0.011124713
-5.4046946e-06
0.00089913014
-2.1106786e-05
0.0026127659
-4.6361914e-05
0.0042047815
-8.0433153e-05
0.0056818849
-0.00012252438
0.0070502002
-0.00017161842
0.0083148893
-0.0002261212
0.0094791555
-0.00028309872
0.010541869
-0.00033629459
0.011491024
-0.00036936757
0.012280521
-0.00033930313
0.012746438
-0.00020218079
0.012469807
0.010922532
-5.2040372e-06
0.00090433418
-2.0322449e-05
0.0026278843
-4.4632487e-05
0.0042290916
-7.7407183e-05
0.0057146596
-0.000117836
0.007090629
-0.00016484161
0.0083618949
-0.00021669175
0.0095310057
-0.00027015443
0.010595331
-0.00031814583
0.011539015
-0.00034189245
0.012304267
-0.00029797663
0.012702522
-0.0001662914
0.012338121
0.010756241
-5.0193754e-06
0.00090935356
-1.9599432e-05
0.0026424643
-4.3036007e-05
0.0042525281
-7.460817e-05
0.0057462317
-0.00011348606
0.0071295069
-0.00015852683
0.0084069356
-0.0002078498
0.0095803287
-0.00025787593
0.010645357
-0.00030047882
0.011581618
-0.00031421626
0.012318005
-0.00025799659
0.012646302
-0.00013488813
0.012215013
0.010621352
-4.8544121e-06
0.00091420797
-1.8953518e-05
0.0026565634
-4.1607992e-05
0.0042751826
-7.2098328e-05
0.0057767221
-0.00010956978
0.0071669784
-0.00015280648
0.0084501723
-0.00019976083
0.009627283
-0.00024643025
0.010692027
-0.00028338283
0.01161857
-0.00028657101
0.012321193
-0.00022065197
0.012580383
-0.00010831398
0.012102675
0.010513039
-4.7104907e-06
0.00091891846
-1.838964e-05
0.0026702426
-4.0359024e-05
0.004297152
-6.9895773e-05
0.0058062588
-0.00010611414
0.0072031967
-0.00014771517
0.0084917734
-0.00019245611
0.0096720239
-0.00023580475
0.010735375
-0.00026674607
0.011649512
-0.00025920371
0.012313651
-0.00018698909
0.012508168
-8.6549234e-05
0.012002235
0.010426489
-4.5864894e-06
0.00092350495
-1.7903118e-05
0.0026835592
-3.9278552e-05
0.0043185274
-6.7981782e-05
0.0058349621
-0.00010308929
0.0072383042
-0.0001432058
0.0085318899
-0.00018585427
0.0097146724
-0.00022583645
0.010775358
-0.0002503233
0.011673999
-0.00023244679
0.012295774
-0.00015760689
0.012433329
-6.9195206e-05
0.011913823
0.010357294
-4.47971e-06
0.00092798466
-1.7483378e-05
0.0026965629
-3.8343221e-05
0.0043393873
-6.6315361e-05
0.0058629342
-0.00010043089
0.0072724198
-0.00013918123
0.0085706402
-0.00017980338
0.0097552946
-0.00021627053
0.010811825
-0.0002338457
0.011691574
-0.00020673154
0.01226866
-0.0001326094
0.012359206
-5.5603112e-05
0.011836817
0.010301691
-4.3869482e-06
0.00093237161
-1.7117943e-05
0.0027092939
-3.7525517e-05
0.0043597948
-6.4848148e-05
0.0058902568
-9.8062773e-05
0.0073056344
-0.00013552609
0.0086081035
-0.00017412332
0.0097938918
-0.00020682319
0.010844525
-0.00021713162
0.011701882
-0.00018252415
0.012234053
-0.0001117049
0.012288387
-4.5044655e-05
0.011770157
0.010256646
-4.3051908e-06
0.0009366768
-1.6795059e-05
0.0027217838
-3.679945e-05
0.0043797992
-6.3534222e-05
0.0059169916
-9.5911853e-05
0.007338012
-0.0001321276
0.0086443193
-0.00016863371
0.0098303979
-0.0001972305
0.010873121
-0.00020015793
0.01170481
-0.0001602209
0.012194115
-9.4372484e-05
0.012222539
-3.6838819e-05
0.011712623
0.010219807
-4.2319151e-06
0.00094090871
-1.6504851e-05
0.0027340567
-3.6143084e-05
0.0043994375
-6.2334438e-05
0.005943183
-9.3914666e-05
0.0073695922
-0.00012888455
0.0086792892
-0.00016316714
0.0098646805
-0.00018728236
0.010897237
-0.00018307195
0.011700599
-0.00014006424
0.012151108
-8.001793e-05
0.012162492
-3.0412511e-05
0.011663018
0.010189395
-4.1651418e-06
0.00094507386
-1.6239539e-05
0.0027461311
-3.5538992e-05
0.0044187369
-6.1217189e-05
0.0059688612
-9.2018424e-05
0.0074003935
-0.00012570858
0.0087129793
-0.00015757395
0.0098965459
-0.00017684648
0.010916509
-0.00016614712
0.0116899
-0.0001221172
0.012107078
-6.8078242e-05
0.012108453
-2.5313026e-05
0.011620253
0.010164082
-4.1033745e-06
0.00094917723
-1.5993201e-05
0.0027580209
-3.4973725e-05
0.0044377174
-6.0157433e-05
0.0059940449
-9.0179432e-05
0.0074304155
-0.00012252186
0.0087453218
-0.00015172469
0.0099257487
-0.0001658846
0.010930669
-0.00014970629
0.011673722
-0.00010629218
0.012063664
-5.8071523e-05
0.012060233
-2.1196921e-05
0.011583378
0.010142885
-4.0454969e-06
0.00095322273
-1.5761374e-05
0.0027697368
-3.4436919e-05
0.004456393
-5.9135102e-05
0.0060187431
-8.8360527e-05
0.0074596409
-0.00011925379
0.008776215
-0.00014551369
0.0099520086
-0.00015445694
0.010939612
-0.00013404494
0.01165331
-9.2406392e-05
0.012022025
-4.9608158e-05
0.012017435
-1.7811016e-05
0.011551581
0.010125074
-3.9906707e-06
0.0009572134
-1.5540649e-05
0.0027812868
-3.3920384e-05
0.0044747727
-5.8133472e-05
0.0060429561
-8.6528478e-05
0.0074880359
-0.00011583835
0.0088055249
-0.00013886507
0.0099750353
-0.00014270997
0.010943457
-0.00011937991
0.01162998
-8.0236233e-05
0.011982881
-4.2382128e-05
0.01197958
-1.4972586e-05
0.011524171
0.010110101
-3.938246e-06
0.00096115164
-1.5328322e-05
0.0027926768
-3.3417324e-05
0.0044928617
-5.7137748e-05
0.0060666766
-8.4651726e-05
0.0075155499
-0.00011221299
0.0088330861
-0.00013174064
0.009994563
-0.00013084741
0.010942564
-0.00010583199
0.011604964
-6.9555658e-05
0.011946605
-3.615582e-05
0.011946181
-1.2551512e-05
0.011500567
0.01009755
-3.8876948e-06
0.00096503934
-1.512212e-05
0.0028039113
-3.2921708e-05
0.0045106613
-5.613392e-05
0.0060898888
-8.2698664e-05
0.0075421146
-0.00010831969
0.0088587072
-0.00012414736
0.010010391
-0.00011909198
0.010937509
-9.3435701e-05
0.011579308
-6.0156891e-05
0.011913326
-3.0745125e-05
0.011916769
-1.0455501e-05
0.011480277
0.010087094
-3.8385568e-06
0.00096887789
-1.4919992e-05
0.0028149927
-3.2427783e-05
0.0045281691
-5.5107849e-05
0.0061125688
-8.0636493e-05
0.0075676433
-0.00010410814
0.0088821788
-0.00011614034
0.010022423
-0.00010764918
0.010929017
-8.2162718e-05
0.011553821
-5.1858105e-05
0.011883022
-2.600701e-05
0.011890918
-8.6187527e-06
0.011462889
0.010078476
-3.7904019e-06
0.0009726683
-1.4719951e-05
0.0028259223
-3.1929704e-05
0.0045453789
-5.4044565e-05
0.0061346837
-7.8430838e-05
0.0075920295
-9.9540735e-05
0.0089032887
-0.00010781835
0.0100307
-9.6682483e-05
0.010917882
-7.1946846e-05
0.011529086
-4.450396e-05
0.011855579
-2.1829745e-05
0.011868244
-6.9937046e-06
0.011448053
0.010071482
-3.7428e-06
0.0009764111
-1.4519945e-05
0.0028366994
-3.1421227e-05
0.0045622801
-5.2927708e-05
0.0061561902
-7.6046256e-05
0.0076151481
-9.4598625e-05
0.0089218411
-9.9310963e-05
0.010035413
-8.6303357e-05
0.010904874
-6.2703777e-05
0.011505486
-3.796313e-05
0.011830838
-1.8125325e-05
0.011848406
-5.5452879e-06
0.011435473
0.010065937
-3.6952978e-06
0.00098010639
-1.4317763e-05
0.0028473219
-3.0895462e-05
0.0045788578
-5.1739148e-05
0.0061770339
-7.3447799e-05
0.0076368567
-8.9287316e-05
0.0089376806
-9.0760483e-05
0.010036886
-7.6573763e-05
0.010890687
-5.4344021e-05
0.011483256
-3.2125049e-05
0.011808619
-1.4823682e-05
0.011831104
-4.246996e-06
0.011424896
0.01006169
-3.6473964e-06
0.00098375379
-1.4110936e-05
0.0028577854
-3.0344641e-05
0.0045950915
-5.0458783e-05
0.006197148
-7.0603634e-05
0.0076570016
-8.3639732e-05
0.0089507167
-8.2303597e-05
0.01003555
-6.7515799e-05
0.010875899
-4.6780162e-05
0.011462521
-2.6896728e-05
0.011788736
-1.1868356e-05
0.011816076
-3.0782578e-06
0.011416106
0.010058611
-3.5985289e-06
0.00098735232
-1.3896642e-05
0.0028680835
-2.9759896e-05
0.0046109548
-4.906462e-05
0.0062164527
-6.7488584e-05
0.0076754255
-7.7715073e-05
0.0089609432
-7.4057338e-05
0.010031892
-5.9123309e-05
0.010860965
-3.9930395e-05
0.011443328
-2.2199855e-05
0.011771005
-9.2132824e-06
0.011803089
-2.0226607e-06
0.011408916
0.010056589
-3.5480257e-06
0.00099090034
-1.3671564e-05
0.0028782071
-2.9130949e-05
0.0046264142
-4.753311e-05
0.0062348549
-6.4087908e-05
0.0076919803
-7.1592543e-05
0.0089684478
-6.6111087e-05
0.010026411
-5.1371378e-05
0.010846226
-3.3718969e-05
0.011425676
-1.7967094e-05
0.011755253
-6.8191906e-06
0.011791942
-1.0665732e-06
0.011403163
0.010055522
-3.4950999e-06
0.00099439544
-1.343182e-05
0.0028881438
-2.8446031e-05
0.0046414284
-4.5840364e-05
0.0062522492
-6.0401301e-05
0.0077065413
-6.5362287e-05
0.0089734088
-5.852578e-05
0.010019574
-4.4224378e-05
0.010831924
-2.8076922e-05
0.011409528
-1.4140029e-05
0.011741316
-4.6491655e-06
0.011782451
-1.6922676e-07
0.011398683
0.010055353
-3.4388797e-06
0.00099783432
-1.3173132e-05
0.002897878
-2.7692439e-05
0.0046559477
-4.3964994e-05
0.0062685218
-5.6447127e-05
0.0077190234
-5.9117558e-05
0.0089760792
-5.1340491e-05
0.010011797
-3.7645559e-05
0.010818229
-2.2947463e-05
0.01139483
-1.0674762e-05
0.011729044
-2.6810945e-06
0.011774457
6.6544894e-07
0.011395337
0.010056018
-3.3783149e-06
0.0010012126
-1.2890438e-05
0.0029073902
-2.6855995e-05
0.0046699133
-4.1889311e-05
0.0062835551
-5.2260837e-05
0.0077293949
-5.2943427e-05
0.0089767618
-4.457425e-05
0.010003428
-3.1595992e-05
0.010805251
-1.8279606e-05
0.011381514
-7.5311684e-06
0.011718295
-8.8301989e-07
0.011767809
1.4049914e-06
0.011393049
0.010057423
-3.3120984e-06
0.0010045247
-1.2577617e-05
0.0029166557
-2.5921007e-05
0.0046832566
-3.9601333e-05
0.0062972354
-4.7891271e-05
0.0077376849
-4.6909583e-05
0.0089757801
-3.8229283e-05
0.0099947476
-2.6033922e-05
0.010793056
-1.4024264e-05
0.011369504
-4.6695313e-06
0.011708941
7.7466872e-07
0.011762365
2.0667352e-06
0.011391757
0.01005949
-3.2386928e-06
0.0010077634
-1.2227714e-05
0.0029256447
-2.4871687e-05
0.0046959006
-3.7098718e-05
0.0063094625
-4.3397664e-05
0.0077439838
-4.1070812e-05
0.0089734533
-3.2299141e-05
0.0099859759
-2.0920724e-05
0.010781677
-1.0139942e-05
0.011358723
-2.0591227e-06
0.01170086
2.278005e-06
0.011758028
2.6638808e-06
0.011391371
0.010062154
-3.1562772e-06
0.0010109197
-1.1832823e-05
0.0029343212
-2.3693038e-05
0.0047077608
-3.4390254e-05
0.0063201597
-3.8842816e-05
0.0077484364
-3.5466329e-05
0.0089700768
-2.6770487e-05
0.0099772801
-1.6218812e-05
0.010771126
-6.585343e-06
0.01134909
3.4751924e-07
0.011693927
3.6322532e-06
0.011754743
3.2023355e-06
0.011391801
0.010065356
-3.0627118e-06
0.0010139824
-1.1384178e-05
0.0029426427
-2.2372402e-05
0.0047187491
-3.1496501e-05
0.0063292838
-3.4287357e-05
0.0077512272
-3.0121865e-05
0.0089659113
-2.1625939e-05
0.0099687841
-1.1894064e-05
0.010761394
-3.3303312e-06
0.011340526
2.5510829e-06
0.011688046
4.861663e-06
0.011752432
3.6898356e-06
0.011392972
0.010069046
-2.9555339e-06
0.001016938
-1.0872488e-05
0.0029505597
-2.0901461e-05
0.004728778
-2.8448946e-05
0.0063368313
-2.97858e-05
0.0077525641
-2.5052609e-05
0.0089611781
-1.6845483e-05
0.009960577
-7.9112372e-06
0.01075246
-3.2674774e-07
0.011332941
4.543386e-06
0.011683175
5.9753502e-06
0.011751
4.1313189e-06
0.011394816
0.010073177
-2.8319477e-06
0.0010197699
-1.0288358e-05
0.0029580161
-1.9277896e-05
0.0047377676
-2.5286903e-05
0.0063428403
-2.5383501e-05
0.0077526607
-2.0265008e-05
0.0089560596
-1.2407971e-05
0.00995272
-4.2418902e-06
0.010744293
2.4380184e-06
0.011326262
6.3569989e-06
0.011679256
6.9857696e-06
0.011750371
4.5313237e-06
0.011397271
0.010077709
-2.6889072e-06
0.0010224588
-9.6232116e-06
0.0029649504
-1.750713e-05
0.0047456515
-2.2054215e-05
0.0063473874
-2.1116477e-05
0.0077517229
-1.5759129e-05
0.0089507023
-8.2896825e-06
0.0099452505
-8.4671778e-07
0.01073685
4.9536712e-06
0.011320461
8.0064842e-06
0.011676204
7.9030762e-06
0.011750475
4.8939936e-06
0.01140028
0.010082603
-2.5232502e-06
0.0010249821
-8.8703639e-06
0.0029712975
-1.5602911e-05
0.004752384
-1.8795223e-05
0.0063505797
-1.7011661e-05
0.0077499394
-1.153073e-05
0.0089452213
-4.4700271e-06
0.0099381898
2.2909532e-06
0.01073009
7.2495004e-06
0.011315503
9.5068758e-06
0.011673946
8.7354329e-06
0.011751246
5.2223287e-06
0.011403793
0.010087825
-2.3319747e-06
0.001027314
-8.0264246e-06
0.0029769919
-1.3587008e-05
0.0047579446
-1.5551702e-05
0.0063525444
-1.3087797e-05
0.0077474755
-7.5700538e-06
0.0089397036
-9.1686934e-07
0.0099315366
5.1653325e-06
0.010724007
9.3448486e-06
0.011311323
1.0871951e-05
0.011672419
9.490605e-06
0.011752628
5.5193441e-06
0.011407764
0.010093344
-2.1126544e-06
0.0010294267
-7.0926605e-06
0.0029819719
-1.148768e-05
0.0047623396
-1.2360765e-05
0.0063534174
-9.3574511e-06
0.0077444721
-3.8681002e-06
0.0089342143
2.3811873e-06
0.0099252874
7.797118e-06
0.010718591
1.1256317e-05
0.011307864
1.2113245e-05
0.011671562
1.0174993e-05
0.011754566
5.7874269e-06
0.011412152
0.010099132
-1.8640272e-06
0.0010312907
-6.0761516e-06
0.0029861841
-9.3374788e-06
0.004765601
-9.2535949e-06
0.0063533336
-5.8255898e-06
0.0077410441
-4.0088181e-07
0.0089287895
5.4171426e-06
0.0099194693
1.0206075e-05
0.010713802
1.2999123e-05
0.011305071
1.3241026e-05
0.01167132
1.0794273e-05
0.011757013
6.0287224e-06
0.011416917
0.010105161
-1.5866523e-06
0.0010328774
-4.990239e-06
0.0029895877
-7.1706314e-06
0.0047677814
-6.2552749e-06
0.0063524182
-2.4927404e-06
0.0077372816
2.8316833e-06
0.0089234651
8.2067961e-06
0.0099140942
1.2408946e-05
0.0107096
1.4586642e-05
0.011302893
1.4264268e-05
0.011671643
1.1353364e-05
0.011759924
6.2450693e-06
0.011422026
0.010111406
-1.2835179e-06
0.0010341609
-3.8541842e-06
0.0029921583
-5.0207814e-06
0.0047689479
-3.3849455e-06
0.0063507824
6.4622599e-07
0.0077332504
5.8153837e-06
0.008918296
1.0765937e-05
0.0099091437
1.4420847e-05
0.010705945
1.6030834e-05
0.011301283
1.5191009e-05
0.011672482
1.1856708e-05
0.011763258
6.4381661e-06
0.011427444
0.010117844
-9.6035052e-07
0.0010351212
-2.6918226e-06
0.0029938898
-2.9183388e-06
0.0047691745
-6.5060072e-07
0.0063485146
3.5782659e-06
0.0077290216
8.5629375e-06
0.0089133113
1.310859e-05
0.009904598
1.6254546e-05
0.010702799
1.7341542e-05
0.011300196
1.6027697e-05
0.011673796
1.2307729e-05
0.011766978
6.609228e-06
0.011433143
0.010124453
-6.253527e-07
0.0010357466
-1.5291163e-06
0.0029947936
-8.873597e-07
0.0047685327
1.9291084e-06
0.0063456982
6.2873334e-06
0.0077246633
1.1084087e-05
0.0089085145
1.5247516e-05
0.0099004346
1.7921737e-05
0.010700125
1.8527767e-05
0.01129959
1.6780264e-05
0.011675544
1.2709644e-05
0.011771048
6.7594544e-06
0.011439093
0.010131213
-2.8821838e-07
0.0010360348
-3.9067532e-07
0.002994896
1.0457173e-06
0.0047670963
4.3266836e-06
0.0063424172
8.7771352e-06
0.0077202129
1.3387473e-05
0.0089039042
1.719315e-05
0.0098966289
1.9431858e-05
0.010697887
1.9596643e-05
0.011299425
1.7453274e-05
0.011677687
1.3064795e-05
0.011775437
6.8896345e-06
0.011445268
0.010138102
4.0781621e-08
0.001035994
6.9666025e-07
0.0029942401
2.8486019e-06
0.0047649444
6.5296173e-06
0.0063387362
1.1049531e-05
0.007715693
1.5480315e-05
0.0088994734
1.8954081e-05
0.0098931551
2.0792568e-05
0.010696048
2.0553859e-05
0.011299664
1.8050255e-05
0.011680191
1.3374901e-05
0.011780112
7.0002851e-06
0.011451643
0.010145102
3.5067458e-07
0.0010356433
1.704869e-06
0.0029928859
4.497094e-06
0.0047621521
8.5307941e-06
0.0063347025
1.3105735e-05
0.007711118
1.7368032e-05
0.0088952111
2.053676e-05
0.0098899864
2.2009504e-05
0.010694575
2.1403429e-05
0.01130027
1.8573509e-05
0.011683021
1.3640904e-05
0.011785045
7.0915634e-06
0.011458192
0.010152194
6.3199391e-07
0.0010350114
2.6137988e-06
0.0029909041
5.9772012e-06
0.0047587887
1.032452e-05
0.0063303552
1.4946296e-05
0.0077064963
1.905428e-05
0.0088911031
2.1945537e-05
0.0098870952
2.30863e-05
0.010693435
2.2147692e-05
0.011301209
1.9024083e-05
0.011686144
1.3862938e-05
0.011790206
7.163247e-06
0.011464892
0.010159357
8.7876329e-07
0.0010341326
3.4113833e-06
0.0029883715
7.2795516e-06
0.0047549206
1.1906914e-05
0.0063257278
1.6571505e-05
0.0077018317
2.0541357e-05
0.0088871333
2.3183001e-05
0.0098844535
2.4024851e-05
0.010692593
2.2787494e-05
0.011302446
1.9401894e-05
0.01168953
1.4040397e-05
0.011795568
7.2147693e-06
0.011471717
0.010166572
1.0879022e-06
0.0010330447
4.0915547e-06
0.0029853679
8.3995107e-06
0.0047506126
1.3276256e-05
0.0063208511
1.7981835e-05
0.0076971261
2.1830617e-05
0.0088832845
2.4250321e-05
0.0098820338
2.4825565e-05
0.010692017
2.3322372e-05
0.011303949
1.9705837e-05
0.011693146
1.4172005e-05
0.011801101
7.2452422e-06
0.011478644
0.010173817
1.2588965e-06
0.0010317858
4.6536629e-06
0.0029819731
9.3370892e-06
0.0047459292
1.4433338e-05
0.0063157548
1.9178456e-05
0.007692381
2.2922992e-05
0.00887954
2.5147701e-05
0.0098798091
2.5487724e-05
0.010691677
2.3750803e-05
0.011305686
1.993396e-05
0.011696963
1.425592e-05
0.011806779
7.2535112e-06
0.011485647
0.010181071
1.3932148e-06
0.0010303926
5.1015173e-06
0.0029782648
1.0096602e-05
0.0047409341
1.5381722e-05
0.0063104697
2.0163787e-05
0.0076875989
2.3819603e-05
0.0088758842
2.5874934e-05
0.0098777538
2.6009941e-05
0.010691542
2.4070571e-05
0.011307626
2.0083728e-05
0.01170095
1.4289899e-05
0.011812573
7.2382355e-06
0.011492698
0.010188309
1.4936563e-06
0.0010288989
5.4422426e-06
0.0029743162
1.0686072e-05
0.0047356903
1.6127821e-05
0.0063050279
2.0941947e-05
0.0076827848
2.4522342e-05
0.0088723038
2.643198e-05
0.0098758441
2.6390676e-05
0.010691584
2.4279179e-05
0.011309737
2.0152333e-05
0.011705077
1.4271511e-05
0.011818454
7.1979971e-06
0.011499772
0.010195507
1.5637654e-06
0.0010273352
5.6851412e-06
0.0029701948
1.1116472e-05
0.0047302589
1.6680761e-05
0.0062994636
2.1519056e-05
0.0076779465
2.5034383e-05
0.0088687884
2.681954e-05
0.009874059
2.662877e-05
0.010691774
2.4374311e-05
0.011311992
2.0137055e-05
0.011709314
1.4198388e-05
0.011824393
7.1314221e-06
0.011506839
0.010202638
1.6073742e-06
0.0010257278
5.8406857e-06
0.0029659615
1.1400874e-05
0.0047246988
1.7052046e-05
0.0062938125
2.1903343e-05
0.0076730952
2.5360542e-05
0.0088653312
2.7039514e-05
0.00987238
2.6723924e-05
0.01069209
2.4354268e-05
0.011314361
2.0035626e-05
0.011713633
1.4068481e-05
0.01183036
7.0373208e-06
0.01151387
0.010209676
1.628286e-06
0.0010240995
5.9197176e-06
0.0029616701
1.155362e-05
0.0047190649
1.7255093e-05
0.006288111
2.2105071e-05
0.0076682452
2.5507487e-05
0.0088619288
2.7095367e-05
0.0098707921
2.6677117e-05
0.010692508
2.4218381e-05
0.01131682
1.9846574e-05
0.011718005
1.3880318e-05
0.011836326
6.9148214e-06
0.011520835
0.010216591
1.6300799e-06
0.0010224694
5.9328604e-06
0.0029573673
1.1589589e-05
0.0047134081
1.7304675e-05
0.0062823959
2.2136302e-05
0.0076634136
2.5483771e-05
0.0088585813
2.699234e-05
0.0098692835
2.6490913e-05
0.01069301
2.3967324e-05
0.011319344
1.9569521e-05
0.011722403
1.3633224e-05
0.011842262
6.7634911e-06
0.011527705
0.010223354
1.6160067e-06
0.0010208534
5.8901349e-06
0.0029530932
1.1523591e-05
0.0047077747
1.7216371e-05
0.0062767031
2.2010556e-05
0.0076586194
2.5299717e-05
0.0088552922
2.6737511e-05
0.0098678458
2.6169622e-05
0.010693578
2.3603348e-05
0.01132191
1.9205408e-05
0.0117268
1.3327505e-05
0.01184814
6.583431e-06
0.011534449
0.010229938
1.5889482e-06
0.0010192645
5.8007342e-06
0.0029488814
1.1369906e-05
0.0047022055
1.7006044e-05
0.006271067
2.1742396e-05
0.0076538831
2.4967182e-05
0.0088520674
2.6339718e-05
0.0098664732
2.5719351e-05
0.010694198
2.3130383e-05
0.011324499
1.8756621e-05
0.011731174
1.2964552e-05
0.011853932
6.3753366e-06
0.011541038
0.010236313
1.5514157e-06
0.001017713
5.672921e-06
0.0029447599
1.1141974e-05
0.0046967365
1.6689395e-05
0.0062655196
2.1347013e-05
0.0076492254
2.4499246e-05
0.0088489152
2.5809375e-05
0.0098651631
2.5147924e-05
0.010694859
2.255404e-05
0.011327093
1.8227029e-05
0.011735501
1.2546885e-05
0.011859613
6.1405263e-06
0.011547445
0.010242453
1.5055716e-06
0.0010162075
5.5140087e-06
0.0029407515
1.0852201e-05
0.0046913983
1.6281615e-05
0.0062600902
2.0839822e-05
0.0076446672
2.390986e-05
0.0088458451
2.515821e-05
0.0098639147
2.4464703e-05
0.010695553
2.1881506e-05
0.011329676
1.7621931e-05
0.011739761
1.2078129e-05
0.011865156
5.8809165e-06
0.011553642
0.010248334
1.4532613e-06
0.0010147542
5.3303951e-06
0.0029368743
1.0511857e-05
0.0046862168
1.5797111e-05
0.0062548049
2.0236102e-05
0.0076402282
2.3213477e-05
0.0088428678
2.4398933e-05
0.0098627293
2.3680329e-05
0.010696272
2.1121342e-05
0.011332235
1.6947909e-05
0.011743934
1.1562909e-05
0.011870541
5.5989798e-06
0.011559606
0.010253933
1.3960499e-06
0.0010133582
5.1276265e-06
0.0029331427
1.0131058e-05
0.0046812134
1.5249336e-05
0.0062496866
1.9550704e-05
0.0076359269
2.2424714e-05
0.0088399937
2.3544916e-05
0.0098616091
2.2806433e-05
0.01069701
2.028325e-05
0.011334758
1.621264e-05
0.011748005
1.1006711e-05
0.011875747
5.2976498e-06
0.011565315
0.010259231
1.3352587e-06
0.0010120229
4.9104772e-06
0.0029295675
9.7187853e-06
0.0046764051
1.4650673e-05
0.0062447547
1.879781e-05
0.0076317797
2.1558033e-05
0.0088372335
2.2609845e-05
0.0098605573
2.1855305e-05
0.010697765
1.9377767e-05
0.011337236
1.5424643e-05
0.011751958
1.0415694e-05
0.011880756
4.980229e-06
0.01157075
0.010264211
1.2719984e-06
0.0010107509
4.6830326e-06
0.0029261565
9.282943e-06
0.0046718051
1.4012385e-05
0.0062400253
1.7990759e-05
0.0076278014
2.0627483e-05
0.0088345968
2.1607417e-05
0.0098595773
2.0839573e-05
0.010698532
1.8415964e-05
0.011339659
1.4593011e-05
0.011755781
9.7964827e-06
0.011885553
4.6502626e-06
0.011575897
0.010268861
1.2071995e-06
0.0010095437
4.4487703e-06
0.0029229149
8.8304355e-06
0.0046674235
1.3344611e-05
0.0062355111
1.7141931e-05
0.007624004
1.9646482e-05
0.0088320922
2.055106e-05
0.0098586728
1.9771905e-05
0.010699312
1.7409152e-05
0.011342022
1.3727143e-05
0.011759463
9.1559528e-06
0.011890124
4.3114168e-06
0.011580741
0.010273173
1.141639e-06
0.0010084021
4.2106372e-06
0.0029198459
8.3672503e-06
0.0046632669
1.2656387e-05
0.006231222
1.6262671e-05
0.0076203978
1.8627652e-05
0.0088297273
1.9453702e-05
0.0098578467
1.8664729e-05
0.010700101
1.6368587e-05
0.011344318
1.2836481e-05
0.011762995
8.5010269e-06
0.011894459
3.9673709e-06
0.011585275
0.01027714
1.0759634e-06
0.0010073261
3.9711177e-06
0.0029169508
7.8985457e-06
0.0046593394
1.1955697e-05
0.0062271648
1.5363261e-05
0.0076169902
1.7582705e-05
0.0088275078
1.8327582e-05
0.0098571018
1.7530013e-05
0.010700898
1.5305237e-05
0.011346543
1.1930277e-05
0.01176637
7.8384837e-06
0.011898551
3.6216999e-06
0.011589492
0.010280762
1.0107081e-06
0.0010063154
3.7322958e-06
0.0029142292
7.4287356e-06
0.004655643
1.1249535e-05
0.006223344
1.445292e-05
0.0076137868
1.6522365e-05
0.0088254384
1.7184115e-05
0.0098564401
1.6379071e-05
0.010701703
1.4229568e-05
0.011348692
1.1017395e-05
0.011769582
7.1748015e-06
0.011902394
3.2777893e-06
0.011593389
0.01028404
9.4631404e-07
0.0010053691
3.4959092e-06
0.0029116796
6.9615709e-06
0.0046521773
1.0543973e-05
0.0062197616
1.3539825e-05
0.007610791
1.5456332e-05
0.0088235219
1.6033787e-05
0.0098558626
1.5222422e-05
0.010702515
1.3151378e-05
0.011350763
1.0106139e-05
0.011772627
6.5160204e-06
0.011905984
2.9387627e-06
0.011596966
0.010286978
8.8314211e-07
0.0010044859
3.2633973e-06
0.0029092993
6.5002154e-06
0.0046489405
9.8442393e-06
0.0062164176
1.2631162e-05
0.007608004
1.4393278e-05
0.0088217598
1.4886107e-05
0.0098553698
1.4069692e-05
0.010703331
1.2079674e-05
0.011352753
9.2041427e-06
0.011775503
5.8676494e-06
0.01190932
2.6074319e-06
0.011600226
0.010289586
8.2148498e-07
0.0010036645
3.0359416e-06
0.0029070849
6.0473147e-06
0.0046459291
9.1547947e-06
0.0062133101
1.1733175e-05
0.0076054257
1.334086e-05
0.0088201521
1.3749572e-05
0.0098549611
1.2929556e-05
0.010704151
1.1022595e-05
0.01135466
8.3182767e-06
0.011778207
5.2345998e-06
0.011912404
2.2862568e-06
0.011603174
0.010291872
7.6157732e-07
0.0010029029
2.8145023e-06
0.0029050319
5.6050587e-06
0.0046431386
8.4794041e-06
0.0062104358
1.0851229e-05
0.0076030538
1.2305757e-05
0.0088186975
1.2631676e-05
0.0098546352
1.1809708e-05
0.010704973
9.987364e-06
0.011356483
7.4546067e-06
0.01178074
4.6211491e-06
0.011915238
1.977337e-06
0.011605818
0.010293849
7.036042e-07
0.0010021993
2.5998483e-06
0.0029031357
5.1752373e-06
0.0046405632
7.821208e-06
0.0062077898
9.9898808e-06
0.0076008852
1.129372e-05
0.0088173937
1.153893e-05
0.00985439
1.0716859e-05
0.010705795
8.980271e-06
0.011358219
6.6183669e-06
0.011783102
4.0309263e-06
0.011917825
1.6824043e-06
0.011608167
0.010295532
6.4770869e-07
0.0010015516
2.3925844e-06
0.0029013908
4.759291e-06
0.0046381965
7.1827886e-06
0.0062053663
9.1529446e-06
0.007598915
1.0309625e-05
0.008816237
1.0476899e-05
0.0098542227
9.6567632e-06
0.010706615
8.0066867e-06
0.011359869
5.813975e-06
0.011785295
3.4669251e-06
0.011920172
1.4028375e-06
0.011610231
0.010296935
5.9399774e-07
0.0010009576
2.1931744e-06
0.0028997917
4.3583559e-06
0.0046360313
6.566233e-06
0.0062031584
8.3435607e-06
0.0075971377
9.3575417e-06
0.008815223
9.4502614e-06
0.00985413
8.6342536e-06
0.010707431
7.0710899e-06
0.011361433
5.0450468e-06
0.011787321
2.9315204e-06
0.011922286
1.1396725e-06
0.011612023
0.010298074
5.425476e-07
0.001000415
2.0019592e-06
0.0028983322
3.9732999e-06
0.00463406
5.9731841e-06
0.0062011585
7.5642549e-06
0.0075955466
8.440784e-06
0.0088143465
8.4628451e-06
0.0098541079
7.6532775e-06
0.010708241
6.1770861e-06
0.011362909
4.3144305e-06
0.011789183
2.4265059e-06
0.011924173
8.936432e-07
0.011613556
0.010298968
4.9340875e-07
0.00099992161
1.819178e-06
0.0028970065
3.6047636e-06
0.0046322744
5.4049028e-06
0.0061993584
6.8170153e-06
0.0075941345
7.5619995e-06
0.0088136015
7.5177248e-06
0.0098541522
6.7169851e-06
0.010709041
5.3275136e-06
0.011364298
3.6242732e-06
0.011790887
1.9531322e-06
0.011925845
6.6516959e-07
0.011614844
0.010299633
4.4660947e-07
0.000999475
1.6449793e-06
0.0028958081
3.2531859e-06
0.0046306662
4.8623048e-06
0.0061977493
6.1033348e-06
0.0075928935
6.7232087e-06
0.0088129817
6.6172493e-06
0.0098542581
5.8277558e-06
0.010709831
4.5244375e-06
0.011365601
2.9760581e-06
0.011792435
1.5121658e-06
0.011927309
4.5445128e-07
0.011615901
0.010300088
4.0216093e-07
0.00099907284
1.479443e-06
0.0028947308
2.9188485e-06
0.0046292268
4.3460352e-06
0.0061963221
5.4243169e-06
0.0075918152
5.9259404e-06
0.00881248
5.7632095e-06
0.0098544209
4.9873869e-06
0.010710607
3.7693864e-06
0.011366819
2.3708109e-06
0.011793834
1.1040763e-06
0.011928575
2.6157826e-07
0.011616744
0.010300349
3.6006003e-07
0.00099871278
1.3225906e-06
0.0028937683
2.6018995e-06
0.0046279475
3.8565047e-06
0.0061950675
4.7807237e-06
0.007590891
5.1712874e-06
0.0088120895
4.9568963e-06
0.0098546352
4.1971559e-06
0.010711366
3.0634041e-06
0.011367953
1.8092228e-06
0.011795088
7.2940725e-07
0.011929655
8.9050064e-08
0.011617384
0.010300438
3.2028594e-07
0.00099839249
1.1743712e-06
0.0028929142
2.3023209e-06
0.0046268195
3.3938304e-06
0.006193976
4.1728753e-06
0.0075901119
4.4597535e-06
0.0088118026
4.1988788e-06
0.0098548961
3.4575204e-06
0.010712108
2.4066594e-06
0.011369004
1.2911087e-06
0.011796203
3.8786424e-07
0.011930558
-6.2190584e-08
0.011617834
0.010300376
2.8280332e-07
0.00099810969
1.0346728e-06
0.0028921623
2.019952e-06
0.0046258342
2.9578752e-06
0.0061930381
3.6007079e-06
0.0075894691
3.7913273e-06
0.008811612
3.4890995e-06
0.0098551983
2.7682429e-06
0.010712829
1.7986912e-06
0.011369974
8.1613717e-07
0.011797186
8.150404e-08