/*--------------------------------*- C++ -*----------------------------------*\
| =========                 |                                                 |
| \\      /  F ield         | OpenFOAM: The Open Source CFD Toolbox           |
|  \\    /   O peration     | Version:  2506                                  |
|   \\  /    A nd           | Website:  www.openfoam.com                      |
|    \\/     M anipulation  |                                                 |
\*---------------------------------------------------------------------------*/
FoamFile
{
    version     2.0;
    format      ascii;
    arch        "LSB;label=32;scalar=64";
    class       volScalarField;
    location    "2000/water";
    object      T;
}
// * * * * * * * * * * * * * * * * * * * * * * * * * * * * * * * * * * * * * //

dimensions      [0 0 0 1 0 0 0];

internalField   nonuniform List<scalar> 
2600
(
333.15
333.15
333.15
333.15
333.15
333.15
333.15
333.14999
333.14998
333.1499
333.14959
333.14803
333.13778
333.15
333.15
333.15
333.15
333.15
333.15
333.14999
333.14998
333.14992
333.14971
333.14892
333.14547
333.12866
333.15
333.15
333.15
333.15
333.15
333.15
333.14999
333.14995
333.14982
333.14942
333.14805
333.14253
333.12128
333.15
333.15
333.15
333.15
333.15
333.14999
333.14997
333.1499
333.14969
333.14905
333.14701
333.13939
333.115
333.15
333.15
333.15
333.15
333.14999
333.14998
333.14994
333.14983
333.14951
333.1486
333.14582
333.13615
333.10954
333.15
333.15
333.15
333.15
333.14999
333.14997
333.14991
333.14974
333.14929
333.14808
333.14448
333.13289
333.10474
333.15
333.15
333.15
333.14999
333.14998
333.14995
333.14986
333.14963
333.14904
333.14749
333.14299
333.12967
333.10052
333.15
333.15
333.15
333.14999
333.14998
333.14993
333.14981
333.1495
333.14875
333.14681
333.14135
333.12653
333.09684
333.15
333.15
333.15
333.14999
333.14996
333.1499
333.14974
333.14935
333.14841
333.14604
333.13955
333.12352
333.09366
333.15
333.15
333.14999
333.14998
333.14995
333.14987
333.14966
333.14917
333.14803
333.14516
333.13761
333.12069
333.09095
333.15
333.15
333.14999
333.14997
333.14993
333.14982
333.14957
333.14898
333.1476
333.14416
333.13555
333.11805
333.08866
333.15
333.14999
333.14999
333.14996
333.14991
333.14977
333.14946
333.14875
333.14709
333.14302
333.13342
333.11564
333.08674
333.14999
333.14999
333.14998
333.14995
333.14988
333.14972
333.14934
333.14848
333.14651
333.14174
333.13127
333.11345
333.08513
333.14999
333.14999
333.14998
333.14994
333.14985
333.14965
333.14919
333.14818
333.14584
333.14033
333.12915
333.11148
333.08378
333.14999
333.14999
333.14997
333.14992
333.14982
333.14957
333.14903
333.14783
333.14507
333.1388
333.12711
333.1097
333.08263
333.14999
333.14998
333.14996
333.1499
333.14977
333.14948
333.14884
333.14743
333.14418
333.1372
333.12518
333.1081
333.08164
333.14998
333.14998
333.14995
333.14988
333.14972
333.14938
333.14863
333.14696
333.14319
333.13557
333.12337
333.10665
333.08078
333.14998
333.14997
333.14993
333.14985
333.14967
333.14926
333.14837
333.14641
333.14209
333.13393
333.12169
333.10534
333.08002
333.14998
333.14996
333.14992
333.14982
333.1496
333.14912
333.14808
333.14578
333.1409
333.13231
333.12012
333.10414
333.07934
333.14997
333.14995
333.1499
333.14978
333.14952
333.14896
333.14774
333.14506
333.13965
333.13075
333.11868
333.10305
333.07873
333.14996
333.14994
333.14988
333.14974
333.14944
333.14878
333.14735
333.14426
333.13835
333.12925
333.11733
333.10204
333.07818
333.14995
333.14993
333.14986
333.14969
333.14933
333.14856
333.14689
333.14337
333.13703
333.12782
333.11609
333.10111
333.07768
333.14994
333.14991
333.14983
333.14964
333.14922
333.14831
333.14637
333.14241
333.13572
333.12647
333.11492
333.10025
333.07721
333.14993
333.1499
333.1498
333.14957
333.14908
333.14802
333.14577
333.14139
333.13442
333.12518
333.11384
333.09945
333.07677
333.14992
333.14988
333.14976
333.14949
333.14892
333.14769
333.1451
333.14033
333.13316
333.12397
333.11282
333.0987
333.07637
333.1499
333.14985
333.14971
333.1494
333.14873
333.1473
333.14437
333.13924
333.13193
333.12282
333.11187
333.098
333.07599
333.14988
333.14982
333.14966
333.1493
333.14852
333.14685
333.14357
333.13814
333.13074
333.12173
333.11097
333.09734
333.07563
333.14986
333.14979
333.1496
333.14918
333.14826
333.14635
333.14272
333.13704
333.1296
333.12069
333.11012
333.09671
333.07529
333.14983
333.14976
333.14953
333.14904
333.14797
333.14578
333.14182
333.13595
333.1285
333.11971
333.10932
333.09612
333.07497
333.1498
333.14971
333.14945
333.14887
333.14763
333.14516
333.14089
333.13487
333.12745
333.11878
333.10856
333.09556
333.07466
333.14977
333.14966
333.14936
333.14868
333.14725
333.14447
333.13995
333.13382
333.12643
333.11789
333.10783
333.09502
333.07437
333.14973
333.1496
333.14924
333.14845
333.14681
333.14374
333.13899
333.13279
333.12546
333.11704
333.10714
333.09451
333.07409
333.14968
333.14953
333.14911
333.14819
333.14631
333.14296
333.13803
333.13179
333.12452
333.11622
333.10648
333.09402
333.07381
333.14962
333.14944
333.14896
333.14789
333.14577
333.14215
333.13707
333.13082
333.12363
333.11545
333.10584
333.09354
333.07355
333.14955
333.14935
333.14878
333.14754
333.14517
333.14132
333.13612
333.12987
333.12276
333.1147
333.10523
333.09309
333.07329
333.14947
333.14923
333.14856
333.14715
333.14452
333.14046
333.13518
333.12896
333.12193
333.11398
333.10465
333.09265
333.07305
333.14938
333.14909
333.14832
333.1467
333.14383
333.1396
333.13426
333.12807
333.12112
333.11329
333.10408
333.09222
333.0728
333.14927
333.14893
333.14803
333.1462
333.1431
333.13873
333.13335
333.12721
333.12035
333.11262
333.10353
333.09181
333.07256
333.14913
333.14874
333.1477
333.14565
333.14234
333.13785
333.13247
333.12637
333.11959
333.11197
333.103
333.09141
333.07233
333.14897
333.14851
333.14732
333.14506
333.14156
333.13698
333.1316
333.12556
333.11887
333.11135
333.10249
333.09102
333.07209
333.14878
333.14825
333.14689
333.14442
333.14076
333.13612
333.13075
333.12476
333.11816
333.11074
333.10199
333.09064
333.07186
333.14855
333.14794
333.14641
333.14374
333.13995
333.13527
333.12991
333.12399
333.11748
333.11015
333.10151
333.09026
333.07164
333.14828
333.14758
333.14588
333.14303
333.13913
333.13442
333.1291
333.12325
333.11681
333.10958
333.10104
333.0899
333.07141
333.14796
333.14717
333.14529
333.14229
333.1383
333.13358
333.1283
333.12252
333.11617
333.10903
333.10058
333.08954
333.07118
333.14758
333.1467
333.14466
333.14152
333.13747
333.13276
333.12752
333.12181
333.11554
333.10848
333.10013
333.08919
333.07096
333.14714
333.14617
333.14399
333.14073
333.13665
333.13194
333.12676
333.12111
333.11492
333.10795
333.09968
333.08884
333.07073
333.14663
333.14557
333.14327
333.13993
333.13582
333.13114
333.12601
333.12043
333.11432
333.10744
333.09925
333.0885
333.0705
333.14606
333.14492
333.14251
333.13911
333.135
333.13035
333.12528
333.11977
333.11374
333.10693
333.09882
333.08816
333.07027
333.1454
333.14421
333.14173
333.13829
333.13418
333.12957
333.12456
333.11912
333.11316
333.10643
333.0984
333.08782
333.07004
333.14468
333.14344
333.14091
333.13745
333.13336
333.12881
333.12385
333.11849
333.1126
333.10594
333.09799
333.08748
333.06981
333.14389
333.14262
333.14006
333.13661
333.13255
333.12805
333.12316
333.11786
333.11204
333.10546
333.09758
333.08715
333.06958
333.14303
333.14176
333.1392
333.13577
333.13175
333.1273
333.12247
333.11725
333.1115
333.10498
333.09717
333.08682
333.06934
333.14213
333.14086
333.13831
333.13492
333.13095
333.12656
333.1218
333.11664
333.11096
333.10451
333.09677
333.08649
333.0691
333.14117
333.13992
333.13741
333.13406
333.13016
333.12583
333.12114
333.11604
333.11043
333.10405
333.09637
333.08616
333.06886
333.14018
333.13895
333.13649
333.13321
333.12936
333.12511
333.12048
333.11545
333.10991
333.10359
333.09597
333.08583
333.06861
333.13917
333.13797
333.13557
333.13235
333.12858
333.12439
333.11983
333.11487
333.10939
333.10313
333.09558
333.0855
333.06836
333.13813
333.13697
333.13463
333.13149
333.12779
333.12368
333.11919
333.11429
333.10887
333.10268
333.09519
333.08517
333.0681
333.13708
333.13596
333.13369
333.13063
333.12701
333.12297
333.11855
333.11372
333.10836
333.10223
333.09479
333.08483
333.06784
333.13603
333.13495
333.13275
333.12977
333.12623
333.12227
333.11792
333.11315
333.10786
333.10178
333.0944
333.08449
333.06758
333.13498
333.13393
333.13181
333.12892
333.12546
333.12157
333.11729
333.11259
333.10735
333.10133
333.094
333.08415
333.0673
333.13392
333.13292
333.13088
333.12806
333.12469
333.12087
333.11666
333.11203
333.10685
333.10088
333.09361
333.08381
333.06702
333.13288
333.13192
333.12994
333.12721
333.12392
333.12018
333.11604
333.11147
333.10635
333.10043
333.09321
333.08346
333.06674
333.13185
333.13092
333.12902
333.12637
333.12316
333.11949
333.11542
333.11091
333.10585
333.09998
333.09281
333.08311
333.06644
333.13083
333.12994
333.1281
333.12553
333.1224
333.11881
333.1148
333.11035
333.10534
333.09953
333.09241
333.08276
333.06614
333.12982
333.12897
333.12719
333.1247
333.12164
333.11813
333.11419
333.1098
333.10484
333.09908
333.092
333.08239
333.06584
333.12883
333.12801
333.12629
333.12388
333.1209
333.11745
333.11358
333.10924
333.10434
333.09863
333.09159
333.08203
333.06552
333.12786
333.12706
333.12541
333.12306
333.12015
333.11678
333.11297
333.10869
333.10384
333.09817
333.09118
333.08165
333.06519
333.1269
333.12614
333.12453
333.12225
333.11941
333.11611
333.11236
333.10814
333.10333
333.09771
333.09076
333.08127
333.06486
333.12596
333.12522
333.12367
333.12145
333.11868
333.11544
333.11175
333.10758
333.10283
333.09725
333.09034
333.08089
333.06451
333.12504
333.12433
333.12282
333.12066
333.11796
333.11478
333.11114
333.10703
333.10232
333.09678
333.08991
333.0805
333.06416
333.12414
333.12344
333.12198
333.11988
333.11724
333.11412
333.11054
333.10647
333.10181
333.09631
333.08947
333.0801
333.0638
333.12325
333.12258
333.12116
333.11911
333.11653
333.11346
333.10994
333.10592
333.1013
333.09584
333.08904
333.07969
333.06343
333.12238
333.12173
333.12035
333.11835
333.11582
333.11281
333.10934
333.10537
333.10079
333.09536
333.08859
333.07927
333.06305
333.12153
333.1209
333.11955
333.1176
333.11513
333.11217
333.10874
333.10481
333.10027
333.09488
333.08814
333.07885
333.06266
333.12069
333.12008
333.11877
333.11686
333.11443
333.11152
333.10814
333.10426
333.09976
333.0944
333.08769
333.07843
333.06226
333.11987
333.11927
333.118
333.11613
333.11375
333.11089
333.10755
333.10371
333.09924
333.09391
333.08723
333.07799
333.06185
333.11907
333.11848
333.11724
333.11541
333.11307
333.11025
333.10696
333.10315
333.09872
333.09342
333.08676
333.07755
333.06143
333.11828
333.11771
333.11649
333.1147
333.1124
333.10962
333.10637
333.1026
333.0982
333.09293
333.08629
333.0771
333.06101
333.1175
333.11694
333.11575
333.114
333.11174
333.109
333.10578
333.10205
333.09767
333.09243
333.08582
333.07665
333.06057
333.11674
333.11619
333.11502
333.11331
333.11108
333.10838
333.1052
333.10149
333.09715
333.09193
333.08534
333.07618
333.06013
333.11599
333.11546
333.11431
333.11262
333.11043
333.10776
333.10461
333.10094
333.09662
333.09143
333.08485
333.07572
333.05968
333.11526
333.11473
333.1136
333.11194
333.10978
333.10715
333.10403
333.10038
333.09609
333.09092
333.08436
333.07524
333.05922
333.11453
333.11402
333.11291
333.11127
333.10914
333.10654
333.10345
333.09983
333.09556
333.09041
333.08387
333.07476
333.05876
333.11382
333.11331
333.11222
333.11061
333.10851
333.10593
333.10287
333.09928
333.09503
333.08989
333.08337
333.07428
333.05829
333.11312
333.11262
333.11155
333.10996
333.10788
333.10533
333.10229
333.09872
333.09449
333.08938
333.08287
333.07379
333.05781
333.11243
333.11193
333.11088
333.10931
333.10726
333.10473
333.10172
333.09817
333.09396
333.08886
333.08236
333.07329
333.05733
333.11174
333.11126
333.11022
333.10867
333.10664
333.10414
333.10114
333.09761
333.09342
333.08833
333.08185
333.07279
333.05684
333.11107
333.11059
333.10957
333.10804
333.10603
333.10354
333.10057
333.09706
333.09288
333.08781
333.08134
333.07229
333.05635
333.11041
333.10994
333.10892
333.10741
333.10542
333.10295
333.1
333.0965
333.09234
333.08728
333.08082
333.07178
333.05585
333.10975
333.10929
333.10828
333.10678
333.10481
333.10237
333.09943
333.09595
333.0918
333.08675
333.0803
333.07127
333.05535
333.10911
333.10864
333.10765
333.10617
333.10421
333.10178
333.09886
333.09539
333.09126
333.08622
333.07978
333.07076
333.05484
333.10846
333.10801
333.10702
333.10555
333.10361
333.1012
333.09829
333.09484
333.09072
333.08568
333.07925
333.07024
333.05433
333.10783
333.10738
333.1064
333.10495
333.10302
333.10062
333.09772
333.09428
333.09017
333.08515
333.07872
333.06971
333.05381
333.1072
333.10676
333.10579
333.10434
333.10243
333.10004
333.09716
333.09373
333.08962
333.08461
333.07819
333.06919
333.05329
333.10658
333.10614
333.10518
333.10374
333.10184
333.09946
333.09659
333.09317
333.08908
333.08407
333.07766
333.06866
333.05277
333.10597
333.10553
333.10457
333.10315
333.10125
333.09889
333.09603
333.09262
333.08853
333.08353
333.07712
333.06813
333.05224
333.10536
333.10492
333.10397
333.10255
333.10067
333.09831
333.09546
333.09206
333.08798
333.08298
333.07658
333.0676
333.05171
333.10475
333.10432
333.10338
333.10197
333.10009
333.09774
333.0949
333.0915
333.08743
333.08244
333.07604
333.06706
333.05118
333.10415
333.10372
333.10278
333.10138
333.09951
333.09717
333.09434
333.09095
333.08688
333.08189
333.0755
333.06652
333.05065
333.10356
333.10313
333.1022
333.1008
333.09893
333.0966
333.09377
333.09039
333.08633
333.08135
333.07496
333.06598
333.05011
333.10297
333.10254
333.10161
333.10022
333.09836
333.09603
333.09321
333.08983
333.08577
333.0808
333.07441
333.06544
333.04957
333.10238
333.10195
333.10103
333.09964
333.09779
333.09547
333.09265
333.08928
333.08522
333.08025
333.07387
333.0649
333.04903
333.10179
333.10137
333.10045
333.09906
333.09722
333.0949
333.09209
333.08872
333.08467
333.0797
333.07332
333.06435
333.04849
333.10121
333.10079
333.09987
333.09849
333.09665
333.09433
333.09153
333.08816
333.08411
333.07915
333.07277
333.0638
333.04794
333.10063
333.10021
333.09929
333.09791
333.09608
333.09377
333.09097
333.0876
333.08356
333.07859
333.07222
333.06326
333.0474
333.10005
333.09963
333.09872
333.09734
333.09551
333.09321
333.0904
333.08704
333.083
333.07804
333.07167
333.06271
333.04685
333.09948
333.09906
333.09815
333.09678
333.09494
333.09264
333.08984
333.08649
333.08245
333.07749
333.07111
333.06216
333.0463
333.09891
333.09849
333.09758
333.09621
333.09438
333.09208
333.08928
333.08593
333.08189
333.07693
333.07056
333.06161
333.04575
333.09833
333.09792
333.09701
333.09564
333.09381
333.09152
333.08872
333.08537
333.08133
333.07637
333.07001
333.06105
333.0452
333.09777
333.09735
333.09644
333.09508
333.09325
333.09095
333.08816
333.08481
333.08077
333.07582
333.06945
333.0605
333.04464
333.0972
333.09678
333.09588
333.09451
333.09269
333.09039
333.0876
333.08425
333.08022
333.07526
333.0689
333.05995
333.04409
333.09663
333.09622
333.09531
333.09395
333.09212
333.08983
333.08704
333.08369
333.07966
333.0747
333.06834
333.05939
333.04354
333.09607
333.09565
333.09475
333.09338
333.09156
333.08927
333.08648
333.08313
333.0791
333.07415
333.06778
333.05884
333.04298
333.0955
333.09509
333.09419
333.09282
333.091
333.08871
333.08592
333.08257
333.07854
333.07359
333.06723
333.05828
333.04242
333.09494
333.09453
333.09362
333.09226
333.09044
333.08815
333.08536
333.08201
333.07798
333.07303
333.06667
333.05772
333.04187
333.09438
333.09396
333.09306
333.0917
333.08988
333.08759
333.0848
333.08145
333.07742
333.07247
333.06611
333.05717
333.04131
333.09382
333.0934
333.0925
333.09114
333.08932
333.08703
333.08424
333.08089
333.07686
333.07191
333.06555
333.05661
333.04075
333.09326
333.09284
333.09194
333.09058
333.08876
333.08646
333.08368
333.08033
333.0763
333.07135
333.06499
333.05605
333.04019
333.0927
333.09228
333.09138
333.09002
333.08819
333.0859
333.08311
333.07977
333.07574
333.07079
333.06443
333.05549
333.03963
333.09214
333.09172
333.09082
333.08946
333.08763
333.08534
333.08255
333.07921
333.07518
333.07023
333.06387
333.05493
333.03907
333.09158
333.09116
333.09026
333.0889
333.08707
333.08478
333.08199
333.07864
333.07462
333.06967
333.06331
333.05437
333.03851
333.09102
333.0906
333.0897
333.08834
333.08651
333.08422
333.08143
333.07808
333.07406
333.06911
333.06275
333.05381
333.03795
333.09046
333.09004
333.08914
333.08778
333.08595
333.08366
333.08087
333.07752
333.07349
333.06855
333.06219
333.05325
333.03739
333.0899
333.08948
333.08858
333.08722
333.08539
333.0831
333.08031
333.07696
333.07293
333.06799
333.06163
333.05269
333.03682
333.08934
333.08893
333.08802
333.08666
333.08483
333.08254
333.07975
333.0764
333.07237
333.06743
333.06107
333.05213
333.03626
333.08878
333.08837
333.08746
333.08609
333.08427
333.08197
333.07918
333.07584
333.07181
333.06686
333.06051
333.05157
333.0357
333.08822
333.08781
333.0869
333.08553
333.08371
333.08141
333.07862
333.07527
333.07125
333.0663
333.05995
333.051
333.03513
333.08766
333.08725
333.08634
333.08497
333.08315
333.08085
333.07806
333.07471
333.07068
333.06574
333.05939
333.05044
333.03457
333.0871
333.08669
333.08578
333.08441
333.08259
333.08029
333.0775
333.07415
333.07012
333.06518
333.05882
333.04988
333.034
333.08654
333.08613
333.08522
333.08385
333.08202
333.07973
333.07693
333.07359
333.06956
333.06461
333.05826
333.04932
333.03344
333.08598
333.08557
333.08466
333.08329
333.08146
333.07916
333.07637
333.07302
333.06899
333.06405
333.0577
333.04875
333.03287
333.08542
333.08501
333.0841
333.08273
333.0809
333.0786
333.07581
333.07246
333.06843
333.06349
333.05713
333.04819
333.0323
333.08486
333.08445
333.08354
333.08217
333.08034
333.07804
333.07525
333.0719
333.06787
333.06292
333.05657
333.04762
333.03174
333.0843
333.08388
333.08298
333.0816
333.07977
333.07748
333.07468
333.07133
333.0673
333.06236
333.05601
333.04706
333.03117
333.08374
333.08332
333.08241
333.08104
333.07921
333.07691
333.07412
333.07077
333.06674
333.0618
333.05544
333.04649
333.0306
333.08318
333.08276
333.08185
333.08048
333.07865
333.07635
333.07355
333.0702
333.06618
333.06123
333.05488
333.04593
333.03003
333.08262
333.0822
333.08129
333.07992
333.07809
333.07579
333.07299
333.06964
333.06561
333.06067
333.05431
333.04536
333.02946
333.08206
333.08164
333.08073
333.07935
333.07752
333.07522
333.07243
333.06908
333.06505
333.0601
333.05375
333.04479
333.02889
333.08149
333.08107
333.08016
333.07879
333.07696
333.07466
333.07186
333.06851
333.06448
333.05954
333.05318
333.04423
333.02832
333.08093
333.08051
333.0796
333.07823
333.07639
333.07409
333.0713
333.06795
333.06392
333.05897
333.05262
333.04366
333.02775
333.08037
333.07995
333.07904
333.07766
333.07583
333.07353
333.07073
333.06738
333.06335
333.05841
333.05205
333.04309
333.02717
333.0798
333.07938
333.07847
333.0771
333.07526
333.07296
333.07017
333.06682
333.06279
333.05784
333.05148
333.04252
333.0266
333.07924
333.07882
333.07791
333.07653
333.0747
333.0724
333.0696
333.06625
333.06222
333.05728
333.05092
333.04195
333.02602
333.07868
333.07826
333.07734
333.07597
333.07413
333.07183
333.06904
333.06568
333.06166
333.05671
333.05035
333.04138
333.02545
333.07811
333.07769
333.07678
333.0754
333.07357
333.07127
333.06847
333.06512
333.06109
333.05614
333.04978
333.04081
333.02487
333.07755
333.07713
333.07621
333.07484
333.073
333.0707
333.0679
333.06455
333.06052
333.05557
333.04921
333.04024
333.0243
333.07698
333.07656
333.07565
333.07427
333.07244
333.07013
333.06734
333.06398
333.05995
333.05501
333.04864
333.03967
333.02372
333.07642
333.076
333.07508
333.07371
333.07187
333.06957
333.06677
333.06342
333.05939
333.05444
333.04807
333.0391
333.02314
333.07585
333.07543
333.07452
333.07314
333.0713
333.069
333.0662
333.06285
333.05882
333.05387
333.0475
333.03853
333.02256
333.07528
333.07486
333.07395
333.07257
333.07074
333.06843
333.06564
333.06228
333.05825
333.0533
333.04693
333.03795
333.02198
333.07472
333.0743
333.07338
333.07201
333.07017
333.06787
333.06507
333.06172
333.05768
333.05273
333.04636
333.03738
333.0214
333.07415
333.07373
333.07282
333.07144
333.0696
333.0673
333.0645
333.06115
333.05711
333.05216
333.04579
333.0368
333.02081
333.07358
333.07316
333.07225
333.07087
333.06904
333.06673
333.06393
333.06058
333.05655
333.05159
333.04522
333.03623
333.02023
333.07302
333.07259
333.07168
333.0703
333.06847
333.06616
333.06336
333.06001
333.05598
333.05102
333.04465
333.03565
333.01964
333.07245
333.07203
333.07111
333.06974
333.0679
333.0656
333.0628
333.05944
333.05541
333.05045
333.04407
333.03507
333.01906
333.07188
333.07146
333.07055
333.06917
333.06733
333.06503
333.06223
333.05887
333.05484
333.04988
333.0435
333.0345
333.01847
333.07131
333.07089
333.06998
333.0686
333.06676
333.06446
333.06166
333.0583
333.05426
333.04931
333.04292
333.03392
333.01788
333.07074
333.07032
333.06941
333.06803
333.06619
333.06389
333.06109
333.05773
333.05369
333.04873
333.04235
333.03334
333.01729
333.07017
333.06975
333.06884
333.06746
333.06562
333.06332
333.06052
333.05716
333.05312
333.04816
333.04177
333.03275
333.0167
333.0696
333.06918
333.06827
333.06689
333.06505
333.06275
333.05995
333.05659
333.05255
333.04758
333.04119
333.03217
333.0161
333.06904
333.06861
333.0677
333.06632
333.06448
333.06218
333.05938
333.05602
333.05198
333.04701
333.04061
333.03159
333.01551
333.06847
333.06804
333.06713
333.06575
333.06391
333.06161
333.05881
333.05544
333.0514
333.04643
333.04004
333.031
333.01491
333.0679
333.06747
333.06656
333.06518
333.06334
333.06104
333.05823
333.05487
333.05083
333.04586
333.03946
333.03042
333.01431
333.06732
333.0669
333.06599
333.06461
333.06277
333.06047
333.05766
333.0543
333.05025
333.04528
333.03888
333.02983
333.01371
333.06675
333.06633
333.06542
333.06404
333.0622
333.05989
333.05709
333.05373
333.04968
333.0447
333.03829
333.02924
333.01311
333.06618
333.06576
333.06485
333.06347
333.06163
333.05932
333.05652
333.05315
333.0491
333.04412
333.03771
333.02865
333.0125
333.06561
333.06519
333.06428
333.0629
333.06106
333.05875
333.05594
333.05258
333.04853
333.04355
333.03713
333.02806
333.01189
333.06504
333.06462
333.06371
333.06233
333.06049
333.05818
333.05537
333.052
333.04795
333.04296
333.03654
333.02747
333.01129
333.06447
333.06405
333.06313
333.06175
333.05991
333.0576
333.05479
333.05143
333.04737
333.04238
333.03596
333.02687
333.01067
333.0639
333.06348
333.06256
333.06118
333.05934
333.05703
333.05422
333.05085
333.04679
333.0418
333.03537
333.02628
333.01006
333.06332
333.0629
333.06199
333.06061
333.05877
333.05645
333.05364
333.05027
333.04621
333.04122
333.03478
333.02568
333.00944
333.06275
333.06233
333.06142
333.06003
333.05819
333.05588
333.05307
333.04969
333.04563
333.04063
333.03419
333.02508
333.00882
333.06218
333.06176
333.06084
333.05946
333.05762
333.0553
333.05249
333.04912
333.04505
333.04005
333.0336
333.02448
333.0082
333.06161
333.06118
333.06027
333.05889
333.05704
333.05473
333.05191
333.04854
333.04447
333.03946
333.03301
333.02388
333.00758
333.06103
333.06061
333.05969
333.05831
333.05647
333.05415
333.05134
333.04796
333.04389
333.03888
333.03241
333.02327
333.00695
333.06046
333.06004
333.05912
333.05774
333.05589
333.05357
333.05076
333.04738
333.0433
333.03829
333.03182
333.02267
333.00632
333.05988
333.05946
333.05854
333.05716
333.05532
333.053
333.05018
333.04679
333.04272
333.0377
333.03122
333.02206
333.00568
333.05931
333.05889
333.05797
333.05659
333.05474
333.05242
333.0496
333.04621
333.04213
333.03711
333.03062
333.02145
333.00504
333.05873
333.05831
333.05739
333.05601
333.05416
333.05184
333.04902
333.04563
333.04154
333.03651
333.03002
333.02083
333.0044
333.05816
333.05774
333.05682
333.05543
333.05358
333.05126
333.04844
333.04504
333.04096
333.03592
333.02942
333.02022
333.00376
333.05758
333.05716
333.05624
333.05485
333.053
333.05068
333.04785
333.04446
333.04037
333.03533
333.02882
333.0196
333.00311
333.057
333.05658
333.05566
333.05428
333.05243
333.0501
333.04727
333.04387
333.03978
333.03473
333.02821
333.01898
333.00245
333.05643
333.056
333.05509
333.0537
333.05185
333.04952
333.04669
333.04328
333.03918
333.03413
333.0276
333.01835
333.00179
333.05585
333.05543
333.05451
333.05312
333.05126
333.04894
333.0461
333.0427
333.03859
333.03353
333.02699
333.01773
333.00113
333.05527
333.05485
333.05393
333.05254
333.05068
333.04835
333.04551
333.04211
333.038
333.03293
333.02638
333.0171
333.00046
333.05469
333.05427
333.05335
333.05196
333.0501
333.04777
333.04493
333.04152
333.0374
333.03232
333.02577
333.01646
332.99978
333.05411
333.05369
333.05277
333.05138
333.04952
333.04718
333.04434
333.04092
333.0368
333.03172
333.02515
333.01582
332.9991
333.05353
333.05311
333.05219
333.0508
333.04894
333.0466
333.04375
333.04033
333.0362
333.03111
333.02453
333.01518
332.99841
333.05295
333.05253
333.05161
333.05021
333.04835
333.04601
333.04316
333.03974
333.0356
333.0305
333.0239
333.01454
332.99772
333.05237
333.05195
333.05102
333.04963
333.04777
333.04542
333.04257
333.03914
333.035
333.02989
333.02328
333.01389
332.99701
333.05179
333.05137
333.05044
333.04905
333.04718
333.04483
333.04198
333.03854
333.03439
333.02927
333.02265
333.01323
332.9963
333.05121
333.05078
333.04986
333.04846
333.04659
333.04424
333.04138
333.03794
333.03379
333.02866
333.02201
333.01257
332.99558
333.05063
333.0502
333.04927
333.04787
333.046
333.04365
333.04079
333.03734
333.03318
333.02804
333.02138
333.0119
332.99484
333.05004
333.04962
333.04869
333.04729
333.04541
333.04306
333.04019
333.03674
333.03257
333.02741
333.02073
333.01123
332.9941
333.04946
333.04903
333.0481
333.0467
333.04482
333.04247
333.03959
333.03613
333.03195
333.02679
333.02009
333.01055
332.99334
333.04887
333.04845
333.04752
333.04611
333.04423
333.04187
333.03899
333.03553
333.03134
333.02616
333.01943
333.00985
332.99256
333.04829
333.04786
333.04693
333.04552
333.04364
333.04127
333.03839
333.03492
333.03072
333.02552
333.01878
333.00915
332.99175
333.0477
333.04727
333.04634
333.04493
333.04305
333.04068
333.03778
333.0343
333.03009
333.02488
333.01811
333.00844
332.99092
333.04711
333.04668
333.04575
333.04434
333.04245
333.04008
333.03718
333.03369
333.02947
333.02424
333.01744
333.00771
332.99004
333.04653
333.0461
333.04516
333.04375
333.04186
333.03948
333.03657
333.03307
333.02884
333.02358
333.01675
333.00695
332.98907
)
;

boundaryField
{
    water_inlet
    {
        type            fixedValue;
        value           uniform 333.15;
    }
    water_outlet
    {
        type            zeroGradient;
    }
    water_wedge1
    {
        type            wedge;
    }
    water_wedge2
    {
        type            wedge;
    }
    water_to_rock
    {
        type            compressible::turbulentTemperatureRadCoupledMixed;
        refValue        nonuniform List<scalar> 
200
(
315.4206
319.01472
320.7979
321.87177
322.60887
323.15897
323.5927
323.94799
324.24726
324.50479
324.73013
324.92993
325.10898
325.27083
325.41819
325.55317
325.67742
325.79231
325.89895
325.99826
326.091
326.17783
326.25931
326.33591
326.40804
326.47608
326.54032
326.60106
326.65853
326.71296
326.76454
326.81346
326.85987
326.90392
326.94574
326.98546
327.0232
327.05904
327.0931
327.12546
327.15621
327.18542
327.21318
327.23954
327.26458
327.28836
327.31093
327.33236
327.35269
327.37197
327.39026
327.40759
327.42401
327.43956
327.45428
327.46821
327.48138
327.49383
327.50559
327.51668
327.52715
327.53701
327.54629
327.55503
327.56324
327.57095
327.57818
327.58496
327.59129
327.59722
327.60274
327.60789
327.61268
327.61713
327.62125
327.62505
327.62857
327.6318
327.63476
327.63747
327.63993
327.64217
327.64419
327.646
327.64761
327.64904
327.65029
327.65137
327.65229
327.65306
327.65369
327.65418
327.65454
327.65478
327.6549
327.65491
327.65482
327.65462
327.65433
327.65395
327.65348
327.65293
327.65231
327.65161
327.65083
327.64999
327.64908
327.64811
327.64708
327.64599
327.64484
327.64363
327.64238
327.64107
327.63971
327.6383
327.63684
327.63533
327.63377
327.63216
327.6305
327.6288
327.62705
327.62524
327.62339
327.62149
327.61953
327.61753
327.61546
327.61334
327.61117
327.60893
327.60663
327.60427
327.60184
327.59935
327.59678
327.59413
327.59141
327.58861
327.58572
327.58274
327.57967
327.5765
327.57322
327.56984
327.56634
327.56273
327.55899
327.55512
327.55111
327.54696
327.54266
327.53819
327.53356
327.52876
327.52377
327.51858
327.51319
327.50759
327.50176
327.49569
327.48937
327.48279
327.47593
327.46879
327.46133
327.45355
327.44544
327.43696
327.4281
327.41884
327.40915
327.39902
327.3884
327.37728
327.36562
327.35339
327.34053
327.32702
327.3128
327.29782
327.28201
327.2653
327.24761
327.22883
327.20887
327.18757
327.16477
327.14026
327.11378
327.08498
327.05341
327.01842
326.97908
326.93391
326.88037
326.81348
326.72169
326.57266
)
;
        refGradient     uniform 0;
        valueFraction   nonuniform List<scalar> 
200
(
0.021313587
0.018349032
0.017286587
0.016999676
0.017072311
0.017312679
0.017619574
0.017934173
0.018220835
0.018459614
0.01864309
0.018773723
0.018860286
0.018913928
0.018945118
0.018962099
0.018970608
0.018974281
0.018975235
0.018974594
0.018972889
0.01897032
0.018966927
0.018962686
0.018957559
0.018951519
0.01894456
0.018936694
0.018927949
0.018918366
0.018907994
0.018896903
0.018885173
0.018872882
0.018860098
0.018846868
0.018833224
0.018819204
0.018804843
0.018790181
0.018775253
0.018760098
0.018744752
0.018729251
0.018713631
0.018697926
0.018682171
0.018666398
0.018650643
0.018634938
0.018619319
0.018603823
0.018588486
0.018573349
0.018558455
0.018543848
0.018529578
0.018515694
0.018502248
0.018489294
0.018476882
0.018465064
0.018453884
0.018443386
0.018433604
0.018424565
0.01841629
0.018408788
0.018402063
0.018396108
0.018390909
0.018386444
0.018382686
0.018379602
0.018377154
0.018375302
0.018374002
0.018373212
0.018372886
0.01837298
0.01837345