/*--------------------------------*- C++ -*----------------------------------*\
| =========                 |                                                 |
| \\      /  F ield         | OpenFOAM: The Open Source CFD Toolbox           |
|  \\    /   O peration     | Version:  2506                                  |
|   \\  /    A nd           | Website:  www.openfoam.com                      |
|    \\/     M anipulation  |                                                 |
\*---------------------------------------------------------------------------*/
FoamFile
{
    version     2.0;
    format      ascii;
    arch        "LSB;label=32;scalar=64";
    class       volVectorField;
    location    "2000/water";
    object      U;
}
// * * * * * * * * * * * * * * * * * * * * * * * * * * * * * * * * * * * * * //

dimensions      [0 1 -1 0 0 0 0];

internalField   nonuniform List<vector> 
2600
(
(0.2509291 -6.6886033e-05 3.5789439e-20)
(0.25093316 -0.00014739222 -2.5152984e-18)
(0.25094167 -0.00023143146 -7.2778776e-19)
(0.2509543 -0.00031980044 -7.1249933e-19)
(0.25097092 -0.0004082391 2.0589463e-19)
(0.25099124 -0.00049673665 -1.777835e-20)
(0.25101467 -0.0005856609 1.2766871e-19)
(0.25103908 -0.00067482201 -1.6427413e-19)
(0.25105541 -0.00075972197 -1.8591849e-19)
(0.25102652 -0.00083857781 -2.4485556e-19)
(0.25079811 -0.00098580402 -1.8994346e-19)
(0.24954942 -0.001485464 -1.9832354e-19)
(0.2411817 0.0014904344 -6.655178e-19)
(0.25290631 -5.2391824e-05 -1.3046652e-18)
(0.25291356 -0.00012867936 -2.8478287e-18)
(0.25292967 -0.00020232594 -9.6821248e-19)
(0.25295369 -0.00027812692 -6.6776766e-19)
(0.25298503 -0.00035187867 1.3598534e-19)
(0.25302278 -0.00042368282 2.1505589e-19)
(0.25306456 -0.0004936843 1.0565426e-19)
(0.25310219 -0.00056251339 -2.6140582e-19)
(0.25310631 -0.00062550536 -2.975481e-19)
(0.25297401 -0.00066089399 -2.8788499e-19)
(0.25231856 -0.00068576655 -2.5166704e-19)
(0.24919071 -0.0011507908 -4.3576039e-19)
(0.23317376 0.00055016191 -7.0563536e-19)
(0.25485703 -5.0201261e-05 -6.956311e-19)
(0.25486389 -0.00012463928 -1.5648297e-18)
(0.2548791 -0.00019574884 -1.6027095e-18)
(0.2549016 -0.00026956178 -1.4834187e-19)
(0.25493052 -0.00034177627 8.6121671e-20)
(0.25496396 -0.00041257844 3.5678694e-19)
(0.25499618 -0.00048173979 1.7081687e-19)
(0.25500857 -0.00054996705 2.7925669e-19)
(0.25494172 -0.00061637669 1.8694004e-19)
(0.2546073 -0.00066024169 -1.3081005e-19)
(0.25332071 -0.00063871076 -1.6167327e-19)
(0.2478214 -0.00092597142 -5.2566791e-19)
(0.22526486 0.00012340436 -6.5720708e-19)
(0.25664521 -4.9743849e-05 2.2890945e-18)
(0.25665224 -0.00012488064 6.9118425e-19)
(0.2566674 -0.00019721364 6.6941822e-20)
(0.2566896 -0.00027206981 1.7568778e-19)
(0.25671747 -0.00034495172 3.5967722e-20)
(0.25674738 -0.00041609227 6.3106941e-20)
(0.25676826 -0.0004848948 7.7905587e-20)
(0.25674667 -0.00055096518 2.6243401e-19)
(0.25658539 -0.00061444887 -1.2733954e-20)
(0.2559957 -0.0006636637 -1.8646812e-19)
(0.2539403 -0.00063277351 -1.6790635e-19)
(0.24583249 -0.00077044467 -4.478766e-19)
(0.21800982 -5.9385922e-05 -6.8128876e-19)
(0.25841323 -4.8556774e-05 5.9478097e-19)
(0.2584204 -0.00012219546 1.0573276e-18)
(0.25843571 -0.00019301892 7.0630687e-19)
(0.25845781 -0.00026625064 -2.704997e-19)
(0.25848442 -0.00033744492 -1.6190503e-19)
(0.25850914 -0.00040689654 -1.8059429e-20)
(0.25851346 -0.00047389151 -4.9434957e-20)
(0.25844542 -0.0005370587 -6.258175e-20)
(0.25816424 -0.00059536593 8.1943033e-20)
(0.25726648 -0.00064373127 -4.5302747e-20)
(0.25431322 -0.0006144232 -1.6197254e-19)
(0.24352458 -0.00065114414 -3.06961e-19)
(0.21163262 -0.00012321892 -6.4323712e-19)
(0.26015467 -4.7093439e-05 2.1306395e-18)
(0.26016187 -0.0001185153 5.4332824e-19)
(0.26017704 -0.0001870764 5.3610807e-19)
(0.2601984 -0.00025799462 4.421595e-19)
(0.26022227 -0.00032687702 2.3414788e-19)
(0.26023853 -0.0003939878 1.2966053e-19)
(0.26021927 -0.00045855461 1.4886637e-19)
(0.26009115 -0.00051865148 -9.3605414e-21)
(0.25966515 -0.00057157394 -1.0900829e-20)
(0.2584067 -0.0006148087 1.6842928e-20)
(0.25443266 -0.00058544056 -1.7907705e-19)
(0.24102793 -0.0005571206 -1.0694839e-19)
(0.20612335 -0.00013293671 -4.207131e-19)
(0.26183846 -4.5390267e-05 1.4458647e-18)
(0.26184561 -0.00011435405 5.7178995e-19)
(0.26186042 -0.00018050108 1.0905398e-18)
(0.26188043 -0.00024892327 1.1326404e-18)
(0.26190008 -0.00031528561 3.4960085e-19)
(0.26190445 -0.00037977026 1.5247406e-19)
(0.26185458 -0.00044151446 2.2528446e-19)
(0.2616533 -0.00049832849 -1.02066e-19)
(0.26105826 -0.00054618084 -3.7028083e-19)
(0.25938354 -0.00058222647 -2.240307e-20)
(0.25426994 -0.00054801504 -1.2182545e-19)
(0.23842933 -0.00047868139 -1.1081978e-19)
(0.20141646 -0.00011963306 -3.7733094e-19)
(0.26345768 -4.3664881e-05 -2.6202064e-18)
(0.26346469 -0.00011008557 -2.2498372e-19)
(0.26347885 -0.00017377013 -3.8369727e-19)
(0.26349678 -0.00023963045 3.1614879e-20)
(0.26351051 -0.00030340684 1.8079221e-20)
(0.26349932 -0.00036518044 2.7204354e-19)
(0.26341166 -0.00042394823 5.2566904e-20)
(0.2631242 -0.00047735793 -3.1894942e-20)
(0.26233468 -0.00052050214 6.2826767e-20)
(0.26018092 -0.00054846095 -1.94106e-20)
(0.25381559 -0.00050481858 -3.2022271e-20)
(0.23581666 -0.00040978299 1.2348694e-20)
(0.19745226 -9.8494616e-05 -3.7305041e-19)
(0.26501552 -4.2046877e-05 1.153807e-18)
(0.26502225 -0.00010599907 1.940686e-18)
(0.26503542 -0.00016730209 8.097638e-19)
(0.26505044 -0.00023067618 1.1615268e-18)
(0.26505633 -0.00029193976 4.6153162e-19)
(0.26502564 -0.00035106733 1.3767469e-19)
(0.26489279 -0.0004068816 -3.6872936e-20)
(0.26450568 -0.00045685738 -4.8705059e-20)
(0.26349313 -0.00049549056 -3.0232619e-19)
(0.26078727 -0.00051473411 -5.285185e-20)
(0.25307513 -0.00045847926 -6.6168812e-20)
(0.23327192 -0.00034737981 9.0923794e-20)
(0.19416843 -7.6932879e-05 -1.0038932e-19)
(0.2665165 -4.057706e-05 4.2683247e-19)
(0.26652283 -0.00010224007 1.0778825e-18)
(0.26653459 -0.00016134012 1.0647857e-18)
(0.26654572 -0.0002224043 1.0978687e-18)
(0.26654166 -0.00028132047 5.4265415e-19)
(0.26648729 -0.00033795568 -3.4823752e-20)
(0.26630156 -0.0003909415 -1.3170865e-20)
(0.26580019 -0.00043752442 -6.0926537e-20)
(0.26453091 -0.00047164498 -2.3748882e-19)
(0.26118849 -0.00048140525 -2.6327617e-20)
(0.25206937 -0.00041120617 -9.4563488e-20)
(0.23086314 -0.00029047959 -2.5660911e-19)
(0.19149027 -5.8333255e-05 -2.3051053e-19)
(0.26796591 -3.9276697e-05 -2.4718491e-18)
(0.26797166 -9.8886215e-05 -7.4476302e-19)
(0.26798155 -0.00015601485 -1.0332841e-19)
(0.26798768 -0.00021499986 6.3535842e-19)
(0.26797137 -0.00027178437 4.6870335e-19)
(0.26788889 -0.00032612645 4.5466606e-20)
(0.26764202 -0.00037645613 -6.5865675e-21)
(0.26700984 -0.00041972353 -7.8070639e-20)
(0.26544297 -0.00044912486 -1.4176214e-19)
(0.26137042 -0.00044842588 -1.0437617e-19)
(0.25083979 -0.00036475941 -7.5560656e-20)
(0.22864123 -0.00023936528 -4.6580659e-19)
(0.18933265 -4.3854023e-05 -3.7157247e-19)
(0.26936985 -3.8151201e-05 -4.1915346e-19)
(0.26937484 -9.5961771e-05 -3.6043969e-19)
(0.26938229 -0.00015136516 2.2172229e-19)
(0.2693822 -0.00020851723 6.6192106e-19)
(0.26935114 -0.00026339986 3.2802578e-19)
(0.26923575 -0.00031565718 1.774092e-19)
(0.26891866 -0.00036350366 -4.5087658e-20)
(0.26813622 -0.00040351927 -5.3155473e-20)
(0.26622207 -0.00042777198 -1.1633022e-19)
(0.26132397 -0.00041560855 -8.3356784e-20)
(0.24944814 -0.00032041762 -1.0172785e-19)
(0.22663743 -0.00019477817 -2.9700799e-19)
(0.18760708 -3.3365971e-05 -3.7131877e-19)
(0.27073452 -3.7186892e-05 1.3367561e-19)
(0.27073851 -9.3441594e-05 -8.2328732e-19)
(0.27074291 -0.00014735094 1.5778699e-19)
(0.27073523 -0.00020290124 1.3049795e-19)
(0.27068668 -0.00025609589 -4.3195442e-20)
(0.27053315 -0.00030645578 1.6235767e-19)
(0.27013553 -0.00035195662 5.1906742e-20)
(0.26917943 -0.00038871662 4.3614323e-20)
(0.26685881 -0.00040716161 -1.4958412e-20)
(0.26105041 -0.00038281108 -1.1183756e-19)
(0.24796793 -0.00027903903 -1.5807168e-19)
(0.2248628 -0.00015723519 -4.0025976e-19)
(0.18622942 -2.608962e-05 -3.1711144e-19)
(0.27206549 -3.6358598e-05 4.7802945e-19)
(0.27206822 -9.1270024e-05 -6.7302232e-19)
(0.27206885 -0.00014388431 -1.4544394e-19)
(0.27205207 -0.00019803069 3.4388751e-19)
(0.27198302 -0.00024971698 -4.1051499e-19)
(0.27178551 -0.0002983267 2.4894425e-19)
(0.27129541 -0.00034156266 5.6526805e-19)
(0.27013718 -0.00037494839 4.6200848e-20)
(0.26734241 -0.00038673535 -3.4418458e-20)
(0.2605654 -0.00035005845 -2.2122156e-19)
(0.24647172 -0.00024119444 -2.5007212e-19)
(0.22331131 -0.00012666963 -3.3766139e-19)
(0.18512583 -2.107637e-05 -3.7995594e-19)
(0.27336737 -3.5638787e-05 1.4933503e-18)
(0.27336856 -8.938186e-05 8.8747489e-20)
(0.27336463 -0.00014086217 8.0217858e-19)
(0.27333706 -0.00019376295 -7.4057341e-20)
(0.27324415 -0.00024407934 -1.8712924e-19)
(0.27299604 -0.00029103798 2.991608e-19)
(0.27239931 -0.00033202382 3.139437e-19)
(0.27100443 -0.00036176734 -2.3220569e-20)
(0.26766283 -0.00036596046 1.3463564e-19)
(0.25989992 -0.00031757793 -1.8335483e-19)
(0.24502002 -0.00020725745 -5.1836995e-19)
(0.22196569 -0.00010242448 -1.1188556e-19)
(0.18423545 -1.7507118e-05 -1.5388958e-19)
(0.27464382 -3.5002894e-05 1.3225651e-18)
(0.27464313 -8.7716016e-05 3.2676145e-20)
(0.27463375 -0.00013818758 7.6791492e-19)
(0.2745935 -0.00018996324 2.0859441e-19)
(0.27447297 -0.00023900779 5.9171374e-19)
(0.27416661 -0.00028436529 1.0481145e-19)
(0.27344636 -0.00032304577 -1.5655072e-19)
(0.27177364 -0.00034871442 -1.6870746e-19)
(0.26781391 -0.00034445792 -2.2500819e-19)
(0.25909705 -0.00028576382 -1.6864901e-19)
(0.2436552 -0.00017740821 -2.8192009e-19)
(0.22080343 -8.3473062e-05 -3.3203848e-19)
(0.18351045 -1.4804616e-05 4.8945451e-20)
(0.27589768 -3.4431106e-05 7.4828851e-19)
(0.27589473 -8.6221418e-05 6.5235345e-19)
(0.27587888 -0.00013577914 -9.0327586e-21)
(0.27582384 -0.00018651757 3.3380081e-19)
(0.27567139 -0.00023435206 6.8470375e-19)
(0.27529788 -0.00027811161 7.8991947e-20)
(0.27443375 -0.00031435606 -1.2326815e-19)
(0.27243556 -0.00033536392 -4.5252604e-20)
(0.26779662 -0.00032206948 -1.8770245e-19)
(0.25820551 -0.00025510598 -2.0227908e-19)
(0.24240122 -0.00015160163 -7.4266907e-20)
(0.21980119 -6.8691004e-05 -2.5879487e-19)
(0.18291435 -1.2618554e-05 -2.9322141e-19)
(0.27713109 -3.3908297e-05 -5.6639668e-19)
(0.27712546 -8.4858001e-05 6.7019723e-19)
(0.27710201 -0.00013357264 -1.9594506e-19)
(0.27702977 -0.00018333502 1.7005376e-19)
(0.27684047 -0.00022998947 3.6270587e-19)
(0.2763893 -0.00027211088 4.1023625e-20)
(0.27535691 -0.00030570399 -1.6360425e-19)
(0.2729805 -0.00032135787 4.9339031e-20)
(0.26762111 -0.00029886295 -1.2381136e-19)
(0.25727242 -0.00022610441 -7.9509326e-20)
(0.24126718 -0.00012956886 -2.5947813e-19)
(0.21893722 -5.7057436e-05 -3.6911715e-19)
(0.18241982 -1.0759084e-05 -2.4563993e-19)
(0.27834572 -3.3423243e-05 3.8475299e-20)
(0.27833694 -8.3595438e-05 -4.6459023e-20)
(0.2783046 -0.00013151911 -1.3243464e-19)
(0.27821241 -0.00018034488 6.4121179e-19)
(0.27798052 -0.00022582105 -2.9591293e-19)
(0.27743925 -0.00026622306 -4.5577781e-20)
(0.27620962 -0.00029685485 3.5945067e-19)
(0.27340008 -0.00030643644 2.7253763e-20)
(0.26730692 -0.00027509384 -2.4832052e-20)
(0.25633756 -0.0001991843 7.9653024e-20)
(0.24025214 -0.0001108758 -2.1903111e-20)
(0.21819234 -4.7749368e-05 -1.676518e-19)
(0.18200662 -9.1303531e-06 -2.8613891e-19)
(0.27954284 -3.2967675e-05 8.6516712e-19)
(0.27953036 -8.2411064e-05 1.5785155e-19)
(0.27948767 -0.00012958149 8.957266e-19)
(0.27937237 -0.00017749197 1.7179457e-19)
(0.27909121 -0.00022176546 -5.7300439e-20)
(0.27844503 -0.00026032527 5.7707208e-20)
(0.27698441 -0.00028758731 4.5675403e-19)
(0.27368915 -0.00029046172 1.3366306e-19)
(0.26688073 -0.00025114512 3.1944629e-19)
(0.25543062 -0.00017462896 2.5870041e-19)
(0.2393495 -9.5013857e-05 1.3811709e-19)
(0.21755 -4.015231e-05 2.0630834e-19)
(0.18165972 -7.6839584e-06 -8.1416509e-20)
(0.28072346 -3.253541e-05 1.019378e-18)
(0.28070667 -8.1287794e-05 1.0476377e-18)
(0.28065194 -0.00012773124 6.6317675e-19)
(0.28050986 -0.0001747318 3.429829e-19)
(0.28017156 -0.00021775304 1.6462849e-19)
(0.27940289 -0.00025430188 2.3367593e-19)
(0.27767312 -0.00027769789 3.5397765e-19)
(0.27384765 -0.00027342828 4.0315511e-19)
(0.26637281 -0.00022746054 2.1083544e-19)
(0.2545711 -0.00015254851 -2.8767056e-19)
(0.23855012 -8.1484034e-05 -2.9724532e-19)
(0.21699614 -3.3827437e-05 -4.4503173e-20)
(0.18136794 -6.3925394e-06 1.2027105e-19)
(0.28188837 -3.2121656e-05 2.1354331e-18)
(0.28186655 -8.0212343e-05 1.6801888e-18)
(0.28179785 -0.00012594549 -1.3176981e-19)
(0.28162471 -0.00017202641 4.3796934e-19)
(0.28121999 -0.00021372065 2.8410608e-19)
(0.28030804 -0.00024803604 1.0455814e-19)
(0.27826773 -0.00026701328 5.4530913e-20)
(0.27388156 -0.00025545692 1.3314568e-19)
(0.26581311 -0.00020447967 1.1807181e-19)
(0.25377001 -0.00013289057 -4.7899466e-19)
(0.23784411 -6.9849924e-05 -3.0298167e-19)
(0.21651887 -2.8467157e-05 -2.4010405e-19)
(0.18112283 -5.2370945e-06 -5.2592711e-20)
(0.28303819 -3.1722486e-05 1.3372124e-18)
(0.28301052 -7.917385e-05 1.7560741e-18)
(0.28292559 -0.00012420469 2.5713019e-19)
(0.28271638 -0.00016934096 1.9991888e-20)
(0.2822343 -0.00020960734 7.2600322e-19)
(0.28115476 -0.00024140494 7.5602682e-20)
(0.27876144 -0.00025540748 -2.7207451e-19)
(0.27380292 -0.00023677356 1.4638602e-19)
(0.26522808 -0.00018258168 4.0478859e-20)
(0.25303215 -0.00011548282 4.4584304e-20)
(0.23722187 -5.9756963e-05 1.2249514e-20)
(0.21610816 -2.3855675e-05 -1.2709698e-19)
(0.18091788 -4.2018439e-06 5.1565706e-20)
(0.28417339 -3.1334452e-05 6.3491875e-19)
(0.28413893 -7.8162818e-05 9.4574715e-19)
(0.28403512 -0.00012249081 3.9085356e-19)
(0.28378396 -0.00016664114 4.2732879e-19)
(0.28321158 -0.0002053501 2.3679015e-19)
(0.28193659 -0.00023428041 2.1250307e-19)
(0.27914984 -0.00024281874 4.779965e-19)
(0.27362851 -0.00021767781 7.1539893e-19)
(0.26463906 -0.00016204558 1.4853199e-19)
(0.25235823 -0.00010008753 -2.5589966e-19)
(0.23667446 -5.0928434e-05 -4.5249602e-19)
(0.21575559 -1.9839554e-05 -2.5884419e-20)
(0.18074793 -3.2726376e-06 -1.5850231e-21)
(0.28529433 -3.0954306e-05 -3.2692706e-19)
(0.28525196 -7.7170337e-05 2.9933282e-19)
(0.28512619 -0.000120786 1.4110077e-18)
(0.28482614 -0.00016389138 2.054542e-19)
(0.28414822 -0.00020087986 1.0303043e-19)
(0.28264669 -0.00022653515 3.3155291e-19)
(0.27943202 -0.00022926076 4.1521875e-19)
(0.27337791 -0.00019850622 3.2373182e-19)
(0.26406181 -0.0001430334 1.5707744e-19)
(0.25174654 -8.6449681e-05 1.316106e-19)
(0.23619383 -4.3151082e-05 -2.6158873e-19)
(0.21545404 -1.6307482e-05 -6.514279e-20)
(0.18060883 -2.4367076e-06 4.3352245e-20)
(0.28640123 -3.0578785e-05 -4.421114e-19)
(0.28634965 -7.6187464e-05 2.1141435e-19)
(0.28619826 -0.00011907139 1.0482675e-18)
(0.28584114 -0.00016105348 -2.07089e-19)
(0.28503985 -0.00019611847 4.5155824e-19)
(0.2832784 -0.00021805401 3.1909418e-19)
(0.27961117 -0.00021482471 -2.2357785e-20)
(0.27307114 -0.00017959427 8.6110325e-20)
(0.26350715 -0.00012559657 -2.6223257e-20)
(0.25119402 -7.4328965e-05 3.5537732e-19)
(0.23577276 -3.6259371e-05 1.8294454e-19)
(0.21519748 -1.3176837e-05 1.8044264e-20)
(0.18049716 -1.682758e-06 1.6059805e-19)
(0.28749419 -3.0204452e-05 1.5560042e-18)
(0.28743185 -7.5204721e-05 1.3985534e-18)
(0.28725056 -0.00011732616 5.9257684e-20)
(0.28682673 -0.0001580853 2.1972747e-19)
(0.28588145 -0.00019097762 6.7391351e-19)
(0.28382593 -0.00020874813 3.3435559e-19)
(0.27969464 -0.00019967158 1.122155e-19)
(0.27272686 -0.00016124193 -1.24416e-20)
(0.26298189 -0.00010969946 -1.2459223e-20)
(0.25069697 -6.3515017e-05 -1.4842253e-19)
(0.23540492 -3.0122541e-05 2.3312455e-19)
(0.21498079 -1.0384801e-05 -1.7373844e-20)
(0.18041 -1.001002e-06 -3.7413516e-20)
(0.28857317 -2.9827535e-05 2.8786781e-19)
(0.28849825 -7.4211612e-05 1.6650152e-18)
(0.28828196 -0.00011552671 2.8056795e-19)
(0.28778008 -0.00015493915 5.1468191e-19)
(0.28666738 -0.00018536089 7.1989594e-19)
(0.28428521 -0.00019856895 4.615409e-19)
(0.27969326 -0.00018401637 1.7367678e-19)
(0.27236107 -0.0001436879 2.1141844e-19)
(0.26248991 -9.5249862e-05 1.8699915e-19)
(0.25025143 -5.383055e-05 1.8562845e-19)
(0.23508472 -2.463527e-05 3.4107247e-19)
(0.21479959 -7.8824882e-06 -5.3041719e-20)
(0.18034487 -3.8307901e-07 2.4853036e-20)
(0.28963798 -2.944375e-05 1.1017197e-18)
(0.28954832 -7.3196107e-05 -1.8226357e-20)
(0.28929102 -0.00011364594 6.2997894e-19)
(0.2886978 -0.00015155982 9.0555987e-19)
(0.28739174 -0.00017916927 1.5884632e-19)
(0.28465455 -0.00018751865 3.7224603e-19)
(0.27962017 -0.00016810641 6.2168688e-19)
(0.2719867 -0.00012709647 7.2644736e-19)
(0.26203302 -8.2127517e-05 2.0849392e-19)
(0.24985346 -4.5128129e-05 -2.2628099e-19)
(0.23480728 -1.9711264e-05 -3.8368636e-19)
(0.21465012 -5.6309912e-06 -3.6510597e-21)
(0.18029962 1.781286e-07 -1.1743119e-20)
(0.29068824 -2.9047997e-05 2.4476332e-18)
(0.29058125 -7.2143822e-05 -1.9554014e-19)
(0.29027586 -0.00011165221 1.6955348e-18)
(0.28957586 -0.00014788248 7.9957454e-19)
(0.28804865 -0.00017230925 1.1783948e-19)
(0.28493523 -0.00017565385 2.0796144e-19)
(0.2794894 -0.00015219579 3.9731044e-19)
(0.2716136 -0.0001115566 2.6377549e-19)
(0.26161163 -7.0203558e-05 2.3453379e-19)
(0.24949925 -3.7283205e-05 4.9335011e-20)
(0.23456828 -1.527706e-05 -1.4628479e-19)
(0.21452909 -3.5978757e-06 7.1230493e-20)
(0.18027234 6.8891516e-07 -6.3335513e-20)
(0.29172336 -2.8634281e-05 -1.487666e-18)
(0.291596 -7.1037636e-05 2.1304933e-19)
(0.29123415 -0.00010950892 1.2389567e-18)
(0.29040962 -0.00014383257 3.4372891e-19)
(0.28863287 -0.00016470429 6.8005775e-19)
(0.28513156 -0.00016308395 2.4289155e-19)
(0.27931466 -0.00013652205 5.8143543e-20)
(0.27124896 -9.7093552e-05 1.6357535e-19)
(0.26122524 -5.9353645e-05 1.4157699e-19)
(0.24918522 -3.0190174e-05 5.2386695e-19)
(0.23436395 -1.12703e-05 4.3776774e-19)
(0.2144337 -1.7305519e-06 5.5900323e-20)
(0.18026136 1.1761545e-06 1.0077397e-19)
(0.29274252 -2.8196035e-05 -6.2734715e-19)
(0.29259116 -6.9858461e-05 2.2757235e-18)
(0.29216305 -0.00010717577 -3.1999872e-19)
(0.29119393 -0.00013933085 3.5025812e-19)
(0.28914031 -0.00015631032 6.2873346e-19)
(0.28525057 -0.00014996782 2.8187835e-19)
(0.27910837 -0.00012129297 5.4720817e-20)
(0.2708978 -8.369284e-05 9.5577814e-20)
(0.26087272 -4.9471599e-05 -7.3122064e-21)
(0.24890802 -2.3766771e-05 2.2362857e-20)
(0.23419085 -7.6476568e-06 1.4401292e-19)
(0.21436056 -1.6259901e-08 6.0507936e-20)
(0.18026627 1.6403948e-06 1.8720472e-20)
(0.2937446 -2.7725099e-05 2.2628326e-18)
(0.29356496 -6.858319e-05 1.6275565e-18)
(0.29305914 -0.00010460504 -2.5762822e-19)
(0.29192334 -0.00013429445 3.4347954e-19)
(0.28956868 -0.00014712077 2.7530327e-19)
(0.2853013 -0.00013649478 4.300632e-19)
(0.27888121 -0.00010666836 -5.0591506e-21)
(0.27056351 -7.1310465e-05 2.6175156e-19)
(0.26055265 -4.0462886e-05 1.698538e-19)
(0.24866458 -1.7940249e-05 5.5515056e-20)
(0.23404606 -4.3539033e-06 1.5711419e-19)
(0.21430781 1.5374059e-06 9.9386348e-20)
(0.18028522 2.0563863e-06 6.2863162e-20)
(0.29472815 -2.7211026e-05 3.5803821e-19)
(0.29451518 -6.7183246e-05 1.1635067e-19)
(0.29391842 -0.00010173906 1.0507297e-18)
(0.29259237 -0.00012864184 7.5935876e-19)
(0.28991788 -0.00013716948 -6.2070095e-20)
(0.28529395 -0.0001228645 4.8093311e-19)
(0.27864192 -9.2752913e-05 9.9830885e-19)
(0.27024822 -5.988243e-05 7.1981461e-19)
(0.26026336 -3.2238653e-05 2.3187507e-19)
(0.24845204 -1.2642369e-05 -1.5631933e-19)
(0.23392646 -1.3358769e-06 -1.0925989e-19)
(0.21427448 2.9561779e-06 6.9640817e-20)
(0.18031663 2.4263109e-06 3.9108295e-20)
(0.29569132 -2.6641403e-05 6.6491024e-19)
(0.2954391 -6.5625548e-05 6.3189996e-19)
(0.29473631 -9.8512683e-05 1.6273232e-18)
(0.29319592 -0.00012230569 7.3294375e-19)
(0.29019018 -0.00012653596 2.6652429e-19)
(0.2852389 -0.00010927514 1.7232622e-19)
(0.27839743 -7.9607249e-05 5.9956233e-19)
(0.26995312 -4.9342213e-05 3.7164167e-20)
(0.26000309 -2.4722166e-05 2.5458428e-19)
(0.24826773 -7.8150825e-06 4.7086677e-19)
(0.23382955 1.4151549e-06 -3.0509577e-21)
(0.21425921 4.2390827e-06 1.5467479e-19)
(0.18035932 2.7544341e-06 8.5170637e-20)
(0.29663173 -2.6001182e-05 7.065886e-19)
(0.29633339 -6.3871156e-05 4.599396e-19)
(0.29550768 -9.4853893e-05 9.7357546e-19)
(0.29372976 -0.00011524119 2.6909557e-19)
(0.29039011 -0.00011533897 7.5892609e-19)
(0.28514604 -9.5905373e-05 4.3108657e-19)
(0.27815305 -6.7254127e-05 2.685257e-21)
(0.26967872 -3.9623321e-05 3.7675808e-19)
(0.25977003 -1.7841845e-05 4.9665356e-19)
(0.24810923 -3.3839589e-06 6.1569853e-19)
(0.23375398 3.9312113e-06 5.2313925e-19)
(0.21425996 5.3906131e-06 1.4469302e-19)
(0.18041214 3.0443399e-06 2.125926e-19)
(0.29754645 -2.527239e-05 1.4286318e-18)
(0.29719411 -6.187445e-05 2.1867924e-18)
(0.29622706 -9.0687757e-05 -3.6553708e-20)
(0.29419101 -0.00010743479 8.7853401e-20)
(0.29052399 -0.00010372736 7.2885162e-19)
(0.28502427 -8.2903356e-05 5.2462027e-19)
(0.27791277 -5.5688925e-05 2.1344916e-19)
(0.26942499 -3.0662221e-05 5.9274233e-19)
(0.25956226 -1.1539671e-05 4.2223422e-19)
(0.24797362 6.7590465e-07 3.8566285e-21)
(0.23369893 6.2277255e-06 2.5935183e-19)
(0.21427538 6.4296387e-06 5.4024688e-20)
(0.18047413 3.3030867e-06 1.9637739e-20)
(0.29843186 -2.4434089e-05 4.3795466e-19)
(0.29801658 -5.9582978e-05 9.6261577e-19)
(0.29688883 -8.5943391e-05 -8.3344354e-21)
(0.29457851 -9.8910838e-05 1.8819122e-19)
(0.29059935 -9.1868423e-05 4.4564806e-19)
(0.28488126 -7.0382614e-05 4.2599161e-19)
(0.27767954 -4.4890673e-05 2.263341e-19)
(0.26919163 -2.2395836e-05 3.4172892e-19)
(0.25937815 -5.7364101e-06 3.3856931e-19)
(0.24785972 4.3904893e-06 2.6752745e-19)
(0.2336621 8.3016003e-06 1.890205e-20)
(0.21430404 7.3666997e-06 9.3599633e-20)
(0.18054443 3.5354648e-06 4.6276025e-20)
(0.29928359 -2.3462152e-05 -7.3918323e-19)
(0.29879547 -5.6937588e-05 -8.7596536e-19)
(0.29748763 -8.0561615e-05 1.2661805e-19)
(0.29489309 -8.973242e-05 1.08202e-18)
(0.29062422 -7.9932331e-05 -4.4529293e-19)
(0.28472341 -5.8420094e-05 3.2171448e-19)
(0.27745536 -3.4827522e-05 1.010509e-18)
(0.26897782 -1.4770399e-05 5.7618287e-19)
(0.25921519 -3.9178994e-07 1.7717532e-19)
(0.24776702 7.7920521e-06 -1.3523715e-19)
(0.23364198 1.0181107e-05 -3.1681736e-19)
(0.21434474 8.2147653e-06 7.5760932e-20)
(0.18062225 3.7449978e-06 2.218863e-20)
(0.30009637 -2.2329729e-05 -5.3303436e-20)
(0.29952479 -5.3875494e-05 1.284993e-18)
(0.29801875 -7.4505248e-05 6.7206686e-19)
(0.29513749 -7.9999943e-05 9.9203293e-19)
(0.29060659 -6.8080573e-05 6.3846656e-20)
(0.28455591 -4.7062474e-05 8.9062859e-21)
(0.27724164 -2.5459221e-05 3.6087571e-19)
(0.2687829 -7.7156661e-06 -6.242751e-20)
(0.25907248 4.5153942e-06 -2.4984772e-19)
(0.24769347 1.0881386e-05 -2.3439759e-19)
(0.23363709 1.1884866e-05 -2.7519593e-19)
(0.21439637 8.9837452e-06 -8.1229455e-20)
(0.1807069 3.9343491e-06 -1.3818337e-19)
(0.30086402 -2.1007835e-05 7.4395237e-20)
(0.30019808 -5.0335133e-05 2.9641149e-18)
(0.29847858 -6.776749e-05 1.5819567e-18)
(0.29531607 -6.9843609e-05 -5.1532944e-19)
(0.29055391 -5.6454412e-05 1.008691e-18)
(0.28438287 -3.6332013e-05 4.4434804e-19)
(0.27703906 -1.6748252e-05 -2.89953e-19)
(0.2686053 -1.1875155e-06 -6.1412172e-19)
(0.25894976 9.0213467e-06 -2.162511e-19)
(0.24763751 1.3689804e-05 1.6632504e-19)
(0.23364609 1.3431094e-05 1.3916603e-19)
(0.21445793 9.6806838e-06 -3.0265863e-19)
(0.18079772 4.1050196e-06 -1.4844316e-19)
(0.30157943 -1.9467189e-05 1.575532e-18)
(0.30080863 -4.6264333e-05 2.6373848e-18)
(0.29886499 -6.0378819e-05 8.1786575e-19)
(0.29543444 -5.9413943e-05 -1.2533405e-19)
(0.29047287 -4.5169359e-05 5.5400189e-19)
(0.28420752 -2.6229146e-05 5.6388459e-19)
(0.27684812 -8.6362631e-06 1.8366873e-19)
(0.26844451 4.8386508e-06 -3.5469161e-19)
(0.25884557 1.3135772e-05 1.4632099e-19)
(0.2475977 1.6244101e-05 6.7337411e-20)
(0.23366777 1.4835361e-05 1.5883023e-19)
(0.21452852 1.0311989e-05 -1.4270159e-19)
(0.18089414 4.2585322e-06 -1.7733502e-19)
(0.30223466 -1.7681567e-05 2.2770292e-18)
(0.3013499 -4.1630422e-05 1.2636422e-18)
(0.29917751 -5.240953e-05 7.3708778e-19)
(0.29549883 -4.8869414e-05 5.4904261e-19)
(0.29036918 -3.4313646e-05 1.4558611e-19)
(0.28403214 -1.6747508e-05 3.2949519e-19)
(0.27666826 -1.0891011e-06 5.4280876e-19)
(0.26830088 1.0390984e-05 2.1116565e-19)
(0.25875851 1.6888492e-05 7.0484819e-20)
(0.24757272 1.8568192e-05 -4.2049321e-19)
(0.23370102 1.6110028e-05 -5.6128401e-20)
(0.21460732 1.0882767e-05 -1.4967019e-19)
(0.18099561 4.3960765e-06 -1.9289599e-19)
(0.30282117 -1.5633388e-05 1.6063901e-18)
(0.30181594 -3.6431481e-05 2.1077498e-18)
(0.29941741 -4.396855e-05 7.1881074e-19)
(0.29551566 -3.8365462e-05 4.1196551e-19)
(0.2902477 -2.3945221e-05 1.1294871e-19)
(0.28385859 -7.8477237e-06 2.204316e-19)
(0.27649982 5.9141254e-06 4.1175483e-19)
(0.26817344 1.5479816e-05 1.6395108e-19)
(0.25868728 2.0310844e-05 3.2199173e-20)
(0.24756135 2.0682639e-05 -9.8852137e-20)
(0.23374484 1.7265707e-05 -1.5358822e-19)
(0.21469357 1.1397592e-05 -1.1741567e-19)
(0.18110164 4.518763e-06 -1.1142709e-19)
(0.30333026 -1.3320786e-05 1.3542505e-18)
(0.30220188 -3.0705581e-05 3.6577396e-18)
(0.29958744 -3.5196367e-05 6.3814149e-19)
(0.29549103 -2.8043643e-05 8.6146283e-19)
(0.29011218 -1.409984e-05 7.9638841e-19)
(0.28368733 4.8517408e-07 3.7897103e-19)
(0.276344 1.2388902e-05 -1.8559667e-19)
(0.26806118 2.0135131e-05 5.0566715e-20)
(0.2586307 2.3431357e-05 1.9709651e-19)
(0.24756246 2.2604571e-05 6.4330363e-19)
(0.23379832 1.8311477e-05 3.7280264e-19)
(0.21478659 1.1860469e-05 3.6373977e-19)
(0.18121176 4.6275494e-06 6.6251822e-20)
(0.30375373 -1.07649e-05 2.0482121e-18)
(0.30250438 -2.4536348e-05 1.4285162e-18)
(0.29969147 -2.6255589e-05 1.787865e-18)
(0.29543051 -1.8024196e-05 -3.6103682e-20)
(0.28996562 -4.7858129e-06 4.8619775e-19)
(0.28352015 8.2431195e-06 2.0628002e-19)
(0.27620025 1.8335884e-05 -2.1537379e-20)
(0.26796311 2.4389469e-05 1.9168547e-19)
(0.25858763 2.6274659e-05 2.3379336e-19)
(0.24757502 2.4348915e-05 3.7596466e-19)
(0.2338606 1.9255539e-05 2.7726479e-19)
(0.21488574 1.227509e-05 5.6844281e-20)
(0.18132555 4.7233447e-06 2.0308631e-20)
(0.30408466 -8.0145708e-06 9.3244633e-19)
(0.30272185 -1.8051785e-05 3.7902772e-19)
(0.29973407 -1.7315881e-05 1.2435404e-18)
(0.29533886 -8.3895826e-06 -9.8677335e-20)
(0.28980995 3.9789616e-06 1.5473672e-19)
(0.28335875 1.54245e-05 -4.052824e-20)
(0.27606809 2.3784736e-05 -9.8522302e-20)
(0.26787825 2.8272285e-05 1.7283479e-19)
(0.25855702 2.886017e-05 1.2246024e-19)
(0.24759809 2.5927619e-05 2.5578019e-19)
(0.23393092 2.0104417e-05 9.9397398e-20)
(0.21499043 1.2644236e-05 -6.6465187e-20)
(0.1814426 4.8067267e-06 4.91128e-21)
(0.30431819 -5.1449397e-06 -1.1404081e-18)
(0.3028546 -1.1412633e-05 -1.0403222e-18)
(0.29971994 -8.533158e-06 -2.7352254e-19)
(0.29521955 7.8208418e-07 1.2939539e-18)
(0.28964857 1.214308e-05 7.712311e-19)
(0.28320331 2.2022618e-05 2.5107213e-19)
(0.27594691 2.876512e-05 6.6997034e-19)
(0.26780566 3.1808694e-05 2.1666717e-19)
(0.25853789 3.1205173e-05 -1.0130432e-19)
(0.24763076 2.7351713e-05 -2.9846094e-19)
(0.23400854 2.0864202e-05 7.1157784e-20)
(0.2151001 1.2970554e-05 2.7462892e-20)
(0.18156252 4.8782884e-06 2.5441998e-20)
(0.30445222 -2.2472301e-06 3.1526917e-19)
(0.30290466 -4.7892334e-06 -4.4490291e-19)
(0.2996534 -5.7442784e-08 -5.1615284e-19)
(0.29507686 9.3868703e-06 6.9064377e-19)
(0.28948321 1.9670547e-05 7.1786694e-19)
(0.28305385 2.8057794e-05 3.3214787e-19)
(0.27583605 3.330267e-05 7.5932677e-19)
(0.26774441 3.5018184e-05 2.8615925e-19)
(0.25852929 3.3323427e-05 6.6221035e-20)
(0.24767222 2.8629904e-05 -3.1205549e-19)
(0.23409279 2.1539487e-05 4.5136282e-21)
(0.21521426 1.3255889e-05 7.9880547e-20)
(0.18168496 4.9383543e-06 2.7487627e-20)
(0.30448759 5.8143213e-07 7.7368517e-19)
(0.30287533 1.6331957e-06 2.5646921e-18)
(0.29953939 7.9403809e-06 1.922074e-19)
(0.29491435 1.7334235e-05 -2.9250416e-20)
(0.28931491 2.6550374e-05 1.5422052e-19)
(0.28291026 3.3548705e-05 4.1677537e-19)
(0.2757348 3.7416506e-05 -4.073281e-19)
(0.26769361 3.7916256e-05 2.3738005e-20)
(0.25853035 3.5226095e-05 2.8866218e-19)
(0.24772169 2.9769061e-05 4.8832238e-19)
(0.23418305 2.2133721e-05 1.9056473e-19)
(0.2153324 1.3501518e-05 2.3831848e-19)
(0.18180955 4.9870807e-06 6.4846045e-20)
(0.30442824 3.2381402e-06 1.3340471e-18)
(0.30277199 7.6569842e-06 2.861509e-18)
(0.29938292 1.5303999e-05 1.7445807e-18)
(0.29473444 2.4565362e-05 -2.8807191e-19)
(0.28914434 3.2781685e-05 -1.6911709e-19)
(0.28277222 3.8508111e-05 1.0297978e-19)
(0.27564244 4.1120435e-05 -3.8670525e-19)
(0.26765239 4.0514572e-05 4.1498045e-20)
(0.25854021 3.6921344e-05 2.5694991e-19)
(0.24777843 3.0773884e-05 3.3332822e-19)
(0.23427872 2.2648986e-05 -2.4976998e-20)
(0.21545406 1.3708006e-05 -1.575045e-19)
(0.18193595 5.024388e-06 -2.4090659e-20)
(0.30428147 5.6355918e-06 1.0281498e-18)
(0.30260141 1.3122383e-05 2.8896135e-18)
(0.29918843 2.1930419e-05 2.5466479e-18)
(0.29453912 3.1047516e-05 5.6379131e-19)
(0.28897192 3.8362679e-05 3.6376749e-19)
(0.28263933 4.2943539e-05 3.2745961e-19)
(0.2755582 4.4423829e-05 8.3807308e-20)
(0.26761989 4.2820973e-05 2.971043e-19)
(0.25855808 3.8414239e-05 1.4830301e-20)
(0.24784174 3.1646837e-05 1.4135475e-19)
(0.23437921 2.3085949e-05 1.1732563e-19)
(0.21557877 1.3875163e-05 1.6729658e-20)
(0.18206381 5.0499498e-06 9.8869703e-21)
(0.30405678 7.7205469e-06 2.05095e-19)
(0.30237113 1.7926716e-05 2.3082071e-18)
(0.29896016 2.7756821e-05 2.2774035e-18)
(0.29433004 3.6759523e-05 8.7173473e-19)
(0.28879784 4.3291006e-05 6.9152123e-19)
(0.2825111 4.6859618e-05 5.5376282e-19)
(0.2754813 4.733261e-05 2.6446232e-19)
(0.26759529 4.4839951e-05 -6.5423157e-20)
(0.25858316 3.9707103e-05 -1.2348559e-19)
(0.24791094 3.2388402e-05 -9.276429e-20)
(0.23448396 2.3444e-05 1.0281019e-19)
(0.21570609 1.4002111e-05 1.289451e-19)
(0.18219278 5.063209e-06 2.2165053e-20)
(0.30376497 9.467699e-06 3.8073713e-18)
(0.30208913 2.2015494e-05 2.6271759e-18)
(0.29870222 3.2751943e-05 1.0172329e-18)
(0.29410866 4.1691474e-05 6.026332e-19)
(0.2886222 4.7566341e-05 4.0842402e-19)
(0.28238699 5.0259511e-05 2.3861051e-19)