/*--------------------------------*- C++ -*----------------------------------*\
| =========                 |                                                 |
| \\      /  F ield         | OpenFOAM: The Open Source CFD Toolbox           |
|  \\    /   O peration     | Version:  2506                                  |
|   \\  /    A nd           | Website:  www.openfoam.com                      |
|    \\/     M anipulation  |                                                 |
\*---------------------------------------------------------------------------*/
FoamFile
{
    version     2.0;
    format      ascii;
    arch        "LSB;label=32;scalar=64";
    class       volScalarField;
    location    "1000/rock";
    object      T;
}
// * * * * * * * * * * * * * * * * * * * * * * * * * * * * * * * * * * * * * //

dimensions      [0 0 0 1 0 0 0];

internalField   nonuniform List<scalar> 
6000
(
315.29164
304.04368
298.23661
294.74866
292.44576
290.82433
289.62852
288.71518
287.99829
287.42319
286.95359
286.56452
286.23825
285.9619
285.72587
285.52289
285.34738
285.19494
285.0621
284.94606
284.84456
284.75572
284.67796
284.60997
284.55058
284.49873
284.45344
284.41363
284.37806
284.34489
318.84907
307.84285
301.52808
297.51297
294.77438
292.80746
291.33787
290.20533
289.31062
288.5894
287.99831
287.50715
287.09433
286.744
286.44433
286.18631
285.96295
285.7688
285.59949
285.45151
285.32201
285.20863
285.1094
285.02264
284.94691
284.88091
284.82343
284.77329
284.72922
284.68984
320.59564
310.2864
303.96769
299.74291
296.75665
294.55733
292.88441
291.57818
290.53611
289.68979
288.99211
288.40969
287.91832
287.50007
287.14141
286.83196
286.56362
286.33003
286.12609
285.94768
285.79144
285.65458
285.53479
285.43008
285.33878
285.25937
285.19053
285.13099
285.07957
285.03517
321.63297
311.95061
305.79363
301.52769
298.42115
296.07866
294.26389
292.82661
291.66719
290.71727
289.92867
289.26662
288.70548
288.22603
287.81359
287.45679
287.14673
286.87632
286.63988
286.43279
286.25125
286.09215
285.95284
285.83111
285.72507
285.63305
285.55362
285.48547
285.42747
285.37865
322.33363
313.15324
307.19376
302.96513
299.81514
297.3924
295.48406
293.95194
292.70216
291.66884
290.80457
290.07452
289.45257
288.9189
288.45817
288.05841
287.71013
287.40575
287.13913
286.90527
286.70005
286.52005
286.36238
286.22463
286.10473
286.00091
285.91161
285.83552
285.77149
285.71859
322.84742
314.06618
308.29662
304.13748
300.98717
298.52564
296.55919
294.96098
293.64361
292.54478
291.61886
290.8318
290.15775
289.57676
289.07328
288.63501
288.25215
287.91676
287.62241
287.36383
287.13662
286.93714
286.76234
286.60961
286.47677
286.36192
286.26345
286.17999
286.11037
286.05365
323.24501
314.7863
309.18715
305.10758
301.97979
299.50561
297.50595
295.8635
294.49694
293.34772
292.37248
291.53842
290.82036
290.19866
289.6578
289.18542
288.77158
288.40819
288.0886
287.80736
287.55991
287.34245
287.15176
286.98513
286.84025
286.71516
286.60816
286.51785
286.44302
286.3827
323.56435
315.37128
309.92174
305.92185
302.82774
300.35685
298.34096
296.67037
295.269
294.08181
293.06775
292.19549
291.44076
290.78442
290.21124
289.70897
289.26767
288.87921
288.53685
288.23504
287.9691
287.73513
287.52982
287.35036
287.19435
287.05977
286.94488
286.8482
286.7685
286.70477
323.82792
315.85749
310.53865
306.61429
303.55854
301.10031
299.07951
297.3924
295.96721
294.75199
293.70785
292.80495
292.02
291.33452
290.73367
290.20545
289.74003
289.32932
288.96659
288.64623
288.36354
288.11454
287.89585
287.70461
287.53836
287.39503
287.27283
287.17024
287.086
287.01906
324.05002
316.26893
311.06448
307.20996
304.1937
301.75337
299.73507
298.03969
296.59895
295.36353
294.29644
293.36927
292.55969
291.84993
291.22562
290.67506
290.18861
289.75831
289.37748
289.04053
288.74276
288.48014
288.24929
288.0473
287.87168
287.72031
287.59137
287.48332
287.39485
287.32486
324.24021
316.62218
311.51825
307.72756
304.75005
302.33029
300.31921
298.62132
297.1712
295.92165
294.83737
293.89121
293.06176
292.33195
291.6879
291.11826
290.61364
290.16621
289.76941
289.41772
289.10644
288.83159
288.58974
288.37799
288.19382
288.0351
287.89997
287.78687
287.69446
287.62161
324.40519
316.92903
311.91392
308.18126
305.24078
302.84267
300.84172
299.14533
297.69033
296.43133
295.33446
294.37364
293.52834
292.78211
292.12159
291.53578
291.01554
290.55324
290.14246
289.77774
289.45445
289.16864
288.9169
288.69633
288.50442
288.33899
288.1982
288.08045
287.98438
287.90884
324.54977
317.19814
312.2619
308.58192
305.67632
303.29999
301.31085
299.61867
298.1621
296.89723
295.79138
294.81943
293.96162
293.20209
292.52792
291.92849
291.39493
290.9198
290.49683
290.12067
289.78676
289.49119
289.23061
289.00211
288.80319
288.63168
288.48572
288.3637
288.26425
288.18618
324.67752
317.43603
312.57019
308.93803
306.065
303.70999
301.73355
300.04737
298.5916
297.32358
296.2116
295.23138
294.36381
293.59358
292.90821
292.29739
291.75253
291.2664
290.83287
290.44671
290.10346
289.79926
289.53079
289.29519
289.08996
288.91295
288.76229
288.63637
288.53379
288.45335
324.79115
317.64772
312.84499
309.2563
306.41353
304.07906
302.11565
300.4366
298.98333
297.71418
296.59831
295.61211
294.73706
293.95833
293.26382
292.64355
292.08917
291.59365
291.15102
290.75618
290.40474
290.09293
289.81747
289.57554
289.36466
289.18269
289.02777
288.89827
288.79281
288.71016
324.8928
317.83713
313.09124
309.54211
306.72738
304.41247
302.46207
300.79083
299.34124
298.07249
296.95443
295.96408
295.08342
294.29801
293.59613
292.96807
292.40572
291.90223
291.4518
291.04945
290.69087
290.37238
290.09075
289.84319
289.62726
289.44084
289.28206
289.14932
289.0412
288.95649
324.98414
318.00742
313.31287
309.79981
307.01102
304.71462
302.77697
301.11389
299.66878
298.40154
297.28264
296.28959
295.40482
294.61426
293.90648
293.27205
292.70306
292.19287
291.73579
291.32696
290.9622
290.63787
290.35081
290.09827
289.87784
289.68743
289.52518
289.38949
289.27893
289.19229
325.06655
318.16111
313.51312
310.03301
307.2682
304.98921
303.0639
301.4091
299.96898
298.70406
297.58533
296.59074
295.70308
294.90861
294.19619
293.55659
292.98213
292.4663
292.00358
291.58922
291.2191
290.88969
290.59787
290.34094
290.11652
289.92254
289.75717
289.6188
289.50601
289.41758
325.14115
318.30031
313.69464
310.24467
307.50201
305.23936
303.32588
301.67932
300.24449
298.98247
297.86468
296.86945
295.97988
295.18254
294.4665
293.82276
293.24381
292.7233
292.25582
291.83673
291.46202
291.12819
290.83221
290.57142
290.34348
290.14632
289.97815
289.83735
289.72252
289.63242
325.20887
318.42673
313.85963
310.43728
307.71509
305.46773
303.56554
301.92704
300.49766
299.23892
298.12264
297.12747
296.23679
295.43741
294.71862
294.07161
293.48901
292.96462
292.49315
292.07005
291.69139
291.35376
291.05417
290.78999
290.55893
290.35896
290.18827
290.04528
289.92858
289.83694
325.27051
318.54184
314.00997
310.61296
307.90968
305.6766
303.7851
302.15444
300.73054
299.47534
298.36098
297.36641
296.47525
295.67451
294.95369
294.30412
293.71859
293.19102
292.71622
292.28973
291.90771
291.56681
291.26407
290.99694
290.76314
290.56066
290.38773
290.24276
290.12436
290.03129
325.32672
318.64687
314.14722
310.77348
308.08769
305.86793
303.98654
302.36342
300.94494
299.69342
298.58129
297.58772
296.69657
295.89504
295.17277
294.52125
293.93339
293.40323
292.92567
292.49635
292.11147
291.76776
291.46231
291.1926
290.9564
290.7517
290.57676
290.43002
290.31006
290.21566
325.37807
318.74287
314.27275
310.9204
308.25077
306.04342
304.17155
302.55565
301.14249
299.89472
298.785
297.79275
296.90199
296.1001
295.37686
294.7239
294.13423
293.60198
293.12216
292.69046
292.30317
291.95706
291.64928
291.37733
291.13901
290.93236
290.75564
290.60729
290.48592
290.39029
325.42505
318.83074
314.38771
311.05505
308.40036
306.20456
304.34164
302.73261
301.32462
300.08058
298.97341
297.98269
297.09263
296.29073
295.56692
294.91292
294.32186
293.78796
293.30629
292.87263
292.48331
292.13516
291.82537
291.55148
291.31132
291.10295
290.92464
290.77484
290.65219
290.55542
325.46809
318.91127
314.49311
311.17858
308.53772
306.35265
304.49813
302.89562
301.49261
300.25226
299.14769
298.15866
297.26952
296.4679
295.74382
295.08913
294.49705
293.96185
293.47869
293.04341
292.6524
292.30252
291.99101
291.71545
291.47368
291.26379
291.08406
290.93297
290.80915
290.71134
325.50756
318.98515
314.58985
311.29202
308.66393
306.48885
304.64219
303.04585
301.64761
300.41087
299.30892
298.32167
297.43361
296.63248
295.9084
295.2533
294.66048
294.12429
293.63995
293.20335
292.81093
292.45959
292.14662
291.86961
291.62644
291.41521
291.23424
291.08198
290.95709
290.85831
325.54377
319.05298
314.6787
311.39626
308.77998
306.61417
304.77487
303.18433
301.79065
300.5574
299.45805
298.47265
297.58579
296.78531
296.06143
295.40614
294.81283
294.2759
293.79063
293.35296
292.95938
292.60682
292.29261
292.01436
291.76997
291.55757
291.37548
291.22219
291.09633
290.99666
325.57702
319.11529
314.76034
311.49209
308.88672
306.72953
304.89709
303.31202
301.92266
300.69278
299.59599
298.61245
297.72686
296.92716
296.20363
295.54834
294.95473
294.41728
293.9313
293.49278
293.09824
292.74467
292.4294
292.15008
291.90464
291.69122
291.50814
291.35392
291.22717
291.12669
325.60756
319.17254
314.83539
311.58021
308.98494
306.83574
305.00969
303.42975
302.04448
300.81783
299.72353
298.74185
297.85758
297.05874
296.33568
295.68054
295.0868
294.54899
294.06248
293.62329
293.22798
292.87356
292.55741
292.27718
292.03083
291.81651
291.63256
291.47749
291.34995
291.24872
325.63561
319.22515
314.90439
311.66126
309.07532
306.93352
305.11342
303.53829
302.15689
300.93331
299.84142
298.86157
297.97865
297.18072
296.45822
295.80333
295.20959
294.67158
294.18468
293.74498
293.34905
292.99394
292.67704
292.39604
292.1489
291.93379
291.74907
291.59325
291.46499
291.36306
325.66138
319.27352
314.96783
311.73581
309.15847
307.02353
305.20898
303.63834
302.26058
301.03992
299.95033
298.97228
298.09069
297.29372
296.57184
295.9173
295.32366
294.78555
294.2984
293.85831
293.4619
293.10622
292.78869
292.50703
292.25921
292.04342
291.85802
291.70153
291.57261
291.47005
325.68505
319.31796
315.02614
311.80436
309.23497
307.10638
305.29697
303.73053
302.35618
301.13828
300.05091
299.07458
298.19432
297.39832
296.67711
296.02297
295.42952
294.89141
294.40411
293.96373
293.56694
293.2108
292.89275
292.61054
292.36214
292.14575
291.95974
291.80265
291.67314
291.57
325.70678
319.35879
315.07974
311.86738
309.30533
307.18261
305.37797
303.81543
302.44428
301.22899
300.14371
299.16906
298.29009
297.49506
296.77454
296.12086
295.52765
294.98961
294.50224
294.06167
293.66459
293.30808
292.98961
292.70693
292.45803
292.24112
292.05458
291.89695
291.76691
291.66323
325.72673
319.39628
315.12896
311.92528
309.36999
307.2527
305.45248
303.89358
302.52541
301.31257
300.22929
299.25623
298.37852
297.58445
296.86464
296.21143
295.61852
295.08061
294.59323
294.15255
293.75525
293.39845
293.07964
292.79656
292.54723
292.32986
292.14285
291.98475
291.85422
291.75005
325.74502
319.4307
315.17416
311.97846
309.42939
307.31711
305.52098
303.96545
302.60008
301.38953
300.30813
299.33659
298.46009
297.66696
296.94785
296.29514
295.70256
295.16483
294.67749
294.23675
293.8393
293.48228
293.16318
292.87977
292.63007
292.41232
292.2249
292.06636
291.93539
291.83078
325.76177
319.46225
315.21562
312.02725
309.48392
307.37625
305.58391
304.03151
302.66872
301.46032
300.38068
299.41059
298.53525
297.74303
297.02461
296.37242
295.78018
295.24266
294.75541
294.31465
293.9171
293.55992
293.24059
292.9569
292.7069
292.4888
292.30102
292.1421
292.01074
291.90572
325.77712
319.49117
315.25362
312.07199
309.53392
307.4305
305.64165
304.09214
302.73177
301.52537
300.44739
299.47866
298.60441
297.81307
297.09534
296.44365
295.85177
295.31448
294.82735
294.38662
293.98902
293.63171
293.3122
293.02829
292.77802
292.55962
292.37152
292.21227
292.08055
291.97515
325.79114
319.51763
315.28841
312.11296
309.57973
307.48022
305.69459
304.14775
302.78961
301.58507
300.50864
299.54118
298.66799
297.87748
297.16041
296.50922
295.91771
295.38066
294.89368
294.453
294.05537
293.69798
293.37833
293.09423
292.84374
292.62509
292.43671
292.27715
292.14511
292.03938
325.80395
319.54182
315.32023
312.15043
309.62165
307.52572
305.74305
304.19868
302.8426
301.63979
300.5648
299.59854
298.72633
297.93662
297.22018
296.56949
295.97834
295.44155
294.95472
294.51412
294.1165
293.75905
293.43929
293.15504
292.90436
292.68549
292.49686
292.33704
292.20471
292.09868
325.81563
319.5639
315.34928
312.18467
309.65994
307.56731
305.78736
304.24525
302.89107
301.68987
300.61622
299.65108
298.77979
297.99083
297.275
296.62478
296.03399
295.49746
295.0108
294.57029
294.1727
293.81522
293.49538
293.21101
292.96017
292.74111
292.55227
292.39221
292.25962
292.15331
325.82626
319.58403
315.37577
312.21589
309.69488
307.60526
305.8278
304.28777
302.93535
301.73562
300.66321
299.69911
298.82869
298.04044
297.32518
296.67542
296.08498
295.5487
295.06222
294.62182
294.22427
293.86677
293.54688
293.26241
293.01144
292.79222
292.60319
292.44292
292.3101
292.20354
325.83591
319.60233
315.39988
312.24431
309.72669
307.63983
305.86464
304.32653
302.97571
301.77734
300.70608
299.74295
298.87332
298.08575
297.37103
296.7217
296.13159
295.59557
295.10927
294.66897
294.27148
293.91399
293.59406
293.30952
293.05843
292.83908
292.64988
292.48943
292.35641
292.24962
325.84466
319.61895
315.42178
312.27014
309.75561
307.67125
305.89815
304.36178
303.01243
301.81531
300.74511
299.78286
298.91399
298.12703
297.41282
296.7639
296.17412
295.63834
295.15221
294.71204
294.3146
293.95713
293.63718
293.35258
293.10141
292.88193
292.6926
292.53198
292.39877
292.29179
325.85257
319.63401
315.44163
312.29355
309.78183
307.69975
305.92854
304.39376
303.04577
301.84979
300.78055
299.81913
298.95094
298.16456
297.45082
296.80229
296.21281
295.67727
295.19132
294.75126
294.3539
293.99645
293.67649
293.39184
293.1406
292.92102
292.73157
292.5708
292.43744
292.33027
325.8597
319.6476
315.45956
312.31472
309.80554
307.72554
305.95604
304.42272
303.07595
301.88101
300.81266
299.85199
298.98444
298.19859
297.48529
296.83712
296.24793
295.71261
295.22683
294.78688
294.3896
294.03218
293.71222
293.42754
293.17624
292.95658
292.76702
292.60613
292.47262
292.36529
325.8661
319.65984
315.47573
312.3338
309.82692
307.74879
305.98086
304.44885
303.10319
301.9092
300.84166
299.88168
299.01471
298.22935
297.51646
296.86862
296.2797
295.74459
295.25897
294.81914
294.42193
294.06456
293.7446
293.4599
293.20855
292.98882
292.79917
292.63817
292.50453
292.39706
325.87182
319.67083
315.49024
312.35095
309.84615
307.76971
306.00318
304.47235
303.1277
301.93458
300.86777
299.90841
299.04197
298.25706
297.54455
296.89701
296.30835
295.77344
295.28797
294.84825
294.45111
294.09378
293.77383
293.48912
293.23773
293.01795
292.82822
292.66713
292.53338
292.42579
325.87692
319.68065
315.50323
312.3663
309.86336
307.78844
306.02318
304.49342
303.14968
301.95733
300.89119
299.93239
299.06644
298.28193
297.56976
296.92251
296.33408
295.79935
295.31403
294.87442
294.47735
294.12006
293.80013
293.51541
293.26399
293.04416
292.85437
292.6932
292.55935
292.45165
325.88144
319.68939
315.51481
312.37999
309.87871
307.80515
306.04102
304.51222
303.1693
301.97764
300.9121
299.95382
299.0883
298.30416
297.5923
296.94531
296.35709
295.82254
295.33734
294.89783
294.50084
294.14359
293.82368
293.53896
293.28752
293.06765
292.8778
292.71656
292.58264
292.47484
325.88542
319.69712
315.52506
312.39212
309.89233
307.81998
306.05686
304.52892
303.18672
301.99569
300.93068
299.97286
299.10773
298.32393
297.61235
296.9656
296.37757
295.84317
295.3581
294.91868
294.52175
294.16455
293.84466
293.55995
293.30849
293.0886
292.8987
292.7374
292.60341
292.49553
325.8889
319.70392
315.53409
312.40282
309.90434
307.83307
306.07085
304.54366
303.20211
302.01163
300.9471
299.98969
299.12491
298.34141
297.63008
296.98354
296.39568
295.86143
295.37647
294.93714
294.54028
294.18312
293.86325
293.57854
293.32708
293.10716
292.91723
292.75588
292.62183
292.51388
325.89191
319.70986
315.54199
312.41219
309.91487
307.84454
306.08311
304.55659
303.21561
302.02562
300.96151
300.00446
299.14
298.35676
297.64566
296.9993
296.4116
295.87748
295.39263
294.95338
294.55657
294.19945
293.87961
293.59491
293.34344
293.1235
292.93354
292.77215
292.63805
292.53004
325.89449
319.71499
315.54884
312.42032
309.92401
307.85451
306.09377
304.56783
303.22735
302.0378
300.97406
300.01733
299.15313
298.37013
297.65923
297.01304
296.42548
295.89147
295.40671
294.96753
294.57078
294.2137
293.89388
293.60919
293.35772
293.13777
292.94779
292.78637
292.65223
292.54418
325.89667
319.71938
315.55472
312.4273
309.93187
307.86309
306.10295
304.57752
303.23747
302.04829
300.98488
300.02842
299.16447
298.38167
297.67094
297.0249
296.43746
295.90355
295.41888
294.97976
294.58306
294.22602
293.90622
293.62154
293.37007
293.15011
292.96012
292.79868
292.6645
292.55641
325.89848
319.72308
315.5597
312.43323
309.93855
307.87038
306.11075
304.58576
303.24609
302.05723
300.99409
300.03787
299.17412
298.3915
297.68092
297.03501
296.44768
295.91386
295.42925
294.9902
294.59354
294.23653
293.91676
293.63209
293.38063
293.16066
292.97065
292.8092
292.675
292.56688
325.89994
319.72615
315.56384
312.43817
309.94413
307.87648
306.11728
304.59266
303.25331
302.06472
301.00181
300.0458
299.18222
298.39975
297.6893
297.0435
296.45626
295.92252
295.43798
294.99897
294.60235
294.24537
293.92562
293.64096
293.38951
293.16954
292.97953
292.81806
292.68385
292.57571
325.90108
319.72862
315.5672
312.44221
309.94869
307.88147
306.12264
304.59833
303.25923
302.07087
301.00816
300.05231
299.18889
298.40654
297.6962
297.05049
296.46333
295.92965
295.44516
295.0062
294.60961
294.25266
293.93293
293.64829
293.39684
293.17688
292.98686
292.82538
292.69116
292.58301
325.90193
319.73055
315.56986
312.4454
309.95231
307.88545
306.12691
304.60284
303.26397
302.07579
301.01324
300.05753
299.19422
298.41197
297.70172
297.05608
296.46899
295.93536
295.45092
295.01199
294.61544
294.25851
293.93879
293.65417
293.40273
293.18277
292.99276
292.83128
292.69705
292.58889
325.9025
319.73197
315.57185
312.44782
309.95507
307.88848
306.13017
304.6063
303.26759
302.07956
301.01713
300.06153
299.19832
298.41615
297.70597
297.06039
296.47335
295.93976
295.45536
295.01646
294.61993
294.26302
293.94332
293.65871
293.40728
293.18733
292.99732
292.83585
292.70162
292.59346
325.90281
319.73292
315.57323
312.44952
309.95702
307.89064
306.13251
304.60878
303.2702
302.08227
301.01994
300.06442
299.20128
298.41917
297.70904
297.06351
296.4765
295.94295
295.45857
295.0197
294.62319
294.2663
293.94662
293.66201
293.4106
293.19066
293.00066
292.83919
292.70497
292.59681
325.90289
319.73344
315.57404
312.45056
309.95824
307.892
306.13398
304.61036
303.27186
302.08401
301.02174
300.06628
299.20318
298.42112
297.71102
297.06552
296.47855
295.94502
295.46066
295.02181
294.62531
294.26843
293.94876
293.66417
293.41277
293.19284
293.00285
292.84139
292.70718
292.59903
325.90275
319.73356
315.57434
312.45098
309.95877
307.89261
306.13467
304.61111
303.27266
302.08485
301.02262
300.06719
299.20412
298.42208
297.712
297.06652
296.47956
295.94605
295.4617
295.02286
294.62638
294.26951
293.94985
293.66528
293.41388
293.19396
293.00399
292.84254
292.70835
292.60022
325.90241
319.73331
315.57415
312.45085
309.95866
307.89254
306.13462
304.61108
303.27265
302.08486
301.02264
300.06722
299.20416
298.42213
297.71206
297.06658
296.47963
295.94612
295.46178
295.02295
294.62647
294.26961
293.94996
293.6654
293.41401
293.19411
293.00415
292.84272
292.70854
292.60043
325.90188
319.73272
315.57352
312.45019
309.95798
307.89184
306.1339
304.61035
303.2719
302.0841
301.02187
300.06644
299.20337
298.42133
297.71125
297.06577
296.47882
295.94531
295.46097
295.02214
294.62567
294.26881
293.94917
293.66461
293.41324
293.19335
293.00341
292.842
292.70785
292.59976
325.90117
319.73182
315.57248
312.44905
309.95676
307.89055
306.13256
304.60896
303.27048
302.08263
301.02037
300.06491
299.20182
298.41976
297.70967
297.06417
296.4772
295.94368
295.45934
295.0205
294.62403
294.26718
293.94755
293.663
293.41164
293.19177
293.00184
292.84045
292.70632
292.59826
325.90031
319.73062
315.57107
312.44747
309.95505
307.88873
306.13065
304.60697
303.26842
302.08052
301.01821
300.0627
299.19957
298.41747
297.70735
297.06183
296.47484
295.94131
295.45695
295.01811
294.62163
294.26478
293.94515
293.66061
293.40927
293.18941
292.9995
292.83814
292.70404
292.596
325.89929
319.72916
315.5693
312.44548
309.95289
307.88642
306.12822
304.60443
303.26579
302.07781
301.01542
300.05986
299.19667
298.41453
297.70437
297.05882
296.4718
295.93824
295.45387
295.01501
294.61853
294.26168
293.94205
293.65752
293.40618
293.18635
292.99646
292.83512
292.70105
292.59305
325.89813
319.72744
315.56722
312.44312
309.9503
307.88366
306.1253
304.60138
303.26262
302.07454
301.01208
300.05643
299.19318
298.41098
297.70077
297.05518
296.46812
295.93454
295.45014
295.01127
294.61478
294.25793
293.9383
293.65377
293.40245
293.18263
292.99276
292.83145
292.69741
292.58945
325.89684
319.7255
315.56484
312.44041
309.94734
307.88048
306.12194
304.59786
303.25897
302.07078
301.00821
300.05248
299.18915
298.40688
297.69661
297.05097
296.46387
295.93025
295.44583
295.00694
294.61044
294.25358
293.93395
293.64943
293.39812
293.17831
292.98847
292.82719
292.69318
292.58526
325.89544
319.72336
315.56219
312.43739
309.94402
307.87691
306.11817
304.59392
303.25488
302.06655
301.00386
300.04803
299.18461
298.40227
297.69193
297.04623
296.45909
295.92543
295.44098
295.00207
294.60555
294.24868
293.92905
293.64453
293.39323
293.17345
292.98363
292.82238
292.68841
292.58052
325.89392
319.72101
315.55929
312.43407
309.94037
307.873
306.11402
304.58958
303.25037
302.06189
300.99907
300.04313
299.17961
298.39719
297.68677
297.04101
296.45382
295.92012
295.43563
294.99669
294.60015
294.24327
293.92364
293.63913
293.38784
293.16807
292.97828
292.81706
292.68313
292.57529
325.8923
319.71849
315.55617
312.43049
309.93643
307.86876
306.10954
304.58488
303.24548
302.05684
300.99389
300.03782
299.17419
298.39167
297.68118
297.03535
296.4481
295.91435
295.42982
294.99085
294.5943
294.2374
293.91777
293.63326
293.38199
293.16224
292.97247
292.81128
292.67738
292.56959
325.89059
319.71581
315.55283
312.42666
309.93221
307.86422
306.10473
304.57984
303.24025
302.05144
300.98833
300.03213
299.16839
298.38577
297.67519
297.02928
296.44196
295.90816
295.4236
294.9846
294.58802
294.23111
293.91147
293.62697
293.3757
293.15597
292.96623
292.80508
292.67122
292.56347
325.88879
319.71297
315.5493
312.42261
309.92775
307.85942
306.09964
304.57451
303.2347
302.0457
300.98243
300.02609
299.16223
298.3795
297.66883
297.02284
296.43546
295.9016
295.41699
294.97795
294.58135
294.22443
293.90478
293.62028
293.36903
293.14931
292.9596
292.79848
292.66466
292.55697
325.88691
319.71
315.54559
312.41835
309.92305
307.85436
306.09428
304.56889
303.22886
302.03967
300.97623
300.01973
299.15574
298.3729
297.66213
297.01606
296.4286
295.89469
295.41003
294.97096
294.57433
294.21739
293.89773
293.61323
293.36199
293.1423
292.95261
292.79152
292.65775
292.5501
325.88495
319.7069
315.54172
312.4139
309.91815
307.84908
306.08868
304.56302
303.22275
302.03335
300.96973
300.01309
299.14896
298.36599
297.65512
297.00896
296.42143
295.88745
295.40274
294.96363
294.56697
294.21002
293.89036
293.60586
293.35463
293.13495
292.94529
292.78424
292.65051
292.54292
325.88293
319.70368
315.53769
312.40928
309.91305
307.84359
306.08286
304.55691
303.2164
302.02679
300.96298
300.00617
299.1419
298.35881
297.64783
297.00158
296.41397
295.87993
295.39516
294.95601
294.55932
294.20235
293.88268
293.59818
293.34696
293.1273
292.93767
292.77666
292.64297
292.53543
325.88084
319.70035
315.53354
312.4045
309.90777
307.8379
306.07683
304.55059
303.20982
302.01999
300.95599
299.99901
299.13459
298.35137
297.64028
296.99393
296.40624
295.87213
295.38731
294.94812
294.5514
294.1944
293.87472
293.59023
293.33901
293.11938
292.92977
292.7688
292.63516
292.52767
325.87869
319.69693
315.52925
312.39957
309.90233
307.83204
306.07062
304.54407
303.20304
302.01298
300.94878
299.99163
299.12705
298.3437
297.63249
296.98604
296.39827
295.86409
295.37921
294.93998
294.54323
294.18621
293.86652
293.58202
293.33082
293.1112
292.92162
292.76069
292.62709
292.51966
325.87649
319.69341
315.52485
312.39451
309.89674
307.82602
306.06423
304.53737
303.19607
302.00578
300.94137
299.98404
299.1193
298.33582
297.62449
296.97794
296.39008
295.85582
295.37089
294.93161
294.53482
294.17778
293.85808
293.57358
293.32239
293.10279
292.91324
292.75234
292.6188
292.51141
325.87424
319.68982
315.52035
312.38932
309.89102
307.81985
306.05769
304.53051
303.18893
301.9984
300.93378
299.97626
299.11136
298.32773
297.61628
296.96963
296.38168
295.84735
295.36236
294.92303
294.5262
294.16914
293.84943
293.56493
293.31374
293.09416
292.90465
292.74378
292.61029
292.50296
325.87195
319.68614
315.51574
312.38402
309.88517
307.81355
306.051
304.5235
303.18164
301.99085
300.92602
299.96831
299.10325
298.31947
297.6079
296.96113
296.37309
295.83869
295.35363
294.91425
294.51739
294.16031
293.84058
293.55608
293.3049
293.08535
292.89586
292.73503
292.60158
292.49431
325.86961
319.6824
315.51105
312.37862
309.8792
307.80712
306.04418
304.51634
303.17419
301.98316
300.9181
299.9602
299.09497
298.31105
297.59934
296.95247
296.36433
295.82985
295.34473
294.9053
294.50841
294.1513
293.83156
293.54705
293.29589
293.07635
292.88689
292.7261
292.5927
292.48549
325.86724
319.67859
315.50628
312.37313
309.87313
307.80058
306.03725
304.50906
303.16662
301.97533
300.91005
299.95195
299.08654
298.30247
297.59064
296.94365
296.35542
295.82086
295.33567
294.89619
294.49926
294.14212
293.82237
293.53786
293.28671
293.06718
292.87776
292.71701
292.58366
292.4765
325.86483
319.67472
315.50143
312.36754
309.86697
307.79393
306.03019
304.50167
303.15892
301.96737
300.90186
299.94356
299.07798
298.29376
297.58179
296.93469
296.34636
295.81172
295.32646
294.88693
294.48996
294.1328
293.81303
293.52852
293.27737
293.05787
292.86847
292.70777
292.57446
292.46737
325.86239
319.6708
315.49651
312.36188
309.86071
307.78719
306.02304
304.49416
303.15111
301.95929
300.89356
299.93505
299.06929
298.28491
297.57281
296.92559
296.33717
295.80244
295.31712
294.87754
294.48052
294.12333
293.80355
293.51904
293.2679
293.04842
292.85905
292.69838
292.56513
292.45809
325.85992
319.66683
315.49153
312.35614
309.85438
307.78036
306.0158
304.48656
303.1432
301.95111
300.88514
299.92643
299.06049
298.27595
297.56372
296.91638
296.32785
295.79304
295.30766
294.86802
294.47096
294.11374
293.79395
293.50944
293.2583
293.03884
292.8495
292.68888
292.55567
292.44869
325.85742
319.66281
315.48649
312.35034
309.84796
307.77345
306.00846
304.47887
303.1352
301.94284
300.87662
299.9177
299.05159
298.26689
297.55451
296.90706
296.31843
295.78353
295.29807
294.85838
294.46129
294.10404
293.78423
293.49971
293.24859
293.02914
292.83984
292.67925
292.5461
292.43918
325.85489
319.65875
315.4814
312.34447
309.84148
307.76646
306.00105
304.47109
303.1271
301.93447
300.86802
299.90888
299.04258
298.25772
297.5452
296.89763
296.3089
295.77392
295.28839
294.84864
294.4515
294.09423
293.7744
293.48988
293.23876
293.01934
292.83006
292.66952
292.53641
292.42956
325.85234
319.65465
315.47625
312.33855
309.83494
307.75941
305.99357
304.46324
303.11893
301.92602
300.85932
299.89998
299.03348
298.24846
297.5358
296.88811
296.29927
295.7642
295.2786
294.8388
294.44162
294.08432
293.76447
293.47995
293.22884
293.00944
292.82019
292.65968
292.52663
292.41984
325.84978
319.65051
315.47106
312.33257
309.82833
307.75229
305.98601
304.45531
303.11068
301.91749
300.85055
299.89099
299.02431
298.23912
297.52632
296.8785
296.28956
295.7544
295.26873
294.82887
294.43164
294.07431
293.75445
293.46993
293.21883
292.99944
292.81022
292.64976
292.51676
292.41002
325.84719
319.64635
315.46583
312.32654
309.82168
307.74511
305.9784
304.44732
303.10237
301.90889
300.8417
299.88192
299.01505
298.2297
297.51675
296.86881
296.27976
295.74452
295.25877
294.81885
294.42159
294.06422
293.74435
293.45982
293.20873
292.98936
292.80017
292.63975
292.5068
292.40013
325.84458
319.64215
315.46056
312.32047
309.81497
307.73788
305.97072
304.43927
303.09399
301.90022
300.83278
299.87279
299.00573
298.2202
297.50711
296.85904
296.26989
295.73455
295.24874
294.80876
294.41145
294.05406
293.73416
293.44963
293.19855
292.9792
292.79004
292.62966
292.49676
292.39015
325.84196
319.63792
315.45525
312.31436
309.80821
307.73059
305.96299
304.43116
303.08555
301.8915
300.8238
299.86359
298.99633
298.21064
297.4974
296.84921
296.25995
295.72452
295.23863
294.79859
294.40124
294.04382
293.72391
293.43937
293.18829
292.96897
292.77984
292.6195
292.48665
292.3801
325.83932
319.63367
315.44991
312.3082
309.80141
307.72326
305.95521
304.42299
303.07705
301.88271
300.81477
299.85433
298.98688
298.20102
297.48763
296.83931
296.24994
295.71442
295.22846
294.78836
294.39096
294.03351
293.71358
293.42904
293.17797
292.95866
292.76957
292.60927
292.47647
292.36999
325.83666
319.62939
315.44454
312.30201
309.79457
307.71589
305.94739
304.41478
303.06851
301.87388
300.80568
299.84501
298.97737
298.19134
297.4778
296.82935
296.23987
295.70426
295.21822
294.77806
294.38062
294.02314
293.7032
293.41865
293.16759
292.9483
292.75923
292.59898
292.46623
292.35981
325.834
319.62508
315.43914
312.29579
309.78769
307.70847
305.93952
304.40652
303.05991
301.86499
300.79653
299.83564
298.9678
298.1816
297.46791
296.81933
296.22974
295.69404
295.20793
294.76771
294.37022
294.01271
293.69275
293.40819
293.15714
292.93787
292.74884
292.58862
292.45593
292.34957
325.83132
319.62076
315.43371
312.28953
309.78078
307.70102
305.93161
304.39822
303.05127
301.85605
300.78734
299.82623
298.95818
298.17181
297.45797
296.80926
296.21956
295.68377
295.19758
294.7573
294.35977
294.00222
293.68224
293.39769
293.14664
292.92739
292.73839
292.57821