/*--------------------------------*- C++ -*----------------------------------*\
| =========                 |                                                 |
| \\      /  F ield         | OpenFOAM: The Open Source CFD Toolbox           |
|  \\    /   O peration     | Version:  2506                                  |
|   \\  /    A nd           | Website:  www.openfoam.com                      |
|    \\/     M anipulation  |                                                 |
\*---------------------------------------------------------------------------*/
FoamFile
{
    version     2.0;
    format      ascii;
    arch        "LSB;label=32;scalar=64";
    class       volScalarField;
    location    "24000/rock";
    object      T;
}
// * * * * * * * * * * * * * * * * * * * * * * * * * * * * * * * * * * * * * //

dimensions      [0 0 0 1 0 0 0];

internalField   nonuniform List<scalar> 
16000
(
317.7495
306.98364
301.16506
297.54033
295.07854
293.30681
291.97735
290.94767
290.13006
289.46761
288.92187
288.46591
288.08039
287.75106
287.46718
287.22057
287.00484
286.81497
286.64695
286.49755
286.36413
286.24453
286.13695
286.03989
285.95209
285.87247
285.80012
285.73426
285.67419
285.61934
285.56917
285.52321
285.48104
285.44226
285.4065
285.37337
285.34246
285.31328
285.28516
285.25703
320.43463
309.71006
303.49908
299.51385
296.76684
294.77297
293.2687
292.09929
291.16824
290.41237
289.78868
289.26696
288.82539
288.44786
288.12223
287.83917
287.59143
287.37331
287.18021
287.00846
286.85504
286.71747
286.59371
286.48203
286.38098
286.28934
286.20605
286.13022
286.06107
285.99791
285.94014
285.88723
285.83868
285.79405
285.75291
285.71483
285.67934
285.64594
285.61397
285.58253
321.96968
311.71873
305.42478
301.24296
298.29946
296.1345
294.48662
293.19755
292.16652
291.32655
290.63159
290.04899
289.55504
289.1321
288.76686
288.44905
288.17066
287.92536
287.70806
287.51468
287.34185
287.18682
287.04729
286.92133
286.80734
286.70393
286.60993
286.52434
286.44627
286.37496
286.30973
286.24999
286.19519
286.14484
286.09845
286.05557
286.01571
285.97835
285.94289
285.90866
322.95357
313.22995
307.00918
302.74566
299.67903
297.38938
295.62791
294.23922
293.12197
292.20765
291.44847
290.81021
290.2678
289.80247
289.39997
289.04926
288.74169
288.4704
288.22988
288.01566
287.82408
287.65213
287.4973
287.35746
287.23086
287.11597
287.01151
286.91637
286.82957
286.75028
286.67775
286.61133
286.55042
286.49448
286.44299
286.39547
286.35141
286.31032
286.27167
286.2349
323.64519
314.40161
308.32214
304.04989
300.9157
298.54041
296.6924
295.22298
294.03294
293.05398
292.23775
291.5492
290.96243
290.45788
290.0206
289.63896
289.30379
289.00779
288.74508
288.51089
288.30128
288.11301
287.94338
287.79009
287.65125
287.5252
287.41054
287.30608
287.21077
287.12368
287.04402
286.97108
286.90421
286.84282
286.78638
286.73437
286.6863
286.64168
286.60002
286.56089
324.16612
315.33803
309.4232
305.18542
302.02338
299.59358
297.68224
296.14916
294.89892
293.86467
292.99843
292.26497
291.63798
291.09746
290.62796
290.21743
289.85631
289.53695
289.25317
288.99992
288.77304
288.56909
288.38519
288.21892
288.06822
287.93134
287.80679
287.69327
287.58966
287.49498
287.40838
287.32907
287.25639
287.18972
287.12847
287.07213
287.0202
286.9722
286.9277
286.88631
324.57863
316.10711
310.35919
306.17982
303.01709
300.55667
298.6012
297.01934
295.72031
294.63954
293.73003
292.9569
292.2938
291.72055
291.22143
290.78411
290.39873
290.0574
289.75368
289.48232
289.23897
289.02002
288.82243
288.64364
288.48151
288.33416
288.20003
288.07772
287.96606
287.864
287.77064
287.68515
287.60683
287.53501
287.46911
287.40859
287.35294
287.3017
287.25447
287.2109
324.91742
316.75363
311.16571
307.05683
303.91138
301.43814
299.45396
297.83598
296.49827
295.37897
294.43251
293.62471
292.92949
292.3267
291.80055
291.33852
290.93061
290.56872
290.24625
289.95776
289.69876
289.46549
289.2548
289.06402
288.89088
288.73344
288.59005
288.45924
288.33978
288.23057
288.13064
288.03916
287.95535
287.87855
287.80814
287.74357
287.68434
287.62999
287.58013
287.53443
325.20335
317.30779
311.86952
307.83622
304.71954
302.24643
300.24569
298.6021
297.23447
296.08381
295.10621
294.26843
293.54489
292.91566
292.36498
291.88033
291.4516
291.07057
290.73053
290.42591
290.15211
289.90524
289.68206
289.4798
289.29611
289.12897
288.97665
288.83764
288.71064
288.59451
288.48823
288.39093
288.30181
288.22018
288.14541
288.07693
288.01424
287.95688
287.90447
287.85669
325.44976
317.79055
312.49083
308.5341
305.45323
302.9895
300.98162
299.32103
297.93096
296.75523
295.75174
294.88833
294.14005
293.48732
292.91457
292.40932
291.96145
291.5627
291.20627
290.88653
290.59877
290.33903
290.10398
289.89077
289.69699
289.52055
289.35966
289.21275
289.07848
288.95566
288.84324
288.74032
288.64607
288.55977
288.48077
288.40851
288.34246
288.28219
288.2273
288.17749
325.66568
318.21686
313.04494
309.16356
306.12253
303.67467
301.66683
299.99619
298.58997
297.39467
296.36998
295.48488
294.71519
294.04174
293.44925
292.92535
292.45999
292.0449
291.67326
291.33939
291.03853
290.76665
290.52035
290.29675
290.09334
289.90801
289.7389
289.58441
289.44314
289.31388
289.19554
289.08718
288.98797
288.89715
288.81408
288.73815
288.66887
288.60577
288.54847
288.49665
325.85744
318.59765
313.54366
309.73515
306.73603
304.30848
302.30609
300.63096
299.21383
298.00368
296.96192
296.05873
295.27066
294.5791
293.96907
293.42839
292.94712
292.51705
292.13136
291.78434
291.47122
291.18792
290.93102
290.69755
290.485
290.29119
290.11422
289.95246
289.80448
289.66902
289.54498
289.43139
289.32739
289.23221
289.14519
289.06572
288.9933
288.92745
288.8678
288.81402
326.02965
318.9411
313.99612
310.25747
307.301
304.8967
302.90381
301.22859
299.80487
298.58391
297.52871
296.6106
295.80695
295.09968
294.47417
293.91849
293.42283
292.97908
292.58045
292.22126
291.89671
291.60272
291.33582
291.09304
290.87182
290.66994
290.48548
290.31678
290.16236
290.02096
289.89143
289.7728
289.66418
289.5648
289.47397
289.39108
289.31561
289.2471
289.18515
289.12945
326.18578
319.25347
314.40955
310.73751
307.82359
305.44442
303.46399
301.79215
300.36539
299.13701
298.07153
297.14134
296.32462
295.60384
294.96477
294.39575
293.88715
293.43097
293.02048
292.65005
292.31489
292.01092
291.73465
291.48309
291.25367
291.04414
290.85255
290.67722
290.51666
290.36956
290.23477
290.1113
289.99824
289.8948
289.80029
289.7141
289.63568
289.56457
289.50038
289.44278
326.32847
319.53965
314.7897
311.181
308.309
305.95607
303.99026
302.32447
300.89757
299.66465
298.59159
297.65183
296.82429
296.092
295.44115
294.86034
294.34017
293.87274
293.45145
293.07069
292.7257
292.41244
292.1274
291.86761
291.63045
291.41367
291.21532
291.03368
290.86725
290.71471
290.57489
290.44676
290.32943
290.22209
290.12404
290.03464
289.95337
289.87974
289.81337
289.7539
326.4598
319.8035
315.14122
311.59267
308.76164
306.4355
304.48582
302.82817
301.40347
300.16841
299.09011
298.14296
297.30662
296.56465
295.90364
295.3125
294.78202
294.30448
293.87336
293.48314
293.1291
292.80722
292.51401
292.24649
292.00206
291.77845
291.57369
291.38607
291.21405
291.05631
290.91167
290.77909
290.65766
290.54656
290.44509
290.35261
290.26857
290.19249
290.12398
290.06267
326.58141
320.04811
315.46788
311.97648
309.18526
306.88607
304.95357
303.30565
301.88503
300.64983
299.56828
298.61566
297.7723
297.02229
296.35261
295.75247
295.21288
294.72628
294.28628
293.88743
293.52507
293.19522
292.89442
292.61969
292.36843
292.13839
291.92758
291.73427
291.55695
291.39426
291.24501
291.10818
290.98282
290.86811
290.76335
290.66788
290.58117
290.50271
290.4321
290.369
326.69463
320.27601
315.77281
312.33572
309.58305
307.31069
305.39606
303.75907
302.34404
301.11036
300.02726
299.07084
298.22204
297.46546
296.78845
296.18054
295.63295
295.13829
294.69029
294.2836
293.91363
293.57644
293.2686
292.98715
292.72951
292.49342
292.2769
292.07823
291.89587
291.72847
291.57484
291.43393
291.30481
291.18664
291.07871
290.98037
290.89106
290.81029
290.73764
290.67276
326.80054
320.48928
316.0586
312.67317
309.95775
307.71192
305.81556
304.1904
302.78216
301.55136
300.46816
299.50937
298.65652
297.89468
297.21158
296.59702
296.04245
295.54066
295.0855
294.67172
294.29481
293.95087
293.63653
293.34884
293.08524
292.84349
292.62161
292.41787
292.23074
292.05887
291.90107
291.75627
291.62355
291.50206
291.39108
291.28997
291.19815
291.11513
291.04049
290.97387
326.90002
320.68963
316.32742
312.9912
310.31172
308.09199
306.21409
304.60141
303.20091
301.97413
300.89204
299.93211
299.07644
298.31052
297.62242
297.00224
296.44163
295.93357
295.47203
295.05187
294.66866
294.31855
293.99822
293.70475
293.4356
293.18856
292.96164
292.75313
292.5615
292.3854
292.22363
292.07513
291.93896
291.81429
291.70039
291.5966
291.50235
291.41715
291.34057
291.27223
326.99382
320.87851
316.58111
313.29181
310.647
308.45284
306.59346
304.9937
303.60168
302.37983
301.29988
300.3399
299.48248
298.71351
298.02141
297.39653
296.83076
296.31722
295.85003
295.42415
295.03524
294.6795
294.35367
294.05487
293.78058
293.52859
293.29696
293.08397
292.88809
292.70798
292.54244
292.39042
292.25097
292.12326
292.00654
291.90018
291.80358
291.71626
291.63778
291.56776
327.08255
321.05714
316.82124
313.57674
310.96536
308.79619
306.95525
305.36872
303.98575
302.76959
301.69263
300.73351
299.87527
299.10418
298.40897
297.78025
297.2101
296.69181
296.21965
295.78868
295.39463
295.03379
294.70293
294.39921
294.12016
293.86358
293.62754
293.41034
293.21046
293.02657
292.85746
292.70209
292.55951
292.42889
292.30948
292.20063
292.10177
292.0124
291.93206
291.86039
327.16674
321.22656
317.04914
313.84749
311.26834
309.12355
307.30088
305.72777
304.35428
303.14441
302.07117
301.1137
300.25545
299.48306
298.78554
298.15373
297.57992
297.05757
296.58107
296.14559
295.74693
295.38147
295.04603
294.7378
294.45435
294.19351
293.95336
293.73223
293.52859
293.34113
293.16864
293.01009
292.86453
292.73112
292.60913
292.4979
292.39685
292.30548
292.22333
292.15004
327.24682
321.38766
317.26597
314.10535
311.55729
309.43625
307.63164
306.07202
304.70833
303.50525
302.43633
301.48117
300.62362
299.85065
299.15152
298.51732
297.94052
297.41472
296.93446
296.495
296.09225
295.72263
295.38302
295.07067
294.78317
294.51838
294.27441
294.0496
293.84244
293.65161
293.47594
293.31437
293.16598
293.02991
292.90545
292.79192
292.68876
292.59544
292.51154
292.43665
327.32318
321.54119
317.47273
314.35145
311.83339
309.73548
307.94866
306.40255
305.04888
303.85296
302.78885
301.83658
300.98035
300.20742
299.50733
298.87135
298.29215
297.76349
297.28001
296.83708
296.43069
296.05734
295.71396
295.39785
295.10663
294.8382
294.59069
294.36244
294.15198
293.958
293.77932
293.6149
293.4638
293.32521
293.19837
293.08264
292.97744
292.88224
292.79661
292.72016
327.39614
321.68784
317.67029
314.58679
312.0977
310.02229
308.25295
306.7203
305.37682
304.18836
303.12947
302.18057
301.32619
300.55386
299.85336
299.21617
298.63512
298.1041
297.61789
297.17195
296.76236
296.38569
296.03891
295.71939
295.42477
295.15299
294.9022
294.67076
294.45721
294.26026
294.07875
293.91162
293.75797
293.61696
293.48786
293.37001
293.26284
293.16582
293.07852
293.00053
327.46598
321.82817
317.85941
314.81223
312.35113
310.29761
308.54544
307.02616
305.69294
304.51218
303.45885
302.51373
301.66165
300.89041
300.19
299.55209
298.96968
298.43678
297.94829
297.49978
297.0874
296.70778
296.35796
296.03535
295.73763
295.46277
295.20894
294.97454
294.75812
294.55839
294.37421
294.20453
294.04845
293.90515
293.77388
293.654
293.54492
293.44614
293.3572
293.2777
327.53296
321.9627
318.04078
315.02856
312.59452
310.56228
308.82694
307.32091
305.99799
304.8251
303.7776
302.8366
301.98722
301.21749
300.51761
299.87944
299.2961
298.76176
298.27142
297.82073
297.40592
297.02371
296.67118
296.34578
296.04525
295.76757
295.51095
295.2738
295.0547
294.85238
294.66568
294.4936
294.33522
294.18973
294.05639
293.93455
293.82365
293.72315
293.63261
293.55164
327.59729
322.09188
318.21498
315.23645
312.82859
310.81706
309.0982
307.60526
306.29265
305.12774
304.08629
303.1497
302.30335
301.53551
300.83656
300.19851
299.61465
299.07926
298.58744
298.13494
297.71807
297.33359
296.97865
296.65076
296.34767
296.06742
295.80824
295.56856
295.34697
295.14221
294.95316
294.77881
294.61826
294.47068
294.33537
294.21166
294.09898
293.99683
293.90473
293.82231
327.65917
322.2161
318.38254
315.43652
313.05401
311.06262
309.35989
307.87987
306.57753
305.4207
304.38545
303.45351
302.61049
301.84485
301.14717
300.50961
299.92559
299.38951
298.89656
298.44258
298.02396
297.63752
297.28047
296.95035
296.64496
296.36237
296.10084
295.85882
295.63492
295.4279
295.23664
295.06016
294.89754
294.74799
294.61079
294.48528
294.3709
294.26714
294.17353
294.08969
327.71877
322.33573
318.54394
315.62932
313.27136
311.29957
309.61263
308.14533
306.85321
305.70449
304.67559
303.74849
302.90904
302.14589
301.44978
300.81302
300.22916
299.6927
299.19894
298.7438
298.32372
297.93561
297.57671
297.24462
296.93717
296.65246
296.38878
296.14461
295.91857
295.70944
295.51612
295.33763
295.17307
295.02164
294.88263
294.7554
294.63938
294.53406
294.43898
294.35374
327.77624
322.45107
318.69959
315.81533
313.48117
311.52846
309.85695
308.40219
307.1202
305.97962
304.95716
304.03506
303.19938
302.43896
301.74469
301.10901
300.5256
299.98907
299.49478
299.03876
298.6175
298.22797
297.86748
297.53365
297.22436
296.93774
296.6721
296.42596
296.19794
295.98686
295.79161
295.61123
295.44482
295.29162
295.15089
295.02201
294.90441
294.79757
294.70105
294.61444
327.83173
322.56242
318.84988
315.995
313.68394
311.74979
310.09338
308.65093
307.37899
306.24653
305.23058
304.31361
303.48188
302.72439
302.03219
301.39785
300.81515
300.2788
299.78426
299.3276
298.90542
298.51472
298.15287
297.81751
297.50659
297.21825
296.95085
296.70289
296.47306
296.26015
296.06311
295.88095
295.71281
295.55792
295.41555
295.28509
295.16596
295.05766
294.95974
294.87179
327.88536
322.67003
318.99515
316.16872
313.88008
311.96402
310.32236
308.89203
307.63001
306.50566
305.49626
304.58451
303.75687
303.0025
302.31257
301.67979
301.09803
300.56209
300.06753
299.61049
299.18762
298.79597
298.43296
298.0963
297.78394
297.49407
297.22506
296.97545
296.74394
296.52936
296.33063
296.14681
295.97704
295.82054
295.67661
295.54463
295.42404
295.31432
295.21503
295.12577
327.93724
322.77413
319.13571
316.33686
314.06999
312.17155
310.54432
309.12588
307.87367
306.75738
305.75456
304.84812
304.02468
303.27357
302.58609
301.95506
301.37445
300.83915
300.34478
299.88757
299.46421
299.07183
298.70787
298.37008
298.05646
297.76523
297.49477
297.24367
297.01063
296.79448
296.59419
296.40882
296.2375
296.07949
295.93407
295.80064
295.67863
295.56754
295.46692
295.37636
327.98749
322.87493
319.27184
316.49974
314.25404
312.37276
310.75965
309.35288
308.11035
307.00206
306.00582
305.10474
304.28561
303.53789
302.85301
302.2239
301.64462
301.11014
300.61617
300.15898
299.73534
299.3424
298.97768
298.63894
298.32424
298.0318
297.76005
297.50759
297.27314
297.05556
296.85382
296.66699
296.49422
296.33476
296.18793
296.05311
295.92974
295.81731
295.71539
295.62357
328.03619
322.97263
319.4038
316.65767
314.43256
312.568
310.96868
309.57338
308.34039
307.24004
306.25037
305.35468
304.53993
303.79571
303.11357
302.48653
301.90874
301.37526
300.88186
300.42487
300.00111
299.6078
299.24248
298.90297
298.58733
298.29384
298.02094
297.76725
297.53152
297.31262
297.10953
296.92133
296.7472
296.58638
296.4382
296.30204
296.17736
296.06365
295.96046
295.8674
328.08343
323.06739
319.53181
316.81092
314.60583
312.75759
311.17176
309.78769
308.56412
307.47162
306.4885
305.59823
304.78792
304.04729
303.36799
302.74315
302.167
301.63467
301.14199
300.68537
300.26167
299.86814
299.50238
299.16224
298.84582
298.55141
298.27749
298.0227
297.7858
297.56568
297.36134
297.17188
296.99646
296.83436
296.68489
296.54745
296.4215
296.30654
296.20212
296.10784
328.12929
323.15938
319.65609
316.95973
314.77414
312.94181
311.36917
309.99614
308.78182
307.69711
306.7205
305.83565
305.02982
304.29285
303.6165
302.99396
302.41958
301.88854
301.39673
300.94062
300.51712
300.12353
299.75747
299.41684
299.09977
298.80457
298.52976
298.27398
298.03602
297.81479
297.6093
297.41864
297.24202
297.07869
296.928
296.78934
296.66217
296.546
296.44037
296.3449
328.17384
323.24875
319.77684
317.10434
314.93774
313.12093
311.56119
310.19898
308.99378
307.91675
306.94662
306.0672
305.26588
304.53262
303.85929
303.23917
302.66666
302.13702
301.64622
301.19075
300.76758
300.37406
300.00784
299.66685
299.34925
299.05339
298.7778
298.52115
298.28223
298.05998
297.85342
297.66166
297.4839
297.31942
297.16756
297.02773
296.89938
296.78203
296.67524
296.5786
328.21715
323.33562
319.89423
317.24496
315.09686
313.2952
311.74808
310.39648
309.20025
308.13082
307.1671
306.29309
305.4963
304.76681
304.09656
303.47894
302.9084
302.38028
301.89059
301.43588
301.01317
300.61984
300.25358
299.91235
299.59435
299.29794
299.02167
298.76424
298.52446
298.30128
298.09373
297.90094
297.72212
297.55655
297.40358
297.26263
297.13315
297.01466
296.90672
296.80894
328.25928
323.42013
320.00843
317.38177
315.25171
313.46485
311.93008
310.58888
309.40147
308.33953
307.38218
306.51356
305.72131
304.99561
304.32851
303.71345
303.14497
302.61846
302.12999
301.67615
301.254
300.86097
300.49479
300.15343
299.83513
299.53827
299.26143
299.00331
298.76277
298.53874
298.33028
298.13653
297.95671
297.79011
297.63609
297.49406
297.36348
297.24389
297.13484
297.03593
328.30029
323.50238
320.11959
317.51497
315.4025
313.63009
312.10739
310.7764
309.59766
308.54312
307.59207
306.72881
305.9411
305.21922
304.5553
303.94287
303.37652
302.85171
302.36454
301.91166
301.49019
301.09756
300.73155
300.39017
300.07166
299.77445
299.49712
299.23842
298.99719
298.77239
298.5631
298.36846
298.18771
298.02013
297.8651
297.72203
297.59041
297.46974
297.3596
297.25959
328.34022
323.58247
320.22785
317.64471
315.54941
313.79112
312.28023
310.95925
309.78903
308.74178
307.79696
306.93903
306.15585
305.43781
304.77711
304.16735
303.60319
303.08015
302.59436
302.14255
301.72183
301.3297
300.96395
300.62263
300.30402
300.00654
299.72882
299.46961
299.22777
299.00228
298.79222
298.59676
298.41512
298.24663
298.09064
297.94658
297.81394
297.69223
297.58103
297.47994
328.37914
323.66052
320.33335
317.77115
315.6926
313.9481
312.44879
311.13761
309.97578
308.9357
307.99706
307.1444
306.36574
305.65154
304.99408
304.38704
303.82514
303.30392
302.81959
302.36891
301.94903
301.55747
301.19208
300.85092
300.53227
300.23462
299.95658
299.69693
299.45456
299.22845
299.01769
298.82146
298.639
298.46963
298.31273
298.16773
298.0341
297.91139
297.79915
297.69701
328.41707
323.7366
320.43619
317.89443
315.83224
314.10123
312.61323
311.31168
310.15808
309.12508
308.19252
307.34511
306.57094
305.86058
305.20639
304.60209
304.04248
303.52314
303.04034
302.59086
302.17189
301.78099
301.41603
301.07509
300.7565
300.45874
300.18046
299.92045
299.67761
299.45094
299.23954
299.0426
298.85937
298.68918
298.53141
298.38549
298.25092
298.12723
298.01398
297.9108
328.45407
323.81079
320.53651
318.01468
315.96847
314.25064
312.77373
311.48161
310.3361
309.31007
308.38353
307.5413
306.77161
306.06508
305.41416
304.81264
304.25535
303.73795
303.25673
302.8085
302.3905
302.00033
301.63587
301.29523
300.97676
300.67897
300.40052
300.14021
299.89696
299.66979
299.45781
299.26022
299.07627
298.9053
298.7467
298.59991
298.46442
298.33978
298.22555
298.12135
328.49018
323.88319
320.63438
318.13203
316.10143
314.3965
312.93044
311.64757
310.51001
309.49084
308.57023
307.73314
306.96788
306.26518
305.61754
305.01881
304.46388
303.94845
303.46885
303.02194
302.60498
302.21559
301.85169
301.51142
301.19313
300.89537
300.61681
300.35627
300.11267
299.88506
299.67255
299.47435
299.28972
299.11802
298.95863
298.811
298.67463
298.54907
298.43387
298.32867
328.52542
323.95386
320.72993
318.24659
316.23125
314.53893
313.0835
311.8097
310.67995
309.66754
308.75278
307.92077
307.15992
306.46102
305.81665
305.22073
304.66819
304.15476
303.67682
303.23127
302.81539
302.42685
302.06357
301.72372
301.40568
301.10801
300.82939
300.56867
300.32479
300.09678
299.8838
299.68503
299.49978
299.32738
299.16724
299.01881
298.88158
298.75512
298.63899
298.53281
328.55984
324.02286
320.82323
318.35847
316.35805
314.67806
313.23305
311.96815
310.84606
309.84029
308.93132
308.10433
307.34784
306.65273
306.01163
305.41852
304.86838
304.35698
303.88075
303.43659
303.02185
302.63419
302.27158
301.93221
301.61448
301.31694
301.03833
300.77748
300.53336
300.30501
300.09159
299.89231
299.70647
299.53341
299.37255
299.22335
299.0853
298.95796
298.84092
298.73378
328.59345
324.09027
320.91437
318.46777
316.48194
314.81403
313.37921
312.12304
311.00849
310.00925
309.10597
308.28394
307.53178
306.84043
306.20259
305.6123
305.06457
304.55522
304.08072
303.638
303.22443
302.8377
302.47581
302.13697
301.81958
301.52224
301.24368
300.98275
300.73843
300.50979
300.29598
300.09623
299.90983
299.73616
299.57461
299.42466
299.28582
299.15764
299.03969
298.93161
328.62631
324.15613
321.00343
318.57459
316.60302
314.94693
313.52211
312.27449
311.16734
310.17454
309.27686
308.45974
307.71185
307.02424
306.38965
305.80217
305.25686
304.74958
304.27683
303.83557
303.42321
303.03746
302.67633
302.33805
302.02106
301.72396
301.44549
301.18453
300.94007
300.71117
300.49701
300.29682
300.10991
299.93565
299.77345
299.62279
299.48317
299.35416
299.23534
299.12634
328.65842
324.22051
321.09049
318.67901
316.7214
315.07688
313.66184
312.42262
311.32274
310.33626
309.44411
308.63183
307.88818
307.20427
306.57291
305.98823
305.44535
304.94016
304.46918
304.02941
303.61829
303.23354
302.87321
302.53554
302.21898
301.92216
301.64383
301.38288
301.1383
300.90919
300.69472
300.49413
300.30674
300.13192
299.9691
299.81775
299.67739
299.54758
299.4279
299.318
328.68982
324.28346
321.17561
318.78111
316.83716
315.20398
313.79853
312.56755
311.4748
310.49454
309.60784
308.80033
308.06087
307.38063
306.75248
306.1706
305.63014
305.12704
304.65785
304.2196
303.80973
303.42603
303.06652
302.72949
302.41341
302.1169
301.83874
301.57784
301.33319
301.1039
300.88915
300.6882
300.50036
300.32501
300.1616
300.00959
299.86851
299.73791
299.61741
299.50661
328.72054
324.34502
321.25887
318.88098
316.9504
315.32831
313.93228
312.70937
311.62363
310.64949
309.76815
308.96535
308.23002
307.55342
306.92846
306.34936
305.81133
305.31032
304.84292
304.4062
303.99763
303.61498
303.25633
302.91998
302.6044
302.30824
302.03029
301.76947
301.52479
301.29535
301.08036
300.87907
300.69081
300.51497
300.35098
300.19834
300.05656
299.92521
299.80388
299.69221
328.75058
324.40525
321.34032
318.97869
317.0612
315.44998
314.06316
312.84818
311.76932
310.8012
309.92513
309.12698
308.39574
307.72273
307.10094
306.52461
305.98899
305.49008
305.0245
304.58932
304.18204
303.80048
303.44272
303.10707
302.79202
302.49624
302.21853
301.95782
301.71313
301.48358
301.26838
301.06678
300.87813
300.70182
300.5373
300.38404
300.24158
300.10949
299.98736
299.87484
328.77999
324.46418
321.42002
319.07431
317.16963
315.56907
314.19128
312.98408
311.91197
310.94976
310.0789
309.28532
308.55812
307.88867
307.27001
306.69643
306.16322
305.66641
305.20264
304.76901
304.36306
303.9826
303.62574
303.29081
302.97633
302.68096
302.40352
302.14295
301.89828
301.66865
301.45326
301.25138
301.06237
300.88562
300.72057
300.56672
300.42361
300.29079
300.16789
300.05453
328.80877
324.52186
321.49803
319.1679
317.27578
315.68565
314.31672
313.11714
312.05168
311.09528
310.22953
309.44046
308.71725
308.05132
307.43576
306.86492
306.33411
305.83939
305.37743
304.94537
304.54074
304.1614
303.80547
303.47129
303.15738
302.86245
302.58531
302.3249
302.08029
301.8506
301.63504
301.43292
301.24356
301.06639
300.90084
300.74643
300.60267
300.46916
300.3455
300.23131
328.83695
324.57833
321.5744
319.25953
317.3797
315.7998
314.43956
313.24747
312.18852
311.23784
310.37712
309.5925
308.87322
308.21077
307.59828
307.03015
306.50172
306.00909
305.54894
305.11845
304.71516
304.33695
303.98196
303.64855
303.33525
303.04077
302.76394
302.50373
302.25919
302.02946
301.81378
301.61142
301.42175
301.24418
301.07816
300.92319
300.77882
300.64463
300.52021
300.40522
328.86454
324.63362
321.64918
319.34925
317.48147
315.91159
314.55987
313.37513
312.32258
311.37751
310.52175
309.7415
309.02611
308.36709
307.75765
307.19221
306.66614
306.17559
305.71725
305.28832
304.88638
304.50932
304.15529
303.82265
303.50998
303.21597
302.93949
302.67949
302.43504
302.20531
301.9895
301.78694
301.59698
301.41902
301.25255
301.09705
300.95209
300.81722
300.69208
300.5763
328.89156
324.68777
321.72241
319.43713
317.58115
316.0211
314.67773
313.5002
312.45393
311.51439
310.66349
309.88757
309.17599
308.52037
307.91394
307.35116
306.82745
306.33896
305.88243
305.45507
305.05448
304.67857
304.3255
303.99366
303.68162
303.38811
303.11199
302.85222
302.60789
302.37816
302.16227
301.95952
301.76928
301.59097
301.42406
301.26805
301.1225
300.98699
300.86113
300.74457
328.91803
324.74082
321.79415
319.52321
317.6788
316.12838
314.79321
313.62275
312.58266
311.64854
310.80244
310.03076
309.32295
308.67069
308.06723
307.50709
306.9857
306.49927
306.04453
305.61875
305.21951
304.84475
304.49266
304.16163
303.85025
303.55724
303.28149
303.02198
302.77779
302.54808
302.33212
302.1292
301.93871
301.76006
301.59272
301.43622
301.29011
301.15396
301.02741
300.91009
328.94397
324.79278
321.86443
319.60755
317.77448
316.2335
314.90637
313.74285
312.70882
311.78003
310.93865
310.17115
309.46707
308.8181
308.21759
307.66005
307.14098
306.65658
306.20364
305.77942
305.38154
305.00794
304.65683
304.32662
304.0159
303.72342
303.44806
303.18881
302.94477
302.71511
302.49909
302.29602
302.10529
301.92632
301.75859
301.60161
301.45495
301.31818
301.19094
301.07287
328.96938
324.8437
321.9333
319.69019
317.86824
316.33652
315.01727
313.86057
312.83249
311.90895
311.0722
310.30882
309.6084
308.9627
308.36508
307.81013
307.29335
306.81097
306.35982
305.93715
305.54062
305.16819
304.81806
304.48868
304.17863
303.88668
303.61173
303.35276
303.10889
302.87929
302.66323
302.46003
302.26908
302.0898
301.92168
301.76424
301.61705
301.47968
301.35177
301.23296
328.99429
324.8936
322.00079
319.77118
317.96013
316.43749
315.12598
313.97597
312.95374
312.03534
311.20315
310.44382
309.74701
309.10453
308.50978
307.95738
307.44287
306.9625
306.51311
306.092
305.69682
305.32555
304.97642
304.64786
304.3385
304.0471
303.77256
303.51389
303.27019
303.04067
302.82459
302.62127
302.43011
302.25054
302.08205
301.92417
301.77645
301.6385
301.50993
301.3904
329.0187
324.94251
322.06695
319.85057
318.0502
316.53648
315.23255
314.0891
313.07262
312.15928
311.33157
310.57624
309.88298
309.24367
308.65175
308.10188
307.58961
307.11123
306.6636
306.24402
305.85019
305.48008
305.13195
304.80423
304.49555
304.2047
303.93059
303.67222
303.42873
303.19929
302.9832
302.77978
302.58842
302.40858
302.23974
302.08142
301.9332
301.79467
301.66546
301.54523
329.04264
324.99046
322.13179
319.9284
318.1385
316.63352
315.33704
314.20003
313.18919
312.28082
311.45753
310.70612
310.01636
309.38018
308.79106
308.24367
307.73362
307.25722
306.81133
306.39329
306.00079
305.63185
305.2847
304.95782
304.64984
304.35955
304.08587
303.82782
303.58453
303.3552
303.13911
302.9356
302.74406
302.56396
302.39477
302.23604
302.08733
301.94824
301.8184
301.69747
329.0661
325.03746
322.19537
320.0047
318.22508
316.72867
315.43949
314.30882
313.30351
312.40003
311.58107
310.83352
310.14722
309.51412
308.92775
308.38283
307.87497
307.40052
306.95636
306.53984
306.14868
305.78089
305.43474
305.1087
304.80142
304.51169
304.23845
303.98073
303.73765
303.50844
303.29236
303.08877
302.89707
302.71671
302.5472
302.38806
302.23887
302.09923
301.96878
301.84716
329.08911
325.08355
322.25771
320.07952
318.30998
316.82197
315.53997
314.41551
313.41564
312.51696
311.70227
310.95852
310.27561
309.64554
309.06189
308.5194
308.01372
307.54119
307.09874
306.68373
306.2939
305.92726
305.5821
305.2569
304.95032
304.66117
304.38838
304.13099
303.88814
303.65904
303.44299
303.23933
303.04748
302.86688
302.69705
302.53752
302.38787
302.24769
302.11663
301.99435
329.11168
325.12875
322.31885
320.15289
318.39324
316.91348
315.63852
314.52015
313.52562
312.63167
311.82116
311.08115
310.40158
309.77451
309.19354
308.65345
308.1499
307.67929
307.23854
306.82503
306.43651
306.07101
305.72684
305.40249
305.09661
304.80804
304.5357
304.27865
304.03603
303.80706
303.59104
303.38733
303.19533
303.01451
302.84437
302.68446
302.53435
302.39366
302.26201
302.13907
329.13381
325.17308
322.3788
320.22485
318.47489
317.00323
315.73518
314.6228
313.63352
312.7442
311.93781
311.20148
310.5252
309.90108
309.32275
308.78502
308.28359
307.81487
307.37579
306.96377
306.57655
306.2122
305.86902
305.5455
305.24033
304.95233
304.68045
304.42375
304.18136
303.95254
303.73656
303.5328
303.34067
303.15963
302.9892
302.82892
302.67837
302.53716
302.40493
302.28135
329.15552
325.21656
322.43761
320.29543
318.55499
317.09127
315.83
314.72349
313.73937
312.8546
312.05227
311.31955
310.64651
310.02529
309.44957
308.91417
308.41484
307.94798
307.51056
307.10001
306.71409
306.35087
306.00866
305.68598
305.38152
305.0941
304.82268
304.56633
304.32419
304.09551
303.87958
303.67578
303.48353
303.30229
303.13157
302.97093
302.81995
302.67824
302.54545
302.42123
329.17681
325.25921
322.49529
320.36466
318.63356
317.17764
315.92302
314.82229
313.84322
312.96293
312.16458
311.43542
310.76557
310.1472
309.57405
309.04096
308.54368
308.07866
307.64289
307.23379
306.84916
306.48706
306.14583
305.82399
305.52023
305.23339
304.96243
304.70643
304.46455
304.23601
304.02015
303.81632
303.62395
303.44251
303.27153
303.11054
302.95914
302.81694
302.68358
302.55875
329.1977
325.30104
322.55188
320.43259
318.71065
317.26237
316.01428
314.91922
313.94512
313.06923
312.2748
311.54913
310.88241
310.26687
309.69624
309.16542
308.67018
308.20698
307.77283
307.36518