/*--------------------------------*- C++ -*----------------------------------*\
| =========                 |                                                 |
| \\      /  F ield         | OpenFOAM: The Open Source CFD Toolbox           |
|  \\    /   O peration     | Version:  2506                                  |
|   \\  /    A nd           | Website:  www.openfoam.com                      |
|    \\/     M anipulation  |                                                 |
\*---------------------------------------------------------------------------*/
FoamFile
{
    version     2.0;
    format      ascii;
    arch        "LSB;label=32;scalar=64";
    class       volScalarField;
    location    "17000/rock";
    object      T;
}
// * * * * * * * * * * * * * * * * * * * * * * * * * * * * * * * * * * * * * //

dimensions      [0 0 0 1 0 0 0];

internalField   nonuniform List<scalar> 
16000
(
317.74762
306.97989
301.15998
297.53425
295.07163
293.29921
291.96915
290.93896
290.12089
289.45804
288.91194
288.45565
288.06984
287.74024
287.45612
287.20929
286.99335
286.8033
286.63512
286.48557
286.35202
286.2323
286.12462
286.02747
285.93958
285.8599
285.78749
285.72158
285.66148
285.60659
285.5564
285.51044
285.46827
285.4295
285.39376
285.36066
285.32978
285.30064
285.27257
285.2445
320.43246
309.70573
303.49323
299.50682
296.75887
294.7642
293.25924
292.08924
291.15767
290.40132
289.77722
289.25512
288.81321
288.43538
288.10946
287.82615
287.57818
287.35985
287.16656
286.99464
286.84106
286.70336
286.57948
286.46769
286.36655
286.27483
286.19147
286.11559
286.0464
285.98321
285.92542
285.87249
285.82395
285.77933
285.73821
285.70015
285.66471
285.63136
285.59944
285.56807
321.96723
311.71382
305.41815
301.23499
298.29042
296.12456
294.4759
293.18616
292.15453
291.31404
290.6186
290.03558
289.54124
289.11795
288.75239
288.4343
288.15564
287.9101
287.69259
287.49902
287.32601
287.17083
287.03116
286.90508
286.79098
286.68749
286.59341
286.50776
286.42964
286.35829
286.29304
286.23329
286.1785
286.12815
286.08179
286.03894
285.99913
285.96182
285.92643
285.89227
322.95083
313.22447
307.00177
302.73677
299.66893
297.37827
295.61593
294.22649
293.10857
292.19366
291.43395
290.79522
290.25237
289.78666
289.3838
289.03277
288.72491
288.45335
288.21259
287.99815
287.80638
287.63426
287.47927
287.3393
287.21258
287.0976
286.99305
286.89783
286.81098
286.73165
286.6591
286.59267
286.53176
286.47583
286.42437
286.37688
286.33288
286.29185
286.25327
286.21659
323.64217
314.39556
308.31394
304.04005
300.90454
298.52813
296.67916
295.20891
294.01814
293.03852
292.2217
291.53263
290.94538
290.4404
290.00273
289.62073
289.28524
288.98895
288.72598
288.49154
288.28172
288.09326
287.92345
287.77002
287.63104
287.50488
287.39014
287.2856
287.19022
287.1031
287.02341
286.95045
286.88358
286.82221
286.7658
286.71384
286.66582
286.62126
286.57969
286.54065
324.16281
315.3314
309.41423
305.17465
302.01115
299.58013
297.66775
296.13375
294.8827
293.84775
292.98086
292.24683
291.61931
291.07832
290.60839
290.19747
289.836
289.51632
289.23224
288.97873
288.75162
288.54746
288.36337
288.19693
288.04609
287.90909
287.78444
287.67084
287.56717
287.47244
287.3858
287.30649
287.23381
287.16715
287.10593
287.04964
286.99777
286.94985
286.90543
286.86414
324.57503
316.0999
310.34944
306.16811
303.0038
300.54206
298.58544
297.00259
295.70269
294.62114
293.71094
292.93718
292.27351
291.69974
291.20016
290.76241
290.37666
290.03497
289.73094
289.4593
289.21569
288.99651
288.79871
288.61975
288.45746
288.30999
288.17574
288.05334
287.94161
287.8395
287.7461
287.6606
287.58228
287.51048
287.44461
287.38414
287.32856
287.27741
287.23027
287.18681
324.91354
316.74584
311.15518
307.04419
303.89703
301.42236
299.43695
297.81789
296.47924
295.3591
294.4119
293.60342
292.90758
292.30424
291.77758
291.31509
290.90677
290.5445
290.22169
289.93289
289.67362
289.4401
289.22919
289.03822
288.86491
288.70734
288.56382
288.43292
288.31338
288.20411
288.10415
288.01264
287.92884
287.85206
287.78169
287.71717
287.65801
287.60375
287.55399
287.50841
325.19917
317.29943
311.85822
307.82264
304.70412
302.22947
300.22742
298.58268
297.21404
296.06247
295.08407
294.24556
293.52137
292.89153
292.34032
291.85518
291.426
291.04457
290.70416
290.39921
290.12511
289.87798
289.65456
289.45209
289.26822
289.10093
288.94848
288.80937
288.68229
288.56609
288.45978
288.36246
288.27334
288.19174
288.117
288.04858
287.98596
287.9287
287.8764
287.82875
325.4453
317.78162
312.47874
308.51959
305.43675
302.97138
300.96209
299.30028
297.90912
296.73243
295.72808
294.86389
294.11491
293.46154
292.88821
292.38243
291.93408
291.5349
291.17808
290.85799
290.56991
290.30989
290.07459
289.86116
289.66719
289.49059
289.32955
289.18254
289.04818
288.92529
288.81283
288.70989
288.61564
288.52936
288.45041
288.37821
288.31225
288.25207
288.1973
288.14763
325.66093
318.20735
313.03208
309.14811
306.10499
303.65538
301.64604
299.9741
298.56672
297.3704
296.34479
295.45887
294.68842
294.0143
293.42119
292.89673
292.43086
292.01532
291.64326
291.30902
291.00781
290.73563
290.48907
290.26523
290.06162
289.87612
289.70686
289.55225
289.41089
289.28156
289.16318
289.0548
288.95559
288.86479
288.78176
288.70591
288.63671
288.57371
288.51654
288.46487
325.8524
318.58756
313.53001
309.71878
306.71743
304.28802
302.28404
300.60754
299.18918
297.97794
296.93521
296.03114
295.24228
294.55
293.93931
293.39804
292.91624
292.48568
292.09954
291.75213
291.43865
291.15504
290.89785
290.66413
290.45136
290.25737
290.08024
289.91836
289.77028
289.63475
289.51066
289.39705
289.29304
289.19789
289.11092
289.03153
288.95919
288.89346
288.83394
288.78032
326.02432
318.93043
313.9817
310.24016
307.28135
304.87508
302.88051
301.20383
299.77882
298.5567
297.50048
296.58144
295.77696
295.06892
294.44272
293.88641
293.39019
292.94592
292.54683
292.18721
291.86228
291.56796
291.30076
291.05772
290.83627
290.63419
290.44957
290.28073
290.12621
289.98473
289.85516
289.7365
289.62789
289.52853
289.43775
289.35494
289.27957
289.21117
289.14937
289.09383
326.18016
319.24223
314.39435
310.71926
307.80288
305.42164
303.43944
301.76605
300.33794
299.10835
298.04177
297.11061
296.29301
295.57143
294.93163
294.36195
293.85275
293.39602
292.98505
292.61418
292.27861
291.97429
291.6977
291.44587
291.2162
291.00647
290.81471
290.63924
290.47856
290.33138
290.19655
290.07305
289.95999
289.85658
289.76212
289.67601
289.59769
289.52672
289.46268
289.40524
326.32257
319.52784
314.77373
311.16182
308.28723
305.93213
303.96445
302.29704
300.86871
299.63452
298.56032
297.61953
296.79106
296.05794
295.40631
294.82482
294.30401
293.83602
293.4142
293.03298
292.68757
292.37393
292.08857
291.82848
291.59107
291.37408
291.17555
290.99376
290.82721
290.67458
290.53471
290.40656
290.28923
290.18192
290.08392
289.99461
289.91345
289.83996
289.77373
289.71444
326.45361
319.79111
315.12447
311.57257
308.73881
306.4104
304.45876
302.79941
301.37321
300.13681
299.05732
298.1091
297.27178
296.52893
295.86711
295.27525
294.74411
294.26597
293.83431
293.4436
293.08912
292.76685
292.47329
292.20547
291.96077
291.73693
291.53199
291.3442
291.17206
291.01423
290.86954
290.73693
290.61551
290.50444
290.40303
290.31064
290.22671
290.15077
290.08242
290.02131
326.57493
320.03515
315.45035
311.95544
309.16137
306.8598
304.92526
303.27556
301.85338
300.61677
299.53398
298.58023
297.73585
296.98492
296.31439
295.71349
295.17322
294.68599
294.24543
293.84606
293.48325
293.15299
292.85182
292.57677
292.32523
292.09495
291.88395
291.69048
291.51302
291.35024
291.20094
291.06407
290.93871
290.82405
290.71934
290.62397
290.53737
290.45906
290.38863
290.32572
326.68786
320.26248
315.75451
312.31375
309.55811
307.28326
305.3665
303.72765
302.31099
301.07584
299.99144
299.03384
298.18398
297.42643
296.74855
296.13984
295.59153
295.09622
294.64763
294.24041
293.86996
293.53234
293.22412
292.94233
292.6844
292.44806
292.23134
292.0325
291.85001
291.68251
291.52882
291.38788
291.25876
291.14063
291.03276
290.93452
290.84533
290.76471
290.69225
290.62757
326.79348
320.47517
316.03952
312.65028
309.93176
307.68334
305.78475
304.15765
302.74771
301.51539
300.43083
299.47081
298.61685
297.85401
297.16999
296.5546
295.99928
295.49681
295.04103
294.6267
294.24929
293.90491
293.59017
293.30213
293.03823
292.79622
292.57412
292.37021
292.18294
292.01097
291.8531
291.70828
291.57555
291.45411
291.3432
291.24218
291.15049
291.06763
290.99318
290.92677
326.89268
320.67495
316.30757
312.96737
310.28467
308.06224
306.18204
304.56734
303.16506
301.9367
300.85319
299.89199
299.03517
298.2682
297.57915
296.95811
296.39672
295.88794
295.42576
295.00503
294.62129
294.27072
293.94998
293.65615
293.38669
293.13937
292.91223
292.70354
292.51176
292.33555
292.17372
292.02518
291.88902
291.76439
291.65056
291.54687
291.45276
291.36773
291.29134
291.22322
326.98619
320.86326
316.56049
313.26706
310.6189
308.42194
306.56015
304.9583
303.56444
302.34095
301.25953
300.29822
299.4396
298.66954
297.97646
297.35069
296.7841
296.26982
295.80196
295.37549
294.98603
294.62982
294.30356
294.00438
293.72976
293.4775
293.24563
293.03245
292.83642
292.6562
292.49059
292.33854
292.19909
292.07142
291.95478
291.84852
291.75207
291.66492
291.58664
291.51685
327.07463
321.04132
316.79985
313.55106
310.93621
308.76413
306.9207
305.332
303.94712
302.72925
301.65077
300.69027
299.83079
299.05857
298.36234
297.73269
297.16169
296.64264
296.16979
295.7382
295.34359
294.98225
294.65094
294.34684
294.06744
293.81057
293.57429
293.35689
293.15686
292.97285
292.80368
292.64827
292.50569
292.37511
292.25578
292.14704
292.04833
291.95913
291.879
291.80757
327.15853
321.21017
317.02698
313.82089
311.23814
309.09033
307.26509
305.68972
304.31425
303.10262
302.0278
301.0689
300.20937
299.43581
298.73723
298.10445
297.52978
297.00664
296.52942
296.09329
295.69405
295.32808
294.99217
294.68354
294.39974
294.13859
293.8982
293.67685
293.47306
293.28547
293.11292
292.95433
292.80877
292.67541
292.5535
292.44238
292.34148
292.25029
292.16836
292.09532
327.23833
321.37069
317.24304
314.07782
311.52604
309.40188
307.59461
306.03266
304.66692
303.462
302.39145
301.43481
300.57594
299.80175
299.10153
298.46633
297.88863
297.36202
296.88101
296.44089
296.03753
295.66738
295.32729
295.01452
294.72666
294.46156
294.21733
293.9923
293.78498
293.59403
293.41828
293.25668
293.10828
292.97226
292.84788
292.73447
292.63146
292.53834
292.45466
292.38003
327.3144
321.52366
317.44902
314.323
311.80109
309.69996
307.91038
306.36186
305.00608
303.80827
302.74247
301.78868
300.93107
300.15689
299.45566
298.81866
298.23853
297.70902
297.22476
296.78114
296.37413
296.00023
295.65636
295.33982
295.04823
294.77947
294.53169
294.30323
294.09259
293.89848
293.71972
293.55526
293.40417
293.26563
293.13887
293.02327
292.91822
292.82323
292.73783
292.66164
327.38708
321.66974
317.64581
314.55741
312.06435
309.98562
308.21343
306.6783
305.33262
304.14222
303.08159
302.13111
301.27531
300.50169
299.80002
299.16177
298.57975
298.04786
297.56086
297.11421
296.70398
296.32673
295.97945
295.65948
295.36447
295.09236
294.84129
294.60962
294.3959
294.19882
294.01722
293.85006
293.69641
293.55545
293.42644
293.30872
293.20171
293.10489
293.01783
292.94011
327.45664
321.8095
317.83417
314.78193
312.31674
310.25979
308.50468
306.98284
305.64736
304.46459
303.40946
302.46272
301.60917
300.83661
300.13499
299.49599
298.91257
298.37878
297.88948
297.44023
297.02719
296.64697
296.29664
295.97356
295.67544
295.40024
295.14613
294.91149
294.69489
294.49503
294.31075
294.14104
293.98497
293.84171
293.71053
293.59078
293.48187
293.3833
293.29461
293.21539
327.52333
321.94346
318.01477
314.99734
312.55908
310.52332
308.78494
307.27627
305.95103
304.77606
303.72671
302.78404
301.93315
301.16205
300.46093
299.82163
299.23727
298.702
298.21081
297.75937
297.34388
296.96106
296.60799
296.28212
295.98117
295.70314
295.44623
295.20884
294.98955
294.78709
294.6003
294.42818
294.26981
294.12436
293.99112
293.86942
293.75868
293.6584
293.56812
293.48744
327.58738
322.07207
318.1882
315.20431
312.79211
310.77695
309.05497
307.55931
306.24431
305.07727
304.0339
303.09559
302.24769
301.47844
300.77821
300.139
299.55409
299.01774
298.52506
298.07177
297.6542
297.26909
296.91361
296.58522
296.28171
296.0011
295.74161
295.50168
295.2799
295.075
294.88586
294.71147
294.55092
294.4034
294.26817
294.1446
294.03211
293.93018
293.83835
293.75623
327.64897
322.19573
318.355
315.40347
313.01648
311.02136
309.31542
307.83261
306.52781
305.36878
304.33157
303.39786
302.55324
301.78616
301.08716
300.4484
299.8633
299.32623
298.83239
298.37761
297.95827
297.57118
297.21356
296.88294
296.57712
296.29415
296.03231
295.79003
295.56593
295.35877
295.16742
294.99089
294.82828
294.67878
294.54168
294.41631
294.30212
294.19859
294.10525
294.02171
327.70828
322.31479
318.51563
315.59535
313.2328
311.25717
309.56693
308.09676
306.80211
305.65114
304.62022
303.6913
302.8502
302.08556
301.3881
300.75012
300.16514
299.62767
299.133
298.67703
298.25621
297.86744
297.50795
297.17534
296.86745
296.58235
296.31835
296.07392
295.84767
295.6384
295.44498
295.26644
295.10189
294.95051
294.81161
294.68453
294.5687
294.46361
294.3688
294.28388
327.76547
322.42957
318.67052
315.78044
313.44157
311.48492
309.81002
308.35231
307.06773
305.92483
304.9003
303.97633
303.13896
302.37701
301.68135
301.04441
300.45986
299.92229
299.42706
298.97019
298.54818
298.15797
297.79687
297.46251
297.15276
296.86574
296.59978
296.35336
296.12514
295.9139
295.71855
295.53812
295.37173
295.21857
295.07795
294.94922
294.83182
294.72523
294.62899
294.54271
327.82068
322.54035
318.82005
315.9592
313.6433
311.7051
310.04522
308.59975
307.32514
306.19031
305.17223
304.25334
303.41988
302.66082
301.96719
301.33156
300.74769
300.21027
299.71476
299.25724
298.83428
298.44288
298.08041
297.74451
297.43312
297.14438
296.87663
296.6284
296.39835
296.18529
295.98814
295.80593
295.6378
295.48296
295.3407
295.2104
295.09147
294.98342
294.88579
294.79818
327.87403
322.6474
318.96456
316.13201
313.8384
311.91819
310.27298
308.83954
307.57479
306.448
305.43642
304.52271
303.69329
302.93731
302.24592
301.61181
301.02884
300.49182
299.99627
299.53834
299.11466
298.7223
298.35866
298.02144
297.70859
297.4183
297.14895
296.89906
296.66733
296.45258
296.25375
296.06988
295.90012
295.74367
295.59986
295.46804
295.34765
295.23819
295.1392
295.05028
327.92563
322.75094
319.10436
316.29923
314.02729
312.12458
310.49371
309.07209
307.81708
306.69829
305.69323
304.78478
303.95952
303.20676
302.51779
301.88539
301.30355
300.76713
300.27175
299.81362
299.38945
298.99633
298.63172
298.29336
297.97925
297.68759
297.41678
297.16538
296.93211
296.7158
296.51541
296.32998
296.15867
296.00072
295.85541
295.72215
295.60035
295.48952
295.3892
295.299
327.97559
322.85118
319.23974
316.46121
314.2103
312.32466
310.70781
309.29779
308.05239
306.94154
305.94301
305.03987
304.21887
303.46946
302.78305
302.15255
301.572
301.03638
300.54137
300.08325
299.65876
299.26508
298.89969
298.56037
298.24515
297.95228
297.68017
297.42741
297.19273
296.97498
296.77313
296.58624
296.41348
296.25409
296.10737
295.97272
295.84956
295.73741
295.6358
295.54434
328.02401
322.94831
319.37093
316.61823
314.38778
312.51876
310.91562
309.51698
308.28106
307.17809
306.18608
305.28828
304.47162
303.72567
303.04196
302.41349
301.83441
301.29976
300.8053
300.34735
299.92274
299.52866
299.16266
298.82254
298.50639
298.21245
297.93918
297.68518
297.44921
297.23014
297.02693
296.83869
296.66456
296.50381
296.35574
296.21976
296.09529
295.98185
295.87899
295.7863
328.07097
323.04252
319.49819
316.77057
314.56003
312.70722
311.11748
309.73001
308.50342
307.40826
306.42274
305.53031
304.71804
303.97564
303.29474
302.66844
302.09096
301.55744
301.06367
300.60607
300.18149
299.78718
299.42072
299.07997
298.76301
298.46815
298.19385
297.93875
297.7016
297.48131
297.27685
297.08733
296.91192
296.74988
296.60053
296.46327
296.33755
296.22286
296.11877
296.02488
328.11655
323.13395
319.62172
316.91848
314.72731
312.89031
311.31367
309.93715
308.71976
307.63231
306.65326
305.7662
304.95838
304.2196
303.5416
302.91758
302.34184
301.80957
301.31665
300.85954
300.43514
300.04074
299.67398
299.33272
299.0151
298.71944
298.44424
298.18814
297.94994
297.72852
297.52291
297.3322
297.15559
296.99233
296.84176
296.70328
296.57634
296.46045
296.35516
296.26008
328.16082
323.22276
319.74171
317.06218
314.88988
313.0683
311.50448
310.13871
308.93036
307.85054
306.8779
305.99622
305.19287
304.45776
303.78275
303.16111
302.58722
302.05633
301.56439
301.10789
300.68381
300.28946
299.92252
299.58089
299.26273
298.9664
298.69041
298.43343
298.19426
297.97182
297.76514
297.57332
297.39557
297.23116
297.07943
296.93978
296.81167
296.69461
296.58816
296.49192
328.20385
323.30908
319.85835
317.20189
315.04798
313.24145
311.69016
310.33492
309.13548
308.06319
307.09692
306.2206
305.42173
304.69035
304.01839
303.39921
302.82726
302.29786
301.80701
301.35126
300.92761
300.53343
300.16643
299.82455
299.50598
299.20908
298.93241
298.67464
298.43461
298.21124
298.00357
297.81072
297.6319
297.4664
297.31356
297.17279
297.04356
296.92536
296.81778
296.7204
328.2457
323.39303
319.9718
317.33781
315.20181
313.40998
311.87094
310.52603
309.33534
308.27049
307.31053
306.43955
305.64518
304.91755
304.2487
303.63205
303.06213
302.53432
302.04466
301.58975
301.16665
300.77276
300.40582
300.0638
299.74491
299.44755
299.1703
298.91184
298.67103
298.44681
298.23823
298.04442
297.86461
297.69808
297.54419
297.40234
297.27202
297.15273
297.04403
296.94554
328.28643
323.47472
320.08221
317.4701
315.35158
313.57409
312.04705
310.71226
309.53018
308.47266
307.51895
306.65329
305.86341
305.13956
304.47386
303.8598
303.29199
302.76584
302.27746
301.8235
301.40105
301.00755
300.64076
300.2987
299.9796
299.68188
299.40413
299.14508
298.90358
298.67858
298.46917
298.27447
298.09372
297.92621
297.77132
297.62845
297.49707
297.37672
297.26694
297.16736
328.32609
323.55426
320.18972
317.59895
315.49747
313.734
312.21868
310.89383
309.72021
308.66991
307.72238
306.862
306.07661
305.35656
304.69404
304.08262
303.51697
302.99256
302.50555
302.05262
301.6309
301.23788
300.87134
300.52934
300.21011
299.91212
299.63397
299.3744
299.13228
298.9066
298.69641
298.50089
298.31926
298.15083
297.99498
297.85112
297.71874
297.59735
297.48652
297.38587
328.36473
323.63175
320.29447
317.72449
315.63964
313.88987
312.38603
311.07091
309.9056
308.86244
307.92102
307.06587
306.28495
305.5687
304.90939
304.30066
303.73722
303.21462
302.72904
302.27722
301.85632
301.46386
301.09766
300.75579
300.43653
300.13835
299.85988
299.59987
299.35721
299.13089
298.92
298.72371
298.54126
298.37197
298.2152
298.0704
297.93704
297.81465
297.70279
297.60109
328.40239
323.70728
320.39657
317.84687
315.77827
314.04187
312.54927
311.2437
310.08656
309.05041
308.11503
307.26507
306.4886
305.77615
305.12007
304.51406
303.95288
303.43214
302.94806
302.49741
302.07741
301.68559
301.3198
300.97814
300.65892
300.36063
300.0819
299.82152
299.57839
299.35151
299.13998
298.94298
298.75976
298.58964
298.43201
298.2863
298.152
298.02863
297.91578
297.81304
328.43911
323.78093
320.49614
317.96624
315.91348
314.19017
312.70857
311.41236
310.26324
309.234
308.30458
307.45976
306.68772
305.97907
305.32622
304.72295
304.16408
303.64523
303.16271
302.7133
302.29425
301.90314
301.53784
301.19647
300.87736
300.57902
300.30011
300.03943
299.79588
299.5685
299.35638
299.15872
298.97478
298.80389
298.64544
298.49886
298.36364
298.23933
298.1255
298.02175
328.47494
323.85278
320.59328
318.08269
316.04543
314.33492
312.86408
311.57704
310.43581
309.41337
308.48983
307.6501
306.88246
306.17759
305.52798
304.92747
304.37093
303.85403
303.3731
302.92499
302.50696
302.11661
301.75186
301.41084
301.0919
300.79358
300.51455
300.25363
300.00974
299.78191
299.56926
299.37099
299.18638
299.01475
298.85551
298.70809
298.572
298.44678
298.33199
298.22725
328.50991
323.92289
320.68808
318.19637
316.17425
314.47624
313.01595
311.73791
310.60441
309.58867
308.67093
307.83624
307.07295
306.37185
305.72549
305.12775
304.57356
304.05864
303.57935
303.13258
302.71561
302.32609
301.96194
301.62133
301.30263
301.00439
300.7253
300.46419
300.22
299.99178
299.77864
299.57982
299.39457
299.22225
299.06226
298.91404
298.77711
298.65099
298.53527
298.42956
328.54405
323.99135
320.78064
318.30736
316.30004
314.61427
313.1643
311.89508
310.76919
309.76004
308.84802
308.0183
307.25934
306.56198
305.91886
305.3239
304.77208
304.25916
303.78155
303.33616
302.9203
302.53165
302.16816
301.82801
301.5096
301.21149
300.9324
300.67115
300.42672
300.19815
299.98458
299.78524
299.5994
299.42643
299.26572
299.11674
298.97898
298.852
298.73537
298.62871
328.57739
324.05821
320.87104
318.41578
316.42292
314.74913
313.30927
312.0487
310.93028
309.9276
309.02123
308.19642
307.44174
306.74811
306.10821
305.51604
304.9666
304.45571
303.97981
303.53582
303.12112
302.73339
302.3706
302.03096
301.71289
301.41496
301.13591
300.87458
300.62995
300.40108
300.18712
299.9873
299.80091
299.62732
299.46593
299.31621
299.17766
299.04983
298.93231
298.82472
328.60997
324.12353
320.95937
318.52171
316.543
314.88093
313.45098
312.1989
311.08781
310.0915
309.19068
308.37073
307.62029
306.93036
306.29367
305.70427
305.15723
304.64838
304.1742
303.73167
303.31815
302.93137
302.56933
302.23025
301.91256
301.61486
301.33589
301.07453
300.82974
300.60061
300.3863
300.18604
299.99914
299.82496
299.66292
299.51249
299.37317
299.24453
299.12614
299.01764
328.64181
324.18737
321.04569
318.62525
316.66038
315.00978
313.58953
312.34577
311.24188
310.25184
309.3565
308.54134
307.79509
307.10882
306.47533
305.88871
305.34406
304.83727
304.36484
303.92378
303.51148
303.12569
302.76443
302.42594
302.10867
301.81124
301.5324
301.27104
301.02614
300.79679
300.58216
300.38151
300.19412
300.01939
299.85673
299.70561
299.56556
299.43612
299.31688
299.20748
328.67294
324.24977
321.13008
318.72647
316.77514
315.13578
313.72504
312.48944
311.39262
310.40875
309.5188
308.70836
307.96626
307.28362
306.6533
306.06945
305.5272
305.02247
304.55181
304.11223
303.70118
303.31641
302.95596
302.6181
302.30129
302.00417
301.7255
301.46417
301.21919
300.98966
300.77476
300.57373
300.3859
300.21065
300.04739
299.89562
299.75485
299.62463
299.50457
299.39429
328.70338
324.31079
321.21261
318.82547
316.88739
315.25902
313.8576
312.63001
311.54013
310.56231
309.67767
308.8719
308.13389
307.45485
306.82768
306.24658
305.70673
305.20407
304.73518
304.29712
303.88733
303.5036
303.144
302.8068
302.49049
302.1937
301.91523
301.65398
301.40896
301.17928
300.96413
300.76277
300.57452
300.39877
300.23495
300.08254
299.94107
299.81011
299.68923
299.57809
328.73316
324.37048
321.29333
318.9223
316.99719
315.3796
313.98731
312.76757
311.68451
310.71265
309.83323
309.03206
308.2981
307.62262
306.99858
306.42021
305.88275
305.38216
304.91506
304.47851
304.07001
303.68735
303.32861
302.9921
302.67631
302.3799
302.10166
301.84051
301.59548
301.36569
301.15032
300.94865
300.76001
300.58379
300.41943
300.26641
300.12427
299.99257
299.87091
299.75892
328.76229
324.42888
321.3723
319.01704
317.10463
315.49759
314.11425
312.90221
311.82585
310.85984
309.98557
309.18893
308.45897
307.78701
307.16607
306.59042
306.05533
305.55682
305.0915
304.65649
304.24929
303.86772
303.50987
303.17407
302.85883
302.56282
302.28484
302.02382
301.77881
301.54893
301.33337
301.13142
300.94242
300.76575
300.60088
300.44728
300.30449
300.17207
300.04964
299.93681
328.7908
324.48602
321.44958
319.10976
317.20979
315.61308
314.23852
313.03404
311.96424
311.00399
310.13479
309.34261
308.61659
307.94811
307.33024
306.7573
306.22458
305.72813
305.2646
304.83113
304.42524
304.04477
303.68784
303.35277
303.0381
302.74251
302.46482
302.20397
301.959
301.72905
301.51333
301.31113
301.12179
300.9447
300.77933
300.62517
300.48174
300.34863
300.22544
300.1118
328.81871
324.54195
321.52523
319.20052
317.31273
315.72615
314.36019
313.16312
312.09978
311.14518
310.28096
309.49318
308.77105
308.10601
307.49118
306.92092
306.39056
305.89617
305.43443
305.00251
304.59794
304.21858
303.86257
303.52826
303.21418
302.91904
302.64166
302.38099
302.13609
301.9061
301.69025
301.48782
301.29816
301.12067
300.95483
300.80012
300.65608
300.5223
300.39837
300.28393
328.84603
324.59671
321.59928
319.28938
317.41351
315.83686
314.47934
313.28954
312.23253
311.2835
310.42418
309.64073
308.92244
308.2608
307.64898
307.08137
306.55334
306.06101
305.60106
305.17068
304.76744
304.38921
304.03414
303.7006
303.38713
303.09245
302.8154
302.55494
302.31014
302.08013
301.86416
301.66152
301.47157
301.29371
301.12741
300.97218
300.82755
300.6931
300.56844
300.45322
328.87279
324.65032
321.6718
319.37639
317.51221
315.94529
314.59603
313.41337
312.36259
311.41902
310.56451
309.78534
309.07083
308.41255
307.8037
307.23872
306.71302
306.22272
305.76456
305.33573
304.93382
304.55672
304.20261
303.86985
303.55701
303.26281
302.98611
302.72588
302.48118
302.25118
302.03512
301.83229
301.64206
301.46385
301.29711
301.14137
300.99616
300.86107
300.73571
300.61972
328.89899
324.70283
321.74282
319.46161
317.60888
316.0515
314.71035
313.53469
312.49001
311.55181
310.70205
309.92708
309.2163
308.56133
307.95542
307.39305
306.86965
306.38138
305.92499
305.49771
305.09713
304.72118
304.36802
304.03606
303.72386
303.43016
303.15383
302.89384
302.64928
302.4193
302.20316
302.00016
301.80968
301.63113
301.46398
301.30775
301.16198
301.02626
300.90021
300.78346
328.92466
324.75427
321.81238
319.54508
317.70358
316.15554
314.82235
313.65356
312.61488
311.68196
310.83686
310.06602
309.35892
308.70722
308.10422
307.54443
307.02331
306.53705
306.08244
305.65669
305.25745
304.88264
304.53045
304.19929
303.88775
303.59456
303.31861
303.05888
302.81447
302.58453
302.36834
302.16519
301.97446
301.79559
301.62804
301.47134
301.32503
301.1887
301.06197
300.94448
328.94981
324.80466
321.88054
319.62687
317.79637
316.25749
314.9321
313.77006
312.73727
311.80952
310.96901
310.20225
309.49876
308.85029
308.25016
307.69292
307.17406
306.68981
306.23694
305.81274
305.41483
305.04117
304.68995
304.3596
304.04872
303.75606
303.48051
303.22105
302.9768
302.74692
302.53068
302.3274
302.13645
301.95728
301.78935
301.63218
301.48534
301.34842
301.22102
301.10281
328.97445
324.85403
321.94732
319.70701
317.88729
316.3574
315.03966
313.88423
312.85722
311.93457
311.09857
310.33581
309.6359
308.99061
308.39331
307.83859
307.32197
306.8397
306.38858
305.96591
305.56933
305.19681
304.84658
304.51705
304.20684
303.91471
303.63956
303.3804
303.13632
302.90651
302.69025
302.48685
302.29569
302.11623
301.94793
301.79033
301.64297
301.50546
301.37742
301.25849
328.9986
324.90242
322.01276
319.78554
317.97639
316.45531
315.14508
313.99615
312.97482
312.05717
311.22561
310.46679
309.77039
309.12823
308.53373
307.9815
307.4671
306.98679
306.53741
306.11626
305.72101
305.34964
305.00038
304.67167
304.36214
304.07056
303.79583
303.53696
303.29307
303.06335
302.84707
302.64357
302.45222
302.27248
302.10383
301.9458
301.79794
301.65987
301.53119
301.41156
329.02227
324.94984
322.0769
319.86252
318.06373
316.55129
315.24843
314.10586
313.09011
312.17738
311.35018
310.59524
309.9023
309.26323
308.67149
308.12172
307.60952
307.13115
306.68349
306.26385
305.86992
305.49969
305.15141
304.82353
304.51468
304.22365
303.94935
303.69079
303.4471
303.21748
303.0012
302.7976
302.60608
302.42608
302.25709
302.09864
301.9503
301.81167
301.68237
301.56206
329.04548
324.99632
322.13977
319.93797
318.14934
316.64538
315.34974
314.21344
313.20316
312.29526
311.47234
310.72122
310.03169
309.39566
308.80664
308.25931
307.74927
307.27283
306.82687
306.40874
306.01612
305.64703
305.29973
304.97268
304.66452
304.37404
304.10017
303.84193
303.59846
303.36894
303.15268
302.949
302.75731
302.57706
302.40774
302.24889
302.10008
301.9609
301.831
301.71001
329.06822
325.04189
322.2014
320.01194
318.23328
316.73763
315.44908
314.31891
313.31401
312.41086
311.59215
310.84479
310.15861
309.52559
308.93925
308.39432
307.88642
307.41188
306.96762
306.55097
306.15966
305.79171
305.44538
305.11916
304.81169
304.52178
304.24835
303.99044
303.74718
303.51778
303.30154
303.09779
302.90595
302.72546
302.55583
302.39659
302.24732
302.10761
301.97711
301.85546
329.09053
325.08656
322.26183
320.08447
318.31558
316.82809
315.54649
314.42235
313.42273
312.52424
311.70967
310.966
310.28313
309.65306
309.06937
308.5268
308.02102
307.54837
307.10577
306.69061
306.30059
305.93377
305.58842
305.26303
304.95625
304.6669
304.39392
304.13634
303.89331
303.66404
303.44782
303.24402
303.05203
302.87132
302.70139
302.54178
302.39205
302.25183
302.12074
301.99844
329.1124
325.13037
322.32109
320.15559
318.39628
316.91679
315.64202
314.5238
313.52936
312.63545
311.82495
311.08491
310.40529
309.77813
309.19705
308.65682
308.15312
307.68234
307.2414
306.82769
306.43897
306.07327
305.72889
305.40432
305.09824
304.80946
304.53693
304.27969
304.03689
303.80775
303.59158
303.38773
303.19561
303.01469
302.84446
302.68448
302.53432
302.39359
302.26193
302.139
329.13385
325.17333
322.37919
320.22533
318.47543
317.00378
315.73571
314.6233
313.63395
312.74454
311.93804
311.20158
310.52515
309.90086
309.32234
308.78442
308.28278
307.81384
307.37454
306.96229
306.57484
306.21026
305.86684
305.5431
305.23771
304.9495
304.67742
304.42052
304.17796
303.94897
303.73285
303.52896
303.33672
303.15559
302.98508
302.82474
302.67416
302.53293
302.40071
302.27715
329.15488
325.21546
322.43618
320.29373
318.55305
317.08911
315.82761
314.72089
313.73655
312.85156
312.04899
311.31604
310.64276
310.02129
309.44531
308.90966
308.41006
307.94293
307.50525
307.09443
306.70825
306.34478
306.00232
305.6794
305.3747
305.08706
304.81544
304.55889
304.31658
304.08773
303.87167
303.66774
303.47539
303.29406
303.12329
302.96261
302.8116
302.6699
302.53712
302.41295
329.17551
325.25679
322.49208
320.36082
318.62919
317.1728
315.91776
314.81663
313.8372
312.95655
312.15785
311.42835
310.75816
310.13947
309.56599
309.03257
308.53498
308.06965
307.63357
307.22418
306.83925