/*--------------------------------*- C++ -*----------------------------------*\
| =========                 |                                                 |
| \\      /  F ield         | OpenFOAM: The Open Source CFD Toolbox           |
|  \\    /   O peration     | Version:  2506                                  |
|   \\  /    A nd           | Website:  www.openfoam.com                      |
|    \\/     M anipulation  |                                                 |
\*---------------------------------------------------------------------------*/
FoamFile
{
    version     2.0;
    format      ascii;
    arch        "LSB;label=32;scalar=64";
    class       volScalarField;
    location    "30000/water";
    object      k;
}
// * * * * * * * * * * * * * * * * * * * * * * * * * * * * * * * * * * * * * //

dimensions      [0 2 -2 0 0 0 0];

internalField   nonuniform List<scalar> 
6000
(
0.0002144485
0.00021444827
0.00021444833
0.00021444852
0.00021444878
0.00021444911
0.00021444953
0.00021445001
0.00021445038
0.00021444961
0.00021444477
0.00021444847
0.00021482328
0.00022098609
0.00033298785
0.00019735372
0.00019735408
0.00019735481
0.00019735601
0.00019735759
0.00019735962
0.00019736212
0.0001973649
0.00019736678
0.00019736231
0.00019733424
0.0001972933
0.00019808165
0.00021190706
0.00042108833
0.00018260526
0.00018260625
0.00018260756
0.00018260957
0.0001826122
0.00018261554
0.00018261945
0.00018262311
0.00018262253
0.00018260174
0.00018251429
0.00018235696
0.00018354965
0.00020571076
0.0004915993
0.00016977104
0.00016977195
0.00016977358
0.00016977617
0.00016977959
0.00016978384
0.00016978847
0.00016979119
0.00016978242
0.00016972799
0.0001695392
0.00016920344
0.00017083025
0.00020141509
0.00054314021
0.00015851703
0.00015851791
0.00015851979
0.00015852287
0.0001585269
0.00015853173
0.00015853623
0.00015853548
0.0001585108
0.00015840225
0.00015807228
0.00015752308
0.00015966967
0.00019844232
0.00057747636
0.00014858047
0.00014858142
0.00014858351
0.00014858695
0.00014859139
0.00014859636
0.00014859955
0.0001485919
0.00014854197
0.00014835849
0.00014785779
0.00014709963
0.00014993181
0.00019659445
0.00059772639
0.00013975169
0.00013975271
0.00013975496
0.00013975864
0.00013976325
0.00013976781
0.00013976817
0.00013974945
0.00013966425
0.0001393877
0.00013870223
0.00013778194
0.00014154644
0.00019585229
0.00060724748
0.00013186192
0.00013186298
0.00013186534
0.00013186914
0.00013187366
0.00013187713
0.00013187282
0.00013183836
0.00013170812
0.00013132527
0.00013045854
0.00012946164
0.00013447268
0.00019626303
0.00060905754
0.00012477404
0.00012477514
0.00012477755
0.00012478136
0.00012478548
0.00012478703
0.00012477592
0.00012472085
0.00012453699
0.00012404097
0.00012301362
0.00012205827
0.00012868159
0.00019789321
0.0006056161
0.00011837572
0.00011837682
0.00011837924
0.0001183829
0.00011838626
0.00011838492
0.00011836468
0.00011828424
0.00011804014
0.00011743108
0.00011627928
0.00011550993
0.00012414935
0.00020080676
0.00059880682
0.0001125741
0.0001125752
0.00011257756
0.00011258091
0.00011258305
0.00011257774
0.00011254594
0.00011243584
0.00011212738
0.0001114124
0.00011018555
0.00010976786
0.00012085593
0.00020505367
0.00059001308
0.00010729189
0.00010729297
0.0001072952
0.00010729803
0.00010729845
0.00010728799
0.00010724223
0.00010709893
0.00010672477
0.00010591759
0.00010467621
0.00010479348
0.00011878602
0.00021066301
0.00058022149
0.0001024643
0.00010246533
0.00010246733
0.00010246942
0.00010246756
0.00010245071
0.00010238875
0.00010220964
0.0001017714
0.00010089174
9.9705638e-05
0.000100557
0.00011793046
0.00021763683
0.00057012062
9.8036637e-05
9.8037572e-05
9.8039255e-05
9.8040328e-05
9.8035582e-05
9.8011091e-05
9.7930966e-05
9.7714594e-05
9.7216801e-05
9.6289669e-05
9.5236719e-05
9.703687e-05
0.00011828673
0.00022594366
0.0005601824
9.3962451e-05
9.3963259e-05
9.3964497e-05
9.3964262e-05
9.3955981e-05
9.3922652e-05
9.3822751e-05
9.3568903e-05
9.3018884e-05
9.2074025e-05
9.1239503e-05
9.4219615e-05
0.00011985802
0.00023551194
0.0005507241
9.0202076e-05
9.020271e-05
9.0203366e-05
9.0201504e-05
9.0189027e-05
9.0145749e-05
9.0024925e-05
8.9734681e-05
8.914241e-05
8.8213812e-05
8.7690325e-05
9.20998e-05
0.00012265037
0.00024622465
0.00054195294
8.6721448e-05
8.6721856e-05
8.6721776e-05
8.6717945e-05
8.6700619e-05
8.664642e-05
8.6504047e-05
8.61798e-05
8.5557736e-05
8.4683334e-05
8.4571272e-05
9.0679902e-05
0.00012666793
0.00025791693
0.00053399692
8.3491166e-05
8.3491287e-05
8.3490304e-05
8.3484151e-05
8.3461349e-05
8.3395437e-05
8.3231463e-05
8.2876915e-05
8.2239851e-05
8.1461425e-05
8.1869885e-05
8.9969913e-05
0.00013190642
0.00027037857
0.00052692519
8.0485733e-05
8.0485502e-05
8.0483437e-05
8.0474603e-05
8.0445747e-05
8.0367548e-05
8.018253e-05
7.9802669e-05
7.9167636e-05
7.8530889e-05
7.9578989e-05
8.9986538e-05
0.00013834557
0.00028336255
0.00052076146
7.7682937e-05
7.7682283e-05
7.767895e-05
7.7667083e-05
7.7631664e-05
7.7540855e-05
7.7335982e-05
7.6937064e-05
7.6323276e-05
7.5878109e-05
7.7696612e-05
9.0751816e-05
0.00014594134
0.00029659939
0.00051549302
7.5063349e-05
7.5062196e-05
7.5057404e-05
7.5042167e-05
7.4999765e-05
7.4896302e-05
7.4673418e-05
7.4262946e-05
7.369182e-05
7.3492783e-05
7.6225917e-05
9.2291049e-05
0.00015461944
0.000309816
0.00051107779
7.2609902e-05
7.2608172e-05
7.260173e-05
7.2582813e-05
7.2533118e-05
7.2417256e-05
7.2178869e-05
7.1765596e-05
7.1260831e-05
7.1367745e-05
7.5175079e-05
9.4629939e-05
0.00016427135
0.00032275576
0.00050745065
7.0307551e-05
7.0305165e-05
7.0296888e-05
7.0274015e-05
7.0216842e-05
7.0089161e-05
6.9838457e-05
6.94324e-05
6.9020131e-05
6.949887e-05
7.4557053e-05
9.7790946e-05
0.00017475428
0.00033519669
0.00050453001
6.8142984e-05
6.8139863e-05
6.8129574e-05
6.8102519e-05
6.8037823e-05
6.7899244e-05
6.7640104e-05
6.7252585e-05
6.6961603e-05
6.7885016e-05
7.4389159e-05
0.00010178904
0.0001858954
0.00034696444
0.00050222457
6.6104382e-05
6.6100451e-05
6.608799e-05
6.6056581e-05
6.5984475e-05
6.5836276e-05
6.5573296e-05
6.5217006e-05
6.5079053e-05
6.6528011e-05
7.4692423e-05
0.00010662718
0.00019750038
0.00035793856
0.00050043991
6.418122e-05
6.4176406e-05
6.4161633e-05
6.4125766e-05
6.4046535e-05
6.3890369e-05
6.3628889e-05
6.3317981e-05
6.3368113e-05
6.5432644e-05
7.5490605e-05
0.00011229203
0.00020936499
0.00036805173
0.00049908424
6.2364094e-05
6.2358333e-05
6.2341135e-05
6.230078e-05
6.2214894e-05
6.2052808e-05
6.1798947e-05
6.1549161e-05
6.182618e-05
6.4606648e-05
7.680889e-05
0.00011875054
0.00022128816
0.00037728353
0.00049807291
6.064458e-05
6.0637817e-05
6.0618111e-05
6.0573325e-05
6.0481451e-05
6.031591e-05
6.0076617e-05
5.9905429e-05
6.045239e-05
6.4060643e-05
7.8672185e-05
0.00012594803
0.00023308444
0.00038565069
0.00049733132
5.9015114e-05
5.9007302e-05
5.8985044e-05
5.8935977e-05
5.8838997e-05
5.8672904e-05
5.8456016e-05
5.8382826e-05
5.9247606e-05
6.380802e-05
8.1103078e-05
0.00013380821
0.00024459408
0.00039319634
0.00049679626
5.746888e-05
5.745999e-05
5.7435175e-05
5.7382083e-05
5.7281105e-05
5.7117831e-05
5.6932149e-05
5.6978499e-05
5.8214438e-05
6.3864707e-05
8.411951e-05
0.00014223536
0.00025568959
0.00039997992
0.00049641599
5.599973e-05
5.5989745e-05
5.596242e-05
5.590567e-05
5.5802046e-05
5.5645466e-05
5.5500841e-05
5.5690668e-05
5.7357258e-05
6.424881e-05
8.7732329e-05
0.0001511185
0.00026627829
0.00040606902
0.00049614946
5.4602101e-05
5.4591025e-05
5.4561286e-05
5.4501369e-05
5.4396714e-05
5.4251246e-05
5.4158685e-05
5.4518612e-05
5.6682234e-05
6.4980079e-05
9.194294e-05
0.00016033717
0.00027630116
0.00041153335
0.00049596497
5.3270953e-05
5.3258808e-05
5.3226813e-05
5.3164353e-05
5.3060564e-05
5.2931212e-05
5.2903001e-05
5.3462663e-05
5.6197343e-05
6.607918e-05
9.6741325e-05
0.00016976802
0.000285729
0.00041644086
0.00049583865
5.2001708e-05
5.198854e-05
5.1954511e-05
5.1890276e-05
5.1789556e-05
5.1681971e-05
5.1731808e-05
5.2524225e-05
5.5912363e-05
6.7566765e-05
0.00010210471
0.00017929137
0.00029455685
0.00042085544
0.00049575298
5.0790203e-05
5.0776083e-05
5.0740313e-05
5.067523e-05
5.0580113e-05
5.050065e-05
5.0643813e-05
5.1705788e-05
5.5838827e-05
6.9462329e-05
0.00010799714
0.00018879709
0.00030279789
0.00042483586
0.00049569544
4.9632648e-05
4.9617675e-05
4.9580534e-05
4.9515698e-05
4.942908e-05
4.9384875e-05
4.9638394e-05
5.1010966e-05
5.5989917e-05
7.1782919e-05
0.00011437
0.00019818901
0.00031047772
0.00042843533
0.0004956574
4.8525586e-05
4.8509888e-05
4.8471831e-05
4.8408525e-05
4.8333699e-05
4.8332748e-05
4.8715611e-05
5.0444524e-05
5.6380275e-05
7.4541725e-05
0.0001211637
0.00020738764
0.00031762941
0.00043170149
0.00049563313
4.7465859e-05
4.74496e-05
4.7411173e-05
4.7350883e-05
4.7291577e-05
4.7342831e-05
4.7876207e-05
5.0012417e-05
5.702572e-05
7.7746677e-05
0.00012831013
0.00021633121
0.00032428982
0.00043467667
0.00049561908
4.6450583e-05
4.6433963e-05
4.6395814e-05
4.6340247e-05
4.6300671e-05
4.641414e-05
4.7121628e-05
4.9721816e-05
5.7942847e-05
8.1399164e-05
0.00013573578
0.00022497509
0.00033049682
0.00043739817
0.00049561324
4.5477121e-05
4.5460379e-05
4.5423267e-05
4.5374375e-05
4.5359268e-05
4.5546142e-05
4.6454049e-05
4.9581125e-05
5.9148507e-05
8.5493016e-05
0.00014336521
0.00023329014
0.00033628764
0.00043989867
0.00049561471
4.4543061e-05
4.4526479e-05
4.4491284e-05
4.4451289e-05
4.446598e-05
4.4738756e-05
4.5876394e-05
4.9599966e-05
6.0659158e-05
9.0013879e-05
0.0001511244
0.00024126036
0.00034169779
0.00044220662
0.00049562332
4.3646195e-05
4.3630105e-05
4.359784e-05
4.3569259e-05
4.3619731e-05
4.3992365e-05
4.5392377e-05
4.9789137e-05
6.2490098e-05
9.4939086e-05
0.00015894369
0.0002488802
0.00034676052
0.00044434668
0.00049563932
4.2784505e-05
4.2769292e-05
4.2741115e-05
4.2726796e-05
4.2819756e-05
4.3307822e-05
4.500653e-05
5.0160522e-05
6.4654624e-05
0.00010023807
0.00016676013
0.00025615207
0.00035150661
0.00044634014
0.00049566327
4.1956147e-05
4.1942252e-05
4.1919486e-05
4.1922641e-05
4.2065604e-05
4.2686474e-05
4.4724243e-05
5.0726936e-05
6.7163133e-05
0.00010587333
0.000174519
0.00026308402
0.00035596427
0.0004482053
0.00049569579
4.1159436e-05
4.1147367e-05
4.1131511e-05
4.1155759e-05
4.1357137e-05
4.2130176e-05
4.4551789e-05
5.1501906e-05
7.0022254e-05
0.0001118018
0.0001821746
0.00026968789
0.00036015924
0.00044995791
0.00049573754
4.039284e-05
4.0383173e-05
4.0375928e-05
4.0425336e-05
4.0694538e-05
4.1641323e-05
4.4496352e-05
5.2499369e-05
7.3234061e-05
0.00011797661
0.00018969026
0.00027597785
0.00036411489
0.00045161146
0.00049578915
3.9654963e-05
3.9648355e-05
3.9651641e-05
3.9730781e-05
4.0078323e-05
4.1222873e-05
4.4566031e-05
5.3733284e-05
7.6795466e-05
0.00012434896
0.00019703787
0.00028196938
0.00036785235
0.00045317754
0.00049585112
3.8944544e-05
3.8941738e-05
3.8957721e-05
3.9071722e-05
3.9509355e-05
4.0878379e-05
4.476983e-05
5.5217171e-05
8.0697839e-05
0.00013087001
0.00020419698
0.00028767848
0.00037139065
0.00045466608
0.00049592389
3.8260447e-05
3.8262283e-05
3.8293404e-05
3.8448018e-05
3.8988856e-05
4.0612024e-05
4.5117614e-05
5.6963569e-05
8.4926928e-05
0.00013749256
0.00021115368
0.00029312117
0.00037474694
0.00045608564
0.00049600778
3.7601653e-05
3.7609082e-05
3.7658086e-05
3.7859757e-05
3.851843e-05
4.0428653e-05
4.562003e-05
5.8983445e-05
8.9463092e-05
0.00014417246
0.0002178995
0.00029831319
0.0003779366
0.00045744356
0.00049610301
3.6967262e-05
3.6981351e-05
3.7051327e-05
3.7307273e-05
3.8100084e-05
4.03338e-05
4.6288381e-05
6.1285584e-05
9.4281846e-05
0.00015086965
0.00022443029
0.0003032697
0.00038097346
0.00045874619
0.00049620968
3.6356483e-05
3.6378439e-05
3.6472854e-05
3.6791149e-05
3.7736253e-05
4.033372e-05
4.7134451e-05
6.387599e-05
9.935467e-05
0.00015754881
0.00023074527
0.00030800524
0.00038386991
0.00045999903
0.00049632782
3.5768637e-05
3.5799814e-05
3.5922562e-05
3.6312237e-05
3.7429828e-05
4.0435398e-05
4.8170262e-05
6.6757359e-05
0.00010465003
0.00016417962
0.00023684619
0.00031253355
0.0003866371
0.00046120682
0.00049645738
3.5203153e-05
3.5245078e-05
3.5400526e-05
3.5871671e-05
3.7184185e-05
4.0646562e-05
4.9407779e-05
6.9928651e-05
0.00011013449
0.00017073673
0.00024273672
0.0003168676
0.00038928503
0.00046237371
0.00049659825
3.4659571e-05
3.4713957e-05
3.4907005e-05
3.5470884e-05
3.7003217e-05
4.0975656e-05
5.0858557e-05
7.3384829e-05
0.00011577387
0.0001771995
0.00024842186
0.00032101951
0.00039182273
0.00046350331
0.00049675024
3.4137541e-05
3.4206315e-05
3.4442453e-05
3.5111633e-05
3.689136e-05
4.143181e-05
5.2533329e-05
7.7116771e-05
0.00012153433
0.00018355156
0.00025390757
0.00032500062
0.0003942583
0.00046459877
0.00049691315
3.3636827e-05
3.3722154e-05
3.4007531e-05
3.4796016e-05
3.6853632e-05
4.2024761e-05
5.4441571e-05
8.1111396e-05
0.00012738327
0.00018978031
0.00025920045
0.00032882148
0.00039659908
0.00046566289
0.00049708671
3.3157312e-05
3.3261621e-05
3.3603121e-05
3.4526503e-05
3.6895652e-05
4.2764748e-05
5.6591043e-05
8.5351978e-05
0.00013329013
0.00019587638
0.00026430751
0.00033249189
0.00039885166
0.0004666981
0.00049727065
3.2699001e-05
3.2825019e-05
3.3230344e-05
3.4305958e-05
3.7023663e-05
4.3662357e-05
5.8987351e-05
8.9818653e-05
0.00013922685
0.00020183315
0.00026923592
0.00033602093
0.00040102206
0.00046770657
0.00049746465
3.2262029e-05
3.2412818e-05
3.2890574e-05
3.4137672e-05
3.7244545e-05
4.4728321e-05
6.163355e-05
9.4489045e-05
0.00014516826
0.00020764626
0.00027399295
0.00033941701
0.0004031157
0.00046869023
0.00049766841
3.1846672e-05
3.2025663e-05
3.2585463e-05
3.4025391e-05
3.7565813e-05
4.597328e-05
6.4529824e-05
9.9338997e-05
0.00015109221
0.00021331319
0.0002785858
0.00034268792
0.0004051375
0.00046965078
0.00049788159
3.1453353e-05
3.1664392e-05
3.2316961e-05
3.3973346e-05
3.7995599e-05
4.7407481e-05
6.7673279e-05
0.00010434332
0.00015697951
0.00021883292
0.00028302154
0.00034584088
0.00040709194
0.0004705897
0.00049810387
3.1082657e-05
3.1330051e-05
3.2087341e-05
3.3986287e-05
3.8542606e-05
4.9040458e-05
7.1057865e-05
0.00010947655
0.00016281383
0.00022420567
0.00028730707
0.00034888262
0.00040898325
0.00047150445
0.00049833478
3.0735342e-05
3.1023913e-05
3.1899228e-05
3.4069504e-05
3.9216044e-05
5.0880678e-05
7.4674428e-05
0.00011471357
0.00016858152
0.00022943261
0.00029144903
0.00035181928
0.00041081468
0.00047239509
0.00049857391
3.0412362e-05
3.0747498e-05
3.1755626e-05
3.4228858e-05
4.0025522e-05
5.2935172e-05
7.8510919e-05
0.00012003021
0.00017427131
0.00023451562
0.0002954538
0.00035465643
0.00041258913
0.00047326296
0.00049882071
3.0114877e-05
3.0502598e-05
3.1659947e-05
3.4470789e-05
4.0980905e-05
5.5209187e-05
8.2552711e-05
0.00012540365
0.00017987403
0.00023945717
0.00029932742
0.0003573992
0.0004143094
0.0004741099
0.00049907468
2.9844281e-05
3.0291301e-05
3.1616048e-05
3.480233e-05
4.2092141e-05
5.7705873e-05
8.6783036e-05
0.00013081274
0.00018538242
0.00024426018
0.00030307574
0.00036005267
0.00041597753
0.0004749365
0.00049933531
2.9602222e-05
3.0116018e-05
3.1628257e-05
3.5231095e-05
4.3369031e-05
6.0426026e-05
9.1183484e-05
0.00013623821
0.00019079081
0.00024892786
0.00030670435
0.0003626213
0.00041759501
0.00047574364
0.00049960218
2.9390631e-05
2.9979518e-05
3.170141e-05
3.5765254e-05
4.4820981e-05
6.3367913e-05
9.5734539e-05
0.00014166273
0.00019609492
0.00025346367
0.00031021843
0.00036510891
0.00041916379
0.00047653276
0.00049987495
2.9211752e-05
2.9884956e-05
3.1840875e-05
3.6413481e-05
4.6456709e-05
6.6527201e-05
0.00010041611
0.00014707091
0.00020129167
0.00025787115
0.00031362283
0.00036751904
0.00042068626
0.00047730513
0.00050015337
2.9068173e-05
2.9835914e-05
3.2052585e-05
3.718488e-05
4.8283941e-05
6.9896985e-05
0.00010520801
0.00015244925
0.00020637896
0.00026215396
0.00031692221
0.00036985504
0.00042216443
0.00047806215
0.00050043718
2.8962864e-05
2.9836431e-05
3.2343049e-05
3.808887e-05
5.0309098e-05
7.3467931e-05
0.00011009042
0.00015778602
0.00021135555
0.00026631586
0.00032012129
0.00037211984
0.00042359914
0.00047880562
0.00050072627
2.8899217e-05
2.9891047e-05
3.271937e-05
3.9135045e-05
5.2536998e-05
7.7228507e-05
0.00011504422
0.00016307116
0.00021622093
0.00027036054
0.00032322393
0.00037431562
0.00042499297
0.00047953647
0.00050102047
2.8881087e-05
3.0004837e-05
3.3189233e-05
4.0332986e-05
5.4970593e-05
8.1165307e-05
0.00012005129
0.00016829608
0.00022097511
0.00027429153
0.00032623368
0.00037644513
0.0004263482
0.00048025524
0.0005013196
2.8912837e-05
3.0183451e-05
3.3760892e-05
4.1692046e-05
5.7610756e-05
8.526342e-05
0.00012509468
0.00017345355
0.00022561855
0.0002781122
0.00032915392
0.00037851124
0.00042766687
0.00048096235
0.00050162344
2.8999383e-05
3.0433147e-05
3.4443123e-05
4.3221099e-05
6.0456135e-05
8.9506836e-05
0.00013015875
0.00017853755
0.00023015227
0.00028182648
0.00033198844
0.00038051456
0.00042895139
0.00048165852
0.00050193179
2.9146244e-05
3.0760816e-05
3.524515e-05
4.4928262e-05
6.3503095e-05
9.3878855e-05
0.00013522921
0.00018354314
0.00023457747
0.00028543745
0.00033473928
0.00038245835
0.00043020342
0.00048234438
0.00050224443
2.9359589e-05
3.1174008e-05
3.6176549e-05
4.6820613e-05
6.6745744e-05
9.8362473e-05
0.00014029314
0.0001884663
0.0002388955
0.00028894795
0.00033740912
0.00038434552
0.00043142431
0.00048302039
0.00050256119
2.9646279e-05
3.1680935e-05
3.7247105e-05
4.8903898e-05
7.0176047e-05
0.00010294073
0.00014533894
0.00019330376
0.00024310779
0.00029236073
0.00034000084
0.00038617868
0.00043261526
0.0004836869
0.00050288185
3.0013906e-05
3.2290461e-05
3.8466638e-05
5.118227e-05
7.3784024e-05
0.00010759702
0.00015035631
0.00019805313
0.00024721655
0.0002956795
0.00034251495
0.00038796053
0.0004337776
0.00048434422
0.00050320621
3.0470826e-05
3.3012073e-05
3.9844788e-05
5.3658051e-05
7.7558006e-05
0.00011231531
0.00015533614
0.00020271253
0.00025122333
0.00029890571
0.00034495507
0.00038969318
0.00043491256
0.00048499265
0.00050353406
3.1026175e-05
3.3855815e-05
4.139077e-05
5.6331557e-05
8.1484939e-05
0.00011708033
0.00016027039
0.00020728047
0.00025512958
0.00030204156
0.00034732433
0.00039137849
0.00043602116
0.00048563247
0.0005038652
3.1689866e-05
3.4832195e-05
4.3113098e-05
5.9200988e-05
8.5550716e-05
0.00012187771
0.00016515205
0.00021175601
0.00025893727
0.00030508873
0.0003496256
0.0003930182
0.00043710432
0.00048626387
0.00050419943
3.2472563e-05
3.5952048e-05
4.5019291e-05
6.2262392e-05
8.9740508e-05
0.00012669407
0.00016997509
0.00021613881
0.0002626485
0.00030804842
0.00035186154
0.00039461406
0.0004381629
0.00048688704
0.00050453655
3.3385618e-05
3.7226354e-05
4.7115582e-05
6.5509709e-05
9.4039084e-05
0.00013151699
0.00017473422
0.00022042824
0.00026626389
0.00031092396
0.00035403443
0.00039616764
0.00043919768
0.00048750212
0.00050487635
3.4440967e-05
3.866601e-05
4.9406636e-05
6.8934891e-05
9.8431089e-05
0.00013633504
0.00017942473
0.00022462379
0.00026978477
0.00031371827
0.00035614635
0.00039768033
0.00044020937
0.00048810922
0.00050521863
3.5650974e-05
4.028156e-05
5.1895299e-05
7.2528096e-05
0.00010290132
0.00014113789
0.00018404316
0.00022872684
0.00027321044
0.000316434
0.00035819935
0.00039915346
0.00044119862
0.00048870844
0.00050556321
3.7028211e-05
4.2082877e-05
5.4582408e-05
7.6277918e-05
0.00010743493
0.00014591609
0.00018858593
0.00023273615
0.00027654352
0.00031907352
0.00036019533
0.00040058822
0.00044216599
0.00048929985
0.00050590988
3.8585179e-05
4.4078818e-05
5.7466643e-05
8.0171661e-05
0.00011201751
0.00015066091
0.00019304973
0.00023665124
0.00027978648
0.00032163895
0.000362136
0.00040198573
0.00044311202
0.0004898835
0.00050625846
4.0333953e-05
4.6276872e-05
6.0544481e-05
8.4195648e-05
0.0001166354
0.00015536498
0.0001974334
0.00024047001
0.00028294147
0.0003241324
0.00036402296
0.00040334698
0.00044403717
0.0004904594
0.00050660874
4.2285767e-05
4.8682796e-05
6.3810203e-05
8.8335496e-05
0.00012127557
0.0001600211
0.00020173341
0.00024419354
0.00028601041
0.00032655578
0.00036585767
0.0004046729
0.00044494186
0.00049102757
0.00050696054
4.4450549e-05
5.1300283e-05
6.725599e-05
9.2576375e-05
0.00012592566
0.00016462277
0.00020594654
0.00024782315
0.00028899512
0.00032891087
0.00036764148
0.00040596431
0.00044582644
0.00049158799
0.00050731368
4.6836426e-05
5.4130685e-05
7.0872095e-05
9.6903359e-05
0.0001305745
0.00016916545
0.00021006864
0.00025135989
0.00029189735
0.00033119932
0.00036937562
0.00040722199
0.00044669125
0.00049214063
0.00050766796
4.9449223e-05
5.7172785e-05
7.4647034e-05
0.00010130146
0.00013521099
0.00017364208
0.00021409919
0.00025480471
0.00029471869
0.00033342263
0.00037106123
0.00040844659
0.00044753653
0.00049268544
0.0005080232
5.2292012e-05
6.0422679e-05
7.8567917e-05
0.00010575622
0.00013982628
0.00017804507
0.00021803747
0.00025815859
0.00029746063
0.00033558218
0.00037269932
0.00040963872
0.00044836254
0.00049322234
0.0005083792
5.536472e-05
6.3873724e-05
8.2620616e-05
0.00011025319
0.00014440991
0.00018236975
0.00022188276
0.0002614224
0.00030012453
0.00033767924
0.0003742908
0.00041079892
0.00044916944
0.00049375126
0.0005087358
5.8663878e-05
6.7516656e-05
8.6790371e-05
0.00011477968
0.00014895014
0.00018661246
0.00022563443
0.00026459698
0.00030271163
0.00033971493
0.00037583649
0.00041192763
0.00044995737
0.00049427208
0.00050909279
6.2182498e-05
7.1339731e-05
9.1061771e-05
0.00011932097
0.00015343809
0.00019076981
0.00022929195
0.00026768308
0.00030522305
0.00034169026
0.00037733711
0.00041302525
0.00045072645
0.00049478469
0.00050944998
6.5910184e-05
7.5329172e-05
9.5419572e-05
0.0001238617
0.00015786614
0.00019483867
0.00023285478
0.00027068134
0.00030765976
0.00034360613
0.00037879329
0.0004140921
0.00045147673
0.00049528894
0.0005098072
6.9833678e-05
7.9469689e-05
9.9845294e-05
0.00012838912
0.00016222724
0.00019881619
0.00023632244
0.00027359234
0.00031002264
0.0003454633
0.00038020555
0.00041512844
0.00045220822
0.00049578466
0.00051016425
7.3936168e-05
8.3742432e-05
0.00010432174
0.00013289126
0.00016651491
0.00020269973
0.00023969443
0.00027641653
0.00031231241
0.00034726244
0.00038157433
0.00041613446
0.00045292091
0.00049627168
0.00051052093
7.8197598e-05
8.8127407e-05
0.000108832
0.00013735686
0.00017072317
0.00020648684
0.00024297025
0.0002791543
0.00031452969
0.00034900408
0.00038289997
0.00041711029
0.00045361472
0.0004967498
0.00051087705
8.2595738e-05
9.2603758e-05
0.0001133596
0.00014177543
0.00017484651
0.00021017526
0.00024614939
0.00028180591
0.00031667498
0.00035068867
0.00038418273
0.00041805598
0.00045428956
0.00049721879
0.0005112324
8.7106854e-05
9.7150189e-05
0.00011788867
0.00014613719
0.00017887989
0.00021376289
0.00024923133
0.00028437153
0.00031874864
0.00035231651
0.00038542278
0.00041897153
0.00045494526
0.0004976784
0.00051158678
9.1706369e-05
0.00010174537
0.00012240397
0.00015043308
0.0001828187
0.00021724778
0.00025221551
0.00028685124
0.00032075093
0.00035388783
0.0003866202
0.00041985688
0.00045558166
0.00049812838
0.00051193996
9.6369489e-05
0.00010636833
0.00012689109
0.00015465476
0.00018665875
0.00022062815
0.00025510142
0.00028924505
0.00032268202
0.00035540273
0.00038777499
0.00042071189
0.00045619851
0.00049856843
0.00051229173
0.00010107178
0.00011099873
0.00013133643
0.00015879459
0.00019039627
0.0002239024
0.00025788851
0.00029155289
0.00032454195
0.00035686125
0.00038888706
0.00042153638
0.00045679554
0.00049899823
0.00051264186
0.00010578962
0.00011561722
0.00013572734
0.00016284561
0.00019402789
0.00022706908
0.00026057627
0.00029377462
0.0003263307
0.0003582633
0.00038995626
0.00042233009
0.00045737243
0.00049941746
0.0005129901
0.00011050065
0.00012020559
0.00014005212
0.00016680154
0.00019755063
0.00023012693
0.00026316422
0.00029591007
0.00032804815
0.00035960875
0.00039098235
0.00042309272
0.00045792884
0.00049982575
0.0005133362
0.000115184
0.00012474699
0.00014430009
0.00017065677
0.00020096192
0.00023307487
0.00026565195
0.00029795906
0.00032969416
0.00036089736
0.00039196504
0.00042382391
0.00045846438
0.00050022271
0.00051367991
0.00011982055
0.00012922602
0.00014846159
0.00017440635
0.00020425958
0.00023591203
0.0002680391
0.00029992138
0.00033126849
0.00036212887
0.00039290398
0.00042452326
0.00045897861
0.00050060795
0.00051402095
0.00012439303
0.0001336288
0.00015252799
0.00017804596
0.0002074418
0.00023863776
0.00027032542
0.00030179685
0.00033277093
0.00036330295
0.00039379878
0.00042519031
0.00045947109
0.00050098103
0.00051435903
0.00012888608
0.00013794302
0.00015649169
0.00018157193
0.00021050718
0.00024125163
0.00027251076
0.00030358532
0.00033420122
0.00036441925
0.00039464899
0.0004258246
0.00045994132
0.00050134151
0.00051469386
0.00013328625
0.00014215789
0.0001603461
0.00018498119
0.00021345468
0.00024375343
0.00027459512
0.00030528669
0.00033555912
0.0003654774
0.00039545416
0.00042642562
0.00046038881
0.00050168895
0.00051502514
0.00013758196
0.00014626415
0.00016408563
0.00018827125
0.00021628363
0.00024614319
0.0002765786
0.00030690095
0.00033684444
0.00036647703
0.00039621381
0.00042699283
0.00046081302
0.00050202285
0.00051535254
0.0001417634
0.00015025397
0.00016770559
0.00019144019
0.0002189937
0.00024842119
0.0002784615
0.00030842819
0.000338057
0.0003674178
0.00039692747
0.00042752571
0.00046121344
0.00050234276
0.00051567573
0.00014582244
0.00015412088
0.00017120224
0.00019448664
0.00022158493
0.00025058792
0.00028024427
0.00030986857
0.00033919673
0.0003682994
0.00039759469
0.00042802373
0.00046158953
0.00050264819
0.00051599438
0.00014975251
0.00015785969
0.00017457265
0.00019740972
0.00022405765
0.00025264412
0.00028192751
0.00031122242
0.00034026361
0.00036912156
0.00039821503
0.00042848639
0.00046194077
0.00050293866
0.00051630813
0.00015354844
0.00016146636
0.00017781467
0.00020020905
0.00022641254
0.00025459076
0.00028351204
0.00031249018
0.00034125772
0.00036988408
0.00039878812
0.0004289132
0.00046226665
0.00050321372
0.00051661664
0.00015720639
0.00016493794
0.00018092691
0.00020288468
0.00022865052
0.00025642902
0.00028499881
0.00031367243
0.00034217928
0.00037058686
0.00039931362
0.00042930372
0.00046256671
0.00050347291
0.00051691955
0.00016072362
0.00016827244
0.00018390861
0.00020543708
0.00023077283
0.00025816027
0.000286389
0.00031476992
0.00034302859
0.00037122987
0.00039979129
0.00042965755
0.0004628405
0.00050371581
0.0005172165
0.00016409847
0.00017146874
0.00018675964
0.0002078671
0.00023278092
0.00025978612
0.00028768391
0.00031578355
0.00034380612
0.00037181321
0.00040022096
0.00042997439
0.00046308763
0.00050394204
0.00051750714
0.00016733017
0.00017452648
0.00018948039
0.00021017591
0.00023467649
0.00026130831
0.00028888504
0.00031671435
0.00034451245
0.00037233708
0.00040060254
0.00043025398
0.00046330777
0.00050415122
0.00051779111
0.00017041874
0.00017744599
0.00019207176
0.00021236502
0.00023646143
0.00026272879
0.00028999403
0.00031756354
0.00034514832
0.00037280182
0.00040093608
0.00043049615
0.00046350064
0.00050434305
0.00051806806
0.00017336488
0.00018022817
0.00019453506
0.00021443621
0.00023813782
0.00026404963
0.00029101269
0.00031833245
0.0003457146
0.00037320788
0.00040122172
0.00043070083
0.00046366606
0.00050451728
0.00051833767
0.0001761699
0.00018287448
0.00019687198
0.00021639149
0.00023970792
0.00026527306
0.00029194294
0.00031902259
0.00034621232
0.00037355586
0.00040145972
0.00043086807
0.00046380391
0.00050467368
0.0005185996
0.00017883561
0.00018538676
0.00019908455
0.0002182331
0.00024117411
0.00026640142
0.00029278685
0.00031963559
0.00034664264
0.0003738465
0.00040165047
0.00043099799
0.00046391416
0.00050481213
0.00051885355
0.00018136426
0.00018776727
0.00020117505
0.00021996347
0.00024253891
0.00026743716
0.0002935466
0.00032017321
0.00034700686
0.00037408067
0.0004017945
0.00043109085
0.00046399688
0.00050493253
0.00051909923
0.00018375842
0.00019001856
0.00020314604
0.00022158516
0.00024380493
0.0002683828
0.00029422445
0.00032063732
0.00034730641
0.00037425937
0.00040189244
0.00043114701
0.00046405221
0.00050503487
0.00051933638
0.000186021
0.00019214346
0.00020500024
0.00022310089
0.00024497491
0.00026924098
0.00029482279
0.00032102993
0.00034754285
0.00037438375
0.00040194507
0.00043116697
0.00046408043
0.00050511922
0.00051956475
0.00018815512
0.00019414501
0.00020674057
0.0002245135
0.00024605161
0.00027001437
0.00029534405
0.00032135311
0.00034771785
0.00037445506
0.0004019533
0.00043115132
0.00046408188
0.00050518569
0.00051978413
0.00019016411
0.00019602641
0.00020837006
0.0002258259
0.00024703788
0.00027070571
0.00029579074
0.00032160905
0.00034783319
0.0003744747
0.00040191814
0.00043110077
0.00046405701
0.0005052345
0.00051999433
0.00019205143
0.00019779102
0.00020989187
0.00022704107
0.00024793662
0.00027131776
0.00029616542
0.00032179999
0.00034789076
0.00037444415
0.00040184073
0.00043101614
0.00046400637
0.00050526589
0.0005201952
0.00019382068
0.00019944227
0.00021130921
0.00022816206
0.00024875073
0.00027185333
0.0002964707
0.00032192825
0.00034789251
0.00037436501
0.00040172232
0.00043089837
0.00046393059
0.00050528022
0.0005203866
0.00019547551
0.00020098369
0.00021262537
0.00022919194
0.00024948316
0.00027231522
0.00029670921
0.0003219962
0.0003478405
0.00037423897
0.00040156425
0.00043074848
0.00046383039
0.00050527788
0.00052056845
0.00019701965
0.00020241885
0.00021384368
0.00023013382
0.00025013686
0.00027270627
0.00029688361
0.00032200626
0.00034773684
0.00037406782
0.00040136796
0.00043056758
0.00046370659
0.00050525933
0.00052074067
0.00019845685
0.00020375135
0.00021496749
0.0002309908
0.00025071479
0.0002730293
0.00029699657
0.00032196088
0.00034758368
0.00037385339
0.00040113499
0.00043035688
0.00046356005
0.00050522509
0.00052090324
0.00019979087
0.00020498481
0.00021600014
0.000231766
0.00025121987
0.00027328712
0.00029705076
0.00032186252
0.00034738324
0.0003735976
0.00040086691
0.00043011766
0.00046339173
0.00050517574
0.00052105615
0.00020102546
0.00020612282
0.00021694499
0.00023246252
0.00025165503
0.00027348253
0.00029704884
0.00032171367
0.00034713777
0.00037330242
0.00040056541
0.00042985127
0.00046320263
0.00050511188
0.00052119944
0.00020216434
0.00020716897
0.00021780536
0.00023308345
0.00025202318
0.00027361831
0.00029699347
0.00032151681
0.00034684953