/*--------------------------------*- C++ -*----------------------------------*\
| =========                 |                                                 |
| \\      /  F ield         | OpenFOAM: The Open Source CFD Toolbox           |
|  \\    /   O peration     | Version:  2506                                  |
|   \\  /    A nd           | Website:  www.openfoam.com                      |
|    \\/     M anipulation  |                                                 |
\*---------------------------------------------------------------------------*/
FoamFile
{
    version     2.0;
    format      ascii;
    arch        "LSB;label=32;scalar=64";
    class       volVectorField;
    location    "30000/water";
    object      U;
}
// * * * * * * * * * * * * * * * * * * * * * * * * * * * * * * * * * * * * * //

dimensions      [0 1 -1 0 0 0 0];

internalField   nonuniform List<vector> 
6000
(
(0.25028648 -3.4193492e-05 8.3924878e-21)
(0.25028875 -7.4648811e-05 -6.326869e-18)
(0.25029344 -0.00011804414 -1.0176386e-18)
(0.25030059 -0.00016540046 2.3272772e-19)
(0.25031046 -0.00021487336 -2.3781321e-19)
(0.25032332 -0.00026685039 3.542633e-19)
(0.25033948 -0.00032192175 1.8195908e-19)
(0.25035939 -0.00038078672 8.9315967e-20)
(0.25038356 -0.00044434477 -2.5888364e-19)
(0.25041254 -0.00051362452 -3.0744748e-20)
(0.25044587 -0.00058677559 -1.7815104e-19)
(0.25047643 -0.00065822056 -2.0037511e-20)
(0.25046276 -0.00078466513 4.7581522e-20)
(0.25013031 -0.0015987837 1.2259927e-20)
(0.24584996 0.0019968142 -9.922999e-20)
(0.25104035 -3.7261304e-05 1.8178816e-18)
(0.25104514 -8.9895979e-05 -3.8815295e-18)
(0.2510558 -0.00014352114 -9.8635208e-19)
(0.25107219 -0.00020025424 2.642822e-19)
(0.2510947 -0.0002571822 7.7570777e-19)
(0.25112368 -0.00031440571 4.3553322e-19)
(0.25115965 -0.00037188242 5.4505041e-19)
(0.25120324 -0.00042947839 2.2707947e-19)
(0.2512551 -0.00048709454 -3.7804111e-19)
(0.25131538 -0.00054561245 4.7202312e-20)
(0.25138039 -0.00060405492 -2.3066713e-19)
(0.25142587 -0.00063755821 1.5908374e-19)
(0.25133175 -0.00059164843 1.2416925e-19)
(0.25037931 -0.0014370973 7.5730147e-20)
(0.24194277 0.00099520264 -6.2258153e-20)
(0.25195051 -3.6589028e-05 -1.1551505e-18)
(0.25195563 -9.0250612e-05 3.7533576e-18)
(0.25196731 -0.00014313025 1.0220252e-18)
(0.25198528 -0.00019912655 -1.1372482e-18)
(0.25200977 -0.00025508716 1.6913875e-19)
(0.25204101 -0.0003112558 -6.304736e-19)
(0.25207932 -0.00036762123 -5.095287e-19)
(0.25212505 -0.00042413945 -7.2422383e-19)
(0.25217823 -0.00048056787 -6.3963974e-19)
(0.25223708 -0.0005377572 -4.0219282e-20)
(0.25229114 -0.00060007155 -5.5934907e-19)
(0.25229033 -0.00065419842 -3.2600428e-19)
(0.25200573 -0.00054460881 -2.6410634e-19)
(0.25014357 -0.0012195308 -1.3874387e-19)
(0.23758495 0.00043820543 -2.1662705e-19)
(0.25283353 -3.7446604e-05 1.6199689e-19)
(0.25283867 -9.3611087e-05 -2.4276559e-19)
(0.25285018 -0.00014906892 6.0180032e-19)
(0.25286783 -0.00020791578 -8.3042998e-19)
(0.25289182 -0.00026672308 -9.6639282e-20)
(0.25292238 -0.00032582165 -3.9886909e-19)
(0.25295982 -0.00038519269 -8.1774655e-19)
(0.25300432 -0.00044485276 -6.6869378e-19)
(0.25305525 -0.00050441426 -3.7349087e-19)
(0.25310809 -0.00056332944 2.1934919e-19)
(0.25314261 -0.00062607506 -4.4663989e-19)
(0.25307635 -0.00069910336 -4.7834854e-19)
(0.25255493 -0.0005845712 -3.1306478e-19)
(0.24963188 -0.001063787 -2.87386e-19)
(0.23320285 0.0001058672 -2.8517427e-19)
(0.25372643 -3.8342943e-05 1.0395338e-17)
(0.2537317 -9.6368691e-05 1.783475e-18)
(0.25374347 -0.00015372841 1.1982696e-18)
(0.25376156 -0.00021453144 1.4442044e-18)
(0.25378616 -0.00027516439 3.2614407e-19)
(0.25381749 -0.00033599427 4.6539214e-19)
(0.25385581 -0.00039694563 2.5589988e-19)
(0.25390101 -0.00045805575 2.8712364e-19)
(0.25395133 -0.00051907431 2.4038862e-19)
(0.25399821 -0.00057855465 3.5005627e-19)
(0.25400834 -0.00063773998 2.5347098e-19)
(0.25386022 -0.0007177221 1.0948685e-19)
(0.25305737 -0.00062191547 4.0549537e-20)
(0.24895451 -0.00093835859 -9.6335932e-20)
(0.22897365 -8.3792337e-05 -4.820981e-20)
(0.25464474 -3.8661619e-05 -5.2346358e-19)
(0.25465014 -9.7320118e-05 -1.0053004e-18)
(0.2546622 -0.00015516462 4.8994713e-19)
(0.25468073 -0.00021648308 1.5789102e-18)
(0.2547059 -0.00027758564 -1.2378369e-19)
(0.25473792 -0.000338881 2.3749781e-19)
(0.25477689 -0.00040025681 3.312278e-19)
(0.25482222 -0.000461728 2.162183e-19)
(0.25487049 -0.00052322808 3.9418497e-19)
(0.2549078 -0.000583188 4.7238336e-19)
(0.25488519 -0.00063896641 3.8672917e-19)
(0.25463685 -0.00071821651 2.2872048e-20)
(0.25350729 -0.0006469875 8.3355466e-20)
(0.248129 -0.00083894719 1.3337396e-20)
(0.2249409 -0.00018589273 1.4362301e-20)
(0.25557031 -3.8595293e-05 -4.3618857e-18)
(0.25557581 -9.7309346e-05 -4.2812553e-18)
(0.25558805 -0.00015511983 -1.1549969e-18)
(0.25560682 -0.00021642526 5.0929695e-19)
(0.2556323 -0.00027749359 -4.7978263e-19)
(0.25566463 -0.00033876345 -7.4328429e-20)
(0.25570371 -0.00040009734 3.1220993e-19)
(0.25574825 -0.00046144626 3.1778221e-19)
(0.25579256 -0.00052279714 4.9669168e-19)
(0.25581623 -0.0005828814 1.5948575e-19)
(0.25575267 -0.00063600478 1.2904733e-19)
(0.25538743 -0.00071016267 -5.5258301e-20)
(0.25388915 -0.00066107344 1.7041247e-19)
(0.24716598 -0.00076077854 1.1668592e-20)
(0.22112141 -0.00023459296 3.781404e-20)
(0.25649134 -3.8297106e-05 5.5013492e-18)
(0.25649692 -9.6712128e-05 2.0859759e-18)
(0.25650928 -0.00015419069 1.9314464e-18)
(0.25652824 -0.00021515485 4.6272712e-19)
(0.25655393 -0.00027585718 -4.7346177e-19)
(0.25658641 -0.0003367553 -1.5834163e-19)
(0.25662528 -0.00039769653 1.9271038e-19)
(0.2566683 -0.00045856441 3.5210863e-19)
(0.25670691 -0.00051927104 2.7718044e-19)
(0.25671305 -0.00057893859 -4.4405365e-19)
(0.25660095 -0.00063003278 -1.5743143e-20)
(0.25610359 -0.00069722485 9.4103851e-20)
(0.25419746 -0.0006651972 1.8161717e-19)
(0.24608527 -0.00069788903 -3.0496895e-20)
(0.21752738 -0.00025081848 7.20942e-20)
(0.25740382 -3.7852859e-05 -3.2659985e-18)
(0.25740947 -9.5689493e-05 -1.0899129e-19)
(0.25742193 -0.00015257331 1.5980026e-18)
(0.25744104 -0.00021291358 9.7308519e-19)
(0.25746687 -0.00027297291 7.9555622e-19)
(0.25749936 -0.0003332193 3.593611e-19)
(0.2575377 -0.00039348924 1.3923462e-19)
(0.2575784 -0.00045361301 2.4403344e-19)
(0.25760945 -0.00051335259 2.1871157e-19)
(0.25759421 -0.00057212213 1.1522322e-19)
(0.25742635 -0.00062159363 1.2812209e-19)
(0.25678237 -0.00068144217 1.6178918e-19)
(0.25443121 -0.00066103685 7.9281254e-20)
(0.24490935 -0.00064561644 4.9200649e-20)
(0.21416513 -0.00024776584 5.0944394e-20)
(0.25830515 -3.7308638e-05 3.1157568e-19)
(0.25831084 -9.4372768e-05 -7.6213215e-19)
(0.25832339 -0.00015047649 -3.0812875e-19)
(0.2583426 -0.00020999612 1.4818984e-19)
(0.25836849 -0.00026922145 -4.3963013e-19)
(0.25840083 -0.00032862339 1.455479e-19)
(0.25843826 -0.00038802594 1.7258404e-19)
(0.25847573 -0.00044722018 1.2338072e-19)
(0.25849727 -0.00050579279 -6.0083543e-20)
(0.25845683 -0.00056328987 2.0561583e-19)
(0.25822634 -0.00061131675 1.1069577e-19)
(0.25742154 -0.00066417743 7.1950677e-20)
(0.2545896 -0.00065044234 -1.4077828e-20)
(0.24365871 -0.00060064453 8.7193304e-20)
(0.21103455 -0.00023378679 -4.4348592e-20)
(0.259193 -3.669388e-05 9.0766695e-18)
(0.25919873 -9.2857459e-05 6.1691916e-18)
(0.25921134 -0.00014806165 -1.0433538e-18)
(0.25923061 -0.00020663289 7.6191206e-21)
(0.25925648 -0.0002648995 2.7076558e-19)
(0.25928848 -0.00032332972 -2.1348127e-19)
(0.25932457 -0.00038173097 2.330492e-19)
(0.25935785 -0.00043986308 3.1175693e-19)
(0.25936788 -0.00049714489 -2.6438246e-20)
(0.25929853 -0.00055310431 -1.2585698e-19)
(0.2589988 -0.00059970361 1.4727288e-19)
(0.25801896 -0.00064623361 8.7154367e-20)
(0.25467145 -0.00063499349 6.1722545e-20)
(0.24235144 -0.00056062195 7.238742e-20)
(0.20813123 -0.0002141088 -1.3240269e-19)
(0.26006576 -3.6034054e-05 5.4085433e-18)
(0.26007152 -9.1214284e-05 5.4384239e-18)
(0.26008417 -0.00014544281 -2.5710242e-21)
(0.26010346 -0.00020298347 4.9973928e-19)
(0.26012923 -0.00026021093 2.1642657e-19)
(0.2601607 -0.00031758689 4.3366859e-19)
(0.26019497 -0.00037489796 2.5376478e-19)
(0.26022303 -0.0004318747 2.9803124e-19)
(0.26021952 -0.00048779066 3.0863527e-19)
(0.26011767 -0.00054204301 -7.104076e-20)
(0.25974224 -0.00058714002 1.5861781e-19)
(0.25857279 -0.00062806077 1.610989e-19)
(0.25467557 -0.00061594005 8.7331423e-20)
(0.24100379 -0.00052390611 7.8012182e-20)
(0.20544863 -0.00019196316 -5.6984839e-20)
(0.2609225 -3.5349633e-05 2.6511748e-18)
(0.26092828 -8.9497286e-05 4.0348387e-18)
(0.26094096 -0.00014270541 2.6250189e-19)
(0.26096023 -0.00019916671 3.1106586e-19)
(0.2609858 -0.00025530722 3.8440695e-19)
(0.2610165 -0.00031157921 4.9732408e-19)
(0.26104844 -0.00036774517 4.9143236e-20)
(0.2610702 -0.00042350433 5.4415608e-20)
(0.26105114 -0.00047801113 7.2181467e-20)
(0.26091327 -0.00053046085 -3.6950464e-21)
(0.2604557 -0.00057393662 1.1543461e-19)
(0.2590814 -0.00060990566 2.0987169e-19)
(0.2546009 -0.00059424331 6.7662627e-20)
(0.23963056 -0.00048937354 5.8444019e-20)
(0.20297926 -0.00016931833 -1.2460418e-20)
(0.26176274 -3.4655538e-05 3.3242541e-18)
(0.26176854 -8.7746855e-05 2.4570761e-18)
(0.26178122 -0.00013991377 -1.2790958e-18)
(0.26180042 -0.00019527246 4.2974207e-19)
(0.26182568 -0.00025030306 6.1359332e-19)
(0.26185536 -0.00030544608 2.8899035e-19)
(0.26188442 -0.00036043768 3.8889371e-19)
(0.26189878 -0.00041494196 1.8741113e-19)
(0.26186213 -0.00046801762 -1.2595295e-19)
(0.2616848 -0.00051862213 1.5186501e-19)
(0.26113855 -0.00056034346 3.1234746e-20)
(0.25954316 -0.00059189152 2.2517718e-19)
(0.25444651 -0.0005706321 1.5006886e-19)
(0.23824529 -0.00045627776 5.2838401e-20)
(0.20071509 -0.00014735259 -3.513498e-20)
(0.26258633 -3.3963061e-05 3.7893209e-18)
(0.26259213 -8.5993781e-05 -4.1852567e-20)
(0.26260479 -0.00013711719 2.7942465e-18)
(0.26262388 -0.00019136968 2.8172339e-19)
(0.2626487 -0.00024528655 -1.076168e-18)
(0.26267708 -0.00029929459 2.5802032e-19)
(0.26270267 -0.00035310243 3.8133139e-19)
(0.26270848 -0.00040633486 8.4232393e-20)
(0.26265224 -0.00045797299 -1.0428e-20)
(0.26243199 -0.00050672605 1.3613764e-19)
(0.26179026 -0.00054656345 1.2175557e-19)
(0.25995633 -0.0005740675 1.490216e-19)
(0.25421177 -0.00054566294 1.7499999e-19)
(0.23686046 -0.00042415213 -5.5143734e-22)
(0.19864765 -0.0001267576 1.5700899e-20)
(0.26339335 -3.32814e-05 3.0167868e-18)
(0.26339915 -8.4262741e-05 4.1859399e-18)
(0.26341177 -0.0001343551 2.5299512e-18)
(0.26343068 -0.0001875135 4.5381425e-19)
(0.26345493 -0.00024032822 1.1664593e-18)
(0.26348171 -0.00029321054 6.053173e-19)
(0.2635032 -0.00034584107 1.7497656e-19)
(0.2634993 -0.00039780175 -1.708908e-20)
(0.26342146 -0.00044800829 9.6386245e-20)
(0.26315482 -0.00049492779 -1.0807295e-19)
(0.26241041 -0.00053276478 1.6584263e-19)
(0.26031893 -0.00055643964 1.0859214e-19)
(0.2538966 -0.000519773 1.1578386e-19)
(0.23548766 -0.00039274464 -5.1495341e-21)
(0.19676807 -0.00010792878 1.3230746e-19)
(0.26418413 -3.2618312e-05 3.9355319e-18)
(0.26418991 -8.2574226e-05 3.3197408e-18)
(0.26420246 -0.00013166021 6.0487442e-19)
(0.26422112 -0.0001837496 9.6036253e-19)
(0.26424465 -0.00023548649 1.2521024e-18)
(0.2642695 -0.00028726512 8.9805218e-19)
(0.26428624 -0.00033873796 4.1306651e-19)
(0.26427145 -0.00038944152 2.9667922e-19)
(0.26416998 -0.0004382328 2.8691047e-19)
(0.26385341 -0.00048335173 6.6478229e-20)
(0.26299854 -0.00051908846 7.8105147e-20)
(0.26062878 -0.00053898815 1.0134532e-19)
(0.25350187 -0.00049331965 1.2644502e-19)
(0.2341376 -0.00036197184 8.2691303e-20)
(0.19506692 -9.1079356e-05 1.484883e-19)
(0.26495914 -3.1980325e-05 1.8076602e-18)
(0.2649649 -8.0945389e-05 3.3048746e-18)
(0.26497734 -0.00012905989 1.5963758e-18)
(0.26499568 -0.00018011622 1.4219433e-18)
(0.26501831 -0.00023081031 8.6979046e-19)
(0.26504088 -0.00028151806 7.8327172e-19)
(0.2650522 -0.00033186392 4.6788844e-19)
(0.2650253 -0.00038133727 5.5611201e-19)
(0.26489816 -0.00042873842 2.2678377e-19)
(0.26452796 -0.00047209828 1.0690661e-19)
(0.26355413 -0.00050565096 1.7242821e-19)
(0.2608835 -0.00052167636 6.5003987e-20)
(0.25302971 -0.00046660631 1.1462216e-19)
(0.23282016 -0.00033188327 7.3439821e-20)
(0.19353413 -7.6303786e-05 -9.0696777e-21)
(0.26571903 -3.1372765e-05 2.2283243e-18)
(0.26572475 -7.9390278e-05 2.6611035e-18)
(0.26573705 -0.00012657658 4.1128258e-19)
(0.26575498 -0.00017664472 1.0959245e-18)
(0.26577653 -0.00022633987 5.7333276e-19)
(0.26579644 -0.0002760185 5.4865507e-19)
(0.26580163 -0.0003252772 5.6942102e-19)
(0.26576141 -0.00037355728 4.7737455e-19)
(0.26560652 -0.00041960061 1.360046e-19)
(0.26517878 -0.00046124612 2.2090184e-19)
(0.26407657 -0.00049254343 2.0598148e-19)
(0.26108058 -0.00050445572 2.6813017e-20)
(0.25248384 -0.00043989699 8.3209237e-20)
(0.23154421 -0.00030262987 8.0893555e-20)
(0.19215888 -6.3609732e-05 -5.7434236e-21)
(0.26646455 -3.0799673e-05 6.0419871e-18)
(0.26647021 -7.791971e-05 1.431469e-18)
(0.26648233 -0.00012422759 4.1160585e-18)
(0.26649975 -0.0001733593 2.3022583e-18)
(0.26652002 -0.00022210618 -6.2649933e-19)
(0.26653688 -0.0002708044 9.6431998e-19)
(0.26653522 -0.00031902283 1.2989841e-18)
(0.26648042 -0.00036615421 8.0000541e-19)
(0.26629564 -0.00041087723 5.9350532e-19)
(0.26580617 -0.00045085191 8.765675e-21)
(0.26456508 -0.00047982866 5.1314433e-19)
(0.26121753 -0.00048726982 3.7644645e-19)
(0.25186982 -0.00041342264 3.2638621e-19)
(0.23031742 -0.00027443217 3.3705102e-19)
(0.1909297 -5.2932834e-05 2.3287676e-19)
(0.26719653 -3.0263687e-05 3.4994213e-18)
(0.26720212 -7.6541023e-05 6.8188015e-19)
(0.26721401 -0.00012202465 3.2228129e-18)
(0.26723083 -0.00017027641 2.0769994e-18)
(0.2672496 -0.00021813033 6.5121731e-19)
(0.26726299 -0.00026590165 1.1689518e-18)
(0.26725373 -0.0003131315 1.1342847e-18)
(0.26718309 -0.00035916374 7.276273e-19)
(0.26696618 -0.00040260692 4.9562047e-19)
(0.26641044 -0.00044094906 -7.9647525e-20)
(0.26501868 -0.00046753759 3.9673657e-19)
(0.26129202 -0.00047005901 4.1348023e-19)
(0.25119506 -0.00038738325 3.2553358e-19)
(0.2291461 -0.00024754677 3.2116438e-19)
(0.18983455 -4.4145099e-05 1.7470175e-19)
(0.26791589 -2.9765992e-05 -2.0306833e-18)
(0.26792138 -7.5257932e-05 6.6401155e-20)
(0.26793299 -0.00011997376 5.7564422e-19)
(0.26794908 -0.00016740448 4.3016369e-19)
(0.26796613 -0.00021442312 1.5513203e-18)
(0.26797562 -0.00026132351 5.9006751e-19)
(0.267958 -0.00030761887 3.8280342e-19)
(0.26787018 -0.00035260382 2.4318435e-19)
(0.2676188 -0.00039480805 3.6297926e-20)
(0.2669918 -0.00043154706 -1.3959839e-19)
(0.26543617 -0.00045566687 2.2292329e-20)
(0.2613021 -0.00045276643 1.6989338e-19)
(0.2504687 -0.00036194908 3.51963e-20)
(0.22803501 -0.00022223217 9.7348482e-20)
(0.18886112 -3.7064087e-05 2.2247047e-20)
(0.26862352 -2.9306383e-05 2.6357502e-18)
(0.2686289 -7.4070661e-05 1.0129553e-18)
(0.26864017 -0.00011807532 2.8803672e-18)
(0.26865542 -0.00016474413 2.3067357e-18)
(0.26867049 -0.00021098533 1.7223906e-18)
(0.26867563 -0.000257071 1.0938176e-18)
(0.26864885 -0.00030248606 1.1330499e-18)
(0.26854251 -0.00034647515 9.7332538e-19)
(0.26825414 -0.00038747924 7.1751207e-19)
(0.26755035 -0.00042263245 -3.2920201e-19)
(0.2658161 -0.00044417905 2.7775106e-19)
(0.26124652 -0.00043534493 3.891866e-19)
(0.24970133 -0.00033726333 3.134826e-19)
(0.22698727 -0.00019871676 2.763447e-19)
(0.18799711 -3.1466398e-05 1.9621752e-19)
(0.26932033 -2.888346e-05 2.6017395e-18)
(0.26932558 -7.2976356e-05 -1.447885e-18)
(0.26933645 -0.00011632481 7.6860724e-19)
(0.26935072 -0.00016228909 1.9985521e-18)
(0.26936357 -0.0002078089 2.0120244e-18)
(0.26936389 -0.00025313433 1.3296059e-18)
(0.26932713 -0.0002977213 1.0433584e-18)
(0.26920083 -0.00034076321 1.021175e-18)
(0.2688728 -0.00038060158 8.1822718e-19)
(0.26808605 -0.00041417146 3.8227083e-19)
(0.26615679 -0.00043300583 2.3744381e-19)
(0.26112496 -0.00041776402 3.339187e-19)
(0.24890441 -0.00031344658 3.0079496e-19)
(0.22600436 -0.00017717261 2.1413744e-19)
(0.18723056 -2.7105586e-05 2.3119892e-19)
(0.27000719 -2.849491e-05 5.0913944e-18)
(0.27001228 -7.1969743e-05 2.3833441e-18)
(0.27002267 -0.00011471384 2.4396488e-18)
(0.27003583 -0.00016002771 2.4027009e-18)
(0.27004618 -0.00020487885 1.3465256e-18)
(0.27004119 -0.00024949516 1.5077511e-18)
(0.2699936 -0.00029330262 1.0148685e-18)
(0.26984584 -0.00033544136 8.4313588e-19)
(0.26947524 -0.00037414208 6.0223381e-19)
(0.2685986 -0.00040611399 4.5267345e-19)
(0.26645635 -0.00042205446 2.4013815e-19)
(0.2609383 -0.00040001524 2.7925049e-19)
(0.24808975 -0.00029060213 3.1047158e-19)
(0.22508629 -0.00015769827 3.5298046e-19)
(0.18655015 -2.3732129e-05 2.4601021e-19)
(0.27068489 -2.8137825e-05 7.6789095e-18)
(0.2706898 -7.1043906e-05 4.2410046e-18)
(0.27069965 -0.00011323138 4.2591926e-18)
(0.27071153 -0.00015794462 3.8298867e-18)
(0.2707191 -0.00020217545 1.4090493e-18)
(0.27070829 -0.00024612933 2.1277486e-18)
(0.27064898 -0.00028920108 2.0141058e-18)
(0.27047818 -0.00033047455 1.3509304e-18)
(0.27006181 -0.00036805783 9.3683659e-19)
(0.26908753 -0.00039839812 1.0103673e-19)
(0.26671278 -0.00041121648 5.7845419e-19)
(0.26068881 -0.00038211515 6.1449259e-19)
(0.24726882 -0.00026882041 6.6476214e-19)
(0.22423175 -0.00014031231 5.7372615e-19)
(0.18594537 -2.1112147e-05 3.9218266e-19)
(0.27135418 -2.7809011e-05 6.9267703e-19)
(0.27135887 -7.0191041e-05 4.3616413e-18)
(0.2713681 -0.00011186497 2.2334125e-18)
(0.27137855 -0.00015602247 1.5228111e-18)
(0.27138303 -0.00019967637 2.3605645e-18)
(0.27136587 -0.00024300948 1.4396821e-18)
(0.27129391 -0.00028538386 1.3717504e-18)
(0.27109836 -0.000325823 8.5666747e-19)
(0.27063272 -0.00036230005 4.6960988e-19)
(0.26955206 -0.00039095432 1.5924094e-19)
(0.26692403 -0.00040037784 2.6194493e-19)
(0.26038022 -0.00036410564 3.4879321e-19)
(0.24645221 -0.00024818088 2.9079785e-19)
(0.22343841 -0.00012495718 2.3751337e-19)
(0.18540672 -1.9041831e-05 2.8441e-19)
(0.27201571 -2.7505235e-05 2.4381559e-18)
(0.27202015 -6.94031e-05 3.1134269e-18)
(0.27202866 -0.00011060176 2.8216139e-18)
(0.27203751 -0.00015424331 1.5761618e-18)
(0.2720386 -0.00019735858 2.1318702e-18)
(0.27201452 -0.00024010733 1.1077933e-18)
(0.27192892 -0.00028181693 9.5233311e-19)
(0.2717068 -0.00032144525 9.3257215e-19)
(0.27118802 -0.00035681747 4.8619651e-19)
(0.2699912 -0.00038370884 9.4596395e-20)
(0.26708822 -0.000389429 2.6394313e-19)
(0.26001771 -0.00034605163 2.226104e-19)
(0.24564917 -0.00022875086 2.1396253e-19)
(0.22270325 -0.00011151162 2.3503433e-19)
(0.18492573 -1.7355844e-05 2.9273251e-19)
(0.27267005 -2.7223403e-05 -2.8072985e-19)
(0.27267421 -6.8672269e-05 -5.2475057e-19)
(0.27268192 -0.00010942927 1.8400619e-18)
(0.27268898 -0.00015258973 2.2154154e-18)
(0.27268634 -0.00019519966 1.7601288e-18)
(0.27265476 -0.00023739527 1.2819235e-18)
(0.27255447 -0.00027846699 8.7745766e-19)
(0.2723038 -0.00031730047 6.8138965e-19)
(0.27172757 -0.00035155884 3.9008101e-19)
(0.27040369 -0.00037658611 5.1508693e-19)
(0.26720375 -0.00037827411 3.0027471e-19)
(0.25960771 -0.00032803713 3.7080788e-19)
(0.24486735 -0.00021058184 3.2205984e-19)
(0.22202277 -9.980814e-05 1.9382145e-19)
(0.18449494 -1.5929485e-05 2.606608e-19)
(0.27331772 -2.6960666e-05 3.0181812e-18)
(0.27332155 -6.7991274e-05 3.7562395e-18)
(0.27332837 -0.00010833587 3.7832687e-18)
(0.27333345 -0.00015104547 2.2981886e-18)
(0.27332673 -0.00019317869 1.1201243e-18)
(0.27328702 -0.00023484751 1.3331553e-18)
(0.27317093 -0.0002753027 8.9355692e-19)
(0.27288957 -0.00031334989 6.4165122e-19)
(0.27225107 -0.00034647442 4.4070404e-19)
(0.27078808 -0.00036951039 5.2629758e-19)
(0.26726952 -0.00036683813 2.7376322e-19)
(0.25915765 -0.0003101602 4.8290709e-19)
(0.24411266 -0.00019370464 4.4380439e-19)
(0.22139331 -8.9652404e-05 2.6460137e-19)
(0.1841079 -1.467569e-05 1.5266487e-19)
(0.27395916 -2.6714475e-05 1.0398582e-17)
(0.27396262 -6.7353542e-05 5.526488e-18)
(0.27396843 -0.00010731104 5.2511316e-18)
(0.27397134 -0.00014959583 3.7221496e-18)
(0.27396016 -0.00019127671 1.3892734e-18)
(0.27391168 -0.00023244055 1.7980391e-18)
(0.2737786 -0.00027229533 1.5073912e-18)
(0.27346419 -0.00030955757 1.4956409e-18)
(0.27275806 -0.00034151676 1.0217518e-18)
(0.27114274 -0.00036240704 2.2738563e-19)
(0.26728512 -0.00035507155 6.2860799e-19)
(0.25867552 -0.00029252748 7.363762e-19)
(0.24338933 -0.00017812521 7.4959246e-19)
(0.22081116 -8.0841193e-05 6.5770671e-19)
(0.18375901 -1.3538668e-05 3.1494405e-19)
(0.27459475 -2.6482589e-05 2.5977788e-18)
(0.2745978 -6.675326e-05 5.9091079e-18)
(0.27460249 -0.0001063455 2.9716412e-18)
(0.274603 -0.0001482278 2.6837507e-18)
(0.27458699 -0.00018947691 2.3718404e-18)
(0.27452902 -0.00023015345 1.377173e-18)
(0.27437767 -0.00026941895 1.1496236e-18)
(0.27402763 -0.00030589064 7.9625118e-19)
(0.27324789 -0.00033664079 6.0469053e-19)
(0.27146593 -0.00035520381 2.7260146e-19)
(0.26725094 -0.00034295249 2.804909e-19)
(0.25816956 -0.0002752486 3.6031145e-19)
(0.24270004 -0.00016382254 3.8061623e-19)
(0.22027275 -7.3177111e-05 4.1739842e-19)
(0.18344349 -1.2486089e-05 2.3128914e-19)
(0.27522481 -2.6263072e-05 7.2850003e-19)
(0.27522741 -6.6185367e-05 5.6199377e-18)
(0.27523087 -0.00010543114 2.6697221e-18)
(0.27522875 -0.00014693 1.9882029e-18)
(0.27520748 -0.00018776455 2.5553405e-18)
(0.2751393 -0.00022796774 1.8643216e-18)
(0.27496829 -0.00026665041 1.5255267e-18)
(0.27457978 -0.00030231921 9.1560312e-19)
(0.27371976 -0.0003318036 7.6037141e-19)
(0.27175586 -0.00034783257 4.0955742e-19)
(0.26716832 -0.00033048644 2.7514546e-19)
(0.25764777 -0.0002584306 3.7570198e-19)
(0.24204621 -0.0001507494 3.3985933e-19)
(0.21977469 -6.6478886e-05 4.0289483e-19)
(0.18315725 -1.1501422e-05 2.6357465e-19)
(0.27584964 -2.6054261e-05 6.7589401e-19)
(0.27585173 -6.5645512e-05 2.2254231e-18)
(0.27585383 -0.00010456099 1.2153938e-18)
(0.27584885 -0.00014569263 2.0595851e-18)
(0.27582189 -0.00018612688 2.1922672e-18)
(0.2757427 -0.00022586725 1.6026141e-18)
(0.27555053 -0.00026396905 1.2907795e-18)
(0.27512041 -0.00029881615 1.100054e-18)
(0.27417268 -0.00032696406 7.3021554e-19)
(0.27201082 -0.00034023144 8.8126874e-19)
(0.26703956 -0.00031770398 3.5772784e-19)
(0.25711762 -0.00024217267 5.18815e-19)
(0.24142819 -0.00013883591 3.5647474e-19)
(0.21931381 -6.0587305e-05 4.2110538e-19)
(0.18289682 -1.0577471e-05 2.804623e-19)
(0.27646948 -2.5854749e-05 4.0996296e-18)
(0.27647102 -6.5129981e-05 4.1223627e-18)
(0.27647162 -0.00010372909 3.3181156e-18)
(0.27646352 -0.0001445073 2.9275486e-18)
(0.2764304 -0.00018455289 1.2988426e-18)
(0.27633935 -0.00022383791 1.5142764e-18)
(0.27612438 -0.00026135648 1.0356555e-18)
(0.27564919 -0.00029535665 9.7087444e-19)
(0.27460555 -0.00032208226 6.6207812e-19)
(0.27222923 -0.0003323472 7.3824452e-19)
(0.26686787 -0.00030465719 4.2751747e-19)
(0.25658579 -0.00022656126 4.8806663e-19)
(0.2408456 -0.00012799526 5.4720927e-19)
(0.21888719 -5.5367367e-05 2.6000532e-19)
(0.18265925 -9.7115805e-06 2.690048e-19)
(0.27708455 -2.5663344e-05 9.2268559e-18)
(0.27708548 -6.4635631e-05 4.7593985e-18)
(0.27708444 -0.0001029304 4.8127619e-18)
(0.27707295 -0.00014336686 3.7355823e-18)
(0.27703318 -0.00018303314 2.0941455e-18)
(0.27692935 -0.00022186743 2.5355556e-18)
(0.2766898 -0.00025879623 1.9414923e-18)
(0.27616569 -0.00029191777 1.5802046e-18)
(0.27501711 -0.00031711916 1.3922704e-18)
(0.27240981 -0.00032413774 4.7136737e-19)
(0.26665729 -0.00029141517 8.9304563e-19)
(0.256058 -0.00021166603 9.0990387e-19)
(0.24029748 -0.00011813047 8.3704515e-19)
(0.21849214 -5.0707644e-05 6.1801998e-19)
(0.18244204 -8.9025342e-06 4.4711337e-19)
(0.27769504 -2.5479044e-05 2.1158288e-18)
(0.27769529 -6.4159806e-05 4.5090724e-18)
(0.27769247 -0.00010216064 2.8195334e-18)
(0.27767729 -0.00014226521 2.2409624e-18)
(0.27763035 -0.0001815595 2.7425963e-18)
(0.27751275 -0.00021994503 1.5179186e-18)
(0.27724666 -0.00025627339 1.4238031e-18)
(0.27666938 -0.00028847796 1.1788868e-18)
(0.275406 -0.00031203634 8.8263474e-19)
(0.27255164 -0.0003155742 5.0154696e-19)
(0.26641246 -0.00027805925 5.4734633e-19)
(0.25553894 -0.00019753711 5.6910702e-19)
(0.23978254 -0.00010914113 2.6155134e-19)
(0.21812621 -4.6517862e-05 4.6087185e-19)
(0.18224308 -8.1488554e-06 2.9970438e-19)
(0.27830111 -2.5301005e-05 7.8137031e-19)
(0.27830062 -6.3700269e-05 3.066254e-18)
(0.27829586 -0.0001014162 3.6003882e-18)
(0.2782767 -0.00014119716 2.6246418e-18)
(0.278222 -0.00018012493 2.2970266e-18)
(0.27808956 -0.00021806116 1.5553182e-18)
(0.2777948 -0.00025377436 1.3500824e-18)
(0.27715962 -0.0002850166 1.1327749e-18)
(0.27577079 -0.00030679609 8.37548e-19)
(0.27265429 -0.00030664248 5.2873722e-19)
(0.26613848 -0.00026467813 6.106134e-19)
(0.2550323 -0.00018420368 5.9031423e-19)
(0.23929925 -0.00010092916 5.3888902e-19)
(0.21778713 -4.2725646e-05 4.5084191e-19)
(0.18206056 -7.4481441e-06 3.2980764e-19)
(0.27890291 -2.5128516e-05 3.2482964e-19)
(0.27890162 -6.3255127e-05 2.1700682e-19)
(0.27889474 -0.00010069401 1.8578349e-18)
(0.27887126 -0.00014015826 2.43484e-18)
(0.27880821 -0.00017872332 2.3300045e-18)
(0.27865976 -0.00021620724 1.3792327e-18)
(0.27833397 -0.00025128651 9.6274597e-19)
(0.27763569 -0.00028151345 7.4671791e-19)
(0.27611001 -0.00030136188 9.1663486e-19)
(0.2727179 -0.00029734386 8.7001035e-19)
(0.26584062 -0.00025136317 6.9412794e-19)
(0.25454084 -0.00017167439 6.9275996e-19)
(0.23884602 -9.340316e-05 6.4854347e-19)
(0.21747286 -3.9273088e-05 4.7812437e-19)
(0.18189296 -6.7970341e-06 3.2132595e-19)
(0.27950056 -2.4960972e-05 -1.483758e-18)
(0.2794984 -6.2822774e-05 4.304884e-18)
(0.27948922 -9.9991432e-05 1.365522e-18)
(0.27946108 -0.00013914466 1.3030962e-18)
(0.279389 -0.00017734922 2.1769636e-18)
(0.27922329 -0.00021437542 5.4444963e-19)
(0.27886389 -0.00024879793 4.59607e-19)
(0.27809674 -0.00027794828 2.7798774e-19)
(0.27642222 -0.0002956992 2.899343e-19)
(0.27274323 -0.00028769474 7.815289e-19)
(0.2655241 -0.00023820406 2.1895164e-19)
(0.25406651 -0.00015993912 1.6727128e-19)
(0.23842119 -8.6481051e-05 7.717532e-20)
(0.21718151 -3.6113612e-05 1.7644898e-20)
(0.18173897 -6.1914744e-06 1.5503476e-19)
(0.28009418 -2.4797856e-05 2.4055163e-18)
(0.28009107 -6.2401833e-05 3.9167563e-18)
(0.28007941 -9.9306213e-05 3.2207268e-18)
(0.28004623 -0.00013815299 1.9199834e-18)
(0.27996442 -0.00017599777 2.4044587e-18)
(0.27978006 -0.00021255837 8.7261481e-19)
(0.2793842 -0.00024629715 8.2517922e-19)
(0.27854186 -0.00027430051 5.3722292e-19)
(0.27670605 -0.00028977675 2.6275914e-19)
(0.27273166 -0.00027772559 7.9554708e-19)
(0.26519392 -0.00022528491 3.1776972e-19)
(0.25361059 -0.00014897206 5.2394769e-21)
(0.23802316 -8.0091229e-05 1.2086264e-19)
(0.21691137 -3.3209338e-05 -6.7276183e-20)
(0.18159747 -5.6270981e-06 1.7293445e-19)
(0.28068388 -2.4638721e-05 3.8539414e-18)
(0.28067974 -6.1991114e-05 2.2752281e-18)
(0.28066539 -9.8636369e-05 3.6012556e-18)
(0.28062676 -0.00013718022 2.005691e-18)
(0.28053445 -0.00017466447 2.55257e-18)
(0.28032993 -0.00021074911 1.3337285e-18)
(0.27989449 -0.00024377295 5.3002419e-19)
(0.27897002 -0.0002705489 3.7849161e-19)
(0.27696025 -0.00028356785 3.8208081e-19)
(0.27268518 -0.00026747915 7.4307626e-19)
(0.26485469 -0.00021268091 2.4229174e-19)
(0.25317379 -0.00013873548 6.8377755e-20)
(0.23765034 -7.4172512e-05 5.9070172e-20)
(0.2166609 -3.0529028e-05 5.8912743e-20)
(0.18146749 -5.0995654e-06 1.6311348e-19)
(0.28126974 -2.4483173e-05 3.3094558e-18)
(0.28126449 -6.1589567e-05 5.4484193e-18)
(0.28124722 -9.7980135e-05 4.1328064e-18)
(0.28120271 -0.00013622364 7.5108191e-19)
(0.28109907 -0.00017334514 1.3005416e-18)
(0.28087275 -0.00020894082 8.0866423e-19)
(0.28039427 -0.00024121406 -2.4546213e-20)
(0.27938014 -0.00026667151 -1.7096705e-19)
(0.27718382 -0.00027705191 7.6328506e-20)
(0.27260633 -0.00025700811 8.8480366e-20)
(0.26451052 -0.00020045586 -3.2572368e-19)
(0.25275643 -0.00012918377 -2.8331146e-19)
(0.23730122 -6.867327e-05 -3.5074584e-19)
(0.21642866 -2.8046556e-05 -2.0957286e-19)
(0.18134818 -4.6048112e-06 -3.4526946e-20)
(0.28185185 -2.4330856e-05 2.3787642e-18)
(0.28184539 -6.1196251e-05 5.6433219e-18)
(0.28182498 -9.7335907e-05 3.1491067e-18)
(0.28177412 -0.00013528067 1.120801e-18)
(0.28165823 -0.00017203573 1.0236194e-18)
(0.2814083 -0.00020712676 7.8035874e-19)
(0.28088299 -0.00023860899 3.6018099e-19)
(0.27977106 -0.0002626457 -9.5521859e-20)
(0.27737601 -0.00027021574 1.3975372e-19)
(0.27249806 -0.00024637256 -4.1912984e-20)
(0.26416497 -0.00018866039 -1.5997728e-19)
(0.2523585 -0.00012026721 -2.6823499e-19)
(0.23697438 -6.355012e-05 -3.2331015e-19)
(0.21621337 -2.5739813e-05 -7.0741111e-20)
(0.18123881 -4.1392027e-06 -8.6748791e-20)
(0.28243029 -2.4181448e-05 3.3878957e-18)
(0.28242252 -6.0810308e-05 5.6259847e-18)
(0.28239871 -9.6702197e-05 3.0585052e-18)
(0.28234099 -0.00013434892 2.6149458e-18)
(0.28221186 -0.00017073227 1.6256002e-18)
(0.28193636 -0.00020530013 1.2355433e-18)
(0.28136003 -0.00023594579 8.0391209e-19)
(0.2801416 -0.00025844846 7.1536922e-19)
(0.27753642 -0.00026305461 6.4836514e-19)
(0.27236366 -0.00023563725 2.4539909e-19)
(0.26382105 -0.00017733135 2.8705333e-19)
(0.25197976 -0.00011193519 2.6578469e-19)
(0.23666845 -5.8766484e-05 2.6355474e-19)
(0.21601387 -2.3589917e-05 3.8255021e-19)
(0.1811387 -3.6995966e-06 1.4757146e-19)
(0.28300512 -2.4034648e-05 1.5884388e-18)
(0.28299594 -6.0430938e-05 2.3769117e-18)
(0.28296845 -9.6077596e-05 2.9629231e-18)
(0.28290332 -0.00013342601 2.7272759e-18)
(0.28275987 -0.00016943078 1.4725462e-18)
(0.28245663 -0.00020345398 9.6357742e-19)
(0.28182471 -0.00023321186 8.3768764e-19)
(0.28049057 -0.0002540569 8.5159064e-19)
(0.27766504 -0.00025557284 4.6441958e-19)
(0.27220658 -0.00022486879 7.9502119e-19)
(0.26348123 -0.0001664919 4.6430421e-19)
(0.25161982 -0.00010413862 9.6468274e-20)
(0.23638216 -5.4291225e-05 3.4317497e-19)
(0.21582908 -2.1580657e-05 2.2038415e-19)
(0.18104728 -3.2833415e-06 1.7483728e-19)
(0.2835764 -2.3890167e-05 6.4054673e-19)
(0.28356569 -6.0057379e-05 2.9358746e-18)
(0.28353424 -9.5460739e-05 3.218562e-18)
(0.2834611 -0.00013250962 2.7836257e-18)
(0.28330215 -0.00016812719 1.6104913e-18)
(0.28296879 -0.00020158114 1.1998151e-18)