/*--------------------------------*- C++ -*----------------------------------*\
| =========                 |                                                 |
| \\      /  F ield         | OpenFOAM: The Open Source CFD Toolbox           |
|  \\    /   O peration     | Version:  2506                                  |
|   \\  /    A nd           | Website:  www.openfoam.com                      |
|    \\/     M anipulation  |                                                 |
\*---------------------------------------------------------------------------*/
FoamFile
{
    version     2.0;
    format      ascii;
    arch        "LSB;label=32;scalar=64";
    class       volScalarField;
    location    "17000/water";
    object      alphat;
}
// * * * * * * * * * * * * * * * * * * * * * * * * * * * * * * * * * * * * * //

dimensions      [1 -1 -1 0 0 0 0];

internalField   nonuniform List<scalar> 
6000
(
0.041292847
0.041292824
0.041292831
0.041292856
0.041292889
0.041292932
0.041292983
0.041293016
0.041292808
0.041290571
0.041271537
0.041111294
0.0397723
0.030564074
0.013464793
0.040788543
0.040788537
0.040788576
0.040788654
0.040788758
0.040788888
0.04078902
0.040788972
0.040787494
0.040776037
0.040696382
0.040161217
0.036863805
0.023766469
0.015141611
0.04033569
0.040335696
0.040335761
0.040335884
0.040336044
0.040336229
0.04033633
0.040335685
0.040330323
0.040296649
0.040097616
0.038983223
0.033614213
0.0194951
0.016360294
0.039926215
0.039926219
0.039926301
0.039926459
0.03992666
0.039926848
0.039926701
0.039924457
0.039910659
0.039835636
0.039448738
0.037597438
0.030384627
0.016783058
0.017196555
0.039553796
0.039553808
0.039553906
0.039554093
0.039554312
0.039554413
0.039553622
0.0395481
0.039519187
0.039379112
0.038737841
0.036066498
0.027427863
0.015063192
0.01773179
0.039213273
0.039213296
0.039213408
0.039213613
0.039213809
0.039213657
0.039211571
0.039200298
0.039147643
0.038916647
0.037965398
0.034462847
0.024852826
0.013984463
0.018040007
0.038900366
0.038900399
0.038900521
0.038900723
0.038900826
0.038900159
0.038895819
0.03887551
0.038788999
0.038441492
0.037140256
0.032849727
0.022675913
0.013336844
0.018183117
0.038611532
0.038611573
0.038611697
0.038611866
0.038611765
0.038610199
0.038602307
0.038568928
0.038437606
0.037950377
0.036275872
0.031274836
0.020870828
0.012994967
0.018210197
0.038343817
0.038343862
0.038343975
0.038344065
0.038343601
0.038340605
0.038327517
0.03827644
0.038089201
0.037442856
0.03538704
0.029770035
0.019396999
0.012882914
0.018158676
0.038094736
0.03809478
0.038094862
0.038094803
0.038093753
0.038088644
0.038068396
0.037994592
0.037740813
0.036920504
0.03448763
0.028354169
0.018213448
0.012953916
0.018056304
0.037862183
0.037862216
0.037862238
0.037861935
0.037860009
0.037851941
0.037822294
0.037720559
0.037390607
0.036386134
0.033589398
0.02703684
0.017284481
0.013178532
0.017923231
0.03764436
0.037644371
0.037644291
0.037643618
0.037640447
0.037628426
0.037586933
0.037452106
0.037037684
0.035843147
0.032701562
0.025821837
0.016581272
0.013537499
0.017773886
0.037439726
0.037439699
0.03743946
0.037438254
0.037433393
0.037416287
0.037360374
0.037187532
0.036681868
0.035295042
0.031830871
0.02470985
0.016081614
0.014017191
0.017618497
0.037246949
0.037246861
0.037246392
0.037244452
0.037237378
0.037213943
0.037140989
0.036925609
0.0363235
0.034745073
0.030981931
0.023700436
0.015768976
0.014606606
0.017464261
0.037064871
0.037064693
0.037063903
0.037060987
0.037051109
0.037020016
0.036927437
0.036665512
0.035963258
0.03419604
0.030157673
0.022793377
0.015631332
0.015295285
0.017316197
0.03689248
0.036892177
0.036890955
0.036886782
0.036873442
0.036833316
0.036718634
0.03640675
0.035602004
0.033650187
0.029359858
0.021989539
0.015659917
0.016071914
0.01717775
0.036728885
0.036728414
0.036726628
0.036720878
0.03670337
0.036652818
0.036513731
0.036149096
0.035240656
0.033109157
0.028589603
0.021291346
0.015847992
0.016923492
0.017051196
0.036573301
0.03657261
0.036570106
0.036562424
0.036540005
0.036477653
0.03631208
0.035892529
0.034880099
0.032574024
0.027847913
0.02070292
0.016189617
0.01783505
0.016937915
0.036425028
0.036424056
0.036420663
0.036410663
0.036382564
0.036307092
0.036113215
0.03563717
0.034521109
0.032045349
0.027136212
0.020229919
0.016678486
0.018789895
0.016838558
0.036283441
0.03628212
0.036277645
0.036264917
0.036230367
0.036140535
0.03591682
0.035383242
0.034164308
0.031523285
0.026456862
0.019879123
0.017306891
0.019770317
0.016753165
0.036147982
0.036146234
0.036140468
0.036124584
0.036082821
0.035977497
0.035722708
0.035131018
0.033810124
0.031007717
0.025813646
0.019657797
0.018064912
0.0207586
0.016681265
0.036018143
0.036015885
0.036008605
0.035989127
0.035939416
0.035817597
0.035530799
0.034880794
0.033458783
0.030498445
0.025212142
0.019572905
0.018939949
0.021738147
0.016621966
0.03589347
0.03589061
0.035881581
0.035858069
0.035799718
0.035660549
0.035341095
0.034632853
0.033110301
0.029995409
0.024659951
0.019630248
0.019916664
0.02269449
0.016574063
0.035773545
0.035769987
0.035758968
0.035730991
0.035663366
0.035506152
0.035153669
0.034387441
0.032764498
0.029498968
0.024166686
0.019833637
0.020977366
0.023616003
0.016536152
0.035657992
0.035653635
0.035640383
0.035607524
0.035530063
0.035354279
0.034968643
0.03414475
0.03242103
0.029010211
0.023743688
0.020184173
0.022102784
0.024494228
0.016506745
0.035546464
0.035541207
0.035525479
0.035487349
0.035399574
0.035204869
0.034786172
0.033904896
0.032079439
0.028531301
0.023403466
0.020679734
0.023273104
0.025323802
0.016484372
0.035438647
0.035432386
0.035413948
0.035370193
0.035271718
0.035057919
0.034606436
0.03366791
0.03173923
0.028065808
0.023158914
0.021314706
0.0244691
0.026102089
0.016467662
0.035334251
0.035326887
0.035305516
0.035255823
0.03514637
0.034913479
0.03442962
0.033433727
0.031399978
0.02761899
0.023022388
0.022080017
0.02567317
0.026828633
0.016455398
0.035233012
0.035224448
0.035199939
0.03514405
0.035023453
0.034771643
0.034255909
0.033202186
0.031061475
0.027197981
0.02300477
0.022963453
0.026870128
0.027504567
0.016446543
0.035134691
0.035124836
0.035097009
0.035034724
0.034902936
0.03463254
0.03408547
0.032973033
0.030723902
0.0268118
0.023114633
0.02395025
0.02804767
0.028132079
0.016440248
0.035039067
0.03502784
0.034996542
0.034927732
0.034784832
0.034496333
0.033918446
0.032745938
0.030388046
0.026471168
0.023357597
0.025023883
0.02919649
0.028713983
0.016435834
0.034945943
0.034933275
0.034898386
0.034822996
0.034669194
0.034363211
0.033754944
0.032520522
0.030055535
0.026188099
0.023735915
0.026166983
0.030310099
0.029253407
0.016432778
0.034855141
0.034840974
0.034802418
0.034720475
0.034556112
0.034233382
0.033595029
0.032296402
0.029729078
0.025975302
0.024248334
0.02736225
0.031384439
0.029753594
0.016430685
0.034766502
0.034750797
0.03470854
0.034620164
0.034445715
0.034107066
0.033438713
0.032073259
0.029412693
0.025845434
0.02489019
0.028593298
0.032417399
0.030217765
0.016429265
0.034679887
0.034662624
0.034616684
0.034522088
0.034338162
0.033984492
0.033285952
0.031850929
0.029111867
0.025810314
0.025653731
0.029845306
0.033408314
0.030649046
0.016428312
0.034595176
0.034576356
0.034526808
0.034426308
0.034233647
0.033865888
0.033136649
0.03162952
0.028833633
0.025880169
0.026528619
0.031105458
0.03435753
0.03105041
0.016427682
0.034512269
0.034491917
0.034438897
0.034332917
0.034132389
0.033751478
0.032990657
0.031409555
0.028586515
0.02606301
0.027502554
0.032363144
0.035266042
0.031424648
0.01642728
0.034431083
0.034409252
0.034352965
0.034242042
0.034034637
0.033641469
0.032847794
0.031192142
0.028380315
0.026364175
0.028561979
0.033609948
0.036135248
0.031774346
0.016427047
0.034351558
0.034328331
0.034269052
0.034153841
0.033940664
0.03353605
0.032707869
0.03097915
0.028225758
0.02678609
0.029692788
0.034839473
0.03696677
0.032101874
0.01642695
0.034273652
0.034249145
0.03418723
0.034068505
0.03385076
0.033435383
0.03257072
0.030773393
0.028133997
0.02732822
0.030880993
0.036047067
0.037762344
0.032409381
0.016426974
0.034197344
0.03417171
0.034107598
0.033986257
0.033765237
0.033339598
0.032436275
0.030578781
0.028116032
0.027987224
0.032113284
0.037229503
0.038523755
0.032698799
0.016427117
0.034122637
0.034096065
0.034030285
0.033907355
0.033684417
0.033248788
0.032304627
0.030400435
0.028182107
0.028757249
0.03337746
0.038384662
0.039252794
0.032971855
0.016427382
0.034049553
0.034022276
0.033955452
0.033832084
0.033608631
0.033163012
0.03217613
0.030244714
0.02834114
0.029630358
0.034662707
0.039511265
0.039951228
0.033230086
0.016427779
0.03397814
0.033950437
0.033883292
0.033760766
0.033538214
0.033082299
0.032051523
0.030119154
0.028600247
0.030597021
0.035959727
0.04060864
0.040620777
0.033474856
0.016428318
0.033908471
0.033880668
0.033814033
0.033693749
0.033473498
0.033006661
0.031932061
0.03003229
0.028964396
0.031646651
0.037260744
0.041676558
0.0412631
0.033707373
0.01642901
0.033840644
0.033813121
0.033747936
0.033631414
0.033414804
0.032936115
0.031819661
0.029993368
0.029436211
0.032768129
0.038559405
0.042715108
0.041879779
0.033928705
0.016429865
0.033774787
0.03374798
0.033685299
0.033574167
0.033362441
0.032870717
0.031717044
0.030011961
0.030015933
0.033950283
0.039850628
0.043724612
0.042472314
0.034139802
0.016430892
0.033711057
0.03368546
0.033626458
0.03352244
0.033316699
0.032810615
0.031627853
0.030097519
0.030701523
0.035182301
0.041130415
0.044705564
0.043042114
0.034341502
0.016432097
0.033649643
0.033625814
0.033571787
0.033476689
0.033277844
0.032756113
0.031556734
0.030258903
0.031488877
0.036454043
0.042395663
0.045658587
0.043590498
0.034534553
0.016433487
0.03359077
0.033569333
0.033521698
0.033437387
0.03324612
0.032707756
0.031509357
0.030503938
0.032372143
0.037756266
0.043643994
0.046584395
0.044118699
0.034719618
0.016435064
0.033534699
0.033516348
0.033476647
0.033405019
0.033221753
0.032666433
0.031492358
0.030839026
0.033344086
0.039080734
0.044873611
0.04748377
0.044627864
0.034897289
0.016436831
0.033481731
0.033467235
0.033437127
0.033380083
0.033204961
0.032633491
0.031513197
0.031268865
0.034396491
0.040420264
0.046083175
0.048357533
0.045119059
0.035068096
0.016438788
0.033432211
0.033422413
0.033403675
0.033363076
0.033195977
0.032610855
0.031579922
0.031796264
0.035520554
0.041768689
0.047271716
0.04920653
0.045593277
0.035232514
0.016440933
0.033386531
0.033382352
0.033376864
0.033354497
0.033195078
0.03260115
0.031700871
0.03242209
0.036707255
0.043120787
0.048438562
0.050031614
0.046051438
0.035390969
0.016443266
0.033345134
0.033347573
0.033357309
0.033354836
0.033202628
0.032607792
0.031884307
0.033145317
0.037947674
0.04447218
0.049583282
0.050833633
0.046494398
0.035543844
0.016445782
0.033308518
0.033318652
0.033345661
0.033364571
0.033219143
0.032635061
0.032138041
0.033963177
0.039233251
0.045819222
0.050705639
0.051613421
0.046922952
0.035691489
0.016448478
0.033277237
0.03329622
0.033342601
0.033384174
0.033245363
0.03268811
0.03246907
0.034871381
0.040555967
0.047158892
0.05180556
0.052371796
0.04733784
0.035834219
0.016451351
0.033251914
0.033280969
0.033348845
0.033414106
0.033282345
0.032772917
0.032883246
0.035864398
0.041908472
0.048488701
0.052883101
0.053109548
0.047739749
0.03597232
0.016454394
0.033233235
0.033273652
0.033365129
0.033454836
0.033331563
0.032896165
0.033385033
0.036935759
0.043284141
0.049806605
0.05393842
0.053827443
0.048129319
0.036106053
0.016457603
0.033221962
0.033275082
0.033392211
0.033506851
0.033395017
0.03306505
0.033977334
0.038078364
0.044677086
0.051110935
0.054971758
0.05452622
0.048507145
0.036235659
0.016460974
0.033218934
0.033286139
0.033430864
0.033570696
0.033475332
0.033287021
0.034661421
0.039284778
0.046082131
0.052400342
0.055983418
0.055206587
0.048873783
0.036361356
0.016464499
0.033225073
0.033307763
0.033481871
0.033647009
0.033575845
0.033569484
0.035436951
0.040547492
0.047494762
0.053673745
0.056973755
0.055869227
0.049229756
0.036483354
0.016468174
0.033241386
0.033340956
0.033546021
0.033736578
0.03370066
0.033919478
0.036302066
0.041859137
0.048911068
0.054930292
0.05794315
0.056514769
0.049575443
0.036601083
0.01647199
0.033268972
0.03338678
0.033624113
0.033840421
0.033854652
0.034343363
0.037253558
0.043212657
0.050327672
0.056169323
0.058892008
0.057143808
0.049911242
0.036714879
0.016475942
0.033309024
0.033446356
0.033716953
0.033959861
0.034043421
0.034846539
0.038287076
0.044601424
0.051741667
0.05739034
0.059820746
0.057756912
0.050237557
0.036825046
0.016480019
0.03336283
0.033520853
0.033825376
0.034096628
0.034273183
0.035433219
0.039397375
0.046019314
0.053150559
0.058592979
0.060729792
0.058354636
0.050554797
0.036931851
0.016484214
0.033431775
0.033611491
0.033950258
0.034252955
0.034550592
0.036106274
0.040578559
0.047460738
0.054552212
0.059776993
0.061619575
0.058937454
0.050862924
0.037035581
0.016488518
0.033517344
0.033719533
0.034092549
0.034431665
0.034882517
0.036867154
0.041824324
0.04892065
0.055944807
0.060942228
0.062490517
0.059505812
0.051162152
0.037136397
0.016492923
0.033621114
0.033846282
0.034253324
0.034636251
0.035275767
0.037715885
0.04312818
0.050394527
0.057326793
0.062088607
0.063343036
0.060060164
0.051452982
0.037234385
0.016497425
0.033744758
0.03399308
0.034433836
0.034870908
0.035736814
0.038651139
0.04448364
0.051878338
0.058696859
0.063216115
0.064177553
0.060600974
0.051735851
0.037329654
0.016502019
0.033890035
0.034161309
0.034635592
0.035140534
0.036271506
0.039670361
0.04588437
0.053368506
0.0600539
0.064324795
0.064994472
0.061128573
0.052011163
0.037422331
0.0165067
0.034058787
0.034352406
0.034860442
0.035450673
0.036884818
0.040769941
0.047324308
0.05486187
0.06139699
0.065414726
0.065794143
0.061642948
0.052279305
0.037512563
0.016511467
0.034252938
0.034567873
0.035110665
0.035807393
0.037580648
0.041945411
0.048797737
0.056355638
0.062725356
0.066486017
0.066576929
0.062144667
0.052540483
0.037600453
0.016516317
0.034474482
0.034809314
0.035389066
0.036217115
0.038361673
0.043191655
0.050299337
0.057847354
0.064038356
0.067538804
0.067343213
0.062634244
0.052794917
0.037686088
0.016521247
0.03472549
0.035078475
0.035699052
0.036686392
0.039229275
0.044503117
0.051824204
0.059334858
0.065335461
0.068573251
0.068093395
0.063112137
0.053042836
0.037769546
0.016526253
0.035008111
0.035377301
0.036044684
0.037221647
0.040183535
0.045873992
0.05336785
0.060816256
0.066616244
0.069589501
0.06882737
0.063578808
0.05328449
0.037850923
0.016531331
0.03532459
0.035708009
0.036430697
0.037828912
0.041223288
0.047298392
0.054926197
0.06228989
0.06788035
0.070587708
0.069545619
0.064034565
0.053520087
0.037930306
0.016536479
0.035677287
0.036073176
0.036862463
0.038513564
0.042346234
0.048770487
0.056495549
0.063754305
0.069127489
0.071568062
0.070248613
0.064479709
0.053749815
0.038007771
0.016541693
0.036068722
0.036475822
0.037345904
0.0392801
0.043549089
0.05028461
0.05807257
0.065208225
0.070357434
0.072530785
0.070936788
0.064914535
0.05397385
0.03808338
0.016546969
0.036501629
0.036919505
0.037887339
0.040131951
0.044827757
0.051835339
0.059654259
0.066650547
0.07157
0.073475728
0.071610524
0.065339341
0.054192383
0.038157196
0.016552305
0.036979024
0.037408385
0.038493286
0.041071363
0.046177515
0.053417546
0.061237918
0.068080293
0.072765015
0.074403189
0.072270172
0.06575439
0.054405591
0.038229281
0.016557696
0.037504285
0.037947269
0.039170217
0.04209934
0.047593198
0.055026428
0.062821117
0.069496596
0.073942366
0.075313494
0.072916048
0.066159929
0.054613632
0.038299688
0.01656314
0.03808124
0.038541607
0.039924299
0.043215646
0.049069366
0.05665752
0.06440168
0.070898703
0.075101911
0.076206925
0.07354845
0.066556201
0.054816652
0.038368466
0.016568632
0.038714235
0.039197429
0.040761123
0.044418872
0.050600458
0.058306695
0.065977656
0.072285946
0.07624344
0.077083727
0.074167654
0.066943446
0.055014794
0.038435663
0.01657417
0.03940819
0.039921225
0.041685467
0.045706548
0.052180914
0.059970151
0.067547279
0.073657703
0.077366976
0.077944206
0.074773923
0.067321889
0.05520819
0.038501319
0.016579751
0.040168599
0.040719753
0.042701086
0.047075279
0.053805275
0.061644391
0.069108948
0.075013442
0.078472606
0.078788617
0.075367509
0.067691736
0.055396963
0.038565473
0.01658537
0.041001483
0.041599795
0.043810572
0.048520922
0.055468261
0.063326226
0.070661261
0.076352561
0.079560261
0.079617162
0.075948662
0.068053184
0.055581229
0.038628161
0.016591025
0.041913256
0.042567875
0.04501526
0.050038746
0.057164818
0.06501272
0.072202873
0.077674599
0.080630132
0.080430047
0.07651762
0.068406418
0.055761094
0.038689414
0.016596712
0.042910531
0.043629949
0.046315207
0.051623605
0.058890143
0.066701163
0.073732565
0.078979243
0.081682352
0.08122747
0.077074598
0.068751614
0.055936659
0.038749264
0.016602429
0.043999834
0.044791105
0.047709235
0.053270089
0.060639727
0.068389124
0.0752492
0.080266022
0.08271697
0.082009629
0.077619803
0.069088932
0.056108014
0.038807734
0.016608172
0.045187271
0.046055293
0.049195004
0.054972655
0.06240932
0.070074284
0.076751678
0.081534843
0.083734046
0.082776707
0.078153429
0.069418522
0.056275246
0.038864851
0.016613937
0.04647816
0.047425102
0.050769145
0.056725733
0.064194934
0.071754499
0.078239057
0.082785577
0.084733649
0.08352887
0.078675653
0.069740525
0.056438431
0.038920634
0.016619723
0.047876659
0.048901595
0.052427399
0.058523828
0.065992886
0.073427801
0.079710317
0.084018005
0.085715841
0.084266275
0.079186642
0.070055067
0.056597641
0.038975103
0.016625525
0.04938543
0.050484226
0.054164769
0.060361539
0.067799632
0.075092233
0.081164969
0.085231942
0.086680673
0.084989061
0.079686546
0.070362266
0.056752939
0.039028274
0.016631341
0.05100537
0.052170823
0.055975679
0.06223367
0.069611912
0.076745843
0.082602391
0.086427215
0.087628186
0.085697356
0.080175502
0.070662228
0.056904383
0.039080161
0.016637167
0.052735434
0.05395764
0.05785409
0.064135124
0.071426502
0.078387242
0.084021972
0.087603647
0.088558407
0.086391267
0.080653631
0.070955047
0.057052025
0.039130776
0.016643001
0.054572567
0.055839471
0.059793655
0.066061022
0.073240171
0.080015136
0.085423138
0.088761058
0.089471349
0.087070889
0.081121041
0.071240808
0.057195908
0.039180127
0.016648839
0.05651175
0.057809794
0.061787723
0.068006441
0.075050349
0.081628268
0.086805331
0.089899261
0.090367007
0.087736296
0.081577824
0.071519582
0.057336071
0.039228222
0.016654679
0.05854615
0.059860953
0.063829426
0.069966592
0.076854664
0.083225439
0.088168005
0.091018056
0.09124536
0.088387545
0.082024057
0.071791433
0.057472547
0.039275065
0.016660517
0.060667304
0.061984238
0.065911624
0.071937312
0.078650864
0.084805503
0.089510621
0.092117232
0.092106366
0.089024673
0.082459799
0.072056411
0.05760536
0.039320659
0.01666635
0.062865322
0.064170253
0.068027488
0.073914593
0.080436797
0.086367353
0.090832641
0.093196559
0.092949962
0.089647697
0.082885095
0.072314555
0.05773453
0.039365003
0.016672175
0.065129351
0.066409206
0.070170238
0.075894564
0.082210406
0.087909918
0.092133527
0.094255793
0.093776063
0.090256615
0.083299974
0.072565893
0.057860069
0.039408095
0.016677989
0.067447955
0.068691089
0.072333179
0.077873485
0.083969709
0.089432151
0.093412735
0.09529467
0.094584564
0.090851403
0.083704448
0.072810442
0.057981985
0.039449931
0.016683788
0.069809473
0.071005881
0.07450974
0.079847729
0.085712792
0.090933032
0.094669717
0.096312908
0.095375336
0.091432017
0.084098511
0.073048207
0.058100276
0.039490502
0.01668957
0.072202326
0.073343727
0.076693513
0.08181378
0.087437801
0.092411555
0.095903916
0.097310204
0.096148226
0.091998392
0.084482142
0.073279181
0.058214935
0.0395298
0.01669533
0.074615283
0.075695093
0.078878287
0.083768226
0.089142932
0.093866736
0.097114774
0.09828624
0.096903061
0.092550443
0.084855302
0.073503346
0.058325951
0.039567812
0.016701064
0.077037662
0.078050897
0.081058089
0.085707762
0.090826431
0.095297604
0.098301724
0.099240681
0.09763965
0.093088064
0.085217939
0.073720673
0.058433301
0.039604524
0.016706771
0.07945949
0.080402611
0.08322722
0.087629194
0.092486591
0.096703208
0.099464199
0.10017318
0.098357779
0.093611132
0.085569981
0.073931121
0.058536962
0.039639918
0.016712444
0.081871594
0.082742326
0.085380291
0.089529447
0.094121755
0.098082613
0.10060163
0.10108337
0.099057222
0.094119507
0.085911345
0.07413464
0.058636899
0.039673976
0.016718081
0.084265662
0.085062808
0.087512251
0.091405578
0.095730318
0.099434909
0.10171347
0.1019709
0.099737737
0.094613033
0.086241932
0.074331168
0.058733075
0.039706676
0.016723677
0.086634264
0.087357512
0.089618411
0.093254787
0.097310731
0.10075921
0.10279915
0.10283539
0.10039908
0.095091543
0.086561635
0.074520634
0.058825445
0.039737994
0.016729228
0.088970836
0.089620595
0.091694465
0.095074431
0.09886151
0.10205467
0.10385815
0.10367649
0.10104098
0.09555486
0.086870332
0.074702962
0.058913962
0.039767904
0.016734728
0.091269655
0.091846897
0.093736497
0.096862036
0.10038125
0.10332047
0.10488995
0.10449382
0.1016632
0.0960028
0.087167897
0.074878065
0.058998572
0.039796379
0.016740174
0.093525791
0.094031915
0.095740987
0.09861531
0.10186861
0.10455583
0.10589405
0.10528706
0.10226547
0.096435176
0.087454196
0.075045852
0.059079218
0.03982339
0.016745561
0.095735051
0.096171775
0.09770481
0.10033215
0.10332235
0.10576003
0.10687
0.10605587
0.10284756
0.096851804
0.087729094
0.075206231
0.059155841
0.039848907
0.016750882
0.097893919
0.098263187
0.099625227
0.10201066
0.10474132
0.1069324
0.10781737
0.10679996
0.10340923
0.097252504
0.087992455
0.075359104
0.05922838
0.0398729
0.016756134
0.099999497
0.1003034
0.10149987
0.10364913
0.10612448
0.10807234
0.10873578
0.10751904
0.10395026
0.097637102
0.088244146
0.075504376
0.059296773
0.039895338
0.01676131
0.10204944
0.10229016
0.10332673
0.10524607
0.10747089
0.10917928
0.1096249
0.10821289
0.10447047
0.098005441
0.088484041
0.075641954
0.05936096
0.039916191
0.016766405
0.1040419
0.10422166
0.10510414
0.10680018
0.10877971
0.11025276
0.11048443
0.10888128
0.10496968
0.098357378
0.088712022
0.075771748
0.059420881
0.039935429
0.016771414
0.10597546
0.10609651
0.10683073
0.10831036
0.11005025
0.11129237
0.11131413
0.10952407
0.10544776
0.098692792
0.088927985
0.075893676
0.059476482
0.039953025
0.01677633
0.10784911
0.10791367
0.10850545
0.10977572
0.1112819
0.11229776
0.11211384
0.11014113
0.10590461
0.099011585
0.08913184
0.076007665
0.059527712
0.039968954
0.016781148
0.10966218
0.10967242
0.1101275
0.11119554
0.11247417
0.1132687
0.11288341
0.11073238
0.10634016
0.099313685
0.089323517
0.076113654
0.059574526
0.039983191
0.016785862
0.11141428
0.11137234
0.11169632
0.11256928
0.11362671
0.11420498
0.11362278
0.1112978
0.10675437
0.099599049
0.089502963
0.076211592
0.059616888
0.039995718
0.016790467
0.11310531
0.11301326
0.11321161
0.11389658
0.11473925
0.11510652
0.11433194
0.11183741
0.10714727
0.099867668
0.089670152
0.076301447
0.059654769
0.04000652
0.016794957
0.11473537
0.11459522
0.11467323
0.11517722
0.11581166
0.11597327
0.11501094
0.11235127
0.10751891
0.10011956
0.089825078
0.076383201
0.059688152
0.040015585
0.016799326
0.11630479
0.11611847
0.11608124
0.11641115
0.11684388
0.11680528
0.11565989
0.11283951
0.10786937
0.10035479
0.089967765
0.076456854
0.059717029
0.040022907
0.01680357
0.11781404
0.11758342
0.11743587
0.11759842
0.11783598
0.11760268
0.11627895
0.1133023
0.1081988
0.10057344
0.090098263
0.076522427
0.059741405
0.040028486
0.016807684
0.11926375
0.11899063
0.11873749
0.11873924
0.1187881
0.11836564
0.11686834
0.11373984
0.10850736
0.10077564
0.090216648
0.07657996
0.059761296
0.040032326
0.016811663
0.12065469
0.12034079
0.11998659
0.11983392
0.1197005
0.11909441
0.11742833
0.1141524
0.10879529
0.10096156
0.090323026
0.076629514
0.059776733
0.040034439
0.016815503
0.12198771
0.1216347
0.12118378
0.12088287
0.12057349
0.11978932
0.11795923
0.11454027
0.10906283
0.10113138
0.09041753
0.076671168
0.059787759
0.040034842
0.016819199
0.12326378
0.12287324
0.12232976
0.1218866
0.12140747
0.12045073
0.11846142
0.11490381
0.10931029
0.10128534
0.090500322
0.076705027
0.05979443
0.040033558
0.01682275
0.12448394
0.12405739
0.12342533
0.1228457
0.12220292
0.12107908
0.11893532
0.1152434
0.10953798
0.10142369
0.090571591
0.076731213
0.059796817
0.040030616
0.016826151
0.12564927
0.1251882
0.12447135
0.12376084
0.12296037
0.12167485
0.11938137
0.11555946
0.10974629
0.10154674
0.090631551
0.076749868
0.059795002
0.040026053
0.016829401
0.12676095
0.12626674
0.12546876
0.12463274
0.1236804
0.12223856
0.11980008
0.11585244
0.10993559
0.10165479
0.090680441
0.076761156
0.059789081
0.040019909
0.016832497
0.12782016
0.12729417
0.12641855
0.1254622
0.12436367
0.12277079
0.12019196
0.11612282
0.11010632
0.1017482
0.090718523
0.076765258
0.059779163
0.040012231
0.016835438
0.12882814
0.12827168
0.12732174
0.12625006
0.12501087
0.12327214
0.12055759
0.11637114
0.11025893
0.10182734
0.090746082
0.07676237
0.059765366
0.040003072
0.016838222
0.12978616
0.12920047
0.1281794
0.12699719
0.12562274
0.12374327
0.12089755
0.11659791
0.11039388
0.10189259
0.090763423
0.076752708
0.059747822
0.039992488
0.01684085
0.13069552
0.13008178
0.12899264
0.12770452
0.12620003
0.12418484
0.12121247
0.11680371
0.11051169
0.10194439
0.090770867
0.076736501
0.05972667
0.039980541
0.016843322
0.1315575
0.13091688
0.12976259
0.12837301
0.12674356
0.12459755
0.12150297
0.11698912
0.11061285
0.10198315
0.090768753
0.07671399
0.059702059
0.039967297
0.016845638
0.13237342
0.13170703
0.13049039
0.12900363
0.12725415
0.12498215
0.12176972
0.11715474
0.11069791
0.10200933
0.090757433
0.076685428
0.059674145
0.039952823
0.016847799
0.13314462
0.13245351
0.13117721
0.12959738
0.12773265
0.12533936
0.1220134
0.11730117
0.1107674
0.10202337
0.090737273
0.076651081
0.059643091
0.039937192
0.016849806
0.1338724
0.1331576
0.13182422
0.13015528
0.12817994
0.12566996
0.12223469
0.11742904
0.11082188
0.10202577
0.090708647
0.076611219
0.059609068
0.039920477
0.016851662
0.1345581
0.1338206
0.1324326
0.13067835
0.12859689
0.12597472
0.12243428
0.11753899
0.1108619
0.10201698
0.090671938
0.076566122
0.059572247
0.039902754
0.016853369
0.13520304
0.13444378
0.13300353
0.13116764
0.1289844
0.12625443
0.1226129
0.11763166
0.11088805
0.1019975
0.090627536
0.076516075
0.059532806
0.0398841
0.01685493
0.13580852
0.13502842
0.13353819
0.13162417
0.12934337
0.12650987
0.12277125
0.11770769
0.11090089
0.10196783
0.090575834
0.076461365
0.059490924
0.039864591
0.016856347
0.13637585
0.13557579
0.13403775
0.132049
0.12967472
0.12674186
0.12291004
0.11776772
0.11090099
0.10192844
0.090517228
0.076402282
0.059446781
0.039844307
0.016857624
0.13690632
0.13608714
0.1345034
0.13244317
0.12997934
0.12695118
0.12303
0.11781242
0.11088894
0.10187983
0.090452117
0.07633912
0.059400559
0.039823324
0.016858765
0.1374012
0.13656372
0.13493628
0.13280771
0.13025816
0.12713866
0.12313185
0.11784241
0.1108653
0.10182249
0.090380896
0.076272168
0.059352437
0.03980172
0.016859774
0.13786176
0.13700676
0.13533756
0.13314366
0.13051207
0.12730507
0.1232163
0.11785835
0.11083064
0.10175692
0.090303961
0.076201716
0.059302595
0.039779571
0.016860655
0.13828924
0.13741748
0.13570836
0.13345204
0.13074198
0.12745122
0.12328406
0.11786088
0.11078554
0.1016836
0.090221703
0.076128051
0.05925121
0.03975695
0.016861411
0.13868486
0.13779707
0.13604982
0.13373387
0.13094879
0.1275779
0.12333584
0.11785062
0.11073055
0.101603
0.09013451
0.076051457
0.059198454
0.039733931
0.016862048
0.13904983
0.13814671
0.13636304
0.13399015
0.13113337
0.1276859
0.12337233
0.1178282
0.11066622
0.10151561
0.090042762
0.075972211
0.059144499
0.039710584
0.016862571
0.13938533
0.13846755
0.13664911
0.13422186
0.13129662
0.12777598
0.12339423
0.11779424
0.11059311
0.10142188
0.089946833
0.075890587
0.059089511
0.039686978
0.016862983
0.13969252
0.13876074
0.13690911
0.13442998
0.13143938
0.12784892
0.12340223
0.11774935
0.11051173
0.10132227
0.089847091
0.07580685
0.05903365
0.039663178
0.016863289
0.13997255
0.13902738
0.13714408
0.13461548
0.13156253
0.12790547
0.12339698
0.11769412
0.11042263
0.10121722
0.089743894
0.075721261
0.058977074
0.039639247
0.016863495
0.14022652
0.13926857
0.13735506
0.13477928
0.13166689
0.12794637
0.12337915
0.11762915
0.11032631
0.10110719
0.089637591
0.07563407
0.058919933
0.039615246
0.016863605
0.14045553
0.13948538
0.13754306
0.13492233
0.13175329
0.12797236
0.12334938
0.11755499
0.11022328
0.10099258
0.089528521
0.075545523
0.058862371
0.039591233
0.016863624
0.14066064
0.13967884
0.13770906
0.13504551
0.13182254
0.12798414
0.12330832
0.11747223
0.11011402
0.10087382
0.089417013
0.075455853
0.058804528
0.039567261
0.016863557
0.1408429
0.13984999
0.13785404
0.13514973
0.13187543
0.12798242
0.12325659
0.1173814
0.10999902
0.1007513
0.089303386
0.075365287
0.058746536
0.039543381
0.016863408
0.14100331
0.13999981
0.13797895
0.13523584
0.13191274
0.12796789
0.12319478
0.11728303
0.10987874
0.10062543
0.089187947
0.075274042
0.058688521
0.039519643
0.016863183
0.14114288
0.14012928
0.13808469
0.13530469
0.13193523
0.12794123
0.1231235
0.11717766
0.10975363
0.10049656
0.089070991
0.075182325
0.058630603
0.039496091
0.016862885
0.14126256
0.14023934
0.13817218
0.13535711
0.13194364
0.12790308
0.12304332
0.11706579
0.10962412
0.10036507
0.088952802
0.075090336
0.058572895
0.039472766
0.016862519
0.14136329
0.14033091
0.13824228
0.13539391
0.13193869
0.12785408
0.1229548
0.11694791
0.10949065
0.10023132
0.088833653
0.074998262
0.058515502
0.039449708
0.01686209
0.14144599
0.14040488
0.13829585
0.13541587
0.13192108
0.12779487
0.1228585
0.1168245
0.10935361
0.10009563
0.088713804
0.074906282
0.058458526
0.039426952
0.016861602
0.14151154
0.14046214
0.13833372
0.13542376
0.13189152
0.12772605
0.12275495
0.11669602
0.10921342
0.099958326
0.088593503
0.074814565
0.058402058
0.039404532
0.016861059
0.14156081
0.14050351
0.13835669
0.13541831
0.13185065
0.1276482
0.12264466
0.11656292
0.10907044
0.099819727
0.088472988
0.074723272
0.058346186
0.039382477
0.016860465
0.14159463