/*--------------------------------*- C++ -*----------------------------------*\
| =========                 |                                                 |
| \\      /  F ield         | OpenFOAM: The Open Source CFD Toolbox           |
|  \\    /   O peration     | Version:  2506                                  |
|   \\  /    A nd           | Website:  www.openfoam.com                      |
|    \\/     M anipulation  |                                                 |
\*---------------------------------------------------------------------------*/
FoamFile
{
    version     2.0;
    format      ascii;
    arch        "LSB;label=32;scalar=64";
    class       volScalarField;
    location    "17000/water";
    object      T;
}
// * * * * * * * * * * * * * * * * * * * * * * * * * * * * * * * * * * * * * //

dimensions      [0 0 0 1 0 0 0];

internalField   nonuniform List<scalar> 
6000
(
333.15
333.15
333.15
333.15
333.15
333.15
333.15
333.15
333.15
333.15
333.15
333.14998
333.14989
333.14924
333.14256
333.15
333.15
333.15
333.15
333.15
333.15
333.15
333.15
333.15
333.15
333.14999
333.14994
333.14968
333.14816
333.13666
333.15
333.15
333.15
333.15
333.15
333.15
333.15
333.15
333.15
333.14999
333.14997
333.14987
333.14939
333.14689
333.13172
333.15
333.15
333.15
333.15
333.15
333.15
333.15
333.15
333.15
333.14999
333.14994
333.14976
333.14903
333.14547
333.12739
333.15
333.15
333.15
333.15
333.15
333.15
333.15
333.15
333.14999
333.14997
333.1499
333.14963
333.1486
333.14396
333.12351
333.15
333.15
333.15
333.15
333.15
333.15
333.15
333.15
333.14999
333.14996
333.14985
333.14947
333.14812
333.14237
333.11998
333.15
333.15
333.15
333.15
333.15
333.15
333.15
333.14999
333.14998
333.14994
333.14978
333.14929
333.1476
333.14073
333.11674
333.15
333.15
333.15
333.15
333.15
333.15
333.15
333.14999
333.14997
333.14991
333.1497
333.14909
333.14703
333.13906
333.11373
333.15
333.15
333.15
333.15
333.15
333.15
333.15
333.14999
333.14996
333.14987
333.14961
333.14886
333.14643
333.13737
333.11092
333.15
333.15
333.15
333.15
333.15
333.15
333.14999
333.14998
333.14994
333.14983
333.14951
333.14862
333.14578
333.13566
333.10831
333.15
333.15
333.15
333.15
333.15
333.15
333.14999
333.14998
333.14993
333.14978
333.1494
333.14836
333.1451
333.13396
333.10586
333.15
333.15
333.15
333.15
333.15
333.15
333.14999
333.14997
333.1499
333.14973
333.14928
333.14807
333.14437
333.13227
333.10357
333.15
333.15
333.15
333.15
333.15
333.14999
333.14998
333.14996
333.14988
333.14967
333.14915
333.14777
333.14361
333.13059
333.10143
333.15
333.15
333.15
333.15
333.15
333.14999
333.14998
333.14994
333.14985
333.14961
333.14901
333.14745
333.1428
333.12893
333.09944
333.15
333.15
333.15
333.15
333.15
333.14999
333.14997
333.14993
333.14982
333.14954
333.14886
333.1471
333.14195
333.12731
333.09759
333.15
333.15
333.15
333.15
333.15
333.14999
333.14997
333.14991
333.14978
333.14946
333.1487
333.14673
333.14106
333.12571
333.09587
333.15
333.15
333.15
333.15
333.14999
333.14998
333.14996
333.1499
333.14974
333.14938
333.14852
333.14634
333.14013
333.12416
333.09429
333.15
333.15
333.15
333.15
333.14999
333.14998
333.14995
333.14988
333.1497
333.14929
333.14834
333.14591
333.13915
333.12266
333.09283
333.15
333.15
333.15
333.15
333.14999
333.14998
333.14994
333.14985
333.14965
333.1492
333.14814
333.14546
333.13814
333.1212
333.0915
333.15
333.15
333.15
333.14999
333.14999
333.14997
333.14993
333.14983
333.1496
333.14909
333.14793
333.14497
333.13709
333.1198
333.09029
333.15
333.15
333.15
333.14999
333.14999
333.14997
333.14992
333.1498
333.14955
333.14899
333.1477
333.14444
333.13601
333.11847
333.08919
333.15
333.15
333.15
333.14999
333.14998
333.14996
333.1499
333.14977
333.14949
333.14887
333.14745
333.14388
333.13491
333.11719
333.0882
333.15
333.15
333.15
333.14999
333.14998
333.14995
333.14989
333.14974
333.14943
333.14875
333.14718
333.14328
333.13379
333.11598
333.0873
333.15
333.15
333.14999
333.14999
333.14998
333.14994
333.14987
333.14971
333.14936
333.14861
333.1469
333.14263
333.13266
333.11483
333.08649
333.15
333.15
333.14999
333.14999
333.14997
333.14993
333.14985
333.14967
333.14929
333.14847
333.14659
333.14195
333.13154
333.11375
333.08576
333.15
333.15
333.14999
333.14998
333.14997
333.14992
333.14983
333.14963
333.14921
333.14831
333.14625
333.14122
333.13042
333.11273
333.0851
333.15
333.15
333.14999
333.14998
333.14996
333.14991
333.14981
333.14959
333.14913
333.14815
333.14589
333.14046
333.12932
333.11176
333.08451
333.15
333.14999
333.14999
333.14998
333.14996
333.1499
333.14979
333.14954
333.14904
333.14797
333.14549
333.13967
333.12825
333.11086
333.08397
333.15
333.14999
333.14999
333.14998
333.14995
333.14989
333.14976
333.14949
333.14895
333.14777
333.14506
333.13885
333.1272
333.11001
333.08349
333.14999
333.14999
333.14999
333.14997
333.14994
333.14987
333.14973
333.14944
333.14884
333.14756
333.14461
333.13801
333.12619
333.1092
333.08305
333.14999
333.14999
333.14998
333.14997
333.14993
333.14986
333.1497
333.14939
333.14873
333.14733
333.14411
333.13715
333.12522
333.10845
333.08265
333.14999
333.14999
333.14998
333.14996
333.14992
333.14984
333.14967
333.14932
333.14862
333.14708
333.14359
333.13628
333.12428
333.10773
333.08228
333.14999
333.14999
333.14998
333.14996
333.14991
333.14982
333.14964
333.14926
333.14849
333.14681
333.14303
333.13542
333.12338
333.10706
333.08195
333.14999
333.14999
333.14998
333.14995
333.1499
333.1498
333.1496
333.14919
333.14835
333.14652
333.14245
333.13455
333.12252
333.10643
333.08164
333.14999
333.14998
333.14997
333.14995
333.14989
333.14978
333.14956
333.14911
333.1482
333.1462
333.14183
333.13369
333.1217
333.10583
333.08136
333.14999
333.14998
333.14997
333.14994
333.14988
333.14976
333.14952
333.14903
333.14803
333.14586
333.14119
333.13285
333.12091
333.10526
333.0811
333.14999
333.14998
333.14997
333.14993
333.14987
333.14974
333.14947
333.14895
333.14786
333.14549
333.14054
333.13202
333.12016
333.10472
333.08085
333.14998
333.14998
333.14996
333.14993
333.14985
333.14971
333.14942
333.14885
333.14766
333.14509
333.13986
333.13121
333.11944
333.10421
333.08063
333.14998
333.14998
333.14996
333.14992
333.14984
333.14968
333.14937
333.14875
333.14745
333.14467
333.13918
333.13042
333.11875
333.10373
333.08042
333.14998
333.14997
333.14995
333.14991
333.14982
333.14965
333.14931
333.14864
333.14723
333.14422
333.13848
333.12965
333.11809
333.10326
333.08023
333.14998
333.14997
333.14995
333.1499
333.1498
333.14962
333.14925
333.14852
333.14698
333.14375
333.13778
333.1289
333.11746
333.10283
333.08005
333.14997
333.14996
333.14994
333.14989
333.14978
333.14958
333.14918
333.14838
333.14671
333.14326
333.13709
333.12818
333.11686
333.10241
333.07988
333.14997
333.14996
333.14993
333.14988
333.14976
333.14954
333.14911
333.14824
333.14643
333.14274
333.13639
333.12748
333.11628
333.10201
333.07973
333.14997
333.14996
333.14993
333.14986
333.14974
333.1495
333.14903
333.14809
333.14612
333.14221
333.13571
333.1268
333.11572
333.10163
333.07958
333.14996
333.14995
333.14992
333.14985
333.14972
333.14946
333.14895
333.14792
333.14579
333.14166
333.13503
333.12615
333.11519
333.10126
333.07944
333.14996
333.14995
333.14991
333.14984
333.14969
333.14941
333.14886
333.14774
333.14544
333.1411
333.13436
333.12552
333.11468
333.10092
333.07931
333.14995
333.14994
333.1499
333.14982
333.14966
333.14936
333.14876
333.14754
333.14507
333.14053
333.1337
333.1249
333.11419
333.10058
333.0792
333.14995
333.14993
333.14989
333.1498
333.14963
333.1493
333.14865
333.14733
333.14468
333.13996
333.13306
333.12431
333.11371
333.10026
333.07908
333.14994
333.14993
333.14988
333.14979
333.1496
333.14924
333.14853
333.1471
333.14427
333.13938
333.13242
333.12374
333.11326
333.09996
333.07898
333.14994
333.14992
333.14987
333.14977
333.14957
333.14918
333.14841
333.14686
333.14384
333.1388
333.13181
333.12318
333.11282
333.09966
333.07888
333.14993
333.14991
333.14986
333.14974
333.14953
333.1491
333.14827
333.14659
333.14339
333.13822
333.1312
333.12264
333.11239
333.09938
333.07879
333.14993
333.1499
333.14984
333.14972
333.14949
333.14903
333.14812
333.14631
333.14294
333.13764
333.13061
333.12212
333.11199
333.09911
333.0787
333.14992
333.14989
333.14983
333.1497
333.14944
333.14894
333.14796
333.14601
333.14247
333.13706
333.13004
333.12162
333.11159
333.09885
333.07862
333.14991
333.14988
333.14981
333.14967
333.14939
333.14885
333.14779
333.14569
333.14198
333.13649
333.12948
333.12113
333.11121
333.0986
333.07854
333.1499
333.14987
333.1498
333.14964
333.14934
333.14876
333.1476
333.14536
333.1415
333.13593
333.12893
333.12066
333.11084
333.09836
333.07847
333.14989
333.14986
333.14978
333.14961
333.14928
333.14865
333.1474
333.14501
333.141
333.13537
333.1284
333.1202
333.11048
333.09812
333.07841
333.14988
333.14985
333.14976
333.14958
333.14922
333.14853
333.14718
333.14464
333.1405
333.13482
333.12788
333.11975
333.11014
333.0979
333.07834
333.14987
333.14983
333.14974
333.14954
333.14915
333.14841
333.14694
333.14426
333.14
333.13428
333.12737
333.11932
333.10981
333.09768
333.07828
333.14986
333.14982
333.14971
333.1495
333.14908
333.14827
333.1467
333.14386
333.1395
333.13375
333.12688
333.1189
333.10948
333.09747
333.07823
333.14985
333.1498
333.14969
333.14946
333.149
333.14812
333.14643
333.14345
333.13899
333.13323
333.12639
333.11849
333.10917
333.09726
333.07818
333.14983
333.14978
333.14966
333.14941
333.14892
333.14796
333.14615
333.14304
333.13849
333.13272
333.12592
333.1181
333.10886
333.09707
333.07813
333.14982
333.14976
333.14963
333.14936
333.14882
333.14779
333.14586
333.14261
333.13799
333.13222
333.12547
333.11771
333.10857
333.09688
333.07809
333.1498
333.14974
333.1496
333.1493
333.14872
333.14761
333.14555
333.14218
333.1375
333.13172
333.12502
333.11734
333.10828
333.09669
333.07805
333.14978
333.14972
333.14956
333.14924
333.14861
333.14741
333.14522
333.14174
333.137
333.13124
333.12458
333.11697
333.108
333.09651
333.07801
333.14976
333.1497
333.14952
333.14917
333.1485
333.1472
333.14489
333.1413
333.13652
333.13076
333.12416
333.11662
333.10773
333.09634
333.07797
333.14974
333.14967
333.14948
333.1491
333.14837
333.14697
333.14454
333.14085
333.13603
333.1303
333.12374
333.11627
333.10747
333.09617
333.07794
333.14972
333.14964
333.14944
333.14903
333.14823
333.14673
333.14417
333.1404
333.13556
333.12984
333.12333
333.11593
333.10721
333.09601
333.07791
333.14969
333.14961
333.14939
333.14894
333.14808
333.14648
333.1438
333.13995
333.13509
333.12939
333.12294
333.1156
333.10696
333.09585
333.07788
333.14967
333.14957
333.14933
333.14885
333.14792
333.14621
333.14342
333.1395
333.13462
333.12895
333.12255
333.11528
333.10671
333.0957
333.07785
333.14964
333.14954
333.14928
333.14875
333.14774
333.14593
333.14303
333.13905
333.13416
333.12852
333.12217
333.11497
333.10648
333.09555
333.07782
333.14961
333.1495
333.14921
333.14864
333.14755
333.14563
333.14264
333.1386
333.13371
333.1281
333.1218
333.11466
333.10624
333.0954
333.0778
333.14957
333.14945
333.14914
333.14852
333.14736
333.14533
333.14224
333.13816
333.13326
333.12769
333.12144
333.11436
333.10602
333.09526
333.07778
333.14953
333.1494
333.14907
333.1484
333.14714
333.14501
333.14183
333.13771
333.13283
333.12728
333.12109
333.11407
333.1058
333.09512
333.07776
333.14949
333.14935
333.14899
333.14826
333.14692
333.14468
333.14143
333.13727
333.13239
333.12688
333.12074
333.11379
333.10558
333.09499
333.07774
333.14944
333.14929
333.1489
333.14811
333.14668
333.14434
333.14101
333.13684
333.13197
333.12649
333.1204
333.11351
333.10537
333.09486
333.07772
333.14939
333.14923
333.1488
333.14795
333.14642
333.14399
333.1406
333.1364
333.13155
333.12611
333.12007
333.11323
333.10517
333.09473
333.0777
333.14934
333.14916
333.14869
333.14778
333.14616
333.14363
333.14019
333.13597
333.13113
333.12574
333.11974
333.11297
333.10496
333.09461
333.07768
333.14928
333.14908
333.14858
333.14759
333.14588
333.14326
333.13977
333.13555
333.13073
333.12537
333.11942
333.1127
333.10477
333.09448
333.07767
333.14921
333.149
333.14845
333.14739
333.14559
333.14289
333.13936
333.13513
333.13033
333.12501
333.11911
333.11245
333.10457
333.09437
333.07765
333.14914
333.14891
333.14831
333.14718
333.14529
333.14252
333.13894
333.13471
333.12993
333.12465
333.1188
333.1122
333.10439
333.09425
333.07764
333.14906
333.14881
333.14817
333.14696
333.14498
333.14213
333.13853
333.1343
333.12955
333.1243
333.1185
333.11195
333.1042
333.09414
333.07762
333.14897
333.1487
333.14801
333.14672
333.14465
333.14175
333.13811
333.13389
333.12916
333.12396
333.1182
333.11171
333.10402
333.09402
333.07761
333.14888
333.14858
333.14784
333.14647
333.14432
333.14136
333.1377
333.13349
333.12879
333.12362
333.11791
333.11147
333.10384
333.09391
333.0776
333.14877
333.14845
333.14765
333.14621
333.14398
333.14097
333.1373
333.13309
333.12842
333.12329
333.11763
333.11124
333.10367
333.09381
333.07758
333.14865
333.14831
333.14745
333.14593
333.14363
333.14057
333.13689
333.13269
333.12805
333.12296
333.11735
333.11101
333.1035
333.0937
333.07757
333.14853
333.14816
333.14724
333.14564
333.14327
333.14018
333.13649
333.1323
333.12769
333.12264
333.11708
333.11079
333.10333
333.0936
333.07756
333.14839
333.14799
333.14702
333.14534
333.14291
333.13978
333.13609
333.13192
333.12734
333.12233
333.11681
333.11057
333.10316
333.0935
333.07755
333.14824
333.14781
333.14678
333.14503
333.14254
333.13939
333.13569
333.13154
333.12699
333.12202
333.11654
333.11035
333.103
333.0934
333.07754
333.14807
333.14761
333.14652
333.14471
333.14217
333.13899
333.13529
333.13116
333.12664
333.12171
333.11628
333.11014
333.10284
333.0933
333.07752
333.14789
333.1474
333.14625
333.14438
333.14179
333.13859
333.1349
333.13079
333.1263
333.12141
333.11603
333.10993
333.10268
333.0932
333.07751
333.14769
333.14718
333.14597
333.14404
333.14141
333.1382
333.13451
333.13042
333.12597
333.12112
333.11577
333.10973
333.10253
333.0931
333.0775
333.14748
333.14693
333.14567
333.14369
333.14102
333.1378
333.13412
333.13006
333.12564
333.12083
333.11552
333.10952
333.10238
333.09301
333.07749
333.14724
333.14667
333.14536
333.14333
333.14064
333.13741
333.13374
333.1297
333.12531
333.12054
333.11528
333.10933
333.10223
333.09292
333.07748
333.14699
333.1464
333.14504
333.14296
333.14025
333.13701
333.13336
333.12935
333.12499
333.12026
333.11504
333.10913
333.10208
333.09282
333.07746
333.14673
333.1461
333.1447
333.14259
333.13985
333.13662
333.13298
333.129
333.12468
333.11998
333.1148
333.10894
333.10193
333.09273
333.07745
333.14644
333.14579
333.14436
333.14221
333.13946
333.13623
333.13261
333.12865
333.12436
333.1197
333.11457
333.10874
333.10179
333.09264
333.07744
333.14613
333.14546
333.14399
333.14182
333.13906
333.13584
333.13224
333.12831
333.12406
333.11943
333.11434
333.10856
333.10165
333.09255
333.07742
333.1458
333.14512
333.14362
333.14143
333.13866
333.13545
333.13187
333.12797
333.12375
333.11916
333.11411
333.10837
333.1015
333.09246
333.07741
333.14546
333.14476
333.14324
333.14103
333.13827
333.13507
333.13151
333.12764
333.12345
333.1189
333.11388
333.10819
333.10137
333.09237
333.07739
333.14509
333.14438
333.14285
333.14063
333.13787
333.13468
333.13115
333.12731
333.12315
333.11864
333.11366
333.108
333.10123
333.09229
333.07738
333.14471
333.14399
333.14245
333.14022
333.13747
333.1343
333.13079
333.12698
333.12286
333.11838
333.11344
333.10782
333.10109
333.0922
333.07736
333.14431
333.14359
333.14203
333.13981
333.13707
333.13392
333.13044
333.12666
333.12257
333.11813
333.11322
333.10765
333.10096
333.09211
333.07735
333.1439
333.14317
333.14162
333.1394
333.13667
333.13354
333.13008
333.12633
333.12228
333.11788
333.11301
333.10747
333.10082
333.09203
333.07733
333.14347
333.14274
333.14119
333.13898
333.13626
333.13316
333.12973
333.12602
333.122
333.11763
333.1128
333.1073
333.10069
333.09194
333.07731
333.14303
333.1423
333.14075
333.13856
333.13586
333.13278
333.12939
333.1257
333.12172
333.11738
333.11259
333.10712
333.10056
333.09186
333.07729
333.14257
333.14185
333.14031
333.13813
333.13546
333.13241
333.12904
333.12539
333.12144
333.11714
333.11238
333.10695
333.10043
333.09177
333.07727
333.14211
333.14139
333.13987
333.13771
333.13506
333.13204
333.1287
333.12508
333.12116
333.1169
333.11217
333.10679
333.1003
333.09169
333.07725
333.14163
333.14092
333.13942
333.13728
333.13466
333.13167
333.12836
333.12477
333.12089
333.11666
333.11197
333.10662
333.10017
333.0916
333.07723
333.14115
333.14045
333.13896
333.13685
333.13426
333.13129
333.12802
333.12447
333.12062
333.11642
333.11177
333.10645
333.10004
333.09152
333.07721
333.14066
333.13997
333.1385
333.13642
333.13386
333.13093
333.12769
333.12416
333.12035
333.11618
333.11157
333.10629
333.09991
333.09143
333.07718
333.14017
333.13949
333.13804
333.13599
333.13346
333.13056
333.12735
333.12386
333.12008
333.11595
333.11137
333.10612
333.09978
333.09135
333.07716
333.13967
333.139
333.13758
333.13555
333.13306
333.13019
333.12702
333.12356
333.11982
333.11572
333.11117
333.10596
333.09966
333.09127
333.07713
333.13916
333.13851
333.13711
333.13512
333.13266
333.12983
333.12669
333.12327
333.11955
333.11549
333.11097
333.1058
333.09953
333.09118
333.0771
333.13866
333.13801
333.13664
333.13468
333.13226
333.12946
333.12636
333.12297
333.11929
333.11526
333.11078
333.10564
333.09941
333.09109
333.07708
333.13815
333.13752
333.13618
333.13425
333.13186
333.1291
333.12603
333.12268
333.11903
333.11504
333.11059
333.10548
333.09928
333.09101
333.07705
333.13764
333.13702
333.13571
333.13382
333.13146
333.12874
333.12571
333.12239
333.11877
333.11481
333.11039
333.10532
333.09916
333.09092
333.07702
333.13713
333.13653
333.13524
333.13338
333.13107
333.12838
333.12538
333.1221
333.11852
333.11459
333.1102
333.10516
333.09903
333.09084
333.07698
333.13662
333.13603
333.13477
333.13295
333.13067
333.12802
333.12506
333.12181
333.11826
333.11436
333.11001
333.105
333.09891
333.09075
333.07695
333.13612
333.13554
333.1343
333.13252
333.13027
333.12766
333.12474
333.12152
333.11801
333.11414
333.10982
333.10484
333.09878
333.09066
333.07691
333.13561
333.13505
333.13384
333.13209
333.12988
333.12731
333.12442
333.12124
333.11776
333.11392
333.10963
333.10468
333.09866
333.09057
333.07688
333.13511
333.13456
333.13338
333.13166
333.12949
333.12695
333.1241
333.12095
333.1175
333.1137
333.10944
333.10452
333.09853
333.09049
333.07684
333.13461
333.13407
333.13291
333.13123
333.1291
333.1266
333.12378
333.12067
333.11725
333.11348
333.10925
333.10437
333.09841
333.0904
333.0768
333.13411
333.13359
333.13246
333.1308
333.12871
333.12625
333.12347
333.12039
333.117
333.11326
333.10907
333.10421
333.09828
333.09031
333.07676
333.13362
333.13311
333.132
333.13038
333.12832
333.1259
333.12315
333.12011
333.11676
333.11305
333.10888
333.10405
333.09815
333.09021
333.07672
333.13313
333.13263
333.13155
333.12996
333.12794
333.12555
333.12284
333.11983
333.11651
333.11283
333.10869
333.10389
333.09803
333.09012
333.07667
333.13265
333.13216
333.1311
333.12954
333.12755
333.1252
333.12253
333.11955
333.11626
333.11261
333.10851
333.10374
333.0979
333.09003
333.07662
333.13217
333.13169
333.13065
333.12912
333.12717
333.12486
333.12221
333.11927
333.11602
333.1124
333.10832
333.10358
333.09777
333.08993
333.07657
333.13169
333.13122
333.13021
333.12871
333.12679
333.12451
333.12191
333.11899
333.11577
333.11218
333.10813
333.10342
333.09764
333.08984
333.07652
333.13122
333.13076
333.12977
333.1283
333.12642
333.12417
333.1216
333.11872
333.11553
333.11197
333.10795
333.10326
333.09752
333.08974
333.07647
333.13076
333.13031
333.12933
333.1279
333.12604
333.12383
333.12129
333.11844
333.11528
333.11175
333.10776
333.10311
333.09739
333.08964
333.07642
333.1303
333.12986
333.1289
333.12749
333.12567
333.12349
333.12099
333.11817
333.11504
333.11154
333.10758
333.10295
333.09726
333.08954
333.07636
333.12984
333.12941
333.12848
333.12709
333.1253
333.12315
333.12068
333.1179
333.1148
333.11133
333.10739
333.10279
333.09712
333.08944
333.0763
333.12939
333.12897
333.12805
333.1267
333.12494
333.12282
333.12038
333.11763
333.11455
333.11111
333.1072
333.10263
333.09699
333.08934
333.07624
333.12895
333.12853
333.12764
333.1263
333.12457
333.12249
333.12008
333.11736
333.11431
333.1109
333.10702
333.10247
333.09686
333.08924
333.07618
333.12851
333.1281
333.12722
333.12591
333.12421
333.12216
333.11978
333.11709
333.11407
333.11069
333.10683
333.10231
333.09673
333.08913
333.07611
333.12807
333.12767
333.12681
333.12553
333.12385
333.12183
333.11948
333.11682
333.11383
333.11047
333.10664
333.10215
333.09659
333.08903
333.07604
333.12764
333.12725
333.12641
333.12514
333.1235
333.1215
333.11918
333.11655
333.11359
333.11026
333.10646
333.10199
333.09645
333.08892
333.07597
333.12722
333.12684
333.12601
333.12477
333.12315
333.12118
333.11889
333.11629
333.11335
333.11005
333.10627
333.10183
333.09632
333.08881
333.0759
333.1268
333.12642
333.12561
333.12439
333.1228
333.12086
333.1186
333.11602
333.11312
333.10984
333.10608
333.10166
333.09618
333.0887
333.07583
333.12638
333.12602
333.12522
333.12402
333.12245
333.12054
333.11831
333.11576
333.11288
333.10962
333.1059
333.1015
333.09604
333.08859
333.07575
333.12597
333.12561
333.12483
333.12365
333.12211
333.12022
333.11802
333.11549
333.11264
333.10941
333.10571
333.10134
333.0959
333.08847
333.07567
333.12557
333.12522
333.12444
333.12329
333.12177
333.11991
333.11773
333.11523
333.11241
333.1092
333.10552
333.10117
333.09576
333.08836
333.07559
333.12517
333.12482
333.12407
333.12293
333.12143
333.11959
333.11744
333.11497
333.11217
333.10899
333.10533
333.10101
333.09562
333.08824
333.07551
333.12478
333.12444
333.12369
333.12257
333.12109
333.11928
333.11716
333.11471
333.11194
333.10878
333.10514
333.10084
333.09547
333.08812
333.07542
333.12439
333.12405
333.12332
333.12222
333.12076
333.11898
333.11687
333.11445
333.1117
333.10857
333.10496
333.10067
333.09533
333.088
333.07533
333.124
333.12367
333.12295
333.12187
333.12043
333.11867
333.11659
333.1142
333.11147
333.10836
333.10477
333.10051
333.09518
333.08788
333.07524
333.12362
333.1233
333.12259
333.12152
333.12011
333.11837
333.11631
333.11394
333.11123
333.10815
333.10458
333.10034
333.09504
333.08775
333.07515
333.12325
333.12293
333.12223
333.12118
333.11979
333.11807
333.11603
333.11368
333.111
333.10794
333.10439
333.10017
333.09489
333.08763
333.07506
333.12288
333.12256
333.12188
333.12084
333.11947
333.11777
333.11576
333.11343
333.11077
333.10772
333.1042
333.1
333.09474
333.0875
333.07496
333.12251
333.1222
333.12153
333.1205
333.11915
333.11747
333.11548
333.11318
333.11054
333.10751
333.10401
333.09983
333.09459
333.08737
333.07486
333.12215
333.12185
333.12118
333.12017
333.11883
333.11718
333.11521
333.11293
333.11031
333.1073
333.10382
333.09966
333.09444
333.08724
333.07476
333.12179
333.12149
333.12084
333.11984
333.11852
333.11688
333.11494
333.11267
333.11008
333.10709
333.10363
333.09949
333.09429
333.08711
333.07465
333.12144
333.12114
333.1205
333.11952
333.11821
333.11659
333.11467
333.11243
333.10985
333.10688
333.10344
333.09931
333.09413
333.08698
333.07455
333.12109
333.1208
333.12016
333.11919
333.11791
333.11631
333.1144
333.11218
333.10962
333.10667
333.10325
333.09914
333.09398
333.08684
333.07444
333.12074
333.12046
333.11983
333.11888
333.1176
333.11602
333.11413
333.11193
333.10939
333.10646
333.10305
333.09897
333.09382
333.08671
333.07433
333.1204
333.12012
333.1195
333.11856
333.1173
333.11574
333.11387
333.11168
333.10916
333.10626
333.10286
333.09879
333.09367
333.08657
333.07422
333.12007
333.11979
333.11918
333.11825
333.11701
333.11546
333.1136
333.11144
333.10894
333.10605
333.10267
333.09862
333.09351
333.08643
333.0741
333.11974
333.11946
333.11886
333.11794
333.11671
333.11518
333.11334
333.11119
333.10871
333.10584
333.10248
333.09844
333.09335
333.08629
333.07399
333.11941
333.11914
333.11854
333.11763
333.11642
333.1149
333.11308
333.11095
333.10848
333.10563
333.10229
333.09827
333.09319
333.08615
333.07387
333.11908
333.11881
333.11822
333.11733
333.11613
333.11463
333.11282
333.11071
333.10826
333.10542
333.10209
333.09809
333.09303
333.086
333.07375
333.11876
333.1185
333.11791
333.11703
333.11584
333.11435
333.11256
333.11047
333.10803
333.10521
333.1019
333.09791
333.09287
333.08586
333.07363
333.11844
333.11818
333.1176
333.11673
333.11555
333.11408
333.11231
333.11023
333.10781
333.105
333.10171
333.09773
333.0927
333.08571
333.0735
333.11813
333.11787
333.1173
333.11643
333.11527
333.11381
333.11205
333.10999
333.10759
333.10479
333.10151
333.09755
333.09254
333.08557
333.07338
333.11782
333.11756
333.117
333.11614
333.11499
333.11354
333.1118
333.10975
333.10736
333.10459
333.10132
333.09738
333.09237
333.08542
333.07325
333.11751
333.11726
333.1167
333.11585
333.11471
333.11328
333.11155
333.10951
333.10714
333.10438
333.10112
333.0972
333.09221
333.08527
333.07312
333.1172
333.11695
333.1164
333.11556
333.11443
333.11301
333.1113
333.10928
333.10692
333.10417
333.10093
333.09701
333.09204
333.08511
333.07299
333.1169
333.11665
333.11611
333.11528
333.11416
333.11275
333.11105
333.10904
333.1067
333.10396
333.10074
333.09683
333.09187
333.08496
333.07286
333.1166
333.11636
333.11582
333.115
333.11389
333.11249
333.1108
333.10881
333.10648
333.10375
333.10054
333.09665
333.09171
333.08481
333.07272
333.11631
333.11607
333.11553
333.11472
333.11362
333.11223
333.11056
333.10857
333.10626
333.10355
333.10035
333.09647
333.09154
333.08465
333.07259
333.11601
333.11578
333.11525
333.11444
333.11335
333.11198
333.11031
333.10834
333.10604
333.10334
333.10015
333.09629
333.09137
333.0845
333.07245
333.11572
333.11549
333.11496
333.11416
333.11308
333.11172
333.11007
333.10811
333.10582
333.10313
333.09996
333.0961
333.09119
333.08434
333.07231
333.11544
333.1152
333.11468
333.11389
333.11282
333.11147
333.10983
333.10788
333.1056
333.10293
333.09976
333.09592
333.09102
333.08418
333.07217
333.11515
333.11492
333.11441
333.11362
333.11256
333.11122
333.10959
333.10765
333.10538
333.10272
333.09957
333.09574
333.09085
333.08402
333.07203
333.11487
333.11464
333.11413
333.11335
333.1123
333.11097
333.10935
333.10742
333.10516
333.10251
333.09937
333.09555
333.09068
333.08386
333.07189
333.11459
333.11436
333.11386
333.11309
333.11204
333.11072
333.10911
333.10719
333.10494
333.10231
333.09917
333.09537
333.0905
333.0837
333.07174
333.11432
333.11409
333.11359
333.11282
333.11178
333.11047
333.10887
333.10697
333.10473
333.1021
333.09898
333.09518
333.09033
333.08354
333.0716
333.11404
333.11382
333.11332
333.11256
333.11153
333.11022
333.10863
333.10674
333.10451
333.10189
333.09878
333.09499
333.09015
333.08337
333.07145
333.11377
333.11355
333.11305
333.1123
333.11127
333.10998
333.1084
333.10651
333.1043
333.10169
333.09859
333.09481
333.08998
333.08321
333.0713
333.1135
333.11328
333.11279
333.11204
333.11102
333.10973
333.10816
333.10629
333.10408
333.10148
333.09839
333.09462
333.0898
333.08304
333.07115
333.11323
333.11301
333.11253
333.11178
333.11077
333.10949
333.10793
333.10606
333.10386
333.10127
333.09819
333.09443
333.08962
333.08288
333.071
333.11297
333.11275
333.11227
333.11153
333.11053
333.10925
333.1077
333.10584
333.10365
333.10107
333.098
333.09425
333.08944
333.08271
333.07085
333.1127
333.11249
333.11201
333.11127
333.11028
333.10901
333.10746
333.10562
333.10344
333.10086
333.0978
333.09406
333.08927
333.08254
333.0707
333.11244
333.11223
333.11175
333.11102
333.11003
333.10877
333.10723
333.10539
333.10322
333.10066
333.0976
333.09387
333.08909
333.08237
333.07054
333.11218
333.11197
333.1115
333.11077
333.10979
333.10854
333.107
333.10517
333.10301
333.10045
333.0974
333.09368
333.08891
333.0822
333.07039
333.11193
333.11172
333.11125
333.11052
333.10955
333.1083
333.10678
333.10495
333.10279
333.10025
333.09721
333.09349
333.08873
333.08203
333.07023
333.11167
333.11146
333.11099
333.11028
333.1093
333.10807
333.10655
333.10473
333.10258
333.10004
333.09701
333.0933
333.08855
333.08186
333.07007
333.11142
333.11121
333.11075
333.11003
333.10906
333.10783
333.10632
333.10451
333.10237
333.09984
333.09681
333.09311
333.08837
333.08169
333.06991
333.11117
333.11096
333.1105
333.10979
333.10883
333.1076
333.1061
333.10429
333.10216
333.09963
333.09662
333.09292
333.08818
333.08152
333.06976
333.11092
333.11071
333.11025
333.10955
333.10859
333.10737
333.10587
333.10407
333.10195
333.09943
333.09642
333.09273
333.088
333.08135
333.0696
333.11067
333.11046
333.11001
333.10931
333.10835
333.10714
333.10565
333.10386
333.10173
333.09922
333.09622
333.09254
333.08782
333.08117
333.06943
333.11042
333.11022
333.10976
333.10907
333.10812
333.10691
333.10542
333.10364
333.10152
333.09902
333.09602
333.09235
333.08764
333.081
333.06927
333.11018
333.10997
333.10952
333.10883
333.10788
333.10668
333.1052
333.10342
333.10131
333.09881
333.09583
333.09216
333.08745
333.08083
333.06911
333.10993
333.10973
333.10928
333.10859
333.10765
333.10645
333.10498
333.1032
333.1011
333.09861
333.09563
333.09197
333.08727
333.08065
333.06895
333.10969
333.10949
333.10904
333.10836
333.10742
333.10622
333.10475
333.10299
333.10089
333.09841
333.09543
333.09178
333.08708
333.08047
333.06878
333.10945
333.10925
333.10881
333.10812
333.10719
333.106
333.10453
333.10277
333.10068
333.0982
333.09523
333.09159
333.0869
333.0803
333.06862
333.10921
333.10901
333.10857
333.10789
333.10696
333.10577
333.10431
333.10256
333.10047
333.098
333.09503
333.0914
333.08672
333.08012
333.06845
333.10897
333.10877
333.10833
333.10766
333.10673
333.10555
333.10409
333.10234
333.10026
333.09779
333.09484
333.0912
333.08653
333.07994
333.06828
333.10874
333.10854
333.1081
333.10742
333.1065
333.10532
333.10387
333.10213
333.10005
333.09759
333.09464
333.09101
333.08635
333.07977
333.06812
333.1085
333.1083
333.10787
333.10719
333.10628
333.1051
333.10366
333.10192
333.09985
333.09739
333.09444
333.09082
333.08616
333.07959
333.06795
333.10827
333.10807