/*--------------------------------*- C++ -*----------------------------------*\
| =========                 |                                                 |
| \\      /  F ield         | OpenFOAM: The Open Source CFD Toolbox           |
|  \\    /   O peration     | Version:  2506                                  |
|   \\  /    A nd           | Website:  www.openfoam.com                      |
|    \\/     M anipulation  |                                                 |
\*---------------------------------------------------------------------------*/
FoamFile
{
    version     2.0;
    format      ascii;
    arch        "LSB;label=32;scalar=64";
    class       volVectorField;
    location    "17000/water";
    object      U;
}
// * * * * * * * * * * * * * * * * * * * * * * * * * * * * * * * * * * * * * //

dimensions      [0 1 -1 0 0 0 0];

internalField   nonuniform List<vector> 
6000
(
(0.25028648 -3.4193492e-05 1.234599e-18)
(0.25028875 -7.4648812e-05 -4.6017454e-18)
(0.25029344 -0.00011804414 8.7482236e-20)
(0.25030059 -0.00016540046 5.9605627e-20)
(0.25031046 -0.00021487336 -2.2125676e-19)
(0.25032332 -0.00026685039 -1.0373748e-19)
(0.25033948 -0.00032192175 1.2863997e-19)
(0.25035939 -0.00038078672 1.0109484e-19)
(0.25038356 -0.00044434477 2.7969353e-20)
(0.25041254 -0.00051362452 1.9969086e-20)
(0.25044587 -0.00058677559 2.2732208e-19)
(0.25047643 -0.00065822056 4.7539579e-21)
(0.25046276 -0.00078466513 -1.5268449e-19)
(0.25013031 -0.0015987837 -6.3079306e-20)
(0.24584996 0.0019968142 -5.831786e-20)
(0.25104035 -3.7261304e-05 1.9108904e-18)
(0.25104514 -8.9895979e-05 -2.3873729e-18)
(0.2510558 -0.00014352114 4.5211281e-19)
(0.25107219 -0.00020025424 3.8582333e-19)
(0.2510947 -0.0002571822 8.4211126e-19)
(0.25112368 -0.00031440571 -1.1147964e-19)
(0.25115965 -0.00037188242 3.0192449e-19)
(0.25120324 -0.00042947839 2.5432489e-19)
(0.2512551 -0.00048709454 1.7621621e-19)
(0.25131538 -0.00054561245 1.1391995e-20)
(0.25138039 -0.00060405492 1.8026325e-19)
(0.25142587 -0.00063755821 3.3401675e-20)
(0.25133175 -0.00059164843 -1.6497149e-19)
(0.25037931 -0.0014370973 -1.1381295e-19)
(0.24194277 0.00099520264 -1.245303e-19)
(0.25195051 -3.6589029e-05 -3.1341611e-18)
(0.25195563 -9.0250613e-05 4.4472031e-18)
(0.25196731 -0.00014313025 1.8470305e-18)
(0.25198528 -0.00019912655 -7.549741e-19)
(0.25200977 -0.00025508716 4.6816369e-19)
(0.25204101 -0.0003112558 -6.1065869e-19)
(0.25207932 -0.00036762123 -5.8398463e-19)
(0.25212505 -0.00042413945 -5.9517155e-19)
(0.25217823 -0.00048056787 -6.492585e-19)
(0.25223708 -0.0005377572 -1.377266e-19)
(0.25229114 -0.00060007155 -3.3647703e-19)
(0.25229033 -0.00065419843 -3.2660487e-19)
(0.25200573 -0.00054460881 -3.9645251e-19)
(0.25014357 -0.0012195308 -3.2773016e-19)
(0.23758495 0.00043820543 -2.4565615e-19)
(0.25283353 -3.7446604e-05 -2.1146922e-18)
(0.25283867 -9.3611088e-05 1.3304494e-18)
(0.25285018 -0.00014906892 1.0490869e-18)
(0.25286783 -0.00020791578 -3.0904426e-19)
(0.25289182 -0.00026672308 4.0780986e-19)
(0.25292238 -0.00032582165 -1.5862151e-19)
(0.25295982 -0.00038519269 -6.2900758e-19)
(0.25300432 -0.00044485276 -5.7782847e-19)
(0.25305525 -0.00050441426 -6.828449e-19)
(0.25310809 -0.00056332944 2.8819469e-19)
(0.25314261 -0.00062607506 4.3045317e-20)
(0.25307635 -0.00069910336 -3.4572676e-19)
(0.25255493 -0.0005845712 -2.9132771e-19)
(0.24963188 -0.001063787 -2.3937188e-19)
(0.23320285 0.0001058672 -1.750038e-19)
(0.25372643 -3.8342944e-05 1.0583566e-17)
(0.2537317 -9.6368691e-05 1.5657623e-18)
(0.25374347 -0.00015372841 8.5745184e-19)
(0.25376156 -0.00021453144 1.1082372e-18)
(0.25378616 -0.00027516439 4.6204434e-19)
(0.25381749 -0.00033599427 4.2825104e-19)
(0.25385581 -0.00039694563 1.0620886e-20)
(0.25390101 -0.00045805575 2.5260655e-19)
(0.25395133 -0.00051907431 3.8942489e-19)
(0.25399821 -0.00057855465 3.6440562e-19)
(0.25400834 -0.00063773998 4.7811579e-19)
(0.25386022 -0.0007177221 -1.8813718e-20)
(0.25305737 -0.00062191547 5.5454391e-20)
(0.24895451 -0.00093835859 1.7324421e-20)
(0.22897365 -8.3792337e-05 -1.0835338e-19)
(0.25464474 -3.8661619e-05 5.7491733e-19)
(0.25465014 -9.7320118e-05 -2.2282972e-18)
(0.2546622 -0.00015516462 7.1890457e-19)
(0.25468073 -0.00021648308 6.1375815e-19)
(0.2547059 -0.00027758564 -4.0454596e-19)
(0.25473792 -0.000338881 4.1818114e-19)
(0.25477689 -0.00040025681 5.8804587e-20)
(0.25482222 -0.000461728 6.9118953e-20)
(0.25487049 -0.00052322808 2.5798553e-19)
(0.2549078 -0.000583188 4.8099954e-19)
(0.25488519 -0.00063896641 1.9669317e-19)
(0.25463685 -0.00071821651 1.6711888e-19)
(0.25350729 -0.0006469875 6.4632637e-20)
(0.248129 -0.00083894719 -3.476687e-21)
(0.2249409 -0.00018589273 -1.5410365e-19)
(0.25557031 -3.8595293e-05 -5.273833e-18)
(0.25557581 -9.7309347e-05 -3.1837377e-18)
(0.25558805 -0.00015511983 -1.2029035e-18)
(0.25560682 -0.00021642526 6.327823e-19)
(0.2556323 -0.0002774936 -8.479132e-19)
(0.25566463 -0.00033876345 4.5259983e-19)
(0.25570371 -0.00040009735 2.3680777e-19)
(0.25574825 -0.00046144626 5.8197309e-20)
(0.25579256 -0.00052279714 2.03488e-19)
(0.25581623 -0.0005828814 2.3135801e-19)
(0.25575267 -0.00063600478 5.7345952e-20)
(0.25538743 -0.00071016267 2.0092344e-19)
(0.25388915 -0.00066107344 1.0994666e-19)
(0.24716598 -0.00076077854 1.9252179e-20)
(0.22112141 -0.00023459296 -6.7867606e-21)
(0.25649134 -3.8297107e-05 4.3200205e-18)
(0.25649692 -9.6712129e-05 2.7729562e-18)
(0.25650928 -0.00015419069 7.3964243e-19)
(0.25652824 -0.00021515485 7.095572e-19)
(0.25655393 -0.00027585718 -2.6839975e-19)
(0.25658641 -0.0003367553 -1.9892473e-20)
(0.25662528 -0.00039769653 3.4133239e-19)
(0.2566683 -0.00045856441 4.1838783e-20)
(0.25670691 -0.00051927104 4.454066e-19)
(0.25671305 -0.00057893859 -2.1378693e-19)
(0.25660095 -0.00063003278 1.3683144e-19)
(0.25610359 -0.00069722485 1.4613858e-19)
(0.25419746 -0.0006651972 4.8108876e-20)
(0.24608527 -0.00069788903 3.62368e-20)
(0.21752738 -0.00025081848 6.3841714e-20)
(0.25740382 -3.7852859e-05 -1.7453316e-18)
(0.25740947 -9.5689494e-05 -1.7005082e-18)
(0.25742193 -0.00015257331 1.0130744e-18)
(0.25744104 -0.00021291358 5.3371456e-19)
(0.25746687 -0.00027297291 8.1514394e-19)
(0.25749936 -0.0003332193 1.5306796e-19)
(0.2575377 -0.00039348924 2.6684127e-19)
(0.2575784 -0.00045361302 -7.148463e-21)
(0.25760945 -0.00051335259 2.7158502e-19)
(0.25759421 -0.00057212214 5.2019161e-19)
(0.25742635 -0.00062159363 2.0572616e-19)
(0.25678237 -0.00068144217 1.7695112e-19)
(0.25443121 -0.00066103685 4.2598361e-20)
(0.24490935 -0.00064561644 -1.2523516e-20)
(0.21416513 -0.00024776584 1.8299392e-20)
(0.25830515 -3.7308638e-05 3.0292015e-19)
(0.25831084 -9.4372769e-05 -5.1509882e-19)
(0.25832339 -0.00015047649 -2.5728436e-21)
(0.2583426 -0.00020999612 5.3331231e-19)
(0.25836849 -0.00026922145 -4.637194e-19)
(0.25840083 -0.00032862339 3.257629e-19)
(0.25843826 -0.00038802595 2.896508e-19)
(0.25847573 -0.00044722018 1.7957579e-19)
(0.25849727 -0.00050579279 -2.7233657e-20)
(0.25845683 -0.00056328987 2.2293672e-19)
(0.25822634 -0.00061131676 6.8064664e-20)
(0.25742154 -0.00066417743 8.1494172e-20)
(0.2545896 -0.00065044234 7.3572761e-20)
(0.24365871 -0.00060064453 -6.069736e-21)
(0.21103455 -0.00023378679 4.9569829e-20)
(0.259193 -3.6693881e-05 8.3744614e-18)
(0.25919873 -9.285746e-05 6.5919176e-18)
(0.25921134 -0.00014806165 -9.1591113e-19)
(0.25923061 -0.00020663289 7.4644946e-19)
(0.25925648 -0.0002648995 1.137257e-18)
(0.25928848 -0.00032332972 7.1523541e-19)
(0.25932457 -0.00038173097 4.5448284e-19)
(0.25935785 -0.00043986308 4.0778964e-19)
(0.25936788 -0.00049714489 8.4954958e-20)
(0.25929853 -0.00055310431 -2.7116376e-19)
(0.2589988 -0.00059970361 1.2519802e-19)
(0.25801896 -0.00064623362 1.2045334e-19)
(0.25467145 -0.00063499349 9.0060482e-20)
(0.24235144 -0.00056062195 3.9376794e-20)
(0.20813123 -0.0002141088 7.4949537e-20)
(0.26006576 -3.6034055e-05 7.4139646e-18)
(0.26007152 -9.1214285e-05 4.8360034e-18)
(0.26008417 -0.00014544281 -7.5070261e-19)
(0.26010346 -0.00020298347 -1.3532469e-20)
(0.26012923 -0.00026021093 1.1001951e-18)
(0.2601607 -0.0003175869 9.5740593e-19)
(0.26019497 -0.00037489796 4.7086439e-19)
(0.26022303 -0.0004318747 5.7695398e-19)
(0.26021952 -0.00048779067 -7.2071556e-21)
(0.26011767 -0.00054204301 -1.0869968e-19)
(0.25974224 -0.00058714002 1.9018869e-19)
(0.25857279 -0.00062806077 1.0183814e-19)
(0.25467557 -0.00061594005 2.3737724e-20)
(0.24100379 -0.00052390611 -5.7459324e-20)
(0.20544863 -0.00019196317 5.6918813e-20)
(0.2609225 -3.5349633e-05 5.2849845e-18)
(0.26092828 -8.9497287e-05 2.9895196e-18)
(0.26094096 -0.00014270541 2.9238537e-20)
(0.26096023 -0.00019916671 2.4000289e-19)
(0.2609858 -0.00025530722 8.0937177e-19)
(0.2610165 -0.00031157922 7.3003336e-19)
(0.26104844 -0.00036774517 2.859041e-19)
(0.2610702 -0.00042350433 5.0885177e-19)
(0.26105114 -0.00047801113 -1.8924902e-19)
(0.26091327 -0.00053046086 -1.8363317e-19)
(0.2604557 -0.00057393662 -1.4732874e-20)
(0.2590814 -0.00060990566 1.0108229e-19)
(0.2546009 -0.00059424331 3.4312065e-20)
(0.23963056 -0.00048937354 -4.338416e-20)
(0.20297926 -0.00016931833 1.2006302e-19)
(0.26176274 -3.4655539e-05 1.3575387e-18)
(0.26176854 -8.7746856e-05 1.7842802e-18)
(0.26178122 -0.00013991377 -5.084127e-19)
(0.26180042 -0.00019527247 2.8774945e-19)
(0.26182568 -0.00025030306 5.1157676e-19)
(0.26185536 -0.00030544608 3.837154e-19)
(0.26188442 -0.00036043768 3.8576693e-19)
(0.26189878 -0.00041494196 1.9012596e-19)
(0.26186213 -0.00046801763 -6.4978566e-20)
(0.2616848 -0.00051862213 -3.1628695e-19)
(0.26113855 -0.00056034346 -1.7392146e-19)
(0.25954316 -0.00059189152 -1.2298942e-20)
(0.25444651 -0.0005706321 4.6205437e-20)
(0.23824529 -0.00045627776 -3.1788883e-20)
(0.20071509 -0.00014735259 7.4198758e-20)
(0.26258633 -3.3963061e-05 -1.7424177e-19)
(0.26259213 -8.5993782e-05 5.0106074e-19)
(0.26260479 -0.00013711719 3.0879522e-18)
(0.26262388 -0.00019136968 4.5425125e-19)
(0.2626487 -0.00024528656 -1.1930761e-18)
(0.26267708 -0.00029929459 5.1528078e-20)
(0.26270267 -0.00035310243 4.9902523e-19)
(0.26270848 -0.00040633486 5.5252552e-21)
(0.26265224 -0.00045797299 -7.9460669e-20)
(0.26243199 -0.00050672606 -1.231578e-19)
(0.26179026 -0.00054656345 -4.8151372e-20)
(0.25995633 -0.0005740675 -6.1351132e-20)
(0.25421177 -0.00054566294 5.3974777e-20)
(0.23686046 -0.00042415214 -4.2156084e-21)
(0.19864765 -0.0001267576 4.6212561e-20)
(0.26339335 -3.3281401e-05 2.6244276e-18)
(0.26339915 -8.4262742e-05 4.1942869e-18)
(0.26341177 -0.0001343551 2.1757165e-18)
(0.26343068 -0.0001875135 1.2543276e-18)
(0.26345493 -0.00024032822 1.0286996e-18)
(0.26348171 -0.00029321054 4.5917956e-19)
(0.2635032 -0.00034584107 2.3534509e-19)
(0.2634993 -0.00039780175 -7.9496186e-20)
(0.26342146 -0.0004480083 2.490501e-20)
(0.26315482 -0.00049492779 1.3056776e-19)
(0.26241041 -0.00053276478 -3.2638328e-20)
(0.26031893 -0.00055643964 2.4007973e-20)
(0.2538966 -0.000519773 -1.3744094e-20)
(0.23548766 -0.00039274464 5.235221e-20)
(0.19676807 -0.00010792878 1.1929217e-20)
(0.26418413 -3.2618313e-05 2.3473506e-18)
(0.26418991 -8.2574227e-05 3.2071336e-18)
(0.26420246 -0.00013166021 7.8446549e-19)
(0.26422112 -0.0001837496 4.9545219e-19)
(0.26424465 -0.00023548649 4.6373786e-19)
(0.2642695 -0.00028726512 4.2443641e-19)
(0.26428624 -0.00033873796 5.9412765e-20)
(0.26427145 -0.00038944152 -9.034305e-20)
(0.26416998 -0.0004382328 3.0539445e-19)
(0.26385341 -0.00048335173 1.017384e-20)
(0.26299854 -0.00051908846 4.867661e-20)
(0.26062878 -0.00053898816 6.9447118e-20)
(0.25350187 -0.00049331965 -9.5946813e-21)
(0.2341376 -0.00036197184 2.8123552e-20)
(0.19506692 -9.1079357e-05 -2.1616954e-20)
(0.26495914 -3.1980325e-05 3.7550627e-18)
(0.2649649 -8.094539e-05 2.7672456e-18)
(0.26497734 -0.00012905989 2.0845012e-18)
(0.26499568 -0.00018011622 4.2233032e-19)
(0.26501831 -0.00023081031 5.7238358e-19)
(0.26504088 -0.00028151807 4.3878509e-19)
(0.2650522 -0.00033186392 -1.6520145e-20)
(0.2650253 -0.00038133727 5.885852e-20)
(0.26489816 -0.00042873842 1.069619e-19)
(0.26452796 -0.00047209828 5.1224135e-20)
(0.26355413 -0.00050565096 1.8684627e-19)
(0.2608835 -0.00052167636 8.7421403e-20)
(0.25302971 -0.00046660631 6.7559915e-20)
(0.23282016 -0.00033188327 3.3228946e-20)
(0.19353413 -7.6303787e-05 5.0349138e-20)
(0.26571903 -3.1372765e-05 4.9547638e-18)
(0.26572475 -7.9390279e-05 2.1863377e-18)
(0.26573705 -0.00012657659 -5.264684e-20)
(0.26575498 -0.00017664472 5.5938507e-19)
(0.26577653 -0.00022633987 1.3452495e-18)
(0.26579644 -0.0002760185 8.463038e-19)
(0.26580163 -0.0003252772 2.961976e-19)
(0.26576141 -0.00037355728 1.5827454e-19)
(0.26560652 -0.00041960061 -8.040502e-21)
(0.26517878 -0.00046124612 8.9498432e-20)
(0.26407657 -0.00049254343 1.4676002e-19)
(0.26108058 -0.00050445572 1.1500373e-19)
(0.25248384 -0.000439897 7.9689178e-20)
(0.23154421 -0.00030262987 5.1082688e-20)
(0.19215888 -6.3609733e-05 4.5951977e-21)
(0.26646455 -3.0799673e-05 8.0618179e-18)
(0.26647021 -7.7919711e-05 6.4078656e-19)
(0.26648233 -0.00012422759 3.4919447e-18)
(0.26649975 -0.0001733593 2.6017321e-18)
(0.26652002 -0.00022210618 1.7301818e-19)
(0.26653688 -0.0002708044 1.3094506e-18)
(0.26653522 -0.00031902283 1.4848333e-18)
(0.26648042 -0.00036615421 9.8800832e-19)
(0.26629564 -0.00041087723 7.8274847e-19)
(0.26580617 -0.00045085191 -2.9426827e-19)
(0.26456508 -0.00047982866 3.5708905e-19)
(0.26121753 -0.00048726982 4.1150552e-19)
(0.25186982 -0.00041342264 2.4295351e-19)
(0.23031742 -0.00027443217 2.0356764e-19)
(0.1909297 -5.2932835e-05 7.2909104e-20)
(0.26719653 -3.0263688e-05 4.6367396e-18)
(0.26720212 -7.6541024e-05 1.0602855e-18)
(0.26721401 -0.00012202465 3.809483e-18)
(0.26723083 -0.00017027641 2.6296116e-18)
(0.2672496 -0.00021813034 1.1414973e-18)
(0.26726299 -0.00026590165 1.0491117e-18)
(0.26725373 -0.0003131315 1.5960499e-18)
(0.26718309 -0.00035916374 1.111732e-18)
(0.26696618 -0.00040260692 6.3020182e-19)
(0.26641044 -0.00044094906 9.4266537e-20)
(0.26501868 -0.00046753759 3.1367008e-19)
(0.26129202 -0.00047005901 3.0756212e-19)
(0.25119506 -0.00038738325 2.1000377e-19)
(0.2291461 -0.00024754677 2.9250185e-19)
(0.18983455 -4.41451e-05 1.4898205e-19)
(0.26791589 -2.9765992e-05 -3.6674702e-18)
(0.26792138 -7.5257933e-05 1.9320232e-18)
(0.26793299 -0.00011997377 7.8064486e-19)
(0.26794908 -0.00016740448 9.0226729e-19)
(0.26796613 -0.00021442313 2.0039143e-18)
(0.26797562 -0.00026132352 7.4646586e-19)
(0.267958 -0.00030761887 3.4131928e-19)
(0.26787018 -0.00035260382 2.5131774e-19)
(0.2676188 -0.00039480805 9.4364338e-20)
(0.2669918 -0.00043154706 1.0035034e-19)
(0.26543617 -0.00045566687 -3.80623e-20)
(0.2613021 -0.00045276643 -2.6318748e-22)
(0.2504687 -0.00036194908 1.3063949e-20)
(0.22803501 -0.00022223217 6.7441312e-20)
(0.18886112 -3.7064087e-05 1.1631654e-19)
(0.26862352 -2.9306383e-05 3.4851503e-18)
(0.2686289 -7.4070662e-05 2.6778166e-18)
(0.26864017 -0.00011807533 2.7228305e-18)
(0.26865542 -0.00016474413 2.9076824e-18)
(0.26867049 -0.00021098533 2.164145e-18)
(0.26867563 -0.000257071 1.7518717e-18)
(0.26864885 -0.00030248607 8.0342774e-19)
(0.26854251 -0.00034647515 9.5254124e-19)
(0.26825414 -0.00038747924 8.5229661e-19)
(0.26755035 -0.00042263245 -1.413312e-19)
(0.2658161 -0.00044417905 2.0199423e-19)
(0.26124652 -0.00043534493 2.4226964e-19)
(0.24970133 -0.00033726333 2.6520678e-19)
(0.22698727 -0.00019871676 2.3754389e-19)
(0.18799711 -3.1466399e-05 2.4277811e-19)
(0.26932033 -2.8883461e-05 3.4777524e-18)
(0.26932558 -7.2976356e-05 -8.2561822e-19)
(0.26933645 -0.00011632481 9.0762647e-19)
(0.26935072 -0.00016228909 2.294924e-18)
(0.26936357 -0.0002078089 1.8307337e-18)
(0.26936389 -0.00025313433 1.4857543e-18)
(0.26932713 -0.0002977213 1.0858346e-18)
(0.26920083 -0.00034076322 1.190152e-18)
(0.2688728 -0.00038060158 7.1322351e-19)
(0.26808605 -0.00041417146 4.9118998e-19)
(0.26615679 -0.00043300583 3.084409e-19)
(0.26112496 -0.00041776402 3.2433287e-19)
(0.24890441 -0.00031344658 3.6617672e-19)
(0.22600436 -0.00017717261 2.7374088e-19)
(0.18723056 -2.7105587e-05 1.9755076e-19)
(0.27000719 -2.8494911e-05 3.4964946e-18)
(0.27001228 -7.1969744e-05 2.6652095e-18)
(0.27002267 -0.00011471384 2.8510505e-18)
(0.27003582 -0.00016002771 2.1445846e-18)
(0.27004618 -0.00020487885 6.7697166e-19)
(0.27004119 -0.00024949516 1.5370059e-18)
(0.2699936 -0.00029330262 1.4963627e-18)
(0.26984584 -0.00033544136 9.4524194e-19)
(0.26947524 -0.00037414209 5.092725e-19)
(0.2685986 -0.00040611399 3.1833866e-19)
(0.26645635 -0.00042205446 3.561557e-19)
(0.2609383 -0.00040001524 4.0267179e-19)
(0.24808975 -0.00029060213 5.1460829e-19)
(0.22508629 -0.00015769827 2.4619562e-19)
(0.18655015 -2.3732129e-05 3.1920122e-19)
(0.27068489 -2.8137826e-05 7.6000164e-18)
(0.2706898 -7.1043907e-05 4.8374066e-18)
(0.27069965 -0.00011323138 5.2696549e-18)
(0.27071153 -0.00015794462 3.9701916e-18)
(0.2707191 -0.00020217545 1.4950758e-18)
(0.27070829 -0.00024612933 2.1374926e-18)
(0.27064898 -0.00028920108 2.1817672e-18)
(0.27047818 -0.00033047455 1.4873705e-18)
(0.27006181 -0.00036805784 1.0727498e-18)
(0.26908753 -0.00039839812 -3.0298665e-21)
(0.26671278 -0.00041121649 7.0988499e-19)
(0.26068881 -0.00038211515 7.2084797e-19)
(0.24726882 -0.00026882041 6.6900526e-19)
(0.22423175 -0.00014031231 5.9720729e-19)
(0.18594537 -2.1112147e-05 4.4750173e-19)
(0.27135418 -2.7809012e-05 -3.5091639e-20)
(0.27135887 -7.0191041e-05 3.9147102e-18)
(0.2713681 -0.00011186497 3.3866987e-18)
(0.27137855 -0.00015602247 2.4812332e-18)
(0.27138303 -0.00019967637 2.5976587e-18)
(0.27136587 -0.00024300948 1.2936358e-18)
(0.27129391 -0.00028538386 1.3665783e-18)
(0.27109836 -0.000325823 8.5034247e-19)
(0.27063272 -0.00036230005 5.327635e-19)
(0.26955206 -0.00039095432 1.9422673e-19)
(0.26692403 -0.00040037784 3.4423284e-19)
(0.26038022 -0.00036410564 4.4533277e-19)
(0.24645221 -0.00024818088 3.6748653e-19)
(0.22343841 -0.00012495718 3.8629066e-19)
(0.18540672 -1.904183e-05 2.4001813e-19)
(0.27201571 -2.7505236e-05 2.3153703e-18)
(0.27202015 -6.94031e-05 3.2374708e-18)
(0.27202866 -0.00011060176 2.7249498e-18)
(0.27203751 -0.00015424331 1.8524263e-18)
(0.2720386 -0.00019735858 2.3953937e-18)
(0.27201452 -0.00024010733 1.5382972e-18)
(0.27192892 -0.00028181693 1.1063864e-18)
(0.2717068 -0.00032144525 9.696188e-19)
(0.27118802 -0.00035681747 6.9363778e-19)
(0.2699912 -0.00038370884 3.4091522e-19)
(0.26708822 -0.000389429 3.55613e-19)
(0.26001771 -0.00034605163 3.351989e-19)
(0.24564917 -0.00022875086 4.8245903e-19)
(0.22270325 -0.00011151161 4.8062427e-19)
(0.18492573 -1.7355843e-05 3.3733913e-19)
(0.27267005 -2.7223403e-05 3.2720273e-18)
(0.27267421 -6.8672269e-05 2.2714883e-19)
(0.27268192 -0.00010942927 2.8193551e-19)
(0.27268898 -0.00015258973 1.7919806e-18)
(0.27268634 -0.00019519966 2.6564659e-18)
(0.27265476 -0.00023739527 1.6914382e-18)
(0.27255447 -0.00027846699 8.4645551e-19)
(0.2723038 -0.00031730047 1.0735492e-18)
(0.27172756 -0.00035155884 6.8365098e-19)
(0.27040369 -0.00037658611 6.7100975e-19)
(0.26720375 -0.00037827411 3.8524679e-19)
(0.25960771 -0.00032803713 4.1417473e-19)
(0.24486735 -0.00021058184 5.032535e-19)
(0.22202277 -9.9808138e-05 5.5204764e-19)
(0.18449494 -1.5929484e-05 2.3416155e-19)
(0.27331772 -2.6960667e-05 4.3079341e-18)
(0.27332155 -6.7991275e-05 4.4703516e-18)
(0.27332837 -0.00010833587 3.1914091e-18)
(0.27333345 -0.00015104547 2.8061819e-18)
(0.27332673 -0.00019317869 1.196967e-18)
(0.27328702 -0.00023484751 1.4047956e-18)
(0.27317093 -0.0002753027 1.278828e-18)
(0.27288957 -0.0003133499 8.1424305e-19)
(0.27225107 -0.00034647442 6.1195137e-19)
(0.27078808 -0.00036951039 6.7487081e-19)
(0.26726952 -0.00036683813 2.8419565e-19)
(0.25915765 -0.0003101602 5.2641754e-19)
(0.24411266 -0.00019370463 6.0069323e-19)
(0.22139331 -8.9652401e-05 3.8330118e-19)
(0.1841079 -1.4675689e-05 2.6274036e-19)
(0.27395916 -2.6714475e-05 6.4672968e-18)
(0.27396262 -6.7353542e-05 4.8789731e-18)
(0.27396843 -0.00010731104 5.5194153e-18)
(0.27397134 -0.00014959583 4.1258759e-18)
(0.27396016 -0.00019127671 1.3390763e-18)
(0.27391168 -0.00023244055 2.1523256e-18)
(0.2737786 -0.00027229533 2.0411392e-18)
(0.27346419 -0.00030955757 1.3998526e-18)
(0.27275806 -0.00034151676 1.1525158e-18)
(0.27114274 -0.00036240704 4.6005424e-19)
(0.26728512 -0.00035507155 6.3173152e-19)
(0.25867552 -0.00029252748 9.0671531e-19)
(0.24338933 -0.00017812521 8.6148471e-19)
(0.22081116 -8.0841191e-05 5.8200066e-19)
(0.18375901 -1.3538667e-05 4.9733349e-19)
(0.27459475 -2.648259e-05 -1.1233893e-18)
(0.2745978 -6.675326e-05 3.8116376e-18)
(0.27460249 -0.0001063455 3.400985e-18)
(0.274603 -0.0001482278 2.3501596e-18)
(0.27458699 -0.00018947691 2.2656383e-18)
(0.27452902 -0.00023015345 1.4620393e-18)
(0.27437767 -0.00026941895 1.3333005e-18)
(0.27402763 -0.00030589064 7.8992517e-19)
(0.27324789 -0.00033664079 6.1200526e-19)
(0.27146593 -0.00035520381 3.4692812e-19)
(0.26725094 -0.00034295249 4.113474e-19)
(0.25816956 -0.00027524859 4.7674592e-19)
(0.24270004 -0.00016382254 4.1059996e-19)
(0.22027275 -7.3177109e-05 4.4875266e-19)
(0.18344349 -1.2486088e-05 2.6090804e-19)
(0.27522481 -2.6263072e-05 3.0720381e-18)
(0.27522741 -6.6185368e-05 4.5371082e-18)
(0.27523087 -0.00010543114 3.1350277e-18)
(0.27522875 -0.00014693 2.1162347e-18)
(0.27520748 -0.00018776456 2.2178699e-18)
(0.2751393 -0.00022796774 1.412455e-18)
(0.27496829 -0.00026665041 1.4894279e-18)
(0.27457978 -0.00030231921 7.2309882e-19)
(0.27371976 -0.0003318036 6.4651988e-19)
(0.27175586 -0.00034783257 3.6624393e-19)
(0.26716832 -0.00033048644 5.0396124e-19)
(0.25764777 -0.0002584306 4.2753828e-19)
(0.24204621 -0.0001507494 3.3376877e-19)
(0.21977469 -6.6478883e-05 3.5195021e-19)
(0.18315725 -1.1501421e-05 3.1788564e-19)
(0.27584964 -2.6054262e-05 3.2303133e-18)
(0.27585173 -6.5645512e-05 9.3373165e-19)
(0.27585383 -0.00010456099 8.9338252e-19)
(0.27584885 -0.00014569263 1.6533e-18)
(0.27582189 -0.00018612688 2.1510424e-18)
(0.2757427 -0.00022586725 1.5457207e-18)
(0.27555052 -0.00026396905 1.1175883e-18)
(0.27512041 -0.00029881616 7.8642061e-19)
(0.27417268 -0.00032696406 7.8228621e-19)
(0.27201082 -0.00034023145 8.7119436e-19)
(0.26703956 -0.00031770398 5.2348266e-19)
(0.25711762 -0.00024217267 4.643948e-19)
(0.24142819 -0.00013883591 4.3755917e-19)
(0.21931381 -6.0587302e-05 3.7322804e-19)
(0.18289682 -1.0577469e-05 3.2959337e-19)
(0.27646948 -2.5854749e-05 2.7740485e-18)
(0.27647102 -6.5129981e-05 3.5674988e-18)
(0.27647162 -0.00010372909 2.6721452e-18)
(0.27646352 -0.00014450731 2.1458522e-18)
(0.2764304 -0.00018455289 1.4047509e-18)
(0.27633935 -0.00022383791 1.5179051e-18)
(0.27612438 -0.00026135648 7.7908388e-19)
(0.27564919 -0.00029535665 9.5189237e-19)
(0.27460555 -0.00032208226 7.6503097e-19)
(0.27222923 -0.0003323472 8.1613659e-19)
(0.26686787 -0.00030465719 5.0903164e-19)
(0.25658579 -0.00022656125 4.405964e-19)
(0.2408456 -0.00012799526 6.2128609e-19)
(0.21888719 -5.5367365e-05 4.8169204e-19)
(0.18265925 -9.7115793e-06 3.1003094e-19)
(0.27708455 -2.5663344e-05 6.8477097e-18)
(0.27708548 -6.4635631e-05 4.6649483e-18)
(0.27708444 -0.0001029304 4.2866563e-18)
(0.27707294 -0.00014336686 3.6285816e-18)
(0.27703318 -0.00018303314 1.8751782e-18)
(0.27692935 -0.00022186743 2.2624124e-18)
(0.2766898 -0.00025879623 1.6304563e-18)
(0.27616569 -0.00029191777 1.5585095e-18)
(0.27501711 -0.00031711916 9.8122472e-19)
(0.27240981 -0.00032413774 5.5657273e-19)
(0.26665728 -0.00029141517 7.5086684e-19)
(0.256058 -0.00021166603 9.2815398e-19)
(0.24029748 -0.00011813047 7.9694297e-19)
(0.21849214 -5.0707642e-05 7.6933199e-19)
(0.18244204 -8.9025326e-06 5.3017413e-19)
(0.27769504 -2.5479044e-05 1.9139016e-18)
(0.27769529 -6.4159807e-05 4.5213813e-18)
(0.27769247 -0.00010216064 3.1198629e-18)
(0.27767729 -0.00014226521 2.049679e-18)
(0.27763035 -0.0001815595 2.3270952e-18)
(0.27751275 -0.00021994503 1.3560951e-18)
(0.27724666 -0.00025627339 9.2349672e-19)
(0.27666938 -0.00028847796 8.3627243e-19)
(0.275406 -0.00031203634 5.8923892e-19)
(0.27255164 -0.0003155742 5.9288184e-19)
(0.26641246 -0.00027805925 3.3359701e-19)
(0.25553894 -0.0001975371 4.7635338e-19)
(0.23978254 -0.00010914112 1.9605289e-19)
(0.21812621 -4.651786e-05 4.8606216e-19)
(0.18224308 -8.1488538e-06 3.5723963e-19)
(0.27830111 -2.5301005e-05 3.9156918e-18)
(0.27830062 -6.3700269e-05 4.5871173e-18)
(0.27829586 -0.0001014162 3.874551e-18)
(0.27827669 -0.00014119716 2.6433762e-18)
(0.278222 -0.00018012493 2.3204957e-18)
(0.27808956 -0.00021806116 1.3417376e-18)
(0.2777948 -0.00025377436 1.004353e-18)
(0.27715962 -0.0002850166 9.9084852e-19)
(0.27577079 -0.00030679609 7.6676978e-19)
(0.27265429 -0.00030664249 3.813576e-19)
(0.26613848 -0.00026467813 5.0362652e-19)
(0.2550323 -0.00018420368 4.6731581e-19)
(0.23929925 -0.00010092916 3.9475013e-19)
(0.21778713 -4.2725644e-05 4.2774443e-19)
(0.18206056 -7.4481423e-06 3.1383008e-19)
(0.27890291 -2.5128516e-05 2.7304522e-18)
(0.27890162 -6.3255127e-05 1.1303626e-18)
(0.27889474 -0.00010069401 1.6821343e-18)
(0.27887126 -0.00014015826 2.724931e-18)
(0.27880821 -0.00017872332 2.5586092e-18)
(0.27865976 -0.00021620724 1.5612925e-18)
(0.27833397 -0.00025128651 1.3113999e-18)
(0.27763569 -0.00028151345 1.2493004e-18)
(0.27611001 -0.00030136189 9.2029324e-19)
(0.2727179 -0.00029734386 7.8916878e-19)
(0.26584062 -0.00025136317 4.9913633e-19)
(0.25454084 -0.00017167439 4.4558074e-19)
(0.23884602 -9.340316e-05 4.3960573e-19)
(0.21747286 -3.9273088e-05 3.69239e-19)
(0.18189296 -6.7970331e-06 2.7524283e-19)
(0.27950056 -2.4960972e-05 -1.9754124e-18)
(0.2794984 -6.2822774e-05 3.8547464e-18)
(0.27948922 -9.9991432e-05 2.2250677e-18)
(0.27946108 -0.00013914466 1.6377644e-18)
(0.279389 -0.00017734922 2.0203155e-18)
(0.27922329 -0.00021437542 1.0142861e-18)
(0.27886389 -0.00024879793 7.3202613e-19)
(0.27809674 -0.00027794828 4.5196545e-19)
(0.27642222 -0.00029569921 2.9683736e-19)
(0.27274323 -0.00028769474 8.4846893e-19)
(0.2655241 -0.00023820407 1.1185029e-19)
(0.25406651 -0.00015993912 1.497665e-20)
(0.23842119 -8.6481053e-05 -2.886785e-20)
(0.21718151 -3.6113613e-05 6.4644123e-20)
(0.18173897 -6.1914738e-06 9.3027643e-20)
(0.28009418 -2.4797857e-05 6.057575e-19)
(0.28009107 -6.2401834e-05 3.6469125e-18)
(0.28007941 -9.9306213e-05 4.2521654e-18)
(0.28004623 -0.00013815299 1.4343707e-18)
(0.27996442 -0.00017599777 1.9803137e-18)
(0.27978006 -0.00021255838 1.1205801e-18)
(0.2793842 -0.00024629715 6.9571317e-19)
(0.27854186 -0.00027430051 3.0320893e-19)
(0.27670605 -0.00028977676 2.1491204e-19)
(0.27273166 -0.0002777256 6.2411992e-19)
(0.26519392 -0.00022528491 2.3818074e-19)
(0.25361059 -0.00014897206 1.2853583e-19)
(0.23802316 -8.0091232e-05 7.5991935e-20)
(0.21691137 -3.320934e-05 1.2889068e-20)
(0.18159747 -5.6270983e-06 1.1643059e-19)
(0.28068388 -2.4638722e-05 1.4660687e-18)
(0.28067974 -6.1991115e-05 3.5538055e-18)
(0.28066539 -9.863637e-05 3.4801853e-18)
(0.28062676 -0.00013718022 1.4049001e-18)
(0.28053445 -0.00017466448 2.1040065e-18)
(0.28032993 -0.00021074911 1.0835646e-18)
(0.27989449 -0.00024377295 4.7353892e-19)
(0.27897002 -0.0002705489 4.6790278e-19)
(0.27696025 -0.00028356786 4.346971e-19)
(0.27268518 -0.00026747915 5.1007435e-19)
(0.26485469 -0.00021268092 2.7590531e-19)
(0.25317379 -0.00013873548 -5.8680491e-22)
(0.23765034 -7.4172516e-05 2.9904975e-22)
(0.2166609 -3.052903e-05 -4.614468e-20)
(0.18146749 -5.0995655e-06 1.6446155e-19)
(0.28126974 -2.4483173e-05 2.4842827e-18)
(0.28126448 -6.1589567e-05 6.7666673e-18)
(0.28124722 -9.7980136e-05 2.6840289e-18)
(0.28120271 -0.00013622364 8.2750018e-19)
(0.28109907 -0.00017334514 9.9839448e-19)
(0.28087275 -0.00020894082 2.4146333e-19)
(0.28039427 -0.00024121406 -2.1752374e-19)
(0.27938014 -0.00026667151 -3.3321624e-20)
(0.27718382 -0.00027705191 -9.5297233e-20)
(0.27260633 -0.00025700811 -7.0438678e-20)
(0.26451052 -0.00020045586 -1.9278451e-19)
(0.25275643 -0.00012918378 -5.124427e-19)
(0.23730122 -6.8673275e-05 -5.3926394e-19)
(0.21642866 -2.8046559e-05 -3.29471e-19)
(0.18134818 -4.6048123e-06 -1.637268e-20)
(0.28185185 -2.4330856e-05 4.3098763e-18)
(0.28184539 -6.1196251e-05 5.1499331e-18)
(0.28182498 -9.7335908e-05 3.2930633e-18)
(0.28177412 -0.00013528067 1.3237466e-18)
(0.28165823 -0.00017203573 8.7051324e-19)
(0.2814083 -0.00020712676 2.736756e-19)
(0.28088299 -0.00023860899 -9.9426018e-20)
(0.27977106 -0.0002626457 -1.2753745e-19)
(0.27737601 -0.00027021574 2.2961255e-20)
(0.27249806 -0.00024637257 -9.9294923e-20)
(0.26416497 -0.0001886604 -2.61799e-19)
(0.2523585 -0.00012026722 -2.9722349e-19)
(0.23697438 -6.3550127e-05 -4.7376412e-19)
(0.21621337 -2.5739817e-05 -3.5498522e-19)
(0.18123881 -4.1392046e-06 -8.1223603e-20)
(0.28243029 -2.4181448e-05 2.5277526e-18)
(0.28242252 -6.0810309e-05 3.6705143e-18)
(0.28239871 -9.6702199e-05 4.0702834e-18)
(0.28234099 -0.00013434892 2.5982068e-18)
(0.28221186 -0.00017073227 1.6707559e-18)
(0.28193636 -0.00020530013 1.086789e-18)
(0.28136003 -0.00023594579 8.0083624e-19)
(0.2801416 -0.00025844846 3.5546924e-19)
(0.27753642 -0.00026305461 5.4478818e-19)
(0.27236366 -0.00023563725 7.0642937e-20)
(0.26382105 -0.00017733136 2.2015612e-19)
(0.25197976 -0.0001119352 2.1678906e-19)
(0.23666845 -5.8766491e-05 1.681406e-19)
(0.21601387 -2.3589921e-05 -3.4998693e-20)
(0.1811387 -3.699599e-06 3.7978475e-20)
(0.28300512 -2.4034648e-05 3.975507e-18)
(0.28299594 -6.0430939e-05 1.8233689e-18)
(0.28296845 -9.6077598e-05 3.5837138e-18)
(0.28290332 -0.00013342601 2.5340592e-18)
(0.28275987 -0.00016943078 2.0938696e-18)
(0.28245663 -0.00020345398 1.1745266e-18)
(0.28182471 -0.00023321186 1.0303099e-18)
(0.28049056 -0.0002540569 4.5034739e-19)
(0.27766504 -0.00025557285 3.3921576e-19)
(0.27220658 -0.0002248688 3.801867e-19)
(0.26348123 -0.00016649191 1.833899e-19)
(0.25161982 -0.00010413863 2.1696297e-19)
(0.23638216 -5.4291233e-05 3.1528208e-19)
(0.21582908 -2.1580661e-05 -1.7573747e-20)
(0.18104728 -3.2833435e-06 4.6675526e-20)
(0.2835764 -2.3890167e-05 2.7552768e-18)
(0.28356569 -6.005738e-05 2.5617658e-18)
(0.28353424 -9.5460739e-05 2.7624363e-18)
(0.2834611 -0.00013250962 3.0341568e-18)
(0.28330215 -0.00016812719 1.8285187e-18)
(0.28296879 -0.00020158114 9.962407e-19)