/*--------------------------------*- C++ -*----------------------------------*\
| =========                 |                                                 |
| \\      /  F ield         | OpenFOAM: The Open Source CFD Toolbox           |
|  \\    /   O peration     | Version:  2506                                  |
|   \\  /    A nd           | Website:  www.openfoam.com                      |
|    \\/     M anipulation  |                                                 |
\*---------------------------------------------------------------------------*/
FoamFile
{
    version     2.0;
    format      ascii;
    arch        "LSB;label=32;scalar=64";
    class       volScalarField;
    location    "13000/water";
    object      T;
}
// * * * * * * * * * * * * * * * * * * * * * * * * * * * * * * * * * * * * * //

dimensions      [0 0 0 1 0 0 0];

internalField   nonuniform List<scalar> 
6000
(
333.15
333.15
333.15
333.15
333.15
333.15
333.15
333.15
333.15
333.15
333.15
333.14998
333.14989
333.14924
333.14256
333.15
333.15
333.15
333.15
333.15
333.15
333.15
333.15
333.15
333.15
333.14999
333.14994
333.14968
333.14816
333.13666
333.15
333.15
333.15
333.15
333.15
333.15
333.15
333.15
333.15
333.14999
333.14997
333.14987
333.14939
333.14689
333.13171
333.15
333.15
333.15
333.15
333.15
333.15
333.15
333.15
333.15
333.14999
333.14994
333.14976
333.14903
333.14547
333.12738
333.15
333.15
333.15
333.15
333.15
333.15
333.15
333.15
333.14999
333.14997
333.1499
333.14963
333.1486
333.14395
333.1235
333.15
333.15
333.15
333.15
333.15
333.15
333.15
333.15
333.14999
333.14996
333.14985
333.14947
333.14812
333.14236
333.11997
333.15
333.15
333.15
333.15
333.15
333.15
333.15
333.14999
333.14998
333.14994
333.14978
333.14929
333.1476
333.14073
333.11672
333.15
333.15
333.15
333.15
333.15
333.15
333.15
333.14999
333.14997
333.14991
333.1497
333.14909
333.14703
333.13905
333.1137
333.15
333.15
333.15
333.15
333.15
333.15
333.15
333.14999
333.14996
333.14987
333.14961
333.14886
333.14642
333.13736
333.11089
333.15
333.15
333.15
333.15
333.15
333.15
333.14999
333.14998
333.14994
333.14983
333.14951
333.14862
333.14578
333.13565
333.10827
333.15
333.15
333.15
333.15
333.15
333.15
333.14999
333.14998
333.14993
333.14978
333.1494
333.14835
333.14509
333.13395
333.10582
333.15
333.15
333.15
333.15
333.15
333.15
333.14999
333.14997
333.1499
333.14973
333.14928
333.14807
333.14437
333.13225
333.10353
333.15
333.15
333.15
333.15
333.15
333.14999
333.14998
333.14996
333.14988
333.14967
333.14915
333.14777
333.1436
333.13057
333.10138
333.15
333.15
333.15
333.15
333.15
333.14999
333.14998
333.14994
333.14985
333.14961
333.14901
333.14745
333.1428
333.12892
333.09938
333.15
333.15
333.15
333.15
333.15
333.14999
333.14997
333.14993
333.14982
333.14954
333.14886
333.1471
333.14195
333.12729
333.09752
333.15
333.15
333.15
333.15
333.15
333.14999
333.14997
333.14991
333.14978
333.14946
333.1487
333.14673
333.14106
333.12569
333.0958
333.15
333.15
333.15
333.15
333.14999
333.14998
333.14996
333.1499
333.14974
333.14938
333.14852
333.14633
333.14012
333.12414
333.09421
333.15
333.15
333.15
333.15
333.14999
333.14998
333.14995
333.14988
333.1497
333.14929
333.14834
333.14591
333.13915
333.12263
333.09275
333.15
333.15
333.15
333.15
333.14999
333.14998
333.14994
333.14985
333.14965
333.1492
333.14814
333.14545
333.13813
333.12117
333.09142
333.15
333.15
333.15
333.14999
333.14999
333.14997
333.14993
333.14983
333.1496
333.14909
333.14792
333.14496
333.13708
333.11977
333.0902
333.15
333.15
333.15
333.14999
333.14999
333.14997
333.14992
333.1498
333.14955
333.14899
333.1477
333.14444
333.136
333.11843
333.08909
333.15
333.15
333.15
333.14999
333.14998
333.14996
333.1499
333.14977
333.14949
333.14887
333.14745
333.14387
333.13489
333.11715
333.08809
333.15
333.15
333.15
333.14999
333.14998
333.14995
333.14989
333.14974
333.14943
333.14874
333.14718
333.14327
333.13377
333.11593
333.08719
333.15
333.15
333.14999
333.14999
333.14998
333.14994
333.14987
333.14971
333.14936
333.14861
333.14689
333.14262
333.13264
333.11478
333.08637
333.15
333.15
333.14999
333.14999
333.14997
333.14993
333.14985
333.14967
333.14929
333.14847
333.14658
333.14194
333.13151
333.11369
333.08563
333.15
333.15
333.14999
333.14998
333.14997
333.14992
333.14983
333.14963
333.14921
333.14831
333.14625
333.14121
333.13039
333.11267
333.08497
333.15
333.15
333.14999
333.14998
333.14996
333.14991
333.14981
333.14959
333.14913
333.14815
333.14588
333.14045
333.12929
333.1117
333.08437
333.15
333.14999
333.14999
333.14998
333.14995
333.1499
333.14979
333.14954
333.14904
333.14797
333.14549
333.13966
333.12822
333.11079
333.08383
333.15
333.14999
333.14999
333.14998
333.14995
333.14989
333.14976
333.14949
333.14895
333.14777
333.14506
333.13884
333.12717
333.10993
333.08333
333.14999
333.14999
333.14999
333.14997
333.14994
333.14987
333.14973
333.14944
333.14884
333.14756
333.1446
333.13799
333.12615
333.10913
333.08289
333.14999
333.14999
333.14998
333.14997
333.14993
333.14986
333.1497
333.14938
333.14873
333.14733
333.14411
333.13713
333.12518
333.10837
333.08248
333.14999
333.14999
333.14998
333.14996
333.14992
333.14984
333.14967
333.14932
333.14861
333.14708
333.14358
333.13626
333.12424
333.10765
333.08211
333.14999
333.14999
333.14998
333.14996
333.14991
333.14982
333.14964
333.14926
333.14849
333.14681
333.14302
333.13539
333.12333
333.10697
333.08177
333.14999
333.14999
333.14998
333.14995
333.1499
333.1498
333.1496
333.14919
333.14835
333.14651
333.14244
333.13452
333.12247
333.10633
333.08145
333.14999
333.14998
333.14997
333.14995
333.14989
333.14978
333.14956
333.14911
333.1482
333.1462
333.14182
333.13366
333.12164
333.10573
333.08116
333.14999
333.14998
333.14997
333.14994
333.14988
333.14976
333.14952
333.14903
333.14803
333.14585
333.14118
333.13282
333.12085
333.10515
333.08089
333.14999
333.14998
333.14997
333.14993
333.14987
333.14974
333.14947
333.14894
333.14785
333.14548
333.14052
333.13198
333.1201
333.10461
333.08065
333.14998
333.14998
333.14996
333.14993
333.14985
333.14971
333.14942
333.14885
333.14766
333.14509
333.13985
333.13117
333.11937
333.1041
333.08042
333.14998
333.14998
333.14996
333.14992
333.14984
333.14968
333.14937
333.14875
333.14745
333.14466
333.13916
333.13038
333.11868
333.10361
333.0802
333.14998
333.14997
333.14995
333.14991
333.14982
333.14965
333.14931
333.14863
333.14722
333.14422
333.13846
333.12961
333.11802
333.10314
333.08
333.14998
333.14997
333.14995
333.1499
333.1498
333.14962
333.14925
333.14851
333.14698
333.14374
333.13776
333.12886
333.11739
333.1027
333.07981
333.14997
333.14996
333.14994
333.14989
333.14978
333.14958
333.14918
333.14838
333.14671
333.14325
333.13706
333.12814
333.11678
333.10227
333.07964
333.14997
333.14996
333.14993
333.14988
333.14976
333.14954
333.14911
333.14824
333.14642
333.14273
333.13637
333.12743
333.11619
333.10187
333.07947
333.14997
333.14996
333.14993
333.14986
333.14974
333.1495
333.14903
333.14809
333.14611
333.1422
333.13568
333.12675
333.11564
333.10148
333.07932
333.14996
333.14995
333.14992
333.14985
333.14972
333.14946
333.14895
333.14792
333.14578
333.14165
333.135
333.12609
333.1151
333.10111
333.07918
333.14996
333.14995
333.14991
333.14984
333.14969
333.14941
333.14886
333.14774
333.14543
333.14109
333.13433
333.12546
333.11458
333.10076
333.07904
333.14995
333.14994
333.1499
333.14982
333.14966
333.14936
333.14876
333.14754
333.14506
333.14052
333.13367
333.12484
333.11409
333.10042
333.07891
333.14995
333.14993
333.14989
333.1498
333.14963
333.1493
333.14865
333.14733
333.14467
333.13994
333.13302
333.12425
333.11361
333.1001
333.07879
333.14994
333.14993
333.14988
333.14979
333.1496
333.14924
333.14853
333.1471
333.14426
333.13936
333.13238
333.12367
333.11315
333.09979
333.07868
333.14994
333.14992
333.14987
333.14977
333.14956
333.14918
333.14841
333.14685
333.14383
333.13877
333.13176
333.12311
333.11271
333.09949
333.07857
333.14993
333.14991
333.14986
333.14974
333.14953
333.1491
333.14827
333.14659
333.14338
333.13819
333.13116
333.12257
333.11228
333.0992
333.07847
333.14993
333.1499
333.14984
333.14972
333.14949
333.14903
333.14812
333.1463
333.14292
333.13761
333.13057
333.12205
333.11186
333.09892
333.07838
333.14992
333.14989
333.14983
333.1497
333.14944
333.14894
333.14796
333.146
333.14245
333.13703
333.12999
333.12154
333.11147
333.09866
333.07829
333.14991
333.14988
333.14981
333.14967
333.14939
333.14885
333.14778
333.14568
333.14197
333.13646
333.12942
333.12105
333.11108
333.0984
333.07821
333.1499
333.14987
333.1498
333.14964
333.14934
333.14875
333.14759
333.14535
333.14148
333.13589
333.12887
333.12057
333.11071
333.09815
333.07813
333.14989
333.14986
333.14978
333.14961
333.14928
333.14865
333.14739
333.145
333.14098
333.13534
333.12834
333.12011
333.11035
333.09791
333.07805
333.14988
333.14985
333.14976
333.14958
333.14922
333.14853
333.14717
333.14463
333.14048
333.13479
333.12782
333.11966
333.11
333.09768
333.07798
333.14987
333.14983
333.14974
333.14954
333.14915
333.1484
333.14694
333.14424
333.13998
333.13424
333.12731
333.11922
333.10966
333.09746
333.07792
333.14986
333.14982
333.14971
333.1495
333.14908
333.14827
333.14669
333.14385
333.13947
333.13371
333.12681
333.1188
333.10933
333.09724
333.07785
333.14985
333.1498
333.14969
333.14945
333.149
333.14812
333.14642
333.14344
333.13897
333.13319
333.12632
333.11839
333.10901
333.09703
333.07779
333.14983
333.14978
333.14966
333.14941
333.14892
333.14796
333.14614
333.14302
333.13846
333.13267
333.12585
333.11799
333.1087
333.09683
333.07774
333.14982
333.14976
333.14963
333.14936
333.14882
333.14779
333.14585
333.14259
333.13796
333.13216
333.12539
333.1176
333.1084
333.09663
333.07769
333.1498
333.14974
333.1496
333.1493
333.14872
333.1476
333.14554
333.14216
333.13746
333.13167
333.12494
333.11722
333.10811
333.09644
333.07764
333.14978
333.14972
333.14956
333.14924
333.14861
333.14741
333.14521
333.14172
333.13697
333.13118
333.1245
333.11685
333.10783
333.09626
333.07759
333.14976
333.1497
333.14952
333.14917
333.14849
333.14719
333.14487
333.14128
333.13648
333.1307
333.12407
333.11649
333.10755
333.09608
333.07754
333.14974
333.14967
333.14948
333.1491
333.14836
333.14697
333.14452
333.14083
333.13599
333.13023
333.12365
333.11614
333.10728
333.09591
333.0775
333.14972
333.14964
333.14944
333.14902
333.14822
333.14673
333.14416
333.14038
333.13551
333.12977
333.12324
333.1158
333.10702
333.09574
333.07746
333.14969
333.14961
333.14939
333.14894
333.14807
333.14647
333.14379
333.13992
333.13504
333.12932
333.12284
333.11546
333.10676
333.09557
333.07742
333.14967
333.14957
333.14933
333.14885
333.14791
333.1462
333.14341
333.13947
333.13457
333.12888
333.12245
333.11514
333.10652
333.09541
333.07739
333.14964
333.14954
333.14927
333.14875
333.14774
333.14592
333.14302
333.13902
333.13411
333.12845
333.12207
333.11482
333.10627
333.09526
333.07736
333.1496
333.1495
333.14921
333.14864
333.14755
333.14562
333.14262
333.13857
333.13366
333.12802
333.12169
333.11451
333.10603
333.0951
333.07732
333.14957
333.14945
333.14914
333.14852
333.14735
333.14531
333.14222
333.13812
333.13321
333.12761
333.12133
333.11421
333.1058
333.09496
333.07729
333.14953
333.1494
333.14907
333.14839
333.14714
333.14499
333.14181
333.13768
333.13277
333.1272
333.12097
333.11391
333.10558
333.09481
333.07726
333.14949
333.14935
333.14898
333.14825
333.14691
333.14466
333.1414
333.13723
333.13233
333.1268
333.12062
333.11362
333.10536
333.09467
333.07723
333.14944
333.14929
333.14889
333.14811
333.14667
333.14432
333.14099
333.13679
333.1319
333.1264
333.12028
333.11334
333.10514
333.09454
333.07721
333.14939
333.14923
333.1488
333.14794
333.14642
333.14397
333.14057
333.13636
333.13148
333.12602
333.11994
333.11306
333.10493
333.0944
333.07718
333.14934
333.14916
333.14869
333.14777
333.14615
333.14361
333.14016
333.13593
333.13107
333.12564
333.11961
333.11279
333.10472
333.09427
333.07716
333.14928
333.14908
333.14857
333.14759
333.14587
333.14324
333.13974
333.1355
333.13066
333.12527
333.11929
333.11252
333.10452
333.09414
333.07713
333.14921
333.149
333.14845
333.14739
333.14558
333.14287
333.13932
333.13507
333.13025
333.1249
333.11897
333.11226
333.10432
333.09402
333.07711
333.14914
333.1489
333.14831
333.14718
333.14527
333.14249
333.1389
333.13465
333.12986
333.12454
333.11866
333.11201
333.10413
333.09389
333.07708
333.14906
333.1488
333.14816
333.14695
333.14496
333.14211
333.13849
333.13424
333.12946
333.12419
333.11835
333.11176
333.10394
333.09377
333.07706
333.14897
333.1487
333.148
333.14671
333.14464
333.14172
333.13807
333.13383
333.12908
333.12384
333.11805
333.11151
333.10375
333.09366
333.07704
333.14887
333.14858
333.14783
333.14646
333.1443
333.14133
333.13766
333.13342
333.1287
333.1235
333.11776
333.11127
333.10357
333.09354
333.07702
333.14877
333.14845
333.14765
333.1462
333.14396
333.14094
333.13725
333.13302
333.12833
333.12317
333.11747
333.11103
333.10339
333.09343
333.077
333.14865
333.14831
333.14745
333.14592
333.14361
333.14054
333.13684
333.13263
333.12796
333.12284
333.11719
333.1108
333.10322
333.09331
333.07698
333.14852
333.14815
333.14724
333.14563
333.14325
333.14015
333.13644
333.13223
333.12759
333.12251
333.11691
333.11057
333.10304
333.0932
333.07696
333.14838
333.14798
333.14701
333.14533
333.14289
333.13975
333.13603
333.13185
333.12724
333.1222
333.11664
333.11035
333.10287
333.0931
333.07693
333.14823
333.1478
333.14677
333.14502
333.14252
333.13935
333.13563
333.13146
333.12688
333.12188
333.11637
333.11013
333.1027
333.09299
333.07691
333.14806
333.14761
333.14651
333.14469
333.14214
333.13895
333.13523
333.13108
333.12654
333.12157
333.1161
333.10991
333.10254
333.09288
333.07689
333.14788
333.14739
333.14624
333.14436
333.14176
333.13855
333.13484
333.13071
333.12619
333.12127
333.11584
333.1097
333.10238
333.09278
333.07687
333.14768
333.14717
333.14596
333.14402
333.14138
333.13815
333.13445
333.13034
333.12586
333.12097
333.11559
333.10949
333.10222
333.09268
333.07685
333.14747
333.14692
333.14566
333.14367
333.14099
333.13775
333.13406
333.12997
333.12552
333.12068
333.11533
333.10928
333.10206
333.09258
333.07683
333.14724
333.14666
333.14535
333.1433
333.1406
333.13736
333.13367
333.12961
333.12519
333.12038
333.11508
333.10907
333.1019
333.09247
333.07681
333.14699
333.14638
333.14502
333.14294
333.14021
333.13696
333.13329
333.12925
333.12487
333.1201
333.11484
333.10887
333.10175
333.09238
333.07679
333.14672
333.14609
333.14469
333.14256
333.13981
333.13657
333.13291
333.1289
333.12455
333.11982
333.1146
333.10867
333.1016
333.09228
333.07677
333.14643
333.14578
333.14434
333.14218
333.13942
333.13617
333.13253
333.12855
333.12423
333.11954
333.11436
333.10848
333.10145
333.09218
333.07674
333.14612
333.14545
333.14397
333.14179
333.13902
333.13578
333.13216
333.12821
333.12392
333.11926
333.11412
333.10828
333.1013
333.09208
333.07672
333.14579
333.1451
333.1436
333.1414
333.13862
333.13539
333.13179
333.12787
333.12361
333.11899
333.11389
333.10809
333.10115
333.09199
333.0767
333.14544
333.14474
333.14322
333.141
333.13822
333.135
333.13142
333.12753
333.12331
333.11872
333.11366
333.1079
333.10101
333.09189
333.07667
333.14508
333.14436
333.14282
333.14059
333.13782
333.13461
333.13106
333.12719
333.12301
333.11846
333.11343
333.10772
333.10086
333.0918
333.07665
333.1447
333.14397
333.14242
333.14018
333.13741
333.13423
333.1307
333.12686
333.12271
333.1182
333.11321
333.10753
333.10072
333.09171
333.07663
333.14429
333.14356
333.142
333.13977
333.13701
333.13384
333.13034
333.12653
333.12242
333.11794
333.11299
333.10735
333.10058
333.09161
333.0766
333.14388
333.14315
333.14158
333.13935
333.13661
333.13346
333.12999
333.12621
333.12212
333.11768
333.11277
333.10717
333.10044
333.09152
333.07657
333.14345
333.14271
333.14115
333.13893
333.1362
333.13308
333.12963
333.12589
333.12184
333.11743
333.11255
333.10699
333.1003
333.09143
333.07655
333.143
333.14227
333.14072
333.13851
333.1358
333.1327
333.12928
333.12557
333.12155
333.11718
333.11234
333.10681
333.10016
333.09134
333.07652
333.14255
333.14182
333.14027
333.13808
333.1354
333.13232
333.12893
333.12525
333.12127
333.11693
333.11213
333.10664
333.10003
333.09124
333.07649
333.14208
333.14136
333.13983
333.13765
333.13499
333.13195
333.12859
333.12494
333.12099
333.11668
333.11191
333.10646
333.09989
333.09115
333.07646
333.1416
333.14089
333.13937
333.13722
333.13459
333.13157
333.12824
333.12463
333.12071
333.11644
333.11171
333.10629
333.09975
333.09106
333.07643
333.14112
333.14041
333.13891
333.13679
333.13418
333.1312
333.1279
333.12432
333.12044
333.1162
333.1115
333.10612
333.09962
333.09097
333.0764
333.14062
333.13993
333.13845
333.13636
333.13378
333.13083
333.12756
333.12401
333.12016
333.11596
333.11129
333.10595
333.09949
333.09088
333.07637
333.14012
333.13944
333.13799
333.13592
333.13338
333.13046
333.12723
333.12371
333.11989
333.11572
333.11109
333.10578
333.09935
333.09079
333.07633
333.13962
333.13895
333.13752
333.13548
333.13297
333.13009
333.12689
333.12341
333.11962
333.11549
333.11089
333.10561
333.09922
333.09069
333.0763
333.13911
333.13845
333.13705
333.13505
333.13257
333.12972
333.12656
333.12311
333.11936
333.11525
333.11069
333.10544
333.09909
333.0906
333.07626
333.1386
333.13796
333.13658
333.13461
333.13217
333.12935
333.12622
333.12281
333.11909
333.11502
333.11049
333.10528
333.09896
333.09051
333.07622
333.13809
333.13746
333.13611
333.13417
333.13176
333.12899
333.12589
333.12251
333.11883
333.11479
333.11029
333.10511
333.09883
333.09042
333.07618
333.13758
333.13696
333.13564
333.13373
333.13136
333.12862
333.12556
333.12222
333.11856
333.11456
333.11009
333.10495
333.09869
333.09032
333.07614
333.13707
333.13646
333.13517
333.1333
333.13096
333.12826
333.12524
333.12192
333.1183
333.11433
333.10989
333.10478
333.09856
333.09023
333.0761
333.13656
333.13596
333.13469
333.13286
333.13056
333.12789
333.12491
333.12163
333.11804
333.1141
333.1097
333.10462
333.09843
333.09014
333.07606
333.13605
333.13547
333.13422
333.13242
333.13017
333.12753
333.12458
333.12134
333.11779
333.11388
333.1095
333.10445
333.0983
333.09004
333.07602
333.13554
333.13497
333.13376
333.13199
333.12977
333.12717
333.12426
333.12105
333.11753
333.11365
333.10931
333.10429
333.09817
333.08994
333.07597
333.13504
333.13448
333.13329
333.13156
333.12937
333.12681
333.12394
333.12076
333.11727
333.11343
333.10911
333.10413
333.09804
333.08985
333.07592
333.13453
333.13399
333.13282
333.13113
333.12898
333.12646
333.12361
333.12047
333.11702
333.1132
333.10892
333.10396
333.09791
333.08975
333.07587
333.13403
333.1335
333.13236
333.1307
333.12859
333.1261
333.12329
333.12019
333.11676
333.11298
333.10873
333.1038
333.09777
333.08965
333.07582
333.13354
333.13302
333.1319
333.13027
333.12819
333.12575
333.12298
333.1199
333.11651
333.11276
333.10854
333.10364
333.09764
333.08955
333.07577
333.13304
333.13254
333.13145
333.12984
333.12781
333.12539
333.12266
333.11962
333.11626
333.11254
333.10834
333.10347
333.09751
333.08946
333.07572
333.13256
333.13206
333.13099
333.12942
333.12742
333.12504
333.12234
333.11933
333.11601
333.11232
333.10815
333.10331
333.09738
333.08935
333.07566
333.13207
333.13159
333.13054
333.129
333.12703
333.12469
333.12203
333.11905
333.11576
333.1121
333.10796
333.10315
333.09724
333.08925
333.0756
333.13159
333.13112
333.13009
333.12859
333.12665
333.12435
333.12171
333.11877
333.11551
333.11187
333.10777
333.10298
333.09711
333.08915
333.07554
333.13112
333.13066
333.12965
333.12817
333.12627
333.124
333.1214
333.11849
333.11526
333.11166
333.10758
333.10282
333.09697
333.08905
333.07548
333.13065
333.1302
333.12921
333.12776
333.12589
333.12365
333.12109
333.11821
333.11501
333.11144
333.10739
333.10266
333.09684
333.08894
333.07542
333.13018
333.12974
333.12878
333.12735
333.12552
333.12331
333.12078
333.11793
333.11476
333.11122
333.10719
333.10249
333.0967
333.08883
333.07535
333.12972
333.12929
333.12835
333.12695
333.12514
333.12297
333.12047
333.11766
333.11451
333.111
333.107
333.10233
333.09656
333.08872
333.07528
333.12927
333.12884
333.12792
333.12655
333.12477
333.12263
333.12016
333.11738
333.11427
333.11078
333.10681
333.10216
333.09642
333.08861
333.07521
333.12882
333.1284
333.1275
333.12615
333.1244
333.1223
333.11986
333.11711
333.11402
333.11056
333.10662
333.102
333.09628
333.0885
333.07514
333.12838
333.12797
333.12708
333.12576
333.12404
333.12196
333.11956
333.11683
333.11378
333.11034
333.10643
333.10183
333.09614
333.08839
333.07506
333.12794
333.12754
333.12667
333.12537
333.12368
333.12163
333.11925
333.11656
333.11353
333.11012
333.10623
333.10166
333.096
333.08828
333.07499
333.1275
333.12711
333.12626
333.12498
333.12332
333.1213
333.11895
333.11629
333.11329
333.10991
333.10604
333.1015
333.09586
333.08816
333.07491
333.12707
333.12669
333.12585
333.1246
333.12296
333.12097
333.11865
333.11602
333.11304
333.10969
333.10585
333.10133
333.09571
333.08805
333.07483
333.12665
333.12627
333.12545
333.12422
333.12261
333.12064
333.11835
333.11575
333.1128
333.10947
333.10566
333.10116
333.09557
333.08793
333.07474
333.12623
333.12586
333.12505
333.12384
333.12225
333.12032
333.11806
333.11548
333.11256
333.10925
333.10546
333.10099
333.09542
333.08781
333.07466
333.12582
333.12545
333.12466
333.12347
333.12191
333.12
333.11776
333.11521
333.11232
333.10904
333.10527
333.10082
333.09528
333.08768
333.07457
333.12541
333.12505
333.12427
333.1231
333.12156
333.11968
333.11747
333.11494
333.11207
333.10882
333.10508
333.10065
333.09513
333.08756
333.07448
333.125
333.12465
333.12389
333.12273
333.12122
333.11936
333.11718
333.11468
333.11183
333.1086
333.10488
333.10048
333.09498
333.08744
333.07438
333.1246
333.12426
333.12351
333.12237
333.12088
333.11905
333.11689
333.11441
333.11159
333.10839
333.10469
333.1003
333.09483
333.08731
333.07429
333.12421
333.12387
333.12313
333.12202
333.12054
333.11873
333.1166
333.11415
333.11135
333.10817
333.1045
333.10013
333.09468
333.08718
333.07419
333.12382
333.12349
333.12276
333.12166
333.12021
333.11842
333.11632
333.11389
333.11112
333.10795
333.1043
333.09996
333.09453
333.08705
333.07409
333.12344
333.12311
333.12239
333.12131
333.11988
333.11812
333.11603
333.11362
333.11088
333.10774
333.10411
333.09978
333.09437
333.08692
333.07399
333.12306
333.12274
333.12203
333.12096
333.11955
333.11781
333.11575
333.11336
333.11064
333.10752
333.10391
333.09961
333.09422
333.08679
333.07388
333.12268
333.12237
333.12167
333.12062
333.11923
333.11751
333.11547
333.1131
333.1104
333.10731
333.10371
333.09943
333.09406
333.08665
333.07378
333.12231
333.122
333.12131
333.12028
333.11891
333.11721
333.11519
333.11285
333.11016
333.10709
333.10352
333.09926
333.0939
333.08651
333.07367
333.12195
333.12164
333.12096
333.11994
333.11859
333.11691
333.11491
333.11259
333.10993
333.10687
333.10332
333.09908
333.09374
333.08638
333.07356
333.12158
333.12128
333.12062
333.11961
333.11827
333.11661
333.11463
333.11233
333.10969
333.10666
333.10312
333.0989
333.09358
333.08624
333.07344
333.12123
333.12093
333.12027
333.11928
333.11796
333.11631
333.11436
333.11208
333.10946
333.10644
333.10293
333.09872
333.09342
333.08609
333.07333
333.12087
333.12058
333.11993
333.11895
333.11765
333.11602
333.11408
333.11183
333.10922
333.10623
333.10273
333.09854
333.09326
333.08595
333.07321
333.12052
333.12023
333.11959
333.11863
333.11734
333.11573
333.11381
333.11157
333.10899
333.10601
333.10253
333.09836
333.0931
333.08581
333.07309
333.12018
333.11989
333.11926
333.11831
333.11703
333.11544
333.11354
333.11132
333.10876
333.1058
333.10234
333.09818
333.09293
333.08566
333.07297
333.11984
333.11955
333.11893
333.11799
333.11673
333.11516
333.11327
333.11107
333.10852
333.10558
333.10214
333.098
333.09277
333.08551
333.07284
333.1195
333.11922
333.11861
333.11767
333.11643
333.11487
333.11301
333.11082
333.10829
333.10537
333.10194
333.09782
333.0926
333.08536
333.07272
333.11916
333.11889
333.11828
333.11736
333.11613
333.11459
333.11274
333.11057
333.10806
333.10515
333.10174
333.09763
333.09244
333.08521
333.07259
333.11883
333.11856
333.11796
333.11705
333.11583
333.11431
333.11248
333.11033
333.10783
333.10494
333.10154
333.09745
333.09227
333.08506
333.07246
333.11851
333.11824
333.11765
333.11675
333.11554
333.11403
333.11221
333.11008
333.1076
333.10472
333.10134
333.09726
333.0921
333.08491
333.07233
333.11818
333.11792
333.11734
333.11644
333.11525
333.11375
333.11195
333.10983
333.10737
333.10451
333.10114
333.09708
333.09193
333.08475
333.07219
333.11787
333.1176
333.11703
333.11614
333.11496
333.11348
333.11169
333.10959
333.10714
333.10429
333.10094
333.09689
333.09176
333.0846
333.07206
333.11755
333.11729
333.11672
333.11585
333.11468
333.11321
333.11143
333.10935
333.10691
333.10408
333.10074
333.09671
333.09158
333.08444
333.07192
333.11724
333.11698
333.11641
333.11555
333.11439
333.11294
333.11118
333.1091
333.10668
333.10386
333.10054
333.09652
333.09141
333.08428
333.07178
333.11693
333.11667
333.11611
333.11526
333.11411
333.11267
333.11092
333.10886
333.10646
333.10365
333.10034
333.09633
333.09123
333.08412
333.07164
333.11662
333.11637
333.11582
333.11497
333.11383
333.1124
333.11067
333.10862
333.10623
333.10344
333.10014
333.09614
333.09106
333.08396
333.0715
333.11632
333.11607
333.11552
333.11468
333.11356
333.11213
333.11041
333.10838
333.106
333.10322
333.09994
333.09596
333.09088
333.0838
333.07135
333.11602
333.11577
333.11523
333.1144
333.11328
333.11187
333.11016
333.10814
333.10578
333.10301
333.09974
333.09577
333.09071
333.08363
333.07121
333.11572
333.11547
333.11494
333.11411
333.11301
333.11161
333.10991
333.1079
333.10555
333.1028
333.09954
333.09558
333.09053
333.08347
333.07106
333.11542
333.11518
333.11465
333.11383
333.11274
333.11135
333.10966
333.10767
333.10532
333.10258
333.09933
333.09539
333.09035
333.0833
333.07091
333.11513
333.11489
333.11436
333.11356
333.11247
333.11109
333.10942
333.10743
333.1051
333.10237
333.09913
333.09519
333.09017
333.08313
333.07076
333.11484
333.1146
333.11408
333.11328
333.1122
333.11083
333.10917
333.10719
333.10488
333.10216
333.09893
333.095
333.08999
333.08297
333.07061
333.11455
333.11432
333.1138
333.11301
333.11193
333.11058
333.10892
333.10696
333.10465
333.10194
333.09873
333.09481
333.08981
333.0828
333.07046
333.11427
333.11404
333.11352
333.11274
333.11167
333.11032
333.10868
333.10673
333.10443
333.10173
333.09852
333.09462
333.08963
333.08263
333.0703
333.11399
333.11376
333.11325
333.11247
333.11141
333.11007
333.10844
333.10649
333.10421
333.10152
333.09832
333.09443
333.08944
333.08246
333.07014
333.11371
333.11348
333.11297
333.1122
333.11115
333.10982
333.10819
333.10626
333.10398
333.1013
333.09812
333.09423
333.08926
333.08228
333.06999
333.11343
333.1132
333.1127
333.11193
333.11089
333.10957
333.10795
333.10603
333.10376
333.10109
333.09791
333.09404
333.08908
333.08211
333.06983
333.11316
333.11293
333.11243
333.11167
333.11063
333.10932
333.10771
333.1058
333.10354
333.10088
333.09771
333.09384
333.08889
333.08194
333.06967
333.11288
333.11266
333.11217
333.11141
333.11038
333.10907
333.10747
333.10557
333.10332
333.10067
333.09751
333.09365
333.08871
333.08176
333.06951
333.11261
333.11239
333.1119
333.11115
333.11012
333.10882
333.10723
333.10534
333.1031
333.10045
333.0973
333.09345
333.08852
333.08158
333.06935
333.11235
333.11212
333.11164
333.11089
333.10987
333.10858
333.107
333.10511
333.10288
333.10024
333.0971
333.09326
333.08833
333.08141
333.06918
333.11208
333.11186
333.11138
333.11063
333.10962
333.10833
333.10676
333.10488
333.10266
333.10003
333.0969
333.09306
333.08815
333.08123
333.06902
333.11181
333.1116
333.11112
333.11037
333.10937
333.10809
333.10653
333.10465
333.10244
333.09982
333.09669
333.09287
333.08796
333.08105
333.06885
333.11155
333.11134
333.11086
333.11012
333.10912
333.10785
333.10629
333.10443
333.10222
333.09961
333.09649
333.09267
333.08777
333.08087
333.06869
333.11129
333.11108
333.1106
333.10987
333.10887
333.10761
333.10606
333.1042
333.102
333.09939
333.09628
333.09247
333.08758
333.08069
333.06852
333.11103
333.11082
333.11035
333.10962
333.10863
333.10737
333.10582
333.10397
333.10178
333.09918
333.09608
333.09228
333.08739
333.08051
333.06835
333.11078
333.11056
333.11009
333.10937
333.10839
333.10713
333.10559
333.10375
333.10156
333.09897
333.09587
333.09208
333.0872
333.08033
333.06818
333.11052
333.11031
333.10984
333.10912
333.10814
333.10689
333.10536
333.10352
333.10134
333.09876
333.09567
333.09188
333.08701
333.08015
333.06801
333.11027
333.11006
333.10959
333.10887
333.1079
333.10666
333.10513
333.1033
333.10112
333.09855
333.09547
333.09168
333.08682
333.07997
333.06784
333.11001
333.10981
333.10934
333.10863
333.10766
333.10642
333.1049
333.10307
333.10091
333.09834
333.09526
333.09149
333.08663
333.07978
333.06767
333.10976
333.10956
333.1091
333.10839
333.10742
333.10619
333.10467
333.10285
333.10069
333.09813
333.09506
333.09129
333.08644
333.0796
333.06749
333.10951
333.10931
333.10885
333.10814
333.10718
333.10595
333.10444
333.10263
333.10047
333.09791
333.09485
333.09109
333.08625
333.07942
333.06732
333.10927
333.10906
333.1086
333.1079
333.10694
333.10572
333.10422
333.10241
333.10026
333.0977
333.09465
333.09089
333.08605
333.07923
333.06715
333.10902
333.10882
333.10836
333.10766
333.10671
333.10549
333.10399
333.10218
333.10004
333.09749
333.09444
333.09069
333.08586
333.07905
333.06697
333.10878
333.10857
333.10812
333.10742
333.10647
333.10526
333.10376
333.10196
333.09982
333.09728
333.09424
333.09049
333.08567
333.07886
333.0668
333.10853
333.10833
333.10788
333.10718
333.10624
333.10503
333.10354
333.10174
333.09961
333.09707
333.09403
333.09029
333.08547
333.07867
333.06662
333.10829
333.10809
333.10764
333.10695
333.106
333.1048
333.10331
333.10152
333.09939
333.09686
333.09382
333.09009
333.08528
333.07849
333.06644
333.10805
333.10785
333.1074
333.10671
333.10577
333.10457
333.10309
333.1013
333.09918
333.09665
333.09362
333.08989