/*--------------------------------*- C++ -*----------------------------------*\
| =========                 |                                                 |
| \\      /  F ield         | OpenFOAM: The Open Source CFD Toolbox           |
|  \\    /   O peration     | Version:  2506                                  |
|   \\  /    A nd           | Website:  www.openfoam.com                      |
|    \\/     M anipulation  |                                                 |
\*---------------------------------------------------------------------------*/
FoamFile
{
    version     2.0;
    format      ascii;
    arch        "LSB;label=32;scalar=64";
    class       volVectorField;
    location    "13000/water";
    object      U;
}
// * * * * * * * * * * * * * * * * * * * * * * * * * * * * * * * * * * * * * //

dimensions      [0 1 -1 0 0 0 0];

internalField   nonuniform List<vector> 
6000
(
(0.25028648 -3.4193492e-05 -9.6585377e-19)
(0.25028875 -7.4648811e-05 -4.1694252e-18)
(0.25029344 -0.00011804414 -4.9555513e-19)
(0.25030059 -0.00016540046 -2.1546614e-19)
(0.25031046 -0.00021487336 1.083673e-19)
(0.25032332 -0.00026685039 -1.4200709e-19)
(0.25033948 -0.00032192175 -4.1291493e-19)
(0.25035939 -0.00038078672 7.5724955e-20)
(0.25038356 -0.00044434477 4.3950021e-20)
(0.25041254 -0.00051362452 1.1711108e-19)
(0.25044587 -0.00058677559 6.461631e-20)
(0.25047643 -0.00065822056 1.1690584e-19)
(0.25046276 -0.00078466513 -2.4783851e-19)
(0.25013031 -0.0015987837 6.3577955e-20)
(0.24584996 0.0019968142 -3.6108419e-20)
(0.25104035 -3.7261303e-05 -2.3676583e-19)
(0.25104514 -8.9895978e-05 -2.9800272e-18)
(0.2510558 -0.00014352114 -4.5988988e-19)
(0.25107219 -0.00020025423 3.433804e-19)
(0.2510947 -0.0002571822 1.1394178e-18)
(0.25112368 -0.00031440571 4.5693738e-20)
(0.25115965 -0.00037188242 -4.4002873e-19)
(0.25120324 -0.00042947839 -2.7211064e-20)
(0.2512551 -0.00048709454 8.010222e-20)
(0.25131538 -0.00054561245 1.245526e-19)
(0.25138039 -0.00060405492 4.4150666e-20)
(0.25142587 -0.00063755821 1.3942731e-19)
(0.25133175 -0.00059164843 -2.8686416e-19)
(0.25037931 -0.0014370973 -1.2272007e-20)
(0.24194277 0.00099520264 -1.2077682e-20)
(0.25195051 -3.6589028e-05 -1.8006647e-18)
(0.25195563 -9.0250612e-05 3.1932655e-18)
(0.25196731 -0.00014313025 2.0200154e-18)
(0.25198528 -0.00019912655 -1.9700834e-19)
(0.25200977 -0.00025508716 2.2048647e-19)
(0.25204101 -0.0003112558 -8.7939845e-19)
(0.25207932 -0.00036762123 -1.0695212e-18)
(0.25212505 -0.00042413945 -8.3964382e-19)
(0.25217823 -0.00048056786 -4.8654116e-19)
(0.25223708 -0.0005377572 -2.5602591e-19)
(0.25229114 -0.00060007155 -5.4895271e-19)
(0.25229033 -0.00065419842 -5.3320771e-19)
(0.25200573 -0.00054460881 -3.3056839e-19)
(0.25014357 -0.0012195308 -2.3323701e-19)
(0.23758495 0.00043820543 -1.5223805e-19)
(0.25283353 -3.7446604e-05 2.4472129e-18)
(0.25283867 -9.3611087e-05 1.5229172e-18)
(0.25285018 -0.00014906892 1.9276854e-18)
(0.25286783 -0.00020791578 2.6959876e-20)
(0.25289182 -0.00026672308 -9.3618628e-20)
(0.25292238 -0.00032582165 -7.7286276e-19)
(0.25295982 -0.00038519269 -9.3308703e-19)
(0.25300432 -0.00044485276 -7.4502064e-19)
(0.25305525 -0.00050441426 -4.2317986e-19)
(0.25310809 -0.00056332944 7.161823e-20)
(0.25314261 -0.00062607506 -3.0077621e-19)
(0.25307635 -0.00069910336 -4.5049191e-19)
(0.25255493 -0.0005845712 -2.8545283e-19)
(0.24963188 -0.001063787 -1.3748824e-19)
(0.23320285 0.0001058672 -7.1797682e-20)
(0.25372643 -3.8342943e-05 1.1644492e-17)
(0.2537317 -9.6368691e-05 2.5538431e-18)
(0.25374347 -0.00015372841 7.8289795e-19)
(0.25376156 -0.00021453144 1.1391308e-18)
(0.25378616 -0.00027516439 7.7612496e-19)
(0.25381749 -0.00033599427 7.9470991e-19)
(0.25385581 -0.00039694563 -1.0343131e-20)
(0.25390101 -0.00045805575 -6.8947374e-20)
(0.25395133 -0.00051907431 1.0737776e-19)
(0.25399821 -0.00057855465 1.663846e-19)
(0.25400834 -0.00063773998 2.5608313e-19)
(0.25386022 -0.0007177221 4.5947522e-20)
(0.25305737 -0.00062191547 5.1877226e-20)
(0.24895451 -0.00093835859 9.7747282e-20)
(0.22897365 -8.3792337e-05 8.5861075e-20)
(0.25464474 -3.8661619e-05 -8.2380211e-19)
(0.25465014 -9.7320117e-05 -1.2733545e-18)
(0.2546622 -0.00015516461 -5.8485785e-20)
(0.25468073 -0.00021648308 8.8400073e-19)
(0.2547059 -0.00027758564 -2.2944691e-19)
(0.25473792 -0.000338881 6.5579209e-19)
(0.25477689 -0.0004002568 2.3692746e-19)
(0.25482222 -0.00046172799 -7.4348308e-20)
(0.25487049 -0.00052322807 7.6920399e-20)
(0.2549078 -0.000583188 2.1533426e-19)
(0.25488519 -0.00063896641 1.3706119e-19)
(0.25463685 -0.00071821651 -4.0004777e-20)
(0.25350729 -0.0006469875 -5.4269786e-21)
(0.248129 -0.00083894719 9.4105044e-20)
(0.2249409 -0.00018589273 1.1426786e-20)
(0.25557031 -3.8595293e-05 -6.0653345e-18)
(0.25557581 -9.7309346e-05 -3.8958675e-18)
(0.25558805 -0.00015511982 -1.3040398e-18)
(0.25560682 -0.00021642526 8.7589407e-19)
(0.2556323 -0.00027749359 -9.8671653e-19)
(0.25566463 -0.00033876345 2.4625234e-20)
(0.25570371 -0.00040009734 2.4309129e-19)
(0.25574825 -0.00046144626 -2.0138759e-19)
(0.25579256 -0.00052279714 -3.1965658e-21)
(0.25581623 -0.0005828814 2.8310605e-19)
(0.25575267 -0.00063600478 1.3496763e-19)
(0.25538743 -0.00071016267 1.4682681e-19)
(0.25388915 -0.00066107344 -9.5270617e-20)
(0.24716598 -0.00076077854 7.2337288e-20)
(0.22112141 -0.00023459296 -4.2268438e-20)
(0.25649134 -3.8297106e-05 2.5350933e-18)
(0.25649692 -9.6712128e-05 1.248195e-18)
(0.25650928 -0.00015419069 8.1413018e-19)
(0.25652824 -0.00021515485 6.0928248e-19)
(0.25655393 -0.00027585718 -7.8708605e-19)
(0.25658641 -0.0003367553 7.3028974e-21)
(0.25662528 -0.00039769653 7.5487395e-20)
(0.2566683 -0.0004585644 -3.4645213e-19)
(0.25670691 -0.00051927104 -2.4024478e-20)
(0.25671305 -0.00057893859 -2.6631652e-19)
(0.25660095 -0.00063003278 -1.0094713e-19)
(0.25610359 -0.00069722485 1.6243862e-19)
(0.25419746 -0.00066519719 1.2422229e-21)
(0.24608527 -0.00069788903 6.9297529e-20)
(0.21752738 -0.00025081847 -5.3208842e-20)
(0.25740382 -3.7852859e-05 -2.445184e-18)
(0.25740947 -9.5689493e-05 -2.772688e-18)
(0.25742193 -0.00015257331 9.9978055e-19)
(0.25744104 -0.00021291358 3.6220586e-19)
(0.25746687 -0.0002729729 3.5558577e-19)
(0.25749936 -0.0003332193 3.8283158e-19)
(0.2575377 -0.00039348924 1.8525669e-19)
(0.2575784 -0.00045361301 6.5395048e-20)
(0.25760945 -0.00051335259 -2.0020037e-20)
(0.25759421 -0.00057212213 1.2314964e-19)
(0.25742635 -0.00062159363 -3.8711648e-21)
(0.25678237 -0.00068144217 -3.721125e-20)
(0.25443121 -0.00066103685 1.2404682e-19)
(0.24490935 -0.00064561644 2.8523054e-20)
(0.21416513 -0.00024776584 4.7970095e-21)
(0.25830515 -3.7308637e-05 -6.9267765e-20)
(0.25831084 -9.4372768e-05 -2.7970168e-18)
(0.25832339 -0.00015047648 -1.0148929e-18)
(0.2583426 -0.00020999612 2.348424e-19)
(0.25836849 -0.00026922145 1.8518513e-19)
(0.25840083 -0.00032862339 3.4921554e-19)
(0.25843826 -0.00038802594 2.46796e-19)
(0.25847573 -0.00044722017 2.4936646e-19)
(0.25849727 -0.00050579278 3.4460032e-20)
(0.25845683 -0.00056328987 -1.3782108e-20)
(0.25822634 -0.00061131675 8.8714108e-20)
(0.25742154 -0.00066417742 -1.5391202e-19)
(0.2545896 -0.00065044234 2.5051899e-20)
(0.24365871 -0.00060064453 9.1545579e-20)
(0.21103455 -0.00023378679 2.6696708e-20)
(0.259193 -3.669388e-05 8.6345385e-18)
(0.25919873 -9.2857459e-05 4.9763511e-18)
(0.25921134 -0.00014806165 -2.0097941e-18)
(0.25923061 -0.00020663289 1.3652962e-19)
(0.25925648 -0.0002648995 1.1929171e-18)
(0.25928848 -0.00032332972 5.1543182e-19)
(0.25932457 -0.00038173097 2.915411e-19)
(0.25935785 -0.00043986308 5.9897551e-20)
(0.25936788 -0.00049714489 1.61087e-19)
(0.25929853 -0.00055310431 -2.1043854e-19)
(0.2589988 -0.00059970361 1.2147969e-20)
(0.25801896 -0.00064623361 1.351241e-20)
(0.25467145 -0.00063499349 -5.6667058e-20)
(0.24235144 -0.00056062195 9.7575622e-20)
(0.20813123 -0.0002141088 3.0372756e-20)
(0.26006576 -3.6034054e-05 6.3721873e-18)
(0.26007152 -9.1214284e-05 5.9069732e-18)
(0.26008417 -0.00014544281 -2.1480694e-19)
(0.26010346 -0.00020298347 3.3057106e-19)
(0.26012923 -0.00026021093 6.4929277e-19)
(0.2601607 -0.00031758689 5.7415343e-19)
(0.26019497 -0.00037489796 2.8403348e-19)
(0.26022303 -0.0004318747 1.5494749e-19)
(0.26021952 -0.00048779066 1.9881189e-19)
(0.26011767 -0.00054204301 5.2799148e-20)
(0.25974224 -0.00058714002 9.9506377e-20)
(0.25857279 -0.00062806077 1.0441469e-19)
(0.25467557 -0.00061594005 1.5511674e-20)
(0.24100379 -0.00052390611 -1.1043419e-20)
(0.20544863 -0.00019196316 -2.3870215e-20)
(0.2609225 -3.5349632e-05 2.3034771e-18)
(0.26092828 -8.9497285e-05 4.4864166e-18)
(0.26094096 -0.0001427054 4.3479869e-19)
(0.26096023 -0.00019916671 6.2604765e-19)
(0.2609858 -0.00025530722 7.3428964e-19)
(0.2610165 -0.00031157921 1.3410059e-19)
(0.26104844 -0.00036774517 4.50698e-19)
(0.2610702 -0.00042350433 3.8030608e-19)
(0.26105114 -0.00047801113 9.6239487e-20)
(0.26091327 -0.00053046085 -7.9281871e-22)
(0.2604557 -0.00057393662 2.2267104e-19)
(0.2590814 -0.00060990566 8.8131175e-20)
(0.2546009 -0.00059424331 3.2406319e-20)
(0.23963056 -0.00048937354 2.1539078e-21)
(0.20297926 -0.00016931833 3.5003969e-20)
(0.26176274 -3.4655537e-05 2.3844078e-18)
(0.26176854 -8.7746854e-05 1.9263613e-18)
(0.26178122 -0.00013991377 -9.0567204e-19)
(0.26180042 -0.00019527246 4.5978243e-20)
(0.26182568 -0.00025030305 4.3206384e-19)
(0.26185536 -0.00030544607 1.8934452e-19)
(0.26188442 -0.00036043768 5.1292273e-19)
(0.26189878 -0.00041494196 5.0142752e-19)
(0.26186213 -0.00046801762 -6.9792333e-20)
(0.2616848 -0.00051862213 7.1901164e-20)
(0.26113855 -0.00056034346 1.619118e-19)
(0.25954316 -0.00059189152 1.4775346e-19)
(0.25444651 -0.0005706321 6.0619045e-21)
(0.23824529 -0.00045627776 8.3640827e-20)
(0.20071509 -0.00014735259 1.3054141e-19)
(0.26258633 -3.396306e-05 4.3642552e-18)
(0.26259213 -8.599378e-05 2.5883788e-19)
(0.26260479 -0.00013711719 2.9000864e-18)
(0.26262388 -0.00019136968 6.0569237e-19)
(0.2626487 -0.00024528655 -1.3249725e-18)
(0.26267708 -0.00029929459 2.3466703e-19)
(0.26270267 -0.00035310243 3.5633447e-19)
(0.26270848 -0.00040633486 4.8410084e-19)
(0.26265224 -0.00045797299 1.1720217e-19)
(0.26243199 -0.00050672605 -5.8333944e-20)
(0.26179026 -0.00054656345 -2.9121795e-20)
(0.25995633 -0.0005740675 1.0459506e-19)
(0.25421177 -0.00054566294 8.6226879e-20)
(0.23686047 -0.00042415213 5.5526311e-20)
(0.19864765 -0.00012675759 5.6992131e-20)
(0.26339335 -3.32814e-05 4.5949423e-18)
(0.26339915 -8.426274e-05 4.1859399e-18)
(0.26341177 -0.0001343551 3.6111602e-18)
(0.26343068 -0.0001875135 1.076223e-18)
(0.26345493 -0.00024032822 1.4404814e-18)
(0.26348171 -0.00029321054 5.1935393e-19)
(0.2635032 -0.00034584107 8.6505443e-20)
(0.2634993 -0.00039780175 8.0591608e-20)
(0.26342146 -0.00044800829 2.6023087e-19)
(0.26315483 -0.00049492779 8.3861325e-20)
(0.26241041 -0.00053276478 1.037747e-19)
(0.26031893 -0.00055643964 1.7451061e-20)
(0.2538966 -0.000519773 1.6823469e-19)
(0.23548766 -0.00039274464 3.7018411e-20)
(0.19676807 -0.00010792878 9.917583e-20)
(0.26418413 -3.2618312e-05 1.5445336e-18)
(0.26418991 -8.2574225e-05 4.1038207e-18)
(0.26420246 -0.00013166021 2.276656e-18)
(0.26422112 -0.0001837496 7.4416966e-19)
(0.26424465 -0.00023548648 1.0591251e-18)
(0.2642695 -0.00028726512 4.9192052e-19)
(0.26428624 -0.00033873796 8.6456874e-20)
(0.26427145 -0.00038944152 7.875313e-20)
(0.26416998 -0.0004382328 6.7513648e-20)
(0.26385341 -0.00048335173 6.0628422e-20)
(0.26299854 -0.00051908846 1.0616492e-19)
(0.26062878 -0.00053898815 2.4723862e-20)
(0.25350187 -0.00049331965 1.3828848e-19)
(0.2341376 -0.00036197184 5.612753e-20)
(0.19506692 -9.1079355e-05 7.7723035e-20)
(0.26495914 -3.1980324e-05 2.0783754e-18)
(0.2649649 -8.0945388e-05 4.5635101e-18)
(0.26497734 -0.00012905989 1.2903079e-18)
(0.26499568 -0.00018011622 1.114223e-18)
(0.26501831 -0.00023081031 9.3106524e-19)
(0.26504088 -0.00028151806 6.1041544e-19)
(0.2650522 -0.00033186392 5.167451e-19)
(0.2650253 -0.00038133727 4.0964825e-19)
(0.26489816 -0.00042873842 3.378211e-20)
(0.26452796 -0.00047209827 -6.6002137e-20)
(0.26355413 -0.00050565096 -5.3454813e-20)
(0.2608835 -0.00052167636 9.1377417e-20)
(0.25302971 -0.00046660631 7.7804758e-20)
(0.23282016 -0.00033188327 1.3684218e-20)
(0.19353413 -7.6303786e-05 -1.1304868e-20)
(0.26571903 -3.1372764e-05 2.4904819e-18)
(0.26572475 -7.9390278e-05 3.8605118e-18)
(0.26573705 -0.00012657658 -5.4029992e-19)
(0.26575498 -0.00017664472 8.1906252e-19)
(0.26577653 -0.00022633987 7.4503571e-19)
(0.26579644 -0.0002760185 7.3238886e-19)
(0.26580163 -0.0003252772 6.2240351e-19)
(0.26576141 -0.00037355728 3.2822015e-19)
(0.26560652 -0.00041960061 2.4464197e-19)
(0.26517878 -0.00046124612 2.9357747e-19)
(0.26407657 -0.00049254343 8.6161313e-20)
(0.26108058 -0.00050445572 1.107098e-19)
(0.25248384 -0.00043989699 1.3921017e-19)
(0.23154421 -0.00030262987 7.6405897e-20)
(0.19215888 -6.360973e-05 4.8662986e-20)
(0.26646455 -3.0799672e-05 6.6365693e-18)
(0.26647021 -7.791971e-05 1.0111589e-18)
(0.26648233 -0.00012422759 3.6868157e-18)
(0.26649975 -0.0001733593 2.0352116e-18)
(0.26652002 -0.00022210618 -8.0251251e-19)
(0.26653688 -0.0002708044 9.7288705e-19)
(0.26653522 -0.00031902283 1.1162498e-18)
(0.26648042 -0.00036615421 8.2350577e-19)
(0.26629564 -0.00041087723 7.5536861e-19)
(0.26580617 -0.00045085191 9.2614873e-20)
(0.26456508 -0.00047982866 4.9519107e-19)
(0.26121754 -0.00048726982 4.7963916e-19)
(0.25186982 -0.00041342264 4.4594112e-19)
(0.23031742 -0.00027443217 3.5483812e-19)
(0.1909297 -5.2932833e-05 2.2256914e-19)
(0.26719653 -3.0263686e-05 6.38646e-18)
(0.26720212 -7.6541022e-05 -4.5333576e-19)
(0.26721401 -0.00012202465 2.9571014e-18)
(0.26723083 -0.00017027641 1.8273711e-18)
(0.2672496 -0.00021813033 6.9592369e-19)
(0.26726299 -0.00026590165 1.106586e-18)
(0.26725373 -0.0003131315 1.1052298e-18)
(0.26718309 -0.00035916374 6.9328382e-19)
(0.26696618 -0.00040260692 6.5437811e-19)
(0.26641044 -0.00044094906 4.5629553e-20)
(0.26501868 -0.00046753759 4.5695977e-19)
(0.26129202 -0.00047005901 4.7471414e-19)
(0.25119506 -0.00038738325 4.0595765e-19)
(0.2291461 -0.00024754677 3.1235746e-19)
(0.18983455 -4.4145098e-05 2.1344615e-19)
(0.26791589 -2.9765991e-05 -1.4354881e-18)
(0.26792138 -7.5257931e-05 -9.5646198e-20)
(0.26793299 -0.00011997376 4.8365675e-19)
(0.26794908 -0.00016740448 7.2713209e-19)
(0.26796613 -0.00021442312 1.7612405e-18)
(0.26797562 -0.00026132351 3.1392668e-19)
(0.267958 -0.00030761887 2.4590575e-19)
(0.26787018 -0.00035260381 1.238947e-19)
(0.2676188 -0.00039480804 7.1782956e-20)
(0.2669918 -0.00043154706 -6.42914e-20)
(0.26543617 -0.00045566686 8.160636e-20)
(0.2613021 -0.00045276642 1.3248542e-19)
(0.2504687 -0.00036194908 4.8252795e-20)
(0.22803501 -0.00022223217 7.991596e-20)
(0.18886112 -3.7064086e-05 1.1331784e-19)
(0.26862352 -2.9306383e-05 3.9667689e-18)
(0.2686289 -7.407066e-05 1.7976406e-18)
(0.26864017 -0.00011807532 2.9512587e-18)
(0.26865542 -0.00016474412 2.544452e-18)
(0.26867049 -0.00021098533 2.2295901e-18)
(0.26867563 -0.000257071 1.4625232e-18)
(0.26864885 -0.00030248606 1.1392692e-18)
(0.26854251 -0.00034647515 1.0374851e-18)
(0.26825414 -0.00038747924 6.4083823e-19)
(0.26755035 -0.00042263245 -2.4636134e-19)
(0.2658161 -0.00044417905 3.6740824e-19)
(0.26124652 -0.00043534493 3.7628173e-19)
(0.24970133 -0.00033726333 2.1486652e-19)
(0.22698727 -0.00019871676 4.1542084e-19)
(0.18799711 -3.1466397e-05 3.2205887e-19)
(0.26932033 -2.888346e-05 2.6630604e-18)
(0.26932558 -7.2976355e-05 8.1716613e-19)
(0.26933645 -0.00011632481 1.5397705e-18)
(0.26935072 -0.00016228909 2.7869774e-18)
(0.26936357 -0.0002078089 2.205203e-18)
(0.26936389 -0.00025313433 1.6345832e-18)
(0.26932713 -0.0002977213 1.1479948e-18)
(0.26920083 -0.00034076321 1.0256931e-18)
(0.2688728 -0.00038060158 6.5587535e-19)
(0.26808605 -0.00041417146 3.2521794e-19)
(0.26615679 -0.00043300583 3.293224e-19)
(0.26112496 -0.00041776402 2.8598955e-19)
(0.24890441 -0.00031344658 2.6612521e-19)
(0.22600436 -0.0001771726 4.7358769e-19)
(0.18723056 -2.7105585e-05 3.4089902e-19)
(0.27000719 -2.849491e-05 1.349514e-18)
(0.27001228 -7.1969742e-05 2.9926708e-18)
(0.27002267 -0.00011471384 3.3646474e-18)
(0.27003583 -0.0001600277 2.4938007e-18)
(0.27004618 -0.00020487885 9.2786882e-19)
(0.27004119 -0.00024949515 1.6113617e-18)
(0.2699936 -0.00029330262 1.2312821e-18)
(0.26984584 -0.00033544136 7.8982387e-19)
(0.26947524 -0.00037414208 6.3860998e-19)
(0.2685986 -0.00040611399 2.8345615e-19)
(0.26645635 -0.00042205446 1.8369718e-19)
(0.2609383 -0.00040001524 2.5681026e-19)
(0.24808975 -0.00029060213 3.3050664e-19)
(0.22508629 -0.00015769827 3.5274192e-19)
(0.18655015 -2.3732128e-05 3.4316327e-19)
(0.27068489 -2.8137825e-05 7.284444e-18)
(0.2706898 -7.1043905e-05 4.6054725e-18)
(0.27069965 -0.00011323138 4.8272505e-18)
(0.27071153 -0.00015794462 3.4886045e-18)
(0.2707191 -0.00020217544 1.3556536e-18)
(0.27070829 -0.00024612932 2.337244e-18)
(0.27064898 -0.00028920108 2.2583532e-18)
(0.27047818 -0.00033047455 1.4575525e-18)
(0.27006181 -0.00036805783 1.0290634e-18)
(0.26908753 -0.00039839812 1.4786671e-19)
(0.26671278 -0.00041121648 5.6834412e-19)
(0.26068881 -0.00038211515 6.0428511e-19)
(0.24726882 -0.00026882041 7.5858219e-19)
(0.22423175 -0.00014031231 4.8218143e-19)
(0.18594537 -2.1112146e-05 3.8958235e-19)
(0.27135418 -2.7809011e-05 1.0083357e-18)
(0.27135887 -7.019104e-05 3.5422676e-18)
(0.2713681 -0.00011186497 2.6073806e-18)
(0.27137855 -0.00015602247 2.3031864e-18)
(0.27138304 -0.00019967637 2.3442642e-18)
(0.27136587 -0.00024300948 1.4092558e-18)
(0.27129391 -0.00028538386 1.3334766e-18)
(0.27109836 -0.000325823 9.4973536e-19)
(0.27063272 -0.00036230005 5.8053354e-19)
(0.26955206 -0.00039095432 2.7536399e-19)
(0.26692403 -0.00040037784 4.0455406e-19)
(0.26038022 -0.00036410564 4.9984151e-19)
(0.24645221 -0.00024818088 4.5090503e-19)
(0.22343841 -0.00012495718 1.9200968e-19)
(0.18540672 -1.9041829e-05 1.5050958e-19)
(0.27201571 -2.7505235e-05 7.3669772e-19)
(0.27202015 -6.9403099e-05 1.7861578e-18)
(0.27202867 -0.00011060176 2.9365659e-18)
(0.27203751 -0.00015424331 2.1097685e-18)
(0.2720386 -0.00019735858 1.9645772e-18)
(0.27201452 -0.00024010733 1.4872204e-18)
(0.27192892 -0.00028181693 1.1901335e-18)
(0.2717068 -0.00032144525 1.1946094e-18)
(0.27118802 -0.00035681747 7.2848143e-19)
(0.2699912 -0.00038370884 1.5831881e-19)
(0.26708822 -0.000389429 3.0507258e-19)
(0.26001771 -0.00034605163 4.8378954e-19)
(0.24564917 -0.00022875086 3.8989553e-19)
(0.22270325 -0.00011151161 2.3669212e-19)
(0.18492573 -1.7355842e-05 1.7555691e-19)
(0.27267005 -2.7223403e-05 1.4649459e-18)
(0.27267421 -6.8672268e-05 3.263004e-19)
(0.27268192 -0.00010942927 1.3206864e-18)
(0.27268898 -0.00015258973 2.5991533e-18)
(0.27268634 -0.00019519966 2.3680406e-18)
(0.27265476 -0.00023739527 1.6233882e-18)
(0.27255447 -0.00027846699 1.3569576e-18)
(0.2723038 -0.00031730047 1.0798744e-18)
(0.27172757 -0.00035155883 5.709266e-19)
(0.27040369 -0.00037658611 6.3221556e-19)
(0.26720375 -0.00037827411 2.5465445e-19)
(0.25960771 -0.00032803713 3.3559269e-19)
(0.24486735 -0.00021058184 5.0387403e-19)
(0.22202277 -9.9808137e-05 3.6257914e-19)
(0.18449494 -1.5929483e-05 1.8568269e-19)
(0.27331772 -2.6960666e-05 2.4917515e-18)
(0.27332155 -6.7991273e-05 3.7356004e-18)
(0.27332837 -0.00010833587 3.6372593e-18)
(0.27333345 -0.00015104547 2.7929627e-18)
(0.27332673 -0.00019317869 1.6624561e-18)
(0.27328702 -0.0002348475 1.5966461e-18)
(0.27317093 -0.00027530269 1.0805115e-18)
(0.27288957 -0.00031334989 8.2960463e-19)
(0.27225107 -0.00034647442 5.5595106e-19)
(0.27078808 -0.00036951039 6.0618369e-19)
(0.26726952 -0.00036683813 3.1340647e-19)
(0.25915765 -0.0003101602 4.3614959e-19)
(0.24411266 -0.00019370463 3.6489672e-19)
(0.22139331 -8.9652401e-05 5.1669118e-19)
(0.1841079 -1.4675689e-05 2.2309201e-19)
(0.27395916 -2.6714474e-05 9.6790162e-18)
(0.27396262 -6.7353541e-05 5.0439451e-18)
(0.27396843 -0.00010731104 5.0531747e-18)
(0.27397134 -0.00014959583 3.7089436e-18)
(0.27396016 -0.00019127671 1.5310063e-18)
(0.27391168 -0.00023244055 2.0649673e-18)
(0.2737786 -0.00027229533 1.9296406e-18)
(0.27346419 -0.00030955757 1.626672e-18)
(0.27275806 -0.00034151676 1.1963745e-18)
(0.27114274 -0.00036240704 2.1692861e-19)
(0.26728512 -0.00035507155 6.6990796e-19)
(0.25867552 -0.00029252748 8.2396994e-19)
(0.24338933 -0.00017812521 6.0204223e-19)
(0.22081116 -8.084119e-05 8.5214429e-19)
(0.18375901 -1.3538666e-05 4.5623592e-19)
(0.27459475 -2.6482589e-05 2.0799748e-18)
(0.2745978 -6.6753259e-05 5.942074e-18)
(0.27460249 -0.0001063455 2.8805683e-18)
(0.274603 -0.0001482278 2.4274321e-18)
(0.27458699 -0.00018947691 2.3467649e-18)
(0.27452902 -0.00023015345 1.5978254e-18)
(0.27437767 -0.00026941895 1.5159456e-18)
(0.27402763 -0.00030589064 1.1197811e-18)
(0.27324789 -0.00033664079 7.4041947e-19)
(0.27146593 -0.0003552038 4.787739e-19)
(0.26725094 -0.00034295249 4.4527315e-19)
(0.25816956 -0.00027524859 3.9697865e-19)
(0.24270004 -0.00016382254 4.0126829e-19)
(0.22027275 -7.3177108e-05 3.0675939e-19)
(0.18344349 -1.2486087e-05 2.8029096e-19)
(0.27522481 -2.6263071e-05 2.6595052e-18)
(0.27522741 -6.6185366e-05 4.903541e-18)
(0.27523087 -0.00010543114 2.9738604e-18)
(0.27522875 -0.00014693 2.0936409e-18)
(0.27520748 -0.00018776455 2.2768167e-18)
(0.2751393 -0.00022796774 1.6414169e-18)
(0.27496829 -0.00026665041 1.1284397e-18)
(0.27457978 -0.00030231921 7.7099895e-19)
(0.27371976 -0.0003318036 6.4814633e-19)
(0.27175586 -0.00034783257 4.248665e-19)
(0.26716832 -0.00033048644 3.2898447e-19)
(0.25764777 -0.0002584306 3.2386568e-19)
(0.24204621 -0.0001507494 4.044192e-19)
(0.21977469 -6.6478883e-05 1.5441305e-19)
(0.18315725 -1.150142e-05 2.429454e-19)
(0.27584964 -2.6054261e-05 3.9940056e-18)
(0.27585173 -6.564551e-05 6.8279796e-19)
(0.27585383 -0.00010456098 1.1556659e-18)
(0.27584885 -0.00014569263 1.5743001e-18)
(0.27582189 -0.00018612688 2.1407363e-18)
(0.2757427 -0.00022586725 1.6231925e-18)
(0.27555053 -0.00026396905 1.1299591e-18)
(0.27512041 -0.00029881615 7.8099755e-19)
(0.27417268 -0.00032696405 6.7489046e-19)
(0.27201082 -0.00034023144 6.3649849e-19)
(0.26703956 -0.00031770398 3.0442494e-19)
(0.25711762 -0.00024217267 3.4982595e-19)
(0.24142819 -0.00013883591 4.5226046e-19)
(0.21931381 -6.0587303e-05 2.4870801e-19)
(0.18289682 -1.057747e-05 2.4706342e-19)
(0.27646948 -2.5854749e-05 1.1851068e-18)
(0.27647102 -6.512998e-05 4.294987e-18)
(0.27647162 -0.00010372909 3.4011318e-18)
(0.27646352 -0.0001445073 1.875265e-18)
(0.2764304 -0.00018455289 1.3591515e-18)
(0.27633935 -0.00022383791 1.5941068e-18)
(0.27612438 -0.00026135648 1.0191689e-18)
(0.27564919 -0.00029535665 1.0431871e-18)
(0.27460555 -0.00032208226 6.7306518e-19)
(0.27222923 -0.0003323472 7.3414493e-19)
(0.26686787 -0.00030465719 3.2648099e-19)
(0.25658579 -0.00022656126 4.2952002e-19)
(0.2408456 -0.00012799526 3.7461478e-19)
(0.21888719 -5.5367364e-05 2.1078908e-19)
(0.18265925 -9.7115784e-06 2.6426643e-19)
(0.27708455 -2.5663344e-05 5.4167103e-18)
(0.27708548 -6.463563e-05 4.9113401e-18)
(0.27708444 -0.0001029304 4.460297e-18)
(0.27707295 -0.00014336686 3.6717573e-18)
(0.27703318 -0.00018303314 1.8560737e-18)
(0.27692935 -0.00022186743 1.9022502e-18)
(0.2766898 -0.00025879623 1.6150075e-18)
(0.27616569 -0.00029191777 1.4572656e-18)
(0.27501711 -0.00031711916 1.0573292e-18)
(0.27240981 -0.00032413774 5.0857495e-19)
(0.26665729 -0.00029141517 6.1993961e-19)
(0.256058 -0.00021166603 7.5965503e-19)
(0.24029748 -0.00011813047 6.7032826e-19)
(0.21849214 -5.0707642e-05 5.9146381e-19)
(0.18244204 -8.9025326e-06 4.4453576e-19)
(0.27769504 -2.5479043e-05 1.9139016e-18)
(0.27769529 -6.4159805e-05 3.3684524e-18)
(0.27769247 -0.00010216064 2.4674228e-18)
(0.27767729 -0.00014226521 2.8279399e-18)
(0.27763035 -0.0001815595 2.8233474e-18)
(0.27751275 -0.00021994503 9.6240514e-19)
(0.27724666 -0.00025627339 1.0202638e-18)
(0.27666938 -0.00028847796 6.1750545e-19)
(0.275406 -0.00031203634 6.226071e-19)
(0.27255164 -0.0003155742 5.1862583e-19)
(0.26641246 -0.00027805925 4.4895378e-19)
(0.25553894 -0.00019753711 3.4261921e-19)
(0.23978254 -0.00010914113 4.532614e-19)
(0.21812621 -4.651786e-05 5.2328657e-19)
(0.18224308 -8.1488539e-06 2.9528729e-19)
(0.27830111 -2.5301004e-05 2.7655626e-18)
(0.27830062 -6.3700268e-05 3.9148219e-18)
(0.27829586 -0.0001014162 3.4374423e-18)
(0.2782767 -0.00014119716 3.0536607e-18)
(0.278222 -0.00018012493 2.6681307e-18)
(0.27808956 -0.00021806116 1.6108251e-18)
(0.2777948 -0.00025377436 1.0249321e-18)
(0.27715962 -0.0002850166 6.0846094e-19)
(0.27577079 -0.00030679609 5.6216376e-19)
(0.27265429 -0.00030664248 5.209609e-19)
(0.26613848 -0.00026467813 6.3457576e-19)
(0.2550323 -0.00018420368 4.142912e-19)
(0.23929925 -0.00010092916 4.7724284e-19)
(0.21778713 -4.2725646e-05 4.4161064e-19)
(0.18206056 -7.4481435e-06 3.0776706e-19)
(0.27890291 -2.5128515e-05 1.7822506e-18)
(0.27890162 -6.3255126e-05 1.1999906e-18)
(0.27889474 -0.00010069401 1.7002211e-18)
(0.27887126 -0.00014015826 2.249556e-18)
(0.27880821 -0.00017872332 2.6758423e-18)
(0.27865976 -0.00021620724 1.8048427e-18)
(0.27833397 -0.00025128651 1.3391688e-18)
(0.27763569 -0.00028151345 9.0761661e-19)
(0.27611001 -0.00030136189 5.2762637e-19)
(0.2727179 -0.00029734386 8.659498e-19)
(0.26584062 -0.00025136317 6.0451905e-19)
(0.25454084 -0.0001716744 4.8020747e-19)
(0.23884602 -9.3403161e-05 3.9719537e-19)
(0.21747286 -3.9273088e-05 3.8362081e-19)
(0.18189296 -6.7970326e-06 3.2323082e-19)
(0.27950056 -2.4960971e-05 -1.2291512e-18)
(0.2794984 -6.2822773e-05 2.848075e-18)
(0.27948922 -9.999143e-05 1.5797632e-18)
(0.27946108 -0.00013914466 7.0106731e-19)
(0.279389 -0.00017734922 2.1828196e-18)
(0.27922329 -0.00021437542 7.3720307e-19)
(0.27886389 -0.00024879793 6.3539444e-19)
(0.27809674 -0.00027794828 3.9412351e-19)
(0.27642222 -0.00029569921 2.010066e-19)
(0.27274323 -0.00028769474 6.2594849e-19)
(0.2655241 -0.00023820407 1.8525308e-19)
(0.25406651 -0.00015993913 8.382427e-20)
(0.23842119 -8.6481054e-05 -4.5926326e-20)
(0.21718151 -3.6113613e-05 2.2764388e-20)
(0.18173897 -6.191474e-06 1.8826753e-19)
(0.28009418 -2.4797855e-05 9.6557446e-20)
(0.28009107 -6.2401832e-05 4.3910273e-18)
(0.28007941 -9.9306211e-05 3.5146868e-18)
(0.28004623 -0.00013815299 1.6379545e-18)
(0.27996442 -0.00017599776 2.1192578e-18)
(0.27978006 -0.00021255837 8.2566993e-19)
(0.2793842 -0.00024629715 5.4261442e-19)
(0.27854186 -0.00027430051 3.7052183e-19)
(0.27670605 -0.00028977676 3.4061204e-19)
(0.27273166 -0.0002777256 5.8346091e-19)
(0.26519392 -0.00022528491 2.5940447e-19)
(0.25361059 -0.00014897206 2.0492762e-19)
(0.23802316 -8.0091233e-05 4.1272308e-20)
(0.21691137 -3.320934e-05 -6.4048052e-20)
(0.18159747 -5.627098e-06 1.5723562e-19)
(0.28068388 -2.463872e-05 3.3974363e-18)
(0.28067974 -6.1991112e-05 5.1387513e-18)
(0.28066539 -9.8636367e-05 3.5677681e-18)
(0.28062676 -0.00013718022 2.1456268e-18)
(0.28053445 -0.00017466447 1.9841948e-18)
(0.28032993 -0.00021074911 1.1352811e-18)
(0.27989449 -0.00024377294 7.2002012e-19)
(0.27897002 -0.0002705489 5.1305993e-19)
(0.27696025 -0.00028356785 5.2090688e-19)
(0.27268518 -0.00026747915 4.9585358e-19)
(0.26485469 -0.00021268092 1.552919e-19)
(0.25317379 -0.00013873548 1.6119129e-19)
(0.23765034 -7.4172517e-05 2.3142638e-19)
(0.2166609 -3.0529031e-05 1.6475376e-20)
(0.18146749 -5.099566e-06 9.7498485e-20)
(0.28126974 -2.4483172e-05 3.5815873e-18)
(0.28126449 -6.1589565e-05 6.84013e-18)
(0.28124722 -9.7980135e-05 3.8034218e-18)
(0.28120271 -0.00013622363 1.1853613e-18)
(0.28109907 -0.00017334514 5.8531415e-19)
(0.28087275 -0.00020894082 3.5442283e-19)
(0.28039427 -0.00024121406 7.2969027e-20)
(0.27938014 -0.00026667151 -9.650313e-20)
(0.27718382 -0.00027705191 9.3289168e-20)
(0.27260633 -0.00025700812 -8.241203e-20)
(0.26451052 -0.00020045587 -3.3751139e-19)
(0.25275643 -0.00012918378 -3.1593661e-19)
(0.23730122 -6.8673277e-05 -2.7999679e-19)
(0.21642866 -2.8046559e-05 -2.4723379e-19)
(0.18134818 -4.6048109e-06 -1.3191011e-19)
(0.28185185 -2.4330855e-05 3.9850984e-18)
(0.28184539 -6.1196249e-05 6.0184605e-18)
(0.28182498 -9.7335906e-05 4.0591176e-18)
(0.28177412 -0.00013528067 1.4429074e-18)
(0.28165823 -0.00017203573 1.0017471e-18)
(0.2814083 -0.00020712676 4.4657222e-19)
(0.28088299 -0.00023860899 1.7038792e-19)
(0.27977106 -0.0002626457 -2.6981446e-20)
(0.27737601 -0.00027021574 -3.2163656e-21)
(0.27249806 -0.00024637257 8.5482139e-20)
(0.26416497 -0.00018866041 -1.6388099e-19)
(0.2523585 -0.00012026722 -2.2047156e-19)
(0.23697438 -6.3550128e-05 -3.2025451e-19)
(0.21621337 -2.5739817e-05 -2.2208293e-19)
(0.18123881 -4.1392038e-06 -1.3594588e-19)
(0.28243029 -2.4181448e-05 6.5914898e-18)
(0.28242252 -6.0810306e-05 5.1248954e-18)
(0.28239871 -9.6702196e-05 4.0625795e-18)
(0.28234099 -0.00013434892 2.3508421e-18)
(0.28221186 -0.00017073227 1.8047663e-18)
(0.28193636 -0.00020530013 1.219948e-18)
(0.28136003 -0.00023594579 7.3111684e-19)
(0.2801416 -0.00025844846 6.937482e-19)
(0.27753642 -0.00026305461 3.3000649e-19)
(0.27236366 -0.00023563726 2.2494509e-19)
(0.26382105 -0.00017733136 2.8026665e-19)
(0.25197976 -0.0001119352 1.9677256e-19)
(0.23666845 -5.8766493e-05 1.820612e-19)
(0.21601387 -2.3589921e-05 8.210983e-20)
(0.1811387 -3.6995979e-06 9.2865706e-20)
(0.28300512 -2.4034647e-05 3.9228511e-18)
(0.28299594 -6.0430936e-05 1.9291933e-18)
(0.28296846 -9.6077594e-05 3.1989262e-18)
(0.28290332 -0.00013342601 2.2832489e-18)
(0.28275987 -0.00016943077 1.6355163e-18)
(0.28245663 -0.00020345397 1.0834349e-18)
(0.28182471 -0.00023321186 4.9547572e-19)
(0.28049057 -0.0002540569 6.505192e-19)
(0.27766504 -0.00025557285 4.2321832e-19)
(0.27220658 -0.0002248688 4.4332145e-19)
(0.26348123 -0.00016649191 1.9591065e-19)
(0.25161982 -0.00010413863 1.5114404e-19)
(0.23638216 -5.4291235e-05 4.3723884e-20)
(0.21582908 -2.1580663e-05 2.4344556e-19)
(0.18104728 -3.2833439e-06 1.2962594e-19)
(0.2835764 -2.3890166e-05 1.9567687e-18)
(0.28356569 -6.0057378e-05 2.5170354e-18)
(0.28353424 -9.5460737e-05 2.3729357e-18)
(0.2834611 -0.00013250962 2.6797016e-18)
(0.28330215 -0.00016812719 1.8634031e-18)
(0.28296879 -0.00020158114 1.4848193e-18)