/*--------------------------------*- C++ -*----------------------------------*\
| =========                 |                                                 |
| \\      /  F ield         | OpenFOAM: The Open Source CFD Toolbox           |
|  \\    /   O peration     | Version:  2506                                  |
|   \\  /    A nd           | Website:  www.openfoam.com                      |
|    \\/     M anipulation  |                                                 |
\*---------------------------------------------------------------------------*/
FoamFile
{
    version     2.0;
    format      ascii;
    arch        "LSB;label=32;scalar=64";
    class       volScalarField;
    location    "30000/water";
    object      alphat;
}
// * * * * * * * * * * * * * * * * * * * * * * * * * * * * * * * * * * * * * //

dimensions      [1 -1 -1 0 0 0 0];

internalField   nonuniform List<scalar> 
6000
(
0.041292847
0.041292824
0.041292831
0.041292856
0.041292889
0.041292932
0.041292983
0.041293016
0.041292808
0.041290571
0.041271537
0.041111294
0.0397723
0.030564074
0.013464793
0.040788543
0.040788537
0.040788576
0.040788654
0.040788758
0.040788888
0.04078902
0.040788972
0.040787494
0.040776037
0.040696382
0.040161217
0.036863805
0.023766469
0.015141611
0.04033569
0.040335696
0.040335761
0.040335884
0.040336044
0.040336229
0.04033633
0.040335685
0.040330323
0.040296649
0.040097616
0.038983223
0.033614213
0.0194951
0.016360294
0.039926215
0.039926219
0.039926301
0.039926459
0.03992666
0.039926848
0.039926701
0.039924457
0.039910659
0.039835636
0.039448738
0.037597438
0.030384627
0.016783058
0.017196555
0.039553796
0.039553808
0.039553906
0.039554093
0.039554312
0.039554413
0.039553622
0.0395481
0.039519187
0.039379112
0.038737841
0.036066498
0.027427863
0.015063192
0.01773179
0.039213273
0.039213296
0.039213408
0.039213613
0.039213809
0.039213657
0.039211571
0.039200298
0.039147643
0.038916647
0.037965398
0.034462847
0.024852826
0.013984463
0.018040007
0.038900366
0.038900399
0.038900521
0.038900723
0.038900826
0.038900159
0.038895819
0.03887551
0.038788999
0.038441492
0.037140256
0.032849727
0.022675913
0.013336844
0.018183117
0.038611532
0.038611573
0.038611697
0.038611866
0.038611765
0.038610199
0.038602307
0.038568928
0.038437606
0.037950377
0.036275872
0.031274836
0.020870828
0.012994967
0.018210197
0.038343817
0.038343862
0.038343975
0.038344065
0.038343601
0.038340605
0.038327517
0.03827644
0.038089201
0.037442856
0.03538704
0.029770034
0.019396999
0.012882914
0.018158676
0.038094736
0.03809478
0.038094862
0.038094803
0.038093753
0.038088644
0.038068396
0.037994592
0.037740813
0.036920504
0.03448763
0.028354169
0.018213448
0.012953916
0.018056304
0.037862183
0.037862216
0.037862238
0.037861935
0.037860009
0.037851941
0.037822294
0.037720559
0.037390607
0.036386134
0.033589398
0.02703684
0.017284481
0.013178532
0.017923231
0.03764436
0.037644371
0.037644291
0.037643618
0.037640447
0.037628426
0.037586933
0.037452106
0.037037684
0.035843147
0.032701562
0.025821837
0.016581272
0.013537499
0.017773886
0.037439726
0.037439699
0.03743946
0.037438254
0.037433393
0.037416287
0.037360374
0.037187532
0.036681868
0.035295042
0.031830871
0.02470985
0.016081614
0.014017191
0.017618497
0.037246949
0.037246861
0.037246392
0.037244452
0.037237378
0.037213943
0.037140989
0.036925609
0.0363235
0.034745073
0.030981931
0.023700436
0.015768976
0.014606606
0.017464261
0.037064871
0.037064693
0.037063903
0.037060987
0.037051109
0.037020016
0.036927437
0.036665512
0.035963258
0.03419604
0.030157673
0.022793377
0.015631332
0.015295285
0.017316197
0.03689248
0.036892177
0.036890955
0.036886782
0.036873442
0.036833316
0.036718634
0.03640675
0.035602004
0.033650187
0.029359858
0.021989538
0.015659917
0.016071914
0.01717775
0.036728885
0.036728414
0.036726628
0.036720878
0.03670337
0.036652818
0.036513731
0.036149096
0.035240656
0.033109157
0.028589603
0.021291346
0.015847992
0.016923492
0.017051196
0.036573301
0.03657261
0.036570106
0.036562424
0.036540005
0.036477653
0.03631208
0.035892529
0.034880099
0.032574024
0.027847913
0.02070292
0.016189617
0.01783505
0.016937916
0.036425028
0.036424056
0.036420663
0.036410663
0.036382564
0.036307092
0.036113215
0.03563717
0.034521109
0.032045349
0.027136212
0.020229918
0.016678486
0.018789895
0.016838558
0.036283441
0.03628212
0.036277645
0.036264917
0.036230367
0.036140535
0.03591682
0.035383242
0.034164308
0.031523285
0.026456862
0.019879123
0.017306891
0.019770317
0.016753165
0.036147982
0.036146234
0.036140468
0.036124584
0.036082821
0.035977497
0.035722708
0.035131018
0.033810124
0.031007717
0.025813646
0.019657797
0.018064912
0.0207586
0.016681265
0.036018143
0.036015885
0.036008605
0.035989127
0.035939416
0.035817597
0.035530799
0.034880794
0.033458783
0.030498445
0.025212142
0.019572905
0.018939949
0.021738147
0.016621966
0.03589347
0.03589061
0.035881581
0.035858069
0.035799718
0.035660549
0.035341095
0.034632853
0.033110301
0.029995409
0.024659951
0.019630248
0.019916664
0.02269449
0.016574063
0.035773545
0.035769987
0.035758968
0.035730991
0.035663366
0.035506152
0.035153669
0.034387441
0.032764498
0.029498968
0.024166686
0.019833637
0.020977366
0.023616003
0.016536152
0.035657992
0.035653635
0.035640383
0.035607524
0.035530063
0.035354279
0.034968643
0.03414475
0.03242103
0.029010211
0.023743688
0.020184173
0.022102784
0.024494228
0.016506745
0.035546464
0.035541207
0.035525479
0.035487349
0.035399574
0.035204869
0.034786172
0.033904896
0.032079439
0.028531301
0.023403466
0.020679734
0.023273104
0.025323802
0.016484372
0.035438647
0.035432386
0.035413948
0.035370193
0.035271718
0.035057919
0.034606436
0.03366791
0.03173923
0.028065807
0.023158914
0.021314706
0.0244691
0.026102089
0.016467662
0.035334251
0.035326887
0.035305516
0.035255823
0.03514637
0.034913479
0.03442962
0.033433727
0.031399978
0.02761899
0.023022388
0.022080016
0.02567317
0.026828633
0.016455398
0.035233012
0.035224448
0.035199939
0.03514405
0.035023453
0.034771643
0.034255909
0.033202186
0.031061475
0.027197981
0.023004769
0.022963452
0.026870127
0.027504567
0.016446544
0.035134691
0.035124836
0.035097009
0.035034724
0.034902936
0.03463254
0.03408547
0.032973033
0.030723902
0.0268118
0.023114633
0.023950249
0.02804767
0.028132079
0.016440248
0.035039067
0.03502784
0.034996542
0.034927732
0.034784832
0.034496333
0.033918446
0.032745938
0.030388046
0.026471167
0.023357596
0.025023883
0.02919649
0.028713983
0.016435834
0.034945943
0.034933275
0.034898386
0.034822996
0.034669194
0.034363211
0.033754944
0.032520522
0.030055535
0.026188099
0.023735915
0.026166982
0.030310099
0.029253407
0.016432778
0.034855141
0.034840974
0.034802418
0.034720475
0.034556112
0.034233382
0.033595029
0.032296401
0.029729078
0.025975302
0.024248333
0.02736225
0.031384439
0.029753594
0.016430685
0.034766502
0.034750797
0.03470854
0.034620164
0.034445715
0.034107066
0.033438713
0.032073259
0.029412693
0.025845434
0.024890189
0.028593297
0.032417398
0.030217765
0.016429265
0.034679887
0.034662624
0.034616684
0.034522088
0.034338162
0.033984492
0.033285952
0.031850929
0.029111866
0.025810313
0.02565373
0.029845305
0.033408314
0.030649046
0.016428312
0.034595176
0.034576356
0.034526808
0.034426308
0.034233647
0.033865888
0.033136649
0.03162952
0.028833633
0.025880169
0.026528618
0.031105457
0.034357529
0.031050409
0.016427682
0.034512269
0.034491917
0.034438897
0.034332917
0.034132389
0.033751478
0.032990657
0.031409555
0.028586514
0.026063009
0.027502553
0.032363143
0.035266041
0.031424647
0.01642728
0.034431083
0.034409252
0.034352965
0.034242042
0.034034637
0.033641469
0.032847794
0.031192142
0.028380314
0.026364174
0.028561977
0.033609947
0.036135248
0.031774346
0.016427047
0.034351558
0.034328331
0.034269052
0.034153841
0.033940664
0.03353605
0.032707869
0.03097915
0.028225758
0.026786089
0.029692786
0.034839472
0.036966769
0.032101874
0.01642695
0.034273652
0.034249145
0.03418723
0.034068505
0.03385076
0.033435383
0.03257072
0.030773393
0.028133997
0.027328219
0.030880991
0.036047066
0.037762343
0.032409381
0.016426974
0.034197344
0.03417171
0.034107598
0.033986257
0.033765237
0.033339598
0.032436275
0.030578781
0.028116031
0.027987223
0.032113282
0.037229501
0.038523754
0.032698798
0.016427117
0.034122637
0.034096064
0.034030285
0.033907355
0.033684417
0.033248788
0.032304627
0.030400435
0.028182106
0.028757248
0.033377458
0.038384661
0.039252793
0.032971854
0.016427382
0.034049553
0.034022276
0.033955452
0.033832084
0.033608631
0.033163012
0.03217613
0.030244714
0.028341139
0.029630357
0.034662705
0.039511264
0.039951227
0.033230086
0.016427779
0.03397814
0.033950437
0.033883292
0.033760766
0.033538214
0.0330823
0.032051523
0.030119154
0.028600247
0.03059702
0.035959725
0.040608639
0.040620776
0.033474856
0.016428318
0.033908471
0.033880668
0.033814033
0.033693749
0.033473498
0.033006661
0.031932061
0.03003229
0.028964395
0.03164665
0.037260742
0.041676557
0.041263099
0.033707372
0.01642901
0.033840644
0.033813121
0.033747936
0.033631414
0.033414804
0.032936115
0.031819661
0.029993369
0.02943621
0.032768128
0.038559403
0.042715106
0.041879778
0.033928705
0.016429865
0.033774787
0.03374798
0.033685299
0.033574167
0.033362441
0.032870717
0.031717045
0.030011962
0.030015933
0.033950282
0.039850627
0.04372461
0.042472313
0.034139801
0.016430892
0.033711057
0.03368546
0.033626458
0.033522441
0.033316699
0.032810615
0.031627854
0.03009752
0.030701523
0.0351823
0.041130414
0.044705562
0.043042113
0.034341502
0.016432097
0.033649643
0.033625814
0.033571787
0.033476689
0.033277845
0.032756113
0.031556735
0.030258905
0.031488878
0.036454043
0.042395662
0.045658585
0.043590497
0.034534552
0.016433487
0.03359077
0.033569333
0.033521698
0.033437387
0.033246121
0.032707757
0.031509358
0.03050394
0.032372145
0.037756266
0.043643994
0.046584394
0.044118698
0.034719617
0.016435064
0.033534699
0.033516348
0.033476647
0.033405019
0.033221753
0.032666434
0.03149236
0.030839029
0.033344088
0.039080734
0.044873611
0.047483769
0.044627863
0.034897289
0.016436831
0.033481731
0.033467235
0.033437127
0.033380083
0.033204962
0.032633492
0.031513199
0.031268868
0.034396493
0.040420264
0.046083175
0.048357532
0.045119059
0.035068096
0.016438788
0.033432211
0.033422413
0.033403675
0.033363077
0.033195978
0.032610857
0.031579926
0.031796268
0.035520557
0.04176869
0.047271717
0.04920653
0.045593277
0.035232514
0.016440933
0.033386531
0.033382352
0.033376864
0.033354498
0.033195079
0.032601152
0.031700875
0.032422095
0.036707259
0.043120789
0.048438563
0.050031614
0.046051438
0.035390969
0.016443266
0.033345134
0.033347573
0.03335731
0.033354836
0.033202629
0.032607795
0.031884312
0.033145323
0.037947679
0.044472183
0.049583283
0.050833633
0.046494398
0.035543845
0.016445782
0.033308518
0.033318652
0.033345661
0.033364572
0.033219144
0.032635065
0.032138047
0.033963184
0.039233256
0.045819225
0.050705641
0.051613422
0.046922952
0.03569149
0.016448478
0.033277237
0.03329622
0.033342602
0.033384175
0.033245365
0.032688114
0.032469077
0.034871389
0.040555973
0.047158896
0.051805562
0.052371797
0.047337841
0.035834219
0.016451351
0.033251914
0.033280969
0.033348845
0.033414107
0.033282347
0.032772922
0.032883254
0.035864407
0.041908478
0.048488705
0.052883103
0.053109549
0.04773975
0.03597232
0.016454394
0.033233235
0.033273652
0.033365129
0.033454837
0.033331566
0.032896171
0.033385042
0.036935768
0.043284148
0.04980661
0.053938423
0.053827445
0.04812932
0.036106054
0.016457603
0.033221962
0.033275082
0.033392211
0.033506853
0.03339502
0.033065057
0.033977344
0.038078374
0.044677094
0.051110941
0.054971761
0.054526222
0.048507146
0.036235659
0.016460974
0.033218934
0.033286139
0.033430864
0.033570698
0.033475336
0.033287029
0.034661432
0.039284789
0.046082139
0.052400348
0.055983423
0.05520659
0.048873785
0.036361357
0.016464499
0.033225073
0.033307763
0.033481871
0.03364701
0.03357585
0.033569492
0.035436963
0.040547503
0.047494771
0.053673752
0.05697376
0.05586923
0.049229758
0.036483356
0.016468174
0.033241386
0.033340956
0.033546022
0.03373658
0.033700665
0.033919487
0.036302079
0.041859149
0.048911078
0.054930299
0.057943156
0.056514772
0.049575446
0.036601084
0.01647199
0.033268972
0.03338678
0.033624113
0.033840423
0.033854657
0.034343373
0.03725357
0.043212669
0.050327682
0.056169331
0.058892014
0.057143811
0.049911245
0.036714881
0.016475942
0.033309024
0.033446356
0.033716954
0.033959863
0.034043427
0.034846549
0.038287089
0.044601437
0.051741677
0.057390348
0.059820752
0.057756916
0.050237559
0.036825047
0.016480019
0.03336283
0.033520853
0.033825377
0.034096631
0.034273189
0.03543323
0.039397388
0.046019327
0.053150569
0.058592987
0.060729798
0.05835464
0.0505548
0.036931853
0.016484214
0.033431775
0.033611491
0.033950258
0.034252957
0.034550599
0.036106286
0.040578572
0.047460751
0.054552223
0.059777001
0.061619581
0.058937459
0.050862927
0.037035583
0.016488518
0.033517344
0.033719533
0.03409255
0.034431668
0.034882523
0.036867165
0.041824337
0.048920662
0.055944817
0.060942236
0.062490523
0.059505816
0.051162155
0.037136398
0.016492923
0.033621114
0.033846282
0.034253324
0.034636253
0.035275774
0.037715896
0.043128192
0.050394539
0.057326803
0.062088614
0.063343042
0.060060168
0.051452985
0.037234386
0.016497425
0.033744757
0.033993079
0.034433836
0.03487091
0.03573682
0.038651149
0.044483652
0.051878349
0.058696868
0.063216123
0.064177558
0.060600978
0.051735854
0.037329655
0.016502019
0.033890034
0.034161308
0.034635592
0.035140536
0.036271511
0.039670371
0.045884381
0.053368517
0.060053908
0.064324802
0.064994478
0.061128577
0.052011166
0.037422332
0.0165067
0.034058786
0.034352404
0.03486044
0.035450674
0.036884823
0.040769949
0.047324318
0.054861879
0.061396998
0.065414733
0.065794148
0.061642951
0.052279308
0.037512564
0.016511467
0.034252936
0.034567871
0.035110663
0.035807393
0.037580651
0.041945417
0.048797745
0.056355647
0.062725363
0.066486023
0.066576934
0.062144671
0.052540486
0.037600454
0.016516317
0.034474479
0.034809312
0.035389063
0.036217114
0.038361675
0.04319166
0.050299344
0.057847361
0.064038362
0.067538809
0.067343217
0.062634247
0.052794919
0.037686089
0.016521247
0.034725486
0.035078471
0.035699047
0.036686388
0.039229275
0.04450312
0.051824209
0.059334863
0.065335466
0.068573254
0.068093398
0.063112139
0.053042838
0.037769547
0.016526253
0.035008107
0.035377296
0.036044678
0.037221641
0.040183533
0.045873993
0.053367853
0.06081626
0.066616248
0.069589504
0.068827372
0.063578809
0.053284492
0.037850924
0.016531331
0.035324584
0.035708003
0.036430689
0.037828904
0.041223283
0.047298391
0.054926198
0.062289892
0.067880352
0.07058771
0.06954562
0.064034566
0.053520089
0.037930307
0.016536479
0.03567728
0.036073167
0.036862453
0.038513554
0.042346227
0.048770484
0.056495548
0.063754305
0.069127489
0.071568062
0.070248614
0.064479709
0.053749816
0.038007771
0.016541693
0.036068713
0.036475811
0.037345891
0.039280087
0.04354908
0.050284605
0.058072567
0.065208223
0.070357432
0.072530784
0.070936787
0.064914535
0.05397385
0.03808338
0.016546969
0.036501618
0.036919491
0.037887323
0.040131934
0.044827745
0.051835331
0.059654254
0.066650544
0.071569997
0.073475726
0.071610522
0.06533934
0.054192383
0.038157197
0.016552305
0.03697901
0.037408368
0.038493266
0.041071344
0.0461775
0.053417535
0.06123791
0.068080288
0.07276501
0.074403185
0.072270169
0.065754388
0.05440559
0.038229281
0.016557696
0.037504268
0.037947249
0.039170194
0.042099317
0.04759318
0.055026415
0.062821108
0.069496589
0.073942359
0.075313489
0.072916044
0.066159926
0.05461363
0.038299687
0.01656314
0.038081219
0.038541583
0.039924272
0.04321562
0.049069345
0.056657504
0.064401668
0.070898694
0.075101903
0.076206918
0.073548445
0.066556197
0.05481665
0.038368466
0.016568632
0.038714211
0.039197401
0.040761092
0.044418843
0.050600434
0.058306677
0.065977642
0.072285935
0.07624343
0.077083719
0.074167648
0.066943442
0.055014791
0.038435662
0.01657417
0.039408162
0.039921193
0.041685432
0.045706515
0.052180888
0.059970131
0.067547263
0.07365769
0.077366965
0.077944197
0.074773916
0.067321884
0.055208187
0.038501317
0.016579751
0.040168566
0.040719716
0.042701048
0.047075244
0.053805247
0.061644369
0.069108931
0.075013427
0.078472594
0.078788606
0.0753675
0.06769173
0.05539696
0.038565471
0.01658537
0.041001445
0.041599754
0.04381053
0.048520884
0.055468231
0.063326202
0.070661242
0.076352545
0.079560247
0.079617151
0.075948653
0.068053177
0.055581225
0.038628159
0.016591025
0.041913214
0.04256783
0.045015215
0.050038707
0.057164786
0.065012694
0.072202852
0.077674581
0.080630117
0.080430034
0.07651761
0.068406411
0.05576109
0.038689412
0.016596712
0.042910484
0.043629899
0.04631516
0.051623564
0.05889011
0.066701137
0.073732544
0.078979224
0.081682336
0.081227456
0.077074587
0.068751606
0.055936654
0.038749261
0.016602429
0.043999782
0.044791052
0.047709185
0.053270047
0.060639693
0.068389097
0.075249178
0.080266003
0.082716953
0.082009615
0.077619792
0.069088923
0.056108009
0.038807732
0.016608171
0.045187216
0.046055238
0.049194953
0.054972612
0.062409286
0.070074256
0.076751655
0.081534823
0.083734029
0.082776692
0.078153417
0.069418513
0.05627524
0.038864848
0.016613937
0.046478101
0.047425044
0.050769093
0.05672569
0.0641949
0.071754472
0.078239034
0.082785557
0.084733632
0.083528855
0.078675641
0.069740515
0.056438425
0.038920631
0.016619722
0.047876598
0.048901536
0.052427348
0.058523786
0.065992853
0.073427774
0.079710294
0.084017985
0.085715824
0.084266259
0.079186629
0.070055058
0.056597634
0.0389751
0.016625525
0.049385368
0.050484167
0.054164718
0.060361499
0.0677996
0.075092207
0.081164947
0.085231923
0.086680656
0.084989046
0.079686534
0.070362257
0.056752933
0.039028271
0.01663134
0.051005309
0.052170766
0.055975631
0.062233631
0.069611882
0.076745818
0.08260237
0.086427196
0.08762817
0.085697341
0.08017549
0.070662219
0.056904377
0.039080159
0.016637167
0.052735374
0.053957585
0.057854045
0.064135089
0.071426474
0.078387219
0.084021953
0.08760363
0.088558392
0.086391254
0.08065362
0.070955038
0.057052019
0.039130773
0.016643001
0.054572511
0.055839421
0.059793614
0.066060989
0.073240146
0.080015115
0.08542312
0.088761043
0.089471335
0.087070877
0.081121031
0.071240799
0.057195902
0.039180125
0.016648839
0.056511699
0.057809749
0.061787686
0.068006413
0.075050327
0.08162825
0.086805315
0.089899247
0.090366995
0.087736285
0.081577815
0.071519575
0.057336066
0.03922822
0.016654679
0.058546106
0.059860914
0.063829394
0.069966568
0.076854645
0.083225424
0.088167992
0.091018045
0.091245349
0.088387535
0.082024048
0.071791426
0.057472542
0.039275063
0.016660517
0.060667269
0.061984206
0.065911598
0.071937293
0.078650848
0.084805491
0.08951061
0.092117222
0.092106357
0.089024665
0.082459791
0.072056405
0.057605356
0.039320657
0.01666635
0.062865296
0.064170229
0.068027469
0.073914578
0.080436786
0.086367344
0.090832634
0.093196552
0.092949955
0.089647691
0.082885089
0.07231455
0.057734526
0.039365001
0.016672175
0.065129334
0.06640919
0.070170225
0.075894555
0.082210399
0.087909912
0.092133522
0.094255789
0.093776059
0.090256611
0.08329997
0.072565889
0.057860067
0.039408094
0.016677989
0.067447949
0.068691082
0.072333172
0.07787348
0.083969706
0.089432149
0.093412733
0.095294669
0.094584562
0.090851401
0.083704445
0.072810439
0.057981983
0.03944993
0.016683788
0.069809477
0.071005882
0.074509741
0.079847729
0.085712793
0.090933033
0.094669718
0.096312909
0.095375336
0.091432017
0.08409851
0.073048205
0.058100275
0.039490502
0.01668957
0.07220234
0.073343736
0.07669352
0.081813785
0.087437805
0.09241156
0.09590392
0.097310207
0.096148228
0.091998394
0.084482142
0.07327918
0.058214935
0.0395298
0.01669533
0.074615306
0.07569511
0.078878299
0.083768236
0.08914294
0.093866744
0.09711478
0.098286246
0.096903066
0.092550446
0.084855304
0.073503347
0.058325951
0.039567812
0.016701064
0.077037695
0.078050923
0.081058107
0.085707776
0.090826442
0.095297615
0.098301733
0.099240689
0.097639656
0.093088068
0.085217942
0.073720675
0.058433302
0.039604524
0.016706771
0.07945953
0.080402643
0.083227243
0.087629212
0.092486606
0.096703221
0.09946421
0.10017319
0.098357787
0.093611138
0.085569985
0.073931124
0.058536963
0.039639919
0.016712444
0.08187164
0.082742364
0.085380319
0.089529469
0.094121773
0.098082628
0.10060165
0.10108338
0.099057231
0.094119514
0.08591135
0.074134643
0.058636901
0.039673977
0.016718081
0.084265714
0.08506285
0.087512283
0.091405603
0.095730338
0.099434926
0.10171348
0.10197091
0.099737748
0.094613041
0.086241939
0.074331172
0.058733077
0.039706677
0.016723677
0.086634319
0.087357559
0.089618447
0.093254814
0.097310753
0.10075923
0.10279917
0.10283541
0.10039909
0.095091552
0.086561642
0.074520639
0.058825448
0.039737995
0.016729228
0.088970894
0.089620645
0.091694503
0.09507446
0.098861534
0.10205469
0.10385817
0.1036765
0.101041
0.09555487
0.08687034
0.074702967
0.058913965
0.039767905
0.016734728
0.091269715
0.091846948
0.093736537
0.096862067
0.10038127
0.10332049
0.10488996
0.10449384
0.10166321
0.096002811
0.087167906
0.07487807
0.058998575
0.03979638
0.016740174
0.093525851
0.094031967
0.095741028
0.098615342
0.10186863
0.10455585
0.10589407
0.10528708
0.10226549
0.096435189
0.087454206
0.075045859
0.059079222
0.039823391
0.016745561
0.09573511
0.096171827
0.097704851
0.10033219
0.10332237
0.10576005
0.10687002
0.10605589
0.10284758
0.096851817
0.087729104
0.075206238
0.059155845
0.039848908
0.016750882
0.097893976
0.098263236
0.099625267
0.10201069
0.10474135
0.10693243
0.10781739
0.10679998
0.10340925
0.097252517
0.087992466
0.075359112
0.059228385
0.039872902
0.016756134
0.09999955
0.10030345
0.10149991
0.10364916
0.1061245
0.10807236
0.1087358
0.10751906
0.10395028
0.097637116
0.088244157
0.075504384
0.059296778
0.03989534
0.01676131
0.10204949
0.1022902
0.10332677
0.1052461
0.10747091
0.10917931
0.10962492
0.1082129
0.10447048
0.098005455
0.088484052
0.075641962
0.059360965
0.039916193
0.016766405
0.10404194
0.1042217
0.10510417
0.1068002
0.10877974
0.11025278
0.11048445
0.1088813
0.1049697
0.098357393
0.088712034
0.075771757
0.059420887
0.039935432
0.016771414
0.1059755
0.10609655
0.10683076
0.10831039
0.11005027
0.11129239
0.11131415
0.10952409
0.10544778
0.098692806
0.088927997
0.075893685
0.059476488
0.039953028
0.01677633
0.10784914
0.1079137
0.10850547
0.10977574
0.11128191
0.11229778
0.11211385
0.11014114
0.10590462
0.099011599
0.089131852
0.076007674
0.059527718
0.039968956
0.016781148
0.1096622
0.10967244
0.11012751
0.11119556
0.11247419
0.11326871
0.11288342
0.11073239
0.10634017
0.099313697
0.089323528
0.076113662
0.059574532
0.039983194
0.016785862
0.11141429
0.11137235
0.11169633
0.1125693
0.11362672
0.11420499
0.11362279
0.11129781
0.10675439
0.099599061
0.089502974
0.076211601
0.059616894
0.039995721
0.016790467
0.11310531
0.11301326
0.11321161
0.11389659
0.11473926
0.11510652
0.11433195
0.11183742
0.10714728
0.099867678
0.089670161
0.076301455
0.059654775
0.040006523
0.016794957
0.11473537
0.11459522
0.11467322
0.11517722
0.11581166
0.11597327
0.11501095
0.11235128
0.10751891
0.10011957
0.089825086
0.076383207
0.059688157
0.040015588
0.016799326
0.11630477
0.11611846
0.11608123
0.11641114
0.11684387
0.11680528
0.11565989
0.11283952
0.10786937
0.1003548
0.089967771
0.07645686
0.059717033
0.040022909
0.01680357
0.11781401
0.1175834
0.11743586
0.11759841
0.11783597
0.11760267
0.11627895
0.1133023
0.1081988
0.10057344
0.090098266
0.076522431
0.059741408
0.040028488
0.016807684
0.11926372
0.11899061
0.11873747
0.11873922
0.11878809
0.11836562
0.11686833
0.11373983
0.10850736
0.10077564
0.090216649
0.076579963
0.059761299
0.040032327
0.016811663
0.12065465
0.12034076
0.11998656
0.1198339
0.11970048
0.1190944
0.11742831
0.11415239
0.10879528
0.10096155
0.090323024
0.076629514
0.059776734
0.04003444
0.016815503
0.12198768
0.12163467
0.12118375
0.12088285
0.12057347
0.1197893
0.11795922
0.11454026
0.10906282
0.10113137
0.090417526
0.076671167
0.059787759
0.040034842
0.0168192
0.12326375
0.12287321
0.12232972
0.12188657
0.12140745
0.12045071
0.1184614
0.1149038
0.10931027
0.10128533
0.090500316
0.076705023
0.059794428
0.040033557
0.01682275
0.1244839
0.12405736
0.12342529
0.12284567
0.12220289
0.12107906
0.1189353
0.11524338
0.10953797
0.10142368
0.090571582
0.076731207
0.059796813
0.040030615
0.016826151
0.12564924
0.12518816
0.12447132
0.12376081
0.12296034
0.12167483
0.11938135
0.11555943
0.10974627
0.10154672
0.09063154
0.076749861
0.059794997
0.040026051
0.016829401
0.12676091
0.12626671
0.12546873
0.12463271
0.12368037
0.12223854
0.11980005
0.11585241
0.10993557
0.10165477
0.090680428
0.076761147
0.059789075
0.040019906
0.016832497
0.12782013
0.12729414
0.12641852
0.12546217
0.12436365
0.12277077
0.12019194
0.1161228
0.1101063
0.10174818
0.090718509
0.076765248
0.059779156
0.040012228
0.016835437
0.12882812
0.12827166
0.12732171
0.12625003
0.12501085
0.12327212
0.12055757
0.11637112
0.11025891
0.10182732
0.090746068
0.07676236
0.059765359
0.040003068
0.016838222
0.12978615
0.12920045
0.12817938
0.12699717
0.12562272
0.12374325
0.12089753
0.11659789
0.11039387
0.10189258
0.090763409
0.076752698
0.059747815
0.039992484
0.01684085
0.13069551
0.13008177
0.12899263
0.12770451
0.12620002
0.12418482
0.12121245
0.1168037
0.11051167
0.10194437
0.090770854
0.076736491
0.059726663
0.039980538
0.016843322
0.1315575
0.13091688
0.12976259
0.12837301
0.12674355
0.12459754
0.12150296
0.11698911
0.11061284
0.10198314
0.090768741
0.07671398
0.059702052
0.039967293
0.016845637
0.13237343
0.13170703
0.1304904
0.12900363
0.12725415
0.12498214
0.12176972
0.11715473
0.1106979
0.10200932
0.090757424
0.07668542
0.059674139
0.03995282
0.016847798
0.13314463
0.13245352
0.13117722
0.12959739
0.12773266
0.12533936
0.1220134
0.11730116
0.11076739
0.10202337
0.090737266
0.076651075
0.059643087
0.03993719
0.016849806
0.13387242
0.13315763
0.13182424
0.13015529
0.12817995
0.12566997
0.12223469
0.11742904
0.11082188
0.10202576
0.090708643
0.076611215
0.059609064
0.039920475
0.016851662
0.13455813
0.13382063
0.13243262
0.13067837
0.1285969
0.12597473
0.12243429
0.117539
0.11086191
0.10201698
0.090671938
0.07656612
0.059572245
0.039902753
0.016853369
0.13520307
0.13444381
0.13300355
0.13116766
0.12898442
0.12625444
0.12261291
0.11763167
0.11088806
0.10199751
0.090627538
0.076516075
0.059532806
0.039884099
0.01685493
0.13580855
0.13502845
0.13353821
0.13162419
0.12934339
0.12650989
0.12277126
0.1177077
0.1109009
0.10196783
0.090575839
0.076461367
0.059490925
0.039864592
0.016856347
0.13637588
0.13557582
0.13403778
0.13204903
0.12967474
0.12674188
0.12291006
0.11776774
0.110901
0.10192845
0.090517236
0.076402287
0.059446784
0.039844308
0.016857624
0.13690634
0.13608717
0.13450342
0.13244319
0.12997936
0.12695121
0.12303002
0.11781243
0.11088895
0.10187984
0.090452126
0.076339126
0.059400563
0.039823326
0.016858766
0.13740122
0.13656374
0.13493631
0.13280773
0.13025818
0.12713868
0.12313187
0.11784243
0.11086531
0.10182251
0.090380907
0.076272176
0.059352442
0.039801723
0.016859774
0.13786178
0.13700678
0.13533758
0.13314368
0.13051209
0.12730509
0.12321632
0.11785837
0.11083066
0.10175694
0.090303973
0.076201725
0.059302601
0.039779574
0.016860655
0.13828925
0.13741749
0.13570838
0.13345206
0.130742
0.12745124
0.12328408
0.11786089
0.11078556
0.10168361
0.090221715
0.076128061
0.059251216
0.039756953
0.016861412
0.13868486
0.13779708
0.13604983
0.13373388
0.1309488
0.12757791
0.12333585
0.11785063
0.11073056
0.10160302
0.090134521
0.076051466
0.05919846
0.039733934
0.016862049
0.13904983
0.13814671
0.13636304
0.13399015
0.13113338
0.12768591
0.12337234
0.11782821
0.11066623
0.10151562
0.090042771
0.075972219
0.059144505
0.039710587
0.016862571
0.13938532
0.13846754
0.13664911
0.13422186
0.13129662
0.12777599
0.12339424
0.11779425
0.11059311
0.10142188
0.089946841
0.075890594
0.059089516
0.03968698
0.016862983
0.13969251
0.13876072
0.1369091
0.13442998
0.13143938
0.12784892
0.12340223
0.11774935
0.11051174
0.10132227
0.089847097
0.075806855
0.059033655
0.03966318
0.01686329
0.13997253
0.13902736
0.13714406
0.13461546
0.13156252
0.12790546
0.12339697
0.11769412
0.11042263
0.10121723
0.089743897
0.075721264
0.058977077
0.039639249
0.016863495
0.1402265
0.13926855
0.13735504
0.13477927
0.13166687
0.12794636
0.12337914
0.11762914
0.11032631
0.10110719
0.089637591
0.075634072
0.058919934
0.039615247
0.016863606
0.14045551
0.13948535
0.13754303
0.13492231
0.13175327
0.12797234
0.12334937
0.11755498
0.11022327
0.10099258
0.089528518
0.075545522
0.058862371
0.039591233
0.016863624
0.14066062
0.13967882
0.13770904
0.13504549
0.13182252
0.12798412
0.12330831
0.11747221
0.11011401
0.10087381
0.089417008
0.07545585
0.058804526
0.03956726
0.016863557
0.14084287
0.13984997
0.13785402
0.1351497
0.13187541
0.1279824
0.12325657
0.11738138
0.10999901
0.10075129
0.089303379
0.075365282
0.058746533
0.03954338
0.016863408
0.14100329
0.13999979
0.13797893
0.13523582
0.13191272
0.12796787
0.12319476
0.11728302
0.10987872
0.10062541
0.089187937
0.075274035
0.058688517
0.039519641
0.016863183
0.14114286
0.14012926
0.13808467
0.13530467
0.13193521
0.12794121
0.12312348
0.11717765
0.10975361
0.10049655
0.08907098
0.075182318
0.058630598
0.039496088
0.016862884
0.14126255
0.14023933
0.13817217
0.1353571
0.13194362
0.12790306
0.1230433
0.11706577
0.10962411
0.10036506
0.088952791
0.075090328
0.058572889
0.039472763
0.016862519
0.14136329
0.1403309
0.13824227
0.1353939
0.13193867
0.12785407
0.12295479
0.1169479
0.10949063
0.1002313
0.088833642
0.074998253
0.058515497
0.039449705
0.01686209
0.14144599
0.14040488
0.13829585
0.13541587
0.13192108
0.12779486
0.12285849
0.11682449
0.1093536
0.10009561
0.088713794
0.074906274
0.05845852
0.03942695
0.016861601
0.14151155
0.14046214
0.13833372
0.13542376
0.13189151
0.12772604
0.12275494
0.11669601
0.10921341
0.099958316
0.088593495
0.074814558
0.058402053
0.039404529
0.016861059
0.14156083
0.14050352
0.1383567
0.13541832
0.13185065
0.1276482
0.12264466
0.11656292
0.10907043
0.09981972
0.088472981
0.074723266
0.058346181
0.039382475
0.016860465
0.14159465