/*--------------------------------*- C++ -*----------------------------------*\
| =========                 |                                                 |
| \\      /  F ield         | OpenFOAM: The Open Source CFD Toolbox           |
|  \\    /   O peration     | Version:  2506                                  |
|   \\  /    A nd           | Website:  www.openfoam.com                      |
|    \\/     M anipulation  |                                                 |
\*---------------------------------------------------------------------------*/
FoamFile
{
    version     2.0;
    format      ascii;
    arch        "LSB;label=32;scalar=64";
    class       volScalarField;
    location    "29000/water";
    object      alphat;
}
// * * * * * * * * * * * * * * * * * * * * * * * * * * * * * * * * * * * * * //

dimensions      [1 -1 -1 0 0 0 0];

internalField   nonuniform List<scalar> 
6000
(
0.041292847
0.041292824
0.041292831
0.041292856
0.041292889
0.041292932
0.041292983
0.041293016
0.041292808
0.041290571
0.041271537
0.041111294
0.0397723
0.030564074
0.013464793
0.040788543
0.040788537
0.040788576
0.040788654
0.040788758
0.040788888
0.04078902
0.040788972
0.040787494
0.040776037
0.040696382
0.040161217
0.036863805
0.023766469
0.015141611
0.04033569
0.040335696
0.040335761
0.040335884
0.040336044
0.040336229
0.04033633
0.040335685
0.040330323
0.040296649
0.040097616
0.038983223
0.033614213
0.0194951
0.016360294
0.039926215
0.039926219
0.039926301
0.039926459
0.03992666
0.039926848
0.039926701
0.039924457
0.039910659
0.039835636
0.039448738
0.037597438
0.030384627
0.016783058
0.017196555
0.039553796
0.039553808
0.039553906
0.039554093
0.039554312
0.039554413
0.039553622
0.0395481
0.039519187
0.039379112
0.038737841
0.036066498
0.027427863
0.015063192
0.01773179
0.039213273
0.039213296
0.039213408
0.039213613
0.039213809
0.039213657
0.039211571
0.039200298
0.039147643
0.038916647
0.037965398
0.034462847
0.024852826
0.013984463
0.018040007
0.038900366
0.038900399
0.038900521
0.038900723
0.038900826
0.038900159
0.038895819
0.03887551
0.038788999
0.038441492
0.037140256
0.032849727
0.022675913
0.013336844
0.018183117
0.038611532
0.038611573
0.038611697
0.038611866
0.038611765
0.038610199
0.038602307
0.038568928
0.038437606
0.037950377
0.036275872
0.031274836
0.020870828
0.012994967
0.018210197
0.038343817
0.038343862
0.038343975
0.038344065
0.038343601
0.038340605
0.038327517
0.03827644
0.038089201
0.037442856
0.03538704
0.029770035
0.019396999
0.012882914
0.018158676
0.038094736
0.03809478
0.038094862
0.038094803
0.038093753
0.038088644
0.038068396
0.037994592
0.037740813
0.036920505
0.03448763
0.028354169
0.018213448
0.012953916
0.018056304
0.037862183
0.037862216
0.037862238
0.037861935
0.037860009
0.037851941
0.037822294
0.037720559
0.037390607
0.036386134
0.033589398
0.02703684
0.017284481
0.013178532
0.017923231
0.03764436
0.037644371
0.037644291
0.037643618
0.037640447
0.037628426
0.037586933
0.037452106
0.037037684
0.035843147
0.032701562
0.025821837
0.016581272
0.013537499
0.017773886
0.037439726
0.037439699
0.03743946
0.037438254
0.037433393
0.037416287
0.037360374
0.037187532
0.036681868
0.035295042
0.031830871
0.02470985
0.016081614
0.014017191
0.017618497
0.037246949
0.037246861
0.037246392
0.037244452
0.037237378
0.037213943
0.037140989
0.036925609
0.0363235
0.034745073
0.030981931
0.023700436
0.015768976
0.014606606
0.017464261
0.037064871
0.037064693
0.037063903
0.037060987
0.037051109
0.037020016
0.036927437
0.036665512
0.035963258
0.03419604
0.030157673
0.022793377
0.015631332
0.015295285
0.017316197
0.03689248
0.036892177
0.036890955
0.036886782
0.036873442
0.036833316
0.036718634
0.03640675
0.035602004
0.033650187
0.029359858
0.021989539
0.015659917
0.016071914
0.01717775
0.036728885
0.036728414
0.036726628
0.036720878
0.03670337
0.036652818
0.036513731
0.036149096
0.035240656
0.033109157
0.028589603
0.021291346
0.015847992
0.016923492
0.017051196
0.036573301
0.03657261
0.036570106
0.036562424
0.036540005
0.036477653
0.03631208
0.035892529
0.034880099
0.032574024
0.027847913
0.02070292
0.016189617
0.01783505
0.016937915
0.036425028
0.036424056
0.036420663
0.036410663
0.036382564
0.036307092
0.036113215
0.03563717
0.034521109
0.032045349
0.027136212
0.020229919
0.016678486
0.018789895
0.016838558
0.036283441
0.03628212
0.036277645
0.036264917
0.036230367
0.036140535
0.03591682
0.035383242
0.034164308
0.031523285
0.026456862
0.019879123
0.017306891
0.019770317
0.016753165
0.036147982
0.036146234
0.036140468
0.036124584
0.036082821
0.035977497
0.035722708
0.035131018
0.033810124
0.031007717
0.025813646
0.019657797
0.018064912
0.0207586
0.016681265
0.036018143
0.036015885
0.036008605
0.035989127
0.035939416
0.035817597
0.035530799
0.034880794
0.033458783
0.030498445
0.025212142
0.019572905
0.018939949
0.021738147
0.016621966
0.03589347
0.03589061
0.035881581
0.035858069
0.035799718
0.035660549
0.035341095
0.034632853
0.033110301
0.029995409
0.024659951
0.019630248
0.019916664
0.02269449
0.016574063
0.035773545
0.035769987
0.035758968
0.035730991
0.035663366
0.035506152
0.035153669
0.034387441
0.032764498
0.029498968
0.024166686
0.019833637
0.020977366
0.023616003
0.016536152
0.035657992
0.035653635
0.035640383
0.035607524
0.035530063
0.035354279
0.034968643
0.03414475
0.03242103
0.029010211
0.023743688
0.020184173
0.022102784
0.024494228
0.016506745
0.035546464
0.035541207
0.035525479
0.035487349
0.035399574
0.035204869
0.034786172
0.033904896
0.032079439
0.028531302
0.023403466
0.020679734
0.023273104
0.025323802
0.016484372
0.035438647
0.035432386
0.035413948
0.035370193
0.035271718
0.035057919
0.034606436
0.03366791
0.03173923
0.028065808
0.023158914
0.021314706
0.0244691
0.026102089
0.016467662
0.035334251
0.035326887
0.035305516
0.035255823
0.03514637
0.034913479
0.03442962
0.033433727
0.031399978
0.02761899
0.023022388
0.022080017
0.02567317
0.026828633
0.016455398
0.035233012
0.035224448
0.035199939
0.03514405
0.035023453
0.034771643
0.034255909
0.033202186
0.031061475
0.027197981
0.02300477
0.022963453
0.026870128
0.027504567
0.016446543
0.035134691
0.035124836
0.035097009
0.035034724
0.034902936
0.03463254
0.03408547
0.032973033
0.030723902
0.0268118
0.023114634
0.02395025
0.02804767
0.028132079
0.016440248
0.035039067
0.03502784
0.034996542
0.034927732
0.034784832
0.034496333
0.033918446
0.032745938
0.030388047
0.026471168
0.023357597
0.025023884
0.02919649
0.028713983
0.016435834
0.034945943
0.034933275
0.034898386
0.034822996
0.034669194
0.034363211
0.033754944
0.032520522
0.030055535
0.0261881
0.023735915
0.026166983
0.030310099
0.029253407
0.016432778
0.034855141
0.034840974
0.034802418
0.034720475
0.034556112
0.034233382
0.033595029
0.032296402
0.029729078
0.025975303
0.024248334
0.02736225
0.031384439
0.029753594
0.016430685
0.034766502
0.034750797
0.03470854
0.034620164
0.034445715
0.034107066
0.033438713
0.032073259
0.029412693
0.025845435
0.02489019
0.028593298
0.032417399
0.030217765
0.016429265
0.034679887
0.034662624
0.034616684
0.034522088
0.034338162
0.033984492
0.033285952
0.031850929
0.029111867
0.025810314
0.025653732
0.029845306
0.033408314
0.030649046
0.016428312
0.034595176
0.034576356
0.034526808
0.034426308
0.034233647
0.033865888
0.033136649
0.03162952
0.028833633
0.02588017
0.026528619
0.031105458
0.034357529
0.031050409
0.016427682
0.034512269
0.034491917
0.034438897
0.034332917
0.034132389
0.033751478
0.032990657
0.031409556
0.028586515
0.02606301
0.027502554
0.032363144
0.035266042
0.031424648
0.01642728
0.034431083
0.034409252
0.034352965
0.034242042
0.034034637
0.033641469
0.032847794
0.031192142
0.028380315
0.026364176
0.028561979
0.033609948
0.036135248
0.031774346
0.016427047
0.034351558
0.034328331
0.034269052
0.034153841
0.033940664
0.03353605
0.032707869
0.03097915
0.028225759
0.02678609
0.029692788
0.034839473
0.03696677
0.032101874
0.01642695
0.034273652
0.034249145
0.03418723
0.034068505
0.03385076
0.033435383
0.03257072
0.030773393
0.028133998
0.027328221
0.030880994
0.036047068
0.037762344
0.032409381
0.016426974
0.034197344
0.03417171
0.034107598
0.033986257
0.033765237
0.033339598
0.032436275
0.030578782
0.028116033
0.027987225
0.032113285
0.037229503
0.038523755
0.032698799
0.016427117
0.034122637
0.034096065
0.034030285
0.033907355
0.033684417
0.033248788
0.032304627
0.030400435
0.028182107
0.02875725
0.033377461
0.038384663
0.039252794
0.032971855
0.016427382
0.034049553
0.034022276
0.033955452
0.033832084
0.033608631
0.033163012
0.03217613
0.030244714
0.028341141
0.029630359
0.034662708
0.039511266
0.039951228
0.033230086
0.016427779
0.03397814
0.033950437
0.033883292
0.033760766
0.033538214
0.0330823
0.032051523
0.030119154
0.028600248
0.030597022
0.035959728
0.040608641
0.040620777
0.033474856
0.016428318
0.033908471
0.033880668
0.033814033
0.033693749
0.033473498
0.033006661
0.031932061
0.030032291
0.028964397
0.031646653
0.037260745
0.041676558
0.0412631
0.033707373
0.01642901
0.033840644
0.033813121
0.033747936
0.033631414
0.033414804
0.032936115
0.031819661
0.029993369
0.029436212
0.03276813
0.038559406
0.042715108
0.041879779
0.033928705
0.016429865
0.033774787
0.03374798
0.033685299
0.033574167
0.033362441
0.032870717
0.031717044
0.030011962
0.030015934
0.033950284
0.039850629
0.043724612
0.042472314
0.034139802
0.016430892
0.033711057
0.03368546
0.033626458
0.03352244
0.033316699
0.032810615
0.031627853
0.03009752
0.030701524
0.035182302
0.041130416
0.044705564
0.043042113
0.034341502
0.016432097
0.033649643
0.033625814
0.033571787
0.033476689
0.033277844
0.032756113
0.031556734
0.030258904
0.031488879
0.036454045
0.042395663
0.045658587
0.043590498
0.034534553
0.016433487
0.03359077
0.033569333
0.033521698
0.033437387
0.03324612
0.032707756
0.031509357
0.030503939
0.032372145
0.037756267
0.043643995
0.046584395
0.044118699
0.034719618
0.016435064
0.033534699
0.033516348
0.033476647
0.033405019
0.033221753
0.032666433
0.031492359
0.030839028
0.033344088
0.039080735
0.044873612
0.04748377
0.044627864
0.034897289
0.016436831
0.033481731
0.033467235
0.033437127
0.033380083
0.033204961
0.032633491
0.031513197
0.031268866
0.034396492
0.040420265
0.046083176
0.048357533
0.045119059
0.035068096
0.016438788
0.033432211
0.033422413
0.033403675
0.033363076
0.033195977
0.032610856
0.031579923
0.031796265
0.035520555
0.04176869
0.047271717
0.04920653
0.045593277
0.035232514
0.016440933
0.033386531
0.033382352
0.033376864
0.033354497
0.033195078
0.03260115
0.031700872
0.032422091
0.036707256
0.043120788
0.048438563
0.050031614
0.046051438
0.035390968
0.016443266
0.033345134
0.033347573
0.033357309
0.033354836
0.033202628
0.032607793
0.031884308
0.033145319
0.037947676
0.044472181
0.049583282
0.050833633
0.046494397
0.035543844
0.016445782
0.033308518
0.033318652
0.033345661
0.033364571
0.033219143
0.032635061
0.032138042
0.033963179
0.039233252
0.045819223
0.050705639
0.051613422
0.046922952
0.035691489
0.016448478
0.033277237
0.03329622
0.033342601
0.033384174
0.033245363
0.03268811
0.032469071
0.034871383
0.040555968
0.047158893
0.051805561
0.052371796
0.04733784
0.035834219
0.016451351
0.033251914
0.033280969
0.033348845
0.033414106
0.033282345
0.032772917
0.032883247
0.0358644
0.041908473
0.048488702
0.052883101
0.053109548
0.047739749
0.03597232
0.016454394
0.033233235
0.033273652
0.033365128
0.033454835
0.033331563
0.032896166
0.033385034
0.03693576
0.043284142
0.049806605
0.05393842
0.053827443
0.048129319
0.036106053
0.016457603
0.033221962
0.033275082
0.033392211
0.033506851
0.033395016
0.03306505
0.033977335
0.038078365
0.044677087
0.051110936
0.054971758
0.05452622
0.048507145
0.036235658
0.016460974
0.033218934
0.033286139
0.033430864
0.033570696
0.033475331
0.033287021
0.034661422
0.039284779
0.046082132
0.052400343
0.055983419
0.055206587
0.048873783
0.036361356
0.016464499
0.033225073
0.033307763
0.033481871
0.033647008
0.033575845
0.033569484
0.035436952
0.040547493
0.047494763
0.053673746
0.056973755
0.055869227
0.049229756
0.036483354
0.016468174
0.033241386
0.033340955
0.033546021
0.033736578
0.03370066
0.033919478
0.036302067
0.041859138
0.048911069
0.054930293
0.057943151
0.056514769
0.049575443
0.036601083
0.01647199
0.033268972
0.03338678
0.033624112
0.03384042
0.033854651
0.034343363
0.037253558
0.043212658
0.050327673
0.056169324
0.058892009
0.057143807
0.049911242
0.036714879
0.016475942
0.033309024
0.033446355
0.033716953
0.03395986
0.03404342
0.034846539
0.038287077
0.044601425
0.051741668
0.05739034
0.059820746
0.057756912
0.050237556
0.036825045
0.016480019
0.03336283
0.033520852
0.033825376
0.034096627
0.034273182
0.035433219
0.039397376
0.046019315
0.053150559
0.058592979
0.060729792
0.058354635
0.050554797
0.036931851
0.016484214
0.033431775
0.033611491
0.033950257
0.034252954
0.034550591
0.036106274
0.040578559
0.047460739
0.054552213
0.059776993
0.061619575
0.058937454
0.050862923
0.037035581
0.016488518
0.033517344
0.033719533
0.034092549
0.034431665
0.034882516
0.036867154
0.041824324
0.048920651
0.055944807
0.060942228
0.062490517
0.059505811
0.051162151
0.037136396
0.016492923
0.033621114
0.033846282
0.034253323
0.03463625
0.035275766
0.037715885
0.04312818
0.050394528
0.057326794
0.062088607
0.063343036
0.060060163
0.051452981
0.037234384
0.016497425
0.033744758
0.033993079
0.034433835
0.034870907
0.035736813
0.038651138
0.04448364
0.051878338
0.05869686
0.063216115
0.064177553
0.060600974
0.051735851
0.037329653
0.016502019
0.033890034
0.034161309
0.034635591
0.035140533
0.036271505
0.039670361
0.04588437
0.053368507
0.0600539
0.064324795
0.064994472
0.061128573
0.052011162
0.037422331
0.0165067
0.034058787
0.034352405
0.034860441
0.035450671
0.036884817
0.04076994
0.047324308
0.054861871
0.06139699
0.065414726
0.065794143
0.061642947
0.052279305
0.037512562
0.016511467
0.034252937
0.034567872
0.035110664
0.035807391
0.037580647
0.04194541
0.048797737
0.056355639
0.062725356
0.066486018
0.066576929
0.062144667
0.052540483
0.037600453
0.016516317
0.034474481
0.034809314
0.035389065
0.036217114
0.038361672
0.043191654
0.050299338
0.057847355
0.064038357
0.067538804
0.067343213
0.062634244
0.052794917
0.037686088
0.016521247
0.034725489
0.035078475
0.03569905
0.03668639
0.039229274
0.044503117
0.051824204
0.059334858
0.065335461
0.068573251
0.068093395
0.063112136
0.053042836
0.037769546
0.016526253
0.035008111
0.0353773
0.036044682
0.037221645
0.040183534
0.045873992
0.05336785
0.060816257
0.066616245
0.069589502
0.06882737
0.063578807
0.05328449
0.037850923
0.016531331
0.035324589
0.035708008
0.036430695
0.03782891
0.041223286
0.047298392
0.054926197
0.062289891
0.067880351
0.070587709
0.069545619
0.064034565
0.053520087
0.037930306
0.016536479
0.035677286
0.036073175
0.036862462
0.038513562
0.042346233
0.048770487
0.05649555
0.063754306
0.069127489
0.071568062
0.070248613
0.064479709
0.053749815
0.038007771
0.016541693
0.036068721
0.036475821
0.037345903
0.039280098
0.043549089
0.05028461
0.058072571
0.065208226
0.070357434
0.072530786
0.070936788
0.064914535
0.05397385
0.03808338
0.016546969
0.036501628
0.036919504
0.037887338
0.040131949
0.044827757
0.051835339
0.05965426
0.066650548
0.071570001
0.073475728
0.071610524
0.065339341
0.054192383
0.038157196
0.016552305
0.036979023
0.037408384
0.038493284
0.041071362
0.046177515
0.053417546
0.061237919
0.068080294
0.072765016
0.074403189
0.072270172
0.06575439
0.054405591
0.038229281
0.016557696
0.037504284
0.037947268
0.039170216
0.042099338
0.047593197
0.055026428
0.062821118
0.069496597
0.073942366
0.075313494
0.072916048
0.066159929
0.054613631
0.038299688
0.01656314
0.038081239
0.038541606
0.039924298
0.043215644
0.049069366
0.05665752
0.06440168
0.070898704
0.075101911
0.076206925
0.07354845
0.0665562
0.054816652
0.038368466
0.016568632
0.038714234
0.039197428
0.040761122
0.044418871
0.050600457
0.058306695
0.065977657
0.072285947
0.07624344
0.077083727
0.074167654
0.066943446
0.055014794
0.038435662
0.01657417
0.039408189
0.039921223
0.041685465
0.045706546
0.052180914
0.059970151
0.067547279
0.073657703
0.077366976
0.077944206
0.074773923
0.067321889
0.05520819
0.038501318
0.016579751
0.040168598
0.040719751
0.042701084
0.047075278
0.053805274
0.06164439
0.069108949
0.075013442
0.078472606
0.078788617
0.075367508
0.067691736
0.055396963
0.038565473
0.01658537
0.041001481
0.041599793
0.04381057
0.04852092
0.05546826
0.063326226
0.070661261
0.076352562
0.079560261
0.079617162
0.075948662
0.068053183
0.055581229
0.038628161
0.016591025
0.041913254
0.042567873
0.045015257
0.050038744
0.057164817
0.065012719
0.072202873
0.077674599
0.080630132
0.080430046
0.076517619
0.068406418
0.055761094
0.038689414
0.016596712
0.042910528
0.043629946
0.046315205
0.051623602
0.058890142
0.066701162
0.073732565
0.078979242
0.081682352
0.081227469
0.077074598
0.068751613
0.055936658
0.038749263
0.016602429
0.043999831
0.044791101
0.047709231
0.053270086
0.060639725
0.068389123
0.075249199
0.080266021
0.082716969
0.082009628
0.077619803
0.069088931
0.056108014
0.038807734
0.016608172
0.045187267
0.046055289
0.049195
0.054972652
0.062409318
0.070074283
0.076751677
0.081534842
0.083734046
0.082776706
0.078153428
0.069418521
0.056275245
0.038864851
0.016613937
0.046478156
0.047425097
0.05076914
0.05672573
0.064194932
0.071754498
0.078239056
0.082785576
0.084733648
0.083528869
0.078675652
0.069740524
0.056438431
0.038920634
0.016619723
0.047876654
0.048901589
0.052427395
0.058523824
0.065992884
0.073427799
0.079710316
0.084018004
0.08571584
0.084266273
0.079186641
0.070055066
0.05659764
0.038975103
0.016625525
0.049385424
0.05048422
0.054164764
0.060361536
0.06779963
0.075092231
0.081164968
0.085231941
0.086680672
0.08498906
0.079686545
0.070362265
0.056752938
0.039028274
0.016631341
0.051005364
0.052170817
0.055975674
0.062233666
0.06961191
0.076745841
0.082602389
0.086427213
0.087628185
0.085697354
0.0801755
0.070662227
0.056904382
0.039080161
0.016637167
0.052735426
0.053957634
0.057854085
0.064135121
0.071426499
0.07838724
0.084021971
0.087603645
0.088558406
0.086391266
0.08065363
0.070955046
0.057052024
0.039130776
0.016643001
0.05457256
0.055839465
0.05979365
0.066061018
0.073240169
0.080015135
0.085423137
0.088761057
0.089471347
0.087070888
0.08112104
0.071240806
0.057195907
0.039180127
0.016648839
0.056511743
0.057809788
0.061787719
0.068006438
0.075050347
0.081628266
0.08680533
0.08989926
0.090367006
0.087736295
0.081577823
0.071519581
0.05733607
0.039228222
0.016654679
0.058546144
0.059860948
0.063829422
0.06996659
0.076854663
0.083225438
0.088168004
0.091018055
0.091245359
0.088387544
0.082024055
0.071791432
0.057472546
0.039275065
0.016660517
0.060667299
0.061984234
0.065911621
0.071937311
0.078650863
0.084805503
0.08951062
0.092117231
0.092106365
0.089024672
0.082459798
0.07205641
0.057605359
0.039320659
0.01666635
0.062865319
0.064170251
0.068027487
0.073914592
0.080436797
0.086367353
0.090832641
0.093196559
0.092949961
0.089647696
0.082885094
0.072314554
0.057734529
0.039365003
0.016672175
0.065129349
0.066409205
0.070170238
0.075894565
0.082210407
0.087909918
0.092133528
0.094255794
0.093776063
0.090256615
0.083299974
0.072565892
0.057860069
0.039408095
0.016677989
0.067447956
0.06869109
0.07233318
0.077873486
0.08396971
0.089432153
0.093412736
0.095294671
0.094584565
0.090851403
0.083704448
0.072810442
0.057981985
0.039449931
0.016683788
0.069809476
0.071005884
0.074509743
0.079847732
0.085712795
0.090933034
0.094669718
0.096312909
0.095375337
0.091432018
0.084098511
0.073048207
0.058100276
0.039490502
0.01668957
0.072202332
0.073343731
0.076693517
0.081813784
0.087437804
0.092411558
0.095903919
0.097310206
0.096148227
0.091998393
0.084482142
0.073279181
0.058214936
0.0395298
0.01669533
0.07461529
0.075695099
0.078878292
0.083768231
0.089142936
0.09386674
0.097114777
0.098286243
0.096903063
0.092550444
0.084855303
0.073503347
0.058325951
0.039567812
0.016701064
0.077037673
0.078050906
0.081058095
0.085707768
0.090826435
0.095297609
0.098301727
0.099240684
0.097639652
0.093088066
0.08521794
0.073720674
0.058433302
0.039604524
0.016706771
0.079459502
0.080402621
0.083227228
0.087629201
0.092486597
0.096703212
0.099464203
0.10017318
0.098357782
0.093611134
0.085569982
0.073931122
0.058536962
0.039639919
0.016712444
0.081871607
0.082742338
0.0853803
0.089529454
0.094121761
0.098082618
0.10060164
0.10108338
0.099057225
0.094119509
0.085911346
0.074134641
0.0586369
0.039673977
0.016718081
0.084265677
0.08506282
0.087512261
0.091405586
0.095730324
0.099434914
0.10171347
0.1019709
0.099737741
0.094613035
0.086241934
0.074331169
0.058733076
0.039706676
0.016723677
0.086634279
0.087357525
0.089618421
0.093254795
0.097310737
0.10075922
0.10279916
0.1028354
0.10039908
0.095091545
0.086561637
0.074520636
0.058825446
0.039737994
0.016729228
0.088970851
0.089620609
0.091694475
0.095074439
0.098861517
0.10205467
0.10385816
0.10367649
0.10104099
0.095554862
0.086870334
0.074702963
0.058913963
0.039767904
0.016734728
0.09126967
0.091846909
0.093736507
0.096862043
0.10038125
0.10332047
0.10488995
0.10449383
0.1016632
0.096002802
0.087167899
0.074878066
0.058998573
0.039796379
0.016740174
0.093525805
0.094031927
0.095740996
0.098615317
0.10186861
0.10455583
0.10589405
0.10528706
0.10226548
0.096435178
0.087454198
0.075045854
0.059079219
0.03982339
0.016745561
0.095735063
0.096171785
0.097704818
0.10033216
0.10332235
0.10576003
0.10687
0.10605587
0.10284756
0.096851806
0.087729095
0.075206232
0.059155842
0.039848907
0.016750882
0.097893929
0.098263195
0.099625233
0.10201066
0.10474132
0.10693241
0.10781737
0.10679996
0.10340923
0.097252504
0.087992456
0.075359105
0.059228381
0.0398729
0.016756134
0.099999504
0.10030341
0.10149988
0.10364913
0.10612448
0.10807234
0.10873578
0.10751904
0.10395026
0.097637102
0.088244146
0.075504377
0.059296774
0.039895338
0.01676131
0.10204944
0.10229016
0.10332673
0.10524607
0.10747089
0.10917928
0.1096249
0.10821289
0.10447047
0.098005441
0.08848404
0.075641954
0.05936096
0.039916191
0.016766405
0.1040419
0.10422167
0.10510414
0.10680018
0.10877971
0.11025276
0.11048443
0.10888128
0.10496968
0.098357377
0.088712021
0.075771747
0.059420881
0.039935429
0.016771414
0.10597546
0.10609651
0.10683073
0.10831036
0.11005025
0.11129237
0.11131413
0.10952407
0.10544776
0.098692791
0.088927984
0.075893675
0.059476482
0.039953025
0.01677633
0.10784911
0.10791367
0.10850545
0.10977572
0.11128189
0.11229776
0.11211383
0.11014112
0.10590461
0.099011583
0.089131839
0.076007664
0.059527711
0.039968953
0.016781148
0.10966217
0.10967241
0.11012749
0.11119554
0.11247417
0.11326869
0.1128834
0.11073238
0.10634015
0.099313682
0.089323515
0.076113652
0.059574525
0.039983191
0.016785862
0.11141427
0.11137233
0.11169632
0.11256928
0.1136267
0.11420498
0.11362277
0.1112978
0.10675437
0.099599046
0.089502961
0.07621159
0.059616887
0.039995718
0.016790467
0.1131053
0.11301325
0.1132116
0.11389658
0.11473925
0.11510651
0.11433194
0.1118374
0.10714727
0.099867665
0.089670149
0.076301445
0.059654768
0.04000652
0.016794957
0.11473536
0.11459521
0.11467322
0.11517722
0.11581165
0.11597326
0.11501094
0.11235127
0.1075189
0.10011956
0.089825075
0.076383199
0.059688151
0.040015584
0.016799326
0.11630477
0.11611846
0.11608123
0.11641114
0.11684387
0.11680528
0.11565989
0.11283951
0.10786937
0.10035479
0.089967763
0.076456852
0.059717028
0.040022907
0.01680357
0.11781402
0.11758341
0.11743586
0.11759841
0.11783597
0.11760267
0.11627895
0.11330229
0.10819879
0.10057344
0.09009826
0.076522426
0.059741404
0.040028485
0.016807684
0.11926374
0.11899062
0.11873748
0.11873923
0.1187881
0.11836563
0.11686834
0.11373984
0.10850736
0.10077564
0.090216645
0.076579959
0.059761295
0.040032326
0.016811663
0.12065467
0.12034078
0.11998658
0.11983391
0.1197005
0.11909441
0.11742832
0.11415239
0.10879529
0.10096156
0.090323023
0.076629512
0.059776733
0.040034439
0.016815503
0.1219877
0.12163469
0.12118377
0.12088287
0.12057349
0.11978932
0.11795923
0.11454027
0.10906283
0.10113138
0.090417528
0.076671167
0.059787758
0.040034842
0.016819199
0.12326377
0.12287323
0.12232975
0.1218866
0.12140747
0.12045073
0.11846142
0.11490381
0.10931028
0.10128533
0.090500321
0.076705026
0.05979443
0.040033558
0.01682275
0.12448393
0.12405739
0.12342532
0.1228457
0.12220292
0.12107908
0.11893532
0.1152434
0.10953798
0.10142369
0.09057159
0.076731212
0.059796816
0.040030616
0.016826151
0.12564927
0.12518819
0.12447135
0.12376083
0.12296036
0.12167485
0.11938137
0.11555945
0.10974628
0.10154673
0.09063155
0.076749868
0.059795001
0.040026053
0.016829401
0.12676094
0.12626674
0.12546876
0.12463274
0.1236804
0.12223856
0.11980007
0.11585243
0.10993559
0.10165479
0.09068044
0.076761156
0.059789081
0.040019909
0.016832497
0.12782015
0.12729417
0.12641854
0.1254622
0.12436367
0.12277079
0.12019196
0.11612282
0.11010632
0.1017482
0.090718523
0.076765258
0.059779163
0.040012231
0.016835437
0.12882814
0.12827168
0.12732173
0.12625005
0.12501087
0.12327214
0.12055759
0.11637114
0.11025892
0.10182734
0.090746082
0.07676237
0.059765367
0.040003072
0.016838222
0.12978617
0.12920047
0.1281794
0.12699719
0.12562274
0.12374327
0.12089755
0.11659791
0.11039388
0.10189259
0.090763423
0.076752709
0.059747822
0.039992488
0.01684085
0.13069552
0.13008179
0.12899264
0.12770453
0.12620003
0.12418484
0.12121247
0.11680371
0.11051169
0.10194439
0.090770867
0.076736501
0.05972667
0.039980542
0.016843322
0.1315575
0.13091688
0.12976259
0.12837302
0.12674356
0.12459756
0.12150297
0.11698912
0.11061285
0.10198315
0.090768753
0.07671399
0.059702059
0.039967297
0.016845638
0.13237343
0.13170703
0.1304904
0.12900364
0.12725415
0.12498215
0.12176973
0.11715474
0.11069791
0.10200933
0.090757434
0.076685429
0.059674145
0.039952824
0.016847799
0.13314462
0.13245352
0.13117722
0.12959739
0.12773266
0.12533936
0.1220134
0.11730117
0.1107674
0.10202337
0.090737274
0.076651082
0.059643092
0.039937192
0.016849806
0.13387241
0.13315761
0.13182423
0.13015529
0.12817994
0.12566996
0.12223469
0.11742904
0.11082188
0.10202577
0.090708648
0.07661122
0.059609068
0.039920477
0.016851662
0.13455811
0.13382061
0.13243261
0.13067836
0.12859689
0.12597472
0.12243429
0.11753899
0.11086191
0.10201698
0.09067194
0.076566123
0.059572248
0.039902754
0.016853369
0.13520305
0.13444379
0.13300353
0.13116764
0.1289844
0.12625443
0.1226129
0.11763166
0.11088805
0.10199751
0.090627537
0.076516076
0.059532807
0.0398841
0.01685493
0.13580853
0.13502843
0.13353819
0.13162418
0.12934338
0.12650988
0.12277125
0.11770769
0.11090089
0.10196783
0.090575835
0.076461366
0.059490925
0.039864592
0.016856347
0.13637586
0.13557579
0.13403776
0.13204901
0.12967472
0.12674186
0.12291004
0.11776773
0.11090099
0.10192844
0.09051723
0.076402283
0.059446782
0.039844307
0.016857624
0.13690632
0.13608715
0.1345034
0.13244317
0.12997934
0.12695119
0.12303001
0.11781242
0.11088894
0.10187983
0.090452118
0.076339121
0.05940056
0.039823325
0.016858766
0.1374012
0.13656373
0.13493629
0.13280771
0.13025816
0.12713866
0.12313185
0.11784241
0.1108653
0.1018225
0.090380897
0.076272169
0.059352438
0.039801721
0.016859774
0.13786176
0.13700677
0.13533756
0.13314366
0.13051207
0.12730507
0.1232163
0.11785835
0.11083064
0.10175692
0.090303962
0.076201717
0.059302596
0.039779571
0.016860655
0.13828924
0.13741748
0.13570837
0.13345204
0.13074198
0.12745122
0.12328406
0.11786088
0.11078554
0.1016836
0.090221704
0.076128052
0.05925121
0.03975695
0.016861411
0.13868486
0.13779707
0.13604982
0.13373387
0.13094879
0.1275779
0.12333584
0.11785062
0.11073055
0.101603
0.09013451
0.076051457
0.059198455
0.039733931
0.016862048
0.13904983
0.1381467
0.13636304
0.13399014
0.13113337
0.1276859
0.12337233
0.1178282
0.11066622
0.10151561
0.090042761
0.075972211
0.059144499
0.039710584
0.016862571
0.13938532
0.13846755
0.13664911
0.13422186
0.13129661
0.12777598
0.12339423
0.11779424
0.11059311
0.10142188
0.089946832
0.075890586
0.059089511
0.039686978
0.016862983
0.13969252
0.13876073
0.1369091
0.13442998
0.13143938
0.12784892
0.12340222
0.11774935
0.11051173
0.10132226
0.08984709
0.075806849
0.05903365
0.039663177
0.016863289
0.13997254
0.13902737
0.13714407
0.13461547
0.13156252
0.12790547
0.12339697
0.11769412
0.11042263
0.10121722
0.089743892
0.07572126
0.058977073
0.039639247
0.016863495
0.14022651
0.13926856
0.13735505
0.13477928
0.13166688
0.12794637
0.12337914
0.11762914
0.11032631
0.10110718
0.089637589
0.075634069
0.058919932
0.039615246
0.016863605
0.14045552
0.13948537
0.13754305
0.13492232
0.13175328
0.12797235
0.12334938
0.11755499
0.11022328
0.10099258
0.089528519
0.075545521
0.05886237
0.039591232
0.016863624
0.14066063
0.13967884
0.13770905
0.13504551
0.13182253
0.12798413
0.12330832
0.11747222
0.11011402
0.10087382
0.089417011
0.075455851
0.058804527
0.03956726
0.016863557
0.14084289
0.13984998
0.13785404
0.13514972
0.13187542
0.12798242
0.12325658
0.11738139
0.10999902
0.1007513
0.089303384
0.075365285
0.058746535
0.039543381
0.016863408
0.14100331
0.13999981
0.13797894
0.13523583
0.13191273
0.12796789
0.12319477
0.11728303
0.10987873
0.10062542
0.089187944
0.07527404
0.05868852
0.039519643
0.016863183
0.14114288
0.14012928
0.13808469
0.13530469
0.13193522
0.12794122
0.12312349
0.11717766
0.10975362
0.10049656
0.089070988
0.075182324
0.058630602
0.03949609
0.016862885
0.14126256
0.14023934
0.13817218
0.13535711
0.13194363
0.12790307
0.12304331
0.11706579
0.10962412
0.10036507
0.0889528
0.075090334
0.058572894
0.039472765
0.016862519
0.14136329
0.14033091
0.13824228
0.13539391
0.13193868
0.12785408
0.1229548
0.11694791
0.10949065
0.10023131
0.088833651
0.074998261
0.058515502
0.039449708
0.01686209
0.141446
0.14040489
0.13829586
0.13541588
0.13192108
0.12779487
0.1228585
0.1168245
0.10935361
0.10009562
0.088713803
0.074906281
0.058458525
0.039426952
0.016861602
0.14151155
0.14046214
0.13833373
0.13542376
0.13189152
0.12772605
0.12275495
0.11669602
0.10921342
0.099958326
0.088593504
0.074814565
0.058402058
0.039404532
0.016861059
0.14156082
0.14050352
0.1383567
0.13541832
0.13185066
0.12764821
0.12264466
0.11656292
0.10907044
0.099819729
0.08847299
0.074723273
0.058346186
0.039382477
0.016860465
0.14159464