/*--------------------------------*- C++ -*----------------------------------*\
| =========                 |                                                 |
| \\      /  F ield         | OpenFOAM: The Open Source CFD Toolbox           |
|  \\    /   O peration     | Version:  2506                                  |
|   \\  /    A nd           | Website:  www.openfoam.com                      |
|    \\/     M anipulation  |                                                 |
\*---------------------------------------------------------------------------*/
FoamFile
{
    version     2.0;
    format      ascii;
    arch        "LSB;label=32;scalar=64";
    class       volVectorField;
    location    "29000/water";
    object      U;
}
// * * * * * * * * * * * * * * * * * * * * * * * * * * * * * * * * * * * * * //

dimensions      [0 1 -1 0 0 0 0];

internalField   nonuniform List<vector> 
6000
(
(0.25028648 -3.4193492e-05 -1.2934021e-18)
(0.25028875 -7.4648813e-05 -5.4663856e-18)
(0.25029344 -0.00011804414 -4.8495445e-19)
(0.25030059 -0.00016540046 4.0969697e-19)
(0.25031046 -0.00021487336 -3.4166737e-19)
(0.25032332 -0.00026685039 -1.6299364e-19)
(0.25033948 -0.00032192175 -1.065914e-19)
(0.25035939 -0.00038078672 1.219344e-19)
(0.25038356 -0.00044434477 -5.1933987e-20)
(0.25041254 -0.00051362452 -3.0744748e-20)
(0.25044587 -0.0005867756 -4.6436837e-20)
(0.25047643 -0.00065822056 1.5822496e-19)
(0.25046276 -0.00078466513 2.4452821e-19)
(0.25013031 -0.0015987837 1.345497e-19)
(0.24584996 0.0019968142 -8.9878646e-20)
(0.25104035 -3.7261305e-05 9.9771371e-19)
(0.25104514 -8.9895981e-05 -2.3372894e-18)
(0.2510558 -0.00014352114 -6.5664848e-19)
(0.25107219 -0.00020025424 4.3019549e-19)
(0.2510947 -0.0002571822 6.6101084e-19)
(0.25112368 -0.00031440571 -1.325186e-19)
(0.25115965 -0.00037188242 -1.948069e-19)
(0.25120324 -0.00042947839 9.6301483e-20)
(0.2512551 -0.00048709454 -2.4828723e-19)
(0.25131538 -0.00054561245 -1.7768648e-19)
(0.25138039 -0.00060405492 -6.0850474e-20)
(0.25142587 -0.00063755822 1.1679262e-19)
(0.25133175 -0.00059164843 3.7929344e-19)
(0.25037931 -0.0014370973 2.2465687e-19)
(0.24194277 0.00099520264 -3.4144997e-20)
(0.25195051 -3.6589029e-05 -1.3591762e-19)
(0.25195563 -9.0250614e-05 4.7565077e-18)
(0.25196731 -0.00014313025 1.2881559e-18)
(0.25198528 -0.00019912656 -1.090912e-18)
(0.25200977 -0.00025508716 3.9567279e-19)
(0.25204101 -0.0003112558 -6.998258e-19)
(0.25207932 -0.00036762123 -7.2765312e-19)
(0.25212505 -0.00042413945 -7.4149139e-19)
(0.25217823 -0.00048056787 -8.6407743e-19)
(0.25223708 -0.00053775721 -3.083644e-19)
(0.25229114 -0.00060007155 -5.0606771e-19)
(0.25229033 -0.00065419843 -4.1308978e-19)
(0.25200573 -0.00054460881 -1.8204016e-19)
(0.25014357 -0.0012195308 -2.4084501e-20)
(0.23758495 0.00043820543 -9.0319608e-20)
(0.25283353 -3.7446604e-05 1.176701e-18)
(0.25283867 -9.3611089e-05 1.4559719e-18)
(0.25285018 -0.00014906892 1.5602715e-18)
(0.25286783 -0.00020791578 -3.1676849e-19)
(0.25289182 -0.00026672308 2.5375653e-19)
(0.25292238 -0.00032582165 -5.3509195e-19)
(0.25295982 -0.00038519269 -5.3254099e-19)
(0.25300432 -0.00044485276 -3.5429981e-19)
(0.25305525 -0.00050441426 -4.5203153e-19)
(0.25310809 -0.00056332944 3.1114318e-19)
(0.25314261 -0.00062607506 -4.8310581e-19)
(0.25307635 -0.00069910336 -3.6207739e-19)
(0.25255493 -0.0005845712 -3.1247729e-19)
(0.24963188 -0.001063787 -7.2493507e-20)
(0.23320285 0.0001058672 -1.0252737e-19)
(0.25372643 -3.8342944e-05 9.8477634e-18)
(0.2537317 -9.6368693e-05 3.4498146e-18)
(0.25374347 -0.00015372841 1.9597844e-18)
(0.25376156 -0.00021453144 1.4210343e-18)
(0.25378616 -0.00027516439 7.7914496e-19)
(0.25381749 -0.00033599427 3.6387313e-19)
(0.25385581 -0.00039694563 1.8881502e-19)
(0.25390101 -0.00045805575 5.0149293e-19)
(0.25395133 -0.00051907431 4.054503e-19)
(0.25399821 -0.00057855465 2.7974446e-19)
(0.25400834 -0.00063773998 5.4947667e-20)
(0.25386022 -0.0007177221 2.4511888e-19)
(0.25305737 -0.00062191548 1.5509383e-20)
(0.24895451 -0.00093835859 1.226754e-19)
(0.22897365 -8.3792339e-05 3.4332337e-20)
(0.25464474 -3.866162e-05 -1.1241406e-18)
(0.25465014 -9.732012e-05 -2.0105032e-18)
(0.2546622 -0.00015516462 7.2955375e-19)
(0.25468073 -0.00021648309 1.6059345e-18)
(0.2547059 -0.00027758565 -2.2340901e-19)
(0.25473792 -0.000338881 3.1422635e-19)
(0.25477689 -0.00040025681 5.6173976e-19)
(0.25482222 -0.000461728 4.4867158e-19)
(0.25487049 -0.00052322808 3.4931927e-19)
(0.2549078 -0.000583188 7.1731407e-20)
(0.25488519 -0.00063896641 2.9760884e-19)
(0.25463685 -0.00071821651 2.6636564e-19)
(0.25350729 -0.0006469875 -4.2268673e-20)
(0.248129 -0.00083894719 7.6690458e-20)
(0.2249409 -0.00018589273 4.9180771e-20)
(0.25557031 -3.8595294e-05 -5.6523772e-18)
(0.25557581 -9.7309347e-05 -5.470931e-18)
(0.25558805 -0.00015511983 -1.8895655e-18)
(0.25560682 -0.00021642527 7.2539631e-19)
(0.2556323 -0.0002774936 -1.0048213e-18)
(0.25566463 -0.00033876345 5.1939355e-19)
(0.25570371 -0.00040009735 7.1226026e-19)
(0.25574825 -0.00046144626 5.7373656e-19)
(0.25579256 -0.00052279714 4.0376374e-19)
(0.25581623 -0.0005828814 1.0342538e-19)
(0.25575267 -0.00063600478 1.9482841e-19)
(0.25538743 -0.00071016267 8.7133975e-20)
(0.25388915 -0.00066107344 2.8714822e-20)
(0.24716598 -0.00076077854 1.2275279e-20)
(0.22112141 -0.00023459296 7.5119542e-20)
(0.25649134 -3.8297107e-05 1.7676608e-18)
(0.25649692 -9.6712129e-05 1.9100419e-18)
(0.25650928 -0.00015419069 1.1120812e-18)
(0.25652824 -0.00021515485 1.6575969e-19)
(0.25655393 -0.00027585718 -1.0857199e-19)
(0.25658641 -0.0003367553 5.9571181e-19)
(0.25662528 -0.00039769653 4.8367459e-19)
(0.2566683 -0.00045856441 2.7408756e-19)
(0.25670691 -0.00051927104 1.2818014e-19)
(0.25671305 -0.00057893859 -2.5552277e-19)
(0.25660095 -0.00063003278 -1.9706119e-20)
(0.25610359 -0.00069722485 8.407306e-20)
(0.25419746 -0.0006651972 1.6990051e-19)
(0.24608527 -0.00069788903 5.1236575e-20)
(0.21752738 -0.00025081848 -2.979873e-20)
(0.25740382 -3.785286e-05 -2.3760627e-18)
(0.25740947 -9.5689495e-05 -7.7910366e-19)
(0.25742193 -0.00015257331 1.4677232e-18)
(0.25744104 -0.00021291359 1.3218838e-18)
(0.25746687 -0.00027297291 1.340999e-18)
(0.25749936 -0.0003332193 5.6688953e-19)
(0.2575377 -0.00039348924 5.095031e-19)
(0.2575784 -0.00045361302 7.990375e-20)
(0.25760945 -0.00051335259 1.8586595e-19)
(0.25759421 -0.00057212214 5.0577992e-19)
(0.25742635 -0.00062159363 1.6526592e-19)
(0.25678237 -0.00068144217 9.4823958e-20)
(0.25443121 -0.00066103685 1.6135146e-19)
(0.24490935 -0.00064561644 8.0371353e-20)
(0.21416513 -0.00024776584 -1.2407383e-19)
(0.25830515 -3.7308639e-05 2.4148702e-18)
(0.25831084 -9.4372771e-05 -1.1682717e-18)
(0.25832339 -0.00015047649 -7.3325002e-19)
(0.2583426 -0.00020999613 1.1321778e-18)
(0.25836849 -0.00026922145 -5.4201923e-20)
(0.25840083 -0.00032862339 1.5295399e-19)
(0.25843826 -0.00038802595 4.4225568e-19)
(0.25847573 -0.00044722018 1.2428709e-19)
(0.25849727 -0.00050579279 2.5639707e-19)
(0.25845683 -0.00056328987 4.1057969e-19)
(0.25822634 -0.00061131676 1.9529188e-19)
(0.25742154 -0.00066417743 2.3037268e-19)
(0.2545896 -0.00065044234 6.793808e-20)
(0.24365871 -0.00060064453 -1.0732888e-20)
(0.21103455 -0.00023378679 7.1576544e-20)
(0.259193 -3.6693881e-05 6.5885988e-18)
(0.25919873 -9.2857461e-05 5.2316608e-18)
(0.25921134 -0.00014806165 -1.4230268e-18)
(0.25923061 -0.00020663289 3.0707569e-20)
(0.25925648 -0.0002648995 5.6110038e-19)
(0.25928848 -0.00032332972 1.1829135e-19)
(0.25932457 -0.00038173097 3.7614547e-19)
(0.25935785 -0.00043986308 4.3134483e-19)
(0.25936788 -0.00049714489 5.850909e-20)
(0.25929853 -0.00055310431 -7.6698468e-20)
(0.2589988 -0.00059970361 1.780439e-19)
(0.25801896 -0.00064623362 1.6463851e-19)
(0.25467145 -0.00063499349 8.1244235e-20)
(0.24235144 -0.00056062195 -2.9929875e-20)
(0.20813122 -0.0002141088 1.1004936e-19)
(0.26006576 -3.6034055e-05 4.4796251e-18)
(0.26007152 -9.1214286e-05 5.4802587e-18)
(0.26008417 -0.00014544281 -5.0397837e-19)
(0.26010346 -0.00020298347 -3.2111104e-19)
(0.26012923 -0.00026021093 3.8927245e-19)
(0.2601607 -0.0003175869 1.5023427e-19)
(0.26019497 -0.00037489796 -9.0976133e-22)
(0.26022303 -0.0004318747 2.9350327e-19)
(0.26021952 -0.00048779067 2.3408363e-19)
(0.26011767 -0.00054204301 -2.5415531e-20)
(0.25974224 -0.00058714002 3.0169434e-19)
(0.25857279 -0.00062806077 1.4757199e-19)
(0.25467557 -0.00061594005 1.0030327e-19)
(0.24100379 -0.00052390611 8.7610047e-20)
(0.20544863 -0.00019196317 -4.1981162e-20)
(0.2609225 -3.5349634e-05 4.1636596e-18)
(0.26092828 -8.9497287e-05 5.3352157e-18)
(0.26094096 -0.00014270541 6.7866492e-19)
(0.26096023 -0.00019916671 -1.5439654e-20)
(0.2609858 -0.00025530722 5.1204656e-19)
(0.2610165 -0.00031157922 6.2687159e-20)
(0.26104844 -0.00036774517 -7.914569e-20)
(0.2610702 -0.00042350434 -1.7099246e-20)
(0.26105114 -0.00047801113 2.1652959e-19)
(0.26091327 -0.00053046086 -1.5823867e-19)
(0.2604557 -0.00057393662 2.1997326e-19)
(0.2590814 -0.00060990566 1.3346009e-19)
(0.2546009 -0.00059424331 1.0800093e-19)
(0.23963056 -0.00048937354 1.5916537e-19)
(0.20297926 -0.00016931833 9.0856821e-22)
(0.26176274 -3.4655539e-05 1.862271e-18)
(0.26176854 -8.7746857e-05 3.1967338e-18)
(0.26178122 -0.00013991377 -3.2037662e-19)
(0.26180042 -0.00019527247 1.7262031e-19)
(0.26182568 -0.00025030306 3.6755337e-19)
(0.26185536 -0.00030544608 8.4872929e-19)
(0.26188442 -0.00036043769 2.9717477e-19)
(0.26189878 -0.00041494197 2.317535e-19)
(0.26186213 -0.00046801763 2.47114e-19)
(0.2616848 -0.00051862213 2.4649802e-20)
(0.26113855 -0.00056034347 6.7797239e-20)
(0.25954316 -0.00059189153 1.0472741e-20)
(0.25444651 -0.0005706321 9.8774349e-20)
(0.23824529 -0.00045627776 9.0150618e-20)
(0.20071509 -0.00014735259 1.7312605e-20)
(0.26258633 -3.3963061e-05 1.8206062e-18)
(0.26259213 -8.5993782e-05 4.5848814e-20)
(0.26260479 -0.00013711719 2.7254506e-18)
(0.26262387 -0.00019136968 7.0154118e-19)
(0.2626487 -0.00024528655 -1.2725137e-18)
(0.26267708 -0.00029929459 7.9022949e-19)
(0.26270267 -0.00035310243 5.2506369e-19)
(0.26270848 -0.00040633486 2.3983731e-19)
(0.26265224 -0.00045797299 2.833622e-19)
(0.26243199 -0.00050672606 2.9797373e-20)
(0.26179026 -0.00054656345 1.7680542e-19)
(0.25995633 -0.0005740675 1.1504836e-19)
(0.25421177 -0.00054566294 1.3636133e-19)
(0.23686046 -0.00042415214 3.4337844e-20)
(0.19864765 -0.0001267576 -8.6522305e-20)
(0.26339335 -3.3281401e-05 4.0979541e-18)
(0.26339915 -8.4262742e-05 3.6392104e-18)
(0.26341177 -0.0001343551 2.791662e-18)
(0.26343068 -0.0001875135 1.3022052e-18)
(0.26345493 -0.00024032822 1.6156758e-18)
(0.26348171 -0.00029321054 2.5409551e-19)
(0.2635032 -0.00034584107 3.6544967e-19)
(0.2634993 -0.00039780175 1.9726576e-19)
(0.26342146 -0.0004480083 1.9517492e-19)
(0.26315482 -0.00049492779 1.8676145e-19)
(0.26241041 -0.00053276479 1.7948394e-19)
(0.26031893 -0.00055643964 1.112149e-19)
(0.2538966 -0.000519773 1.2186048e-19)
(0.23548766 -0.00039274464 6.5769283e-20)
(0.19676807 -0.00010792878 -5.6266711e-20)
(0.26418413 -3.2618313e-05 3.3072404e-18)
(0.26418991 -8.2574227e-05 3.2738638e-18)
(0.26420246 -0.00013166021 7.1579832e-19)
(0.26422112 -0.0001837496 1.1631629e-18)
(0.26424465 -0.00023548649 1.3732742e-18)
(0.2642695 -0.00028726512 3.262777e-19)
(0.26428624 -0.00033873796 2.0607505e-19)
(0.26427145 -0.00038944152 1.51998e-19)
(0.26416998 -0.0004382328 1.1492908e-19)
(0.26385341 -0.00048335173 2.5952185e-19)
(0.26299854 -0.00051908846 1.3422468e-19)
(0.26062878 -0.00053898816 7.1091356e-20)
(0.25350187 -0.00049331965 7.010858e-20)
(0.2341376 -0.00036197184 7.3409985e-20)
(0.19506692 -9.1079357e-05 5.8966534e-20)
(0.26495914 -3.1980325e-05 3.5018131e-18)
(0.2649649 -8.094539e-05 3.2048506e-18)
(0.26497734 -0.00012905989 9.3938534e-19)
(0.26499568 -0.00018011622 1.2365466e-18)
(0.26501831 -0.00023081031 8.5633989e-19)
(0.26504088 -0.00028151807 4.547222e-19)
(0.2650522 -0.00033186392 4.2838731e-19)
(0.2650253 -0.00038133727 1.8904852e-19)
(0.26489816 -0.00042873842 1.7612083e-19)
(0.26452796 -0.00047209828 9.225333e-20)
(0.26355413 -0.00050565096 2.2323472e-19)
(0.2608835 -0.00052167636 7.4234688e-20)
(0.25302971 -0.00046660631 4.4509019e-20)
(0.23282016 -0.00033188327 -1.0666591e-20)
(0.19353413 -7.6303785e-05 9.5798013e-20)
(0.26571903 -3.1372765e-05 4.6401747e-18)
(0.26572475 -7.9390278e-05 2.2654653e-18)
(0.26573705 -0.00012657658 3.9611852e-20)
(0.26575498 -0.00017664472 1.0863775e-18)
(0.26577653 -0.00022633987 6.2857632e-19)
(0.26579644 -0.0002760185 4.4331437e-19)
(0.26580163 -0.0003252772 4.6761153e-19)
(0.26576141 -0.00037355728 3.8607398e-19)
(0.26560652 -0.00041960061 2.4544669e-19)
(0.26517878 -0.00046124611 2.333815e-19)
(0.26407657 -0.00049254343 1.3161034e-19)
(0.26108058 -0.00050445572 1.723425e-20)
(0.25248384 -0.00043989699 6.1128868e-20)
(0.23154421 -0.00030262987 -3.274034e-20)
(0.19215888 -6.3609733e-05 9.4555237e-20)
(0.26646455 -3.0799673e-05 6.5841062e-18)
(0.26647021 -7.7919711e-05 1.0985501e-18)
(0.26648233 -0.00012422759 3.460344e-18)
(0.26649975 -0.0001733593 2.2068845e-18)
(0.26652002 -0.00022210618 -7.1599755e-19)
(0.26653688 -0.0002708044 9.2270849e-19)
(0.26653522 -0.00031902283 8.60837e-19)
(0.26648042 -0.00036615421 1.0521824e-18)
(0.26629564 -0.00041087723 4.8157002e-19)
(0.26580617 -0.00045085191 -7.7290081e-20)
(0.26456508 -0.00047982867 2.7284682e-19)
(0.26121753 -0.00048726982 2.7259225e-19)
(0.25186982 -0.00041342264 3.0305063e-19)
(0.23031742 -0.00027443217 2.7151116e-19)
(0.1909297 -5.2932834e-05 1.9237416e-19)
(0.26719653 -3.0263687e-05 2.6595554e-18)
(0.26720212 -7.6541024e-05 1.0478106e-18)
(0.26721401 -0.00012202465 3.0149791e-18)
(0.26723083 -0.00017027641 1.905499e-18)
(0.2672496 -0.00021813034 8.2110155e-19)
(0.26726299 -0.00026590165 9.3294022e-19)
(0.26725373 -0.0003131315 1.0118391e-18)
(0.26718309 -0.00035916374 7.312424e-19)
(0.26696618 -0.00040260692 2.5063406e-19)
(0.26641044 -0.00044094906 -1.2017834e-19)
(0.26501868 -0.00046753759 2.8113571e-19)
(0.26129202 -0.00047005901 3.9726152e-19)
(0.25119506 -0.00038738325 2.9521499e-19)
(0.2291461 -0.00024754677 2.6784246e-19)
(0.18983455 -4.41451e-05 1.7234646e-19)
(0.26791589 -2.9765992e-05 -3.2823438e-18)
(0.26792138 -7.5257933e-05 7.1043551e-19)
(0.26793299 -0.00011997377 1.7320581e-18)
(0.26794908 -0.00016740449 6.8715557e-19)
(0.26796613 -0.00021442313 1.7954828e-18)
(0.26797562 -0.00026132352 5.6685213e-19)
(0.267958 -0.00030761888 6.5452455e-19)
(0.26787018 -0.00035260382 6.063503e-20)
(0.2676188 -0.00039480805 -2.2338797e-19)
(0.2669918 -0.00043154706 -7.44201e-21)
(0.26543617 -0.00045566687 -8.8010958e-20)
(0.2613021 -0.00045276643 1.9108019e-19)
(0.2504687 -0.00036194908 1.6990112e-19)
(0.22803501 -0.00022223217 3.3088243e-21)
(0.18886112 -3.7064085e-05 -1.1522681e-21)
(0.26862352 -2.9306383e-05 6.1296742e-18)
(0.2686289 -7.4070662e-05 4.9813538e-19)
(0.26864017 -0.00011807532 3.8938533e-18)
(0.26865542 -0.00016474412 2.3124409e-18)
(0.26867049 -0.00021098533 2.0778765e-18)
(0.26867563 -0.000257071 1.8641926e-18)
(0.26864885 -0.00030248606 1.2501798e-18)
(0.26854251 -0.00034647515 9.5705953e-19)
(0.26825414 -0.00038747924 4.2050182e-19)
(0.26755035 -0.00042263245 -3.0109536e-19)
(0.2658161 -0.00044417905 1.3214503e-19)
(0.26124652 -0.00043534493 3.0977203e-19)
(0.24970133 -0.00033726333 3.3285645e-19)
(0.22698727 -0.00019871676 2.4361151e-19)
(0.18799711 -3.1466399e-05 2.3021527e-19)
(0.26932033 -2.8883461e-05 5.4312613e-18)
(0.26932558 -7.2976356e-05 -4.6055503e-19)
(0.26933645 -0.00011632481 5.9811196e-19)
(0.26935072 -0.00016228909 1.8807633e-18)
(0.26936357 -0.0002078089 1.925837e-18)
(0.26936389 -0.00025313433 1.6553216e-18)
(0.26932713 -0.0002977213 1.0050262e-18)
(0.26920083 -0.00034076322 8.9647544e-19)
(0.2688728 -0.00038060159 6.3164373e-19)
(0.26808605 -0.00041417146 8.8115013e-20)
(0.26615679 -0.00043300583 2.4579641e-19)
(0.26112496 -0.00041776402 3.1772196e-19)
(0.24890441 -0.00031344658 2.2322338e-19)
(0.22600436 -0.0001771726 2.3724573e-19)
(0.18723056 -2.7105585e-05 3.0264201e-19)
(0.27000719 -2.8494911e-05 2.8304925e-18)
(0.27001228 -7.1969744e-05 4.0703914e-18)
(0.27002267 -0.00011471384 1.7845507e-18)
(0.27003582 -0.00016002771 2.1844408e-18)
(0.27004618 -0.00020487885 7.7495517e-19)
(0.27004119 -0.00024949516 1.1359718e-18)
(0.2699936 -0.00029330262 1.0283296e-18)
(0.26984584 -0.00033544136 7.4825857e-19)
(0.26947524 -0.00037414208 7.8815644e-19)
(0.2685986 -0.00040611399 2.4931581e-19)
(0.26645635 -0.00042205446 3.1817998e-19)
(0.2609383 -0.00040001524 4.3600214e-19)
(0.24808975 -0.00029060213 3.7909559e-19)
(0.22508629 -0.00015769827 2.9477755e-19)
(0.18655015 -2.3732128e-05 2.4838269e-19)
(0.27068489 -2.8137825e-05 6.3377269e-18)
(0.2706898 -7.1043907e-05 3.3878185e-18)
(0.27069965 -0.00011323138 5.0183482e-18)
(0.27071153 -0.00015794462 3.564445e-18)
(0.2707191 -0.00020217545 9.8336653e-19)
(0.27070829 -0.00024612933 2.0010769e-18)
(0.27064898 -0.00028920108 1.9261353e-18)
(0.27047818 -0.00033047455 1.4837562e-18)
(0.27006181 -0.00036805784 1.3534753e-18)
(0.26908753 -0.00039839812 6.0153427e-20)
(0.26671278 -0.00041121649 5.2929837e-19)
(0.26068881 -0.00038211515 6.8166441e-19)
(0.24726882 -0.00026882041 7.6596836e-19)
(0.22423175 -0.00014031231 6.8692747e-19)
(0.18594537 -2.1112145e-05 3.4069877e-19)
(0.27135418 -2.7809012e-05 6.9267703e-19)
(0.27135887 -7.019104e-05 3.1739633e-18)
(0.2713681 -0.00011186497 3.2977832e-18)
(0.27137855 -0.00015602247 2.4963861e-18)
(0.27138303 -0.00019967637 2.1827438e-18)
(0.27136587 -0.00024300948 1.3763954e-18)
(0.27129391 -0.00028538386 8.8763799e-19)
(0.27109836 -0.00032582299 9.0184606e-19)
(0.27063272 -0.00036230005 5.7486591e-19)
(0.26955206 -0.00039095432 1.3169894e-19)
(0.26692403 -0.00040037783 2.0580784e-19)
(0.26038022 -0.00036410564 3.113595e-19)
(0.24645221 -0.00024818088 4.2414224e-19)
(0.22343841 -0.00012495718 4.8679446e-19)
(0.18540672 -1.9041831e-05 1.3735599e-19)
(0.27201571 -2.7505236e-05 1.0875138e-18)
(0.27202015 -6.9403099e-05 3.7088374e-18)
(0.27202866 -0.00011060176 2.9600788e-18)
(0.27203751 -0.00015424331 2.3519729e-18)
(0.2720386 -0.00019735858 2.2473468e-18)
(0.27201452 -0.00024010733 1.3279097e-18)
(0.27192892 -0.00028181693 9.3889222e-19)
(0.2717068 -0.00032144525 7.3197808e-19)
(0.27118802 -0.00035681747 4.6836952e-19)
(0.2699912 -0.00038370884 2.5222554e-19)
(0.26708822 -0.000389429 3.5874999e-19)
(0.26001771 -0.00034605163 3.5516372e-19)
(0.24564917 -0.00022875086 2.840864e-19)
(0.22270325 -0.00011151162 4.1604935e-19)
(0.18492573 -1.7355844e-05 3.105062e-19)
(0.27267005 -2.7223404e-05 2.1404083e-18)
(0.27267421 -6.8672269e-05 5.3699749e-19)
(0.27268192 -0.00010942927 1.1667007e-18)
(0.27268898 -0.00015258973 1.9261943e-18)
(0.27268634 -0.00019519966 2.3118346e-18)
(0.27265476 -0.00023739527 1.5164527e-18)
(0.27255447 -0.00027846699 1.3063208e-18)
(0.2723038 -0.00031730047 8.3409696e-19)
(0.27172756 -0.00035155884 5.3362213e-19)
(0.27040369 -0.00037658611 7.265899e-19)
(0.26720375 -0.00037827411 3.3196512e-19)
(0.25960771 -0.00032803713 3.0950737e-19)
(0.24486735 -0.00021058183 2.7567551e-19)
(0.22202277 -9.9808139e-05 3.0588033e-19)
(0.18449494 -1.5929485e-05 3.2053387e-19)
(0.27331772 -2.6960667e-05 3.1234672e-18)
(0.27332155 -6.7991275e-05 4.0039084e-18)
(0.27332837 -0.00010833587 2.9958608e-18)
(0.27333345 -0.00015104547 2.2906348e-18)
(0.27332673 -0.00019317869 1.1659344e-18)
(0.27328702 -0.00023484751 1.436366e-18)
(0.27317093 -0.0002753027 1.1899988e-18)
(0.27288957 -0.0003133499 1.0094254e-18)
(0.27225107 -0.00034647443 5.2348711e-19)
(0.27078808 -0.00036951039 7.4393123e-19)
(0.26726952 -0.00036683813 2.7828394e-19)
(0.25915765 -0.0003101602 2.6438072e-19)
(0.24411266 -0.00019370463 4.2249469e-19)
(0.22139331 -8.96524e-05 2.9343183e-19)
(0.1841079 -1.4675688e-05 2.7325773e-19)
(0.27395916 -2.6714475e-05 6.3970953e-18)
(0.27396262 -6.7353542e-05 5.4357535e-18)
(0.27396843 -0.00010731104 5.52202e-18)
(0.27397134 -0.00014959583 3.4901013e-18)
(0.27396016 -0.00019127671 1.2475404e-18)
(0.27391168 -0.00023244055 2.0710338e-18)
(0.2737786 -0.00027229533 1.6942546e-18)
(0.27346419 -0.00030955757 1.4495541e-18)
(0.27275806 -0.00034151676 1.133023e-18)
(0.27114274 -0.00036240703 3.9507135e-19)
(0.26728512 -0.00035507155 7.1190205e-19)
(0.25867552 -0.00029252748 6.2130841e-19)
(0.24338933 -0.0001781252 7.7187869e-19)
(0.22081116 -8.0841191e-05 4.7361405e-19)
(0.18375901 -1.3538667e-05 4.9842237e-19)
(0.27459475 -2.6482589e-05 1.0706957e-18)
(0.2745978 -6.675326e-05 4.1742651e-18)
(0.27460249 -0.0001063455 3.091337e-18)
(0.274603 -0.0001482278 2.749715e-18)
(0.27458699 -0.00018947691 2.5488437e-18)
(0.27452902 -0.00023015345 1.4862868e-18)
(0.27437767 -0.00026941895 1.1950269e-18)
(0.27402763 -0.00030589064 7.1401313e-19)
(0.27324789 -0.00033664079 5.6242762e-19)
(0.27146593 -0.00035520381 3.1331305e-19)
(0.26725094 -0.00034295249 2.8152944e-19)
(0.25816956 -0.00027524859 2.6124565e-19)
(0.24270004 -0.00016382254 2.377346e-19)
(0.22027275 -7.3177108e-05 2.3834303e-19)
(0.18344349 -1.2486088e-05 1.9701644e-19)
(0.27522481 -2.6263072e-05 2.7033917e-18)
(0.27522741 -6.6185368e-05 3.977166e-18)
(0.27523087 -0.00010543114 2.196618e-18)
(0.27522875 -0.00014693 2.5737604e-18)
(0.27520748 -0.00018776456 2.4536572e-18)
(0.2751393 -0.00022796774 1.2210478e-18)
(0.27496829 -0.00026665041 1.1387537e-18)
(0.27457978 -0.00030231921 1.0367091e-18)
(0.27371976 -0.0003318036 6.6441083e-19)
(0.27175586 -0.00034783257 2.676684e-19)
(0.26716832 -0.00033048644 3.0033935e-19)
(0.25764777 -0.0002584306 3.9490061e-19)
(0.24204621 -0.0001507494 2.3708123e-19)
(0.21977469 -6.6478882e-05 2.8025327e-19)
(0.18315725 -1.1501421e-05 1.1042065e-19)
(0.27584964 -2.6054261e-05 3.6165485e-18)
(0.27585173 -6.5645512e-05 2.1842865e-18)
(0.27585383 -0.00010456099 9.0376998e-19)
(0.27584885 -0.00014569263 2.023847e-18)
(0.27582189 -0.00018612688 2.4675894e-18)
(0.2757427 -0.00022586725 1.6474025e-18)
(0.27555052 -0.00026396905 1.2206783e-18)
(0.27512041 -0.00029881616 1.1208424e-18)
(0.27417268 -0.00032696406 9.0798805e-19)
(0.27201082 -0.00034023145 7.4657048e-19)
(0.26703956 -0.00031770398 3.79049e-19)
(0.25711762 -0.00024217267 5.4172877e-19)
(0.24142819 -0.00013883591 4.0118485e-19)
(0.21931381 -6.0587299e-05 2.8105441e-19)
(0.18289682 -1.0577467e-05 1.7945016e-19)
(0.27646948 -2.5854749e-05 3.7660397e-18)
(0.27647102 -6.5129981e-05 4.6032447e-18)
(0.27647162 -0.00010372909 3.1365175e-18)
(0.27646352 -0.0001445073 2.4577791e-18)
(0.2764304 -0.00018455289 1.9872464e-18)
(0.27633935 -0.00022383791 2.0126113e-18)
(0.27612438 -0.00026135648 1.3911462e-18)
(0.27564919 -0.00029535665 1.0314363e-18)
(0.27460555 -0.00032208225 9.0582816e-19)
(0.27222923 -0.0003323472 7.665689e-19)
(0.26686787 -0.00030465719 3.6929305e-19)
(0.25658579 -0.00022656125 4.5641981e-19)
(0.2408456 -0.00012799526 4.8821936e-19)
(0.21888719 -5.5367365e-05 4.0660523e-19)
(0.18265925 -9.7115798e-06 2.308062e-19)
(0.27708455 -2.5663344e-05 5.4254895e-18)
(0.27708548 -6.463563e-05 4.0859276e-18)
(0.27708444 -0.0001029304 5.1341269e-18)
(0.27707294 -0.00014336686 3.4464928e-18)
(0.27703318 -0.00018303314 2.3175215e-18)
(0.27692935 -0.00022186743 2.2321975e-18)
(0.2766898 -0.00025879623 2.0156466e-18)
(0.27616569 -0.00029191777 1.5585095e-18)
(0.27501711 -0.00031711916 1.1920383e-18)
(0.27240981 -0.00032413774 4.4904282e-19)
(0.26665728 -0.00029141517 8.729292e-19)
(0.256058 -0.00021166603 7.7523056e-19)
(0.24029748 -0.00011813047 7.4272244e-19)
(0.21849214 -5.0707641e-05 5.7913554e-19)
(0.18244204 -8.9025323e-06 4.2368277e-19)
(0.27769504 -2.5479044e-05 -5.5312238e-19)
(0.27769529 -6.4159807e-05 4.0618509e-18)
(0.27769247 -0.00010216064 3.3451101e-18)
(0.27767729 -0.00014226521 2.4303705e-18)
(0.27763035 -0.0001815595 2.776365e-18)
(0.27751275 -0.00021994503 1.2401619e-18)
(0.27724666 -0.00025627339 1.3321832e-18)
(0.27666938 -0.00028847796 8.2723247e-19)
(0.275406 -0.00031203634 6.3155953e-19)
(0.27255164 -0.0003155742 4.6998815e-19)
(0.26641246 -0.00027805925 5.9382831e-19)
(0.25553894 -0.0001975371 4.4272432e-19)
(0.23978254 -0.00010914112 2.4734505e-19)
(0.21812621 -4.6517859e-05 1.8962126e-19)
(0.18224308 -8.1488536e-06 2.3567446e-19)
(0.27830111 -2.5301005e-05 4.1176229e-18)
(0.27830062 -6.3700269e-05 4.5256268e-18)
(0.27829586 -0.0001014162 3.1115506e-18)
(0.27827669 -0.00014119716 2.8850507e-18)
(0.278222 -0.00018012494 2.3938364e-18)
(0.27808956 -0.00021806116 1.5251515e-18)
(0.2777948 -0.00025377436 1.2749686e-18)
(0.27715962 -0.0002850166 8.3355434e-19)
(0.27577079 -0.00030679609 5.8697682e-19)
(0.27265429 -0.00030664249 5.0466768e-19)
(0.26613848 -0.00026467813 5.6032619e-19)
(0.2550323 -0.00018420368 4.086933e-19)
(0.23929925 -0.00010092915 4.5699192e-19)
(0.21778713 -4.2725641e-05 4.4640008e-19)
(0.18206056 -7.4481405e-06 2.4803574e-19)
(0.27890291 -2.5128515e-05 2.7567911e-18)
(0.27890162 -6.3255127e-05 5.0371043e-19)
(0.27889474 -0.00010069401 1.3953289e-18)
(0.27887126 -0.00014015826 2.6912431e-18)
(0.27880821 -0.00017872332 2.2376834e-18)
(0.27865976 -0.00021620724 1.5323558e-18)
(0.27833397 -0.00025128651 1.378251e-18)
(0.27763569 -0.00028151345 8.8049885e-19)
(0.27611001 -0.00030136188 6.6176722e-19)
(0.2727179 -0.00029734386 9.3387148e-19)
(0.26584062 -0.00025136317 4.0952745e-19)
(0.25454084 -0.00017167439 4.2548487e-19)
(0.23884602 -9.3403157e-05 5.7284246e-19)
(0.21747286 -3.9273086e-05 5.0511437e-19)
(0.18189296 -6.7970326e-06 2.9055327e-19)
(0.27950056 -2.4960972e-05 -3.2308872e-18)
(0.2794984 -6.2822774e-05 2.9994849e-18)
(0.27948922 -9.9991431e-05 2.0805195e-18)
(0.27946108 -0.00013914466 8.7307555e-19)
(0.279389 -0.00017734922 1.6645635e-18)
(0.27922329 -0.00021437542 6.6371582e-19)
(0.27886389 -0.00024879793 5.4904272e-19)
(0.27809674 -0.00027794828 5.043847e-19)
(0.27642222 -0.00029569921 2.367401e-19)
(0.27274323 -0.00028769474 7.7858647e-19)
(0.2655241 -0.00023820406 1.3854221e-19)
(0.25406651 -0.00015993912 1.4867627e-19)
(0.23842119 -8.648105e-05 1.5855385e-19)
(0.21718151 -3.611361e-05 1.7683391e-20)
(0.18173897 -6.1914722e-06 1.1884658e-19)
(0.28009418 -2.4797856e-05 2.282606e-18)
(0.28009107 -6.2401834e-05 3.4629281e-18)
(0.28007941 -9.9306213e-05 3.5404728e-18)
(0.28004623 -0.00013815299 8.2361946e-19)
(0.27996442 -0.00017599777 1.7580032e-18)
(0.27978006 -0.00021255837 1.1807658e-18)
(0.2793842 -0.00024629715 5.0459661e-19)
(0.27854186 -0.00027430051 6.582958e-19)
(0.27670605 -0.00028977676 3.7832204e-19)
(0.27273166 -0.0002777256 5.5159304e-19)
(0.26519392 -0.00022528491 2.6172581e-19)
(0.25361059 -0.00014897206 3.0576478e-19)
(0.23802316 -8.0091229e-05 1.8677108e-19)
(0.21691137 -3.3209337e-05 1.6072978e-19)
(0.18159747 -5.6270968e-06 1.3245083e-19)
(0.28068388 -2.4638721e-05 4.6264885e-18)
(0.28067974 -6.1991114e-05 3.9786364e-18)
(0.28066539 -9.863637e-05 3.0293917e-18)
(0.28062676 -0.00013718023 1.8545604e-18)
(0.28053445 -0.00017466448 1.8775331e-18)
(0.28032993 -0.00021074911 1.456405e-18)
(0.27989449 -0.00024377295 6.132116e-19)
(0.27897002 -0.0002705489 4.8912664e-19)
(0.27696025 -0.00028356785 4.0393681e-19)
(0.27268518 -0.00026747915 4.4662782e-19)
(0.26485469 -0.00021268092 2.699735e-19)
(0.25317379 -0.00013873548 2.002307e-19)
(0.23765034 -7.4172514e-05 -3.1284932e-20)
(0.2166609 -3.0529027e-05 1.5169172e-19)
(0.18146749 -5.0995628e-06 1.3577712e-19)
(0.28126974 -2.4483172e-05 3.8098267e-18)
(0.28126448 -6.1589565e-05 6.0279586e-18)
(0.28124722 -9.7980134e-05 2.9182008e-18)
(0.28120271 -0.00013622363 8.7782441e-19)
(0.28109907 -0.00017334514 5.7655626e-19)
(0.28087275 -0.00020894082 1.1047838e-19)
(0.28039427 -0.00024121406 -1.2719383e-19)
(0.27938014 -0.0002666715 -1.5878204e-19)
(0.27718382 -0.00027705191 -2.6646937e-20)
(0.27260633 -0.00025700811 1.4399318e-19)
(0.26451052 -0.00020045586 -2.4419202e-19)
(0.25275643 -0.00012918377 -3.0113446e-19)
(0.23730122 -6.8673274e-05 -4.1258737e-19)
(0.21642866 -2.8046559e-05 -3.5090669e-19)
(0.18134818 -4.604812e-06 -5.7540403e-20)
(0.28185185 -2.4330856e-05 3.3004314e-18)
(0.28184539 -6.119625e-05 4.2610178e-18)
(0.28182498 -9.7335906e-05 3.0771285e-18)
(0.28177412 -0.00013528067 8.7875576e-19)
(0.28165823 -0.00017203573 8.6613878e-19)
(0.2814083 -0.00020712676 1.5841119e-19)
(0.28088299 -0.00023860899 -2.8716727e-19)
(0.27977106 -0.0002626457 -1.2787908e-21)
(0.27737601 -0.00027021574 4.6722479e-20)
(0.27249806 -0.00024637257 6.2024113e-20)
(0.26416497 -0.0001886604 -1.7233902e-19)
(0.2523585 -0.00012026722 -1.4567223e-19)
(0.23697438 -6.3550126e-05 -2.3295046e-19)
(0.21621337 -2.5739815e-05 -3.9509692e-19)
(0.18123881 -4.1392033e-06 -7.6451173e-20)
(0.28243029 -2.4181448e-05 3.580989e-18)
(0.28242252 -6.0810308e-05 4.7826881e-18)
(0.28239871 -9.6702197e-05 4.1704341e-18)
(0.28234099 -0.00013434892 2.8251129e-18)
(0.28221186 -0.00017073227 1.8193326e-18)
(0.28193636 -0.00020530013 1.3555064e-18)
(0.28136003 -0.00023594579 4.8299782e-19)
(0.2801416 -0.00025844846 6.1311979e-19)
(0.27753642 -0.00026305461 4.3799952e-19)
(0.27236366 -0.00023563725 2.3275766e-20)
(0.26382105 -0.00017733135 1.8266782e-19)
(0.25197976 -0.00011193519 8.3246115e-20)
(0.23666845 -5.876649e-05 1.5269743e-19)
(0.21601387 -2.358992e-05 7.0171675e-20)
(0.1811387 -3.699598e-06 6.6892483e-20)
(0.28300512 -2.4034647e-05 4.0720429e-18)
(0.28299594 -6.0430938e-05 2.6292621e-18)
(0.28296845 -9.6077596e-05 3.3015362e-18)
(0.28290332 -0.00013342601 2.8851935e-18)
(0.28275987 -0.00016943078 1.8785163e-18)
(0.28245663 -0.00020345398 1.2800012e-18)
(0.28182471 -0.00023321186 7.8287226e-19)
(0.28049056 -0.0002540569 5.9474098e-19)
(0.27766504 -0.00025557285 3.6201645e-19)
(0.27220658 -0.0002248688 2.9707713e-19)
(0.26348123 -0.00016649191 5.8520568e-21)
(0.25161982 -0.00010413863 2.4112025e-20)
(0.23638216 -5.4291232e-05 6.6269429e-20)
(0.21582908 -2.1580659e-05 8.2397181e-20)
(0.18104728 -3.2833415e-06 5.7393103e-20)
(0.2835764 -2.3890166e-05 1.1319363e-18)
(0.28356569 -6.0057378e-05 2.2649186e-18)
(0.28353424 -9.5460737e-05 2.8085614e-18)
(0.2834611 -0.00013250962 2.6889806e-18)
(0.28330215 -0.00016812719 1.9462535e-18)
(0.28296879 -0.00020158114 9.1121845e-19)