/*--------------------------------*- C++ -*----------------------------------*\
| =========                 |                                                 |
| \\      /  F ield         | OpenFOAM: The Open Source CFD Toolbox           |
|  \\    /   O peration     | Version:  2506                                  |
|   \\  /    A nd           | Website:  www.openfoam.com                      |
|    \\/     M anipulation  |                                                 |
\*---------------------------------------------------------------------------*/
FoamFile
{
    version     2.0;
    format      ascii;
    arch        "LSB;label=32;scalar=64";
    class       volScalarField;
    location    "8000/rock";
    object      T;
}
// * * * * * * * * * * * * * * * * * * * * * * * * * * * * * * * * * * * * * //

dimensions      [0 0 0 1 0 0 0];

internalField   nonuniform List<scalar> 
6000
(
315.50136
304.43379
298.74819
295.3512
293.12053
291.55859
290.41295
289.54261
288.86298
288.3204
287.87931
287.51526
287.21096
286.95383
286.73456
286.54608
286.38298
286.241
286.11682
286.00772
285.91154
285.82648
285.75105
285.68397
285.62415
285.57059
285.52234
285.47839
285.43753
285.39798
319.11848
308.34432
302.18575
298.28757
295.64184
293.75139
292.34629
291.26903
290.42222
289.7428
289.18835
288.72936
288.34477
288.01916
287.74103
287.50164
287.29424
287.11354
286.95535
286.81629
286.69363
286.58512
286.48887
286.40329
286.32701
286.2588
286.19752
286.14204
286.09115
286.04352
320.92465
310.89897
304.77109
300.68915
297.81633
295.71042
294.11627
292.87756
291.89399
291.09874
290.44581
289.90268
289.4458
289.05775
288.7254
288.4387
288.18985
287.9727
287.78234
287.61483
287.46694
287.33603
287.21987
287.11661
287.02463
286.94253
286.86903
286.80296
286.74321
286.68871
322.02151
312.674
306.74236
302.64509
299.67249
297.44029
295.71854
294.36099
293.27065
292.38102
291.64526
291.02961
290.50919
290.06539
289.68402
289.3541
289.06704
288.81604
288.59564
288.40141
288.22974
288.07765
287.94264
287.82261
287.71577
287.62057
287.53564
287.45978
287.39193
287.33117
322.7816
313.98711
308.28734
304.25312
301.25749
298.96187
297.16074
295.72051
294.55034
293.58651
292.78315
292.10657
291.53156
291.03898
290.61406
290.24527
289.9235
289.64149
289.39336
289.17433
288.98048
288.80856
288.65585
288.52005
288.39924
288.29173
288.1961
288.11112
288.03572
287.96906
323.35467
315.01016
309.53452
305.59539
302.61979
300.30213
298.45702
296.96281
295.73556
294.71537
293.85838
293.13185
292.51092
291.97644
291.51349
291.11028
290.75742
290.44735
290.17392
289.93212
289.71778
289.52745
289.35825
289.20774
289.07385
288.95484
288.8492
288.75567
288.67318
288.60089
323.81133
315.83992
310.56874
306.73468
303.80183
301.4882
299.62394
298.09754
296.83155
295.77009
294.87177
294.10525
293.44648
292.87667
292.38103
291.94778
291.56743
291.23229
290.93605
290.67354
290.44045
290.23319
290.04875
289.88459
289.73855
289.60881
289.49381
289.39225
289.30306
289.22535
324.1895
316.53403
311.44632
307.71729
304.83827
302.54451
300.67801
299.13546
297.84504
296.75469
295.8255
295.02776
294.33844
293.73936
293.21608
292.75698
292.35263
291.99533
291.67874
291.39759
291.1475
290.92479
290.72638
290.54963
290.39235
290.25263
290.1289
290.01981
289.92426
289.84136
324.5116
317.12878
312.20544
308.57715
305.75651
303.4919
301.63441
300.08726
298.78336
297.67399
296.72262
295.90119
295.18773
294.56485
294.01855
293.53752
293.11249
292.73585
292.40128
292.10351
291.83814
291.60145
291.3903
291.20203
291.03438
290.88543
290.75357
290.63742
290.53585
290.44794
324.79189
317.64812
312.87263
309.33923
306.57799
304.34766
302.50649
300.96292
299.65374
298.53312
297.56667
296.72785
295.99583
295.35397
294.78882
294.28944
293.84681
293.45347
293.10318
292.79074
292.51174
292.26249
292.03981
291.84105
291.6639
291.50644
291.36702
291.24425
291.13698
291.04425
325.03989
318.10856
313.46683
310.02215
307.31942
305.12594
303.30571
301.77142
300.46304
299.3372
298.36136
297.5104
296.76453
296.10788
295.52759
295.0131
294.55568
294.14808
293.7842
293.45891
293.16788
292.90741
292.67437
292.4661
292.28029
292.115
291.96858
291.83962
291.72695
291.62959
325.26226
318.52183
314.00193
310.63999
307.99391
305.83825
304.04178
302.52066
301.21754
300.0911
299.1104
298.25159
297.49583
296.828
296.23579
295.70906
295.23941
294.81978
294.44426
294.10783
293.80624
293.53584
293.29355
293.0767
292.88302
292.71057
292.55767
292.42293
292.30516
292.20336
325.46378
318.89655
314.48828
311.20354
308.61181
306.49396
304.72284
303.21752
301.92288
300.79933
299.81735
298.95416
298.19181
297.51586
296.91452
296.37809
295.89846
295.46883
295.08345
294.73746
294.42667
294.14755
293.89703
293.6725
293.4717
293.2927
293.13383
292.9937
292.8711
292.76504
325.648
319.23919
314.9338
311.7212
309.18136
307.10074
305.35573
303.86791
302.58404
301.46603
300.48555
299.62078
298.85455
298.17305
297.56499
297.02105
296.53344
296.09561
295.70199
295.34785
295.02915
294.7424
294.48462
294.25323
294.04601
293.86105
293.69669
293.55154
293.42439
293.31423
325.81761
319.55471
315.34464
312.19962
309.70919
307.66488
305.9462
304.47692
303.20541
302.09491
301.11808
300.25397
299.48608
298.80118
298.18843
297.63889
297.14505
296.7006
296.30018
295.9392
295.61372
295.32037
295.05621
294.81873
294.60575
294.41537
294.24597
294.09614
293.9647
293.85062
325.97471
319.847
315.72567
312.64411
310.20068
308.19156
306.49907
305.04889
303.79085
302.68929
301.71777
300.85608
300.08835
299.40183
298.78611
298.23258
297.73403
297.28437
296.87842
296.51175
296.18054
295.8815
295.61179
295.36892
295.15078
294.95549
294.78146
294.62729
294.4918
294.37396
326.12098
320.11916
316.08079
313.05895
310.66025
308.68511
307.01841
305.58758
304.34372
303.25212
302.28717
301.4293
300.66317
299.9765
299.35924
298.80312
298.30117
297.84752
297.43718
297.06585
296.72983
296.42594
296.15139
295.90379
295.68104
295.48132
295.30304
295.14484
295.00553
294.88409
326.25775
320.37369
316.41316
313.44769
311.09156
309.14914
307.5077
306.09622
304.86694
303.78604
302.82859
301.97562
301.21227
300.52664
299.90905
299.3515
298.84727
298.39069
297.97693
297.60185
297.26186
296.95386
296.67516
296.4234
296.19656
295.99283
295.81067
295.64872
295.50581
295.38092
326.38613
320.61265
316.72538
313.81322
311.49764
309.58671
307.96988
306.57758
305.36309
304.29336
303.34412
302.49688
301.73722
301.05361
300.43668
299.87868
299.37313
298.91453
298.49822
298.12019
297.77695
297.46551
297.18325
296.92787
296.69738
296.49005
296.30433
296.1389
295.99259
295.86441
326.50704
320.83771
317.01962
314.15797
311.88105
310.00039
308.40748
307.03408
305.83441
304.77617
303.83561
302.99473
302.2395
301.5587
300.94324
300.38561
299.87954
299.41971
299.00159
298.62129
298.27546
297.96117
297.67587
297.41735
297.18364
296.97305
296.78408
296.61542
296.46591
296.33456
326.62124
321.05032
317.29769
314.48401
312.24398
310.3924
308.82268
307.46781
306.2829
305.23628
304.30474
303.4707
302.72044
302.04308
301.42976
300.87319
300.36728
299.90687
299.48758
299.10563
298.75777
298.44115
298.15329
297.89204
297.6555
297.44198
297.25003
297.07836
296.92583
296.79145
326.72938
321.25165
317.56111
314.79307
312.58828
310.76464
309.21736
307.8806
306.71028
305.67534
304.75303
303.92615
303.18131
302.50787
301.89723
301.34228
300.83709
300.37667
299.95676
299.57368
299.22427
298.90578
298.61579
298.35219
298.11314
297.89699
297.70231
297.52784
297.37245
297.23517
326.83201
321.44274
317.81122
315.08665
312.91555
311.11875
309.59317
308.27407
307.11811
306.0948
305.18183
304.36234
303.62323
302.95411
302.34657
301.79369
301.28971
300.82975
300.40967
300.02591
299.67539
299.35542
299.06366
298.79805
298.55679
298.33828
298.1411
297.96402
297.80594
297.66587
326.9296
321.62446
318.04912
315.36602
313.22716
311.45616
309.95154
308.64962
307.50775
306.49597
305.59237
304.78041
304.04725
303.38274
302.77864
302.22821
301.72581
301.26671
300.84686
300.46281
300.11154
299.79044
299.49724
299.22992
298.98672
298.76607
298.5666
298.38709
298.22645
298.08372
327.02257
321.79756
318.27579
315.6323
313.52433
311.77812
310.29375
309.0085
307.88041
306.88001
305.98575
305.18139
304.45435
303.79465
303.19426
302.64656
302.14607
301.68816
301.26887
300.88484
300.53314
300.21122
299.91685
299.64808
299.40318
299.18062
298.97905
298.79726
298.6342
298.48892
327.11126
321.96271
318.49209
315.88648
313.8081
312.08573
310.62091
309.35184
308.2372
307.24798
306.36298
305.56624
304.8454
304.19067
303.59418
303.04946
302.55113
302.09467
301.67622
301.29249
300.94063
300.61814
300.32286
300.05286
299.80647
299.58218
299.37867
299.19477
299.02941
298.88167
327.19598
322.12047
318.69876
316.12941
314.07941
312.37997
310.93401
309.68062
308.57909
307.60083
306.72498
305.93583
305.22123
304.57157
303.97913
303.43755
302.94158
302.48679
302.06941
301.68622
301.33442
301.01159
300.7156
300.44458
300.19688
299.97104
299.76575
299.57986
299.41232
299.26223
327.27702
322.27136
318.89645
316.36184
314.33909
312.66171
311.23395
309.99575
308.90696
307.93942
307.07257
306.29094
305.58259
304.93806
304.34976
303.81147
303.31802
302.86507
302.44894
302.06647
301.71493
301.39195
301.09544
300.82357
300.57473
300.34749
300.14055
299.95279
299.78319
299.63083
327.35461
322.41583
319.08575
316.58446
314.58787
312.93171
311.52151
310.29801
309.22161
308.26454
307.40652
306.63232
305.93018
305.2908
304.70671
304.17179
303.68097
303.23001
302.81528
302.4337
302.08258
301.75961
301.46273
301.19017
300.94034
300.71182
300.50337
300.31386
300.14228
299.98775
327.42897
322.55428
319.26718
316.79786
314.82641
313.19068
311.79742
310.58814
309.52377
308.57689
307.72752
306.96065
306.26466
305.63041
305.05055
304.51907
304.03098
303.58211
303.16891
302.78834
302.43777
302.11494
301.81784
301.54472
301.29401
301.06435
300.85448
300.66332
300.48988
300.33326
327.50029
322.68707
319.44121
317.00258
315.0553
313.43924
312.06232
310.8668
309.8141
308.87714
308.03623
307.27653
306.58662
305.95748
305.38186
304.85385
304.36854
303.92184
303.51025
303.1308
302.7809
302.45833
302.16112
301.88755
301.63608
301.40537
301.1942
301.00149
300.82626
300.66763
327.56875
322.81452
319.60826
317.19912
315.27508
313.67796
312.31682
311.13459
310.09319
309.16589
308.33323
307.58057
306.89664
306.27254
305.70114
305.17661
304.69413
304.24965
303.83975
303.4615
303.11236
302.79014
302.49292
302.21899
301.96687
301.73521
301.52282
301.32864
301.15171
300.99115
327.6345
322.93692
319.7687
317.38792
315.48624
313.90737
312.56143
311.39207
310.36162
309.44369
308.61906
307.87329
307.19522
306.57611
306.0089
305.48784
305.0082
304.56598
304.15782
303.78083
303.43252
303.11073
302.81358
302.53939
302.28669
302.05416
301.84064
301.64508
301.46651
301.3041
327.69768
323.05455
319.9229
317.56938
315.68922
314.12793
312.79667
311.63973
310.61989
309.71106
308.89425
308.15519
307.48288
306.86866
306.30559
305.78799
305.31118
304.87124
304.46485
304.08917
303.74175
303.42046
303.12345
302.84907
302.59586
302.36255
302.14797
301.95109
301.77097
301.60677
327.75844
323.16765
320.07116
317.74387
315.88443
314.34009
313.02299
311.87805
310.86848
309.96847
309.15927
308.42675
307.76007
307.15065
306.59165
306.07747
305.60349
305.16584
304.76125
304.38691
304.04042
303.71968
303.42286
303.14835
302.89471
302.66067
302.4451
302.24698
302.06537
301.89945
327.81688
323.27644
320.21377
317.91173
316.07225
314.54424
313.2408
312.10746
311.10782
310.21637
309.41455
308.68841
308.02722
307.42251
306.86751
306.35671
305.88553
305.45016
305.04736
304.67439
304.32887
304.00872
303.71214
303.43755
303.18353
302.94883
302.73233
302.53302
302.34999
302.18242
327.87311
323.38112
320.35101
318.07327
316.25302
314.74075
313.4505
312.32836
311.33833
310.45517
309.66052
308.94058
308.28474
307.68463
307.13356
306.62607
306.15766
305.72456
305.32357
304.95197
304.60743
304.28791
303.99161
303.71699
303.46264
303.22733
303.00996
302.80952
302.62513
302.45596
327.92725
323.48189
320.48312
318.22879
316.42706
314.92997
313.65244
312.54112
311.56039
310.68526
309.89756
309.18364
308.53301
307.9374
307.39017
306.88594
306.42026
305.98939
305.5902
305.21999
304.87645
304.55757
304.26159
303.98697
303.73233
303.49646
303.27827
303.07676
302.89106
302.72035
327.97938
323.57892
320.61034
318.37856
316.59467
315.11222
313.84697
312.7461
311.77435
310.90699
310.12603
309.41797
308.77241
308.18117
307.6377
307.13667
306.67366
306.24501
305.84759
305.47876
305.13623
304.81801
304.52238
304.24779
303.9929
303.75651
303.53754
303.33501
303.14805
302.97587
328.02959
323.67238
320.73287
318.52282
316.75614
315.2878
314.0344
312.94363
311.98056
311.12072
310.3463
309.64391
309.00328
308.4163
307.8765
307.37858
306.91821
306.49173
306.09607
305.72861
305.38709
305.06955
304.77427
304.49974
304.24464
304.00777
303.78806
303.58456
303.39639
303.22278
328.07797
323.76241
320.85093
318.66181
316.91172
315.45699
314.21502
313.134
312.17933
311.32677
310.55867
309.86179
309.22594
308.64311
308.10688
307.61201
307.15421
306.72987
306.33594
305.96984
305.62932
305.31246
305.01755
304.74311
304.48782
304.2505
304.0301
303.82566
303.63634
303.46136
328.12458
323.84917
320.96469
318.79575
317.06165
315.62006
314.38912
313.31751
312.37095
311.52543
310.76346
310.07192
309.44071
308.86191
308.32915
307.83726
307.38197
306.95972
306.5675
306.20273
305.86322
305.54703
305.25251
304.97818
304.72272
304.48498
304.26392
304.0586
303.86816
303.69186
328.16951
323.93279
321.07433
318.92485
317.20617
315.77724
314.55695
313.49443
312.55572
311.717
310.96095
310.27458
309.64789
309.073
308.54362
308.05463
307.60179
307.18158
306.79103
306.42758
306.08905
305.77355
305.47942
305.2052
304.9496
304.71147
304.48979
304.28361
304.09211
303.91453
328.21282
324.0134
321.18002
319.0493
317.34549
315.92878
314.71877
313.66503
312.73389
311.90175
311.15144
310.47008
309.84775
309.27666
308.75056
308.26439
307.81394
307.39573
307.00681
306.64466
306.30711
305.99228
305.69855
305.42446
305.16873
304.93024
304.70795
304.50096
304.30844
304.12962
328.25457
324.0911
321.28191
319.16928
317.47982
316.0749
314.8748
313.82954
312.90571
312.07993
311.33517
310.65866
310.04056
309.47316
308.95025
308.46681
308.0187
307.60244
307.21511
306.85422
306.51763
306.20348
305.91014
305.63619
305.38036
305.14152
304.91867
304.7109
304.51738
304.33738
328.29483
324.16603
321.38016
319.28497
317.60934
316.2158
315.02528
313.98819
313.07144
312.25181
311.51241
310.84059
310.22659
309.66276
309.14294
308.66217
308.21632
307.80196
307.41619
307.05654
306.72089
306.4074
306.11446
305.84065
305.58472
305.34556
305.12217
304.91365
304.71918
304.53804
328.33365
324.23828
321.4749
319.39654
317.73425
316.35168
315.1704
314.14122
313.23129
312.4176
311.68339
311.01611
310.40608
309.8457
309.32889
308.8507
308.40705
307.99454
307.61028
307.25185
306.91712
306.60428
306.31173
306.03807
305.78206
305.5426
305.31869
305.10945
304.91407
304.73182
328.37108
324.30795
321.56627
319.50413
317.85472
316.48274
315.31037
314.28882
313.38548
312.57753
311.84835
311.18545
310.57926
310.02223
309.50833
309.03265
308.59113
308.18041
307.79764
307.44039
307.10656
306.79436
306.5022
306.2287
305.97262
305.73287
305.50847
305.29854
305.10227
304.91896
328.40719
324.37515
321.65439
319.60791
317.97092
316.60915
315.44539
314.4312
313.53423
312.73183
312.00749
311.34884
310.74637
310.19258
309.6815
309.20824
308.7688
308.35983
307.97849
307.62239
307.28944
306.97787
306.6861
306.41275
306.1566
305.91658
305.69171
305.48112
305.28401
305.09966
328.44201
324.43996
321.73938
319.708
318.08299
316.73109
315.57563
314.56855
313.67773
312.88068
312.16103
311.50648
310.9076
310.35696
309.8486
309.3777
308.94027
308.53299
308.15305
307.79807
307.46599
307.15502
306.86363
306.59044
306.33424
306.09396
305.86864
305.65741
305.45948
305.27415
328.4756
324.50248
321.82136
319.80455
318.1911
316.84871
315.70127
314.70105
313.81617
313.02429
312.30916
311.65859
311.06318
310.51557
310.00986
309.54124
309.10576
308.70012
308.32154
307.96765
307.6364
307.32604
307.03502
306.76198
306.50574
306.26521
306.03946
305.82761
305.6289
305.44261
328.50799
324.56278
321.90044
319.89768
318.29539
316.96218
315.82247
314.82887
313.94972
313.16284
312.45209
311.80535
311.21331
310.66863
310.16548
309.69907
309.26548
308.86143
308.48417
308.13133
307.8009
307.49112
307.20046
306.92758
306.6713
306.43054
306.20437
305.99194
305.79246
305.60525
328.53924
324.62094
321.97672
319.98752
318.39599
317.07164
315.93939
314.95219
314.07858
313.29652
312.58999
311.94696
311.35816
310.81633
310.31564
309.85137
309.41961
309.01711
308.64112
308.28931
307.95967
307.65046
307.36016
307.08744
306.83112
306.59014
306.36358
306.15057
305.95037
305.76227
328.56937
324.67705
322.0503
320.07418
318.49304
317.17723
316.05219
315.07116
314.20289
313.42549
312.72304
312.08359
311.49793
310.95885
310.46055
309.99835
309.56836
309.16735
308.7926
308.44179
308.11292
307.80426
307.51431
307.24174
306.98539
306.7442
306.51725
306.30371
306.1028
305.91384
328.59844
324.73117
322.12128
320.15778
318.58665
317.2791
316.16101
315.18593
314.32282
313.54993
312.85142
312.21542
311.6328
311.09637
310.60038
310.14018
309.7119
309.31234
308.93879
308.58895
308.26082
307.9527
307.66309
307.39068
307.1343
306.89291
306.6656
306.45152
306.24993
306.06015
328.62648
324.78338
322.18975
320.23843
318.67697
317.37736
316.26599
315.29666
314.43853
313.66998
312.97527
312.34261
311.76292
311.22906
310.73531
310.27704
309.85042
309.45226
309.07987
308.73096
308.40356
308.09596
307.80669
307.53442
307.27802
307.03644
306.80877
306.59419
306.39195
306.20136
328.65352
324.83373
322.2558
320.31622
318.76409
317.47216
316.36726
315.40348
314.55016
313.7858
313.09477
312.46533
311.88847
311.35708
310.8655
310.4091
309.98408
309.58728
309.21602
308.86801
308.54131
308.23422
307.94527
307.67315
307.41672
307.17496
306.94696
306.73189
306.52902
306.33766
328.6796
324.88231
322.31951
320.39126
318.84813
317.56361
316.46496
315.50653
314.65785
313.89753
313.21005
312.58373
312.0096
311.48061
310.99111
310.53652
310.11306
309.71756
309.34739
309.00026
308.67424
308.36764
308.079
307.80703
307.55058
307.30865
307.08032
306.86478
306.6613
306.4692
328.70475
324.92916
322.38097
320.46365
318.92919
317.65183
316.5592
315.60594
314.76173
314.00533
313.32127
312.69796
312.12647
311.59979
311.11231
310.65946
310.2375
309.84327
309.47414
309.12787
308.80251
308.49639
308.20805
307.93622
307.67976
307.43766
307.20901
306.99302
306.78895
306.59614
328.72901
324.97434
322.44024
320.53347
319.00739
317.73692
316.65011
315.70184
314.86195
314.10931
313.42856
312.80815
312.23921
311.71477
311.22923
310.77808
310.35756
309.96456
309.59645
309.25099
308.92627
308.62061
308.33258
308.06088
307.8044
307.56214
307.3332
307.11677
306.91214
306.71863
328.7524
325.01792
322.49741
320.60081
319.08281
317.819
316.7378
315.79434
314.95862
314.20962
313.53206
312.91445
312.34797
311.82568
311.34203
310.8925
310.47338
310.08157
309.71444
309.36978
309.04568
308.74047
308.45272
308.18116
307.92467
307.68225
307.45302
307.23617
307.03099
306.83682
328.77494
325.05995
322.55255
320.66576
319.15555
317.89816
316.82238
315.88356
315.05186
314.30637
313.63189
313.01699
312.45288
311.93268
311.45084
311.00289
310.58512
310.19445
309.82828
309.48439
309.16088
308.8561
308.56863
308.2972
308.0407
307.79813
307.56862
307.35137
307.14567
306.95085
328.79668
325.10047
322.60572
320.7284
319.22571
317.97451
316.90395
315.96961
315.14179
314.3997
313.72818
313.11589
312.55408
312.03588
311.5558
311.10937
310.69291
310.30334
309.93809
309.59494
309.27201
308.96765
308.68045
308.40915
308.15263
307.90993
307.68015
307.46251
307.2563
307.06086
328.81764
325.13955
322.65699
320.78881
319.29337
318.04814
316.98263
316.0526
315.22853
314.4897
313.82105
313.21128
312.65168
312.13543
311.65704
311.21208
310.79687
310.40838
310.04401
309.70158
309.3792
309.07525
308.78831
308.51713
308.26061
308.01777
307.78774
307.56972
307.36302
307.16698
328.83784
325.17723
322.70643
320.84706
319.35862
318.11915
317.05849
316.13263
315.31217
314.5765
313.91062
313.30328
312.74582
312.23143
311.75468
311.31113
310.89715
310.50968
310.14617
309.80443
309.4826
309.17904
308.89235
308.62129
308.36476
308.12179
307.89151
307.67313
307.46596
307.26935
328.8573
325.21355
322.7541
320.90322
319.42153
318.18761
317.13165
316.20981
315.39283
314.6602
313.99699
313.39199
312.83659
312.32401
311.84884
311.40666
310.99385
310.60738
310.24469
309.90363
309.58231
309.27914
308.99269
308.72175
308.46521
308.22212
307.99159
307.77287
307.56524
307.36807
328.87606
325.24857
322.80006
320.95737
319.48218
318.25363
317.20218
316.28422
315.4706
314.74091
314.08027
313.47754
312.92412
312.41329
311.93964
311.49878
311.0871
310.70159
310.3397
309.99928
309.67847
309.37566
309.08946
308.81863
308.56208
308.31887
308.08811
307.86905
307.66099
307.46328
328.89414
325.28232
322.84436
321.00957
319.54065
318.31727
317.27018
316.35596
315.54558
314.81872
314.16056
313.56001
313.00852
312.49937
312.02718
311.5876
311.17701
310.79243
310.43131
310.09152
309.77119
309.46874
309.18276
308.91204
308.65549
308.41216
308.18119
307.9618
307.75331
307.55509
328.91155
325.31484
322.88706
321.05988
319.59702
318.37862
317.33574
316.42512
315.61787
314.89373
314.23797
313.63953
313.08988
312.58235
312.11158
311.67323
311.2637
310.88001
310.51964
310.18045
309.86059
309.55848
309.27272
309.00211
308.74555
308.50211
308.27092
308.05123
307.84233
307.64361
328.92832
325.34618
322.92821
321.10838
319.65135
318.43775
317.39892
316.49178
315.68754
314.96604
314.31259
313.71617
313.16831
312.66235
312.19294
311.75577
311.34726
310.96444
310.60479
310.26617
309.94677
309.64499
309.35945
309.08893
308.83238
308.58883
308.35743
308.13744
307.92815
307.72895
328.94447
325.37638
322.96786
321.15511
319.7037
318.49474
317.45982
316.55603
315.7547
315.03573
314.38451
313.79005
313.24391
312.73945
312.27136
311.83534
311.42781
311.04582
310.68686
310.34881
310.02984
309.72838
309.44304
309.17263
308.91607
308.67241
308.44082
308.22054
308.01087
307.81121
328.96002
325.40547
323.00607
321.20014
319.75415
318.54965
317.5185
316.61794
315.81941
315.10289
314.45381
313.86124
313.31676
312.81375
312.34694
311.91202
311.50543
311.12424
310.76595
310.42845
310.1099
309.80875
309.52361
309.25329
308.99673
308.75298
308.5212
308.30063
308.0906
307.89049
328.97499
325.4335
323.04288
321.24352
319.80276
318.60256
317.57504
316.67759
315.88176
315.1676
314.52059
313.92984
313.38695
312.88535
312.41977
311.9859
311.58023
311.19982
310.84217
310.50519
310.18705
309.88619
309.60125
309.33102
309.07446
308.83061
308.59865
308.37781
308.16743
307.96689
328.9894
325.46048
323.07833
321.28531
319.84958
318.65353
317.62951
316.73506
315.94183
315.22995
314.58493
313.99593
313.45458
312.95434
312.48993
312.05709
311.6523
311.27263
310.91561
310.57913
310.26138
309.96081
309.67605
309.40592
309.14935
308.90541
308.67327
308.45218
308.24146
308.04051
329.00327
325.48646
323.11247
321.32556
319.89468
318.70262
317.68197
316.79042
315.99969
315.29
314.6469
314.05959
313.51973
313.02078
312.55751
312.12566
311.72172
311.34277
310.98635
310.65035
310.33298
310.03269
309.74811
309.47806
309.22149
308.97747
308.74516
308.52381
308.31277
308.11142
329.01661
325.51148
323.14534
321.36431
319.9381
318.7499
317.73249
316.84372
316.05542
315.34783
314.70658
314.1209
313.58247
313.08478
312.62261
312.19171
311.78858
311.41033
311.05448
310.71895
310.40195
310.10192
309.81752
309.54755
309.29098
309.04687
308.81439
308.59281
308.38146
308.17972
329.02944
325.53555
323.17698
321.40162
319.97991
318.79541
317.78114
316.89505
316.10907
315.40351
314.76405
314.17993
313.64288
313.1464
312.68528
312.2553
311.85297
311.47538
311.12009
310.78501
310.46836
310.16859
309.88435
309.61447
309.35789
309.1137
308.88107
308.65926
308.4476
308.24549
329.04178
325.55872
323.20743
321.43753
320.02015
318.83923
317.82796
316.94446
316.16072
315.45712
314.81938
314.23677
313.70105
313.20573
312.74563
312.31653
311.91495
311.53801
311.18325
310.84861
310.5323
310.23277
309.9487
309.67889
309.42231
309.17804
308.94526
308.72323
308.51128
308.30882
329.05364
325.58101
323.23673
321.47208
320.05888
318.88139
317.87303
316.99201
316.21043
315.50871
314.87262
314.29147
313.75702
313.26283
312.80371
312.37546
311.97461
311.59829
311.24405
310.90982
310.59384
310.29455
310.01063
309.7409
309.48432
309.23998
309.00705
308.7848
308.57258
308.36977
329.06505
325.60244
323.26492
321.50533
320.09614
318.92196
317.91639
317.03777
316.25826
315.55836
314.92386
314.3441
313.81089
313.31777
312.8596
312.43216
312.03202
311.6563
311.30255
310.96873
310.65306
310.354
310.07023
309.80057
309.54399
309.29958
309.06651
308.84406
308.63156
308.42843
329.076
325.62305
323.29203
321.5373
320.13198
318.96099
317.9581
317.08178
316.30427
315.60612
314.97315
314.39474
313.86271
313.37063
312.91336
312.48672
312.08725
311.7121
311.35884
311.0254
310.71003
310.4112
310.12757
309.85798
309.6014
309.35692
309.12372
308.90107
308.68831
308.48486
329.08652
325.64286
323.31809
321.56805
320.16644
318.99851
317.99821
317.12411
316.34852
315.65205
315.02055
314.44344
313.91255
313.42147
312.96507
312.53919
312.14037
311.76577
311.41297
311.07991
310.76483
310.46621
310.18272
309.9132
309.65662
309.41207
309.17874
308.9559
308.74289
308.53913
329.09662
325.66189
323.34314
321.5976
320.19957
319.03458
318.03677
317.1648
316.39106
315.6962
315.06612
314.49026
313.96046
313.47035
313.01479
312.58963
312.19145
311.81738
311.46502
311.13232
310.81752
310.5191
310.23575
309.96629
309.70971
309.46509
309.23164
309.00862
308.79537
308.59132
329.10632
325.68018
323.36721
321.62599
320.2314
319.06925
318.07383
317.20391
316.43195
315.73864
315.10992
314.53526
314.00652
313.51732
313.06257
312.63812
312.24054
311.86698
311.51504
311.18269
310.86816
310.56994
310.28671
310.01732
309.76074
309.51606
309.28249
309.05929
308.84582
308.64148
329.11562
325.69774
323.39032
321.65327
320.26198
319.10255
318.10943
317.24148
316.47123
315.77941
315.15201
314.57849
314.05076
313.56246
313.10849
312.6847
312.2877
311.91463
311.56311
311.23109
310.91682
310.61879
310.33568
310.06635
309.80977
309.56504
309.33135
309.10798
308.89429
308.68968
329.12454
325.71459
323.41251
321.67946
320.29135
319.13453
318.14361
317.27756
316.50895
315.81857
315.19242
314.62001
314.09326
313.60581
313.15258
312.72945
312.333
311.96041
311.60928
311.27757
310.96355
310.66571
310.38272
310.11344
309.85686
309.61207
309.37827
309.15475
308.94084
308.73597
329.13309
325.73076
323.43381
321.70459
320.31953
319.16523
318.17643
317.31219
316.54516
315.85616
315.23122
314.65987
314.13405
313.64742
313.19491
312.7724
312.37649
312.00435
311.6536
311.3222
311.00842
310.71075
310.42788
310.15866
309.90208
309.65723
309.42333
309.19964
308.98554
308.78042
329.14128
325.74626
323.45424
321.7287
320.34657
319.19468
318.20792
317.34543
316.57991
315.89223
315.26845
314.69812
314.1732
313.68736
313.23554
312.81362
312.41822
312.04652
311.69613
311.36503
311.05148
310.75397
310.47121
310.20205
309.94546
309.70057
309.46656
309.24273
309.02843
308.82307
329.14912
325.76112
323.47382
321.75182
320.3725
319.22293
318.23811
317.3773
316.61323
315.92682
315.30416
314.73481
314.21075
313.72566
313.2745
312.85316
312.45825
312.08697
311.73692
311.40611
311.09277
310.79543
310.51278
310.24366
309.98708
309.74214
309.50804
309.28406
309.06957
308.86398
329.15662
325.77535
323.49258
321.77398
320.39735
319.25
318.26706
317.40785
316.64517
315.95998
315.33838
314.76997
314.24674
313.76238
313.31185
312.89106
312.49663
312.12574
311.77603
311.44548
311.13237
310.83518
310.55263
310.28356
310.02698
309.78199
309.54779
309.32368
309.10901
308.9032
329.1638
325.78898
323.51055
321.7952
320.42115
319.27592
318.29478
317.43711
316.67577
315.99174
315.37117
314.80367
314.28122
313.79755
313.34763
312.92737
312.53339
312.16289
311.8135
311.48321
311.1703
310.87326
310.5908
310.32179
310.06521
309.82017
309.58589
309.36164
309.1468
308.94078
329.17066
325.80202
323.52775
321.81551
320.44394
319.30075
318.32132
317.46513
316.70507
316.02216
315.40257
314.83592
314.31424
313.83124
313.3819
312.96214
312.56859
312.19846
311.84938
311.51934
311.20662
310.90973
310.62736
310.35839
310.10181
309.85673
309.62236
309.39799
309.18298
308.97676
329.1772
325.81448
323.54419
321.83493
320.46573
319.32449
318.34671
317.49193
316.7331
316.05126
315.4326
314.86678
314.34583
313.86346
313.41468
312.9954
312.60227
312.2325
311.88371
311.55391
311.24137
310.94462
310.66234
310.39341
310.13683
309.89171
309.65726
309.43277
309.21761
309.01119
329.18345
325.82638
323.5599
321.8535
320.48656
319.34719
318.37099
317.51755
316.75989
316.07907
315.46132
314.89629
314.37603
313.89427
313.44602
313.02721
312.63448
312.26504
311.91653
311.58696
311.2746
310.97798
310.69579
310.4269
310.17032
309.92516
309.69063
309.46603
309.25071
309.04412
329.1894
325.83774
323.57491
321.87123
320.50646
319.36887
318.39417
317.54203
316.78549
316.10565
315.48875
314.92448
314.40488
313.92371
313.47596
313.05759
312.66524
312.29613
311.94789
311.61854
311.30635
311.00985
310.72774
310.4589
310.20232
309.95712
309.72252
309.4978
309.28234
309.07557
329.19507
325.84858
323.58922
321.88814
320.52544
319.38955
318.41629
317.56539
316.80991
316.13101
315.51493
314.95138
314.43241
313.9518
313.50454
313.0866
312.69461
312.3258
311.97782
311.64868
311.33665
311.04027
310.75824
310.48943
310.23286
309.98762
309.75295
309.52813
309.31254
309.10559
329.20046
325.85889
323.60285
321.90426
320.54353
319.40927
318.43739
317.58765
316.8332
316.15519
315.5399
314.97703
314.45867
313.97859
313.5318
313.11425
312.72261
312.3541
312.00636
311.67742
311.36555
311.06928
310.78733
310.51856
310.26198
310.01671
309.78197
309.55705
309.34133
309.13422
329.20557
325.86871
323.61583
321.91961
320.56076
319.42805
318.45747
317.60886
316.85538
316.17822
315.56367
315.00146
314.48368
314.0041
313.55775
313.14059
312.74928
312.38105
312.03355
311.70479
311.39307
311.09692
310.81503
310.5463
310.28972
310.04442
309.80962
309.5846
309.36875