/*--------------------------------*- C++ -*----------------------------------*\
| =========                 |                                                 |
| \\      /  F ield         | OpenFOAM: The Open Source CFD Toolbox           |
|  \\    /   O peration     | Version:  2506                                  |
|   \\  /    A nd           | Website:  www.openfoam.com                      |
|    \\/     M anipulation  |                                                 |
\*---------------------------------------------------------------------------*/
FoamFile
{
    version     2.0;
    format      ascii;
    arch        "LSB;label=32;scalar=64";
    class       volScalarField;
    location    "17000/water";
    object      epsilon;
}
// * * * * * * * * * * * * * * * * * * * * * * * * * * * * * * * * * * * * * //

dimensions      [0 2 -3 0 0 0 0];

internalField   nonuniform List<scalar> 
2600
(
8.8079773e-05
8.8079245e-05
8.8079271e-05
8.807949e-05
8.8079744e-05
8.8080245e-05
8.8082926e-05
8.8104349e-05
8.8272771e-05
8.9512908e-05
9.8428186e-05
0.00017145296
0.0010138716
6.7789348e-05
6.7791881e-05
6.7793339e-05
6.7794963e-05
6.7796901e-05
6.7799886e-05
6.7810178e-05
6.7875511e-05
6.8312468e-05
7.1039872e-05
8.7857083e-05
0.00021159534
0.0014669324
5.3500886e-05
5.3503148e-05
5.3504846e-05
5.3506859e-05
5.3509287e-05
5.3513643e-05
5.3532992e-05
5.3656306e-05
5.4399641e-05
5.8506995e-05
8.1500797e-05
0.00023956052
0.0017068244
4.3127504e-05
4.3128883e-05
4.3130503e-05
4.3132598e-05
4.3135149e-05
4.3140834e-05
4.3171684e-05
4.3362646e-05
4.4413342e-05
4.9710824e-05
7.7552644e-05
0.00025818579
0.0017816909
3.539909e-05
3.5400132e-05
3.5401605e-05
3.5403513e-05
3.5405834e-05
3.5412916e-05
3.5457613e-05
3.5722605e-05
3.7073304e-05
4.3450503e-05
7.5629285e-05
0.00027290618
0.0017622817
2.9510599e-05
2.9511446e-05
2.95127e-05
2.9514227e-05
2.9516143e-05
2.9525119e-05
2.9586798e-05
2.9933924e-05
3.159515e-05
3.9095388e-05
7.5939385e-05
0.00028837858
0.0017002497
2.4935213e-05
2.4935877e-05
2.4936847e-05
2.4937875e-05
2.4939416e-05
2.4951342e-05
2.503458e-05
2.5477125e-05
2.7489448e-05
3.6318413e-05
7.8818158e-05
0.0003073199
0.0016256765
2.1318423e-05
2.1318913e-05
2.1319549e-05
2.132003e-05
2.1321464e-05
2.1338095e-05
2.144948e-05
2.2008273e-05
2.4447975e-05
3.4968795e-05
8.4593389e-05
0.00033066897
0.0015541994
1.8415642e-05
1.8415958e-05
1.8416233e-05
1.8416208e-05
1.8418091e-05
1.8442025e-05
1.8590687e-05
1.9295945e-05
2.2279378e-05
3.5010665e-05
9.3512814e-05
0.00035786641
0.0014930959
1.6054297e-05
1.6054439e-05
1.6054351e-05
1.6053968e-05
1.6057197e-05
1.6092028e-05
1.6290179e-05
1.7183376e-05
2.0872546e-05
3.6486908e-05
0.00010564207
0.00038720676
0.0014449141
1.411016e-05
1.4110129e-05
1.4109712e-05
1.4109249e-05
1.4115119e-05
1.4165612e-05
1.4429188e-05
1.5565379e-05
2.0175367e-05
3.9486471e-05
0.00012074249
0.00041640751
0.0014094648
1.249217e-05
1.2491978e-05
1.249131e-05
1.24912e-05
1.2501471e-05
1.2573786e-05
1.2923263e-05
1.4374121e-05
2.0181311e-05
4.4103574e-05
0.00013819401
0.00044331751
0.0013850187
1.1132483e-05
1.1132152e-05
1.1131368e-05
1.1132227e-05
1.1149209e-05
1.1251189e-05
1.1712642e-05
1.3570321e-05
2.0918928e-05
5.0386672e-05
0.00015703479
0.00046647967
0.0013691707
9.9797899e-06
9.9793621e-06
9.9786681e-06
9.9813266e-06
1.0007987e-05
1.0149541e-05
1.0756002e-05
1.3137755e-05
2.2440689e-05
5.8285038e-05
0.00017613324
0.00048532287
0.0013594869
8.994766e-06
8.994305e-06
8.9939894e-06
8.9995396e-06
9.0396464e-06
9.2332357e-06
1.0026406e-05
1.3079617e-05
2.4808572e-05
6.7609618e-05
0.00019442665
0.00050000486
0.0013539038
8.1468971e-06
8.1464947e-06
8.1469469e-06
8.1567947e-06
8.2150975e-06
8.4763588e-06
9.5087285e-06
1.3415553e-05
2.807526e-05
7.8026841e-05
0.0002111215
0.00051110137
0.0013508788
7.4122408e-06
7.412023e-06
7.4137548e-06
7.4296903e-06
7.5121568e-06
7.8606834e-06
9.1980663e-06
1.4178291e-05
3.2262331e-05
8.9094589e-05
0.00022578147
0.00051932558
0.0013493668
6.7718206e-06
6.7719549e-06
6.7756276e-06
6.7999151e-06
6.9140283e-06
7.3743439e-06
9.0987625e-06
1.5408888e-05
3.7339829e-05
0.00010033156
0.00023829849
0.00052535583
0.0013487149
6.2104575e-06
6.2111621e-06
6.2176208e-06
6.2531142e-06
6.4082476e-06
7.0110033e-06
9.2236697e-06
1.7149875e-05
4.3213605e-05
0.00011129559
0.0002487951
0.00052976262
0.0013485457
5.7159095e-06
5.7174657e-06
5.7277834e-06
5.7780724e-06
5.9859581e-06
6.7693776e-06
9.5932706e-06
1.9436233e-05
4.9726067e-05
0.00012164394
0.00025751549
0.00053299526
0.0013486594
5.2782322e-06
5.2809984e-06
5.2965329e-06
5.3661281e-06
5.6414368e-06
6.6530083e-06
1.0234238e-05
2.228513e-05
5.6672016e-05
0.00013115952
0.00026474159
0.0005353945
0.0013489619
4.889296e-06
4.893728e-06
4.9161934e-06
5.0107595e-06
5.3718124e-06
6.6701645e-06
1.1177042e-05
2.5686553e-05
6.3825678e-05
0.00013974422
0.00027074338
0.00053721257
0.0013494179
4.5424222e-06
4.549097e-06
4.5806559e-06
4.707302e-06
5.1769356e-06
6.8337316e-06
1.2452335e-05
2.9597477e-05
7.097079e-05
0.00014739148
0.0002757568
0.0005386328
0.0013500205
4.2321037e-06
4.2417515e-06
4.2851315e-06
4.4527719e-06
5.0593678e-06
7.1609028e-06
1.4086152e-05
3.394183e-05
7.7925113e-05
0.00015415333
0.00027997823
0.00053978641
0.0013507744
3.9537926e-06
3.9673375e-06
4.0259782e-06
4.2457763e-06
5.0244498e-06
7.6724685e-06
1.6094424e-05
3.8616919e-05
8.4553952e-05
0.00016011197
0.00028356674
0.00054076616
0.0013516866
3.7037376e-06
3.7223496e-06
3.8005873e-06
4.0864974e-06
5.0804009e-06
8.3914976e-06
1.8477844e-05
4.3504911e-05
9.0772061e-05
0.00016536002
0.00028664926
0.00054163685
0.0013527623
3.4788613e-06
3.504022e-06
3.6073203e-06
3.9767408e-06
5.2383695e-06
9.3412706e-06
2.1218352e-05
4.8486364e-05
9.6537094e-05
0.00016998886
0.00028932618
0.00054244334
0.0013540034
3.2766694e-06
3.3102566e-06
3.4454921e-06
3.9200366e-06
5.5123349e-06
1.0542478e-05
2.4278371e-05
5.3452376e-05
0.00010183911
0.00017408281
0.00029167657
0.00054321637
0.0013554084
3.0951868e-06
3.1395803e-06
3.315394e-06
3.9217755e-06
5.9187331e-06
1.2009945e-05
2.7603266e-05
5.8312862e-05
0.0001066899
0.0001777168
0.00029376257
0.00054397675
0.0013569729
2.9329181e-06
2.991133e-06
3.2183574e-06
3.9893517e-06
6.4756801e-06
1.3749403e-05
3.112658e-05
6.3000085e-05
0.00011111418
0.00018095591
0.00029563313
0.00054473837
0.0013586904
2.7888292e-06
2.8646819e-06
3.1568532e-06
4.132263e-06
7.2016967e-06
1.5755029e-05
3.4776808e-05
6.7468124e-05
0.00011514328
0.00018385585
0.00029732665
0.00054550993
0.0013605531
2.6623516e-06
2.7606641e-06
3.1346228e-06
4.362102e-06
8.1139275e-06
1.8008404e-05
3.8484156e-05
7.1689805e-05
0.00011881108
0.00018646428
0.00029887505
0.00054629402
0.0013625491
2.5534087e-06
2.680258e-06
3.1568304e-06
4.6923496e-06
9.2259799e-06
2.0479254e-05
4.21859e-05
7.5652556e-05
0.00012215122
0.00018882083
0.00030030031
0.00054708344
0.001364665
2.4624667e-06
2.6254826e-06
3.2302146e-06
5.1378783e-06
1.0545685e-05
2.3127918e-05
4.5829652e-05
7.9354439e-05
0.00012519597
0.00019095973
0.00030162122
0.00054787012
0.0013668874
2.3906118e-06
2.5993266e-06
3.3632045e-06
5.714089e-06
1.2073206e-05
2.5908984e-05
4.9374527e-05
8.2800767e-05
0.00012797521
0.0001929092
0.00030285018
0.00054865286
0.0013692048
2.3396576e-06
2.6059009e-06
3.565945e-06
6.4356564e-06
1.379994e-05
2.8775319e-05
5.2790668e-05
8.6001443e-05
0.00013051585
0.00019469159
0.00030399376
0.00054944272
0.0013716092
2.3122834e-06
2.6506068e-06
3.8501617e-06
7.314953e-06
1.5708513e-05
3.1681692e-05
5.6057927e-05
8.8969442e-05
0.00013284315
0.00019632773
0.00030505437
0.00055025018
0.0013740956
2.312204e-06
2.740297e-06
4.2287855e-06
8.360338e-06
1.7773921e-05
3.4587408e-05
5.9163896e-05
9.1718486e-05
0.000134977
0.00019782951
0.00030604753
0.00055107624
0.0013766577
2.3443664e-06
2.8833943e-06
4.7152659e-06
9.5746046e-06
1.9965609e-05
3.7457896e-05
6.2102576e-05
9.4263949e-05
0.00013693775
0.0001992035
0.00030698677
0.00055192218
0.0013792895
2.4151612e-06
3.0899099e-06
5.3225443e-06
1.0953905e-05
2.2249994e-05
4.0265061e-05
6.487208e-05
9.6618926e-05
0.00013873803
0.00020046566
0.00030788008
0.0005527876
0.0013819845
2.5326204e-06
3.3712891e-06
6.0617308e-06
1.2487421e-05
2.4593018e-05
4.2987258e-05
6.7474462e-05
9.8797813e-05
0.00014038632
0.00020163083
0.00030873383
0.00055367124
0.0013847363
2.7065544e-06
3.7399968e-06
6.9406286e-06
1.4157863e-05
2.6962172e-05
4.5608169e-05
6.9912764e-05
0.00010081055
0.00014189658
0.00020271013
0.00030955281
0.00055457138
0.0013875385
2.9485499e-06
4.2087757e-06
7.9623496e-06
1.5942733e-05
2.932809e-05
4.8116702e-05
7.219297e-05
0.0001026631
0.00014328329
0.00020371266
0.00031034056
0.00055548591
0.0013903847
3.2717202e-06
4.7895528e-06
9.124281e-06
1.7815985e-05
3.1664999e-05
5.050453e-05
7.4318476e-05
0.00010436655
0.00014455808
0.00020464578
0.00031109967
0.00055641252
0.0013932685
3.6900851e-06
5.4920719e-06
1.0417682e-05
1.975001e-05
3.3951697e-05
5.2768181e-05
7.6289665e-05
0.00010593298
0.00014573088
0.00020551553
0.00031183193
0.00055734869
0.0013961838
4.217484e-06
6.3224269e-06
1.182795e-05
2.1717139e-05
3.6170245e-05
5.4901157e-05
7.8113755e-05
0.00010737248
0.00014680993
0.00020632673
0.00031253849
0.00055829175
0.0013991242
4.8660253e-06
7.2817738e-06
1.3335593e-05
2.3691123e-05
3.8306688e-05
5.6898168e-05
7.9798304e-05
0.0001086939
0.00014780214
0.00020708321
0.00031321994
0.0005592389
0.0014020835
5.6442491e-06
8.3655565e-06
1.4917866e-05
2.5648781e-05
4.0344259e-05
5.8760209e-05
8.1350102e-05
0.00010990479
0.00014871322
0.00020778794
0.00031387639
0.00056018719
0.0014050556
6.5553598e-06
9.5634606e-06
1.6550687e-05
2.7565323e-05
4.2272544e-05
6.0488812e-05
8.2775233e-05
0.00011101157
0.00014954784
0.00020844311
0.00031450751
0.00056113354
0.001408034
7.5961547e-06
1.0860443e-05
1.820737e-05
2.9419104e-05
4.4084532e-05
6.2085818e-05
8.407904e-05
0.00011201961
0.0001503097
0.00020905025
0.00031511256
0.00056207469
0.0014110122
8.7563169e-06
1.2235552e-05
1.9861233e-05
3.1193218e-05
4.5774966e-05
6.3553183e-05
8.5266116e-05
0.00011293329
0.00015100166
0.00020961026
0.00031569044
0.00056300724
0.0014139835
1.0017523e-05
1.3664335e-05
2.1488449e-05
3.2873858e-05
4.7340054e-05
6.4892867e-05
8.6340348e-05
0.00011375612
0.00015162581
0.00021012348
0.00031623968
0.00056392761
0.0014169408
1.1355901e-05
1.5121211e-05
2.306817e-05
3.4450176e-05
4.8777287e-05
6.6106809e-05
8.7304981e-05
0.00011449084
0.00015218354
0.00021058973
0.00031675849
0.00056483199
0.0014198766
1.2744264e-05
1.6581079e-05
2.45829e-05
3.591412e-05
5.008535e-05
6.7196965e-05
8.816273e-05
0.00011513952
0.00015267567
0.00021100839
0.00031724475
0.00056571638
0.0014227832
1.4154479e-05
1.8020635e-05
2.6018601e-05
3.7260261e-05
5.1264087e-05
6.8165407e-05
8.8915923e-05
0.00011570368
0.0001531025
0.00021137844
0.00031769606
0.00056657653
0.001425652
1.5559578e-05
1.9419299e-05
2.7364604e-05
3.8485595e-05
5.2314486e-05
6.9014444e-05
8.9566657e-05
0.00011618449
0.00015346398
0.00021169855
0.0003181098
0.00056740801
0.0014284739
1.6935337e-05
2.0759785e-05
2.8613376e-05
3.9589302e-05
5.3238668e-05
6.9746754e-05
9.0116984e-05
0.00011658288
0.00015375981
0.00021196721
0.00031848317
0.00056820619
0.0014312391
1.8261268e-05
2.2028325e-05
2.9760207e-05
4.0572479e-05
5.4039844e-05
7.0365498e-05
9.056908e-05
0.00011689975
0.00015398961
0.00021218284
0.00031881337
0.00056896638
0.0014339374
1.9521049e-05
2.3214637e-05
3.0802837e-05
4.1437845e-05
5.4722232e-05
7.0874398e-05
9.0925399e-05
0.00011713615
0.00015415309
0.00021234393
0.00031909766
0.00056968392
0.001436558
2.0702519e-05
2.4311691e-05
3.1741089e-05
4.218944e-05
5.5290944e-05
7.1277781e-05
9.1188803e-05
0.00011729338
0.00015425019
0.00021244922
0.00031933353
0.00057035438
0.0014390897
2.1797374e-05
2.5315357e-05
3.2576494e-05
4.2832337e-05
5.5751834e-05
7.1580567e-05
9.1362639e-05
0.00011737321
0.00015428123
0.00021249781
0.00031951888
0.00057097365
0.0014415215
2.2800697e-05
2.6223987e-05
3.3311944e-05
4.3372365e-05
5.6111341e-05
7.1788225e-05
9.1450788e-05
0.00011737788
0.00015424707
0.00021248933
0.00031965214
0.0005715382
0.0014438427
2.3710405e-05
2.7037979e-05
3.3951389e-05
4.3815875e-05
5.6376317e-05
7.1906694e-05
9.1457661e-05
0.00011731023
0.00015414913
0.00021242404
0.00031973241
0.00057204519
0.0014460433
2.4526701e-05
2.775936e-05
3.4499553e-05
4.4169527e-05
5.6553867e-05
7.194228e-05
9.1388166e-05
0.00011717368
0.00015398951
0.00021230291
0.00031975954
0.00057249258
0.0014481144
2.5251558e-05
2.83914e-05
3.4961703e-05
4.4440125e-05
5.6651206e-05
7.1901551e-05
9.1247645e-05
0.0001169722
0.00015377097
0.00021212764
0.00031973418
0.00057287927
0.001450048
2.5888273e-05
2.8938281e-05
3.534345e-05
4.4634479e-05
5.6675537e-05
7.1791223e-05
9.1041787e-05
0.00011671032
0.00015349691
0.00021190068
0.00031965783
0.00057320507
0.0014518381
2.6441077e-05
2.9404811e-05
3.5650586e-05
4.4759296e-05
5.663394e-05
7.1618056e-05
9.0776538e-05
0.00011639297
0.00015317132
0.00021162518
0.00031953276
0.00057347073
0.00145348
2.691483e-05
2.9796192e-05
3.5888953e-05
4.4821102e-05
5.6533299e-05
7.1388758e-05
9.0458e-05
0.00011602546
0.0001527987
0.0002113049
0.00031936196
0.00057367787
0.001454971
2.7314769e-05
3.0117834e-05
3.6064343e-05
4.4826181e-05
5.6380234e-05
7.1109901e-05
9.0092337e-05
0.00011561334
0.00015238397
0.00021094415
0.00031914905
0.00057382886
0.0014563098
2.7646311e-05
3.0375211e-05
3.6182416e-05
4.4780538e-05
5.6181061e-05
7.078786e-05
8.9685681e-05
0.00011516233
0.00015193234
0.00021054765
0.00031889814
0.00057392678
0.0014574972
2.7914915e-05
3.0573749e-05
3.6248647e-05
4.4689868e-05
5.594176e-05
7.042875e-05
8.9244059e-05
0.00011467817
0.00015144923
0.0002101204
0.00031861375
0.00057397523
0.0014585352
2.812596e-05
3.0718744e-05
3.6268279e-05
4.4559543e-05
5.5667955e-05
7.0038392e-05
8.8773316e-05
0.00011416659
0.0001509401
0.0002096676
0.00031830064
0.00057397825
0.0014594276
2.8284679e-05
3.0815307e-05
3.6246299e-05
4.4394602e-05
5.5364907e-05
6.9622278e-05
8.827906e-05
0.00011363317
0.00015041043
0.00020919448
0.00031796371
0.00057394019
0.0014601792
2.8396097e-05
3.0868318e-05
3.6187419e-05
4.4199752e-05
5.5037511e-05
6.918555e-05
8.7766617e-05
0.0001130833
0.00014986556
0.00020870624
0.00031760788
0.00057386562
0.0014607963
2.8464995e-05
3.0882402e-05
3.6096064e-05
4.3979371e-05
5.4690297e-05
6.8732991e-05
8.7240992e-05
0.00011252211
0.00014931063
0.00020820794
0.00031723797
0.00057375918
0.0014612861
2.8495889e-05
3.0861917e-05
3.5976375e-05
4.3737514e-05
5.4327439e-05
6.8269016e-05
8.6706842e-05
0.00011195443
0.00014875053
0.00020770438
0.00031685864
0.00057362548
0.0014616565
2.8493021e-05
3.0810942e-05
3.5832201e-05
4.3477921e-05
5.395276e-05
6.7797672e-05
8.6168463e-05
0.00011138474
0.00014818981
0.00020720007
0.00031647426
0.000573469
0.0014619162
2.846035e-05
3.0733278e-05
3.5667114e-05
4.3204027e-05
5.3569752e-05
6.7322645e-05
8.5629776e-05
0.00011081713
0.00014763265
0.00020669915
0.00031608886
0.00057329399
0.0014620741
2.8401554e-05
3.0632452e-05
3.5484408e-05
4.291898e-05
5.318158e-05
6.6847264e-05
8.5094323e-05
0.00011025534
0.00014708286
0.00020620539
0.0003157061
0.00057310441
0.0014621393
2.832004e-05
3.0511723e-05
3.5287113e-05
4.2625645e-05
5.2791103e-05
6.6374517e-05
8.4565279e-05
0.00010970269
0.00014654382
0.00020572211
0.00031532921
0.00057290385
0.0014621206
2.821895e-05
3.0374091e-05
3.5078006e-05
4.2326625e-05
5.2400884e-05
6.5907062e-05
8.404545e-05
0.00010916211
0.00014601849
0.0002052522
0.00031496099
0.00057269551
0.0014620268
2.8101172e-05
3.022231e-05
3.4859619e-05
4.202427e-05
5.2013213e-05
6.5447243e-05
8.3537295e-05
0.00010863614
0.00014550943
0.00020479812
0.00031460381
0.00057248225
0.0014618664
2.7969351e-05
3.0058896e-05
3.4634256e-05
4.1720697e-05
5.1630118e-05
6.4997109e-05
8.3042936e-05
0.00010812696
0.00014501881
0.00020436194
0.00031425966
0.00057226653
0.0014616473
2.7825903e-05
2.9886144e-05
3.4404004e-05
4.1417796e-05
5.1253382e-05
6.4558431e-05
8.256418e-05
0.00010763641
0.00014454839
0.00020394532
0.00031393015
0.00057205055
0.0014613771
2.7673027e-05
2.9706137e-05
3.4170743e-05
4.1117252e-05
5.0884563e-05
6.4132721e-05
8.2102539e-05
0.00010716598
0.00014409961
0.00020354955
0.00031361653
0.00057183612
0.001461063
2.751272e-05
2.9520759e-05
3.3936163e-05
4.0820554e-05
5.0525006e-05
6.3721251e-05
8.165925e-05
0.00010671686
0.00014367356
0.00020317564
0.00031331985
0.00057162465
0.0014607116
2.7346786e-05
2.933171e-05
3.3701774e-05
4.0529009e-05
5.0175858e-05
6.332507e-05
8.1235293e-05
0.00010628995
0.00014327103
0.00020282421
0.00031304065
0.00057141628
0.0014603287
2.7176852e-05
2.9140516e-05
3.3468917e-05
4.0243755e-05
4.9838088e-05
6.294502e-05
8.083142e-05
0.00010588591
0.00014289258
0.00020249581
0.00031277937
0.00057120887
0.0014599192
2.7004378e-05
2.894854e-05
3.3238778e-05
3.9965773e-05
4.9512493e-05
6.2581758e-05
8.0448164e-05
0.00010550515
0.00014253845
0.00020219034
0.00031253513
0.00057100416
0.0014594887
2.6830669e-05
2.8756995e-05
3.3012395e-05
3.96959e-05
4.919972e-05
6.2235772e-05
8.0085885e-05
0.00010514791
0.00014220882
0.00020190792
0.00031230593
0.00057080525
0.0014590426
2.6656886e-05
2.8566954e-05
3.2790674e-05
3.9434839e-05
4.8900278e-05
6.1907398e-05
7.9744766e-05
0.00010481423
0.00014190341
0.00020164694
0.00031209267
0.00057061369
0.001458586
2.6484058e-05
2.8379361e-05
3.2574396e-05
3.9183172e-05
4.8614546e-05
6.1596831e-05
7.9424823e-05
0.00010450389
0.00014162171
0.00020140641
0.00031189581
0.00057043056
0.0014581233
2.6313092e-05
2.8195041e-05
3.2364229e-05
3.8941372e-05
4.8342796e-05
6.1304159e-05
7.9125988e-05
0.00010421668
0.00014136224
0.00020118629
0.0003117154
0.00057025651
0.0014576582
2.6144783e-05
2.8014712e-05
3.216074e-05
3.8709811e-05
4.8085199e-05
6.1029357e-05
7.8848009e-05
0.00010395156
0.00014112451
0.00020098625
0.00031155124
0.00057009192
0.0014571941
2.5979821e-05
2.7838991e-05
3.1964397e-05
3.8488772e-05
4.7841835e-05
6.0772291e-05
7.8590357e-05
0.00010370768
0.00014090804
0.00020080578
0.00031140293
0.00056993697
0.0014567338
2.5818806e-05
2.7668404e-05
3.1775589e-05
3.8278463e-05
4.7612713e-05
6.0532715e-05
7.835217e-05
0.00010348452
0.0001407122
0.00020064423
0.00031126997
0.00056979172
0.0014562799
2.566225e-05
2.7503399e-05
3.1594633e-05
3.8079036e-05
4.7397759e-05
6.030996e-05
7.8132965e-05
0.00010328148
0.00014053629
0.00020050087
0.00031115178
0.00056965618
0.0014558345
2.5510595e-05
2.7344358e-05
3.1421797e-05
3.7890531e-05
4.7196569e-05
6.0103636e-05
7.7932197e-05
0.00010309786
0.00014037953
0.0002003749
0.00031104773
0.00056953033
0.0014553998
2.5364222e-05
2.7191599e-05
3.1257207e-05
3.7712803e-05
4.7008888e-05
5.9913312e-05
7.7749269e-05
0.00010293294
0.00014024107
0.00020026548
0.00031095713
0.00056941407
0.0014549775
2.5223409e-05
2.7045314e-05
3.1100907e-05
3.754574e-05
4.6834426e-05
5.9738518e-05
7.758354e-05
0.00010278593
0.00014012002
0.00020017169
0.00031087927
0.00056930723
0.0014545694
2.508836e-05
2.6905639e-05
3.0952908e-05
3.7389194e-05
4.6672857e-05
5.9578745e-05
7.7434328e-05
0.00010265598
0.00014001546
0.00020009263
0.0003108134
0.00056920956
0.0014541768
2.4959225e-05
2.6772662e-05
3.0813183e-05
3.7242986e-05
4.6523827e-05
5.9433457e-05
7.7300923e-05
0.00010254224
0.00013992643
0.00020002733
0.0003107587
0.00056912072
0.0014538006
2.4836107e-05
2.6646434e-05
3.0681671e-05
3.7106904e-05
4.6386952e-05
5.9302089e-05
7.7182586e-05
0.00010244384
0.00013985197
0.00019997484
0.00031071437
0.00056904026
0.0014534415
2.4719071e-05
2.6526965e-05
3.0558277e-05
3.6980711e-05
4.6261823e-05
5.9184053e-05
7.7078564e-05
0.00010235989
0.00013979111
0.00019993418
0.00031067958
0.0005689677
0.0014530998
2.4608144e-05
2.6414236e-05
3.0442879e-05
3.6864142e-05
4.614801e-05
5.9078747e-05
7.6988091e-05
0.00010228948
0.00013974288
0.00019990442
0.00031065351
0.00056890252
0.0014527757
2.4503324e-05
2.6308195e-05
3.0335328e-05
3.6756911e-05
4.6045067e-05
5.8985555e-05
7.6910396e-05
0.00010223172
0.00013970634
0.00019988463
0.0003106354
0.00056884423
0.001452469
2.4404579e-05
2.6208764e-05
3.0235452e-05
3.6658716e-05
4.5952534e-05
5.8903856e-05
7.6844713e-05
0.00010218576
0.00013968055
0.00019987393
0.0003106245
0.0005687924
0.0014521796
2.4311851e-05
2.6115843e-05
3.0143058e-05
3.6569235e-05
4.5869942e-05
5.8833027e-05
7.6790279e-05
0.00010215071
0.00013966463
0.00019987148
0.00031062015
0.00056874665
0.0014519074
2.422506e-05
2.6029308e-05
3.0057936e-05
3.6488135e-05
4.5796813e-05
5.8772444e-05
7.6746343e-05
0.00010212574
0.00013965773
0.00019987648
0.00031062172
0.00056870668
0.0014516523
2.4144105e-05
2.5949018e-05
2.9979859e-05
3.6415075e-05
4.5732668e-05
5.8721489e-05
7.6712169e-05
0.00010211005
0.000139659
0.0001998882
0.00031062866
0.00056867221
0.001451414
2.4068867e-05
2.5874815e-05
2.990859e-05
3.63497e-05
4.5677023e-05
5.8679548e-05
7.6687033e-05
0.00010210285
0.00013966767
0.00019990591
0.00031064042
0.000568643
0.0014511927
2.3999211e-05
2.5806526e-05
2.9843876e-05
3.6291654e-05
4.5629397e-05
5.8646016e-05
7.6670232e-05
0.00010210336
0.00013968298
0.00019992894
0.00031065649
0.00056861878
0.001450988
2.3934986e-05
2.5743965e-05
2.9785457e-05
3.6240572e-05
4.5589307e-05
5.8620298e-05
7.6661079e-05
0.00010211087
0.00013970421
0.00019995666
0.00031067636
0.00056859924
0.0014507998
2.3876028e-05
2.5686934e-05
2.9733065e-05
3.6196088e-05
4.5556277e-05
5.860181e-05
7.6658908e-05
0.00010212466
0.00013973066
0.00019998843
0.00031069956
0.00056858406
0.0014506276
2.3822163e-05
2.5635225e-05
2.9686425e-05
3.6157836e-05
4.5529836e-05
5.8589981e-05
7.6663074e-05
0.00010214405
0.00013976168
0.00020002367
0.00031072558
0.00056857283
0.001450471
2.3773207e-05
2.5588624e-05
2.9645257e-05
3.6125447e-05
4.5509517e-05
5.8584257e-05
7.6672956e-05
0.00010216841
0.00013979663
0.00020006182
0.00031075398
0.00056856518
0.0014503291
2.3728969e-05
2.5546909e-05
2.960928e-05
3.6098557e-05
4.5494867e-05
5.85841e-05
7.6687958e-05
0.0001021971
0.00013983493
0.00020010236
0.00031078432
0.00056856072
0.0014502013
2.368925e-05
2.5509855e-05
2.9578209e-05
3.6076807e-05
4.5485441e-05
5.858899e-05
7.6707512e-05
0.00010222955
0.00013987603
0.0002001448
0.0003108162
0.00056855909
0.0014500868
2.3653847e-05
2.5477231e-05
2.9551762e-05
3.6059841e-05
4.5480808e-05
5.8598431e-05
7.673108e-05
0.00010226522
0.00013991942
0.00020018872
0.00031084927
0.00056855999
0.0014499848
2.3622556e-05
2.5448808e-05
2.9529658e-05
3.6047313e-05
4.5480551e-05
5.8611946e-05
7.675815e-05
0.0001023036
0.00013996463
0.00020023371
0.00031088323
0.00056856318
0.0014498947
2.3595167e-05
2.5424353e-05
2.9511618e-05
3.6038882e-05
4.5484268e-05
5.862908e-05
7.6788243e-05
0.00010234422
0.00014001123
0.00020027942
0.00031091781
0.00056856844
0.0014498157
2.3571471e-05
2.5403636e-05
2.949737e-05
3.6034221e-05
4.5491571e-05
5.8649404e-05
7.6820907e-05
0.00010238663
0.00014005883
0.00020032553
0.00031095279
0.00056857562
0.0014497473
2.3551259e-05
2.5386428e-05
2.9486643e-05
3.6033008e-05
4.550209e-05
5.8672508e-05
7.685572e-05
0.00010243043
0.00014010708
0.00020037176
0.00031098796
0.00056858455
0.0014496891
2.3534323e-05
2.5372502e-05
2.9479174e-05
3.6034934e-05
4.5515471e-05
5.8698006e-05
7.6892287e-05
0.00010247525
0.00014015563
0.00020041784
0.00031102312
0.00056859509
0.0014496404
2.3520456e-05
2.5361634e-05
2.9474707e-05
3.60397e-05
4.5531375e-05
5.8725534e-05
7.6930239e-05
0.00010252074
0.0001402042
0.00020046355
0.00031105811
0.00056860705
0.0014496009
2.3509454e-05
2.5353605e-05
2.947299e-05
3.604702e-05
4.5549482e-05
5.8754748e-05
7.6969232e-05
0.00010256657
0.00014025251
0.00020050865
0.00031109273
0.00056862025
0.00144957
2.3501115e-05
2.5348199e-05
2.9473783e-05
3.6056617e-05
4.5569485e-05
5.8785328e-05
7.7008949e-05
0.00010261246
0.0001403003
0.00020055294
0.00031112683
0.00056863446
0.0014495469
2.3495243e-05
2.5345207e-05
2.947685e-05
3.6068229e-05
4.5591098e-05
5.8816973e-05
7.7049096e-05
0.00010265814
0.00014034736
0.00020059625
0.00031116024
0.00056864948
0.001449531
2.3491645e-05
2.5344424e-05
2.9481966e-05
3.6081605e-05
4.5614049e-05
5.8849405e-05
7.7089404e-05
0.00010270336
0.00014039347
0.00020063842
0.00031119282
0.0005686651
0.0014495218
2.3490132e-05
2.5345652e-05
2.9488914e-05
3.6096508e-05
4.5638086e-05
5.8882367e-05
7.7129628e-05
0.00010274792
0.00014043847
0.0002006793
0.00031122445
0.00056868114
0.0014495184
2.3490523e-05
2.5348701e-05
2.9497488e-05
3.6112713e-05
4.5662971e-05
5.8915622e-05
7.7169548e-05
0.00010279162
0.0001404822
0.00020071878
0.00031125503
0.00056869745
0.0014495203
2.3492642e-05
2.5353388e-05
2.950749e-05
3.6130009e-05
4.5688487e-05
5.8948957e-05
7.7208967e-05
0.00010283429
0.00014052453
0.00020075678
0.0003112845
0.00056871393
0.001449527
2.349632e-05
2.5359536e-05
2.9518734e-05
3.6148199e-05
4.5714431e-05
5.8982174e-05
7.7247709e-05
0.00010287579
0.00014056537
0.00020079322
0.00031131282
0.0005687305
0.001449538
2.3501395e-05
2.5366979e-05
2.9531043e-05
3.6167099e-05
4.5740618e-05
5.9015099e-05
7.7285619e-05
0.00010291599
0.00014060462
0.00020082807
0.00031133994
0.00056874711
0.0014495528
2.350771e-05
2.5375557e-05
2.9544251e-05
3.6186537e-05
4.5766878e-05
5.9047573e-05
7.7322563e-05
0.00010295481
0.00014064222
0.00020086127
0.00031136587
0.00056876372
0.0014495713
2.3515118e-05
2.5385117e-05
2.9558201e-05
3.6206355e-05
4.5793057e-05
5.9079455e-05
7.7358422e-05
0.00010299214
0.00014067811
0.00020089282
0.00031139058
0.00056878029
0.001449593
2.3523478e-05
2.5395518e-05
2.9572748e-05
3.6226406e-05
4.5819014e-05
5.9110619e-05
7.7393095e-05
0.00010302791
0.00014071226
0.00020092269
0.00031141406
0.00056879675
0.0014496176
2.3532654e-05
2.5406622e-05
2.9587753e-05
3.6246554e-05
4.5844621e-05
5.9140955e-05
7.7426495e-05
0.00010306208
0.00014074464
0.00020095087
0.0003114363
0.00056881298
0.0014496448
2.3542521e-05
2.5418303e-05
2.960309e-05
3.6266676e-05
4.5869766e-05
5.9170367e-05
7.7458551e-05
0.00010309459
0.00014077522
0.00020097736
0.00031145727
0.0005688288
0.0014496741
2.3552959e-05
2.5430442e-05
2.9618641e-05
3.6286659e-05
4.5894346e-05
5.9198771e-05
7.7489203e-05
0.00010312541
0.00014080399
0.00020100216
0.00031147694
0.00056884387
0.001449705
2.3563856e-05
2.5442926e-05
2.9634296e-05
3.6306401e-05
4.5918273e-05
5.9226099e-05
7.7518406e-05
0.00010315452
0.00014083097
0.00020102527
0.00031149524
0.00056885814
0.0014497371
2.3575107e-05
2.5455653e-05
2.9649957e-05
3.6325812e-05
4.594147e-05
5.9252291e-05
7.7546126e-05
0.00010318191
0.00014085616
0.00020104671
0.00031151202
0.00056887171
0.00144977
2.3586617e-05
2.5468528e-05
2.9665534e-05
3.634481e-05
4.5963872e-05
5.9277305e-05
7.7572343e-05
0.00010320759
0.00014087957
0.00020106646
0.00031152735
0.00056888459
0.0014498034
2.3598296e-05
2.5481464e-05
2.9680944e-05
3.6363325e-05
4.5985423e-05
5.9301106e-05
7.7597048e-05
0.00010323158
0.00014090125
0.00020108446
0.00031154133
0.00056889681
0.001449837
2.3610061e-05
2.549438e-05
2.9696116e-05
3.6381296e-05
4.6006081e-05
5.9323674e-05
7.7620246e-05
0.00010325389
0.00014092116
0.0002011008
0.00031155403
0.00056890837
0.0014498704
2.3621838e-05
2.5507207e-05
2.9710985e-05
3.6398672e-05
4.6025811e-05
5.9344996e-05
7.7641944e-05
0.00010327455
0.00014093934
0.00020111559
0.00031156553
0.00056891931
0.0014499037
2.3633561e-05
2.5519879e-05
2.9725495e-05
3.641541e-05
4.604459e-05
5.9365071e-05
7.7662168e-05
0.00010329354
0.00014095585
0.00020112889
0.00031157591
0.00056892966
0.0014499365
2.3645167e-05
2.553234e-05
2.9739599e-05
3.6431475e-05
4.6062403e-05
5.9383907e-05
7.7680908e-05
0.00010331091
0.00014097078
0.00020114079
0.00031158524
0.00056893946
0.0014499688
2.3656603e-05
2.5544539e-05
2.9753255e-05
3.6446843e-05
4.6079242e-05
5.9401498e-05
7.7698182e-05
0.00010332673
0.0001409842
0.00020115138
0.0003115936
0.00056894876
0.0014500007
2.3667821e-05
2.5556433e-05
2.9766429e-05
3.6461493e-05
4.6095098e-05
5.9417844e-05
7.771403e-05
0.00010334105
0.00014099618
0.00020116073
0.00031160104
0.00056895757
0.0014500319
2.3678778e-05
2.5567986e-05
2.9779097e-05
3.6475407e-05
4.6109958e-05
5.9432966e-05
7.7728498e-05
0.00010335393
0.0001410068
0.00020116891
0.00031160763
0.00056896593
0.0014500625
2.3689441e-05
2.5579166e-05
2.9791228e-05
3.6488566e-05
4.6123828e-05
5.944689e-05
7.7741632e-05
0.00010336545
0.00014101612
0.00020117599
0.00031161341
0.00056897382
0.0014500925
2.3699773e-05
2.558994e-05
2.98028e-05
3.6500961e-05
4.6136718e-05
5.945965e-05
7.7753484e-05
0.00010337567
0.00014102422
0.00020118203
0.00031161842
0.00056898126
0.0014501217
2.3709745e-05
2.5600283e-05
2.9813796e-05
3.6512592e-05
4.6148645e-05
5.9471279e-05
7.7764106e-05
0.00010338464
0.00014103117
0.0002011871
0.0003116227
0.00056898823
0.00145015
2.3719333e-05
2.5610174e-05
2.9824206e-05
3.652346e-05
4.6159629e-05
5.9481817e-05
7.7773552e-05
0.00010339243
0.00014103704
0.00020119125
0.0003116263
0.00056899472
0.0014501774
2.3728514e-05
2.5619595e-05
2.9834021e-05
3.6533573e-05
4.6169694e-05
5.9491305e-05
7.7781879e-05
0.00010339912
0.00014104189
0.00020119455
0.00031162923
0.00056900071
0.0014502038
2.3737272e-05
2.5628537e-05
2.984324e-05
3.6542942e-05
4.6178868e-05
5.9499786e-05
7.7789143e-05
0.00010340476
0.00014104578
0.00020119706
0.00031163155
0.0005690062
0.001450229
2.3745595e-05
2.5636989e-05
2.9851864e-05
3.6551583e-05
4.6187181e-05
5.9507306e-05
7.7795404e-05
0.00010340943
0.0001410488
0.00020119882
0.00031163329
0.00056901119
0.001450253
2.3753475e-05
2.5644949e-05
2.9859898e-05
3.6559513e-05
4.6194665e-05
5.9513913e-05
7.780072e-05
0.00010341318
0.00014105099
0.00020119991
0.0003116345
0.00056901572
0.0014502758
2.3760906e-05
2.5652415e-05
2.986735e-05
3.6566752e-05
4.6201356e-05
5.9519655e-05
7.780515e-05
0.00010341609
0.00014105244
0.00020120037
0.00031163522
0.00056901979
0.0014502973
2.3767886e-05
2.565939e-05
2.9874232e-05
3.6573323e-05
4.6207289e-05
5.952458e-05
7.7808754e-05
0.00010341822
0.0001410532
0.00020120028
0.0003116355
0.00056902344
0.0014503176
2.3774417e-05
2.5665878e-05
2.9880556e-05
3.6579252e-05
4.6212501e-05
5.9528738e-05
7.7811588e-05
0.00010341963
0.00014105333
0.00020119969
0.00031163539
0.0005690267
0.0014503366