/*--------------------------------*- C++ -*----------------------------------*\
| =========                 |                                                 |
| \\      /  F ield         | OpenFOAM: The Open Source CFD Toolbox           |
|  \\    /   O peration     | Version:  2506                                  |
|   \\  /    A nd           | Website:  www.openfoam.com                      |
|    \\/     M anipulation  |                                                 |
\*---------------------------------------------------------------------------*/
FoamFile
{
    version     2.0;
    format      ascii;
    arch        "LSB;label=32;scalar=64";
    class       volScalarField;
    location    "17000/water";
    object      nut;
}
// * * * * * * * * * * * * * * * * * * * * * * * * * * * * * * * * * * * * * //

dimensions      [0 2 -1 0 0 0 0];

internalField   nonuniform List<scalar> 
2600
(
4.0562043e-05
4.0561942e-05
4.0561944e-05
4.0561981e-05
4.0561942e-05
4.0561434e-05
4.0558261e-05
4.0540002e-05
4.0435343e-05
3.98338e-05
3.6541397e-05
2.4161555e-05
1.4889524e-05
3.944741e-05
3.9447468e-05
3.944759e-05
3.9447676e-05
3.9447275e-05
3.9444342e-05
3.9428907e-05
3.9352895e-05
3.8988431e-05
3.7314814e-05
3.0763187e-05
1.7536145e-05
1.684056e-05
3.852265e-05
3.852264e-05
3.8522725e-05
3.8522528e-05
3.8520597e-05
3.8510798e-05
3.8466747e-05
3.8277827e-05
3.7500368e-05
3.454641e-05
2.5814945e-05
1.4669956e-05
1.7712619e-05
3.7742032e-05
3.774193e-05
3.7741811e-05
3.7740766e-05
3.7735283e-05
3.7711707e-05
3.7617453e-05
3.7258039e-05
3.5961308e-05
3.177518e-05
2.2061889e-05
1.3531464e-05
1.7967898e-05
3.7073562e-05
3.7073366e-05
3.7072781e-05
3.7069955e-05
3.7057916e-05
3.7011651e-05
3.6843992e-05
3.6266509e-05
3.4405655e-05
2.9188861e-05
1.9425178e-05
1.3345943e-05
1.7902414e-05
3.6493786e-05
3.6493393e-05
3.6491924e-05
3.648598e-05
3.646354e-05
3.6384687e-05
3.612226e-05
3.5294625e-05
3.2873382e-05
2.6881541e-05
1.771645e-05
1.3793839e-05
1.7689846e-05
3.5985207e-05
3.5984445e-05
3.5981496e-05
3.5970726e-05
3.5933497e-05
3.5812307e-05
3.5437992e-05
3.4343601e-05
3.1395257e-05
2.4892541e-05
1.6781972e-05
1.4727875e-05
1.7427344e-05
3.5534568e-05
3.55332e-05
3.5528007e-05
3.5510417e-05
3.5453869e-05
3.5281761e-05
3.478374e-05
3.3418009e-05
2.9989903e-05
2.3242727e-05
1.6521213e-05
1.605365e-05
1.7168093e-05
3.5131649e-05
3.5129373e-05
3.5121029e-05
3.5094484e-05
3.5014364e-05
3.4784646e-05
3.4156253e-05
3.2521766e-05
2.8667649e-05
2.1957692e-05
1.6869959e-05
1.7676047e-05
1.694009e-05
3.4768438e-05
3.47649e-05
3.4752406e-05
3.4714802e-05
3.4607522e-05
3.4315777e-05
3.3554458e-05
3.16563e-05
2.7438403e-05
2.1076946e-05
1.7774701e-05
1.9481897e-05
1.6755877e-05
3.4438571e-05
3.443338e-05
3.4415717e-05
3.4365168e-05
3.4228127e-05
3.3872266e-05
3.2977968e-05
3.0820513e-05
2.6321667e-05
2.0649591e-05
1.9168673e-05
2.1348725e-05
1.6617712e-05
3.4136931e-05
3.4129689e-05
3.4105903e-05
3.4040932e-05
3.3872746e-05
3.3452766e-05
3.2426062e-05
3.0012536e-05
2.5355877e-05
2.0719809e-05
2.0958175e-05
2.3166793e-05
1.6521078e-05
3.3859367e-05
3.3849701e-05
3.3819003e-05
3.3738723e-05
3.3539365e-05
3.3056856e-05
3.1897087e-05
2.923354e-05
2.4602257e-05
2.1309035e-05
2.3024752e-05
2.4858007e-05
1.6457822e-05
3.3602495e-05
3.3590098e-05
3.355197e-05
3.3456247e-05
3.3227088e-05
3.2684517e-05
3.1388405e-05
2.8493549e-05
2.4138757e-05
2.2402735e-05
2.5241354e-05
2.6381456e-05
1.6418929e-05
3.3363555e-05
3.334823e-05
3.3302533e-05
3.3192135e-05
3.2935885e-05
3.2335692e-05
3.0897111e-05
2.781812e-05
2.4044358e-05
2.3946906e-05
2.7493335e-05
2.7726694e-05
1.6396422e-05
3.3140311e-05
3.3122024e-05
3.3069114e-05
3.2945826e-05
3.2666358e-05
3.2009929e-05
3.0421904e-05
2.725306e-05
2.4379894e-05
2.5855075e-05
2.9693858e-05
2.8902281e-05
1.6384202e-05
3.2930983e-05
3.2909915e-05
3.2850758e-05
3.2717477e-05
3.2419519e-05
3.1706209e-05
2.9966345e-05
2.6863467e-05
2.5173339e-05
2.8023003e-05
3.1788481e-05
2.9925862e-05
1.6378087e-05
3.27342e-05
3.2710811e-05
3.2647097e-05
3.2507877e-05
3.219656e-05
3.1423099e-05
2.9543334e-05
2.6725089e-05
2.6414165e-05
3.0346001e-05
3.3750499e-05
3.0817911e-05
1.6375449e-05
3.254898e-05
3.2524066e-05
3.2458325e-05
3.2318371e-05
3.1998619e-05
3.1159479e-05
2.9179673e-05
2.6909997e-05
2.8056821e-05
3.2733298e-05
3.5572232e-05
3.159849e-05
1.6374764e-05
3.2374714e-05
3.234948e-05
3.2285189e-05
3.2150777e-05
3.1826588e-05
3.0916123e-05
2.8918575e-05
2.7471841e-05
3.0030665e-05
3.5115834e-05
3.7256818e-05
3.2285747e-05
1.6375224e-05
3.2211173e-05
3.2187303e-05
3.2128983e-05
3.2007273e-05
3.1681012e-05
3.0698309e-05
2.8817773e-05
2.8435851e-05
3.2252929e-05
3.7447133e-05
3.8812576e-05
3.2895331e-05
1.6376448e-05
3.2058522e-05
3.2038256e-05
3.199155e-05
3.1890271e-05
3.1562235e-05
3.051924e-05
2.8942305e-05
2.9795901e-05
3.464125e-05
3.9699498e-05
4.0249838e-05
3.3440303e-05
1.6378293e-05
3.1917349e-05
3.1903563e-05
3.1875268e-05
3.1802262e-05
3.147098e-05
3.0403414e-05
2.9353632e-05
3.1518042e-05
3.7123065e-05
4.1858567e-05
4.1579379e-05
3.3931332e-05
1.6380731e-05
3.1788707e-05
3.1784988e-05
3.1783034e-05
3.1745667e-05
3.1409596e-05
3.0388388e-05
3.0098641e-05
3.3548311e-05
3.9640504e-05
4.3918428e-05
4.2811639e-05
3.4377031e-05
1.638378e-05
3.167417e-05
3.1684884e-05
3.1718215e-05
3.1722747e-05
3.1384107e-05
3.0523332e-05
3.1201975e-05
3.5822342e-05
4.2151079e-05
4.5878174e-05
4.3956334e-05
3.4784314e-05
1.6387467e-05
3.1575896e-05
3.1606239e-05
3.1684577e-05
3.1735682e-05
3.1406918e-05
3.0863671e-05
3.2663378e-05
3.8274457e-05
4.4625624e-05
4.7739784e-05
4.5022274e-05
3.5158739e-05
1.6391813e-05
3.1496714e-05
3.155272e-05
3.1686171e-05
3.1786997e-05
3.1499546e-05
3.1462866e-05
3.445981e-05
4.0844582e-05
4.7045146e-05
4.9506882e-05
4.6017315e-05
3.5504794e-05
1.6396824e-05
3.1440215e-05
3.1528703e-05
3.1727217e-05
3.1880504e-05
3.169423e-05
3.2363743e-05
3.6550943e-05
4.3482185e-05
4.939784e-05
5.1183996e-05
4.6948402e-05
3.5826124e-05
1.6402494e-05
3.141085e-05
3.1539289e-05
3.1812006e-05
3.2022927e-05
3.2033145e-05
3.3591895e-05
3.888623e-05
4.6147427e-05
5.1676788e-05
5.2776064e-05
4.7821641e-05
3.6125718e-05
1.6408802e-05
3.1414042e-05
3.1590274e-05
3.1944928e-05
3.222612e-05
3.2564563e-05
3.5152686e-05
4.1411888e-05
4.881035e-05
5.3878386e-05
5.4288123e-05
4.8642394e-05
3.6406048e-05
1.6415722e-05
3.1456281e-05
3.1688095e-05
3.2130757e-05
3.2509433e-05
3.3336482e-05
3.7032011e-05
4.4076508e-05
5.1449133e-05
5.6001297e-05
5.5725116e-05
4.9415389e-05
3.6669254e-05
1.642322e-05
3.1545208e-05
3.183974e-05
3.2375386e-05
3.2901323e-05
3.4389413e-05
3.9199977e-05
4.6834636e-05
5.4048189e-05
5.8045691e-05
5.7091639e-05
5.014434e-05
3.6914944e-05
1.6431248e-05
3.1689662e-05
3.2052668e-05
3.2687146e-05
3.3439135e-05
3.575034e-05
4.1616211e-05
4.9648334e-05
5.6596559e-05
6.0012743e-05
5.8392011e-05
5.0832727e-05
3.7144923e-05
1.6439749e-05
3.1899683e-05
3.2334823e-05
3.3078704e-05
3.4166339e-05
3.7429302e-05
4.423546e-05
5.2487192e-05
5.9086682e-05
6.1904243e-05
5.9630091e-05
5.1482695e-05
3.7361243e-05
1.6448668e-05
3.2186465e-05
3.2694872e-05
3.3569195e-05
3.5127409e-05
3.9419063e-05
4.7012426e-05
5.5327447e-05
6.1513505e-05
6.372234e-05
6.0809391e-05
5.2096448e-05
3.7565312e-05
1.6457958e-05
3.2562281e-05
3.314286e-05
3.418583e-05
3.6361548e-05
4.1697456e-05
4.9905184e-05
5.8150803e-05
6.387383e-05
6.5469387e-05
6.1933114e-05
5.2677396e-05
3.7758156e-05
1.6467586e-05
3.3040473e-05
3.3691439e-05
3.4963991e-05
3.7896944e-05
4.4231429e-05
5.2877045e-05
6.094328e-05
6.6165775e-05
6.7147563e-05
6.3002902e-05
5.3228276e-05
3.7940822e-05
1.6477531e-05
3.3635637e-05
3.4357647e-05
3.5945065e-05
3.9746992e-05
4.6981722e-05
5.589712e-05
6.3694251e-05
6.8388432e-05
6.8759336e-05
6.4022596e-05
5.3751054e-05
3.8114079e-05
1.6487766e-05
3.4364223e-05
3.5164902e-05
3.717198e-05
4.1909161e-05
4.9907185e-05
5.8940033e-05
6.6395674e-05
7.0541376e-05
7.0305667e-05
6.4995396e-05
5.4247645e-05
3.8278687e-05
1.6498266e-05
3.5245722e-05
3.6144418e-05
3.8683399e-05
4.4366375e-05
5.2968091e-05
6.1985185e-05
6.9041466e-05
7.2624766e-05
7.1789424e-05
6.5923886e-05
5.471967e-05
3.8435274e-05
1.6509004e-05
3.6304395e-05
3.7335023e-05
4.0508083e-05
4.7090215e-05
5.6128225e-05
6.5015964e-05
7.1626974e-05
7.4638188e-05
7.3213285e-05
6.6810375e-05
5.5168643e-05
3.8584376e-05
1.6519955e-05
3.7571052e-05
3.8780606e-05
4.2660851e-05
5.0044962e-05
5.9355796e-05
6.8018915e-05
7.4148666e-05
7.6582506e-05
7.4579735e-05
6.7656915e-05
5.5595903e-05
3.8726455e-05
1.6531091e-05
3.9083857e-05
4.0525223e-05
4.5140983e-05
5.3191587e-05
6.2623577e-05
7.0983109e-05
7.6603213e-05
7.845884e-05
7.5890912e-05
6.8465408e-05
5.6002634e-05
3.8861906e-05
1.6542386e-05
4.0886896e-05
4.2606849e-05
4.7933086e-05
5.6490975e-05
6.5908432e-05
7.3899511e-05
7.8988628e-05
8.0268718e-05
7.714872e-05
6.9237553e-05
5.6389878e-05
3.8991061e-05
1.6553816e-05
4.3025737e-05
4.505139e-05
5.1009845e-05
5.9906179e-05
6.919083e-05
7.6760099e-05
8.1303224e-05
8.201338e-05
7.8354929e-05
6.9974867e-05
5.6758539e-05
3.9114199e-05
1.6565353e-05
4.5540294e-05
4.7868402e-05
5.4335697e-05
6.3403462e-05
7.2453854e-05
7.9558358e-05
8.3546674e-05
8.3693926e-05
7.9511093e-05
7.0678673e-05
5.7109397e-05
3.9231551e-05
1.6576973e-05
4.8456634e-05
5.1049377e-05
5.7870561e-05
6.6952694e-05
7.5682729e-05
8.2288811e-05
8.5718377e-05
8.5311322e-05
8.0618556e-05
7.1350104e-05
5.7443107e-05
3.9343302e-05
1.6588652e-05
5.1780033e-05
5.4568557e-05
6.1572882e-05
7.0526823e-05
7.8863907e-05
8.4947785e-05
8.781774e-05
8.6866327e-05
8.1678432e-05
7.1990099e-05
5.7760205e-05
3.9449588e-05
1.6600365e-05
5.5491296e-05
5.8385586e-05
6.5401364e-05
7.410091e-05
8.1987183e-05
8.753167e-05
8.9844056e-05
8.8359458e-05
8.2691589e-05
7.2599409e-05
5.8061107e-05
3.9550505e-05
1.6612086e-05
5.95472e-05
6.2448902e-05
6.931558e-05
7.7653811e-05
8.504369e-05
9.0036993e-05
9.1796432e-05
8.979096e-05
8.3658642e-05
7.3178587e-05
5.8346117e-05
3.9646104e-05
1.6623791e-05
6.3884501e-05
6.6699825e-05
7.3278254e-05
8.1167642e-05
8.8025255e-05
9.2460314e-05
9.3673744e-05
9.1160793e-05
8.4579946e-05
7.3728002e-05
5.8615428e-05
3.9736395e-05
1.6635452e-05
6.8427411e-05
7.1077147e-05
7.725526e-05
8.4626122e-05
9.0924232e-05
9.4798155e-05
9.5474614e-05
9.2468619e-05
8.5455604e-05
7.4247833e-05
5.8869126e-05
3.9821352e-05
1.6647042e-05
7.3095621e-05
7.5520357e-05
8.1214786e-05
8.8014269e-05
9.3733403e-05
9.7046991e-05
9.7197422e-05
9.3713824e-05
8.6285474e-05
7.4738088e-05
5.9107197e-05
3.990091e-05
1.6658533e-05
7.7811331e-05
7.9972352e-05
8.5127296e-05
9.131821e-05
9.6445936e-05
9.9203274e-05
9.8840343e-05
9.4895538e-05
8.7069187e-05
7.5198609e-05
5.9329535e-05
3.9974973e-05
1.6669892e-05
8.2504339e-05
8.4381441e-05
8.8965633e-05
9.4525094e-05
9.9055395e-05
0.0001012635
0.00010040141
9.601269e-05
8.7806183e-05
7.5629093e-05
5.9535948e-05
4.004341e-05
1.6681088e-05
8.7114912e-05
8.8702645e-05
9.2705248e-05
9.7623102e-05
0.0001015558
0.00010322431
0.00010187862
9.7064068e-05
8.8495745e-05
7.6029113e-05
5.9726171e-05
4.0106068e-05
1.6692086e-05
9.1594784e-05
9.2898324e-05
9.6324475e-05
0.00010060154
0.00010394172
0.00010508258
0.00010326999
9.8048403e-05
8.913706e-05
7.6398153e-05
5.9899881e-05
4.0162769e-05
1.6702848e-05
9.5906802e-05
9.6938246e-05
9.9804768e-05
0.00010345098
0.00010620837
0.00010683556
0.00010457374
9.8964465e-05
8.9729286e-05
7.6735649e-05
6.0056723e-05
4.0213326e-05
1.6713337e-05
0.00010002379
0.00010079921
0.00010313085
0.00010616337
0.00010835172
0.00010848098
0.00010578837
9.9811165e-05
9.0271625e-05
7.7041039e-05
6.0196333e-05
4.025755e-05
1.6723511e-05
0.00010392707
0.00010446437
0.00010629075
0.00010873218
0.0001103686
0.00011001717
0.00010691277
0.00010058765
9.0763411e-05
7.7313824e-05
6.0318376e-05
4.0295265e-05
1.673333e-05
0.00010760497
0.00010792248
0.00010927567
0.00011115248
0.00011225679
0.00011144311
0.00010794632
0.00010129343
9.1204187e-05
7.7553623e-05
6.0422582e-05
4.0326326e-05
1.6742751e-05
0.00011105138
0.00011116695
0.00011207981
0.00011342094
0.00011401502
0.00011275851
0.00010888897
0.00010192838
9.1593782e-05
7.7760235e-05
6.050878e-05
4.0350633e-05
1.6751734e-05
0.00011426462
0.00011419514
0.00011470008
0.00011553583
0.00011564306
0.00011396384
0.00010974129
0.00010249291
9.1932369e-05
7.793369e-05
6.0576938e-05
4.0368148e-05
1.6760242e-05
0.00011724635
0.00011700754
0.00011713581
0.00011749693
0.00011714164
0.00011506034
0.00011050445
0.00010298791
9.2220509e-05
7.8074283e-05
6.0627182e-05
4.0378906e-05
1.6768241e-05
0.00012000084
0.00011960713
0.00011938835
0.0001193054
0.00011851246
0.00011604994
0.00011118028
0.00010341478
9.2459172e-05
7.8182603e-05
6.0659819e-05
4.0383022e-05
1.6775703e-05
0.00012253429
0.00012199888
0.00012146083
0.00012096367
0.00011975806
0.0001169353
0.00011177115
0.00010377544
9.2649727e-05
7.8259532e-05
6.0675342e-05
4.0380695e-05
1.6782603e-05
0.00012485432
0.00012418924
0.00012335775
0.00012247524
0.00012088178
0.00011771965
0.00011227998
0.00010407226
9.2793928e-05
7.830624e-05
6.0674424e-05
4.0372205e-05
1.6788926e-05
0.00012696955
0.00012618574
0.00012508475
0.0001238445
0.00012188761
0.00011840677
0.00011271013
0.000104308
9.2893869e-05
7.8324155e-05
6.0657906e-05
4.0357907e-05
1.6794662e-05
0.00012888927
0.00012799672
0.00012664834
0.00012507662
0.00012278009
0.00011900084
0.00011306534
0.00010448579
9.2951929e-05
7.8314929e-05
6.062677e-05
4.0338218e-05
1.679981e-05
0.0001306232
0.00012963102
0.00012805564
0.00012617729
0.0001235642
0.00011950639
0.00011334962
0.00010460898
9.2970724e-05
7.8280398e-05
6.0582118e-05
4.0313605e-05
1.6804373e-05
0.0001321813
0.00013109781
0.00012931422
0.00012715268
0.00012424526
0.0001199282
0.00011356723
0.00010468115
9.2953042e-05
7.8222537e-05
6.0525141e-05
4.0284573e-05
1.680836e-05
0.00013357358
0.0001324064
0.00013043192
0.00012800922
0.00012482881
0.00012027123
0.00011372253
0.00010470598
9.2901797e-05
7.8143421e-05
6.0457093e-05
4.0251651e-05
1.6811787e-05
0.00013481001
0.00013356615
0.00013141675
0.00012875356
0.00012532056
0.00012054054
0.00011382
0.00010468727
9.2819983e-05
7.8045192e-05
6.0379268e-05
4.0215381e-05
1.6814675e-05
0.00013590047
0.00013458635
0.00013227676
0.00012939245
0.00012572632
0.00012074126
0.00011386415
0.00010462884
9.271063e-05
7.7930025e-05
6.0292979e-05
4.0176311e-05
1.6817046e-05
0.00013685462
0.00013547617
0.00013302
0.00012993269
0.00012605192
0.00012087854
0.00011385948
0.00010453451
9.2576779e-05
7.7800101e-05
6.0199543e-05
4.0134984e-05
1.6818927e-05
0.00013768192
0.00013624461
0.0001336544
0.00013038106
0.00012630318
0.00012095746
0.00011381047
0.00010440806
9.2421442e-05
7.7657585e-05
6.0100257e-05
4.0091932e-05
1.682035e-05
0.00013839158
0.00013690042
0.0001341878
0.00013074424
0.00012648588
0.00012098309
0.00011372151
0.00010425322
9.2247575e-05
7.7504592e-05
5.9996386e-05
4.0047666e-05
1.6821347e-05
0.00013899246
0.00013745212
0.00013462781
0.00013102883
0.00012660568
0.00012096035
0.00011359689
0.0001040736
9.205804e-05
7.7343165e-05
5.9889141e-05
4.0002671e-05
1.6821952e-05
0.00013949314
0.00013790789
0.00013498181
0.0001312412
0.00012666808
0.00012089403
0.00011344074
0.00010387266
9.1855575e-05
7.7175247e-05
5.9779664e-05
3.9957395e-05
1.68222e-05
0.00013990177
0.00013827558
0.00013525692
0.00013138755
0.0001266784
0.00012078872
0.00011325703
0.00010365371
9.1642765e-05
7.7002657e-05
5.9669009e-05
3.9912245e-05
1.6822125e-05
0.00014022615
0.00013856268
0.00013545992
0.00013147378
0.00012664172
0.0001206488
0.00011304948
0.00010341984
9.1422019e-05
7.6827067e-05
5.9558131e-05
3.9867578e-05
1.6821764e-05
0.00014047366
0.00013877629
0.00013559729
0.00013150553
0.0001265629
0.00012047842
0.00011282162
0.00010317395
9.1195554e-05
7.665e-05
5.944788e-05
3.9823704e-05
1.6821147e-05
0.00014065124
0.00013892311
0.00013567513
0.00013148816
0.00012644651
0.00012028149
0.00011257673
0.00010291869
9.0965398e-05
7.647282e-05
5.9339003e-05
3.9780886e-05
1.6820306e-05
0.00014076548
0.00013900947
0.00013569924
0.00013142673
0.00012629689
0.00012006168
0.00011231788
0.00010265654
9.0733392e-05
7.6296748e-05
5.9232147e-05
3.9739343e-05
1.6819271e-05
0.00014082254
0.00013904132
0.00013567507
0.00013132602
0.00012611813
0.00011982242
0.0001120479
0.00010238974
9.0501202e-05
7.6122864e-05
5.9127871e-05
3.9699254e-05
1.6818069e-05
0.00014082823
0.00013902428
0.00013560777
0.00013119055
0.00012591407
0.00011956696
0.00011176945
0.00010212039
9.0270333e-05
7.5952113e-05
5.9026608e-05
3.9660551e-05
1.6816724e-05
0.00014078804
0.00013896364
0.00013550219
0.00013102458
0.00012568835
0.00011929831
0.00011148499
0.00010185037
9.0042138e-05
7.5785318e-05
5.8928713e-05
3.9623186e-05
1.6815256e-05
0.0001407071
0.00013886434
0.00013536289
0.00013083212
0.00012544439
0.00011901932
0.00011119678
0.00010158143
8.9817809e-05
7.5623133e-05
5.8834218e-05
3.9587459e-05
1.6813685e-05
0.00014059022
0.00013873107
0.00013519418
0.00013061695
0.00012518538
0.00011873261
0.00011090693
0.00010131513
8.9598414e-05
7.5466172e-05
5.8743491e-05
3.9553509e-05
1.681203e-05
0.00014044193
0.00013856816
0.00013500007
0.0001303826
0.00012491431
0.00011844062
0.00011061734
0.00010105285
8.9384787e-05
7.5314602e-05
5.8656999e-05
3.9521445e-05
1.6810315e-05
0.00014026638
0.00013837967
0.00013478426
0.00013013233
0.00012463391
0.00011814556
0.00011032969
0.00010079577
8.9177601e-05
7.516915e-05
5.8574908e-05
3.9491326e-05
1.6808557e-05
0.00014006745
0.00013816932
0.00013455022
0.00012986914
0.00012434669
0.00011784941
0.00011004547
0.0001005449
8.8977415e-05
7.5030292e-05
5.8497355e-05
3.9463189e-05
1.6806777e-05
0.00013984868
0.00013794055
0.00013430107
0.00012959578
0.00012405492
0.00011755394
0.00010976592
0.00010030087
8.8785021e-05
7.4898263e-05
5.842441e-05
3.9437036e-05
1.6804989e-05
0.00013961332
0.0001376965
0.00013403972
0.00012931473
0.0001237606
0.00011726066
0.00010949202
0.0001000646
8.8600849e-05
7.4773208e-05
5.8356083e-05
3.9412845e-05
1.6803206e-05
0.00013936433
0.00013744001
0.00013376875
0.00012902824
0.00012346553
0.00011697086
0.00010922473
9.983683e-05
8.8425191e-05
7.4655198e-05
5.8292341e-05
3.9390571e-05
1.6801439e-05
0.00013910442
0.00013717371
0.00013349057
0.00012873833
0.00012317128
0.00011668565
0.00010896506
9.9618046e-05
8.8258253e-05
7.4544247e-05
5.8233116e-05
3.937016e-05
1.6799697e-05
0.00013883606
0.00013689998
0.0001332073
0.00012844676
0.00012287918
0.00011640632
0.00010871378
9.9408652e-05
8.810017e-05
7.4440329e-05
5.8178325e-05
3.9351552e-05
1.6797988e-05
0.00013856151
0.00013662096
0.00013292086
0.00012815516
0.00012259077
0.00011613388
0.00010847153
9.9208973e-05
8.7951032e-05
7.4343395e-05
5.8127874e-05
3.9334687e-05
1.6796319e-05
0.00013828281
0.0001363386
0.00013263306
0.00012786521
0.00012230732
0.00011586927
0.00010823887
9.9019273e-05
8.781089e-05
7.4253376e-05
5.8081666e-05
3.9319507e-05
1.6794695e-05
0.00013800185
0.00013605476
0.00013234567
0.0001275784
0.00012203001
0.0001156133
0.00010801628
9.8839756e-05
8.7679758e-05
7.4170185e-05
5.8039598e-05
3.9305954e-05
1.6793123e-05
0.00013772041
0.00013577119
0.00013206027
0.0001272961
0.00012175988
0.00011536666
0.00010780415
9.8670561e-05
8.7557603e-05
7.409371e-05
5.8001555e-05
3.9293968e-05
1.6791608e-05
0.00013744013
0.00013548946
0.00013177832
0.0001270195
0.00012149783
0.00011512993
0.00010760276
9.8511748e-05
8.7444339e-05
7.40238e-05
5.7967405e-05
3.9283479e-05
1.6790156e-05
0.00013716246
0.000135211
0.00013150109
0.00012674966
0.00012124462
0.00011490357
0.0001074123
9.8363295e-05
8.7339816e-05
7.3960266e-05
5.7936989e-05
3.9274408e-05
1.678877e-05
0.00013688872
0.00013493705
0.00013122969
0.00012648747
0.00012100085
0.00011468791
0.00010723285
9.8225091e-05
8.7243819e-05
7.3902871e-05
5.7910125e-05
3.9266668e-05
1.6787451e-05
0.00013662004
0.0001346687
0.00013096508
0.00012623365
0.000120767
0.00011448314
0.00010706439
9.8096944e-05
8.7156072e-05
7.3851342e-05
5.788661e-05
3.9260161e-05
1.6786203e-05
0.00013635738
0.00013440686
0.00013070804
0.0001259888
0.00012054341
0.00011428937
0.00010690678
9.7978595e-05
8.7076255e-05
7.3805376e-05
5.7866225e-05
3.9254788e-05
1.6785023e-05
0.00013610157
0.00013415231
0.00013045923
0.00012575339
0.00012033032
0.00011410661
0.00010675986
9.786974e-05
8.700402e-05
7.376466e-05
5.7848752e-05
3.9250452e-05
1.6783912e-05
0.00013585331
0.0001339057
0.00013021918
0.00012552777
0.00012012788
0.00011393478
0.0001066234
9.7770051e-05
8.6939012e-05
7.3728885e-05
5.7833982e-05
3.9247062e-05
1.6782868e-05
0.00013561321
0.00013366761
0.00012998836
0.00012531223
0.00011993618
0.00011377381
0.00010649715
9.7679194e-05
8.6880886e-05
7.3697757e-05
5.7821721e-05
3.9244539e-05
1.6781888e-05
0.00013538179
0.0001334385
0.00012976715
0.00012510701
0.00011975527
0.00011362355
0.00010638085
9.7596845e-05
8.6829312e-05
7.3671006e-05
5.7811796e-05
3.9242814e-05
1.6780973e-05
0.0001351595
0.00013321878
0.00012955586
0.00012491229
0.00011958516
0.00011348388
0.00010627425
9.7522688e-05
8.6783983e-05
7.3648385e-05
5.7804054e-05
3.9241828e-05
1.678012e-05
0.00013494674
0.00013300883
0.00012935476
0.0001247282
0.00011942583
0.00011335462
0.00010617708
9.7456414e-05
8.6744602e-05
7.362966e-05
5.7798352e-05
3.9241529e-05
1.677933e-05
0.00013474382
0.00013280892
0.00012916407
0.00012455482
0.00011927724
0.00011323558
0.00010608906
9.7397706e-05
8.6710876e-05
7.3614605e-05
5.7794555e-05
3.9241865e-05
1.6778601e-05
0.00013455102
0.00013261929
0.00012898393
0.00012439218
0.00011913925
0.00011312655
0.00010600989
9.7346236e-05
8.6682503e-05
7.3602989e-05
5.7792523e-05
3.9242783e-05
1.6777933e-05
0.00013436851
0.00013244007
0.0001288144
0.00012424025
0.00011901172
0.00011302725
0.00010593922
9.7301646e-05
8.6659164e-05
7.359457e-05
5.7792112e-05
3.9244226e-05
1.6777326e-05
0.00013419638
0.00013227134
0.00012865549
0.00012409891
0.00011889442
0.00011293735
0.00010587668
9.7263555e-05
8.6640523e-05
7.3589095e-05
5.7793168e-05
3.9246133e-05
1.6776777e-05
0.00013403465
0.00013211308
0.00012850711
0.00012396797
0.00011878705
0.00011285648
0.00010582184
9.7231553e-05
8.6626226e-05
7.35863e-05
5.7795532e-05
3.9248442e-05
1.6776283e-05
0.00013388323
0.00013196518
0.0001283691
0.0001238472
0.00011868927
0.00011278423
0.00010577428
9.720522e-05
8.6615913e-05
7.3585918e-05
5.7799045e-05
3.9251088e-05
1.6775842e-05
0.000133742
0.00013182749
0.00012824124
0.00012373629
0.00011860072
0.00011272016
0.00010573355
9.7184133e-05
8.6609228e-05
7.358769e-05
5.7803554e-05
3.9254014e-05
1.6775451e-05
0.00013361075
0.0001316998
0.00012812328
0.00012363492
0.000118521
0.00011266385
0.00010569918
9.7167879e-05
8.6605834e-05
7.3591375e-05
5.7808921e-05
3.9257168e-05
1.6775106e-05
0.00013348928
0.00013158186
0.00012801492
0.00012354274
0.00011844971
0.00011261486
0.00010567076
9.7156072e-05
8.6605417e-05
7.3596754e-05
5.7815023e-05
3.9260507e-05
1.6774804e-05
0.00013337732
0.0001314734
0.00012791588
0.0001234594
0.00011838644
0.00011257275
0.00010564788
9.7148353e-05
8.6607693e-05
7.3603634e-05
5.7821755e-05
3.9263995e-05
1.6774542e-05
0.00013327462
0.00013137416
0.00012782582
0.00012338455
0.00011833081
0.00011253715
0.00010563015
9.7144389e-05
8.6612407e-05
7.3611843e-05
5.782903e-05
3.9267605e-05
1.6774318e-05
0.0001331809
0.00013128384
0.00012774444
0.00012331784
0.00011828245
0.00011250765
0.00010561722
9.7143875e-05
8.6619324e-05
7.3621231e-05
5.7836769e-05
3.9271314e-05
1.677413e-05
0.00013309587
0.00013120214
0.00012767142
0.00012325891
0.00011824097
0.0001124839
0.00010560874
9.7146518e-05
8.6628224e-05
7.3631657e-05
5.7844903e-05
3.9275099e-05
1.6773976e-05
0.00013301924
0.00013112875
0.00012760641
0.0001232074
0.00011820601
0.00011246551
0.00010560437
9.7152035e-05
8.6638896e-05
7.3642983e-05
5.7853361e-05
3.9278939e-05
1.6773855e-05
0.00013295069
0.00013106335
0.00012754908
0.00012316294
0.00011817717
0.00011245211
0.00010560377
9.7160141e-05
8.6651127e-05
7.3655071e-05
5.7862073e-05
3.9282809e-05
1.6773765e-05
0.00013288987
0.00013100557
0.00012749905
0.00012312515
0.00011815407
0.00011244332
0.0001056066
9.7170553e-05
8.6664702e-05
7.3667781e-05
5.7870963e-05
3.9286682e-05
1.6773703e-05
0.00013283642
0.00013095506
0.00012745593
0.00012309361
0.00011813629
0.00011243876
0.00010561251
9.7182985e-05
8.6679409e-05
7.3680973e-05
5.7879957e-05
3.9290533e-05
1.6773667e-05
0.00013278996
0.00013091141
0.00012741932
0.00012306792
0.00011812344
0.00011243804
0.00010562117
9.7197157e-05
8.6695037e-05
7.369451e-05
5.7888981e-05
3.9294333e-05
1.6773655e-05
0.00013275009
0.00013087423
0.0001273888
0.00012304767
0.00011811509
0.00011244078
0.00010563224
9.7212802e-05
8.6711389e-05
7.3708263e-05
5.7897968e-05
3.929806e-05
1.6773664e-05
0.00013271641
0.00013084311
0.00012736398
0.00012303244
0.00011811087
0.00011244663
0.00010564541
9.7229673e-05
8.6728288e-05
7.372212e-05
5.7906859e-05
3.9301694e-05
1.6773692e-05
0.00013268854
0.00013081766
0.00012734446
0.00012302184
0.0001181104
0.00011245524
0.0001056604
9.7247548e-05
8.6745576e-05
7.3735985e-05
5.791561e-05
3.9305224e-05
1.6773735e-05
0.00013266609
0.00013079752
0.00012732985
0.00012301551
0.00011811334
0.00011246632
0.00010567695
9.7266235e-05
8.6763122e-05
7.3749783e-05
5.7924188e-05
3.9308641e-05
1.6773793e-05
0.00013264873
0.0001307823
0.0001273198
0.0001230131
0.00011811936
0.00011247959
0.00010569485
9.7285568e-05
8.6780819e-05
7.3763456e-05
5.7932571e-05
3.9311943e-05
1.6773863e-05
0.00013263609
0.00013077169
0.00012731398
0.00012301429
0.00011812817
0.00011249478
0.00010571389
9.7305404e-05
8.6798576e-05
7.3776959e-05
5.7940745e-05
3.9315129e-05
1.6773945e-05
0.00013262787
0.00013076534
0.00012731206
0.00012301877
0.0001181395
0.00011251168
0.0001057339
9.7325613e-05
8.6816315e-05
7.3790253e-05
5.7948698e-05
3.9318201e-05
1.6774038e-05
0.00013262373
0.00013076294
0.00012731373
0.00012302626
0.00011815309
0.00011253007
0.00010575469
9.7346075e-05
8.6833961e-05
7.3803302e-05
5.7956417e-05
3.9321139e-05
1.677414e-05
0.00013262336
0.00013076418
0.00012731869
0.00012303645
0.00011816868
0.00011254971
0.0001057761
9.7366669e-05
8.6851438e-05
7.3816065e-05
5.7963881e-05
3.9323928e-05
1.6774251e-05
0.00013262644
0.00013076873
0.00012732661
0.00012304906
0.000118186
0.0001125704
0.00010579796
9.7387271e-05
8.6868664e-05
7.382849e-05
5.7971048e-05
3.9326579e-05
1.6774369e-05
0.00013263263
0.00013077626
0.00012733719
0.0001230638
0.00011820479
0.00011259192
0.00010582009
9.7407754e-05
8.6885554e-05
7.3840529e-05
5.7977901e-05
3.9329087e-05
1.6774492e-05
0.00013264159
0.00013078644
0.00012735009
0.00012308035
0.00011822479
0.00011261404
0.00010584233
9.7427988e-05
8.6902016e-05
7.3852105e-05
5.7984431e-05
3.933145e-05
1.677462e-05
0.00013265297
0.00013079893
0.000127365
0.00012309843
0.00011824575
0.00011263655
0.00010586449
9.744785e-05
8.6917966e-05
7.3863185e-05
5.7990619e-05
3.9333664e-05
1.6774751e-05
0.00013266646
0.0001308134
0.00012738161
0.00012311775
0.0001182674
0.00011265924
0.00010588643
9.7467222e-05
8.6933312e-05
7.3873745e-05
5.799645e-05
3.9335725e-05
1.6774882e-05
0.00013268171
0.00013082955
0.00012739961
0.00012313804
0.00011828953
0.00011268194
0.00010590801
9.7486002e-05
8.6948015e-05
7.3883757e-05
5.8001915e-05
3.9337633e-05
1.6775014e-05
0.00013269844
0.00013084707
0.00012741874
0.00012315907
0.00011831193
0.00011270447
0.0001059291
9.750411e-05
8.6962046e-05
7.3893204e-05
5.800701e-05
3.9339389e-05
1.6775145e-05
0.00013271637
0.0001308657
0.00012743875
0.0001231806
0.00011833442
0.00011272672
0.0001059496
9.7521513e-05
8.6975384e-05
7.3902084e-05
5.8011741e-05
3.9340998e-05
1.6775274e-05
0.00013273529
0.00013088522
0.00012745943
0.00012320247
0.00011835686
0.00011274855
0.00010596946
9.7538185e-05
8.6988021e-05
7.3910402e-05
5.8016118e-05
3.9342467e-05
1.67754e-05
0.00013275497
0.00013090544
0.00012748059
0.00012322452
0.00011837912
0.0001127699
0.00010598865
9.7554112e-05
8.6999962e-05
7.3918175e-05
5.8020158e-05
3.9343805e-05
1.6775523e-05
0.00013277527
0.00013092619
0.00012750209
0.00012324661
0.00011840111
0.00011279072
0.00010600715
9.7569291e-05
8.7011222e-05
7.3925423e-05
5.8023878e-05
3.9345021e-05
1.6775643e-05
0.00013279603
0.00013094731
0.00012752379
0.00012326864
0.00011842275
0.00011281097
0.00010602493
9.7583728e-05
8.7021819e-05
7.3932169e-05
5.8027299e-05
3.9346125e-05
1.677576e-05
0.00013281711
0.00013096869
0.00012754557
0.00012329052
0.000118444
0.00011283061
0.00010604198
9.759743e-05
8.7031771e-05
7.3938435e-05
5.8030437e-05
3.9347124e-05
1.6775874e-05
0.00013283842
0.00013099022
0.00012756735
0.00012331217
0.00011846479
0.00011284961
0.00010605829
9.7610402e-05
8.7041094e-05
7.394424e-05
5.8033308e-05
3.9348027e-05
1.6775985e-05
0.00013285983
0.00013101179
0.00012758902
0.00012333351
0.00011848506
0.00011286793
0.00010607386
9.7622647e-05
8.7049801e-05
7.3949598e-05
5.8035923e-05
3.9348837e-05
1.6776092e-05
0.00013288124
0.00013103329
0.00012761049
0.00012335447
0.00011850476
0.00011288554
0.00010608866
9.7634166e-05
8.70579e-05
7.3954522e-05
5.803829e-05
3.9349558e-05
1.6776197e-05
0.00013290255
0.00013105464
0.00012763168
0.00012337497
0.00011852383
0.0001129024
0.00010610268
9.7644957e-05
8.7065399e-05
7.3959019e-05
5.8040417e-05
3.9350192e-05
1.6776297e-05
0.00013292366
0.00013107573
0.00012765249
0.00012339494
0.00011854222
0.0001129185
0.00010611591
9.7655019e-05
8.7072302e-05
7.3963098e-05
5.8042308e-05
3.9350743e-05
1.6776394e-05
0.00013294447
0.00013109647
0.00012767285
0.00012341432
0.00011855989
0.00011293379
0.00010612834
9.7664355e-05
8.7078619e-05
7.3966768e-05
5.8043972e-05
3.9351211e-05
1.6776486e-05
0.0001329649
0.00013111677
0.00012769267
0.00012343304
0.0001185768
0.00011294826
0.00010613996
9.7672974e-05
8.7084364e-05
7.3970042e-05
5.8045416e-05
3.9351602e-05
1.6776574e-05
0.00013298484
0.00013113656
0.00012771189
0.00012345105
0.00011859291
0.0001129619
0.00010615078
9.7680889e-05
8.7089553e-05
7.3972936e-05
5.8046651e-05
3.9351919e-05
1.6776657e-05
0.00013300425
0.00013115577
0.00012773046
0.00012346832
0.00011860821
0.00011297471
0.00010616082
9.7688124e-05
8.7094211e-05
7.3975471e-05
5.8047692e-05
3.9352167e-05
1.6776735e-05
0.00013302304
0.00013117434