/*--------------------------------*- C++ -*----------------------------------*\
| =========                 |                                                 |
| \\      /  F ield         | OpenFOAM: The Open Source CFD Toolbox           |
|  \\    /   O peration     | Version:  2506                                  |
|   \\  /    A nd           | Website:  www.openfoam.com                      |
|    \\/     M anipulation  |                                                 |
\*---------------------------------------------------------------------------*/
FoamFile
{
    version     2.0;
    format      ascii;
    arch        "LSB;label=32;scalar=64";
    class       surfaceScalarField;
    location    "17000/water";
    object      phi;
}
// * * * * * * * * * * * * * * * * * * * * * * * * * * * * * * * * * * * * * //

dimensions      [1 0 -1 0 0 0 0];

oriented        oriented;

internalField   nonuniform List<scalar> 
4987
(
-6.9167736e-06
0.00085760419
-2.7656569e-05
0.0024926737
-6.1431121e-05
0.0040117068
-0.0001075903
0.0054211695
-0.00016565319
0.0067272392
-0.00023525167
0.0079357375
-0.00031606519
0.0090521266
-0.00040763483
0.010081416
-0.00050867084
0.011027654
-0.00061447105
0.011892066
-0.00070641237
0.012665127
-0.00069017742
0.01327532
0.013255156
-6.4252097e-06
0.00086402939
-2.4701717e-05
0.0025109502
-5.3973207e-05
0.0040409782
-9.3433184e-05
0.0054606295
-0.00014227852
0.0067760845
-0.00019970621
0.0079931652
-0.00026484255
0.0091172629
-0.00033648012
0.010153054
-0.00041221923
0.011103393
-0.0004856843
0.011965531
-0.00053558126
0.012715024
-0.00047144624
0.013211185
0.01278371
-6.163969e-06
0.00087019336
-2.380905e-05
0.0025285953
-5.2164898e-05
0.0040693341
-9.0528703e-05
0.0054989933
-0.00013822172
0.0068237776
-0.00019455674
0.0080495002
-0.00025870612
0.0091814123
-0.00032929751
0.010223645
-0.00040329175
0.011177387
-0.00047276141
0.012035
-0.00051220841
0.012754471
-0.00042242592
0.013121403
0.012361284
-6.1054147e-06
0.00087629878
-2.3924376e-05
0.0025464143
-5.2620538e-05
0.0040980303
-9.1395558e-05
0.0055377683
-0.00013947504
0.006871857
-0.00019604176
0.0081060669
-0.00026004543
0.009245416
-0.00032969289
0.010293293
-0.00040116834
0.011248863
-0.00046497904
0.012098811
-0.00049117541
0.012780667
-0.00037835998
0.013008587
0.011982924
-5.9919785e-06
0.00088229076
-2.3432324e-05
0.0025638546
-5.1502783e-05
0.0041261007
-8.9417765e-05
0.0055756833
-0.0001363976
0.0069188369
-0.00019157934
0.0081612487
-0.00025377584
0.0093076125
-0.0003208868
0.010360404
-0.00038849227
0.011316468
-0.0004456482
0.012155967
-0.00045837524
0.012793394
-0.00033102689
0.012881239
0.011651897
-5.8197985e-06
0.00088811056
-2.2720415e-05
0.0025807553
-4.9911332e-05
0.0041532916
-8.6629801e-05
0.0056124017
-0.00013209822
0.0069643053
-0.00018540983
0.0082145603
-0.00024524283
0.0093674455
-0.00030921061
0.010424371
-0.00037232044
0.011379578
-0.00042207813
0.012205725
-0.00042081904
0.012792135
-0.00028517408
0.012745594
0.011366723
-5.6148952e-06
0.00089372545
-2.1923414e-05
0.0025970638
-4.8158186e-05
0.0041795264
-8.3570099e-05
0.0056478136
-0.00012737381
0.007008109
-0.00017860877
0.0082657952
-0.00023581604
0.0094246528
-0.00029633568
0.010484891
-0.0003545854
0.011437828
-0.00039630862
0.012247448
-0.00038067559
0.012776502
-0.00024201049
0.012606929
0.011124713
-5.4046946e-06
0.00089913015
-2.1106786e-05
0.0026127659
-4.6361914e-05
0.0042047815
-8.0433153e-05
0.0056818849
-0.00012252438
0.0070502002
-0.00017161842
0.0083148893
-0.0002261212
0.0094791555
-0.00028309872
0.010541869
-0.00033629459
0.011491024
-0.00036936757
0.012280521
-0.00033930313
0.012746438
-0.00020218079
0.012469807
0.010922532
-5.2040372e-06
0.00090433418
-2.0322449e-05
0.0026278843
-4.4632487e-05
0.0042290916
-7.7407183e-05
0.0057146596
-0.000117836
0.007090629
-0.00016484161
0.0083618949
-0.00021669175
0.0095310057
-0.00027015443
0.010595331
-0.00031814583
0.011539015
-0.00034189245
0.012304267
-0.00029797663
0.012702522
-0.0001662914
0.012338121
0.010756241
-5.0193755e-06
0.00090935356
-1.9599432e-05
0.0026424643
-4.3036007e-05
0.0042525281
-7.4608171e-05
0.0057462317
-0.00011348606
0.0071295069
-0.00015852683
0.0084069356
-0.0002078498
0.0095803287
-0.00025787593
0.010645357
-0.00030047882
0.011581618
-0.00031421626
0.012318005
-0.00025799659
0.012646302
-0.00013488814
0.012215013
0.010621352
-4.8544122e-06
0.00091420797
-1.8953518e-05
0.0026565634
-4.1607992e-05
0.0042751826
-7.2098328e-05
0.0057767221
-0.00010956978
0.0071669784
-0.00015280648
0.0084501723
-0.00019976083
0.009627283
-0.00024643025
0.010692027
-0.00028338284
0.01161857
-0.00028657101
0.012321193
-0.00022065197
0.012580383
-0.00010831398
0.012102675
0.010513039
-4.7104907e-06
0.00091891846
-1.838964e-05
0.0026702426
-4.0359025e-05
0.004297152
-6.9895773e-05
0.0058062588
-0.00010611414
0.0072031967
-0.00014771517
0.0084917734
-0.00019245611
0.0096720239
-0.00023580475
0.010735375
-0.00026674607
0.011649512
-0.00025920371
0.012313651
-0.00018698909
0.012508168
-8.6549236e-05
0.012002235
0.010426489
-4.5864893e-06
0.00092350495
-1.7903118e-05
0.0026835592
-3.9278552e-05
0.0043185274
-6.7981782e-05
0.0058349621
-0.00010308929
0.0072383042
-0.0001432058
0.0085318899
-0.00018585427
0.0097146724
-0.00022583645
0.010775358
-0.0002503233
0.011673999
-0.00023244679
0.012295774
-0.00015760689
0.012433329
-6.9195206e-05
0.011913823
0.010357294
-4.47971e-06
0.00092798466
-1.7483378e-05
0.0026965629
-3.8343221e-05
0.0043393873
-6.631536e-05
0.0058629342
-0.00010043089
0.0072724198
-0.00013918123
0.0085706402
-0.00017980338
0.0097552946
-0.00021627053
0.010811825
-0.0002338457
0.011691574
-0.00020673153
0.01226866
-0.00013260939
0.012359206
-5.5603111e-05
0.011836817
0.010301691
-4.3869483e-06
0.00093237161
-1.7117943e-05
0.0027092939
-3.7525518e-05
0.0043597948
-6.4848148e-05
0.0058902568
-9.8062773e-05
0.0073056344
-0.00013552609
0.0086081035
-0.00017412332
0.0097938918
-0.00020682318
0.010844525
-0.00021713162
0.011701882
-0.00018252415
0.012234053
-0.00011170489
0.012288387
-4.5044654e-05
0.011770157
0.010256646
-4.3051908e-06
0.0009366768
-1.6795059e-05
0.0027217838
-3.6799451e-05
0.0043797992
-6.3534222e-05
0.0059169916
-9.5911854e-05
0.007338012
-0.0001321276
0.0086443193
-0.00016863371
0.0098303979
-0.0001972305
0.010873121
-0.00020015793
0.01170481
-0.0001602209
0.012194115
-9.4372483e-05
0.012222539
-3.6838818e-05
0.011712623
0.010219807
-4.2319149e-06
0.00094090871
-1.6504851e-05
0.0027340567
-3.6143084e-05
0.0043994375
-6.2334438e-05
0.005943183
-9.3914665e-05
0.0073695922
-0.00012888455
0.0086792892
-0.00016316714
0.0098646805
-0.00018728235
0.010897237
-0.00018307195
0.011700599
-0.00014006424
0.012151108
-8.0017929e-05
0.012162492
-3.0412509e-05
0.011663018
0.010189395
-4.1651417e-06
0.00094507386
-1.6239539e-05
0.0027461311
-3.5538992e-05
0.0044187369
-6.1217189e-05
0.0059688612
-9.2018424e-05
0.0074003935
-0.00012570858
0.0087129793
-0.00015757395
0.0098965459
-0.00017684648
0.010916509
-0.00016614712
0.0116899
-0.0001221172
0.012107078
-6.8078241e-05
0.012108453
-2.5313025e-05
0.011620253
0.010164082
-4.1033745e-06
0.00094917723
-1.5993201e-05
0.0027580209
-3.4973725e-05
0.0044377174
-6.0157433e-05
0.0059940449
-9.0179431e-05
0.0074304155
-0.00012252186
0.0087453218
-0.00015172469
0.0099257487
-0.0001658846
0.010930669
-0.00014970629
0.011673722
-0.00010629217
0.012063664
-5.8071522e-05
0.012060233
-2.1196921e-05
0.011583378
0.010142885
-4.045497e-06
0.00095322273
-1.5761374e-05
0.0027697368
-3.4436919e-05
0.004456393
-5.9135102e-05
0.0060187431
-8.8360527e-05
0.0074596409
-0.00011925379
0.008776215
-0.00014551369
0.0099520086
-0.00015445694
0.010939612
-0.00013404494
0.01165331
-9.240639e-05
0.012022025
-4.9608157e-05
0.012017435
-1.7811014e-05
0.011551581
0.010125074
-3.9906705e-06
0.0009572134
-1.5540649e-05
0.0027812868
-3.3920384e-05
0.0044747727
-5.8133471e-05
0.0060429561
-8.6528476e-05
0.0074880359
-0.00011583835
0.0088055249
-0.00013886507
0.0099750353
-0.00014270997
0.010943457
-0.00011937991
0.01162998
-8.023623e-05
0.011982881
-4.2382125e-05
0.01197958
-1.4972585e-05
0.011524171
0.010110101
-3.9382459e-06
0.00096115164
-1.5328322e-05
0.0027926768
-3.3417324e-05
0.0044928617
-5.7137747e-05
0.0060666766
-8.4651726e-05
0.0075155499
-0.00011221298
0.0088330861
-0.00013174064
0.009994563
-0.00013084741
0.010942564
-0.00010583199
0.011604964
-6.9555656e-05
0.011946605
-3.6155817e-05
0.011946181
-1.2551508e-05
0.011500567
0.01009755
-3.8876947e-06
0.00096503934
-1.512212e-05
0.0028039113
-3.2921707e-05
0.0045106613
-5.6133919e-05
0.0060898888
-8.2698664e-05
0.0075421146
-0.00010831969
0.0088587072
-0.00012414735
0.010010391
-0.00011909198
0.010937509
-9.3435698e-05
0.011579308
-6.0156888e-05
0.011913326
-3.0745121e-05
0.011916769
-1.0455498e-05
0.011480277
0.010087094
-3.8385567e-06
0.0009688779
-1.4919992e-05
0.0028149927
-3.2427783e-05
0.0045281691
-5.5107849e-05
0.0061125688
-8.0636491e-05
0.0075676433
-0.00010410814
0.0088821788
-0.00011614034
0.010022423
-0.00010764918
0.010929017
-8.2162713e-05
0.011553821
-5.18581e-05
0.011883022
-2.6007006e-05
0.011890918
-8.6187508e-06
0.011462889
0.010078476
-3.790402e-06
0.0009726683
-1.4719951e-05
0.0028259223
-3.1929704e-05
0.0045453789
-5.4044565e-05
0.0061346837
-7.8430838e-05
0.0075920295
-9.9540735e-05
0.0089032887
-0.00010781835
0.0100307
-9.6682482e-05
0.010917882
-7.1946845e-05
0.011529086
-4.4503959e-05
0.011855579
-2.1829742e-05
0.011868244
-6.9937014e-06
0.011448053
0.010071482
-3.7428e-06
0.0009764111
-1.4519944e-05
0.0028366994
-3.1421227e-05
0.0045622801
-5.2927707e-05
0.0061561902
-7.6046256e-05
0.0076151481
-9.4598624e-05
0.0089218411
-9.9310961e-05
0.010035413
-8.6303354e-05
0.010904874
-6.2703773e-05
0.011505486
-3.7963127e-05
0.011830838
-1.8125322e-05
0.011848406
-5.545286e-06
0.011435473
0.010065937
-3.6952977e-06
0.00098010639
-1.4317762e-05
0.0028473219
-3.0895461e-05
0.0045788578
-5.1739148e-05
0.0061770339
-7.3447799e-05
0.0076368567
-8.9287315e-05
0.0089376806
-9.0760479e-05
0.010036886
-7.657376e-05
0.010890687
-5.4344019e-05
0.011483256
-3.2125047e-05
0.011808619
-1.4823679e-05
0.011831104
-4.2469934e-06
0.011424896
0.01006169
-3.6473962e-06
0.00098375379
-1.4110935e-05
0.0028577854
-3.034464e-05
0.0045950915
-5.0458782e-05
0.006197148
-7.0603632e-05
0.0076570016
-8.3639729e-05
0.0089507167
-8.2303593e-05
0.01003555
-6.7515795e-05
0.010875899
-4.6780157e-05
0.011462521
-2.6896723e-05
0.011788736
-1.1868353e-05
0.011816076
-3.0782557e-06
0.011416106
0.010058611
-3.5985289e-06
0.00098735232
-1.3896642e-05
0.0028680835
-2.9759896e-05
0.0046109548
-4.906462e-05
0.0062164527
-6.7488584e-05
0.0076754255
-7.7715072e-05
0.0089609432
-7.4057337e-05
0.010031892
-5.9123308e-05
0.010860965
-3.9930393e-05
0.011443328
-2.2199852e-05
0.011771005
-9.2132776e-06
0.011803089
-2.0226556e-06
0.011408916
0.010056589
-3.5480256e-06
0.00099090035
-1.3671564e-05
0.0028782071
-2.9130949e-05
0.0046264142
-4.7533109e-05
0.0062348549
-6.4087907e-05
0.0076919803
-7.1592542e-05
0.0089684478
-6.6111085e-05
0.010026411
-5.1371375e-05
0.010846226
-3.3718965e-05
0.011425676
-1.7967089e-05
0.011755253
-6.8191864e-06
0.011791942
-1.0665689e-06
0.011403163
0.010055522
-3.4950999e-06
0.00099439545
-1.343182e-05
0.0028881438
-2.8446031e-05
0.0046414284
-4.5840364e-05
0.0062522492
-6.0401301e-05
0.0077065413
-6.5362288e-05
0.0089734088
-5.8525782e-05
0.010019574
-4.4224381e-05
0.010831924
-2.8076925e-05
0.011409528
-1.414003e-05
0.011741316
-4.6491655e-06
0.011782451
-1.6922627e-07
0.011398683
0.010055353
-3.4388795e-06
0.00099783433
-1.3173131e-05
0.002897878
-2.7692439e-05
0.0046559477
-4.3964995e-05
0.0062685218
-5.6447128e-05
0.0077190234
-5.911756e-05
0.0089760792
-5.1340495e-05
0.010011797
-3.7645564e-05
0.010818229
-2.2947469e-05
0.01139483
-1.067477e-05
0.011729044
-2.6811033e-06
0.011774457
6.6543924e-07
0.011395337
0.010056018
-3.3783152e-06
0.0010012126
-1.2890439e-05
0.0029073902
-2.6855998e-05
0.0046699133
-4.1889316e-05
0.0062835551
-5.2260845e-05
0.0077293949
-5.294344e-05
0.0089767618
-4.4574268e-05
0.010003428
-3.1596014e-05
0.010805251
-1.8279632e-05
0.011381514
-7.5311945e-06
0.011718295
-8.8304265e-07
0.011767809
1.4049792e-06
0.011393049
0.010057423
-3.3120984e-06
0.0010045247
-1.2577618e-05
0.0029166557
-2.5921008e-05
0.0046832566
-3.9601337e-05
0.0062972354
-4.7891278e-05
0.0077376849
-4.6909594e-05
0.0089757802
-3.8229297e-05
0.0099947476
-2.6033942e-05
0.010793056
-1.4024287e-05
0.011369504
-4.6695592e-06
0.011708941
7.7463908e-07
0.011762365
2.0667134e-06
0.011391757
0.01005949
-3.2386929e-06
0.0010077634
-1.2227714e-05
0.0029256447
-2.4871688e-05
0.0046959006
-3.7098721e-05
0.0063094625
-4.339767e-05
0.0077439838
-4.1070821e-05
0.0089734533
-3.2299152e-05
0.0099859759
-2.092074e-05
0.010781677
-1.0139964e-05
0.011358723
-2.059146e-06
0.01170086
2.2779808e-06
0.011758028
2.663863e-06
0.011391371
0.010062154
-3.156277e-06
0.0010109197
-1.1832822e-05
0.0029343212
-2.3693037e-05
0.0047077608
-3.4390253e-05
0.0063201597
-3.8842815e-05
0.0077484364
-3.5466326e-05
0.0089700768
-2.6770481e-05
0.0099772801
-1.6218805e-05
0.010771126
-6.5853327e-06
0.01134909
3.4752605e-07
0.011693927
3.6322552e-06
0.011754743
3.2023298e-06
0.011391801
0.010065356
-3.062712e-06
0.0010139824
-1.1384178e-05
0.0029426427
-2.2372403e-05
0.0047187491
-3.14965e-05
0.0063292838
-3.4287353e-05
0.0077512272
-3.0121856e-05
0.0089659113
-2.1625924e-05
0.0099687841
-1.189404e-05
0.010761394
-3.3303022e-06
0.011340526
2.5511196e-06
0.011688046
4.8617013e-06
0.011752432
3.6898641e-06
0.011392972
0.010069046
-2.9555342e-06
0.001016938
-1.0872488e-05
0.0029505597
-2.0901461e-05
0.004728778
-2.8448941e-05
0.0063368313
-2.9785787e-05
0.0077525641
-2.5052585e-05
0.0089611781
-1.6845445e-05
0.009960577
-7.9111858e-06
0.01075246
-3.2668e-07
0.011332941
4.5434615e-06
0.011683175
5.9754238e-06
0.011751
4.1313671e-06
0.011394816
0.010073178
-2.8319482e-06
0.0010197699
-1.0288359e-05
0.0029580161
-1.9277896e-05
0.0047377676
-2.5286898e-05
0.0063428403
-2.5383487e-05
0.0077526607
-2.0264983e-05
0.0089560596
-1.2407934e-05
0.0099527199
-4.2418378e-06
0.010744293
2.4380867e-06
0.011326262
6.3570814e-06
0.011679256
6.9858558e-06
0.011750371
4.531384e-06
0.011397271
0.010077709
-2.6889079e-06
0.0010224588
-9.6232135e-06
0.0029649504
-1.7507132e-05
0.0047456515
-2.2054214e-05
0.0063473873
-2.1116472e-05
0.0077517229
-1.5759119e-05
0.0089507023
-8.2896658e-06
0.0099452505
-8.4669246e-07
0.01073685
4.95371e-06
0.011320461
8.0065336e-06
0.011676204
7.9031318e-06
0.011750475
4.8940347e-06
0.01140028
0.010082603
-2.523251e-06
0.0010249821
-8.8703666e-06
0.0029712975
-1.5602917e-05
0.004752384
-1.8795231e-05
0.0063505797
-1.7011673e-05
0.0077499393
-1.1530747e-05
0.0089452213
-4.4700504e-06
0.0099381898
2.2909245e-06
0.010730089
7.2494725e-06
0.011315503
9.5068526e-06
0.011673946
8.7354172e-06
0.011751246
5.2223184e-06
0.011403793
0.010087825
-2.3319762e-06
0.001027314
-8.0264306e-06
0.0029769919
-1.3587022e-05
0.0047579446
-1.5551727e-05
0.0063525444
-1.308784e-05
0.0077474755
-7.5701167e-06
0.0089397036
-9.1695519e-07
0.0099315366
5.1652256e-06
0.010724007
9.3447265e-06
0.011311323
1.0871822e-05
0.011672419
9.4904873e-06
0.011752628
5.5192651e-06
0.011407764
0.010093345
-2.1126564e-06
0.0010294267
-7.0926692e-06
0.002981972
-1.1487702e-05
0.0047623397
-1.2360805e-05
0.0063534175
-9.357517e-06
0.0077444722
-3.8681966e-06
0.0089342143
2.3810573e-06
0.0099252874
7.7969561e-06
0.010718591
1.1256128e-05
0.011307864
1.2113036e-05
0.011671562
1.017479e-05
0.011754566
5.7872835e-06
0.011412152
0.010099132
-1.8640296e-06
0.0010312907
-6.0761628e-06
0.0029861841
-9.3375055e-06
0.004765601
-9.2536439e-06
0.0063533336
-5.8256662e-06
0.0077410442
-4.0098911e-07
0.0089287896
5.4170016e-06
0.0099194694
1.0205899e-05
0.010713802
1.2998913e-05
0.011305071
1.3240793e-05
0.01167132
1.0794042e-05
0.011757013
6.0285595e-06
0.011416917
0.01010516
-1.5866542e-06
0.0010328774
-4.9902489e-06
0.0029895877
-7.1706537e-06
0.0047677814
-6.2553125e-06
0.0063524183
-2.492794e-06
0.0077372817
2.8316114e-06
0.0089234652
8.2067056e-06
0.0099140943
1.2408833e-05
0.0107096
1.4586504e-05
0.011302893
1.4264108e-05
0.011671643
1.1353199e-05
0.011759924
6.2449464e-06
0.011422026
0.010111405
-1.2835187e-06
0.0010341609
-3.8541889e-06
0.0029921584
-5.0207894e-06
0.004768948
-3.3849537e-06
0.0063507824
6.4622124e-07
0.0077332505
5.8153851e-06
0.008918296
1.0765946e-05
0.0099091437
1.442086e-05
0.010705945
1.6030845e-05
0.011301283
1.5191009e-05
0.011672483
1.1856695e-05
0.011763258
6.4381459e-06
0.011427444
0.010117843
-9.6034907e-07
0.0010351212
-2.6918177e-06
0.0029938898
-2.9183239e-06
0.0047691745
-6.5056698e-07
0.0063485147
3.5783265e-06
0.0077290216
8.5630309e-06
0.0089133113
1.3108719e-05
0.009904598
1.625471e-05
0.010702799
1.7341734e-05
0.011300196
1.6027899e-05
0.011673796
1.2307915e-05
0.011766978
6.609348e-06
0.011433143
0.010124453
-6.2534861e-07
0.0010357466
-1.5291002e-06
0.0029947936
-8.8731964e-07
0.0047685327
1.9291834e-06
0.0063456982
6.2874529e-06
0.0077246633
1.1084259e-05
0.0089085145
1.5247747e-05
0.0099004346
1.7922026e-05
0.010700125
1.8528106e-05
0.01129959
1.6780635e-05
0.011675544
1.2710001e-05
0.011771048
6.7597022e-06
0.011439093
0.010131213
-2.8821181e-07
0.0010360348
-3.906485e-07
0.002994896
1.0457763e-06
0.0047670963
4.3267861e-06
0.0063424172
8.7772886e-06
0.0077202128
1.3387686e-05
0.0089039041
1.7193426e-05
0.0098966288
1.94322e-05
0.010697886
1.9597046e-05
0.011299425
1.7453715e-05
0.011677687
1.3065223e-05
0.011775437
6.8899316e-06
0.011445268
0.010138102
4.0787428e-08
0.001035994
6.9668545e-07
0.0029942401
2.8486555e-06
0.0047649443
6.5297047e-06
0.0063387361
1.1049656e-05
0.0077156929
1.5480481e-05
0.0088994733
1.8954291e-05
0.009893155
2.0792827e-05
0.010696048
2.0554167e-05
0.011299664
1.8050602e-05
0.011680191
1.337525e-05
0.011780112
7.0005382e-06
0.011451643
0.010145103
3.5067688e-07
0.0010356433
1.7048821e-06
0.0029928859
4.4971203e-06
0.0047621521
8.5308321e-06
0.0063347024
1.3105781e-05
0.0077111179
1.7368085e-05
0.008895211
2.0536821e-05
0.0098899863
2.2009577e-05
0.010694575
2.1403523e-05
0.01130027
1.8573625e-05
0.011683021
1.3641033e-05
0.011785045
7.0916652e-06
0.011458192
0.010152195
6.3199055e-07
0.0010350113
2.6137908e-06
0.0029909041
5.9771827e-06
0.0047587887
1.0324481e-05
0.0063303551
1.4946227e-05
0.0077064962
1.9054173e-05
0.0088911031
2.194539e-05
0.0098870951
2.3086117e-05
0.010693434
2.2147484e-05
0.011301209
1.9023877e-05
0.011686144
1.3862759e-05
0.011790206
7.1631436e-06
0.011464892
0.010159358
8.787555e-07
0.0010341326
3.4113559e-06
0.0029883715
7.2794917e-06
0.0047549206
1.1906806e-05
0.0063257278
1.6571336e-05
0.0077018317
2.0541115e-05
0.0088871333
2.318268e-05
0.0098844535
2.4024453e-05
0.010692593
2.2787036e-05
0.011302446
1.9401402e-05
0.01168953
1.4039933e-05
0.011795568
7.2144534e-06
0.011471717
0.010166572
1.0878922e-06
0.0010330447
4.0915146e-06
0.0029853679
8.3994229e-06
0.0047506127
1.3276104e-05
0.0063208511
1.7981602e-05
0.0076971262
2.1830292e-05
0.0088832846
2.4249896e-05
0.0098820339
2.482504e-05
0.010692017
2.3321756e-05
0.011303949
1.9705173e-05
0.011693146
1.4171374e-05
0.011801101
7.2448131e-06
0.011478644
0.010173817
1.2588887e-06
0.0010317858
4.6536261e-06
0.0029819732
9.3370064e-06
0.0047459293
1.4433195e-05
0.0063157549
1.9178243e-05
0.0076923811
2.2922698e-05
0.0088795401
2.5147319e-05
0.0098798093
2.548725e-05
0.010691678
2.3750241e-05
0.011305686
1.9933336e-05
0.011696963
1.4255313e-05
0.011806779
7.2530891e-06
0.011485646
0.01018107
1.3932132e-06
0.0010303926
5.1015002e-06
0.0029782649
1.0096558e-05
0.0047409342
1.5381647e-05
0.0063104698
2.0163676e-05
0.0076875991
2.3819451e-05
0.0088758844
2.5874736e-05
0.009877754
2.600969e-05
0.010691543
2.4070258e-05
0.011307626
2.0083363e-05
0.01170095
1.4289522e-05
0.011812573
7.2379608e-06
0.011492698
0.010188308
1.4936617e-06
0.0010288989
5.4422521e-06
0.0029743163
1.0686086e-05
0.0047356904
1.6127844e-05
0.0063050281
2.0941983e-05
0.007682785
2.4522393e-05
0.008872304
2.6432045e-05
0.0098758443
2.6390748e-05
0.010691584
2.4279237e-05
0.011309737
2.0152368e-05
0.011705077
1.4271517e-05
0.011818454
7.1979921e-06
0.011499771
0.010195506
1.5637774e-06
0.0010273352
5.6851806e-06
0.0029701949
1.1116553e-05
0.004730259
1.6680898e-05
0.0062994637
2.1519264e-05
0.0076779466
2.5034671e-05
0.0088687886
2.6819913e-05
0.0098740591
2.6629217e-05
0.010691775
2.4374809e-05
0.011311992
2.0137558e-05
0.011709314
1.4198832e-05
0.011824393
7.131699e-06
0.011506838
0.010202638
1.6073883e-06
0.0010257278
5.8407422e-06
0.0029659615
1.1400997e-05
0.0047246988
1.7052258e-05
0.0062938125
2.1903663e-05
0.0076730952
2.5360985e-05
0.0088653312
2.7040087e-05
0.00987238
2.6724622e-05
0.01069209
2.4355065e-05
0.011314361
2.0036472e-05
0.011713633
1.4069268e-05
0.01183036
7.037845e-06
0.01151387
0.010209676
1.6282974e-06
0.0010240995
5.919773e-06
0.00296167
1.1553749e-05
0.0047190648
1.7255319e-05
0.0062881109
2.2105415e-05
0.0076682451
2.5507967e-05
0.0088619287
2.7095993e-05
0.009870792
2.667789e-05
0.010692508
2.4219287e-05
0.01131682
1.984755e-05
0.011718005
1.3881247e-05
0.011836326
6.9154514e-06
0.011520836
0.010216591
1.6300837e-06
0.0010224694
5.9328941e-06
0.0029573672
1.1589677e-05
0.004713408
1.7304837e-05
0.0062823957
2.2136554e-05
0.0076634134
2.5484128e-05
0.0088585811
2.6992813e-05
0.0098692833
2.6491511e-05
0.010693009
2.3968044e-05
0.011319343
1.9570331e-05
0.011722402
1.3634024e-05
0.011842263
6.7640548e-06
0.011527706
0.010223355
1.6160013e-06
0.0010208534
5.8901336e-06
0.0029530931
1.1523605e-05
0.0047077745
1.721641e-05
0.0062767029
2.2010624e-05
0.0076586192
2.5299824e-05
0.0088552919
2.6737666e-05
0.0098678454
2.616984e-05
0.010693577
2.3603646e-05
0.011321909
1.9205783e-05
0.0117268
1.3327915e-05
0.01184814
6.5837447e-06
0.01153445
0.010229939
1.5889348e-06
0.0010192645
5.8006955e-06
0.0029488813
1.1369835e-05
0.0047022054
1.7005935e-05
0.0062710668
2.1742242e-05
0.0076538828
2.4966981e-05
0.0088520672
2.6339478e-05
0.0098664729
2.5719089e-05
0.010694198
2.313013e-05
0.011324498
1.8756409e-05
0.011731174
1.296441e-05
0.011853932
6.3752779e-06
0.011541039
0.010236314
1.5513976e-06
0.0010177131
5.6728536e-06
0.0029447599
1.1141831e-05
0.0046967364
1.6689156e-05
0.0062655195
2.1346658e-05
0.0076492253
2.4498763e-05
0.008848915
2.5808763e-05
0.0098651629
2.51472e-05
0.010694859
2.255324e-05
0.011327092
1.8226222e-05
0.011735501
1.2546173e-05
0.011859612
6.1400768e-06
0.011547445
0.010242454
1.5055555e-06
0.0010162075
5.5139346e-06
0.0029407515
1.0852031e-05
0.0046913983
1.6281315e-05
0.0062600902
2.0839368e-05
0.0076446673
2.3909229e-05
0.0088458452
2.5157394e-05
0.0098639148
2.4463708e-05
0.010695553
2.1880371e-05
0.011329676
1.7620728e-05
0.011739761
1.2077009e-05
0.011865156
5.8801639e-06
0.011553642
0.010248334
1.4532509e-06
0.0010147543
5.3303336e-06
0.0029368744
1.0511703e-05
0.0046862169
1.5796829e-05
0.0062548051
2.0235662e-05
0.0076402285
2.3212855e-05
0.008842868
2.4398113e-05
0.0098627295
2.3679309e-05
0.010696272
2.1120143e-05
0.011332235
1.6946607e-05
0.011743934
1.1561665e-05
0.011870541
5.5981267e-06
0.011559605
0.010253933
1.3960489e-06
0.0010133582
5.1275969e-06
0.0029331429
1.0130967e-05
0.0046812136
1.5249156e-05
0.0062496869
1.9550411e-05
0.0076359272
2.2424287e-05
0.0088399941
2.3544336e-05
0.0098616095
2.280569e-05
0.01069701
2.0282346e-05
0.011334758
1.6211617e-05
0.011748005
1.1005697e-05
0.011875747
5.2969334e-06
0.011565314
0.010259229
1.3352677e-06
0.0010120229
4.9104899e-06
0.0029295677
9.7187876e-06
0.0046764053
1.4650653e-05
0.006244755
1.8797758e-05
0.0076317801
2.1557938e-05
0.0088372339
2.2609691e-05
0.0098605577
2.1855073e-05
0.010697765
1.9377436e-05
0.011337236
1.5424216e-05
0.011751958
1.0415221e-05
0.011880756
4.9798631e-06
0.01157075
0.010264209
1.2720144e-06
0.0010107509
4.6830827e-06
0.0029261566
9.2830376e-06
0.0046718053
1.4012533e-05
0.0062400256
1.7990966e-05
0.0076278017
2.0627752e-05
0.0088345972
2.1607739e-05
0.0098595777
2.0839932e-05
0.010698533
1.841632e-05
0.01133966
1.4593327e-05
0.011755781
9.7967182e-06
0.011885553
4.6503851e-06
0.011575896
0.01026886
1.2072186e-06
0.0010095437
4.4488466e-06
0.002922915
8.8306016e-06
0.0046674236
1.3344896e-05
0.0062355113
1.7142359e-05
0.0076240042
1.9647068e-05
0.0088320925
2.0551811e-05
0.009858673
1.9772802e-05
0.010699312
1.7410157e-05
0.011342022
1.3728169e-05
0.011759463
9.1568735e-06
0.011890124
4.3120044e-06
0.011580741
0.010273172
1.1416559e-06
0.001008402
4.2107174e-06
0.0029198459
8.3674408e-06
0.0046632668
1.2656728e-05
0.006231222
1.6263197e-05
0.0076203977
1.8628389e-05
0.0088297273
1.9454665e-05
0.0098578467
1.8665911e-05
0.010700101
1.6369951e-05
0.011344318
1.2837936e-05
0.011762995
8.5023895e-06
0.01189446
3.9682823e-06
0.011585275
0.01027714
1.0759737e-06
0.0010073261
3.9711799e-06
0.0029169507
7.8987079e-06
0.0046593393
1.1955999e-05
0.0062271647
1.536374e-05
0.00761699
1.7583388e-05
0.0088275076
1.8328491e-05
0.0098571016
1.7531151e-05
0.010700898
1.5306586e-05
0.011346543
1.1931756e-05
0.01176637
7.8399098e-06
0.011898551
3.6226859e-06
0.011589492
0.010280763
1.0107093e-06
0.0010063154
3.7323259e-06
0.0029142291
7.428828e-06
0.0046556428
1.1249722e-05
0.0062233438
1.4453226e-05
0.0076137865
1.6522815e-05
0.008825438
1.7184726e-05
0.0098564397
1.6379857e-05
0.010701703
1.423053e-05
0.011348692
1.1018478e-05
0.011769582
7.1758708e-06
0.011902394
3.278535e-06
0.011593389
0.010284041
9.4630641e-07
0.0010053691
3.4958982e-06
0.0029116795
6.9615682e-06
0.0046521771
1.0543988e-05
0.0062197614
1.3539866e-05
0.0076107906
1.5456405e-05
0.0088235215
1.6033903e-05
0.0098558622
1.5222598e-05
0.010702514
1.315163e-05
0.011350763
1.0106478e-05
0.011772627
6.5164065e-06
0.011905984
2.9390753e-06
0.011596967
0.01028698
8.8312892e-07
0.0010044859
3.2633531e-06
0.0029092993
6.500127e-06
0.0046489404
9.844094e-06
0.0062164174
1.2630946e-05
0.0076080038
1.4392981e-05
0.0088217594
1.4885729e-05
0.0098553694
1.4069244e-05
0.010703331
1.207919e-05
0.011352753
9.2036617e-06
0.011775503
5.8672381e-06
0.01190932
2.6071869e-06
0.011600227
0.010289588
8.2147018e-07
0.0010036645
3.0358788e-06
0.0029070848
6.0471699e-06
0.0046459291
9.154536e-06
0.00621331
1.1732769e-05
0.0076054255
1.3340282e-05
0.0088201519
1.3748807e-05
0.0098549609
1.2928607e-05
0.010704151
1.1021489e-05
0.01135466
8.3171042e-06
0.011778207
5.2335073e-06
0.011912404
2.2855387e-06
0.011603175
0.010291873
7.6156632e-07
0.0010029029
2.8144428e-06
0.002905032
5.6049088e-06
0.0046431386
8.4791217e-06
0.0062104358
1.0850775e-05
0.0076030539
1.2305097e-05
0.0088186976
1.2630785e-05
0.0098546352
1.1808578e-05
0.010704973
9.986019e-06
0.011356483
7.4531252e-06
0.01178074
4.6197228e-06
0.011915237
1.9763592e-06
0.011605818
0.010293849
7.0359936e-07
0.0010021993
2.5998092e-06
0.0029031358
5.1751259e-06
0.0046405633
7.8209876e-06
0.00620779
9.9895157e-06
0.0076008854
1.1293178e-05
0.0088173939
1.1538185e-05
0.0098543902
1.0715896e-05
0.010705795
8.9790934e-06
0.01135822
6.6170411e-06
0.011783102
4.0296165e-06
0.011917825
1.6814836e-06
0.011608166
0.010295531
6.4771078e-07
0.0010015516
2.3925755e-06
0.0029013909
4.7592496e-06
0.0046381966
7.1826936e-06
0.0062053665
9.1527763e-06
0.0075989153
1.0309364e-05
0.0088162374
1.0476526e-05
0.0098542231
9.656262e-06
0.010706616
8.0060433e-06
0.01135987
5.8132164e-06
0.011785295
3.4661464e-06
0.011920172
1.402274e-06
0.01161023
0.010296933
5.9400576e-07
0.0010009576
2.193197e-06
0.0028997917
4.3583945e-06
0.0046360314
6.5662902e-06
0.0062031586
8.3436397e-06
0.0075971379
9.3576451e-06
0.0088152234
9.4503855e-06
0.0098541303
8.6343848e-06
0.010707432
7.0712048e-06
0.011361433
5.045117e-06
0.011787321
2.9315337e-06
0.011922286
1.13964e-06
0.011612022
0.010298073
5.4255647e-07
0.001000415
2.0019979e-06
0.0028983323
3.9733903e-06
0.00463406
5.9733504e-06
0.0062011587
7.5645219e-06
0.0075955468
8.441176e-06
0.0088143467
8.4633756e-06
0.0098541081
7.6539482e-06
0.010708241
6.1778671e-06
0.011362909
4.315273e-06
0.011789184
2.4273011e-06
0.011924174
8.9418635e-07
0.011613555
0.010298967
4.934164e-07
0.0009999216
1.8192214e-06
0.0028970065
3.6048783e-06
0.0046322744
5.405128e-06
0.0061993584
6.8173926e-06
0.0075941345
7.5625677e-06
0.0088136015
7.5185151e-06
0.0098541522
6.7180077e-06
0.010709041
5.3287534e-06
0.011364298
3.6256464e-06
0.011790887
1.9544635e-06
0.011925845
6.6608659e-07
0.011614844
0.010299633
4.4661226e-07
0.00099947499
1.6450089e-06
0.0028958081
3.2532784e-06
0.0046306661
4.8625e-06
0.0061977492
6.1036758e-06
0.0075928933
6.7237369e-06
0.0088129815
6.6180019e-06
0.0098542579
5.8287551e-06
0.010709831
4.5256787e-06
0.011365601
2.9774826e-06
0.011792435
1.513588e-06
0.011927309
4.5545778e-07
0.011615902
0.010300089
4.0215756e-07
0.00099907283
1.4794464e-06
0.0028947308
2.918882e-06
0.0046292267
4.3461248e-06
0.0061963219
5.4244952e-06
0.0075918149
5.9262368e-06
0.0088124797
5.7636589e-06
0.0098544205
4.9880154e-06
0.010710606
3.7702154e-06
0.011366819
2.3718027e-06
0.011793833
1.1051092e-06
0.011928575
2.6233536e-07
0.011616744
0.010300351
3.6005132e-07
0.00099871278
1.3225655e-06
0.0028937683
2.6018581e-06
0.0046279474
3.8564511e-06
0.0061950673
4.7806651e-06
0.0075908907
5.1712349e-06
0.0088120891
4.9568677e-06
0.0098546349
4.1971746e-06
0.010711366
3.0635041e-06
0.011367953
1.8094191e-06
0.011795087
7.296772e-07
0.011929655
8.931205e-08
0.011617385
0.01030044
3.2027482e-07
0.00099839251
1.1743238e-06
0.0028929142
2.3022129e-06
0.0046268195
3.3936385e-06
0.0061939759
4.1725778e-06
0.0075901118
4.4593349e-06
0.0088118024
4.1983336e-06
0.0098548958
3.456863e-06
0.010712108
2.4059265e-06
0.011369004
1.2903686e-06
0.011796203
3.872171e-07
0.011930558
-6.2537389e-08
0.011617834
0.010300378
2.8279417e-07
0.00099810971
1.0346202e-06
0.0028921624
2.0198132e-06
0.0046258343
2.9576062e-06
0.0061930381
3.6002644e-06
0.0075894691
3.79067e-06
0.008811612
3.4882022e-06
0.0098551983
2.7671011e-06
0.010712829
1.7973393e-06
0.011369973
8.1466651e-07
0.011797186
8.0128734e-08
0.011931293
-1.9874709e-07