/*--------------------------------*- C++ -*----------------------------------*\
| =========                 |                                                 |
| \\      /  F ield         | OpenFOAM: The Open Source CFD Toolbox           |
|  \\    /   O peration     | Version:  2506                                  |
|   \\  /    A nd           | Website:  www.openfoam.com                      |
|    \\/     M anipulation  |                                                 |
\*---------------------------------------------------------------------------*/
FoamFile
{
    version     2.0;
    format      ascii;
    arch        "LSB;label=32;scalar=64";
    class       volVectorField;
    location    "17000/water";
    object      U;
}
// * * * * * * * * * * * * * * * * * * * * * * * * * * * * * * * * * * * * * //

dimensions      [0 1 -1 0 0 0 0];

internalField   nonuniform List<vector> 
2600
(
(0.2509291 -6.6886033e-05 -4.8272793e-19)
(0.25093316 -0.00014739222 -3.4735132e-18)
(0.25094167 -0.00023143146 -4.5110013e-19)
(0.2509543 -0.00031980044 -7.8375097e-19)
(0.25097092 -0.0004082391 -1.0632734e-20)
(0.25099124 -0.00049673666 -3.8522346e-20)
(0.25101467 -0.0005856609 -3.0615035e-20)
(0.25103908 -0.00067482201 -1.3520829e-20)
(0.25105541 -0.00075972197 3.0241186e-20)
(0.25102652 -0.00083857781 -6.3053211e-20)
(0.25079811 -0.00098580402 2.6831685e-20)
(0.24954942 -0.001485464 -1.2418454e-19)
(0.2411817 0.0014904344 -4.6705482e-19)
(0.25290631 -5.2391824e-05 -5.4299539e-20)
(0.25291356 -0.00012867936 -4.3413328e-18)
(0.25292967 -0.00020232594 -1.3736702e-18)
(0.25295369 -0.00027812692 -8.7841723e-19)
(0.25298503 -0.00035187867 -3.0370914e-19)
(0.25302278 -0.00042368282 -1.6427068e-19)
(0.25306456 -0.0004936843 3.3528898e-20)
(0.25310219 -0.00056251339 1.4348225e-19)
(0.25310631 -0.00062550536 -3.6826835e-20)
(0.25297401 -0.00066089398 -3.5978819e-20)
(0.25231856 -0.00068576655 -6.2407245e-20)
(0.24919071 -0.0011507908 -2.4011437e-19)
(0.23317376 0.00055016191 -4.5636587e-19)
(0.25485703 -5.0201261e-05 6.4473097e-23)
(0.25486389 -0.00012463928 -1.8070108e-18)
(0.2548791 -0.00019574884 -2.3251629e-18)
(0.2549016 -0.00026956178 -3.1020836e-19)
(0.25493052 -0.00034177627 -2.8692863e-19)
(0.25496396 -0.00041257844 -1.3791146e-19)
(0.25499618 -0.00048173979 2.5361764e-19)
(0.25500857 -0.00054996705 6.5241443e-19)
(0.25494172 -0.00061637669 2.8046778e-19)
(0.2546073 -0.0006602417 1.3088886e-19)
(0.25332071 -0.00063871076 -1.0912988e-19)
(0.2478214 -0.00092597142 -3.1202049e-19)
(0.22526486 0.00012340436 -4.5030778e-19)
(0.25664521 -4.9743849e-05 1.8645155e-18)
(0.25665224 -0.00012488064 9.7138171e-19)
(0.2566674 -0.00019721364 2.4331774e-19)
(0.2566896 -0.0002720698 -4.7288335e-19)
(0.25671747 -0.00034495172 -1.185614e-19)
(0.25674738 -0.00041609227 -6.9108454e-20)
(0.25676826 -0.0004848948 3.0632906e-19)
(0.25674667 -0.00055096518 2.0257226e-19)
(0.25658539 -0.00061444887 -1.0321339e-19)
(0.2559957 -0.0006636637 -2.5165754e-20)
(0.2539403 -0.00063277351 -7.9919788e-20)
(0.24583249 -0.00077044467 -2.9911105e-19)
(0.21800982 -5.9385921e-05 -4.4126572e-19)
(0.25841323 -4.8556775e-05 1.0594103e-18)
(0.2584204 -0.00012219546 1.6467967e-18)
(0.25843571 -0.00019301892 1.0350806e-18)
(0.25845781 -0.00026625064 -7.078609e-19)
(0.25848442 -0.00033744492 -2.4827073e-19)
(0.25850914 -0.00040689654 -5.4186553e-20)
(0.25851346 -0.00047389151 8.5963365e-20)
(0.25844542 -0.00053705871 -2.6874818e-19)
(0.25816424 -0.00059536594 -1.1732885e-19)
(0.25726648 -0.00064373127 -9.1677415e-20)
(0.25431322 -0.00061442321 -1.058597e-20)
(0.24352458 -0.00065114415 -1.8159992e-19)
(0.21163262 -0.00012321892 -3.4851291e-19)
(0.26015467 -4.709344e-05 5.9811738e-19)
(0.26016187 -0.0001185153 1.2458688e-18)
(0.26017704 -0.0001870764 6.6402982e-19)
(0.2601984 -0.00025799462 2.8876858e-19)
(0.26022227 -0.00032687702 -1.6205092e-19)
(0.26023853 -0.00039398781 1.055384e-19)
(0.26021927 -0.00045855461 -9.1400258e-20)
(0.26009115 -0.00051865148 -8.1950686e-21)
(0.25966515 -0.00057157394 1.175053e-19)
(0.2584067 -0.0006148087 4.6250075e-20)
(0.25443266 -0.00058544056 1.5371983e-20)
(0.24102793 -0.0005571206 3.6912166e-20)
(0.20612335 -0.00013293671 -2.7500066e-19)
(0.26183846 -4.5390267e-05 5.4458082e-19)
(0.26184561 -0.00011435405 1.0591924e-18)
(0.26186042 -0.00018050108 1.0235267e-18)
(0.26188043 -0.00024892327 8.709221e-19)
(0.26190008 -0.00031528561 3.6067881e-20)
(0.26190445 -0.00037977027 8.605146e-20)
(0.26185458 -0.00044151446 -1.6889969e-19)
(0.2616533 -0.0004983285 -1.8885015e-19)
(0.26105826 -0.00054618084 -3.0585559e-19)
(0.25938354 -0.00058222647 -1.09894e-19)
(0.25426994 -0.00054801504 -7.8202844e-20)
(0.23842933 -0.00047868139 2.5443894e-20)
(0.20141646 -0.00011963306 -3.0219641e-19)
(0.26345768 -4.3664882e-05 -1.3572018e-18)
(0.26346469 -0.00011008557 -7.593877e-19)
(0.26347885 -0.00017377013 -9.1339198e-20)
(0.26349678 -0.00023963045 7.8990939e-20)
(0.26351051 -0.00030340684 1.3884627e-19)
(0.26349932 -0.00036518044 3.0230502e-20)
(0.26341166 -0.00042394822 -7.6135549e-20)
(0.2631242 -0.00047735793 -2.0889444e-19)
(0.26233468 -0.00052050214 -1.0941116e-19)
(0.26018092 -0.00054846095 -1.7175487e-19)
(0.25381559 -0.00050481858 -9.2669838e-20)
(0.23581666 -0.00040978299 1.3860893e-19)
(0.19745226 -9.8494617e-05 -2.2860545e-19)
(0.26501552 -4.2046878e-05 3.1114021e-18)
(0.26502225 -0.00010599907 1.2094234e-18)
(0.26503542 -0.0001673021 9.771854e-19)
(0.26505044 -0.00023067618 7.6007739e-19)
(0.26505633 -0.00029193977 4.2727938e-19)
(0.26502564 -0.00035106733 4.6902642e-20)
(0.26489279 -0.0004068816 -2.1070039e-20)
(0.26450568 -0.00045685739 -4.3956673e-20)
(0.26349313 -0.00049549057 -2.8002196e-19)
(0.26078727 -0.00051473411 -1.1610005e-19)
(0.25307513 -0.00045847926 -9.2174257e-20)
(0.23327192 -0.00034737981 1.3916675e-19)
(0.19416843 -7.6932878e-05 -5.3660591e-20)
(0.2665165 -4.057706e-05 1.8115022e-18)
(0.26652283 -0.00010224007 1.29814e-18)
(0.26653459 -0.00016134013 7.0581757e-19)
(0.26654572 -0.0002224043 1.0122057e-18)
(0.26654166 -0.00028132047 5.0659918e-19)
(0.26648729 -0.00033795568 -2.8766814e-20)
(0.26630156 -0.0003909415 -3.6938321e-20)
(0.26580019 -0.00043752442 -6.0926537e-20)
(0.26453091 -0.00047164498 -1.6323499e-19)
(0.26118849 -0.00048140525 -1.2069584e-20)
(0.25206937 -0.00041120617 -4.491593e-20)
(0.23086314 -0.00029047959 -1.606203e-19)
(0.19149027 -5.8333256e-05 -2.5003074e-19)
(0.26796591 -3.9276698e-05 -1.739786e-18)
(0.26797166 -9.8886216e-05 -6.5576309e-19)
(0.26798155 -0.00015601486 4.2578474e-20)
(0.26798768 -0.00021499986 8.1108809e-19)
(0.26797137 -0.00027178437 6.3134838e-20)
(0.26788889 -0.00032612646 1.4396992e-19)
(0.26764202 -0.00037645613 -4.3652769e-20)
(0.26700984 -0.00041972353 -1.2609413e-19)
(0.26544297 -0.00044912486 -3.4098439e-20)
(0.26137042 -0.00044842588 -4.8873481e-20)
(0.25083979 -0.00036475941 -1.3820464e-19)
(0.22864123 -0.00023936528 -4.7256913e-19)
(0.18933265 -4.3854024e-05 -3.5652802e-19)
(0.26936985 -3.8151202e-05 -8.478854e-19)
(0.26937484 -9.5961771e-05 -6.6472828e-19)
(0.26938229 -0.00015136516 2.6727698e-19)
(0.2693822 -0.00020851724 2.0940186e-19)
(0.26935114 -0.00026339986 3.6085204e-20)
(0.26923575 -0.00031565718 1.0461874e-19)
(0.26891866 -0.00036350366 -1.339992e-19)
(0.26813622 -0.00040351927 -2.2934552e-19)
(0.26622207 -0.00042777198 -6.5050996e-20)
(0.26132397 -0.00041560855 -1.9198408e-19)
(0.24944814 -0.00032041762 -2.6216584e-19)
(0.22663743 -0.00019477817 -5.5089549e-19)
(0.18760708 -3.3365972e-05 -3.6955771e-19)
(0.27073452 -3.7186892e-05 -1.0021418e-18)
(0.27073851 -9.3441595e-05 -3.2720712e-20)
(0.27074291 -0.00014735094 1.8509224e-19)
(0.27073523 -0.00020290125 1.3523692e-20)
(0.27068668 -0.00025609589 1.1173206e-19)
(0.27053315 -0.00030645578 -2.4273907e-20)
(0.27013553 -0.00035195662 -1.0904112e-19)
(0.26917943 -0.00038871662 -1.891618e-19)
(0.26685881 -0.00040716162 -1.069946e-19)
(0.26105041 -0.00038281109 -1.4185159e-19)
(0.24796793 -0.00027903903 -2.0456052e-19)
(0.2248628 -0.00015723519 -5.1654896e-19)
(0.18622942 -2.6089619e-05 -3.378942e-19)
(0.27206549 -3.6358598e-05 7.2657921e-19)
(0.27206822 -9.1270024e-05 2.6643837e-19)
(0.27206885 -0.00014388431 1.5458338e-19)
(0.27205207 -0.00019803069 7.1921334e-19)
(0.27198302 -0.00024971698 -2.1424208e-19)
(0.27178551 -0.0002983267 1.6697084e-19)
(0.27129541 -0.00034156266 4.0929446e-19)
(0.27013718 -0.00037494839 2.5510372e-20)
(0.26734241 -0.00038673535 -1.5398324e-19)
(0.2605654 -0.00035005845 -1.0329179e-19)
(0.24647172 -0.00024119444 -2.4981491e-19)
(0.22331131 -0.00012666963 -3.3975702e-19)
(0.18512583 -2.107637e-05 -4.1043812e-19)
(0.27336737 -3.5638788e-05 1.6943717e-18)
(0.27336856 -8.938186e-05 6.3041034e-19)
(0.27336463 -0.00014086217 9.9590641e-19)
(0.27333706 -0.00019376295 1.9985866e-19)
(0.27324415 -0.00024407934 3.2429204e-20)
(0.27299604 -0.00029103798 9.8710057e-20)
(0.27239931 -0.00033202382 2.7520366e-19)
(0.27100443 -0.00036176734 1.4887573e-19)
(0.26766283 -0.00036596046 4.2153181e-20)
(0.25989992 -0.00031757793 -1.5715684e-19)
(0.24502002 -0.00020725745 -5.4140042e-19)
(0.22196569 -0.00010242448 -1.212142e-19)
(0.18423545 -1.7507117e-05 -1.8903976e-19)
(0.27464382 -3.5002894e-05 -6.5162747e-19)
(0.27464313 -8.7716017e-05 8.8652352e-20)
(0.27463375 -0.00013818758 8.4047149e-19)
(0.2745935 -0.00018996324 4.934255e-19)
(0.27447297 -0.00023900779 4.154656e-19)
(0.27416661 -0.00028436529 5.6204726e-20)
(0.27344636 -0.00032304577 -2.1409735e-19)
(0.27177364 -0.00034871442 2.6860729e-20)
(0.26781391 -0.00034445792 -1.3129233e-19)
(0.25909705 -0.00028576382 -2.2030703e-19)
(0.2436552 -0.00017740821 -3.0108887e-19)
(0.22080343 -8.347306e-05 -3.4229839e-19)
(0.18351045 -1.4804615e-05 5.3646641e-20)
(0.27589768 -3.4431105e-05 5.2765325e-19)
(0.27589473 -8.6221417e-05 -6.1037185e-19)
(0.27587888 -0.00013577914 -4.6190766e-19)
(0.27582384 -0.00018651757 5.1300934e-19)
(0.27567139 -0.00023435206 3.5584572e-19)
(0.27529788 -0.00027811161 1.0481845e-19)
(0.27443375 -0.00031435606 -6.0279235e-20)
(0.27243556 -0.00033536392 -6.2359372e-20)
(0.26779662 -0.00032206948 -4.4033944e-20)
(0.25820551 -0.00025510598 -2.8268372e-19)
(0.24240122 -0.00015160162 -9.924931e-20)
(0.21980119 -6.8691002e-05 -4.1976216e-19)
(0.18291435 -1.2618553e-05 -2.7885142e-19)
(0.27713109 -3.3908296e-05 1.9681974e-18)
(0.27712546 -8.4858e-05 -1.954448e-19)
(0.27710201 -0.00013357264 -5.0346706e-19)
(0.27702977 -0.00018333501 5.5933103e-19)
(0.27684047 -0.00022998947 5.5302044e-19)
(0.2763893 -0.00027211088 2.4004898e-19)
(0.27535691 -0.00030570399 -8.5811394e-20)
(0.2729805 -0.00032135787 -5.1225717e-20)
(0.26762111 -0.00029886295 -1.5725055e-19)
(0.25727242 -0.00022610441 -3.2271172e-19)
(0.24126718 -0.00012956886 -3.1734246e-19)
(0.21893722 -5.7057435e-05 -3.7037672e-19)
(0.18241982 -1.0759083e-05 -3.2251132e-19)
(0.27834572 -3.3423243e-05 -2.0170613e-19)
(0.27833694 -8.3595437e-05 3.2074503e-19)
(0.2783046 -0.00013151911 -3.070404e-19)
(0.27821241 -0.00018034488 6.7919153e-19)
(0.27798052 -0.00022582105 1.6324693e-19)
(0.27743925 -0.00026622306 2.050735e-19)
(0.27620962 -0.00029685485 2.8166532e-19)
(0.27340008 -0.00030643644 -1.0255614e-19)
(0.26730692 -0.00027509383 -3.4655172e-19)
(0.25633756 -0.0001991843 -3.0294878e-19)
(0.24025214 -0.0001108758 -2.1429035e-19)
(0.21819234 -4.7749367e-05 -1.7002627e-19)
(0.18200662 -9.1303524e-06 -4.3291924e-19)
(0.27954284 -3.2967675e-05 -1.0380996e-18)
(0.27953036 -8.2411064e-05 1.1465946e-18)
(0.27948767 -0.00012958149 9.5884651e-19)
(0.27937237 -0.00017749197 -2.5204133e-19)
(0.27909121 -0.00022176546 1.6664312e-19)
(0.27844503 -0.00026032527 -2.4293407e-20)
(0.27698441 -0.00028758731 3.4424483e-19)
(0.27368915 -0.00029046172 -6.304422e-22)
(0.26688073 -0.00025114512 -9.2891131e-21)
(0.25543062 -0.00017462896 1.7337753e-19)
(0.2393495 -9.5013855e-05 -3.0949049e-21)
(0.21755 -4.0152308e-05 6.0575138e-20)
(0.18165972 -7.6839568e-06 -1.8485709e-19)
(0.28072346 -3.253541e-05 4.6163003e-19)
(0.28070667 -8.1287792e-05 6.3971653e-19)
(0.28065194 -0.00012773124 1.0862736e-18)
(0.28050986 -0.0001747318 3.429829e-19)
(0.28017156 -0.00021775303 2.4872391e-19)
(0.27940289 -0.00025430188 1.2897834e-19)
(0.27767312 -0.00027769789 4.9956445e-19)
(0.27384765 -0.00027342827 4.5981265e-19)
(0.26637281 -0.00022746053 2.0764045e-19)
(0.2545711 -0.0001525485 -5.5589661e-20)
(0.23855012 -8.148403e-05 -3.5247845e-19)
(0.21699614 -3.3827434e-05 -9.8434644e-20)
(0.18136794 -6.3925377e-06 1.0836196e-19)
(0.28188837 -3.2121655e-05 1.9141992e-18)
(0.28186655 -8.0212342e-05 1.9856734e-18)
(0.28179785 -0.00012594549 3.2052546e-19)
(0.28162471 -0.00017202641 4.5130764e-19)
(0.28121999 -0.00021372065 1.0722358e-19)
(0.28030804 -0.00024803603 3.8791767e-19)
(0.27826773 -0.00026701328 4.5074232e-19)
(0.27388156 -0.00025545692 2.7397892e-19)
(0.26581311 -0.00020447967 1.9599992e-19)
(0.25377001 -0.00013289057 -2.3411123e-19)
(0.23784411 -6.984992e-05 -2.4534657e-19)
(0.21651887 -2.8467153e-05 -2.0656057e-19)
(0.18112283 -5.237092e-06 -1.0594081e-19)
(0.28303819 -3.1722485e-05 1.5392305e-18)
(0.28301052 -7.9173849e-05 1.9316793e-18)
(0.28292559 -0.00012420468 7.6835143e-19)
(0.28271638 -0.00016934096 -1.1978757e-19)
(0.2822343 -0.00020960734 5.1908962e-19)
(0.28115476 -0.00024140493 3.3717762e-19)
(0.27876144 -0.00025540747 -7.592339e-20)
(0.27380292 -0.00023677355 2.7362556e-19)
(0.26522808 -0.00018258167 3.3805228e-20)
(0.25303215 -0.00011548282 4.4584304e-20)
(0.23722187 -5.9756958e-05 2.8910316e-19)
(0.21610816 -2.3855671e-05 -4.5575816e-20)
(0.18091788 -4.2018414e-06 2.9778476e-20)
(0.28417339 -3.1334452e-05 -1.9234156e-19)
(0.28413893 -7.8162817e-05 3.0911231e-19)
(0.28403512 -0.00012249081 7.8168242e-19)
(0.28378396 -0.00016664114 6.3101851e-19)
(0.28321158 -0.00020535009 1.5489857e-19)
(0.28193659 -0.0002342804 2.0195341e-19)
(0.27914984 -0.00024281873 3.5948624e-19)
(0.27362851 -0.0002176778 7.479948e-19)
(0.26463906 -0.00016204557 1.5541901e-20)
(0.25235823 -0.00010008752 -3.4105469e-19)
(0.23667446 -5.0928428e-05 -2.3408378e-19)
(0.21575559 -1.983955e-05 3.9973487e-20)
(0.18074793 -3.2726352e-06 7.5346363e-20)
(0.28529433 -3.0954305e-05 -1.5194107e-18)
(0.28525196 -7.7170337e-05 -5.5234715e-20)
(0.28512619 -0.000120786 1.2264488e-18)
(0.28482614 -0.00016389138 6.6048657e-19)
(0.28414822 -0.00020087986 1.8472717e-19)
(0.28264669 -0.00022653515 2.5504137e-19)
(0.27943202 -0.00022926076 2.8048683e-19)
(0.27337791 -0.00019850621 1.9613999e-19)
(0.26406181 -0.00014303339 1.8377213e-19)
(0.25174654 -8.6449677e-05 2.0844873e-19)
(0.23619383 -4.3151078e-05 -2.6302502e-19)
(0.21545404 -1.6307479e-05 -2.9129109e-20)
(0.18060883 -2.4367047e-06 6.5198528e-20)
(0.28640123 -3.0578784e-05 -7.4008568e-19)
(0.28634965 -7.6187463e-05 -6.6173151e-19)
(0.28619826 -0.00011907139 7.3052809e-19)
(0.28584114 -0.00016105348 7.4930417e-20)
(0.28503985 -0.00019611847 6.2332111e-19)
(0.2832784 -0.00021805401 1.8638799e-19)
(0.27961117 -0.0002148247 -9.9102259e-20)
(0.27307114 -0.00017959426 1.8379861e-19)
(0.26350715 -0.00012559657 1.4701223e-19)
(0.25119402 -7.4328961e-05 3.1596176e-19)
(0.23577276 -3.6259368e-05 1.7670625e-19)
(0.21519748 -1.3176834e-05 -2.48191e-20)
(0.18049716 -1.6827559e-06 1.0102071e-19)
(0.28749419 -3.0204451e-05 1.4119338e-18)
(0.28743185 -7.520472e-05 1.3160171e-18)
(0.28725056 -0.00011732616 -3.0798865e-19)
(0.28682673 -0.0001580853 1.1426914e-19)
(0.28588145 -0.00019097762 5.4866039e-19)
(0.28382593 -0.00020874813 1.464671e-19)
(0.27969464 -0.00019967158 4.0993762e-20)
(0.27272686 -0.00016124193 1.8198449e-19)
(0.26298189 -0.00010969945 4.424934e-20)
(0.25069697 -6.3515014e-05 -2.3582094e-19)
(0.23540492 -3.0122538e-05 9.7366819e-20)
(0.21498079 -1.0384798e-05 6.8589022e-20)
(0.18041 -1.0009996e-06 -4.2668213e-20)
(0.28857317 -2.9827535e-05 2.609651e-18)
(0.28849825 -7.4211611e-05 1.715331e-18)
(0.28828196 -0.00011552671 -7.9709177e-20)
(0.28778008 -0.00015493914 5.4773432e-20)
(0.28666738 -0.00018536089 4.2492276e-19)
(0.28428521 -0.00019856895 2.0586345e-19)
(0.27969326 -0.00018401636 3.2274589e-20)
(0.27236107 -0.0001436879 2.0769961e-19)
(0.26248991 -9.5249857e-05 1.2261448e-19)
(0.25025143 -5.3830545e-05 -6.2496121e-20)
(0.23508473 -2.4635265e-05 7.4181876e-20)
(0.21479959 -7.8824844e-06 8.7420116e-20)
(0.18034487 -3.8307657e-07 -1.7439101e-20)
(0.28963798 -2.944375e-05 1.6381882e-18)
(0.28954832 -7.3196106e-05 7.9832783e-19)
(0.28929102 -0.00011364593 1.9430927e-19)
(0.2886978 -0.00015155982 4.342439e-19)
(0.28739174 -0.00017916927 -1.5881567e-19)
(0.28465455 -0.00018751865 2.0929907e-19)
(0.27962017 -0.0001681064 6.4545631e-19)
(0.2719867 -0.00012709647 5.0653815e-19)
(0.26203302 -8.2127514e-05 6.6691514e-20)
(0.24985346 -4.5128125e-05 -3.376671e-19)
(0.23480728 -1.9711258e-05 -4.6955106e-19)
(0.21465012 -5.6309844e-06 -2.4170351e-19)
(0.18029962 1.7813297e-07 -5.4893811e-20)
(0.29068824 -2.9047996e-05 1.7114439e-18)
(0.29058125 -7.2143821e-05 1.6281867e-18)
(0.29027586 -0.00011165221 1.783537e-18)
(0.28957586 -0.00014788248 7.018036e-19)
(0.28804865 -0.00017230925 2.0620375e-19)
(0.28493523 -0.00017565384 2.9443224e-19)
(0.2794894 -0.00015219578 4.4458143e-19)
(0.2716136 -0.0001115566 -1.0533724e-19)
(0.26161163 -7.0203556e-05 2.3899265e-20)
(0.24949925 -3.7283201e-05 2.7021179e-19)
(0.23456828 -1.5277054e-05 -3.1467716e-19)
(0.21452909 -3.5978692e-06 -3.468575e-19)
(0.18027234 6.8891863e-07 -8.3800667e-20)
(0.29172336 -2.863428e-05 4.2918931e-19)
(0.291596 -7.1037634e-05 1.4323003e-18)
(0.29123415 -0.00010950892 1.1279203e-18)
(0.29040962 -0.00014383257 6.7030979e-20)
(0.28863287 -0.00016470429 9.0759799e-19)
(0.28513156 -0.00016308395 2.7386868e-19)
(0.27931466 -0.00013652206 -2.5828879e-19)
(0.27124896 -9.709356e-05 -7.7747183e-20)
(0.26122524 -5.9353653e-05 2.3099608e-19)
(0.24918522 -3.0190181e-05 6.3385021e-19)
(0.23436395 -1.1270303e-05 4.0815434e-19)
(0.2144337 -1.7305518e-06 -1.2023415e-21)
(0.18026136 1.1761543e-06 4.6186792e-20)
(0.29274252 -2.8196034e-05 -5.6993111e-20)
(0.29259116 -6.9858459e-05 1.9415925e-18)
(0.29216305 -0.00010717576 -1.0471097e-19)
(0.29119393 -0.00013933085 -2.3613976e-20)
(0.28914031 -0.00015631032 6.4572595e-19)
(0.28525057 -0.00014996782 4.7094979e-19)
(0.27910837 -0.00012129298 1.1344924e-19)
(0.2708978 -8.3692856e-05 6.8485963e-20)
(0.26087272 -4.9471617e-05 1.1264087e-19)
(0.24890802 -2.376679e-05 -3.5353089e-20)
(0.23419085 -7.6476752e-06 1.3121152e-19)
(0.21436056 -1.6272713e-08 1.5740387e-19)
(0.18026627 1.6403874e-06 2.5438792e-21)
(0.2937446 -2.77251e-05 6.2491301e-19)
(0.29356496 -6.8583193e-05 3.9566425e-19)
(0.29305914 -0.00010460504 3.2136405e-19)
(0.29192334 -0.00013429446 3.7761203e-19)
(0.28956868 -0.00014712079 4.0874872e-19)
(0.2853013 -0.0001364948 5.9065546e-19)
(0.27888121 -0.00010666839 4.1500367e-19)
(0.27056351 -7.1310503e-05 3.558639e-19)
(0.26055265 -4.0462927e-05 1.3595744e-19)
(0.24866458 -1.7940292e-05 1.8962637e-20)
(0.23404606 -4.3539421e-06 -1.3255846e-20)
(0.21430781 1.53738e-06 1.2142097e-19)
(0.18028522 2.0563753e-06 4.0799667e-20)
(0.29472815 -2.7211026e-05 4.4282688e-19)
(0.29451518 -6.7183247e-05 -3.7134385e-19)
(0.29391842 -0.00010173907 4.807573e-19)
(0.29259237 -0.00012864185 1.1781578e-18)
(0.28991788 -0.0001371695 -2.5409437e-19)
(0.28529395 -0.00012286453 2.5516291e-19)
(0.27864192 -9.2752942e-05 9.2854503e-19)
(0.27024822 -5.9882464e-05 6.6417111e-19)
(0.26026336 -3.2238692e-05 1.3668655e-19)
(0.24845204 -1.2642413e-05 -4.1322694e-19)
(0.23392646 -1.3359218e-06 -3.0085623e-19)
(0.21427448 2.9561421e-06 -6.5306975e-20)
(0.18031663 2.4262955e-06 -5.0235301e-20)
(0.29569132 -2.6641403e-05 -5.6181991e-19)
(0.2954391 -6.5625549e-05 4.6725541e-19)
(0.29473631 -9.8512687e-05 1.3985287e-18)
(0.29319592 -0.0001223057 9.4863068e-19)
(0.29019018 -0.00012653597 -3.241127e-21)
(0.2852389 -0.00010927516 1.2908147e-19)
(0.27839743 -7.9607269e-05 4.9311616e-19)
(0.26995312 -4.9342235e-05 -6.1058778e-20)
(0.26000309 -2.4722192e-05 1.4565662e-20)
(0.24826773 -7.8151122e-06 8.9425368e-20)
(0.23382956 1.4151238e-06 -8.9152182e-20)
(0.21425921 4.2390544e-06 -1.5613935e-19)
(0.18035932 2.7544243e-06 -7.1052948e-20)
(0.29663173 -2.6001181e-05 -6.3213354e-19)
(0.29633339 -6.3871155e-05 3.5397984e-20)
(0.29550768 -9.4853892e-05 6.1310522e-19)
(0.29372976 -0.00011524119 -8.4851534e-20)
(0.29039012 -0.00011533897 6.603541e-19)
(0.28514604 -9.5905363e-05 4.7541566e-19)
(0.27815305 -6.725411e-05 -1.3373483e-19)
(0.26967872 -3.9623298e-05 5.1507404e-19)
(0.25977003 -1.7841819e-05 6.3169516e-19)
(0.24810923 -3.3839348e-06 8.8241476e-19)
(0.23375398 3.9312259e-06 5.9989696e-19)
(0.21425996 5.3906133e-06 9.0614738e-20)
(0.18041214 3.0443431e-06 1.1672446e-19)
(0.29754645 -2.5272392e-05 9.5857918e-19)
(0.29719411 -6.1874454e-05 2.2965702e-18)
(0.29622706 -9.0687761e-05 6.0491164e-19)
(0.29419101 -0.00010743479 1.8794238e-19)
(0.290524 -0.00010372735 6.2810315e-19)
(0.28502427 -8.2903332e-05 5.126542e-19)
(0.27791277 -5.5688886e-05 3.941836e-19)
(0.269425 -3.0662169e-05 7.1557137e-19)
(0.25956226 -1.1539608e-05 5.5610144e-19)
(0.24797362 6.7597406e-07 4.0204254e-19)
(0.23369893 6.227794e-06 3.935153e-19)
(0.21427538 6.4296892e-06 3.193532e-19)
(0.18047413 3.3031177e-06 -2.9288891e-21)
(0.29843186 -2.443409e-05 3.1475528e-18)
(0.29801658 -5.9582979e-05 2.6830941e-18)
(0.29688883 -8.5943388e-05 1.0081225e-18)
(0.29457851 -9.8910824e-05 5.7459655e-19)
(0.29059935 -9.1868389e-05 8.719703e-19)
(0.28488126 -7.0382556e-05 4.5439089e-19)
(0.27767954 -4.4890592e-05 2.5767384e-19)
(0.26919163 -2.2395734e-05 3.5300514e-19)
(0.25937815 -5.7362905e-06 2.3243699e-19)
(0.24785972 4.390618e-06 5.1696226e-20)
(0.2336621 8.3017232e-06 9.1992662e-20)
(0.21430404 7.3667915e-06 2.5585065e-19)
(0.18054443 3.5355108e-06 4.4242438e-20)
(0.29928359 -2.3462156e-05 2.6684523e-18)
(0.29879547 -5.6937593e-05 1.8895464e-23)
(0.29748763 -8.0561615e-05 3.8944936e-19)
(0.29489309 -8.9732408e-05 1.2522891e-18)
(0.29062422 -7.9932301e-05 1.2494833e-19)
(0.28472341 -5.8420044e-05 7.039558e-19)
(0.27745536 -3.4827453e-05 9.7895475e-19)
(0.26897782 -1.4770311e-05 7.0260055e-19)
(0.25921519 -3.9168592e-07 5.4007012e-20)
(0.24776702 7.7921713e-06 -6.0805199e-19)
(0.23364198 1.0181233e-05 -2.8934467e-19)
(0.21434474 8.2148707e-06 -1.0338902e-19)
(0.18062225 3.745046e-06 6.4675223e-20)
(0.30009637 -2.2329734e-05 -1.599876e-19)
(0.29952479 -5.3875503e-05 -2.6892681e-19)
(0.29801875 -7.4505257e-05 -2.3214557e-19)
(0.29513749 -7.9999947e-05 8.5295851e-19)
(0.29060658 -6.8080569e-05 3.0209463e-19)
(0.28455591 -4.7062463e-05 5.772845e-19)
(0.27724164 -2.5459203e-05 9.2156469e-19)
(0.2687829 -7.7156406e-06 1.6095801e-19)
(0.25907248 4.5154327e-06 -7.8648774e-20)
(0.24769346 1.088144e-05 -4.4385893e-19)
(0.23363709 1.1884931e-05 -2.6070908e-19)
(0.21439637 8.9838109e-06 -1.5323456e-19)
(0.1807069 3.9343711e-06 -9.3905791e-20)
(0.30086402 -2.1007843e-05 -1.6445704e-18)
(0.30019808 -5.0335153e-05 1.652829e-18)
(0.29847858 -6.7767522e-05 7.2078143e-19)
(0.29531607 -6.9843653e-05 -6.7947733e-19)
(0.29055391 -5.6454469e-05 8.2397337e-19)
(0.28438287 -3.6332086e-05 4.5075403e-19)
(0.27703906 -1.6748341e-05 -1.3074318e-19)
(0.2686053 -1.1876157e-06 -2.1089046e-19)
(0.25894976 9.0212451e-06 2.7493876e-19)
(0.2476375 1.3689715e-05 5.0679675e-19)
(0.23364609 1.343103e-05 1.82487e-19)
(0.21445793 9.6806578e-06 -1.5855128e-19)
(0.18079772 4.1049959e-06 -1.4806909e-19)
(0.30157943 -1.9467202e-05 -8.8000768e-19)
(0.30080863 -4.6264368e-05 1.8517863e-18)
(0.29886499 -6.0378881e-05 1.6883133e-18)
(0.29543444 -5.9414039e-05 -3.2087485e-19)
(0.29047287 -4.516949e-05 8.159997e-20)
(0.28420752 -2.6229315e-05 -3.9990948e-21)
(0.27684812 -8.6364703e-06 -1.0498107e-20)
(0.26844451 4.8384136e-06 -2.7026944e-19)
(0.25884557 1.3135519e-05 1.4622327e-19)
(0.2475977 1.6243849e-05 5.0809687e-19)
(0.23366777 1.4835136e-05 2.6815814e-19)
(0.21452852 1.0311835e-05 7.303412e-21)
(0.18089414 4.2584485e-06 -1.1274189e-19)
(0.30223466 -1.7681585e-05 3.3399067e-18)
(0.3013499 -4.1630472e-05 1.1491391e-18)
(0.29917751 -5.2409621e-05 7.4999638e-19)
(0.29549883 -4.8869552e-05 7.9559967e-19)
(0.29036918 -3.4313833e-05 4.7512641e-19)
(0.28403214 -1.6747745e-05 -1.157696e-19)
(0.27666826 -1.0893847e-06 3.3571577e-19)
(0.26830088 1.0390662e-05 -2.4868102e-19)
(0.25875851 1.6888143e-05 -1.5720292e-19)
(0.24757272 1.8567832e-05 -3.245546e-19)
(0.23370102 1.6109688e-05 2.6054226e-20)
(0.21460732 1.0882508e-05 -3.4594348e-20)
(0.18099561 4.3959481e-06 -9.4600204e-20)
(0.30282117 -1.563341e-05 3.0037561e-18)
(0.30181594 -3.643154e-05 9.9767769e-19)
(0.29941741 -4.3968655e-05 1.056692e-18)
(0.29551566 -3.8365613e-05 9.2353511e-19)
(0.2902477 -2.3945416e-05 6.6893353e-19)
(0.28385859 -7.8479589e-06 3.1825832e-19)
(0.27649982 5.9138524e-06 2.6463178e-19)
(0.26817344 1.5479508e-05 2.0363153e-19)
(0.25868728 2.0310505e-05 7.4625909e-20)
(0.24756135 2.0682282e-05 -2.1903856e-19)
(0.23374484 1.7265355e-05 8.9167167e-20)
(0.21469357 1.1397305e-05 -9.620486e-20)
(0.18110164 4.5186329e-06 -6.1894648e-20)
(0.30333026 -1.3320801e-05 -1.9513223e-19)
(0.30220189 -3.0705627e-05 1.3195509e-18)
(0.29958744 -3.5196444e-05 4.1882162e-19)
(0.29549103 -2.804374e-05 6.44015e-19)
(0.29011218 -1.409995e-05 4.1648431e-19)
(0.28368733 4.850538e-07 6.3254762e-19)
(0.276344 1.2388771e-05 6.8846754e-20)
(0.26806119 2.0134986e-05 1.2761798e-19)
(0.2586307 2.3431191e-05 1.8005666e-19)
(0.24756246 2.260438e-05 5.4755902e-19)
(0.23379832 1.8311268e-05 3.5597804e-19)
(0.21478659 1.1860269e-05 2.2729592e-19)
(0.18121176 4.6274693e-06 -8.9063433e-21)
(0.30375374 -1.0764899e-05 1.3076289e-18)
(0.30250438 -2.4536355e-05 2.8339461e-18)
(0.29969147 -2.6255593e-05 1.4872628e-18)
(0.29543051 -1.8024181e-05 -2.3390617e-19)
(0.28996562 -4.7857673e-06 1.7374277e-19)
(0.28352015 8.243197e-06 3.676369e-19)
(0.27620025 1.8335989e-05 -6.6759426e-21)
(0.26796312 2.4389592e-05 -2.8383003e-19)
(0.25858763 2.6274784e-05 -5.9929831e-20)
(0.24757502 2.434902e-05 3.6527125e-19)
(0.2338606 1.9255601e-05 1.2641754e-19)
(0.21488573 1.2275084e-05 -2.0044434e-19)
(0.18132554 4.7233603e-06 -7.138708e-20)
(0.30408466 -8.0145456e-06 1.9076681e-18)
(0.30272186 -1.8051732e-05 2.2562617e-18)
(0.29973407 -1.7315785e-05 1.170078e-18)
(0.29533886 -8.3894257e-06 -1.797133e-19)
(0.28980995 3.9791876e-06 1.7212989e-19)
(0.28335876 1.5424793e-05 3.2793308e-20)
(0.27606809 2.3785091e-05 -4.8002679e-19)
(0.26787825 2.8272689e-05 -3.581313e-19)
(0.25855702 2.8860602e-05 -1.5096479e-19)
(0.24759809 2.5928047e-05 4.5065727e-20)
(0.23393092 2.0104793e-05 -9.5965471e-20)
(0.21499042 1.2644481e-05 -1.8005893e-19)
(0.18144259 4.8068577e-06 -8.6927959e-20)
(0.30431819 -5.1448899e-06 -1.8529602e-18)
(0.30285461 -1.1412517e-05 -1.7104176e-18)
(0.29971994 -8.5329648e-06 -1.3601677e-20)
(0.29521955 7.8236602e-07 1.2276871e-18)
(0.28964857 1.2143451e-05 6.3305547e-19)
(0.28320331 2.2023072e-05 5.6723468e-19)
(0.27594691 2.8765654e-05 5.5606277e-19)
(0.26780566 3.1809297e-05 1.3201572e-19)
(0.25853789 3.1205826e-05 -2.2628887e-19)
(0.24763076 2.735238e-05 -5.0076038e-19)
(0.23400854 2.086482e-05 -3.7121617e-19)
(0.2151001 1.297101e-05 -1.8236409e-19)
(0.18156252 4.878506e-06 -1.3107918e-19)
(0.30445222 -2.2471693e-06 5.8670194e-19)
(0.30290466 -4.7890845e-06 -1.9129952e-19)
(0.2996534 -5.720457e-08 -1.0803197e-19)
(0.29507686 9.387194e-06 9.0780203e-19)
(0.28948321 1.9670947e-05 5.469699e-19)
(0.28305385 2.8058266e-05 5.5738117e-19)
(0.27583604 3.3303211e-05 6.5004479e-19)
(0.2677444 3.5018788e-05 3.5569402e-19)
(0.25852929 3.3324083e-05 5.4951155e-21)
(0.24767222 2.8630591e-05 -2.4417941e-19)
(0.23409279 2.1540153e-05 -2.2914987e-19)
(0.21521426 1.3256425e-05 -2.1936743e-19)
(0.18168496 4.9385976e-06 -1.2080807e-19)
(0.30448759 5.8147636e-07 3.4307777e-18)
(0.30287533 1.6333171e-06 3.0506259e-18)
(0.29953939 7.9405736e-06 8.3510622e-19)
(0.29491434 1.733448e-05 4.2199627e-19)
(0.2893149 2.6550656e-05 4.4978317e-19)
(0.28291025 3.3549018e-05 1.3047874e-19)
(0.2757348 3.7416852e-05 -2.1737792e-19)
(0.2676936 3.7916636e-05 -1.2793988e-19)
(0.25853034 3.5226515e-05 5.2476261e-20)
(0.24772168 2.9769518e-05 2.8862356e-19)
(0.23418305 2.2134193e-05 5.0654554e-20)
(0.2153324 1.350194e-05 1.0219183e-19)
(0.18180955 4.9872552e-06 -3.3910562e-20)
(0.30442824 3.2381401e-06 -1.5722864e-20)
(0.30277199 7.6570121e-06 4.2119038e-18)
(0.29938291 1.5304049e-05 4.3498479e-18)
(0.29473444 2.4565407e-05 2.2994172e-19)
(0.28914434 3.2781707e-05 5.5375084e-19)
(0.28277221 3.8508106e-05 2.5843679e-19)
(0.27564244 4.1120408e-05 2.4814386e-20)
(0.26765238 4.0514536e-05 5.0573247e-20)
(0.25854021 3.692132e-05 -7.7624465e-20)
(0.24777842 3.0773895e-05 -4.7195667e-20)
(0.23427872 2.2649054e-05 1.5754419e-19)
(0.21545406 1.370814e-05 4.4027146e-20)
(0.18193596 5.02442e-06 -1.047464e-21)
(0.30428147 5.635537e-06 6.3921093e-19)
(0.30260141 1.3122282e-05 3.5751963e-18)
(0.29918842 2.1930273e-05 2.7101639e-18)
(0.29453911 3.1047299e-05 5.1662127e-19)
(0.28897191 3.8362379e-05 2.5949911e-19)
(0.28263933 4.2943154e-05 2.6783286e-19)
(0.2755582 4.4423368e-05 2.4631125e-19)
(0.26761989 4.2820455e-05 4.4116254e-19)
(0.25855808 3.8413697e-05 1.1717548e-19)
(0.24784173 3.1646318e-05 -7.9396481e-21)
(0.23437921 2.3085518e-05 2.5437704e-19)
(0.21557878 1.3874913e-05 1.4606044e-19)
(0.18206382 5.0498074e-06 3.1863873e-20)
(0.30405678 7.7204575e-06 4.6357631e-18)
(0.30237112 1.7926515e-05 2.8064575e-18)
(0.29896015 2.7756516e-05 1.3528208e-18)
(0.29433003 3.6759103e-05 3.4212915e-19)
(0.28879784 4.3290465e-05 -1.8147117e-19)
(0.2825111 4.6858958e-05 1.1683712e-19)
(0.2754813 4.733184e-05 3.0804773e-19)
(0.26759529 4.483909e-05 3.7778599e-19)
(0.25858316 3.9706186e-05 9.7219722e-20)
(0.24791093 3.238748e-05 9.009755e-20)
(0.23448396 2.3443159e-05 -1.3306311e-20)
(0.21570609 1.4001505e-05 6.1092996e-21)
(0.18219279 5.0629071e-06 1.8778613e-20)
(0.30376497 9.4676045e-06 3.5330423e-18)
(0.30208913 2.2015253e-05 2.0784941e-18)
(0.29870222 3.2751564e-05 6.0811769e-19)
(0.29410866 4.1690961e-05 8.8081273e-19)
(0.2886222 4.7565697e-05 2.9855575e-19)
(0.28238699 5.0258742e-05 -7.1580908e-20)