# Wall heat-flux
# Time          	patch           	min             	max             	integral        
30000           	water_to_rock	-9.32912799e+02	-2.01013636e+02	-4.39535050e+01
