/*--------------------------------*- C++ -*----------------------------------*\
| =========                 |                                                 |
| \\      /  F ield         | OpenFOAM: The Open Source CFD Toolbox           |
|  \\    /   O peration     | Version:  2506                                  |
|   \\  /    A nd           | Website:  www.openfoam.com                      |
|    \\/     M anipulation  |                                                 |
\*---------------------------------------------------------------------------*/
FoamFile
{
    version     2.0;
    format      ascii;
    arch        "LSB;label=32;scalar=64";
    class       volScalarField;
    location    "20000/water";
    object      alphat;
}
// * * * * * * * * * * * * * * * * * * * * * * * * * * * * * * * * * * * * * //

dimensions      [1 -1 -1 0 0 0 0];

internalField   nonuniform List<scalar> 
1000
(
0.038690245
0.038689577
0.038688046
0.038679676
0.038634252
0.038395956
0.037190881
0.031863289
0.019099264
0.016301307
0.036437656
0.036436968
0.036430539
0.036397696
0.036243742
0.035561448
0.032798673
0.024476358
0.014644255
0.017654592
0.034756095
0.034752687
0.034735392
0.034658264
0.034338316
0.033096045
0.028914337
0.020078552
0.014287411
0.017671293
0.033455039
0.033447371
0.03341324
0.03327659
0.032760731
0.030940113
0.02576996
0.018272121
0.015952091
0.01730153
0.032418332
0.032405139
0.032350677
0.032150523
0.031437424
0.029070358
0.023556106
0.018635846
0.018861568
0.016925713
0.031571667
0.031552637
0.031479595
0.031226159
0.030328104
0.027485227
0.022555051
0.020803685
0.022278898
0.016666256
0.030866455
0.030843488
0.030761494
0.030477938
0.029402081
0.026292261
0.023062001
0.024244044
0.025541438
0.016525219
0.030270851
0.030249445
0.030178149
0.029894467
0.028644298
0.025787495
0.025138589
0.028280586
0.028305001
0.016463217
0.029764732
0.029755535
0.029725654
0.029468592
0.028107027
0.026357091
0.028508306
0.032334446
0.030519159
0.016442689
0.029337061
0.029357524
0.029409747
0.029196667
0.027980905
0.028237214
0.032681162
0.03608061
0.032267557
0.016440706
0.02898475
0.029060633
0.029241322
0.029099537
0.028583431
0.031375043
0.037164794
0.039413731
0.033659234
0.016446406
0.028712544
0.0288787
0.029233153
0.02927039
0.030215361
0.035478742
0.041608933
0.042341748
0.034787839
0.016455615
0.028533641
0.028833092
0.029403418
0.02991304
0.033002908
0.040161645
0.04582828
0.044910654
0.035723426
0.016467076
0.028470742
0.028950985
0.029795703
0.031303887
0.036852295
0.045075631
0.04975165
0.047172311
0.036515362
0.016480527
0.028557147
0.029264093
0.030516123
0.033675883
0.041512079
0.049977152
0.053365757
0.049173977
0.03719776
0.016495911
0.02883732
0.029812399
0.031757498
0.037114006
0.046676273
0.054726033
0.056681729
0.050955445
0.037793685
0.016513133
0.029366694
0.030660636
0.033764415
0.041530918
0.052070871
0.059252763
0.059719497
0.052547743
0.038312901
0.016531933
0.030212366
0.031928117
0.036741548
0.046714237
0.05749502
0.063527096
0.0625006
0.053971466
0.038771707
0.01655202
0.0314605
0.033808039
0.040768836
0.052402906
0.062820224
0.067538689
0.065043779
0.055249903
0.039180768
0.016573201
0.033237383
0.036537654
0.045775254
0.05835353
0.067969802
0.071287006
0.067367572
0.056402466
0.039547859
0.016595308
0.035735498
0.040316816
0.051571125
0.06437487
0.07289765
0.074772761
0.06949235
0.057443889
0.039878916
0.016618165
0.03920678
0.045225596
0.057909758
0.070330583
0.077571607
0.078005787
0.071434909
0.058386008
0.040178243
0.016641577
0.043889258
0.05119094
0.064545736
0.076123667
0.08197347
0.080997003
0.07320886
0.059238112
0.040448942
0.016665347
0.049893408
0.058010055
0.071267887
0.081682743
0.086094399
0.083754891
0.074824821
0.060007166
0.040693155
0.016689273
0.057121285
0.065404884
0.077905864
0.086957427
0.089927687
0.086284972
0.076290212
0.060697947
0.040912172
0.016713148
0.06526881
0.073077161
0.084332931
0.091910101
0.093464934
0.08858927
0.077609262
0.061313196
0.041106522
0.016736751
0.073907152
0.080754647
0.090454374
0.096507505
0.096695799
0.090666509
0.078783331
0.061853884
0.041276086
0.016759842
0.082592903
0.08820756
0.096193829
0.10072069
0.099609072
0.092513087
0.079811622
0.062319646
0.041420273
0.016782157
0.09095358
0.095254154
0.10149036
0.10452632
0.10219468
0.094124704
0.080692286
0.062709412
0.041538274
0.016803418
0.098725547
0.1017615
0.10629853
0.10790849
0.10444604
0.095498315
0.081423749
0.063022156
0.041629358
0.01682334
0.10575271
0.1076434
0.1105893
0.11086029
0.10636203
0.096633976
0.082006062
0.063257683
0.041693189
0.01684165
0.1119653
0.11285549
0.11435039
0.11338456
0.10794833
0.097536211
0.082442
0.063417312
0.041730101
0.016858114
0.1173544
0.11738816
0.11758538
0.11549371
0.10921763
0.098214653
0.08273772
0.063504315
0.041741277
0.016872554
0.12195005
0.1212585
0.12031173
0.11720869
0.11018916
0.098683936
0.08290287
0.063524042
0.041728788
0.016884864
0.12580521
0.12450243
0.12255805
0.11855733
0.11088746
0.09896295
0.082950196
0.063483719
0.041695497
0.016895021
0.1289848
0.12716801
0.12436105
0.11957248
0.11134086
0.099073688
0.08289477
0.063391995
0.041644849
0.016903076
0.13155873
0.12931005
0.12576254
0.12028999
0.11157985
0.099039938
0.082753041
0.063258353
0.041580606
0.01690915
0.13359734
0.13098607
0.12680692
0.120747
0.11163558
0.098886016
0.082541877
0.063092497
0.041506574
0.016913413
0.13516871
0.13225341
0.12753898
0.1209804
0.11153864
0.098635689
0.082277722
0.062903819
0.041426374
0.016916068
0.13633698
0.13316728
0.12800239
0.12102572
0.11131808
0.098311354
0.081975945
0.062700975
0.041343267
0.01691734
0.13716137
0.13377952
0.12823851
0.12091633
0.11100079
0.097933467
0.081650388
0.062491613
0.041260046
0.016917451
0.13769582
0.13413784
0.12828572
0.12068287
0.11061107
0.097520207
0.081313114
0.062282219
0.04117899
0.01691662
0.13798881
0.13428555
0.12817904
0.12035302
0.11017046
0.097087329
0.080974302
0.062078076
0.041101865
0.01691505
0.13808353
0.13426143
0.1279499
0.1199514
0.10969769
0.096648159
0.080642266
0.061883298
0.041029946
0.016912924
0.13801815
0.13409989
0.12762622
0.11949953
0.10920874
0.096213649
0.080323459
0.061700653
0.040962999
0.016910389
0.13782609
0.13383116
0.12723248
0.11901599
0.10871695
0.095792474
0.080022492
0.06153121
0.040902161
0.016907572
0.13753643
0.13348157
0.12678986
0.11851655
0.10823313
0.095391107
0.079741926
0.061377065
0.040847909
0.016904598
0.13717425
0.13307378
0.12631646
0.11801424
0.10776569
0.095013727
0.079484904
0.061239032
0.040800414
0.016901573
0.13676097
0.13262711
0.12582746
0.11751952
0.10732055
0.094664631
0.079252884
0.061117333
0.040759592
0.01689858
0.13631463
0.1321577
0.1253351
0.11704031
0.10690343
0.094346216
0.079046394
0.06101172
0.040725169
0.016895684
0.13585008
0.13167863
0.12484945
0.11658394
0.10651797
0.094059665
0.078865237
0.060921575
0.040696736
0.016892933
0.1353796
0.13120107
0.12437919
0.11615562
0.10616645
0.093805216
0.078708657
0.060846009
0.040673804
0.016890359
0.13491352
0.13073426
0.12393106
0.11575903
0.10584998
0.093582368
0.07857549
0.060783962
0.040655844
0.016887985
0.13446028
0.13028558
0.12351008
0.11539655
0.10556877
0.093390049
0.078464278
0.060734273
0.040642316
0.016885824
0.13402656
0.12986073
0.12311989
0.11506945
0.10532229
0.093226754
0.078373373
0.06069573
0.040632687
0.016883883
0.13361752
0.12946396
0.12276286
0.11477807
0.10510938
0.093090642
0.07830099
0.060667108
0.040626438
0.016882163
0.13323692
0.12909821
0.12244029
0.11452199
0.10492841
0.09297963
0.078245272
0.060647186
0.040623075
0.016880658
0.1328873
0.12876528
0.12215255
0.1143001
0.10477734
0.092891467
0.078204336
0.060634778
0.04062213
0.01687936
0.13257015
0.12846601
0.12189925
0.11411081
0.10465389
0.092823822
0.078176321
0.060628752
0.04062317
0.016878258
0.13228603
0.12820043
0.12167937
0.11395213
0.1045556
0.092774363
0.078159442
0.060628056
0.040625804
0.016877338
0.13203478
0.12796788
0.12149139
0.11382181
0.10447997
0.092740816
0.078152021
0.060631729
0.040629685
0.016876585
0.13181563
0.12776721
0.12133348
0.11371747
0.1044245
0.092721014
0.078152508
0.060638908
0.04063451
0.016875985
0.13162734
0.12759685
0.12120353
0.11363663
0.10438673
0.092712914
0.078159483
0.060648823
0.040640013
0.016875522
0.13146831
0.12745492
0.12109925
0.11357678
0.1043643
0.092714605
0.078171652
0.060660788
0.040645965
0.016875183
0.13133662
0.12733932
0.12101825
0.11353544
0.10435494
0.09272431
0.078187842
0.060674193
0.040652165
0.016874951
0.13123017
0.12724778
0.12095807
0.11351017
0.10435653
0.092740397
0.078206999
0.060688506
0.040658442
0.016874812
0.13114669
0.12717793
0.12091626
0.11349862
0.10436706
0.09276139
0.078228194
0.060703267
0.040664652
0.016874753
0.13108385
0.12712736
0.12089042
0.1134986
0.10438473
0.092785977
0.078250627
0.060718093
0.04067068
0.01687476
0.13103928
0.12709371
0.12087825
0.11350804
0.1044079
0.092813017
0.078273621
0.060732673
0.040676438
0.016874821
0.13101069
0.12707469
0.12087757
0.11352508
0.10443512
0.092841526
0.078296613
0.060746759
0.040681859
0.016874925
0.13099584
0.12706809
0.12088637
0.11354803
0.10446512
0.09287067
0.078319142
0.060760156
0.040686896
0.016875064
0.13099263
0.12707188
0.1209028
0.11357538
0.10449681
0.092899742
0.07834083
0.060772706
0.040691469
0.016875227
0.13099906
0.12708413
0.12092517
0.11360578
0.10452922
0.092928155
0.078361369
0.060784255
0.040695557
0.016875406
0.1310133
0.12710311
0.12095198
0.11363806
0.10456157
0.092955429
0.078380499
0.060794735
0.040699183
0.016875593
0.1310337
0.12712723
0.12098188
0.11367124
0.10459318
0.092981174
0.078398063
0.060804144
0.040702362
0.016875785
0.13105875
0.12715511
0.12101372
0.11370446
0.10462352
0.093005115
0.078414014
0.060812489
0.040705118
0.016875977
0.13108713
0.12718552
0.1210465
0.11373701
0.10465218
0.093027125
0.078428325
0.060819801
0.040707477
0.016876165
0.13111766
0.12721736
0.12107936
0.11376834
0.1046789
0.09304711
0.078441008
0.060826125
0.040709469
0.016876347
0.13114931
0.1272497
0.12111159
0.11379804
0.10470349
0.093065027
0.078452099
0.060831512
0.04071112
0.01687652
0.13118117
0.12728176
0.12114263
0.11382576
0.1047258
0.093080866
0.078461648
0.060836018
0.040712456
0.016876682
0.1312125
0.12731287
0.12117202
0.11385128
0.10474576
0.093094651
0.07846972
0.060839697
0.040713503
0.016876832
0.1312427
0.12734253
0.1211994
0.11387441
0.10476335
0.093106439
0.078476394
0.060842613
0.040714287
0.016876968
0.13127127
0.12737033
0.12122454
0.11389507
0.1047786
0.09311633
0.078481773
0.060844835
0.040714835
0.016877089
0.13129791
0.127396
0.1212473
0.11391328
0.10479163
0.093124461
0.078485981
0.060846444
0.040715179
0.016877195
0.13132241
0.12741942
0.12126765
0.11392912
0.10480257
0.093131003
0.078489159
0.060847529
0.040715354
0.016877288
0.1313447
0.12744054
0.12128566
0.11394273
0.10481163
0.093136143
0.078491454
0.060848176
0.040715393
0.016877368
0.13136479
0.12745941
0.12130142
0.11395429
0.10481899
0.093140058
0.078493001
0.060848467
0.040715325
0.016877437
0.1313827
0.12747608
0.12131505
0.11396394
0.10482483
0.093142903
0.078493912
0.060848464
0.040715174
0.016877495
0.13139849
0.12749063
0.12132666
0.11397184
0.10482929
0.093144802
0.078494274
0.060848215
0.040714955
0.016877544
0.13141221
0.12750312
0.12133635
0.1139781
0.1048325
0.093145855
0.078494154
0.060847754
0.040714679
0.016877583
0.13142389
0.12751362
0.12134422
0.11398283
0.10483457
0.093146156
0.078493613
0.060847112
0.040714353
0.016877613
0.13143361
0.12752222
0.12135037
0.11398618
0.10483563
0.093145806
0.078492719
0.060846321
0.04071399
0.016877634
0.13144148
0.12752904
0.12135498
0.11398831
0.10483583
0.093144923
0.07849155
0.060845425
0.040713601
0.016877647
0.13144769
0.12753429
0.12135823
0.11398941
0.10483533
0.093143641
0.078490196
0.060844471
0.040713205
0.016877653
0.13145245
0.12753818
0.12136037
0.11398969
0.10483433
0.093142097
0.078488747
0.060843505
0.040712818
0.016877655
0.13145602
0.12754095
0.12136161
0.11398937
0.10483299
0.093140412
0.078487279
0.060842568
0.040712453
0.016877653
0.13145862
0.12754285
0.12136216
0.11398861
0.10483143
0.093138678
0.078485847
0.060841684
0.040712119
0.01687765
0.13146047
0.12754405
0.12136218
0.11398754
0.10482975
0.093136951
0.078484479
0.060840867
0.040711818
0.016877645
0.1314617
0.12754469
0.1213618
0.11398624
0.10482801
0.09313526
0.078483186
0.060840113
0.040711546
0.016877638
0.13146242
0.12754487
0.12136108
0.11398478
0.10482623
0.093133612
0.078481962
0.060839415
0.040711299
0.016877631
)
;

boundaryField
{
    water_inlet
    {
        type            calculated;
        value           uniform 0.041850807;
    }
    water_outlet
    {
        type            calculated;
        value           nonuniform List<scalar> 10(0.13146242 0.12754487 0.12136108 0.11398478 0.10482623 0.093133612 0.078481962 0.060839415 0.040711299 0.016877631);
    }
    water_wedge1
    {
        type            wedge;
    }
    water_wedge2
    {
        type            wedge;
    }
    water_to_rock
    {
        type            compressible::alphatWallFunction;
        value           nonuniform List<scalar> 
100
(
0.0020384971
0.0022594581
0.0022621707
0.0022020355
0.0021407408
0.0020983183
0.0020752205
0.0020650581
0.002061693
0.0020613682
0.0020623026
0.0020638122
0.0020656912
0.0020678962
0.0020704177
0.0020732401
0.0020763208
0.0020796122
0.002083082
0.0020867027
0.0020904452
0.002094278
0.0020981689
0.0021020848
0.0021059916
0.002109853
0.0021136298
0.0021172792
0.0021207557
0.0021240127
0.0021270059
0.0021296967
0.0021320562
0.0021340674
0.0021357266
0.0021370426
0.0021380348
0.0021387314
0.0021391654
0.0021393732
0.0021393915
0.0021392557
0.0021389991
0.0021386516
0.0021382373
0.0021377772
0.0021372914
0.0021367974
0.0021363085
0.0021358354
0.0021353857
0.002134965
0.0021345771
0.002134224
0.002133907
0.002133626
0.0021333801
0.0021331681
0.0021329879
0.0021328375
0.0021327145
0.0021326165
0.002132541
0.0021324856
0.0021324478
0.0021324252
0.0021324155
0.0021324166
0.0021324266
0.0021324437
0.0021324663
0.0021324929
0.0021325221
0.0021325528
0.0021325842
0.0021326156
0.0021326463
0.0021326761
0.0021327043
0.0021327307
0.0021327549
0.0021327769
0.0021327965
0.0021328139
0.0021328292
0.0021328424
0.0021328539
0.0021328635
0.0021328714
0.0021328777
0.0021328824
0.0021328857
0.0021328878
0.002132889
0.0021328895
0.0021328895
0.0021328891
0.0021328884
0.0021328874
0.0021328862
)
;
    }
}


// ************************************************************************* //
