/*--------------------------------*- C++ -*----------------------------------*\
| =========                 |                                                 |
| \\      /  F ield         | OpenFOAM: The Open Source CFD Toolbox           |
|  \\    /   O peration     | Version:  2506                                  |
|   \\  /    A nd           | Website:  www.openfoam.com                      |
|    \\/     M anipulation  |                                                 |
\*---------------------------------------------------------------------------*/
FoamFile
{
    version     2.0;
    format      ascii;
    arch        "LSB;label=32;scalar=64";
    class       volScalarField;
    location    "20000/water";
    object      k;
}
// * * * * * * * * * * * * * * * * * * * * * * * * * * * * * * * * * * * * * //

dimensions      [0 2 -2 0 0 0 0];

internalField   nonuniform List<scalar> 
1000
(
0.00017657855
0.00017657518
0.00017657131
0.00017655365
0.00017648098
0.00017625478
0.00017589507
0.00017764177
0.00020514192
0.00048657967
0.00013915035
0.00013915817
0.00013914641
0.00013908743
0.00013888206
0.0001383736
0.00013797747
0.00014325064
0.00019616753
0.00057072179
0.00011343696
0.00011343683
0.00011340783
0.00011329561
0.00011298241
0.0001124902
0.00011342551
0.00012641411
0.00020548438
0.00057180212
9.4956345e-05
9.4947216e-05
9.4898274e-05
9.4747989e-05
9.4461172e-05
9.4591067e-05
9.8882397e-05
0.00012463502
0.00023169842
0.00054812306
8.1180941e-05
8.1164581e-05
8.1102164e-05
8.0967047e-05
8.0960038e-05
8.2611573e-05
9.2929714e-05
0.00013695717
0.00027128466
0.00052456955
7.0599818e-05
7.0579371e-05
7.0523471e-05
7.0504806e-05
7.116825e-05
7.5593917e-05
9.5291618e-05
0.00016203306
0.00031586012
0.00050861045
6.2267978e-05
6.2250533e-05
6.2239521e-05
6.2499639e-05
6.439949e-05
7.3304018e-05
0.000106102
0.00019613583
0.00035649826
0.0005000385
5.5571435e-05
5.5570245e-05
5.5667652e-05
5.6450674e-05
6.0388966e-05
7.5971317e-05
0.00012498746
0.00023351969
0.00038871351
0.0004962932
5.0098705e-05
5.0135843e-05
5.0440283e-05
5.2102979e-05
5.9190428e-05
8.3983961e-05
0.00015029884
0.00026896159
0.0004124692
0.00049505654
4.5567681e-05
4.5677865e-05
4.6337502e-05
4.9391597e-05
6.1095769e-05
9.7486339e-05
0.00017920232
0.00029964248
0.00042964059
0.0004949373
4.1782807e-05
4.2019036e-05
4.3252154e-05
4.8416148e-05
6.6517947e-05
0.00011597909
0.000208657
0.00032501757
0.00044223049
0.00049528046
3.8609683e-05
3.9051443e-05
4.1174553e-05
4.94227e-05
7.5808301e-05
0.00013819021
0.00023642056
0.00034572044
0.00045177496
0.00049583515
3.5960363e-05
3.6725386e-05
4.0189416e-05
5.2766975e-05
8.9027858e-05
0.00016237211
0.00026138259
0.00036268805
0.00045931515
0.00049652608
3.3785894e-05
3.5046504e-05
4.0478194e-05
5.8837678e-05
0.00010576994
0.00018682833
0.00028330051
0.00037677344
0.00046551934
0.00049733756
3.2074363e-05
3.4079194e-05
4.2315947e-05
6.7933508e-05
0.00012516062
0.00021031415
0.00030238149
0.00038864926
0.00047080771
0.00049826648
3.0853784e-05
3.3954508e-05
4.6048058e-05
8.0117851e-05
0.00014606352
0.00023213615
0.0003189871
0.0003988172
0.00047543886
0.00049930738
3.0199562e-05
3.4878939e-05
5.2034168e-05
9.5115346e-05
0.00016736932
0.00025203053
0.00033348848
0.00040763761
0.00047952177
0.00050044498
3.0246004e-05
3.7136072e-05
6.055606e-05
0.00011231885
0.00018821049
0.00026998811
0.00034621431
0.00041534831
0.00048317087
0.00050166198
3.1200017e-05
4.1069026e-05
7.1707509e-05
0.00013091702
0.00020802768
0.00028611974
0.00035742608
0.00042213413
0.00048649175
0.00050294676
3.3351778e-05
4.7031428e-05
8.5310921e-05
0.00015007632
0.00022652164
0.00030057608
0.00036733106
0.00042815004
0.00048955827
0.0005042894
3.7070725e-05
5.5302145e-05
0.00010090986
0.00016908819
0.00024356828
0.00031350343
0.00037608903
0.0004335333
0.00049241592
0.00050567933
4.2767865e-05
6.5979729e-05
0.00011785061
0.0001874317
0.00025913442
0.00032501631
0.00038386975
0.00043837737
0.00049509091
0.00050710508
5.0805851e-05
7.8899598e-05
0.00013541256
0.00020475571
0.00027320772
0.000335262
0.00039079713
0.00044274763
0.00049759753
0.00050855474
6.1362571e-05
9.3622922e-05
0.00015292641
0.00022080495
0.00028583307
0.00034436368
0.00039696094
0.00044668806
0.00049994134
0.00051001609
7.4303432e-05
0.00010951538
0.00016980509
0.00023542201
0.00029707749
0.00035241119
0.00040242251
0.0004502251
0.00050212062
0.00051147641
8.9142955e-05
0.00012582848
0.00018559516
0.00024853518
0.00030699142
0.00035946503
0.00040721933
0.00045337047
0.00050412723
0.0005129221
0.00010508509
0.00014184869
0.00019999876
0.00026010241
0.00031560918
0.00036556165
0.00041136961
0.00045612388
0.00050594757
0.00051433832
0.00012123803
0.0001569964
0.00021282853
0.00027010606
0.00032295486
0.00037072067
0.00041487781
0.00045847641
0.00050756411
0.0005157089
0.00013679913
0.00017085424
0.00022398871
0.00027855482
0.0003290517
0.00037495397
0.00041774139
0.00046041484
0.00050895767
0.00051701645
0.00015116446
0.00018316292
0.00023345989
0.00028548708
0.00033393199
0.00037827535
0.00041995829
0.00046192685
0.00051011039
0.00051824316
0.00016395698
0.00019379949
0.00024128469
0.00029097227
0.00033764501
0.00038070924
0.00042153422
0.00046300633
0.00051100912
0.00051937195
0.00017500012
0.00020274868
0.00024755339
0.00029510849
0.00034026105
0.0003822966
0.00042248834
0.0004636579
0.00051164841
0.00052038792
0.00018426875
0.00021007366
0.00025238993
0.00029801701
0.00034187128
0.00038309744
0.00042285638
0.0004638997
0.00051203256
0.0005212797
0.00019183922
0.00021588989
0.00025593924
0.00029983494
0.00034258419
0.00038318962
0.00042269074
0.00046376394
0.00051217611
0.00052204055
0.0001978483
0.00022034366
0.00025835657
0.00030070754
0.00034251997
0.00038266513
0.00042205799
0.00046329517
0.00051210288
0.00052266869
0.00020246325
0.00022359569
0.00025979898
0.00030078126
0.00034180416
0.00038162463
0.00042103455
0.00046254701
0.0005118437
0.00052316718
0.00020586174
0.00022580944
0.00026041909
0.00030019805
0.00034056164
0.00038017171
0.00041970157
0.00046157803
0.00051143362
0.00052354325
0.00020821907
0.0002271432
0.00026036068
0.00029909111
0.00033891168
0.00037840766
0.00041814005
0.00046044764
0.000510909
0.00052380731
0.00020970073
0.00022774517
0.00025975587
0.0002975821
0.00033696428
0.00037642725
0.00041642669
0.00045921253
0.00051030505
0.00052397192
0.00021045832
0.00022775057
0.00025872361
0.00029577955
0.0003348178
0.00037431581
0.00041463087
0.00045792405
0.00050965388
0.00052405073
0.00021062781
0.00022728044
0.00025736903
0.00029377821
0.00033255775
0.00037214746
0.00041281271
0.00045662655
0.00050898337
0.00052405765
0.00021032911
0.00022644135
0.00025578357
0.00029165918
0.00033025654
0.00036998449
0.00041102227
0.00045535655
0.00050831657
0.00052400616
0.00020966662
0.00022532577
0.00025404551
0.00028949051
0.00032797383
0.00036787739
0.00040929945
0.0004541427
0.00050767163
0.00052390884
0.00020873012
0.00022401298
0.00025222088
0.00028732811
0.00032575734
0.00036586551
0.00040767449
0.00045300615
0.00050706194
0.00052377706
0.00020759602
0.00022257003
0.00025036445
0.00028521688
0.00032364395
0.000363978
0.0004061686
0.00045196014
0.00050648805
0.00052362
0.00020632866
0.00022105296
0.00024852087
0.00028319185
0.00032166093
0.00036223503
0.00040479495
0.00045100868
0.00050595622
0.00052344557
0.00020498162
0.00021950792
0.00024672578
0.00028127946
0.00031982721
0.00036064881
0.00040355803
0.0004501548
0.00050547523
0.00052326149
0.00020359895
0.00021797233
0.00024500691
0.00027949862
0.00031815433
0.00035922369
0.00040245834
0.00044940252
0.00050504918
0.00052307427
0.00020221637
0.00021647595
0.00024338507
0.00027786169
0.000316647
0.00035795862
0.00040149647
0.0004487517
0.00050467884
0.00052288908
0.00020086232
0.00021504188
0.00024187507
0.00027637489
0.00031530415
0.00035685215
0.00040066923
0.00044819902
0.00050436277
0.00052270988
0.00019955897
0.00021368742
0.00024048591
0.00027503928
0.00031412393
0.00035589936
0.00039997043
0.00044773892
0.00050409805
0.00052253959
0.00019832285
0.00021242426
0.00023922221
0.00027385425
0.00031310134
0.00035509266
0.0003993918
0.00044736446
0.00050388092
0.00052238031
0.00019716554
0.00021126009
0.00023808598
0.0002728164
0.00031222899
0.00035442256
0.00039892379
0.00044706794
0.00050370716
0.00052223344
0.00019609505
0.00021019955
0.00023707657
0.00027192012
0.00031149773
0.00035387835
0.00039855613
0.00044684131
0.00050357235
0.00052209982
0.00019511639
0.00020924459
0.00023619115
0.00027115805
0.00031089718
0.00035344859
0.00039827825
0.00044667647
0.00050347207
0.00052197983
0.00019423205
0.00020839492
0.00023542507
0.00027052151
0.00031041615
0.00035312148
0.00039807957
0.00044656546
0.00050340196
0.00052187349
0.00019344235
0.00020764839
0.00023477223
0.00027000091
0.00031004302
0.00035288522
0.00039794975
0.00044650066
0.00050335781
0.00052178048
0.00019274583
0.0002070013
0.00023422547
0.00026958604
0.00030976602
0.00035272819
0.00039787885
0.00044647481
0.00050333566
0.00052170026
0.00019213955
0.00020644871
0.00023377681
0.0002692664
0.00030957351
0.00035263925
0.00039785751
0.00044648123
0.00050333183
0.0005216321
0.00019161941
0.00020598479
0.00023341779
0.00026903144
0.00030945423
0.00035260786
0.00039787711
0.00044651381
0.000503343
0.00052157519
0.00019118039
0.00020560302
0.00023313968
0.00026887085
0.00030939748
0.00035262428
0.00039792978
0.0004465671
0.0005033662
0.00052152866
0.00019081686
0.00020529648
0.00023293375
0.00026877464
0.00030939325
0.00035267957
0.00039800848
0.00044663627
0.00050339882
0.00052149159
0.00019052273
0.00020505803
0.00023279139
0.00026873337
0.00030943227
0.00035276566
0.00039810693
0.00044671708
0.00050343851
0.00052146305
0.00019029165
0.00020488044
0.00023270425
0.00026873813
0.00030950606
0.0003528753
0.00039821961
0.0004468058
0.00050348322
0.0005214421
0.00019011717
0.00020475659
0.00023266436
0.0002687807
0.00030960695
0.00035300205
0.00039834168
0.00044689921
0.00050353114
0.0005214278
0.00018999286
0.00020467951
0.00023266419
0.00026885351
0.00030972804
0.00035314027
0.00039846894
0.00044699456
0.0005035807
0.00052141924
0.0001899124
0.00020464253
0.00023269673
0.00026894969
0.00030986327
0.00035328507
0.00039859786
0.00044708955
0.00050363061
0.00052141558
0.00018986971
0.00020463933
0.00023275552
0.00026906315
0.00031000734
0.00035343231
0.00039872553
0.00044718231
0.00050367981
0.00052141599
0.000189859
0.00020466402
0.00023283472
0.0002691885
0.00031015576
0.00035357858
0.00039884957
0.00044727139
0.00050372743
0.00052141977
0.00018987486
0.00020471118
0.00023292912
0.00026932108
0.00031030472
0.00035372108
0.00039896815
0.00044735565
0.00050377282
0.00052142624
0.00018991231
0.00020477589
0.00023303411
0.00026945691
0.00031045112
0.0003538576
0.00039907983
0.00044743426
0.00050381548
0.0005214348
0.00018996678
0.00020485375
0.00023314567
0.00026959265
0.00031059242
0.00035398643
0.00039918357
0.00044750658
0.00050385464
0.00052144486
0.00019003416
0.00020494083
0.00023326037
0.00026972553
0.00031072664
0.00035410628
0.00039927863
0.00044757204
0.00050388986
0.00052145591
0.00019011081
0.00020503375
0.00023337529
0.00026985335
0.00031085229
0.0003542163
0.00039936447
0.00044763029
0.00050392124
0.00052146752
0.00019019352
0.00020512957
0.00023348806
0.00026997439
0.00031096832
0.00035431591
0.00039944082
0.00044768146
0.00050394903
0.00052147939
0.00019027955
0.00020522582
0.00023359676
0.00027008739
0.00031107403
0.00035440479
0.00039950777
0.00044772592
0.00050397344
0.00052149125
0.00019036656
0.00020532047
0.0002336999
0.00027019145
0.000311169
0.00035448297
0.00039956573
0.00044776407
0.00050399464
0.00052150289
0.00019045259
0.00020541188
0.00023379635
0.00027028594
0.00031125311
0.00035455082
0.00039961521
0.00044779633
0.00050401284
0.00052151413
0.00019053605
0.00020549872
0.00023388522
0.00027037055
0.00031132659
0.00035460883
0.00039965675
0.00044782311
0.00050402819
0.00052152481
0.00019061564
0.00020557996
0.00023396598
0.00027044525
0.0003113898
0.00035465756
0.0003996909
0.00044784483
0.00050404087
0.00052153478
0.00019069031
0.00020565482
0.00023403833
0.00027051025
0.00031144326
0.00035469764
0.00039971825
0.00044786191
0.00050405108
0.00052154396
0.00019075935
0.00020572285
0.00023410224
0.00027056589
0.00031148757
0.00035472976
0.00039973942
0.00044787481
0.00050405901
0.00052155227
0.00019082227
0.0002057838
0.00023415787
0.00027061268
0.00031152344
0.00035475467
0.00039975508
0.00044788401
0.00050406491
0.0005215597
0.00019087884
0.00020583767
0.00023420553
0.00027065125
0.00031155166
0.00035477317
0.00039976592
0.00044789
0.00050406907
0.00052156628
0.00019092904
0.00020588463
0.00023424571
0.00027068231
0.00031157307
0.0003547861
0.00039977264
0.0004478933
0.00050407175
0.00052157205
0.00019097301
0.00020592499
0.00023427896
0.00027070664
0.00031158853
0.00035479426
0.00039977592
0.0004478944
0.00050407322
0.00052157707
0.00019101101
0.00020595915
0.0002343059
0.00027072501
0.00031159886
0.00035479841
0.00039977637
0.0004478937
0.00050407369
0.00052158139
0.00019104337
0.00020598755
0.00023432715
0.00027073813
0.00031160478
0.0003547992
0.00039977451
0.00044789156
0.00050407331
0.00052158503
0.00019107045
0.00020601067
0.00023434329
0.00027074667
0.00031160695
0.00035479719
0.00039977073
0.00044788822
0.00050407221
0.00052158803
0.00019109264
0.00020602896
0.00023435488
0.00027075125
0.00031160595
0.00035479286
0.00039976541
0.00044788391
0.00050407047
0.0005215904
0.00019111031
0.00020604286
0.00023436246
0.00027075242
0.0003116023
0.00035478664
0.00039975884
0.00044787881
0.00050406821
0.00052159218
0.00019112389
0.00020605286
0.00023436655
0.00027075074
0.00031159652
0.00035477897
0.00039975136
0.00044787316
0.00050406555
0.00052159342
0.00019113381
0.00020605943
0.00023436769
0.00027074674
0.0003115891
0.00035477027
0.0003997433
0.00044786718
0.00050406264
0.00052159422
0.00019114055
0.00020606307
0.00023436641
0.00027074097
0.00031158054
0.00035476095
0.00039973498
0.00044786113
0.00050405966
0.00052159467
0.00019114459
0.00020606429
0.00023436324
0.00027073393
0.0003115713
0.00035475141
0.00039972671
0.00044785521
0.00050405673
0.00052159486
0.0001911464
0.00020606357
0.00023435866
0.00027072608
0.00031156178
0.00035474196
0.00039971872
0.00044784959
0.00050405394
0.00052159486
0.00019114642
0.00020606135
0.00023435308
0.00027071778
0.00031155228
0.00035473284
0.00039971118
0.00044784436
0.00050405135
0.00052159472
0.00019114503
0.00020605799
0.00023434684
0.00027070933
0.00031154302
0.00035472418
0.00039970417
0.00044783956
0.00050404895
0.00052159446
0.00019114254
0.0002060538
0.00023434022
0.00027070094
0.00031153415
0.00035471607
0.00039969769
0.00044783515
0.00050404672
0.00052159409
0.00019113922
0.00020604903
0.00023433342
0.00027069276
0.00031152575
0.00035470854
0.00039969174
0.0004478311
0.00050404459
0.00052159361
)
;

boundaryField
{
    water_inlet
    {
        type            turbulentIntensityKineticEnergyInlet;
        intensity       0.05;
        value           uniform 0.000234375;
    }
    water_outlet
    {
        type            inletOutlet;
        inletValue      uniform 0.0001;
        value           nonuniform List<scalar> 10(0.00019113922 0.00020604903 0.00023433342 0.00027069276 0.00031152575 0.00035470854 0.00039969174 0.0004478311 0.00050404459 0.00052159361);
    }
    water_wedge1
    {
        type            wedge;
    }
    water_wedge2
    {
        type            wedge;
    }
    water_to_rock
    {
        type            kqRWallFunction;
        value           nonuniform List<scalar> 
100
(
0.00048657967
0.00057072179
0.00057180212
0.00054812306
0.00052456955
0.00050861045
0.0005000385
0.0004962932
0.00049505654
0.0004949373
0.00049528046
0.00049583515
0.00049652608
0.00049733756
0.00049826648
0.00049930738
0.00050044498
0.00050166198
0.00050294676
0.0005042894
0.00050567933
0.00050710508
0.00050855474
0.00051001609
0.00051147641
0.0005129221
0.00051433832
0.0005157089
0.00051701645
0.00051824316
0.00051937195
0.00052038792
0.0005212797
0.00052204055
0.00052266869
0.00052316718
0.00052354325
0.00052380731
0.00052397192
0.00052405073
0.00052405765
0.00052400616
0.00052390884
0.00052377706
0.00052362
0.00052344557
0.00052326149
0.00052307427
0.00052288908
0.00052270988
0.00052253959
0.00052238031
0.00052223344
0.00052209982
0.00052197983
0.00052187349
0.00052178048
0.00052170026
0.0005216321
0.00052157519
0.00052152866
0.00052149159
0.00052146305
0.0005214421
0.0005214278
0.00052141924
0.00052141558
0.00052141599
0.00052141977
0.00052142624
0.0005214348
0.00052144486
0.00052145591
0.00052146752
0.00052147939
0.00052149125
0.00052150289
0.00052151413
0.00052152481
0.00052153478
0.00052154396
0.00052155227
0.0005215597
0.00052156628
0.00052157205
0.00052157707
0.00052158139
0.00052158503
0.00052158803
0.0005215904
0.00052159218
0.00052159342
0.00052159422
0.00052159467
0.00052159486
0.00052159486
0.00052159472
0.00052159446
0.00052159409
0.00052159361
)
;
    }
}


// ************************************************************************* //
