/*--------------------------------*- C++ -*----------------------------------*\
| =========                 |                                                 |
| \\      /  F ield         | OpenFOAM: The Open Source CFD Toolbox           |
|  \\    /   O peration     | Version:  2506                                  |
|   \\  /    A nd           | Website:  www.openfoam.com                      |
|    \\/     M anipulation  |                                                 |
\*---------------------------------------------------------------------------*/
FoamFile
{
    version     2.0;
    format      ascii;
    arch        "LSB;label=32;scalar=64";
    class       volScalarField;
    location    "20000/water";
    object      nut;
}
// * * * * * * * * * * * * * * * * * * * * * * * * * * * * * * * * * * * * * //

dimensions      [0 2 -1 0 0 0 0];

internalField   nonuniform List<scalar> 
1000
(
3.8760013e-05
3.8759344e-05
3.875781e-05
3.8749425e-05
3.8703919e-05
3.8465194e-05
3.7257946e-05
3.1920746e-05
1.9133705e-05
1.6330702e-05
3.6503362e-05
3.6502673e-05
3.6496232e-05
3.646333e-05
3.6309099e-05
3.5625574e-05
3.2857817e-05
2.4520495e-05
1.4670662e-05
1.7686427e-05
3.4818769e-05
3.4815355e-05
3.4798028e-05
3.4720761e-05
3.4400236e-05
3.3155725e-05
2.8966476e-05
2.0114758e-05
1.4313174e-05
1.7703159e-05
3.3515366e-05
3.3507685e-05
3.3473492e-05
3.3336596e-05
3.2819806e-05
3.0995906e-05
2.581643e-05
1.830507e-05
1.5980856e-05
1.7332729e-05
3.247679e-05
3.2463573e-05
3.2409013e-05
3.2208499e-05
3.1494113e-05
2.9122779e-05
2.3598584e-05
1.8669451e-05
1.889558e-05
1.6956234e-05
3.1628598e-05
3.1609534e-05
3.153636e-05
3.1282467e-05
3.0382793e-05
2.753479e-05
2.2595724e-05
2.0841199e-05
2.2319073e-05
1.669631e-05
3.0922115e-05
3.0899106e-05
3.0816964e-05
3.0532897e-05
2.94551e-05
2.6339672e-05
2.3103588e-05
2.4287762e-05
2.5587495e-05
1.6555018e-05
3.0325437e-05
3.0303992e-05
3.0232568e-05
2.9948375e-05
2.869595e-05
2.5833996e-05
2.518392e-05
2.8331583e-05
2.8356042e-05
1.6492904e-05
2.9818406e-05
2.9809192e-05
2.9779256e-05
2.9521731e-05
2.8157711e-05
2.6404619e-05
2.8559714e-05
3.2392753e-05
3.0574193e-05
1.6472339e-05
2.9389963e-05
2.9410463e-05
2.946278e-05
2.9249316e-05
2.8031362e-05
2.8288133e-05
3.2740095e-05
3.6145672e-05
3.2325744e-05
1.6470353e-05
2.9037016e-05
2.9113036e-05
2.9294051e-05
2.915201e-05
2.8634974e-05
3.143162e-05
3.7231811e-05
3.9484804e-05
3.371993e-05
1.6476063e-05
2.876432e-05
2.8930776e-05
2.9285867e-05
2.9323171e-05
3.0269847e-05
3.5542719e-05
4.1683964e-05
4.2418101e-05
3.485057e-05
1.6485288e-05
2.8585094e-05
2.8885085e-05
2.945644e-05
2.996698e-05
3.3062421e-05
4.0234066e-05
4.5910919e-05
4.4991639e-05
3.5787844e-05
1.649677e-05
2.8522082e-05
2.9003191e-05
2.9849432e-05
3.1360335e-05
3.6918749e-05
4.5156913e-05
4.9841365e-05
4.7257375e-05
3.6581208e-05
1.6510245e-05
2.8608643e-05
2.9316863e-05
3.0571151e-05
3.3736609e-05
4.1586936e-05
5.0067273e-05
5.3461988e-05
4.926265e-05
3.7264836e-05
1.6525657e-05
2.8889321e-05
2.9866158e-05
3.1814765e-05
3.7180932e-05
4.6760442e-05
5.4824717e-05
5.678394e-05
5.1047331e-05
3.7861836e-05
1.654291e-05
2.9419649e-05
3.0715924e-05
3.3825301e-05
4.1605809e-05
5.2164768e-05
5.935961e-05
5.9827186e-05
5.26425e-05
3.8381988e-05
1.6561744e-05
3.0266846e-05
3.1985691e-05
3.6807802e-05
4.6798474e-05
5.7598698e-05
6.3641651e-05
6.2613304e-05
5.4068789e-05
3.8841621e-05
1.6581868e-05
3.1517231e-05
3.3869003e-05
4.0842352e-05
5.2497402e-05
6.2933505e-05
6.7660478e-05
6.5161069e-05
5.5349532e-05
3.9251421e-05
1.6603086e-05
3.3297319e-05
3.6603541e-05
4.5857798e-05
5.8458755e-05
6.8092368e-05
7.1415554e-05
6.7489052e-05
5.6504174e-05
3.9619174e-05
1.6625234e-05
3.5799938e-05
4.0389517e-05
5.166412e-05
6.4490954e-05
7.3029102e-05
7.4907594e-05
6.9617662e-05
5.7547474e-05
3.9950827e-05
1.6648131e-05
3.927748e-05
4.5307148e-05
5.8014184e-05
7.0457407e-05
7.7711488e-05
7.8146451e-05
7.1563724e-05
5.8491292e-05
4.0250694e-05
1.6671586e-05
4.3968401e-05
5.1283249e-05
6.4662127e-05
7.6260936e-05
8.2121289e-05
8.114306e-05
7.3340874e-05
5.9344933e-05
4.0521882e-05
1.6695399e-05
4.9983378e-05
5.8114662e-05
7.1396401e-05
8.1830037e-05
8.6249648e-05
8.3905922e-05
7.4959748e-05
6.0115374e-05
4.0766534e-05
1.6719368e-05
5.7224289e-05
6.5522825e-05
7.8046347e-05
8.7114233e-05
9.0089849e-05
8.6440565e-05
7.6427782e-05
6.08074e-05
4.0985946e-05
1.6743286e-05
6.5386506e-05
7.3208937e-05
8.4485004e-05
9.2075838e-05
9.3633474e-05
8.8749018e-05
7.7749211e-05
6.1423759e-05
4.1180647e-05
1.6766931e-05
7.4040424e-05
8.0900268e-05
9.0617486e-05
9.6681532e-05
9.6870166e-05
9.0830003e-05
7.8925397e-05
6.1965421e-05
4.1350517e-05
1.6790064e-05
8.2741838e-05
8.836662e-05
9.636729e-05
0.00010090231
9.9788692e-05
9.2679911e-05
7.9955542e-05
6.2432024e-05
4.1494964e-05
1.681242e-05
9.1117591e-05
9.5425921e-05
0.00010167337
0.0001047148
0.00010237896
9.4294434e-05
8.0837794e-05
6.2822493e-05
4.1613178e-05
1.6833719e-05
9.8903574e-05
0.000101945
0.00010649021
0.00010810307
0.00010463438
9.5670522e-05
8.1570576e-05
6.31358e-05
4.1704426e-05
1.6853677e-05
0.00010594341
0.00010783751
0.00011078872
0.0001110602
0.00010655383
9.6808231e-05
8.2153939e-05
6.3371752e-05
4.1768372e-05
1.687202e-05
0.0001121672
0.00011305899
0.00011455659
0.00011358902
0.00010814298
9.7712093e-05
8.2590663e-05
6.3531669e-05
4.1805351e-05
1.6888514e-05
0.00011756602
0.00011759984
0.00011779741
0.00011570198
0.00010941457
9.8391758e-05
8.2886917e-05
6.3618829e-05
4.1816547e-05
1.6902979e-05
0.00012216996
0.00012147716
0.00012052868
0.00011742005
0.00011038785
9.8861887e-05
8.3052365e-05
6.3638592e-05
4.1804036e-05
1.6915312e-05
0.00012603207
0.00012472694
0.00012277906
0.00011877112
0.00011108742
9.9141404e-05
8.3099776e-05
6.3598196e-05
4.1770685e-05
1.6925487e-05
0.0001292174
0.00012739733
0.0001245853
0.0001197881
0.00011154164
9.9252342e-05
8.3044249e-05
6.3506307e-05
4.1719945e-05
1.6933557e-05
0.00013179596
0.00012954323
0.00012598932
0.0001205069
0.00011178106
9.9218532e-05
8.2902265e-05
6.3372423e-05
4.1655586e-05
1.6939641e-05
0.00013383824
0.00013122227
0.00012703558
0.00012096473
0.00011183689
9.9064331e-05
8.269072e-05
6.3206268e-05
4.158142e-05
1.6943912e-05
0.00013541245
0.00013249189
0.00012776897
0.00012119855
0.00011173977
9.8813553e-05
8.2426089e-05
6.301725e-05
4.1501076e-05
1.6946572e-05
0.00013658283
0.00013340742
0.00012823321
0.00012124396
0.00011151881
9.8488634e-05
8.2123767e-05
6.2814041e-05
4.1417819e-05
1.6947846e-05
0.00013740871
0.00013402076
0.00012846975
0.00012113437
0.00011120095
9.8110065e-05
8.1797624e-05
6.2604301e-05
4.1334448e-05
1.6947957e-05
0.00013794412
0.00013437973
0.00012851705
0.00012090049
0.00011081053
9.7696059e-05
8.1459742e-05
6.2394529e-05
4.1253246e-05
1.6947125e-05
0.00013823763
0.0001345277
0.00012841018
0.00012057005
0.00011036912
9.7262401e-05
8.1120319e-05
6.2190018e-05
4.1175981e-05
1.6945552e-05
0.00013833253
0.00013450353
0.00012818063
0.0001201677
0.0001098955
9.682244e-05
8.0787684e-05
6.1994889e-05
4.1103933e-05
1.6943422e-05
0.00013826703
0.0001343417
0.00012785637
0.00011971502
0.00010940567
9.6387146e-05
8.0468302e-05
6.1811915e-05
4.1036865e-05
1.6940882e-05
0.00013807462
0.00013407249
0.00012746191
0.00011923061
0.00010891299
9.5965211e-05
8.0166792e-05
6.1642166e-05
4.0975918e-05
1.6938061e-05
0.00013778444
0.00013372227
0.00012701849
0.00011873026
0.0001084283
9.5563121e-05
7.988572e-05
6.1487743e-05
4.0921568e-05
1.6935082e-05
0.00013742161
0.00013331375
0.00012654424
0.00011822705
0.00010796001
9.518506e-05
7.9628235e-05
6.1349461e-05
4.0873987e-05
1.6932051e-05
0.00013700758
0.00013286627
0.00012605435
0.00011773144
0.00010751408
9.4835335e-05
7.9395797e-05
6.1227542e-05
4.0833091e-05
1.6929053e-05
0.00013656044
0.00013239601
0.00012556111
0.00011725137
0.0001070962
9.4516346e-05
7.9188934e-05
6.112174e-05
4.0798606e-05
1.6926151e-05
0.00013609506
0.00013191608
0.00012507458
0.00011679417
0.00010671005
9.4229277e-05
7.900745e-05
6.1031432e-05
4.0770123e-05
1.6923395e-05
0.00013562372
0.00013143766
0.00012460348
0.00011636507
0.00010635789
9.397437e-05
7.8850588e-05
6.095573e-05
4.0747149e-05
1.6920816e-05
0.0001351568
0.00013097
0.00012415453
0.00011596777
0.00010604085
9.375112e-05
7.871718e-05
6.0893571e-05
4.0729157e-05
1.6918438e-05
0.00013470274
0.00013052051
0.0001237328
0.00011560464
0.00010575914
9.3558454e-05
7.8605769e-05
6.0843792e-05
4.0715604e-05
1.6916274e-05
0.00013426824
0.0001300949
0.00012334191
0.00011527695
0.00010551221
9.3394864e-05
7.8514699e-05
6.080518e-05
4.0705957e-05
1.6914329e-05
0.00013385846
0.00012969742
0.00012298423
0.00011498505
0.00010529892
9.3258507e-05
7.8442186e-05
6.0776505e-05
4.0699698e-05
1.6912605e-05
0.00013347718
0.000129331
0.00012266108
0.0001147285
0.00010511762
9.3147295e-05
7.8386368e-05
6.0756548e-05
4.0696328e-05
1.6911098e-05
0.00013312693
0.00012899748
0.00012237282
0.00011450621
0.00010496628
9.3058973e-05
7.8345358e-05
6.0744117e-05
4.0695381e-05
1.6909798e-05
0.0001328092
0.00012869767
0.00012211907
0.00011431658
0.0001048426
9.2991206e-05
7.8317293e-05
6.0738081e-05
4.0696423e-05
1.6908693e-05
0.00013252457
0.00012843161
0.00012189878
0.00011415761
0.00010474414
9.2941658e-05
7.8300383e-05
6.0737383e-05
4.0699062e-05
1.6907772e-05
0.00013227287
0.00012819864
0.00012171047
0.00011402706
0.00010466838
9.290805e-05
7.8292949e-05
6.0741063e-05
4.0702951e-05
1.6907018e-05
0.00013205333
0.0001279976
0.00012155228
0.00011392253
0.0001046128
9.2888213e-05
7.8293436e-05
6.0748255e-05
4.0707784e-05
1.6906416e-05
0.0001318647
0.00012782693
0.00012142209
0.00011384154
0.00010457496
9.2880098e-05
7.8300424e-05
6.0758188e-05
4.0713297e-05
1.6905953e-05
0.00013170538
0.00012768475
0.00012131762
0.00011378159
0.00010455249
9.2881792e-05
7.8312615e-05
6.0770174e-05
4.071926e-05
1.6905613e-05
0.00013157346
0.00012756894
0.00012123647
0.00011374017
0.00010454312
9.2891514e-05
7.8328834e-05
6.0783604e-05
4.0725471e-05
1.690538e-05
0.00013146681
0.00012747724
0.00012117619
0.00011371485
0.00010454471
9.2907631e-05
7.8348026e-05
6.0797943e-05
4.0731759e-05
1.6905242e-05
0.00013138318
0.00012740726
0.0001211343
0.00011370329
0.00010455526
9.2928662e-05
7.8369259e-05
6.081273e-05
4.073798e-05
1.6905182e-05
0.00013132023
0.0001273566
0.00012110842
0.00011370326
0.00010457296
9.2953293e-05
7.8391732e-05
6.0827583e-05
4.0744019e-05
1.6905189e-05
0.00013127558
0.00012732289
0.00012109622
0.00011371272
0.00010459617
9.2980382e-05
7.8414767e-05
6.0842189e-05
4.0749788e-05
1.690525e-05
0.00013124694
0.00012730383
0.00012109554
0.0001137298
0.00010462344
9.3008943e-05
7.8437801e-05
6.08563e-05
4.0755219e-05
1.6905355e-05
0.00013123206
0.00012729723
0.00012110436
0.00011375279
0.0001046535
9.3038138e-05
7.846037e-05
6.0869722e-05
4.0760265e-05
1.6905494e-05
0.00013122884
0.00012730102
0.00012112082
0.00011378018
0.00010468524
9.3067263e-05
7.8482098e-05
6.0882294e-05
4.0764846e-05
1.6905657e-05
0.00013123528
0.00012731329
0.00012114323
0.00011381063
0.00010471771
9.3095727e-05
7.8502674e-05
6.0893864e-05
4.0768942e-05
1.6905836e-05
0.00013124955
0.0001273323
0.00012117008
0.00011384298
0.00010475012
9.3123051e-05
7.8521838e-05
6.0904363e-05
4.0772573e-05
1.6906024e-05
0.00013126998
0.00012735647
0.00012120004
0.00011387621
0.00010478179
9.3148842e-05
7.8539434e-05
6.0913789e-05
4.0775758e-05
1.6906217e-05
0.00013129508
0.0001273844
0.00012123194
0.00011390949
0.00010481219
9.3172826e-05
7.8555413e-05
6.0922149e-05
4.0778519e-05
1.6906409e-05
0.00013132351
0.00012741486
0.00012126478
0.00011394211
0.00010484089
9.3194876e-05
7.856975e-05
6.0929474e-05
4.0780883e-05
1.6906597e-05
0.0001313541
0.00012744677
0.0001212977
0.00011397349
0.00010486766
9.3214897e-05
7.8582457e-05
6.0935809e-05
4.0782878e-05
1.6906779e-05
0.0001313858
0.00012747917
0.00012132998
0.00011400324
0.00010489229
9.3232846e-05
7.8593567e-05
6.0941206e-05
4.0784532e-05
1.6906953e-05
0.00013141772
0.00012751128
0.00012136108
0.00011403102
0.00010491465
9.3248714e-05
7.8603134e-05
6.094572e-05
4.0785871e-05
1.6907115e-05
0.00013144911
0.00012754245
0.00012139052
0.00011405658
0.00010493465
9.3262523e-05
7.861122e-05
6.0949406e-05
4.078692e-05
1.6907265e-05
0.00013147936
0.00012757216
0.00012141796
0.00011407975
0.00010495227
9.3274333e-05
7.8617906e-05
6.0952327e-05
4.0787704e-05
1.6907401e-05
0.00013150799
0.00012760001
0.00012144314
0.00011410045
0.00010496755
9.3284242e-05
7.8623295e-05
6.0954553e-05
4.0788254e-05
1.6907522e-05
0.00013153467
0.00012762573
0.00012146593
0.00011411869
0.00010498059
9.3292387e-05
7.862751e-05
6.0956165e-05
4.0788599e-05
1.6907629e-05
0.00013155922
0.00012764919
0.00012148632
0.00011413456
0.00010499155
9.3298942e-05
7.8630694e-05
6.0957252e-05
4.0788774e-05
1.6907722e-05
0.00013158155
0.00012767035
0.00012150436
0.0001141482
0.00010500063
9.330409e-05
7.8632994e-05
6.0957901e-05
4.0788813e-05
1.6907802e-05
0.00013160167
0.00012768925
0.00012152015
0.00011415978
0.000105008
9.3308012e-05
7.8634543e-05
6.0958192e-05
4.0788745e-05
1.6907871e-05
0.00013161962
0.00012770595
0.00012153381
0.00011416945
0.00010501385
9.3310862e-05
7.8635456e-05
6.0958189e-05
4.0788594e-05
1.690793e-05
0.00013163544
0.00012772053
0.00012154544
0.00011417736
0.00010501832
9.3312765e-05
7.8635818e-05
6.0957939e-05
4.0788374e-05
1.6907978e-05
0.00013164918
0.00012773304
0.00012155515
0.00011418363
0.00010502154
9.331382e-05
7.8635698e-05
6.0957477e-05
4.0788097e-05
1.6908017e-05
0.00013166088
0.00012774356
0.00012156303
0.00011418837
0.00010502361
9.3314122e-05
7.8635157e-05
6.0956834e-05
4.0787771e-05
1.6908047e-05
0.00013167062
0.00012775217
0.0001215692
0.00011419173
0.00010502467
9.3313771e-05
7.8634261e-05
6.0956042e-05
4.0787407e-05
1.6908068e-05
0.00013167851
0.00012775901
0.00012157381
0.00011419386
0.00010502487
9.3312886e-05
7.863309e-05
6.0955145e-05
4.0787018e-05
1.6908081e-05
0.00013168472
0.00012776426
0.00012157707
0.00011419496
0.00010502438
9.3311602e-05
7.8631733e-05
6.0954188e-05
4.0786621e-05
1.6908088e-05
0.00013168949
0.00012776816
0.00012157921
0.00011419525
0.00010502337
9.3310055e-05
7.8630281e-05
6.0953221e-05
4.0786233e-05
1.690809e-05
0.00013169306
0.00012777094
0.00012158045
0.00011419492
0.00010502203
9.3308367e-05
7.8628811e-05
6.0952282e-05
4.0785868e-05
1.6908088e-05
0.00013169567
0.00012777284
0.000121581
0.00011419416
0.00010502047
9.330663e-05
7.8627376e-05
6.0951397e-05
4.0785533e-05
1.6908084e-05
0.00013169752
0.00012777404
0.00012158103
0.00011419309
0.00010501879
9.33049e-05
7.8626006e-05
6.0950578e-05
4.0785231e-05
1.6908079e-05
0.00013169876
0.00012777468
0.00012158065
0.00011419179
0.00010501704
9.3303205e-05
7.8624711e-05
6.0949823e-05
4.0784959e-05
1.6908073e-05
0.00013169948
0.00012777486
0.00012157993
0.00011419032
0.00010501526
9.3301555e-05
7.8623484e-05
6.0949124e-05
4.0784712e-05
1.6908066e-05
)
;

boundaryField
{
    water_inlet
    {
        type            calculated;
        value           uniform 4.1926275e-05;
    }
    water_outlet
    {
        type            calculated;
        value           nonuniform List<scalar> 10(0.00013169948 0.00012777486 0.00012157993 0.00011419032 0.00010501526 9.3301555e-05 7.8623484e-05 6.0949124e-05 4.0784712e-05 1.6908066e-05);
    }
    water_wedge1
    {
        type            wedge;
    }
    water_wedge2
    {
        type            wedge;
    }
    water_to_rock
    {
        type            nutkWallFunction;
        blending        stepwise;
        value           nonuniform List<scalar> 
100
(
1.7358471e-06
1.9240026e-06
1.9263124e-06
1.8751053e-06
1.8229109e-06
1.7867868e-06
1.7671182e-06
1.7584646e-06
1.7555991e-06
1.7553226e-06
1.7561182e-06
1.7574037e-06
1.7590037e-06
1.7608813e-06
1.7630285e-06
1.7654318e-06
1.7680552e-06
1.7708579e-06
1.7738126e-06
1.7768957e-06
1.7800826e-06
1.7833464e-06
1.7866596e-06
1.7899941e-06
1.7933208e-06
1.796609e-06
1.799825e-06
1.8029326e-06
1.8058929e-06
1.8086664e-06
1.8112152e-06
1.8135065e-06
1.8155157e-06
1.8172283e-06
1.8186412e-06
1.8197617e-06
1.8206067e-06
1.8211998e-06
1.8215694e-06
1.8217464e-06
1.8217619e-06
1.8216463e-06
1.8214278e-06
1.8211319e-06
1.8207791e-06
1.8203873e-06
1.8199737e-06
1.8195529e-06
1.8191367e-06
1.8187338e-06
1.8183509e-06
1.8179927e-06
1.8176623e-06
1.8173617e-06
1.8170917e-06
1.8168524e-06
1.8166431e-06
1.8164625e-06
1.8163091e-06
1.816181e-06
1.8160762e-06
1.8159928e-06
1.8159285e-06
1.8158813e-06
1.8158492e-06
1.8158299e-06
1.8158216e-06
1.8158226e-06
1.8158311e-06
1.8158456e-06
1.8158649e-06
1.8158876e-06
1.8159124e-06
1.8159386e-06
1.8159653e-06
1.815992e-06
1.8160182e-06
1.8160435e-06
1.8160676e-06
1.81609e-06
1.8161107e-06
1.8161294e-06
1.8161461e-06
1.8161609e-06
1.8161739e-06
1.8161852e-06
1.8161949e-06
1.8162031e-06
1.8162099e-06
1.8162152e-06
1.8162192e-06
1.816222e-06
1.8162238e-06
1.8162248e-06
1.8162253e-06
1.8162253e-06
1.816225e-06
1.8162244e-06
1.8162235e-06
1.8162224e-06
)
;
    }
}


// ************************************************************************* //
