/*--------------------------------*- C++ -*----------------------------------*\
| =========                 |                                                 |
| \\      /  F ield         | OpenFOAM: The Open Source CFD Toolbox           |
|  \\    /   O peration     | Version:  2506                                  |
|   \\  /    A nd           | Website:  www.openfoam.com                      |
|    \\/     M anipulation  |                                                 |
\*---------------------------------------------------------------------------*/
FoamFile
{
    version     2.0;
    format      ascii;
    arch        "LSB;label=32;scalar=64";
    class       surfaceScalarField;
    location    "20000/water";
    object      phi;
}
// * * * * * * * * * * * * * * * * * * * * * * * * * * * * * * * * * * * * * //

dimensions      [1 0 -1 0 0 0 0];

oriented        oriented;

internalField   nonuniform List<scalar> 
1890
(
-4.1736246e-05
0.0022168351
-0.00015753622
0.0059586937
-0.00032930669
0.0087985477
-0.00054203243
0.010900937
-0.00078239504
0.012402155
-0.0010351826
0.013412336
-0.0012746193
0.014013996
-0.0014359745
0.014245356
-0.001284859
0.0140006
0.012745539
-3.1455821e-05
0.002248291
-0.00011269722
0.0060399351
-0.00023219388
0.0089180443
-0.00037999426
0.011048737
-0.00054594262
0.012568103
-0.00071649912
0.013582893
-0.00086674528
0.014164243
-0.00093361975
0.01431223
-0.00073394525
0.013800926
0.012011594
-2.9138822e-05
0.0022774298
-0.00010672995
0.0061175262
-0.00022105541
0.0090323698
-0.00036160329
0.011189285
-0.00051700147
0.012723501
-0.00067116247
0.013737054
-0.00079396214
0.014287042
-0.00081139844
0.014329667
-0.00056729994
0.013556827
0.011444294
-2.7339926e-05
0.0023047697
-0.00010102593
0.0061912122
-0.00020924229
0.0091405862
-0.00034097883
0.011321022
-0.00048374648
0.012866269
-0.00061911461
0.013872422
-0.00071088155
0.014378809
-0.00067659925
0.014295384
-0.00042026151
0.01330049
0.011024032
-2.5625218e-05
0.0023303949
-9.4386087e-05
0.0062599731
-0.00019506678
0.0092412669
-0.00031669838
0.011442653
-0.00044589455
0.012995465
-0.00056132307
0.013987851
-0.00061882605
0.014436312
-0.00053651102
0.014213069
-0.00029565401
0.013059633
0.010728378
-2.4159493e-05
0.0023545544
-8.8799494e-05
0.0063246131
-0.00018306047
0.0093355278
-0.00029574168
0.011555335
-0.00041210878
0.013111832
-0.00050662287
0.014082365
-0.00052703591
0.014456725
-0.00040878374
0.014094817
-0.00020043224
0.012851281
0.010527946
-2.2965496e-05
0.0023775199
-8.4333524e-05
0.0063859811
-0.00017335355
0.0094245478
-0.00027826891
0.01166025
-0.00038232751
0.013215891
-0.00045437982
0.014154417
-0.00043820687
0.014440552
-0.00030321817
0.013959828
-0.00013378955
0.012681852
0.010394156
-2.2023843e-05
0.0023995437
-8.0769805e-05
0.0064447271
-0.00016540584
0.0095091838
-0.00026327227
0.011758116
-0.00035472767
0.013307346
-0.00040244526
0.014202135
-0.00035546135
0.014393568
-0.00022237181
0.013826739
-8.9857069e-05
0.012549338
0.010304299
-2.1260551e-05
0.0024208043
-7.781255e-05
0.006501279
-0.00015855227
0.0095899235
-0.00024948541
0.011849049
-0.0003271229
0.013384984
-0.00034954693
0.014224559
-0.00028213001
0.014326151
-0.0001630027
0.013707612
-6.1426236e-05
0.012447761
0.010242873
-2.0607132e-05
0.0024414114
-7.5216593e-05
0.0065558885
-0.00015223226
0.0096669392
-0.00023577765
0.011932595
-0.0002978463
0.013447052
-0.00029644742
0.01422316
-0.00022023775
0.014249942
-0.00011980351
0.013607177
-4.2688146e-05
0.012370646
0.010200185
-2.0018274e-05
0.0024614297
-7.2804658e-05
0.0066086749
-0.00014600124
0.0097401358
-0.00022120559
0.012007799
-0.00026613477
0.013491982
-0.00024531864
0.014202344
-0.00016974659
0.01417437
-8.7950102e-05
0.013525381
-2.980503e-05
0.012312501
0.01017038
-1.946354e-05
0.0024808932
-7.0441398e-05
0.0066596528
-0.00013947744
0.0098091719
-0.00020502178
0.012073344
-0.00023228063
0.01351924
-0.00019838442
0.014168447
-0.00012919707
0.014105182
-6.3918424e-05
0.013460102
-2.0485929e-05
0.012269068
0.010149894
-1.8918752e-05
0.002499812
-6.8008112e-05
0.0067087421
-0.00013229867
0.0098734624
-0.0001867556
0.012127801
-0.00019748165
0.013529966
-0.00015698029
0.014127946
-9.6700791e-05
0.014044903
-4.5355469e-05
0.013408757
-1.3427035e-05
0.01223714
0.010136467
-1.8360403e-05
0.0025181724
-6.5381824e-05
0.0067557636
-0.00012410693
0.0099321875
-0.00016633459
0.012170028
-0.0001633332
0.013526965
-0.00012140728
0.01408602
-7.0530955e-05
0.013994026
-3.072045e-05
0.013368946
-7.8898784e-06
0.012214309
0.010128577
-1.7761438e-05
0.0025359338
-6.241968e-05
0.0068004218
-0.00011457699
0.0099843448
-0.00014416284
0.012199614
-0.00013124056
0.013514043
-9.127401e-05
0.014046054
-4.9297002e-05
0.013952049
-1.8986955e-05
0.013338636
-3.4329806e-06
0.012198755
0.010125144
-1.7087923e-05
0.0025530218
-5.8952525e-05
0.0068422864
-0.00010349045
0.010028883
-0.00012105305
0.012217177
-0.00010208394
0.013495074
-6.5900086e-05
0.01400987
-3.193314e-05
0.013918082
-9.4518323e-06
0.013316155
2.8624512e-07
0.012189017
0.01012543
-1.6296456e-05
0.0025693182
-5.4793209e-05
0.0068807832
-9.0832261e-05
0.010064922
-9.7998915e-05
0.012224343
-7.6210168e-05
0.013473285
-4.4572301e-05
0.013978232
-1.7627538e-05
0.013891138
-1.557623e-06
0.013300085
3.3714968e-06
0.012184088
0.010128802
-1.5331743e-05
0.00258465
-4.9761868e-05
0.0069152133
-7.6852434e-05
0.010092012
-7.5898228e-05
0.012223389
-5.358842e-05
0.013450975
-2.663398e-05
0.013951277
-5.7248674e-06
0.013870229
4.9984017e-06
0.013289362
5.8497966e-06
0.012183237
0.010134652
-1.4126711e-05
0.0025987767
-4.3732559e-05
0.0069448192
-6.2043864e-05
0.010110324
-5.5378871e-05
0.012216724
-3.3984917e-05
0.013429581
-1.151063e-05
0.013928803
4.2389339e-06
0.013854479
1.0369461e-05
0.013283231
7.86786e-06
0.012185739
0.01014252
-1.2609126e-05
0.0026113858
-3.669459e-05
0.0069689046
-4.7031002e-05
0.01012066
-3.6774677e-05
0.012206468
-1.7079682e-05
0.013409886
1.3293047e-06
0.013910394
1.2528047e-05
0.01384328
1.4774832e-05
0.013280985
9.5163086e-06
0.012190997
0.010152036
-1.0718607e-05
0.0026221044
-2.8800755e-05
0.0069869868
-3.2420064e-05
0.010124279
-2.0181306e-05
0.012194229
-2.481099e-06
0.013392186
1.217144e-05
0.013895742
1.9376051e-05
0.013836076
1.8388936e-05
0.013281972
1.0861037e-05
0.012198525
0.010162897
-8.4362826e-06
0.0026305407
-2.0369318e-05
0.0069989198
-1.8684821e-05
0.010122595
-5.5182478e-06
0.012181062
1.0030323e-05
0.013376637
2.1195816e-05
0.013884576
2.5022079e-05
0.013832249
2.1343306e-05
0.01328565
1.1950044e-05
0.012207918
0.010174847
-5.8189762e-06
0.0026363597
-1.1825548e-05
0.0070049263
-6.1109366e-06
0.01011688
7.2761982e-06
0.012167675
2.056974e-05
0.013363344
2.8683256e-05
0.013876463
2.9652741e-05
0.01383128
2.3736539e-05
0.013291567
1.2818118e-05
0.012218836
0.010187665
-3.0143388e-06
0.002639374
-3.5963976e-06
0.0070055084
5.1020061e-06
0.010108182
1.8189934e-05
0.012154587
2.9353318e-05
0.01335218
3.4838711e-05
0.013870977
3.3405621e-05
0.013832713
2.5639814e-05
0.013299332
1.3489433e-05
0.012230987
0.010201155
-2.3432509e-07
0.0026396083
3.9063774e-06
0.0070013677
1.4739163e-05
0.010097349
2.728385e-05
0.012142043
3.6558354e-05
0.013342906
3.9810902e-05
0.013867725
3.6376267e-05
0.013836147
2.7100126e-05
0.013308609
1.3978632e-05
0.012244108
0.010215133
2.2768093e-06
0.0026373315
1.0308041e-05
0.0069933364
2.2680649e-05
0.010084976
3.4654619e-05
0.012130069
4.2307469e-05
0.013335253
4.3695901e-05
0.013866336
3.8621103e-05
0.013841222
2.8141152e-05
0.013319088
1.429059e-05
0.012257959
0.010229424
4.3216154e-06
0.0026330099
1.5394689e-05
0.0069822634
2.8919902e-05
0.010071451
4.037261e-05
0.012118616
4.6676812e-05
0.013328949
4.6545278e-05
0.013866468
4.0163128e-05
0.013847604
2.8766216e-05
0.013330485
1.442144e-05
0.012272304
0.010243845
5.8172116e-06
0.0026271927
1.9123549e-05
0.006968957
3.3492858e-05
0.010057082
4.4499229e-05
0.01210761
4.9715169e-05
0.013323733
4.8382357e-05
0.0138678
4.1003712e-05
0.013854983
2.8965663e-05
0.013342523
1.4362189e-05
0.012286907
0.010258207
6.7756817e-06
0.002620417
2.1562307e-05
0.0069541704
3.6486831e-05
0.010042157
4.7108079e-05
0.012096988
5.1466721e-05
0.013319374
4.9221836e-05
0.013870045
4.1137321e-05
0.013863068
2.8726273e-05
0.013354934
1.4102855e-05
0.01230153
0.01027231
7.269277e-06
0.0026131477
2.2857474e-05
0.0069385822
3.8041847e-05
0.010026973
4.8301814e-05
0.012086728
5.199202e-05
0.013315684
4.9089385e-05
0.013872948
4.0567234e-05
0.01387159
2.804204e-05
0.01336746
1.3638062e-05
0.012315934
0.010285948
7.3946199e-06
0.0026057531
2.3199077e-05
0.0069227777
3.8341651e-05
0.01001183
4.8219563e-05
0.01207685
5.1381923e-05
0.013312522
4.8036559e-05
0.013876293
3.9318431e-05
0.013880308
2.6923291e-05
0.013379855
1.2971354e-05
0.012329886
0.01029892
7.2477364e-06
0.0025985054
2.2789334e-05
0.0069072361
3.7597275e-05
0.0099970225
4.7034049e-05
0.012067414
4.9762222e-05
0.013309794
4.6148356e-05
0.013879907
3.7445189e-05
0.013889011
2.5402532e-05
0.013391897
1.2118358e-05
0.012343171
0.010311038
6.9115663e-06
0.0025915938
2.1820007e-05
0.0068923277
3.6028154e-05
0.0099828143
4.4940793e-05
0.012058501
4.7288975e-05
0.013307445
4.3542047e-05
0.013883654
3.5031391e-05
0.013897522
2.3534917e-05
0.013403394
1.1106821e-05
0.012355599
0.010322145
6.4522994e-06
0.0025851415
2.0459438e-05
0.0068783206
3.3845568e-05
0.0099694282
4.214386e-05
0.012050203
4.4137754e-05
0.013305451
4.0359294e-05
0.013887433
3.2184758e-05
0.013905696
2.1394161e-05
0.013414185
9.9743724e-06
0.012367018
0.010332119
5.9202714e-06
0.0025792212
1.8847429e-05
0.0068653934
3.1240821e-05
0.0099570348
3.8842003e-05
0.012042602
4.049041e-05
0.013303803
3.6754478e-05
0.013891168
2.9027112e-05
0.013913424
1.9065239e-05
0.013424146
8.7644078e-06
0.012377319
0.010340884
5.352584e-06
0.0025738686
1.7095307e-05
0.0068536507
2.8378657e-05
0.0099457515
3.5217817e-05
0.012035762
3.652275e-05
0.013302498
3.288258e-05
0.013894809
2.5683674e-05
0.013920623
1.6636241e-05
0.013433194
7.5217438e-06
0.012386434
0.010348405
4.7759169e-06
0.0025690927
1.5288688e-05
0.0068431379
2.539493e-05
0.0099356452
3.1430673e-05
0.012029727
3.2394797e-05
0.013301534
2.8888679e-05
0.013898315
2.227331e-05
0.013927238
1.4190743e-05
0.013441276
6.2882663e-06
0.012394336
0.010354694
4.2090471e-06
0.0025648837
1.3491439e-05
0.0068338555
2.2397509e-05
0.0099267392
2.7613567e-05
0.012024511
2.8244837e-05
0.013300903
2.4900733e-05
0.013901659
1.890155e-05
0.013933237
1.1802432e-05
0.013448376
5.100292e-06
0.012401039
0.010359794
3.6648231e-06
0.0025612189
1.1749685e-05
0.0068257707
1.946885e-05
0.00991902
2.387273e-05
0.012020107
2.4186494e-05
0.013300589
2.102529e-05
0.01390482
1.5656152e-05
0.013938606
9.531631e-06
0.0134545
3.9866461e-06
0.012406584
0.010363781
3.1517142e-06
0.0025580672
1.0095508e-05
0.0068188269
1.6669531e-05
0.009912446
2.028935e-05
0.012016487
2.0308592e-05
0.01330057
1.734615e-05
0.013907783
1.2605444e-05
0.013943347
7.4240379e-06
0.013459682
2.9682189e-06
0.012411039
0.010366749
2.674971e-06
0.0025553922
8.5500962e-06
0.0068129518
1.404192e-05
0.0099069542
1.6922368e-05
0.012013607
1.6676721e-05
0.013300815
1.3925041e-05
0.013910534
9.7986254e-06
0.013947473
5.5110726e-06
0.013463969
2.0583602e-06
0.012414492
0.010368807
2.2374742e-06
0.0025531547
7.1262821e-06
0.006808063
1.1613609e-05
0.0099024669
1.3811691e-05
0.012011408
1.3335748e-05
0.013301291
1.0803499e-05
0.013913067
7.267257e-06
0.01395101
3.8110992e-06
0.013467425
1.2635663e-06
0.01241704
0.010370071
1.8404164e-06
0.0025513143
5.8306851e-06
0.0068040727
9.4006587e-06
0.0098988969
1.098175e-05
0.012009827
1.0313266e-05
0.01330196
8.0060848e-06
0.013915374
5.0282629e-06
0.013953988
2.3320517e-06
0.013470122
5.853978e-07
0.012418786
0.010370656
1.4837389e-06
0.0025498306
4.6652248e-06
0.0068008912
7.4100449e-06
0.0098961521
8.4443214e-06
0.012008793
7.6223147e-06
0.013302782
5.5428464e-06
0.013917453
3.0860991e-06
0.013956444
1.0740431e-06
0.013472134
3.1731992e-08
0.012419829
0.010370688
1.1664608e-06
0.0025486641
3.6281911e-06
0.0067984295
5.6414231e-06
0.0098941389
6.2005829e-06
0.012008234
5.2634777e-06
0.013303719
3.4115328e-06
0.013919305
1.4362107e-06
0.01395842
3.8853484e-08
0.013473531
-4.1202795e-07
0.012420279
0.010370276
8.8694727e-07
0.0025477771
2.7152688e-06
0.0067966012
4.089063e-06
0.0098927651
4.2438745e-06
0.012008079
3.2284845e-06
0.013304734
1.6026458e-06
0.013920931
7.3495361e-08
0.013959949
-7.9682335e-07
0.013474401
-7.7083826e-07
0.012420254
0.010369505
6.4317341e-07
0.002547134
1.9205205e-06
0.0067953238
2.7438236e-06
0.0098919418
2.5627696e-06
0.01200826
1.5046145e-06
0.013305793
1.0597892e-07
0.01392233
-1.0302867e-06
0.013961085
-1.4657858e-06
0.013474837
-1.0492248e-06
0.012419837
0.010368456
4.3287262e-07
0.0025467011
1.2369586e-06
0.0067945197
1.5943869e-06
0.0098915843
1.1432788e-06
0.012008711
7.8216405e-08
0.013306858
-1.1089709e-06
0.013923517
-1.9123965e-06
0.013961888
-1.9816496e-06
0.013474906
-1.253646e-06
0.012419109
0.010367202
2.5369144e-07
0.0025464474
6.5722732e-07
0.0067941162
6.2917436e-07
0.0098916124
-2.9085538e-08
0.01200937
-1.0807239e-06
0.013307909
-2.0803491e-06
0.013924516
-2.5935364e-06
0.013962402
-2.3600201e-06
0.013474672
-1.3925291e-06
0.012418141
0.01036581
1.0335729e-07
0.0025463441
1.7422729e-07
0.0067940453
-1.6545729e-07
0.0098919521
-9.8117794e-07
0.012010185
-2.0077694e-06
0.013308936
-2.8323086e-06
0.013925341
-3.0952811e-06
0.013962665
-2.6177278e-06
0.013474195
-1.4750128e-06
0.012416999
0.010364335
-2.0610419e-08
0.0025463647
-2.2130966e-07
0.006794246
-8.0951334e-07
0.0098925403
-1.7421004e-06
0.012011118
-2.7263196e-06
0.01330992
-3.388688e-06
0.013926003
-3.4396613e-06
0.013962716
-2.7715957e-06
0.013473527
-1.5099873e-06
0.012415737
0.010362825
-1.2122697e-07
0.0025464859
-5.4019928e-07
0.006794665
-1.321721e-06
0.0098933218
-2.3309186e-06
0.012012127
-3.2591815e-06
0.013310848
-3.7733942e-06
0.013926518
-3.6483194e-06
0.01396259
-2.8377708e-06
0.013472716
-1.505819e-06
0.012414405
0.010361319
-2.0126419e-07
0.0025466872
-7.9112668e-07
0.0067952549
-1.7156494e-06
0.0098942463
-2.7667058e-06
0.012013178
-3.6288924e-06
0.01331171
-4.0095939e-06
0.013926898
-3.7417972e-06
0.013962323
-2.8312015e-06
0.013471806
-1.470024e-06
0.012413044
0.010359849
-2.6296887e-07
0.0025469501
-9.8146493e-07
0.0067959734
-2.0047047e-06
0.0098952695
-3.0681311e-06
0.012014241
-3.857274e-06
0.0133125
-4.1193701e-06
0.01392716
-3.7393175e-06
0.013961943
-2.7655954e-06
0.013470832
-1.4093411e-06
0.012411688
0.010358439
-3.0847077e-07
0.0025472586
-1.1183685e-06
0.0067967833
-2.2019215e-06
0.0098963531
-3.25322e-06
0.012015293
-3.9651818e-06
0.013313212
-4.1235422e-06
0.013927319
-3.6587139e-06
0.013961478
-2.6534576e-06
0.013469827
-1.3298273e-06
0.012410364
0.01035711
-3.3979426e-07
0.0025475984
-1.2087029e-06
0.0067976522
-2.3197943e-06
0.0098974642
-3.3391459e-06
0.012016312
-3.9722822e-06
0.013313845
-4.0414758e-06
0.013927388
-3.5163296e-06
0.013960953
-2.5060702e-06
0.013468816
-1.236862e-06
0.012409095
0.010355873
-3.5885436e-07
0.0025479572
-1.258984e-06
0.0067985523
-2.3701524e-06
0.0098985754
-3.3420348e-06
0.012017284
-3.8968216e-06
0.0133144
-3.89088e-06
0.013927382
-3.3268607e-06
0.013960389
-2.3334111e-06
0.013467823
-1.135129e-06
0.012407897
0.010354738
-3.6744864e-07
0.0025483247
-1.2753196e-06
0.0067994602
-2.3640239e-06
0.0098996641
-3.2767762e-06
0.012018197
-3.7554182e-06
0.013314878
-3.6876075e-06
0.013927314
-3.1032159e-06
0.013959804
-2.1440587e-06
0.013466864
-1.0285855e-06
0.012406781
0.010353709
-3.6724173e-07
0.0025486919
-1.2633572e-06
0.0068003563
-2.3115322e-06
0.0099007122
-3.1568736e-06
0.012019042
-3.5628941e-06
0.013315284
-3.4455127e-06
0.013927197
-2.8563945e-06
0.013959215
-1.9451165e-06
0.013465953
-9.2038042e-07
0.012405756
0.010352789
-3.597688e-07
0.0025490517
-1.2282719e-06
0.0068012248
-2.2218657e-06
0.0099017058
-2.9944169e-06
0.012019815
-3.3322916e-06
0.013315622
-3.1765284e-06
0.013927041
-2.5956375e-06
0.013958634
-1.7423684e-06
0.013465099
-8.1300608e-07
0.012404827
0.010351976
-3.4642987e-07
0.0025493981
-1.1747607e-06
0.0068020531
-2.103284e-06
0.0099026344
-2.8001284e-06
0.012020512
-3.0749768e-06
0.013315897
-2.8908343e-06
0.013926857
-2.3286247e-06
0.013958072
-1.5404715e-06
0.013464311
-7.0837065e-07
0.012403995
0.010351267
-3.2849707e-07
0.0025497266
-1.1070601e-06
0.0068028317
-1.9631652e-06
0.0099034905
-2.5834571e-06
0.012021132
-2.8008094e-06
0.013316114
-2.597104e-06
0.013926653
-2.0617731e-06
0.013957537
-1.3432386e-06
0.013463593
-6.0800191e-07
0.01240326
0.010350659
-3.0711538e-07
0.0025500337
-1.0289645e-06
0.0068035535
-1.8080516e-06
0.0099042696
-2.3526816e-06
0.012021676
-2.5182996e-06
0.01331628
-2.3027026e-06
0.013926438
-1.8004387e-06
0.013957034
-1.1537961e-06
0.013462946
-5.131401e-07
0.012402619
0.010350146
-2.8330719e-07
0.0025503171
-9.438393e-07
0.0068042141
-1.6436909e-06
0.0099049694
-2.1149768e-06
0.012022148
-2.2347141e-06
0.0133164
-2.0138166e-06
0.013926217
-1.5490449e-06
0.01395657
-9.7468656e-07
0.013462372
-4.2477627e-07
0.012402069
0.010349721
-2.57968e-07
0.002550575
-8.5461966e-07
0.0068048107
-1.4750379e-06
0.0099055898
-1.876429e-06
0.012022549
-1.956085e-06
0.013316479
-1.7354452e-06
0.013925996
-1.3110468e-06
0.013956145
-8.078093e-07
0.013461868
-3.4360469e-07
0.012401605
0.010349378
-2.3187398e-07
0.0025508069
-7.6382416e-07
0.0068053427
-1.3062798e-06
0.0099061323
-1.6420765e-06
0.012022885
-1.6872716e-06
0.013316524
-1.4714682e-06
0.01392578
-1.0889816e-06
0.013955763
-6.5444599e-07
0.013461434
-2.7005114e-07
0.012401221
0.010349108
-2.0567728e-07
0.0025510126
-6.7355445e-07
0.0068058105
-1.1408475e-06
0.0099065996
-1.4159323e-06
0.01202316
-1.43199e-06
0.013316541
-1.2246717e-06
0.013925573
-8.8449004e-07
0.013955423
-5.1525595e-07
0.013461065
-2.0419814e-07
0.012400909
0.010348903
-1.799233e-07
0.0025511925
-5.8553866e-07
0.0068062162
-9.8150067e-07
0.0099069955
-1.2011179e-06
0.01202338
-1.1929879e-06
0.013316532
-9.9695294e-07
0.013925377
-6.9851379e-07
0.013955124
-3.9045931e-07
0.013460757
-1.4597876e-07
0.012400665
0.010348757
-1.5504974e-07
0.0025513475
-5.0114838e-07
0.0068065622
-8.3036863e-07
0.0099073247
-9.9994116e-07
0.012023549
-9.7215629e-07
0.013316505
-7.8944527e-07
0.013925194
-5.3141309e-07
0.013954866
-2.7991682e-07
0.013460505
-9.5126649e-08
0.01240048
0.010348662
-1.3140462e-07
0.0025514789
-4.2144944e-07
0.0068068523
-6.8905266e-07
0.0099075923
-8.1404225e-07
0.012023674
-7.7070964e-07
0.013316461
-6.0270904e-07
0.013925026
-3.8316594e-07
0.013954647
-1.8328165e-07
0.013460305
-5.1351228e-08
0.012400348
0.010348611
-1.092486e-07
0.0025515882
-3.4722503e-07
0.0068070903
-5.586715e-07
0.0099078038
-6.4446537e-07
0.01202376
-5.8926128e-07
0.013316406
-4.3680501e-07
0.013924874
-2.5338248e-07
0.013954463
-9.9967786e-08
0.013460152
-1.3782326e-08
0.012400262
0.010348597
-8.8771547e-08
0.002551677
-2.7902225e-07
0.0068072805
-4.3995077e-07
0.0099079647
-4.9177578e-07
0.012023812
-4.2796619e-07
0.013316342
-2.9140916e-07
0.013924737
-1.4136402e-07
0.013954313
-2.8881147e-08
0.013460039
1.7933142e-08
0.012400215
0.010348615
-7.0097212e-08
0.0025517471
-2.1717713e-07
0.0068074276
-3.3326154e-07
0.0099080808
-3.5610917e-07
0.012023835
-2.8653515e-07
0.013316273
-1.6577589e-07
0.013924616
-4.5876635e-08
0.013954193
3.0723219e-08
0.013459963
4.3372597e-08
0.012400203
0.010348659
-5.3289519e-08
0.0025518003
-1.6182936e-07
0.0068075361
-2.3864701e-07
0.0099081576
-2.3718595e-07
0.012023833
-1.6421608e-07
0.0133162
-5.8593123e-08
0.013924511
3.4237072e-08
0.0139541
7.8966262e-08
0.013459918
6.2980388e-08
0.012400219
0.010348722
-3.8365199e-08
0.0025518387
-1.1296302e-07
0.0068076107
-1.5588334e-07
0.0099082005
-1.3437562e-07
0.012023812
-5.981316e-08
0.013316125
3.1445892e-08
0.013924419
9.9457618e-08
0.013954032
1.16653e-07
0.013459901
7.7637937e-08
0.012400258
0.010348799
-2.529581e-08
0.002551864
-7.0419977e-08
0.0068076558
-8.4502066e-08
0.0099082146
-4.6685373e-08
0.012023774
2.7907998e-08
0.013316051
1.0499486e-07
0.013924342
1.5073865e-07
0.013953987
1.4510488e-07
0.013459906
8.8090421e-08
0.012400315
0.010348887
-1.4020705e-08
0.002551878
-3.3928939e-08
0.0068076758
-2.3807541e-08
0.0099082045
2.6812491e-08
0.012023723
9.9546556e-08
0.013315978
1.6294673e-07
0.013924279
1.8957176e-07
0.01395396
1.6543716e-07
0.01345993
9.4888095e-08
0.012400385
0.010348982
-4.4370026e-09
0.0025518825
-3.095381e-09
0.0068076744
2.6785679e-08
0.0099081746
8.6640759e-08
0.012023663
1.5596577e-07
0.013315908
2.0686479e-07
0.013924228
2.173377e-07
0.013953949
1.7861926e-07
0.013459969
9.8502017e-08
0.012400465
0.010349081
3.5504341e-09
0.0025518789
2.23453e-08
0.0068076556
6.767737e-08
0.0099081293
1.336114e-07
0.012023597
1.9866386e-07
0.013315843
2.3826158e-07
0.013924188
2.3532089e-07
0.013953952
1.8553197e-07
0.013460019
9.9327855e-08
0.012400551
0.01034918
1.0024296e-08
0.0025518689
4.2661772e-08
0.006807623
9.9585631e-08
0.0099080723
1.690414e-07
0.012023528
2.2917694e-07
0.013315783
2.5866071e-07
0.013924159
2.4480119e-07
0.013953966
1.8703531e-07
0.013460077
9.776306e-08
0.012400641
0.010349278
1.5109768e-08
0.0025518538
5.8352003e-08
0.0068075797
1.2349998e-07
0.0099080072
1.9430944e-07
0.012023457
2.4909551e-07
0.013315728
2.6963381e-07
0.013924138
2.4710578e-07
0.013953989
1.840536e-07
0.01346014
9.4237589e-08
0.01240073
0.010349372
1.896328e-08
0.0025518348
6.9966912e-08
0.0068075287
1.4045048e-07
0.0099079367
2.1085061e-07
0.012023387
2.600804e-07
0.013315679
2.7284042e-07
0.013924126
2.436721e-07
0.013954018
1.7760793e-07
0.013460206
8.9289288e-08
0.012400819
0.010349461
2.1733619e-08
0.0025518131
7.8042771e-08
0.0068074724
1.514362e-07
0.0099078633
2.2004955e-07
0.012023318
2.6371694e-07
0.013315635
2.6985092e-07
0.013924119
2.358465e-07
0.013954052
1.6867297e-07
0.013460273
8.3365226e-08
0.012400904
0.010349545
2.357577e-08
0.0025517895
8.3109193e-08
0.0068074129
1.5742795e-07
0.009907789
2.2322758e-07
0.012023252
2.6151545e-07
0.013315597
2.6215661e-07
0.013924119
2.2492193e-07
0.013954089
1.582003e-07
0.01346034
7.7026456e-08
0.012400985
0.010349622
2.4613593e-08
0.0025517649
8.5611164e-08
0.0068073519
1.5923194e-07
0.0099077154
2.2146546e-07
0.01202319
2.5464991e-07
0.013315564
2.5085949e-07
0.013924123
2.1178591e-07
0.013954128
1.4676751e-07
0.013460405
7.048723e-08
0.012401062
0.010349692
2.4971178e-08
0.0025517399
8.5960562e-08
0.0068072909
1.5756796e-07
0.0099076438
2.1568526e-07
0.012023132
2.4409927e-07
0.013315536
2.3683441e-07
0.01392413
1.9709976e-07
0.013954168
1.3479037e-07
0.013460467
6.3957455e-08
0.012401132
0.010349756
2.4747793e-08
0.0025517152
8.4490151e-08
0.0068072312
1.5300086e-07
0.0099075753
2.0658232e-07
0.012023078
2.3053421e-07
0.013315512
2.2060556e-07
0.01392414
1.8117128e-07
0.013954207
1.2235953e-07
0.013460526
5.7389818e-08
0.012401197
0.010349813
2.4040805e-08
0.0025516911
8.1507063e-08
0.0068071737
1.4603806e-07
0.0099075107
1.9476264e-07
0.01202303
2.1452919e-07
0.013315492
2.0259801e-07
0.013924152
1.6421829e-07
0.013954246
1.095018e-07
0.013460581
5.0729725e-08
0.012401256
0.010349864
2.2946775e-08
0.0025516682
7.7311699e-08
0.0068071193
1.3717385e-07
0.0099074509
1.8082045e-07
0.012022986
1.966597e-07
0.013315476
1.8326367e-07
0.013924165
1.46509e-07
0.013954283
9.6319635e-08
0.013460631
4.3991932e-08
0.012401309
0.010349908
2.1556649e-08
0.0025516466
7.2195713e-08
0.0068070687
1.2690041e-07
0.0099073962
1.6537399e-07
0.012022948
1.7755597e-07
0.013315464
1.6314627e-07
0.01392418
1.2844092e-07
0.013954317
8.3036916e-08
0.013460676
3.7236775e-08
0.012401354
0.010349945
1.9965442e-08
0.0025516267
6.646585e-08
0.0068070222
1.1574882e-07
0.0099073469
1.4911077e-07
0.012022914
1.5796907e-07
0.013315455
1.4296076e-07
0.013924195
1.1061323e-07
0.01395435
7.0096941e-08
0.013460717
3.0716201e-08
0.012401394
0.010349976
1.8257412e-08
0.0025516084
6.0406666e-08
0.00680698
1.0422295e-07
0.0099073031
1.3269877e-07
0.012022886
1.3864108e-07
0.013315449
1.2343869e-07
0.01392421
9.3674967e-08
0.013954379
5.7989387e-08
0.013460752
2.4695677e-08
0.012401427
0.010350001
1.6502063e-08
0.0025515919
5.4261748e-08
0.0068069423
9.2755249e-08
0.0099072646
1.1670915e-07
0.012022862
1.2020276e-07
0.013315446
1.051951e-07
0.013924225
7.8167968e-08
0.013954406
4.7132374e-08
0.013460783
1.9398877e-08
0.012401455
0.01035002
1.4754446e-08
0.0025515772
4.8219769e-08
0.0068069088
8.1673376e-08
0.0099072311
1.0155572e-07
0.012022842
1.0308941e-07
0.013315444
8.8633888e-08
0.013924239
6.4431649e-08
0.013954431
3.7778916e-08
0.01346081
1.4985072e-08
0.012401478
0.010350035
1.3043826e-08
0.0025515641
4.2386362e-08
0.0068068795
7.114488e-08
0.0099072024
8.7418204e-08
0.012022826
8.74357e-08
0.013315444
7.3816028e-08
0.013924253
5.2448266e-08
0.013954452
2.9864542e-08
0.013460833
1.1382072e-08
0.012401496
0.010350047
1.1389159e-08
0.0025515527
3.6815458e-08
0.0068068541
6.1232891e-08
0.009907178
7.4316598e-08
0.012022813
7.317934e-08
0.013315445
6.0585285e-08
0.013924266
4.1997416e-08
0.013954471
2.3157773e-08
0.013460852
8.4366293e-09
0.012401511
0.010350055
9.8008086e-09
0.0025515429
3.1521725e-08
0.0068068324
5.1922923e-08
0.0099071576
6.2163837e-08
0.012022802
6.0136168e-08
0.013315447
4.8662504e-08
0.013924277
3.2738186e-08
0.013954487
1.7336722e-08
0.013460867
5.9571231e-09
0.012401522
0.010350061
8.2737543e-09
0.0025515347
2.6484386e-08
0.0068068141
4.3145512e-08
0.0099071409
5.0816986e-08
0.012022795
4.8067308e-08
0.01331545
3.7723956e-08
0.013924287
2.4299237e-08
0.0139545
1.204217e-08
0.013460879
3.6679375e-09
0.012401531
0.010350065
6.8331561e-09
0.0025515278
2.1732623e-08
0.0068067992
3.4941626e-08
0.0099071277
4.0347079e-08
0.012022789
3.7100936e-08
0.013315453
2.7943921e-08
0.013924297
1.6880295e-08
0.013954511
7.4704539e-09
0.013460889
1.7618414e-09
0.012401536
0.010350066
3.0975575e-09
9.8520941e-09
1.5747961e-08
1.7998645e-08
1.6315985e-08
1.2016075e-08
7.0343636e-09
2.9440928e-09
6.3580429e-10
)
;

boundaryField
{
    water_inlet
    {
        type            calculated;
        value           nonuniform List<scalar> 10(-0.0021750989 -0.0058428937 -0.0086267772 -0.010688211 -0.012161792 -0.013159549 -0.01377456 -0.014084001 -0.014151716 -0.014030398);
    }
    water_outlet
    {
        type            calculated;
        value           nonuniform List<scalar> 10(0.0025515247 0.0068067925 0.0099071218 0.012022787 0.013315455 0.013924301 0.013954516 0.013460893 0.012401539 0.010350067);
    }
    water_wedge1
    {
        type            wedge;
        value           nonuniform List<scalar> 
1000
(
-1.1296206e-13
-1.4267974e-13
-1.1216402e-13
-1.06313e-13
-9.935528e-14
-9.3391998e-14
-8.8694165e-14
-8.4956091e-14
-8.1973768e-14
-7.9486063e-14
-7.7282942e-14
-7.5238899e-14
-7.3263022e-14
-7.127758e-14
-6.9185537e-14
-6.6856781e-14
-6.4133561e-14
-6.0815545e-14
-5.6667634e-14
-5.1412439e-14
-4.4795031e-14
-3.6658693e-14
-2.7080426e-14
-1.6557849e-14
-5.8626558e-15
4.0608723e-15
1.2373307e-14
1.8676685e-14
2.2898563e-14
2.5295426e-14
2.6225447e-14
2.6008014e-14
2.5025265e-14
2.3510386e-14
2.1685079e-14
1.9706623e-14
1.7625367e-14
1.5588014e-14
1.3613315e-14
1.1733458e-14
9.9975307e-15
8.3914027e-15
6.9279923e-15
5.6104642e-15
4.4417114e-15
3.4056696e-15
2.4958805e-15
1.7121229e-15
1.0472207e-15
4.797671e-16
1.2761735e-17
-3.6794803e-16
-6.7845298e-16
-9.1128749e-16
-1.0831855e-15
-1.2107889e-15
-1.2871661e-15
-1.3248797e-15
-1.3327389e-15
-1.3087364e-15
-1.2663848e-15
-1.2038346e-15
-1.1275144e-15
-1.0473805e-15
-9.5643223e-16
-8.6381728e-16
-7.6916534e-16
-6.75101e-16
-5.8209969e-16
-4.9166401e-16
-4.1892019e-16
-3.4461194e-16
-2.730919e-16
-2.1074648e-16
-1.5320972e-16
-1.0374112e-16
-5.8060809e-17
-2.4552283e-17
-1.0256918e-18
2.659889e-17
4.7601413e-17
6.3434656e-17
7.5883954e-17
7.4841506e-17
7.9257753e-17
8.4908362e-17
8.7115395e-17
8.2867243e-17
8.1059895e-17
7.881819e-17
7.0206776e-17
6.0511526e-17
5.3926688e-17
5.3097913e-17
4.2708201e-17
3.8131406e-17
3.2521199e-17
2.536743e-17
2.1868394e-17
9.3432821e-18
-6.8081215e-13
-1.0335451e-12
-8.3929084e-13
-7.9752906e-13
-7.494002e-13
-7.0313723e-13
-6.6536382e-13
-6.3522863e-13
-6.1093641e-13
-5.9052867e-13
-5.7244781e-13
-5.5560408e-13
-5.3912448e-13
-5.2219891e-13
-5.0397531e-13
-4.8343289e-13
-4.5934478e-13
-4.3018904e-13
-3.9436663e-13
-3.5055407e-13
-2.9813752e-13
-2.376524e-13
-1.7103492e-13
-1.0155678e-13
-3.3371452e-14
2.8944225e-14
8.1484039e-14
1.2214798e-13
1.5063569e-13
1.6797634e-13
1.7589725e-13
1.763543e-13
1.7127023e-13
1.6227321e-13
1.5073079e-13
1.3769181e-13
1.2392594e-13
1.100397e-13
9.6440348e-14
8.3440646e-14
7.1228819e-14
5.9907735e-14
4.9553657e-14
4.0194175e-14
3.1827233e-14
2.4418315e-14
1.7934513e-14
1.2316195e-14
7.5083029e-15
3.4658441e-15
1.1421484e-16
-2.6166373e-15
-4.8046806e-15
-6.5055757e-15
-7.7699446e-15
-8.6596359e-15
-9.2170937e-15
-9.4925617e-15
-9.5320217e-15
-9.3799355e-15
-9.0662528e-15
-8.6204325e-15
-8.0813349e-15
-7.4762865e-15
-6.8302558e-15
-6.1604038e-15
-5.4768104e-15
-4.8057337e-15
-4.1577089e-15
-3.5371079e-15
-2.9534603e-15
-2.4122757e-15
-1.9227502e-15
-1.4760378e-15
-1.0773154e-15
-7.3286533e-16
-4.2916654e-16
-1.6790899e-16
4.667822e-17
2.1690887e-16
3.5313679e-16
4.6237999e-16
5.4314612e-16
5.929328e-16
6.2226065e-16
6.3756474e-16
6.3756626e-16
6.1916655e-16
5.9269813e-16
5.6246241e-16
5.2111179e-16
4.7555533e-16
4.3037005e-16
3.8304758e-16
3.3745657e-16
2.9882291e-16
2.5898369e-16
2.1899834e-16
1.8143861e-16
1.0573836e-16
3.1339118e-12
4.8023017e-12
3.9072342e-12
3.7113862e-12
3.4900536e-12
3.268935e-12
3.0860222e-12
2.9387825e-12
2.817615e-12
2.7124731e-12
2.6152659e-12
2.5197146e-12
2.4205063e-12
2.312356e-12
2.1894941e-12
2.0461149e-12
1.8774944e-12
1.6810982e-12
1.4574192e-12
1.210543e-12
9.4808609e-13
6.801671e-13
4.1760569e-13
1.7020943e-13
-5.3285996e-14
-2.455226e-13
-4.0215086e-13
-5.2203253e-13
-6.0636735e-13
-6.5807823e-13
-6.8131083e-13
-6.8088968e-13
-6.6177341e-13
-6.286727e-13
-5.8577384e-13
-5.3662091e-13
-4.8410572e-13
-4.3048943e-13
-3.7749282e-13
-3.2637609e-13