/*--------------------------------*- C++ -*----------------------------------*\
| =========                 |                                                 |
| \\      /  F ield         | OpenFOAM: The Open Source CFD Toolbox           |
|  \\    /   O peration     | Version:  2506                                  |
|   \\  /    A nd           | Website:  www.openfoam.com                      |
|    \\/     M anipulation  |                                                 |
\*---------------------------------------------------------------------------*/
FoamFile
{
    version     2.0;
    format      ascii;
    arch        "LSB;label=32;scalar=64";
    class       volVectorField;
    location    "20000/water";
    object      U;
}
// * * * * * * * * * * * * * * * * * * * * * * * * * * * * * * * * * * * * * //

dimensions      [0 1 -1 0 0 0 0];

internalField   nonuniform List<vector> 
1000
(
(0.25225587 -0.00012859767 2.7570558e-18)
(0.25226258 -0.00027067836 6.0940284e-19)
(0.25227485 -0.0004145054 1.8426321e-18)
(0.25228819 -0.00055572717 8.4543188e-19)
(0.25229018 -0.0006857579 7.7828854e-19)
(0.25223998 -0.00079863173 1.7639525e-19)
(0.25200713 -0.00089615194 -1.3486925e-19)
(0.25115686 -0.0010460356 -3.8226577e-19)
(0.24780473 -0.0012820719 -1.3281396e-19)
(0.23308261 0.0010121611 -3.3133626e-19)
(0.25653043 -7.7330451e-05 2.8378441e-18)
(0.25653977 -0.00018903831 1.2908823e-18)
(0.25655871 -0.00029096538 2.3543929e-18)
(0.25657276 -0.00039024489 1.3955044e-18)
(0.25654377 -0.00048175042 9.5472198e-19)
(0.25636039 -0.00055898447 2.3440206e-19)
(0.25570613 -0.00060536506 -2.3702299e-19)
(0.25355952 -0.00065441379 -5.5986432e-19)
(0.24574266 -0.00084724788 -2.8274111e-19)
(0.21968686 0.00025718796 -3.950105e-19)
(0.26021787 -7.3909983e-05 -1.8555272e-19)
(0.26022468 -0.00018059833 4.4395483e-19)
(0.26023383 -0.00027741912 1.2013175e-18)
(0.26021807 -0.00037159742 9.6879853e-19)
(0.26010153 -0.00045735774 1.0376619e-19)
(0.25968006 -0.00053044603 -5.9246031e-20)
(0.25840621 -0.00057093117 -2.2100646e-19)
(0.25452353 -0.00056554803 -5.1383785e-19)
(0.24186464 -0.00061987747 -4.2536451e-19)
(0.20839343 1.1252184e-05 -4.1115756e-19)
(0.26340527 -6.894595e-05 -6.4815052e-19)
(0.26340956 -0.00017058502 7.2261181e-19)
(0.26340597 -0.00026279219 1.3194913e-18)
(0.2633478 -0.00035138353 6.3173796e-19)
(0.26310913 -0.00042951118 -2.1726112e-19)
(0.26237282 -0.00049394962 -3.2941085e-19)
(0.26030373 -0.00052750941 -2.4278135e-19)
(0.25430846 -0.00049289873 -4.698953e-19)
(0.23723183 -0.00045934235 -4.2594126e-19)
(0.19958844 -4.8876285e-05 -3.9751332e-19)
(0.26641628 -6.4388893e-05 -1.3757972e-18)
(0.26641556 -0.0001594686 1.6407046e-18)
(0.266392 -0.00024539838 1.0471834e-18)
(0.26627267 -0.0003274874 4.4226472e-19)
(0.26586989 -0.00039791711 -1.5497569e-19)
(0.26472853 -0.00045250564 -4.9610568e-20)
(0.26164541 -0.00047360743 -1.1045247e-19)
(0.25321247 -0.00041483615 -4.1047055e-19)
(0.23271017 -0.00033459117 -4.8629399e-19)
(0.19329516 -5.0632361e-05 -3.5031049e-19)
(0.26927574 -6.0867494e-05 1.1245195e-18)
(0.26926716 -0.0001502432 8.7518611e-19)
(0.2692148 -0.00023070432 4.3515477e-19)
(0.26901237 -0.00030702725 1.8817306e-19)
(0.26839647 -0.00037049991 5.6733223e-21)
(0.26673517 -0.00041493234 1.0215947e-19)
(0.26236787 -0.00041871821 -4.2236792e-20)
(0.25136277 -0.00033834966 -2.4071359e-19)
(0.22869804 -0.00023662832 -3.0315618e-19)
(0.18902133 -3.949439e-05 -3.3672558e-19)
(0.27197991 -5.805756e-05 3.3538306e-18)
(0.27196007 -0.00014287138 2.1106972e-18)
(0.27186829 -0.00021894842 -2.0026162e-19)
(0.2715565 -0.00029030372 8.9772068e-20)
(0.27066608 -0.00034729036 2.4880129e-19)
(0.26833152 -0.00038068377 -1.4808665e-19)
(0.26239848 -0.00036437416 -2.4287571e-19)
(0.24902638 -0.00026852667 -2.4289285e-19)
(0.22536101 -0.00016272868 -1.8838201e-19)
(0.18616828 -2.8774888e-05 -3.4405079e-19)
(0.27455816 -5.5861832e-05 3.4857983e-19)
(0.27452281 -0.00013703211 1.612158e-18)
(0.27437848 -0.00020952021 5.1151325e-19)
(0.27392442 -0.00027640523 3.320373e-19)
(0.27267857 -0.00032682146 3.8571811e-19)
(0.26947687 -0.00034738543 1.3195458e-19)
(0.26178467 -0.00031092846 2.7240399e-20)
(0.2465738 -0.00020817047 -1.878757e-19)
(0.22271519 -0.00011050234 -3.2355191e-19)
(0.18425837 -2.083706e-05 -2.4688358e-19)
(0.27704027 -5.4085673e-05 -5.4737041e-23)
(0.27698407 -0.00013225428 4.0215997e-19)
(0.27677058 -0.00020162564 1.3001613e-18)
(0.27613171 -0.00026417285 5.3794512e-19)
(0.27442314 -0.00030720597 2.1848166e-19)
(0.27014173 -0.00031294803 3.1721637e-19)
(0.26068999 -0.00025925813 9.0801691e-20)
(0.24429831 -0.00015836442 -1.1399982e-19)
(0.22067581 -7.5408384e-05 -3.7010185e-21)
(0.18296196 -1.515317e-05 -3.6602754e-20)
(0.2794434 -5.2555686e-05 1.8534287e-18)
(0.27935955 -0.00012814121 1.9258031e-18)
(0.27905543 -0.00019460732 5.0882632e-19)
(0.27817576 -0.00025259211 5.5896382e-19)
(0.27586798 -0.0002867342 -7.6176701e-21)
(0.27032645 -0.00027659154 5.3613662e-20)
(0.259335 -0.00021093941 -1.9081749e-19)
(0.24234213 -0.00011891101 -1.2924737e-19)
(0.21912381 -5.2170959e-05 5.6417643e-21)
(0.18206599 -1.0945227e-05 -1.2981269e-19)
(0.28177654 -5.1166626e-05 2.0372195e-18)
(0.28165619 -0.00012441962 1.2070605e-19)
(0.2812333 -0.00018797282 1.4176165e-20)
(0.28003902 -0.00024077429 8.6099136e-19)
(0.27697399 -0.00026417602 3.381983e-20)
(0.27008762 -0.00023880339 -2.0335363e-19)
(0.25792266 -0.00016762236 -2.8120763e-19)
(0.24073178 -8.8480536e-05 -4.4321951e-20)
(0.21795021 -3.6445142e-05 -1.4555485e-19)
(0.18143938 -7.6991066e-06 -1.4542726e-19)
(0.28404476 -4.9854765e-05 1.4237932e-18)
(0.28387625 -0.00012089418 2.2793938e-19)
(0.28329739 -0.000181329 4.5077599e-20)
(0.28169344 -0.00022787692 5.2509989e-19)
(0.27771473 -0.00023897354 2.1537479e-19)
(0.26953509 -0.00020087515 4.749355e-21)
(0.25659136 -0.00013036479 -1.1323622e-19)
(0.2394378 -6.5171141e-05 -1.5506247e-19)
(0.21706902 -2.5325333e-05 -2.4995207e-19)
(0.18100326 -5.1220493e-06 -1.7636148e-19)
(0.28625048 -4.8572103e-05 2.1784626e-19)
(0.28601827 -0.00011740092 5.7717546e-19)
(0.28523426 -0.00017430186 1.1208203e-20)
(0.28310494 -0.00021314182 4.638786e-19)
(0.27809438 -0.00021129054 4.5496286e-19)
(0.2687994 -0.00016439816 2.7347573e-19)
(0.25541091 -9.9329411e-05 2.536442e-20)
(0.238414 -4.7155756e-05 -2.3069864e-19)
(0.21641539 -1.7078882e-05 -3.0602463e-19)
(0.18070895 -3.0435024e-06 -1.8439322e-19)
(0.28839355 -4.7270991e-05 4.9487923e-19)
(0.28807682 -0.00011377579 6.2670859e-19)
(0.28702341 -0.00016645982 1.1919778e-19)
(0.28424078 -0.00019602603 6.9488667e-19)
(0.27815549 -0.00018188553 5.4248706e-19)
(0.26799599 -0.00013079008 7.5295608e-20)
(0.25440306 -7.3937464e-05 -4.0002604e-19)
(0.23761476 -3.3004075e-05 -3.156756e-19)
(0.21594075 -1.0716072e-05 -3.2062613e-19)
(0.18052451 -1.3527159e-06 -2.7772923e-19)
(0.29047097 -4.5891471e-05 1.6488394e-18)
(0.29004194 -0.00010982913 2.8892691e-18)
(0.28863778 -0.00015729309 6.4876252e-19)
(0.28508024 -0.00017633872 3.4649952e-19)
(0.27797083 -0.00015188767 3.3664689e-19)
(0.26720625 -0.00010094744 1.8975163e-19)
(0.253564 -5.3259573e-05 -1.43197e-19)
(0.23700053 -2.1699387e-05 -1.1300372e-19)
(0.21560862 -5.6601741e-06 -1.8432207e-19)
(0.1804276 3.3726473e-08 -1.1732112e-19)
(0.29247637 -4.4351538e-05 1.3612058e-18)
(0.2918983 -0.00010531339 2.8159958e-19)
(0.2900463 -0.0001462821 8.0764891e-19)
(0.28562471 -0.00015430683 1.0418117e-18)
(0.27762409 -0.0001225401 2.4501131e-19)
(0.26647733 -7.514884e-05 9.2312414e-20)
(0.25287922 -3.6358978e-05 3.8937571e-19)
(0.23653861 -1.2545675e-05 2.133826e-19)
(0.21539111 -1.5287477e-06 1.7773337e-19)
(0.18040204 1.2051275e-06 1.9519727e-19)
(0.294399 -4.2542609e-05 9.647399e-19)
(0.2936244 -9.9894513e-05 8.6180768e-19)
(0.29121909 -0.00013303034 6.4823666e-19)
(0.28590174 -0.00013054558 4.1550879e-19)
(0.27719086 -9.4944447e-05 4.0229698e-19)
(0.26583134 -5.3198729e-05 -1.8291868e-19)
(0.25233096 -2.2453324e-05 1.4523065e-19)
(0.23620235 -5.0210629e-06 1.239665e-20)
(0.21526449 1.8967767e-06 6.9281361e-20)
(0.18043772 2.1931314e-06 -6.8600125e-20)
(0.29622248 -4.0322191e-05 4.8320677e-19)
(0.29519258 -9.3155212e-05 1.0351572e-18)
(0.29213504 -0.00011739288 5.7489611e-19)
(0.2859599 -0.00010594332 7.6887629e-19)
(0.27672823 -6.9856915e-05 4.716155e-19)
(0.26527517 -3.4648819e-05 2.0656287e-19)
(0.2519011 -1.0910206e-05 -1.2530576e-19)
(0.23596806 1.2323683e-06 -1.7334638e-19)
(0.21521691 4.7062548e-06 -1.8324605e-19)
(0.18052213 2.9886494e-06 -1.2678259e-19)
(0.29792334 -3.7501197e-05 9.1396937e-19)
(0.29657068 -8.4660166e-05 1.2888826e-18)
(0.29278918 -9.9551777e-05 4.3539376e-19)
(0.28585703 -8.1495576e-05 7.0814879e-19)
(0.27627358 -4.761843e-05 8.9070569e-20)
(0.26480714 -1.8982651e-05 -2.7051936e-20)
(0.25157193 -1.2524824e-06 -5.1880417e-19)
(0.23582161 6.4219516e-06 -2.6804192e-19)
(0.21523437 6.9901585e-06 -2.0684086e-19)
(0.18064613 3.62082e-06 -2.113321e-19)
(0.29946982 -3.3841554e-05 -3.8121381e-19)
(0.29772603 -7.4079987e-05 2.119484e-18)
(0.29319629 -8.0019299e-05 -3.3393008e-19)
(0.28564804 -5.812524e-05 -1.6403549e-18)
(0.27584861 -2.822431e-05 -4.7056985e-19)
(0.2644212 -5.6892086e-06 -6.0753538e-19)
(0.25132937 6.857306e-06 -3.4777471e-19)
(0.23575038 1.0705799e-05 -1.8756352e-19)
(0.21530526 8.845798e-06 -8.1247342e-20)
(0.18080246 4.1238794e-06 -6.127961e-20)
(0.30082183 -2.9094861e-05 1.9919856e-19)
(0.29863173 -6.1332098e-05 1.2915471e-18)
(0.29338822 -5.956695e-05 -2.6494095e-19)
(0.28537718 -3.652235e-05 -1.1555129e-18)
(0.27546383 -1.1416963e-05 -5.2994099e-19)
(0.26410765 5.6165153e-06 -1.9222251e-19)
(0.2511654 1.362318e-05 -1.0575953e-19)
(0.23574182 1.4219385e-05 4.3662598e-21)
(0.21542013 1.035466e-05 -7.6265345e-21)
(0.18098522 4.5262152e-06 1.2874357e-19)
(0.30193373 -2.3108867e-05 3.0089668e-18)
(0.29927336 -4.6684926e-05 5.631185e-19)
(0.29340602 -3.9092011e-05 2.681633e-19)
(0.28507547 -1.7048226e-05 4.1741177e-19)
(0.27512088 3.0829857e-06 7.4395472e-19)
(0.26386445 1.5139222e-05 2.9330942e-19)
(0.25106783 1.9208622e-05 3.5252837e-20)
(0.23578541 1.7093497e-05 1.0334433e-19)
(0.21557121 1.157986e-05 3.8845891e-20)
(0.18118949 4.8472694e-06 -2.3217777e-20)
(0.3027611 -1.5977227e-05 -9.4802975e-19)
(0.29965286 -3.0773754e-05 -6.7369458e-19)
(0.29329055 -1.9437163e-05 -7.536575e-19)
(0.28476121 1.6662559e-07 -5.717756e-19)
(0.27482457 1.5439505e-05 2.713244e-19)
(0.26368339 2.3070283e-05 7.2679869e-20)
(0.2510265 2.3801167e-05 3.9892834e-19)
(0.23587241 1.9433233e-05 5.9149575e-20)
(0.215752 1.2564093e-05 1.2162262e-19)
(0.18141108 5.0985953e-06 1.311721e-19)
(0.30327134 -8.1283262e-06 -8.4258854e-20)
(0.29978733 -1.4487021e-05 1.6123478e-18)
(0.29307478 -1.3066433e-06 -6.1131896e-19)
(0.28444919 1.5038242e-05 -6.6122813e-19)
(0.27457434 2.5802931e-05 -7.5935246e-19)
(0.26355616 2.9612806e-05 -1.639776e-19)
(0.25103263 2.7544056e-05 -7.5066453e-20)
(0.23599543 2.1310919e-05 -8.7071467e-20)
(0.21595697 1.3335742e-05 -3.5608224e-20)
(0.18164629 5.2872974e-06 6.3898507e-20)
(0.30345398 -2.4286644e-07 -6.5677027e-19)
(0.29970264 1.1318646e-06 6.2469217e-19)
(0.29278638 1.4661043e-05 -2.2049867e-19)
(0.28414893 2.7524569e-05 -1.1495952e-18)
(0.2743656 3.4335808e-05 -8.0512974e-19)
(0.26347497 3.4929287e-05 -8.5369883e-19)
(0.25107851 3.0535756e-05 -4.7229971e-19)
(0.2361481 2.2774064e-05 -8.3558832e-20)
(0.21618129 1.3912621e-05 -1.3064654e-19)
(0.1818918 5.4171976e-06 -1.8788617e-20)
(0.30332517 6.8804926e-06 -2.3199111e-18)
(0.29943296 1.4983862e-05 -1.6528546e-18)
(0.2924469 2.7992765e-05 -1.0445028e-18)
(0.28386232 3.7675521e-05 -2.0758397e-18)
(0.27419303 4.1186189e-05 -1.0892783e-18)
(0.26343257 3.9127185e-05 -1.1649523e-18)
(0.2511573 3.2835534e-05 -4.2052595e-19)
(0.23632475 2.3848772e-05 -1.6984802e-19)
(0.21642057 1.4302569e-05 -7.9511373e-20)
(0.18214445 5.4889068e-06 8.3918488e-20)
(0.30293056 1.2606572e-05 1.8136555e-18)
(0.29901534 2.625202e-05 -1.0305106e-18)
(0.29206925 3.8506878e-05 -4.2954093e-19)
(0.28358877 4.5588738e-05 1.7259334e-19)
(0.27405096 4.6451043e-05 6.2008884e-19)
(0.2634222 4.2266072e-05 2.4385735e-19)
(0.25126271 3.4471485e-05 5.686656e-20)
(0.23652015 2.4543002e-05 2.0860396e-20)
(0.21667064 1.4504372e-05 5.4666373e-20)
(0.18240106 5.5000289e-06 -2.4980069e-20)
(0.3023317 1.6686027e-05 -1.4520632e-18)
(0.29848536 3.4600423e-05 -7.4617851e-19)
(0.29166296 4.6230854e-05 -3.3250586e-19)
(0.28332653 5.1359681e-05 -3.5084863e-19)
(0.27393382 5.0194568e-05 5.0847786e-19)
(0.26343755 4.4377897e-05 5.4718549e-19)
(0.25138894 3.5452113e-05 2.2494208e-19)
(0.23672933 2.4852715e-05 1.039703e-19)
(0.21692737 1.4510904e-05 1.344671e-19)
(0.18265835 5.4463571e-06 5.5426691e-21)
(0.3015933 1.9182139e-05 1.5079481e-18)
(0.29787662 4.0084372e-05 3.1126454e-18)
(0.29123638 5.1327188e-05 -4.5857243e-19)
(0.28307385 5.5103075e-05 -2.0387294e-19)
(0.27383649 5.2478161e-05 -6.4792776e-19)
(0.26347281 4.5487025e-05 4.5428024e-20)
(0.25153052 3.5779125e-05 -3.965954e-19)
(0.23694749 2.4769779e-05 -1.5015424e-19)
(0.21718657 1.4313233e-05 -6.1876562e-20)
(0.18291284 5.323237e-06 2.6174567e-20)
(0.30077411 2.0344207e-05 1.3431647e-18)
(0.29721997 4.3030269e-05 1.3446476e-18)
(0.2907979 5.4063899e-05 -4.445613e-19)
(0.28282963 5.697571e-05 4.4000645e-19)
(0.2737546 5.3383431e-05 -2.2795398e-19)
(0.26352281 4.5628516e-05 -4.5308638e-19)
(0.25168237 3.5461208e-05 -3.3012886e-19)
(0.23716991 2.4291289e-05 -1.4102296e-19)
(0.21744399 1.3905961e-05 -1.2459054e-19)
(0.18316087 5.1275948e-06 -6.8371204e-21)
(0.29992225 2.0484159e-05 -4.1312271e-18)
(0.29654263 4.389972e-05 -2.6404373e-18)
(0.29035626 5.478156e-05 -1.131012e-18)
(0.28259384 5.7182856e-05 -1.7450746e-18)
(0.27368474 5.3025436e-05 -7.0405722e-19)
(0.26358307 4.4861605e-05 -8.6293353e-19)
(0.25183983 3.4525254e-05 -3.3739151e-20)
(0.23739211 2.3427548e-05 -1.4448658e-19)
(0.21769544 1.3291896e-05 -1.1562893e-19)
(0.18339878 4.859662e-06 -1.6005582e-21)
(0.29907425 1.9897037e-05 2.3099244e-18)
(0.29586747 4.3179971e-05 8.1025656e-20)
(0.28992021 5.3855815e-05 1.3181183e-20)
(0.28236749 5.5970192e-05 2.1399143e-19)
(0.27362455 5.1555373e-05 8.1644235e-19)
(0.26364988 4.3275983e-05 4.7664981e-19)
(0.25199879 3.3022805e-05 3.7044199e-19)
(0.23760991 2.220713e-05 9.0362187e-20)
(0.21793688 1.2485327e-05 2.6955583e-20)
(0.18362305 4.5243178e-06 -9.1864435e-20)
(0.29825616 1.8826273e-05 9.8719267e-19)
(0.29521263 4.1316569e-05 -4.9996499e-19)
(0.28949797 5.1661815e-05 -1.0712432e-19)
(0.28215235 5.3606317e-05 9.9570967e-19)
(0.27357254 4.9153586e-05 4.7677283e-19)
(0.26372034 4.0989854e-05 4.8198867e-19)
(0.25215571 3.1030075e-05 5.4381624e-19)
(0.23781959 2.0677383e-05 3.8256861e-19)
(0.21816473 1.1512482e-05 1.939945e-19)
(0.18383056 4.1312612e-06 5.9002243e-20)
(0.29748543 1.7457789e-05 3.0414878e-18)
(0.29459166 3.8683298e-05 3.1756811e-18)
(0.28909668 4.8547056e-05 3.3844278e-19)
(0.28195052 5.0362749e-05 4.4749477e-19)
(0.27352797 4.6016894e-05 -1.0130834e-18)
(0.26379221 3.8141996e-05 -2.1735384e-19)
(0.25230768 2.8642809e-05 -2.3794631e-19)
(0.23801801 1.8901038e-05 3.5705603e-20)
(0.21837594 1.0409524e-05 1.9519292e-20)
(0.18401878 3.6942018e-06 3.4944358e-20)
(0.29677292 1.5927199e-05 1.8664804e-18)
(0.29401396 3.5576459e-05 2.3667701e-18)
(0.28872209 4.4814934e-05 6.3547328e-19)
(0.28176412 4.649641e-05 8.8206706e-20)
(0.27349054 4.2344318e-05 -5.2833583e-20)
(0.26386387 3.4880781e-05 -1.2054302e-19)
(0.2524524 2.5967974e-05 -3.9298944e-19)
(0.23820264 1.695023e-05 -1.7481772e-19)
(0.21856816 9.2187923e-06 -1.1314864e-19)
(0.18418594 3.2293199e-06 -7.6834011e-20)
(0.2961245 1.4330593e-05 -4.9896339e-18)
(0.29348541 3.2221739e-05 -2.0048607e-18)
(0.28837835 4.0718003e-05 -4.288811e-19)
(0.28159491 4.2237263e-05 -1.5869413e-18)
(0.27346018 3.8324514e-05 -3.6996782e-19)
(0.26393413 3.1353134e-05 -5.8356989e-19)
(0.25258814 2.3114738e-05 -1.091641e-19)
(0.23837164 1.4899744e-05 -1.2897915e-19)
(0.21873984 7.9844746e-06 -1.8410936e-20)
(0.18433106 2.7534962e-06 3.6734279e-20)
(0.29554249 1.2734565e-05 3.0692287e-18)
(0.29300907 2.8785739e-05 4.224169e-20)
(0.2880681 3.6458193e-05 1.2700314e-19)
(0.28144416 3.7781489e-05 5.8827094e-19)
(0.27343687 3.4126567e-05 7.910543e-19)
(0.26400216 2.7695371e-05 4.016062e-19)
(0.25271369 2.0186481e-05 2.8591806e-19)
(0.23852381 1.2820873e-05 9.848985e-21)
(0.21889017 6.7486004e-06 1.3761217e-19)
(0.18445395 2.2826582e-06 -2.4576491e-21)
(0.29502664 1.1184301e-05 1.2081543e-18)
(0.29258578 2.5388101e-05 5.7439027e-19)
(0.28779259 3.2191315e-05 7.5887913e-19)
(0.28131254 3.3289484e-05 9.9771741e-19)
(0.27342053 2.9894741e-05 1.1154342e-18)
(0.26406734 2.4027012e-05 1.0014721e-18)
(0.25282826 1.727503e-05 4.2797772e-19)
(0.23865857 1.0776901e-05 2.6361881e-19)
(0.21901903 5.5481268e-06 1.5684929e-19)
(0.18455513 1.8306224e-06 1.192504e-19)
(0.29457493 9.7095703e-06 1.4463633e-18)
(0.29221473 2.2112198e-05 4.4854681e-18)
(0.2875519 2.8033407e-05 1.7518673e-18)
(0.28120014 2.8887137e-05 7.234919e-19)
(0.27341091 2.5746482e-05 -3.9086848e-19)
(0.26412921 2.0447392e-05 4.5767817e-19)
(0.25293145 1.4457143e-05 -1.1925928e-19)
(0.23877583 8.820272e-06 1.0234558e-19)
(0.21912695 4.4131196e-06 -1.5885468e-21)
(0.18463569 1.4083751e-06 9.8235827e-20)
(0.29418419 8.3290986e-06 4.7995453e-18)
(0.29189392 1.9013951e-05 3.6358234e-18)
(0.28734519 2.406759e-05 2.6578504e-18)
(0.28110652 2.4669157e-05 3.0976387e-18)
(0.27340763 2.1772989e-05 1.6475593e-18)
(0.26418745 1.7034756e-05 1.1252175e-18)
(0.25302315 1.179315e-05 4.4163593e-19)
(0.23887599 6.9914488e-06 1.899721e-19)
(0.21921494 3.366046e-06 4.8151874e-20)
(0.18469719 1.023811e-06 -2.287914e-20)
(0.29385044 7.0537426e-06 1.7223971e-18)
(0.29162053 1.6128813e-05 2.5151223e-19)
(0.28717088 2.035055e-05 3.953598e-18)
(0.28103081 2.0703379e-05 3.5275071e-18)
(0.27341012 1.804141e-05 2.7641466e-18)
(0.26424177 1.3847135e-05 1.8704645e-18)
(0.25310353 9.3272491e-06 1.4028072e-18)
(0.23895978 5.3190983e-06 6.7011376e-19)
(0.21928439 2.4220081e-06 5.8850079e-19)
(0.18474147 6.8191152e-07 1.8300255e-19)
(0.29356928 5.8886912e-06 1.7110817e-18)
(0.29139117 1.3477031e-05 1.1055553e-18)
(0.28702689 1.6918121e-05 2.8889452e-18)
(0.28097178 1.7035162e-05 2.6496285e-18)
(0.27341773 1.4597773e-05 2.2084049e-18)
(0.264292 1.0924205e-05 1.5716399e-18)
(0.25317294 7.0887455e-06 1.4420147e-18)
(0.23902821 3.8210114e-06 8.3831924e-19)
(0.21933694 1.5893729e-06 6.6121536e-19)
(0.18477055 3.8500238e-07 3.2257763e-19)
(0.2933361 4.8351996e-06 2.2790694e-18)
(0.29120218 1.1067875e-05 2.2664358e-18)
(0.28691081 1.3790255e-05 3.759064e-18)
(0.28092798 1.3691911e-05 4.343405e-18)
(0.27342969 1.1470635e-05 3.4562342e-18)
(0.26433799 8.2901802e-06 1.8727145e-18)
(0.2532319 5.0944219e-06 1.4590836e-18)
(0.23908248 2.5060543e-06 1.0908757e-18)
(0.2193744 8.7128339e-07 6.7916733e-19)
(0.18478652 1.3350827e-07 5.7308443e-19)
(0.29314622 3.891648e-06 2.6453119e-18)
(0.29104971 8.9025037e-06 3.0161469e-18)
(0.28681999 1.0974665e-05 2.9221992e-18)
(0.28089782 1.0686604e-05 3.1892895e-18)
(0.27344522 8.6740255e-06 3.296232e-18)
(0.26437967 5.9561051e-06 2.4542554e-18)
(0.25328104 3.3501182e-06 1.7163438e-18)
(0.23912393 1.3749878e-06 1.3098025e-18)
(0.21939866 2.7153923e-07 8.9901588e-19)
(0.18479143 -6.9767201e-08 6.2100048e-19)
(0.29299503 3.0543306e-06 8.219492e-19)
(0.29092993 6.975976e-06 2.2764824e-18)
(0.28675173 8.4694179e-06 3.393265e-20)
(0.28087961 8.0203355e-06 7.4925753e-19)
(0.2734635 6.209549e-06 2.2915378e-18)
(0.26441701 3.9215507e-06 2.1174568e-18)
(0.25332108 1.8529454e-06 1.6586541e-18)
(0.23915392 4.2783651e-07 1.240261e-18)
(0.21941124 -2.1453077e-07 8.8533596e-19)
(0.18478766 -2.2874829e-07 5.6169217e-19)
(0.29287809 2.3181008e-06 6.11606e-19)
(0.29083906 5.2790511e-06 2.8833999e-18)
(0.28670331 6.2655563e-06 3.4584155e-18)
(0.28087167 5.6853304e-06 2.3546122e-18)
(0.27348375 4.0695974e-06 1.4247922e-18)
(0.26445004 2.1785966e-06 1.8579929e-18)
(0.25335275 5.9846816e-07 1.4870934e-18)
(0.23917355 -3.4415477e-07 1.2327343e-18)
(0.2194146 -6.0499477e-07 1.0466086e-18)
(0.18477677 -3.5435215e-07 7.517183e-19)
(0.29279115 1.6770176e-06 1.8423516e-18)
(0.29077348 3.7998774e-06 1.4518948e-18)
(0.28667211 4.3496271e-06 2.4706283e-18)
(0.28087237 3.6681688e-06 1.6399156e-18)
(0.27350525 2.2415924e-06 1.3129092e-18)
(0.26447879 7.1820774e-07 1.6948189e-18)
(0.2533766 -4.2760145e-07 1.5354333e-18)
(0.23918483 -9.6392852e-07 1.3341613e-18)
(0.21941033 -9.1354375e-07 1.0842654e-18)
(0.18476021 -4.512645e-07 8.4494351e-19)
(0.29273024 1.1246521e-06 1.7726143e-18)
(0.29072976 2.5248906e-06 1.3126138e-18)
(0.2866556 2.7052173e-06 2.3361237e-18)
(0.28088015 1.9523948e-06 2.9453502e-18)
(0.27352726 7.1215792e-07 2.3642519e-18)
(0.26450319 -4.7859477e-07 1.7750136e-18)
(0.253394 -1.2533523e-06 1.5431946e-18)
(0.23918902 -1.4511198e-06 1.386579e-18)
(0.21939989 -1.1470285e-06 1.2547848e-18)
(0.18473939 -5.2126539e-07 9.7754622e-19)
(0.29269165 6.5440935e-07 -1.9333387e-20)
(0.29070468 1.4399192e-06 2.676854e-18)
(0.2866514 1.315684e-06 2.0873432e-18)
(0.28089349 5.2202122e-07 2.8996238e-18)
(0.27354904 -5.4136943e-07 2.31092e-18)
(0.26452391 -1.4435038e-06 1.5094501e-18)
(0.25340577 -1.903409e-06 1.5260985e-18)
(0.2391873 -1.8190199e-06 1.3017243e-18)
(0.21938462 -1.3126572e-06 1.1622252e-18)
(0.18471555 -5.6697355e-07 9.588084e-19)
(0.29267193 2.6012476e-07 1.2301197e-18)
(0.29069524 5.3183235e-07 1.7226184e-18)
(0.28665724 1.6357037e-07 1.9052652e-19)
(0.28091095 -6.4868684e-07 9.7697011e-19)
(0.27357051 -1.5528361e-06 2.004328e-18)
(0.26454118 -2.2044796e-06 1.4288041e-18)
(0.25341264 -2.3959546e-06 1.503677e-18)
(0.23918074 -2.0807311e-06 1.3385772e-18)
(0.21936572 -1.4190452e-06 1.0679442e-18)
(0.18468978 -5.917717e-07 8.5981042e-19)
(0.29266789 -6.46925e-08 1.2621772e-18)
(0.29069862 -2.1523587e-07 1.9801984e-18)
(0.2866711 -7.7631462e-07 3.3222213e-18)
(0.28093165 -1.5925679e-06 1.3905114e-18)
(0.27359125 -2.3508788e-06 1.2278176e-18)
(0.26455524 -2.7827118e-06 2.1837693e-18)
(0.25341532 -2.7485503e-06 1.7709646e-18)
(0.23917035 -2.2499714e-06 1.5934343e-18)
(0.21934425 -1.4749914e-06 1.4340056e-18)
(0.184663 -5.9906388e-07 1.0411876e-18)
(0.29267667 -3.2806661e-07 1.2742937e-18)
(0.29071242 -8.205077e-07 1.0566309e-18)
(0.28669133 -1.5304146e-06 1.895211e-18)
(0.28095458 -2.3350073e-06 1.5950437e-18)
(0.27361097 -2.9575877e-06 1.3308044e-18)
(0.26456635 -3.1987656e-06 1.7928965e-18)
(0.25341449 -2.9791386e-06 1.7649311e-18)
(0.23915703 -2.3402333e-06 1.6572409e-18)
(0.21932115 -1.4888168e-06 1.4196424e-18)
(0.18463598 -5.9202644e-07 1.1319489e-18)
(0.29269576 -5.373796e-07 3.4359848e-18)
(0.29073448 -1.3003775e-06 1.8742471e-18)
(0.2867164 -2.1187718e-06 1.3775738e-18)
(0.28097887 -2.8973575e-06 1.6914195e-18)
(0.27362942 -3.3947463e-06 1.5799321e-18)
(0.26457478 -3.4732294e-06 1.3927354e-18)
(0.25341078 -3.1050998e-06 1.5223822e-18)
(0.23914158 -2.3641515e-06 1.5981037e-18)
(0.2192972 -1.4680814e-06 1.4718434e-18)
(0.18460935 -5.7348061e-07 1.1872461e-18)
(0.29272294 -6.9854751e-07 2.1156636e-18)
(0.2907629 -1.668537e-06 2.7118812e-18)
(0.28674492 -2.5596776e-06 1.5356118e-18)
(0.28100375 -3.3005736e-06 1.2030569e-18)
(0.27364642 -3.6838779e-06 6.827186e-19)
(0.26458082 -3.6260316e-06 1.3593266e-18)
(0.25340478 -3.1429031e-06 1.638833e-18)
(0.23912471 -2.3334674e-06 1.5328939e-18)
(0.21927306 -1.4196677e-06 1.4829865e-18)
(0.1845836 -5.4596177e-07 1.2499043e-18)
(0.29275621 -8.1720027e-07 4.9706758e-19)
(0.29079597 -1.9380186e-06 1.7819801e-18)
(0.28677571 -2.8708755e-06 3.5916957e-18)
(0.28102862 -3.5650838e-06 2.626567e-18)
(0.27366187 -3.8457568e-06 2.0806373e-18)
(0.26458474 -3.6761436e-06 1.1072954e-18)
(0.25339699 -3.1080065e-06 1.4192643e-18)
(0.23910701 -2.2590455e-06 1.3790123e-18)
(0.21924929 -1.349857e-06 1.245093e-18)
(0.18455913 -5.1177014e-07 1.0954919e-18)
(0.29279385 -8.9867723e-07 1.8576892e-18)
(0.29083221 -2.1212635e-06 2.5225263e-18)
(0.28680773 -3.0694141e-06 5.1472492e-18)
(0.28105294 -3.7104583e-06 3.2521656e-18)
(0.2736757 -3.9001036e-06 2.310281e-18)
(0.26458684 -3.6413584e-06 1.9519813e-18)
(0.25338791 -3.0147134e-06 1.5344987e-18)
(0.23908902 -2.1508101e-06 1.6664291e-18)
(0.2192263 -1.2643306e-06 1.5373883e-18)
(0.18453622 -4.729833e-07 1.1560383e-18)
(0.29283433 -9.4801266e-07 1.2654072e-18)
(0.29087033 -2.2300536e-06 1.9020091e-18)
(0.28684011 -3.1714568e-06 6.6382712e-20)
(0.28107631 -3.7551497e-06 1.9151891e-18)
(0.2736879 -3.8653178e-06 2.2997941e-18)
(0.26458738 -3.538049e-06 2.3108259e-18)
(0.25337793 -2.8759775e-06 1.8915804e-18)
(0.23907115 -2.0176034e-06 1.8344989e-18)
(0.21920445 -1.1680874e-06 1.5583395e-18)
(0.18451506 -4.3141748e-07 1.1963815e-18)
(0.29287634 -9.6992211e-07 8.4301233e-19)
(0.29090924 -2.2754347e-06 1.0364163e-18)
(0.28687213 -3.1921174e-06 1.0811531e-18)
(0.28109841 -3.7162731e-06 1.727786e-18)
(0.27369851 -3.7582475e-06 1.9449502e-18)
(0.26458662 -3.3809586e-06 1.9532072e-18)
(0.25336744 -2.7032348e-06 1.8733674e-18)
(0.23905375 -1.8670631e-06 1.5901112e-18)
(0.21918397 -1.0653554e-06 1.4301638e-18)
(0.18449577 -3.8858465e-07 1.1566571e-18)
(0.29291879 -9.687663e-07 1.550395e-18)
(0.29094802 -2.267631e-06 6.8509061e-19)
(0.28690321 -3.1453191e-06 1.4818423e-18)
(0.28111901 -3.6094397e-06 1.3391284e-18)
(0.27370758 -3.5940317e-06 6.7880296e-19)
(0.2645848 -3.1830745e-06 1.4240451e-18)
(0.25335672 -2.5063119e-06 1.6782845e-18)
(0.2390371 -1.7055528e-06 1.50617e-18)
(0.21916504 -9.595272e-07 1.3842654e-18)
(0.18447841 -3.4564454e-07 1.26211e-18)
(0.29296076 -9.4856819e-07 6.8429889e-19)
(0.29098592 -2.2160464e-06 2.3432404e-18)
(0.28693288 -3.0437766e-06 2.8024634e-18)
(0.28113795 -3.4487424e-06 1.4125941e-18)
(0.2737152 -3.3861206e-06 2.2593223e-18)
(0.26458216 -2.9557035e-06 1.2188807e-18)
(0.25334605 -2.2935509e-06 1.4578881e-18)
(0.2390214 -1.5383044e-06 1.4745149e-18)
(0.21914777 -8.5327609e-07 1.1909721e-18)
(0.18446297 -3.0346643e-07 1.1752348e-18)
(0.2930015 -9.1299753e-07 1.2056564e-18)
(0.29102234 -2.1292496e-06 3.2519311e-18)
(0.2869608 -2.8989921e-06 4.4790118e-18)
(0.28115515 -3.246786e-06 2.5158664e-18)
(0.27372147 -3.1463603e-06 1.9866282e-18)
(0.26457888 -2.7086152e-06 1.910125e-18)
(0.25333564 -2.0719949e-06 1.5380263e-18)
(0.23900681 -1.3696049e-06 1.4568379e-18)
(0.2191322 -7.4869214e-07 1.5339266e-18)
(0.18444944 -2.6268625e-07 1.17059e-18)
(0.2930404 -8.6539506e-07 7.9759411e-19)
(0.29105681 -2.0150136e-06 1.7532438e-18)
(0.2869867 -2.7213188e-06 -6.7692212e-20)
(0.28117055 -3.0147917e-06 1.8925232e-18)
(0.2737265 -2.8851512e-06 1.7650284e-18)
(0.26457516 -2.4502514e-06 2.4530052e-18)
(0.25332565 -1.8476241e-06 1.9762738e-18)
(0.23899343 -1.2030307e-06 1.6072303e-18)
(0.21911837 -6.4748183e-07 1.5551983e-18)
(0.18443773 -2.2380997e-07 1.2832321e-18)
(0.29307701 -8.0877112e-07 2.3397332e-19)
(0.29108897 -1.8803328e-06 1.0667387e-18)
(0.28701042 -2.5200047e-06 9.6205636e-19)
(0.28118417 -2.7626758e-06 1.3262934e-18)
(0.27373041 -2.6115646e-06 1.8390359e-18)
(0.26457114 -2.1878709e-06 2.1977852e-18)
(0.25331621 -1.6255139e-06 2.1273857e-18)
(0.2389813 -1.0415897e-06 1.8948134e-18)
(0.21910623 -5.5107924e-07 1.6542447e-18)
(0.18442777 -1.8727053e-07 1.2998955e-18)
(0.293111 -7.4581034e-07 1.6974599e-18)
(0.29111858 -1.7314329e-06 1.2268252e-18)
(0.28703186 -2.3032145e-06 1.1764181e-18)
(0.28119603 -2.4990888e-06 1.8221291e-18)
(0.27373331 -2.3333971e-06 1.1589322e-18)
(0.26456697 -1.9276117e-06 1.5455736e-18)
(0.25330742 -1.4098857e-06 1.6965675e-18)
(0.23897047 -8.8774804e-07 1.8625897e-18)
(0.21909573 -4.6065557e-07 1.7095051e-18)
(0.18441944 -1.534254e-07 1.3651787e-18)
(0.29314214 -6.7886752e-07 1.5267018e-18)
(0.29114549 -1.573768e-06 2.6167439e-18)
(0.28705098 -2.0780345e-06 3.1606588e-18)
(0.28120621 -2.2314269e-06 2.5667349e-18)
(0.27373533 -2.0571856e-06 3.0757144e-18)
(0.26456275 -1.6744936e-06 1.4922857e-18)
(0.25329934 -1.2040869e-06 1.5679872e-18)
(0.23896091 -7.433925e-07 1.6018134e-18)
(0.2190868 -3.7707862e-07 1.3695014e-18)
(0.18441263 -1.2253327e-07 1.2773433e-18)
(0.2931703 -6.0997605e-07 1.9383999e-18)
(0.29116964 -1.4120339e-06 3.8651545e-18)
(0.28706782 -1.8504923e-06 5.1638502e-18)
(0.28121481 -1.9658656e-06 3.3289101e-18)
(0.27373659 -1.7882466e-06 2.6376856e-18)
(0.26455859 -1.4324551e-06 2.2243915e-18)
(0.25329201 -1.0106098e-06 1.8819335e-18)
(0.2389526 -6.098184e-07 1.6813638e-18)
(0.21907933 -3.0087566e-07 1.6291927e-18)
(0.1844072 -9.4724342e-08 1.2374446e-18)
(0.29319544 -5.4085005e-07 1.9336696e-18)
(0.29119101 -1.2501806e-06 2.0888637e-18)
(0.28708242 -1.6255865e-06 4.8918901e-19)
(0.28122192 -1.7074065e-06 2.702974e-18)
(0.27373719 -1.5307395e-06 2.1426052e-18)
(0.26455455 -1.2044205e-06 2.6700941e-18)
(0.25328545 -8.3115316e-07 2.0939983e-18)
(0.23894549 -4.8777185e-07 1.8224209e-18)
(0.21907322 -2.3224465e-07 1.7357789e-18)
(0.18440301 -6.9998169e-08 1.389967e-18)
(0.29321758 -4.7291738e-07 1.718889e-18)
(0.29120967 -1.0914792e-06 1.7694962e-18)
(0.2870949 -1.4073833e-06 1.1845479e-18)
(0.28122768 -1.4600072e-06 1.4737203e-18)
(0.27373725 -1.2878211e-06 2.1448336e-18)
(0.26455071 -9.9246632e-07 2.1500078e-18)
(0.25327966 -6.6677987e-07 2.021881e-18)
(0.2389395 -3.7758481e-07 1.8538045e-18)
(0.21906834 -1.7115397e-07 1.7143772e-18)
(0.18439992 -4.8270702e-08 1.5042381e-18)
(0.2932368 -4.0733337e-07 8.7128026e-19)
(0.29122572 -9.3856626e-07 2.3715081e-18)
(0.28710537 -1.1990966e-06 1.6312866e-18)
(0.2812322 -1.2266971e-06 7.8925384e-19)
(0.27373686 -1.061788e-06 4.4067326e-19)
(0.2645471 -7.9797415e-07 1.1934319e-18)
(0.25327462 -5.1806567e-07 1.6943948e-18)
(0.23893455 -2.7930314e-07 1.7393471e-18)
(0.21906458 -1.1743243e-07 1.5974422e-18)
(0.18439781 -2.9414906e-08 1.4355147e-18)
(0.29325322 -3.4500836e-07 -5.4583787e-19)
(0.29123929 -7.9350881e-07 1.9407947e-18)
(0.28711398 -1.0031847e-06 2.9156677e-18)
(0.28123561 -1.0096982e-06 1.5275471e-18)
(0.27373611 -8.5420698e-07 1.9486145e-18)
(0.26454377 -6.2175566e-07 1.1913657e-18)
(0.25327029 -3.8520916e-07 1.4730842e-18)
(0.23893057 -1.9277231e-07 1.694541e-18)
(0.21906181 -7.083488e-08 1.4032203e-18)
(0.18439653 -1.3290255e-08 1.239709e-18)