/*--------------------------------*- C++ -*----------------------------------*\
| =========                 |                                                 |
| \\      /  F ield         | OpenFOAM: The Open Source CFD Toolbox           |
|  \\    /   O peration     | Version:  2506                                  |
|   \\  /    A nd           | Website:  www.openfoam.com                      |
|    \\/     M anipulation  |                                                 |
\*---------------------------------------------------------------------------*/
FoamFile
{
    version     2.0;
    format      ascii;
    arch        "LSB;label=32;scalar=64";
    class       volScalarField;
    location    "10000/rock";
    object      T;
}
// * * * * * * * * * * * * * * * * * * * * * * * * * * * * * * * * * * * * * //

dimensions      [0 0 0 1 0 0 0];

internalField   nonuniform List<scalar> 
16000
(
317.73388
306.95244
301.12286
297.48967
295.02102
293.24355
291.90917
290.8752
290.05381
289.388
288.83924
288.38057
287.9926
287.66104
287.37514
287.12669
286.9093
286.71792
286.54854
286.3979
286.26338
286.14279
286.03434
285.93651
285.84804
285.76785
285.69502
285.62876
285.56839
285.51331
285.463
285.41697
285.37481
285.33612
285.3005
285.26759
285.23697
285.20814
285.18044
285.15278
320.41663
309.67406
303.45039
299.45539
296.70047
294.69997
293.19002
292.01567
291.08026
290.3205
289.69333
289.16848
288.72408
288.34399
288.01602
287.73085
287.48119
287.26132
287.06665
286.89348
286.73878
286.60008
286.4753
286.36273
286.26091
286.16861
286.08477
286.00849
285.93899
285.87557
285.81763
285.76464
285.71611
285.67157
285.6306
285.59277
285.55762
285.52462
285.49313
285.46224
321.94931
311.67793
305.3696
301.17671
298.22424
296.05177
294.39746
293.10279
292.06681
291.22244
290.52354
289.93739
289.44022
289.01438
288.6465
288.32629
288.04572
287.79844
287.57937
287.38437
287.2101
287.05377
286.9131
286.78614
286.67127
286.56711
286.47249
286.38638
286.30791
286.2363
286.17089
286.11106
286.05628
286.00603
285.95984
285.91724
285.87776
285.84086
285.80594
285.77233
322.93081
313.18436
306.94751
302.67162
299.59497
297.29693
295.52826
294.1333
293.01053
292.09129
291.32771
290.68548
290.13948
289.67091
289.26545
288.91206
288.60206
288.32857
288.08605
287.87003
287.67684
287.50345
287.34733
287.20637
287.07879
286.96307
286.85791
286.76219
286.67494
286.59532
286.52259
286.45607
286.39517
286.33935
286.28808
286.24088
286.19724
286.15667
286.11862
286.08255
323.62005
314.35124
308.25398
303.96806
300.8228
298.43823
296.58227
295.10593
293.90979
292.92539
292.10429
291.41136
290.82062
290.31248
289.87194
289.48733
289.14947
288.85104
288.58613
288.34995
288.13856
287.94869
287.77764
287.62311
287.48318
287.35621
287.24078
287.13569
287.03988
286.95243
286.87254
286.79949
286.73263
286.67138
286.61518
286.56353
286.51592
286.47186
286.43087
286.39251
324.13859
315.28286
309.34857
305.09581
301.92164
299.48169
297.56164
296.02097
294.76405
293.72385
292.85228
292.11402
291.48268
290.93822
290.46516
290.05139
289.68732
289.3653
289.0791
288.82367
288.59483
288.38914
288.20369
288.03606
287.88417
287.74628
287.62088
287.50667
287.40252
287.30745
287.22059
287.14117
287.0685
287.00197
286.94099
286.88504
286.83361
286.78624
286.74247
286.70192
324.54871
316.04716
310.27808
306.08243
302.90652
300.43506
298.47013
296.88003
295.57373
294.4865
293.57119
292.79284
292.12503
291.54749
291.0445
290.60365
290.21508
289.87085
289.56451
289.29078
289.0453
288.82445
288.62517
288.44491
288.28149
288.13305
287.99799
287.87493
287.76268
287.66019
287.56655
287.48094
287.40263
287.33097
287.26536
287.20526
287.15016
287.0996
287.05317
287.01051
324.88511
316.68889
311.07812
306.95167
303.79199
301.30683
299.31243
297.68555
296.33999
295.21371
294.261
293.44756
292.74725
292.13984
291.60949
291.14366
290.7323
290.36728
290.04197
289.75093
289.48963
289.25432
289.04181
288.84943
288.6749
288.51628
288.37188
288.24026
288.12017
288.01049
287.91027
287.81864
287.73485
287.65822
287.58813
287.52401
287.46538
287.41176
287.36276
287.31804
325.16864
317.23826
311.77546
307.72328
304.59132
302.10541
300.09371
298.44056
297.06451
295.90634
294.92202
294.07819
293.34919
292.71499
292.15982
291.67108
291.23864
290.85425
290.51116
290.20381
289.92753
289.67847
289.45333
289.24936
289.06418
288.89576
288.74237
288.60249
288.47481
288.35817
288.25158
288.15413
288.06503
287.98358
287.90915
287.84116
287.7791
287.72252
287.67104
287.62432
325.41266
317.71624
312.3903
308.4134
305.31619
302.83879
300.81919
299.14839
297.74931
296.56557
295.5549
294.68502
293.93089
293.27286
292.6953
292.18569
291.73385
291.33151
290.97183
290.64916
290.35876
290.09667
289.85953
289.64449
289.44912
289.27132
289.10928
288.96144
288.82644
288.70309
288.59033
288.48724
288.39301
288.3069
288.22827
288.15653
288.09117
288.03173
287.97783
287.92915
325.62618
318.13777
312.93795
309.0351
305.97669
303.51427
301.49395
299.81245
298.39665
297.19282
296.16048
295.26851
294.49259
293.8135
293.21589
292.68735
292.21776
291.79885
291.42376
291.08677
290.7831
290.50871
290.2602
290.03464
289.82954
289.64276
289.47243
289.31695
289.17491
289.04508
288.92637
288.81785
288.71865
288.62804
288.54535
288.46998
288.40142
288.33921
288.28297
288.23236
325.81554
318.51377
313.4302
309.59894
306.58138
304.1384
302.12278
300.43614
299.00884
297.78965
296.73979
295.82929
295.03463
294.33709
293.72163
293.17603
292.69029
292.25616
291.8668
291.51648
291.20038
290.91443
290.65517
290.41963
290.20529
290.00993
289.83168
289.66887
289.52006
289.384
289.25958
289.1458
289.04182
288.94686
288.86025
288.78138
288.70972
288.64482
288.58628
288.53379
325.98536
318.85244
313.87621
310.11351
307.13756
304.71695
302.71008
301.02269
299.58823
298.35771
297.29395
296.36813
295.55751
294.84391
294.21266
293.65178
293.15139
292.70336
292.30085
291.93816
291.61047
291.31368
291.04429
290.79933
290.5762
290.3727
290.18687
290.01706
289.86177
289.71973
289.5898
289.47098
289.36239
289.26323
289.17283
289.09057
289.01592
288.9484
288.88763
288.83328
326.13909
319.16004
314.28319
310.5858
307.65136
305.25501
303.25985
301.57518
300.13711
298.89866
297.82415
296.88584
296.06177
295.33433
294.68921
294.1147
293.60113
293.14043
292.72586
292.35175
292.01327
291.70634
291.42746
291.1736
290.94217
290.73092
290.5379
290.3614
290.19992
290.05215
289.91694
289.79326
289.68022
289.57703
289.48297
289.39744
289.31988
289.24982
289.18688
289.1307
326.27939
319.44145
314.65689
311.02156
308.128
305.757
303.77571
302.09644
300.65765
299.41415
298.3316
297.3833
296.54804
295.80876
295.15155
294.56498
294.03957
293.5674
293.14181
292.75718
292.40872
292.09235
291.80456
291.54234
291.30308
291.0845
290.88464
290.70177
290.53438
290.38113
290.24086
290.11252
289.99522
289.88813
289.79055
289.70185
289.62148
289.54896
289.48389
289.42592
326.40833
319.70053
315.00197
311.42551
308.57186
306.22679
304.26089
302.5891
301.15193
299.90577
298.81753
297.86143
297.017
296.26769
295.60002
295.00283
294.46687
293.98435
293.54873
293.15445
292.79677
292.47163
292.17553
291.90547
291.65883
291.43334
291.227
291.03808
290.86505
290.70657
290.56146
290.42867
290.30726
290.19643
290.09546
290.0037
289.92061
289.8457
289.77855
289.71881
326.52755
319.94038
315.32219
311.80159
308.98672
306.66772
304.71825
303.05555
301.62189
300.37507
299.28313
298.32115
297.46932
296.71163
296.03498
295.42851
294.88319
294.39139
293.94668
293.54358
293.17741
292.84415
292.54033
292.26294
292.00937
291.77735
291.56489
291.37023
291.19185
291.02839
290.87865
290.74158
290.61625
290.50183
290.39759
290.30288
290.21715
290.13991
290.07074
290.00927
326.63838
320.16353
315.6207
312.15312
309.37576
307.08272
305.15037
303.49795
302.0693
300.8235
299.72955
298.76334
297.9057
297.14111
296.45683
295.84231
295.28873
294.78864
294.33572
293.9246
293.55065
293.2099
292.8989
292.61468
292.35463
292.11648
291.89824
291.69815
291.51469
291.34649
291.19234
291.05119
290.9221
290.80422
290.69684
290.59929
290.51101
290.43151
290.36036
290.29719
326.7419
320.37204
315.90007
312.48287
309.74172
307.47434
305.55951
303.91826
302.49584
301.25242
300.1579
299.18891
298.32685
297.55666
296.86598
296.24454
295.68373
295.17627
294.71599
294.29759
293.91653
293.56889
293.25126
292.96068
292.69457
292.45066
292.22698
292.02177
291.8335
291.66079
291.50245
291.3574
291.22471
291.10353
290.99312
290.89283
290.80209
290.72039
290.64731
290.58247
326.839
320.56765
316.16248
312.7932
310.08696
307.84481
305.9477
304.31828
302.90302
301.6631
300.56924
299.59871
298.73346
297.95885
297.26287
296.63552
296.06842
295.55446
295.08759
294.66263
294.2751
293.92114
293.59738
293.30091
293.02915
292.77987
292.55108
292.34104
292.14821
291.97124
291.80891
291.66015
291.52401
291.39966
291.28635
291.18342
291.09029
291.00647
290.9315
290.86503
326.93042
320.75179
316.40977
313.08614
310.41352
308.19607
306.31674
304.69959
303.29224
302.05675
300.96457
299.99357
299.12619
298.3482
297.64792
297.0156
296.44308
295.92341
295.45069
295.01982
294.62642
294.26668
293.9373
293.63537
293.35837
293.10406
292.87048
292.6559
292.45878
292.27776
292.11164
291.95935
291.81994
291.69255
291.57645
291.47098
291.37555
291.28966
291.21286
291.14477
327.01677
320.92569
316.6435
313.3634
310.72317
308.52985
306.66821
305.06365
303.66478
302.43446
301.34482
300.37428
299.50571
298.72526
298.02156
297.38512
296.80797
296.28333
295.80543
295.36928
294.97058
294.60558
294.27104
293.96408
293.68221
293.42322
293.18517
292.96632
292.76515
292.58032
292.41061
292.25496
292.11241
291.98213
291.86336
291.75544
291.65779
291.56989
291.4913
291.42163
327.09859
321.09038
316.86502
313.62648
311.01746
308.84764
307.00354
305.41174
304.02178
302.79726
301.71088
300.74157
299.87263
299.09054
298.38422
297.74442
297.16336
296.63444
296.15199
295.71114
295.30767
294.9379
294.59864
294.28706
294.00069
293.73735
293.49511
293.27227
293.0673
292.87886
292.70576
292.54692
292.40139
292.26834
292.14701
292.03673
291.93693
291.84709
291.76676
291.69554
327.1763
321.24675
317.07547
313.87669
311.29772
309.1508
307.32401
305.74507
304.36434
303.14608
302.06357
301.09617
300.22755
299.44455
298.73632
298.09385
297.50955
296.97695
296.49053
296.04553
295.63779
295.26371
294.92015
294.60433
294.31381
294.04644
293.80031
293.57373
293.36519
293.17336
292.99704
292.83518
292.68682
292.55112
292.42734
292.3148
292.21293
292.1212
292.03917
291.96643
327.25029
321.39558
317.27586
314.11515
311.56516
309.4405
307.63076
306.06468
304.6934
303.4818
302.40365
301.43873
300.57106
299.78777
299.07827
298.43375
297.8468
297.3111
296.82126
296.37259
295.96105
295.5831
295.23564
294.91594
294.62161
294.35051
294.10076
293.87069
293.65881
293.46378
293.28443
293.1197
292.96865
292.83043
292.7043
292.5896
292.48573
292.39217
292.30848
292.23425
327.32089
321.53752
317.46706
314.34286
311.8208
309.71778
307.92479
306.37153
305.00986
303.80523
302.73184
301.76988
300.9037
300.12067
299.41046
298.76445
298.17539
297.63712
297.14434
296.69249
296.27758
295.89616
295.54517
295.22194
294.92411
294.64957
294.39647
294.16315
293.94813
293.75011
293.5679
293.40046
293.24685
293.10623
292.97786
292.86107
292.75527
292.65995
292.57464
292.49894
327.38838
321.67315
317.64984
314.56069
312.06559
309.9836
308.20704
306.6665
305.31454
304.11709
303.04881
302.09023
301.22598
300.4437
299.73328
299.08628
298.49561
297.95524
297.45998
297.00536
296.5875
296.20298
295.84882
295.52238
295.22135
294.94364
294.68744
294.4511
294.23316
294.03232
293.84743
293.67742
293.52139
293.37848
293.24796
293.12917
293.02152
292.92448
292.8376
292.76047
327.453
321.803
317.82487
314.76941
312.30035
310.23879
308.47831
306.95038
305.60816
304.41808
303.35517
302.4003
301.53838
300.75729
300.0471
299.39956
298.80772
298.26567
297.76835
297.31137
296.89092
296.50366
296.14666
295.81733
295.51337
295.23277
294.9737
294.73455
294.51389
294.31042
294.12299
293.95057
293.79224
293.64716
293.51459
293.39388
293.28444
293.18574
293.09732
293.01879
327.51499
321.92749
317.99274
314.96972
312.52581
310.4841
308.73937
307.22389
305.89141
304.70881
303.6515
302.70063
301.84138
301.06184
300.35227
299.70459
299.11198
298.56865
298.06965
297.61068
297.18799
296.79832
296.43878
296.10684
295.80023
295.51697
295.25526
295.01352
294.79032
294.58439
294.39459
294.21989
294.05938
293.91223
293.77771
293.65516
293.54399
293.44369
293.35378
293.27387
327.57452
322.04704
318.15399
315.16221
312.74263
310.72021
308.99087
307.48767
306.1649
304.98987
303.93833
302.9917
302.13541
301.35774
300.64914
300.00167
299.40865
298.8644
298.36407
297.90344
297.47884
297.08706
296.72527
296.39098
296.08198
295.7963
295.53217
295.28803
295.06247
294.85425
294.66222
294.48537
294.3228
294.17369
294.03731
293.91299
293.80016
293.6983
293.60694
293.52567
327.63178
322.162
318.30909
315.34745
312.9514
310.94772
309.23344
307.74233
306.42921
305.26179
304.21614
303.27395
302.42086
301.64535
300.93802
300.29108
299.69797
299.15313
298.65179
298.1898
297.76359
297.36998
297.00622
296.66985
296.35868
296.07079
295.80444
295.55809
295.33036
295.11999
294.92587
294.74701
294.58249
294.43152
294.29335
294.16735
294.05292
293.94955
293.85678
293.77419
327.68692
322.27269
318.45845
315.52591
313.15265
311.16719
309.46761
307.9884
306.68485
305.52507
304.48541
303.54782
302.69814
301.92503
301.21924
300.5731
299.9802
299.43506
298.93299
298.46994
298.04238
297.64721
297.28172
296.94349
296.63039
296.3405
296.07213
295.82375
295.59399
295.38163
295.18556
295.0048
294.83845
294.6857
294.54584
294.41822
294.30225
294.19743
294.10327
294.01938
327.74007
322.37939
318.60246
315.69804
313.34686
311.37911
309.69391
308.22638
306.93231
305.78016
304.74656
303.8137
302.9676
302.19709
301.49307
300.848
300.25556
299.71037
299.20784
298.74399
298.31534
297.91886
297.55187
297.21201
296.89717
296.60548
296.33527
296.08502
295.8534
295.63918
295.4413
295.25875
295.09066
294.93624
294.79476
294.66559
294.54814
294.44191
294.34641
294.26125
327.79138
322.48236
318.74147
315.86425
313.53447
311.58395
309.91278
308.45672
307.17202
306.02748
304.99999
304.07195
303.22958
302.46185
301.75981
301.11602
300.52428
299.97929
299.47653
299.01211
298.5826
298.18502
297.81676
297.47547
297.1591
296.86579
296.5939
296.34194
296.1086
295.89267
295.69309
295.50887
295.33915
295.18313
295.04012
294.90946
294.79059
294.68298
294.58618
294.49978
327.84094
322.58183
318.87578
316.02488
313.71587
311.78212
310.12465
308.67985
307.4044
306.26742
305.24607
304.32293
303.4844
302.71961
302.01972
301.37741
300.78656
300.24199
299.73923
299.27444
298.84429
298.44583
298.07649
297.73396
297.41623
297.12148
296.84807
296.59456
296.35964
296.14212
295.94095
295.75516
295.5839
295.42638
295.2819
295.14982
295.02958
294.92065
294.82258
294.73496
327.88887
322.67802
319.00566
316.18028
313.89142
311.97399
310.3299
308.89615
307.62982
306.50035
305.48513
304.56695
303.73236
302.97064
302.27305
301.63239
301.04263
300.49866
299.99609
299.53115
299.10054
298.70139
298.33115
297.98757
297.66865
297.3726
297.09784
296.84291
296.60653
296.38755
296.1849
295.99765
295.82494
295.66599
295.52012
295.38668
295.26511
295.15491
295.0556
294.96678
327.93525
322.77111
319.13139
316.33074
314.06145
312.1599
310.52889
309.10597
307.84863
306.7266
305.7175
304.80432
303.97375
303.2152
302.52005
301.88119
301.29268
300.74948
300.24728
299.78236
299.35148
298.95181
298.58084
298.23637
297.91642
297.61924
297.34325
297.08703
296.84933
296.62899
296.42498
296.23635
296.06228
295.90198
295.75478
295.62004
295.4972
295.38576
295.28524
295.19526
327.98018
322.86127
319.25319
316.47653
314.22626
312.34018
310.72194
309.30963
308.06114
306.94648
305.94349
305.03532
304.20883
303.45354
302.76094
302.12401
301.5369
300.99463
300.49295
300.02822
299.59723
299.1972
298.82566
298.48045
298.15961
297.86143
297.58435
297.32698
297.08806
296.86648
296.66119
296.47129
296.29593
296.13435
295.98589
295.8499
295.72584
295.6132
295.51151
295.42038
328.02374
322.94868
319.37127
316.6179
314.38613
312.51512
310.90934
309.50744
308.26766
307.16028
306.16337
305.26023
304.43786
303.6859
302.99595
302.36106
301.77547
301.23426
300.73326
300.26885
299.8379
299.43766
299.0657
298.71989
298.39831
298.09925
297.82121
297.56279
297.32278
297.10004
296.89358
296.70247
296.52591
296.36313
296.21346
296.07628
295.95105
295.83724
295.73442
295.64216
328.06599
323.03346
319.48583
316.75508
314.5413
312.68498
311.09139
309.69967
308.46846
307.36828
306.37739
305.47928
304.66107
303.9125
303.22527
302.59253
302.00857
301.46855
300.96835
300.5044
300.07363
299.67331
299.30106
298.95477
298.63257
298.33277
298.05387
297.79452
297.5535
297.32972
297.12216
296.92995
296.75225
296.58833
296.43751
296.2992
296.17282
296.0579
295.95396
295.86061
328.10701
323.11577
319.59705
316.88829
314.69202
312.85001
311.26832
309.88659
308.66379
307.57072
306.58581
305.69272
304.87868
304.13355
303.44911
302.8186
302.23637
301.69764
301.19836
300.735
300.30451
299.90424
299.53182
299.18519
298.86248
298.56204
298.2824
298.02222
297.78029
297.55554
297.34699
297.15373
296.97497
296.80997
296.65807
296.51866
296.39119
296.27518
296.17016
296.07573
328.14685
323.19571
319.7051
317.01772
314.83849
313.01045
311.44038
310.06843
308.85391
307.76783
306.78886
305.90075
305.0909
304.34924
303.66765
303.03944
302.45902
301.92169
301.42342
300.96075
300.53068
300.13056
299.75809
299.41121
299.08811
298.78714
298.50685
298.24593
298.00319
297.77756
297.56808
297.37385
297.19409
297.02807
296.87514
296.73468
296.60617
296.4891
296.38303
296.28754
328.18558
323.27342
319.81011
317.14355
314.98091
313.16649
311.60778
310.24542
309.03902
307.95985
306.98674
306.1036
305.29793
304.55977
303.88107
303.25522
302.67669
302.14083
301.64367
301.18179
300.75222
300.35237
299.97994
299.63293
299.30952
299.00812
298.72728
298.46571
298.22224
297.99582
297.78547
297.59035
297.40966
297.24267
297.08875
296.9473
296.81777
296.69968
296.59258
296.49607
328.22324
323.34898
319.91225
317.26594
315.11947
313.31834
311.77074
310.41776
309.21934
308.14697
307.17966
306.30145
305.49995
304.76531
304.08954
303.4661
302.88952
302.35521
301.85924
301.39824
300.96927
300.56976
300.19748
299.85042
299.52681
299.22506
298.94376
298.68162
298.4375
298.21034
297.99921
297.80326
297.62168
297.45379
297.29893
297.15652
297.02602
296.90694
296.79884
296.70132
328.25988
323.4225
320.01163
317.38504
315.25435
313.46617
311.92943
310.58565
309.39506
308.32939
307.3678
306.49449
305.69716
304.96603
304.29321
303.67222
303.09765
302.56496
302.07025
301.6102
301.1819
300.78284
300.41078
300.06376
299.74003
299.43801
299.15633
298.8937
298.649
298.42119
298.20934
298.0126
297.83021
297.66146
297.50571
297.36238
297.23094
297.1109
297.00183
296.90331
328.29556
323.49407
320.10838
317.50101
315.38568
313.61017
312.08404
310.74926
309.56636
308.50728
307.55136
306.68289
305.8897
305.16209
304.49224
303.87374
303.30122
302.77019
302.27681
301.81778
301.39024
300.99169
300.61993
300.27303
299.94925
299.64705
299.36506
299.10201
298.85679
298.62839
298.41588
298.21843
298.03527
297.86571
297.70911
297.5649
297.43256
297.31159
297.20156
297.10208
328.3303
323.56376
320.20262
317.61397
315.51364
313.75048
312.23473
310.90877
309.73342
308.68083
307.73048
306.86681
306.07774
305.35364
304.68678
304.07079
303.50036
302.97105
302.47905
302.0211
301.59437
301.19641
300.82502
300.47831
300.15456
299.85224
299.57
299.3066
299.06094
298.83201
298.61889
298.42077
298.23689
298.06656
297.90916
297.76411
297.63089
297.50903
297.39808
297.29764
328.36415
323.63167
320.29443
317.72404
315.63834
313.88726
312.38166
311.06433
309.89639
308.85018
307.90533
307.04641
306.26142
305.54083
304.87696
304.2635
303.69519
303.16763
302.67706
302.22025
301.7944
301.39708
301.02613
300.67967
300.35601
300.05364
299.77122
299.50753
299.26148
299.03207
298.81841
298.61968
298.43512
298.26407
298.1059
297.96004
297.82598
297.70324
297.59139
297.49002
328.39714
323.69786
320.38393
317.83135
315.75993
314.02063
312.52496
311.2161
310.05542
309.01548
308.07606
307.22184
306.4409
305.7238
305.06292
304.45199
303.88583
303.36006
302.87096
302.41533
301.99041
301.59379
301.22334
300.87719
300.55368
300.25132
299.96878
299.70486
299.45847
299.22864
299.01448
298.81517
298.62999
298.45825
298.29935
298.15272
298.01785
297.89426
297.78153
297.67925
328.42932
323.7624
320.4712
317.936
315.87851
314.15074
312.66478
311.3642
310.21066
309.17688
308.24281
307.39322
306.6163
305.90267
305.24477
304.6364
304.0724
303.54845
303.06085
302.60645
302.1825
301.78663
301.41673
301.07094
300.74764
300.44534
300.16273
299.89863
299.65196
299.42175
299.20714
299.00731
298.82153
298.64915
298.48956
298.34218
298.20653
298.08212
297.96853
297.86536
328.4607
323.82536
320.55633
318.03808
315.99421
314.2777
312.80124
311.50878
310.36223
309.33452
308.40571
307.5607
306.78775
306.07757
305.42264
304.81682
304.255
303.73289
303.24683
302.79368
302.37075
301.97567
301.60637
301.261
300.93795
300.63576
300.35313
300.0889
299.84199
299.61146
299.39643
299.19612
299.0098
298.83681
298.67655
298.52846
298.39205
298.26684
298.15242
298.04838
328.49133
323.88678
320.63939
318.13771
316.10713
314.40163
312.93446
311.64996
310.51027
309.48851
308.56489
307.72439
306.95538
306.24861
305.59665
304.99338
304.43375
303.91349
303.42899
302.97714
302.55526
302.16101
301.79234
301.44743
301.12468
300.82265
300.54005
300.27572
300.02862
299.79781
299.58241
299.38165
299.19481
299.02125
298.86036
298.71159
298.57445
298.44847
298.33322
298.22833
328.52122
323.94674
320.72048
318.23495
316.21737
314.52263
313.06456
311.78784
310.65489
309.63898
308.72046
307.88442
307.11929
306.41592
305.7669
305.16618
304.60874
304.09035
303.60742
303.15689
302.73609
302.34271
301.97471
301.6303
301.30789
301.00606
300.72353
300.45916
300.21191
299.98084
299.76511
299.56394
299.37663
299.20252
299.04103
298.8916
298.75376
298.62702
298.51098
298.40525
328.55041
324.00528
320.79964
318.32991
316.32502
314.6408
313.19163
311.92255
310.7962
309.78604
308.87254
308.04089
307.27961
306.57959
305.93349
305.33532
304.78006
304.26355
303.78222
303.33303
302.91334
302.52085
302.15356
301.80969
301.48766
301.18606
300.90364
300.63925
300.39189
300.16061
299.94459
299.74304
299.55528
299.38066
299.21859
299.06854
298.93001
298.80255
298.68573
298.57917
328.57891
324.06244
320.87695
318.42265
316.43017
314.75625
313.31579
312.05418
310.93431
309.92979
309.02123
308.19391
307.43642
306.73973
306.09654
305.50089
304.94783
304.4332
303.95348
303.50564
303.08708
302.69552
302.32896
301.98565
301.66403
301.3627
301.08042
300.81606
300.56862
300.33717
300.12088
299.91899
299.73081
299.5557
299.39309
299.24243
299.10324
298.97507
298.85749
298.75013
328.60676
324.11828
320.95248
318.51325
316.5329
314.86905
313.43712
312.18284
311.06932
310.07035
309.16664
308.34359
307.58984
306.89644
306.25613
305.66299
305.11211
304.59937
304.12126
303.6748
303.25739
302.86677
302.50098
302.15826
301.83708
301.53605
301.25394
300.98965
300.74215
300.51056
300.29403
300.09183
299.90326
299.72769
299.56456
299.41332
299.27349
299.14463
299.02631
298.91817
328.63397
324.17285
321.02627
318.60178
316.6333
314.97929
313.55571
312.30861
311.20132
310.2078
309.30887
308.49001
307.73996
307.04981
306.41235
305.82171
305.27301
304.76215
304.28567
303.84059
303.42434
303.03469
302.66968
302.32758
302.00686
301.70617
301.42426
301.16005
300.91253
300.68082
300.46409
300.2616
300.07267
299.89667
299.73303
299.58124
299.44079
299.31126
299.19222
299.0833
328.66056
324.22617
321.0984
318.68831
316.73143
315.08706
313.67166
312.43159
311.33041
310.34223
309.448
308.63328
307.88687
307.19993
306.56529
305.97713
305.43059
304.92162
304.44676
304.00307
303.588
303.19933
302.83512
302.49367
302.17344
301.8731
301.59142
301.32732
301.07982
300.84801
300.6311
300.42835
300.23908
300.06267
299.89856
299.74622
299.60518
299.475
299.35525
299.24558
328.68656
324.2783
321.1689
318.7729
316.82736
315.19243
313.78503
312.55185
311.45667
310.47374
309.58412
308.77347
308.03066
307.34688
306.71504
306.12934
305.58496
305.07786
304.60463
304.16233
303.74845
303.36077
302.99739
302.65659
302.33688
302.03691
301.75548
301.49152
301.24405
301.01218
300.79511
300.59212
300.40254
300.22574
300.06117
299.90832
299.7667
299.63588
299.51545
299.40503
328.71197
324.32926
321.23783
318.85561
316.92117
315.29547
313.89591
312.66949
311.58018
310.60241
309.71732
308.91068
308.17141
307.49076
306.86169
306.27841
305.73617
305.23094
304.75933
304.31843
303.90574
303.51908
303.15652
302.8164
302.49722
302.19765
301.9165
301.65269
301.40527
301.17336
300.95617
300.75296
300.56308
300.38592
300.22091
300.06756
299.92538
299.79395
299.67284
299.5617
328.73683
324.3791
321.30524
318.93649
317.01292
315.39625
314.00437
312.78457
311.70103
310.72831
309.84768
309.04498
308.3092
307.63164
307.00529
306.42443
305.88431
305.38094
304.91095
304.47145
304.05996
303.67431
303.3126
302.97317
302.65453
302.35538
302.07452
301.81089
301.56355
301.33162
301.11431
300.9109
300.72075
300.54324
300.37782
300.22399
300.08127
299.94923
299.82747
299.71561
328.76114
324.42784
321.37117
319.01561
317.10266
315.49484
314.11048
312.89716
311.81928
310.85152
309.97528
309.17645
308.4441
307.76959
307.14594
306.56747
306.02945
305.52792
305.05954
304.62145
304.21116
303.82653
303.46567
303.12695
302.80887
302.51014
302.22959
301.96617
301.71892
301.48698
301.26958
301.066
300.87559
300.69775
300.53194
300.37764
300.2344
300.10177
299.97937
299.86681
328.78493
324.47552
321.43567
319.093
317.19046
315.5913
314.2143
313.00735
311.93501
310.97212
310.10018
309.30516
308.5762
307.90469
307.28371
306.70759
306.17165
305.67196
305.20519
304.76849
304.3594
303.97579
303.61581
303.27779
302.96029
302.662
302.38178
302.11857
301.87143
301.63951
301.42203
301.21829
301.02764
300.84949
300.6833
300.52856
300.3848
300.25161
300.12858
300.01534
328.8082
324.52217
321.49877
319.16873
317.27637
315.68568
314.3159
313.11518
312.04828
311.09018
310.22246
309.43119
308.70556
308.037
307.41865
306.84487
306.31099
305.81312
305.34794
304.91263
304.50475
304.12217
303.76305
303.42575
303.10884
302.81101
302.53112
302.26814
302.02112
301.78923
301.5717
301.36782
301.17695
300.99851
300.83195
300.67677
300.53252
300.39877
300.27513
300.16122
328.83097
324.56782
321.56052
319.24283
317.36043
315.77806
314.41534
313.22073
312.15916
311.20575
310.34219
309.5546
308.83224
308.16661
307.55085
306.97937
306.44754
305.95147
305.48787
305.05394
304.64726
304.26571
303.90747
303.5709
303.25457
302.95721
302.67767
302.41493
302.16806
301.93621
301.71863
301.51463
301.32355
301.14483
300.97792
300.82233
300.6776
300.54331
300.41907
300.3045
328.85326
324.61249
321.62095
319.31535
317.44271
315.86847
314.51268
313.32405
312.26771
311.31891
310.45942
309.67546
308.95632
308.29356
307.68036
307.11116
306.58134
306.08706
305.62504
305.19249
304.787
304.40648
304.04911
303.71327
303.39754
303.10066
302.82148
302.55899
302.31227
302.08048
301.86288
301.65876
301.46749
301.2885
301.12126
300.96527
300.82007
300.68525
300.56042
300.44522
328.87507
324.65622
321.68009
319.38633
317.52325
315.95697
314.60796
313.4252
312.374
311.42971
310.57423
309.79383
309.07786
308.41793
307.80725
307.24029
306.71247
306.21996
305.75949
305.32831
304.92401
304.54452
304.18803
303.85292
303.5378
303.2414
302.96259
302.70037
302.45381
302.2221
302.00447
301.80025
301.60881
301.42957
301.262
301.10562
300.95998
300.82464
300.69924
300.5834
328.89642
324.69901
321.73799
319.45581
317.60209
316.04361
314.70126
313.52425
312.47807
311.53822
310.68667
309.90977
309.19692
308.53977
307.93158
307.36683
306.84099
306.35022
305.8913
305.46148
305.05836
304.6799
304.32428
303.98991
303.6754
303.37949
303.10106
302.8391
302.59272
302.36109
302.14346
301.93915
301.74755
301.56807
301.40019
301.24344
301.09735
300.96152
300.83555
300.7191
328.91733
324.74091
321.79467
319.52384
317.67928
316.12844
314.7926
313.62123
312.57999
311.6445
310.7968
310.02333
309.31356
308.65915
308.0534
307.49084
306.96694
306.47791
306.02052
305.59204
305.1901
304.81265
304.45791
304.12428
303.81038
303.51497
303.23692
302.97525
302.72905
302.49751
302.27988
302.0755
301.88374
301.70404
301.53586
301.37874
301.23223
301.09591
300.9694
300.85234
328.9378
324.78194
321.85016
319.59045
317.75486
316.21151
314.88205
313.71621
312.67981
311.74858
310.90468
310.13459
309.42783
308.77611
308.17278
307.61237
307.0904
306.60307
306.14719
305.72005
305.31928
304.94285
304.58897
304.25609
303.9428
303.64788
303.37023
303.10884
302.86283
302.63139
302.41379
302.20934
302.01743
301.83751
301.66906
301.51159
301.36466
301.22786
301.10081
300.98316
328.95784
324.82211
321.9045
319.65567
317.82887
316.29285
314.96965
313.80922
312.77757
311.85054
311.01035
310.24358
309.53978
308.89072
308.28976
307.73148
307.2114
306.72576
306.27138
305.84556
305.44595
305.07053
304.71752
304.38537
304.0727
303.77829
303.50102
303.23993
302.99412
302.76279
302.54521
302.3407
302.14867
301.96854
301.79981
301.642
301.49467
301.35741
301.22983
301.1116
328.97747
324.86144
321.95771
319.71954
317.90135
316.37252
315.05544
313.90033
312.87333
311.95041
311.11388
310.35036
309.64948
309.00303
308.4044
307.84822
307.33
306.84603
306.39313
305.96862
305.57016
305.19574
304.8436
304.51219
304.20013
303.90622
303.62935
303.36856
303.12296
302.89174
302.67419
302.46964
302.27748
302.09716
301.92817
301.77003
301.6223
301.48458
301.3565
301.23769
328.99669
324.89997
322.00982
319.78209
317.97233
316.45054
315.13948
313.98957
312.96714
312.04825
311.2153
310.45499
309.75697
309.11308
308.51676
307.96263
307.44626
306.96393
306.5125
306.08928
305.69196
305.31853
304.96725
304.63657
304.32513
304.03172
303.75526
303.49477
303.24938
303.01828
302.80077
302.59618
302.40391
302.22341
302.05416
301.8957
301.74759
301.60943
301.48084
301.36148
329.01552
324.9377
322.06086
319.84335
318.04186
316.52697
315.22179
314.07699
313.05903
312.1441
311.31468
310.5575
309.8623
309.22093
308.62687
308.07478
307.56022
307.07952
306.62953
306.20759
305.81139
305.43895
305.08853