/*--------------------------------*- C++ -*----------------------------------*\
| =========                 |                                                 |
| \\      /  F ield         | OpenFOAM: The Open Source CFD Toolbox           |
|  \\    /   O peration     | Version:  2506                                  |
|   \\  /    A nd           | Website:  www.openfoam.com                      |
|    \\/     M anipulation  |                                                 |
\*---------------------------------------------------------------------------*/
FoamFile
{
    version     2.0;
    format      ascii;
    arch        "LSB;label=32;scalar=64";
    class       volScalarField;
    location    "30000/water";
    object      epsilon;
}
// * * * * * * * * * * * * * * * * * * * * * * * * * * * * * * * * * * * * * //

dimensions      [0 2 -3 0 0 0 0];

internalField   nonuniform List<scalar> 
6000
(
0.00010005327
0.00010005311
0.00010005314
0.00010005327
0.00010005342
0.00010005363
0.0001000539
0.00010005427
0.00010005511
0.00010005982
0.00010010144
0.00010049509
0.00010424183
0.00014354191
0.00073980483
8.5785229e-05
8.5785556e-05
8.5786111e-05
8.5786982e-05
8.5788138e-05
8.5789633e-05
8.5791527e-05
8.5794043e-05
8.5798789e-05
8.581901e-05
8.5962524e-05
8.7071869e-05
9.5619929e-05
0.00016974081
0.0010520452
7.4267219e-05
7.4268013e-05
7.426896e-05
7.4270365e-05
7.4272213e-05
7.4274585e-05
7.4277581e-05
7.4281747e-05
7.4291154e-05
7.4336305e-05
7.4633748e-05
7.6634978e-05
9.0041817e-05
0.00019500629
0.0013270628
6.4852864e-05
6.485355e-05
6.4854661e-05
6.4856389e-05
6.4858676e-05
6.4861616e-05
6.4865387e-05
6.4871112e-05
6.4886838e-05
6.4967364e-05
6.5458677e-05
6.84101e-05
8.6285088e-05
0.00021715658
0.0015411415
5.7072087e-05
5.7072704e-05
5.7073918e-05
5.7075861e-05
5.7078448e-05
5.7081784e-05
5.7086167e-05
5.7093598e-05
5.7117581e-05
5.7242267e-05
5.7947685e-05
6.180797e-05
8.3505097e-05
0.0002348614
0.0016895689
5.0576692e-05
5.0577312e-05
5.0578592e-05
5.0580667e-05
5.0583434e-05
5.0587016e-05
5.0591882e-05
5.0601216e-05
5.0635234e-05
5.0810032e-05
5.1732149e-05
5.6406881e-05
8.1259069e-05
0.00024828861
0.0017792142
4.5104569e-05
4.5105188e-05
4.5106499e-05
4.5108638e-05
4.5111496e-05
4.5115213e-05
4.5120483e-05
4.5131961e-05
4.5177479e-05
4.5405527e-05
4.6535255e-05
5.1917397e-05
7.9376731e-05
0.00025838324
0.0018218943
4.0455895e-05
4.0456503e-05
4.045782e-05
4.0459977e-05
4.0462859e-05
4.0466628e-05
4.0472257e-05
4.0486117e-05
4.0544208e-05
4.0826355e-05
4.2148994e-05
4.8144563e-05
7.7837439e-05
0.00026629433
0.0018300463
3.6476506e-05
3.6477102e-05
3.6478406e-05
3.6480546e-05
3.6483399e-05
3.6487156e-05
3.6493116e-05
3.6509564e-05
3.6580944e-05
3.6916576e-05
3.8416896e-05
4.4958845e-05
7.6693461e-05
0.00027309124
0.0018145574
3.304611e-05
3.3046691e-05
3.304797e-05
3.3050065e-05
3.3052847e-05
3.3056537e-05
3.3062809e-05
3.3082024e-05
3.3167159e-05
3.3555102e-05
3.5220975e-05
4.2274823e-05
7.6025068e-05
0.00027965054
0.0017840405
3.0069857e-05
3.007042e-05
3.0071664e-05
3.0073692e-05
3.0076366e-05
3.0079941e-05
3.0086514e-05
3.0108667e-05
3.0207924e-05
3.0647227e-05
3.2471858e-05
4.0036357e-05
7.5917105e-05
0.00028663427
0.001744886
2.7472233e-05
2.7472777e-05
2.7473976e-05
2.7475917e-05
2.747845e-05
2.7481869e-05
2.7488744e-05
2.7514021e-05
2.7627825e-05
2.8118369e-05
3.010146e-05
3.820687e-05
7.6449192e-05
0.00029450875
0.0017016307
2.5192577e-05
2.5193098e-05
2.5194246e-05
2.5196082e-05
2.5198442e-05
2.520167e-05
2.520887e-05
2.5237507e-05
2.5366478e-05
2.5909414e-05
2.805763e-05
3.6763308e-05
7.7693097e-05
0.0003035735
0.00165739
2.3181748e-05
2.3182245e-05
2.3183333e-05
2.3185048e-05
2.3187207e-05
2.3190219e-05
2.3197794e-05
2.323011e-05
2.3375184e-05
2.3973213e-05
2.6300284e-05
3.5692527e-05
7.9712907e-05
0.00031398658
0.0016142425
2.1399629e-05
2.14001e-05
2.140112e-05
2.1402697e-05
2.140463e-05
2.1407412e-05
2.1415452e-05
2.1451882e-05
2.1614405e-05
2.2271964e-05
2.4798652e-05
3.4989203e-05
8.2565442e-05
0.00032578296
0.0015735325
1.9813231e-05
1.9813672e-05
1.9814616e-05
1.981604e-05
1.9817725e-05
1.9820279e-05
1.9828922e-05
1.9870043e-05
2.0051847e-05
2.0775227e-05
2.3529325e-05
3.4654636e-05
8.6299521e-05
0.00033888748
0.0015360911
1.8395236e-05
1.8395645e-05
1.8396506e-05
1.8397761e-05
1.8399183e-05
1.8401531e-05
1.8410972e-05
1.8457531e-05
1.8660989e-05
1.9458432e-05
2.2474895e-05
3.4695971e-05
9.095345e-05
0.00035312607
0.0015023901
1.7122886e-05
1.7123259e-05
1.7124028e-05
1.7125102e-05
1.712625e-05
1.7128438e-05
1.7138942e-05
1.7191872e-05
1.7419954e-05
1.8301752e-05
2.1622992e-05
3.5125546e-05
9.6550686e-05
0.00036823944
0.0014726449
1.5977101e-05
1.5977436e-05
1.5978105e-05
1.5978984e-05
1.5979859e-05
1.598196e-05
1.5993865e-05
1.6054312e-05
1.6310628e-05
1.7289248e-05
2.0965619e-05
3.5960111e-05
0.00010309413
0.00038390222
0.0014468811
1.4941799e-05
1.4942091e-05
1.4942652e-05
1.4943329e-05
1.494394e-05
1.4946058e-05
1.4959787e-05
1.5029124e-05
1.5317979e-05
1.6408225e-05
2.049868e-05
3.7219755e-05
0.00011055991
0.00039974861
0.00142498
1.4003348e-05
1.4003595e-05
1.4004041e-05
1.4004511e-05
1.400488e-05
1.4007153e-05
1.402322e-05
1.4103071e-05
1.442952e-05
1.5648751e-05
2.0221625e-05
3.8926414e-05
0.00011889194
0.00041540307
0.0014067117
1.3150142e-05
1.315034e-05
1.3150665e-05
1.3150927e-05
1.315109e-05
1.3153695e-05
1.3172714e-05
1.3264971e-05
1.3634892e-05
1.5003284e-05
2.0137155e-05
4.1101901e-05
0.00012799852
0.0004305123
0.0013917631
1.2372247e-05
1.2372393e-05
1.2372592e-05
1.237265e-05
1.2372659e-05
1.2375814e-05
1.2398506e-05
1.2505359e-05
1.2925534e-05
1.446641e-05
2.0250947e-05
4.3765469e-05
0.00013775238
0.00044477369
0.0013797649
1.1661123e-05
1.1661215e-05
1.1661286e-05
1.166115e-05
1.1661074e-05
1.1665043e-05
1.1692246e-05
1.1816209e-05
1.2294425e-05
1.4034634e-05
2.0571326e-05
4.6930996e-05
0.00014799478
0.00045795585
0.0013703185
1.1009401e-05
1.1009437e-05
1.1009378e-05
1.1009066e-05
1.1008994e-05
1.101409e-05
1.104677e-05
1.1190715e-05
1.1735881e-05
1.3706238e-05
2.1108871e-05
5.0604014e-05
0.00015854368
0.00046990849
0.0013630208
1.0410692e-05
1.041067e-05
1.0410485e-05
1.0410022e-05
1.0410062e-05
1.0416652e-05
1.0455917e-05
1.0623112e-05
1.1245399e-05
1.3481165e-05
2.1875889e-05
5.4778859e-05
0.00016920526
0.00048056142
0.0013574861
9.8594384e-06
9.8593586e-06
9.8590515e-06
9.8584721e-06
9.8587577e-06
9.8672657e-06
9.9143754e-06
1.0108535e-05
1.0819533e-05
1.3360938e-05
2.2885735e-05
5.9436317e-05
0.00017978706
0.00048991474
0.001353362
9.3507874e-06
9.3506504e-06
9.3502304e-06
9.3495787e-06
9.3502669e-06
9.3611826e-06
9.4175684e-06
9.6428999e-06
1.045581e-05
1.3348574e-05
2.4151946e-05
6.4542151e-05
0.00019011095
0.00049802341
0.0013503406
8.8804873e-06
8.8802951e-06
8.8797751e-06
8.879106e-06
8.8803818e-06
8.8942644e-06
8.9615474e-06
9.2228179e-06
1.0152655e-05
1.3448503e-05
2.5687206e-05
7.0046824e-05
0.00020002406
0.00050498001
0.0013481619
8.4448007e-06
8.4445568e-06
8.4439543e-06
8.4433345e-06
8.4454129e-06
8.4628989e-06
8.5429123e-06
8.8455163e-06
9.9093487e-06
1.3666457e-05
2.7502143e-05
7.588662e-05
0.00020940613
0.0005108985
0.0013466143
8.0404324e-06
8.0401416e-06
8.0394792e-06
8.0389884e-06
8.0421174e-06
8.0639293e-06
8.1587433e-06
8.508784e-06
9.7259953e-06
1.4009323e-05
2.9604058e-05
8.1986182e-05
0.00021817297
0.000515901
0.00134553
7.664468e-06
7.6641372e-06
7.663443e-06
7.6631755e-06
7.6676392e-06
7.6945949e-06
7.8065457e-06
8.2109262e-06
9.6034999e-06
1.4484935e-05
3.1995646e-05
8.8262228e-05
0.00022627582
0.0005201082
0.0013447795
7.3143234e-06
7.3139614e-06
7.3132697e-06
7.3133352e-06
7.319458e-06
7.3524816e-06
7.4842048e-06
7.950732e-06
9.5435554e-06
1.5101802e-05
3.4673864e-05
9.4628077e-05
0.00023369766
0.00052363336
0.0013442658
6.9877006e-06
6.9873184e-06
6.9866703e-06
6.9871959e-06
6.9953468e-06
7.0354818e-06
7.1899496e-06
7.7274515e-06
9.5486283e-06
1.5868742e-05
3.7629068e-05
0.00010099842
0.00024044745
0.0005265791
0.0013439174
6.6825513e-06
6.6821625e-06
6.6816065e-06
6.6827386e-06
6.6933357e-06
6.741759e-06
6.9223234e-06
7.5407805e-06
9.6219392e-06
1.6794438e-05
4.0844541e-05
0.00010729381
0.00024655353
0.00052903629
0.0013436835
6.3970453e-06
6.396666e-06
6.3962591e-06
6.3981651e-06
6.411682e-06
6.4697206e-06
6.6801611e-06
7.3908531e-06
9.7674313e-06
1.7886905e-05
4.4296529e-05
0.00011344428
0.00025205715
0.0005310841
0.0013435288
6.1295436e-06
6.129193e-06
6.129001e-06
6.1318719e-06
6.1488438e-06
6.2179935e-06
6.4625723e-06
7.2782395e-06
9.9897187e-06
1.9152894e-05
4.7954807e-05
0.00011939197
0.0002570069
0.00053279086
0.0013434301
5.8785752e-06
5.8782757e-06
5.8783746e-06
5.8824275e-06
5.903459e-06
5.9854055e-06
6.2689287e-06
7.2039478e-06
1.0294006e-05
2.0597266e-05
5.1783772e-05
0.00012509231
0.00026145422
0.00053421505
0.001343373
5.6428172e-06
5.642595e-06
5.6430719e-06
5.6485531e-06
5.6743264e-06
5.7709695e-06
6.0988564e-06
7.1694287e-06
1.0685974e-05
2.2222385e-05
5.5743957e-05
0.00013051408
0.00026545025
0.00053540647
0.0013433493
5.4210776e-06
5.4209629e-06
5.4219174e-06
5.4291059e-06
5.4603909e-06
5.5738715e-06
5.9522322e-06
7.1765787e-06
1.1171622e-05
2.4027579e-05
5.9793835e-05
0.00013563849
0.00026904378
0.00053640725
0.0013433553
5.2122808e-06
5.2123081e-06
5.2138535e-06
5.2230651e-06
5.26073e-06
5.3934608e-06
5.8291825e-06
7.2277422e-06
1.1757062e-05
2.6008735e-05
6.3891719e-05
0.00014045745
0.00027228005
0.00053725289
0.0013433902
5.0154542e-06
5.0156629e-06
5.0179281e-06
5.0295196e-06
5.0745437e-06
5.2292435e-06
5.7300867e-06
7.3257058e-06
1.2448271e-05
2.8158068e-05
6.7997574e-05
0.00014497164
0.00027520024
0.00053797313
0.0013434553
4.8297171e-06
4.8301524e-06
4.8332834e-06
4.847658e-06
4.9011459e-06
5.0808782e-06
5.6555823e-06
7.4736833e-06
1.3250796e-05
3.0464119e-05
7.2074574e-05
0.00014918835
0.00027784139
0.00053859274
0.0013435527
4.654271e-06
4.6549842e-06
4.6591465e-06
4.6767597e-06
4.739957e-06
4.9481738e-06
5.6065719e-06
7.6752861e-06
1.4169424e-05
3.2911987e-05
7.6090276e-05
0.00015311953
0.00028023648
0.00053913229
0.0013436849
4.4883913e-06
4.4894404e-06
4.4948214e-06
4.5161875e-06
4.5904991e-06
4.8310889e-06
5.5842316e-06
7.9344756e-06
1.5207848e-05
3.5483782e-05
8.001736e-05
0.00015678017
0.00028241474
0.00053960872
0.0013438547
4.3314193e-06
4.3328703e-06
4.3396818e-06
4.3653818e-06
4.452392e-06
4.7297343e-06
5.5900196e-06
8.2554925e-06
1.6368331e-05
3.8159287e-05
8.3833932e-05
0.00016018692
0.00028440196
0.00054003599
0.0013440645
4.1827562e-06
4.1846838e-06
4.1931653e-06
4.2238553e-06
4.3253508e-06
4.6443763e-06
5.6256833e-06
8.64276e-06
1.7651409e-05
4.0916739e-05
8.7523433e-05
0.00016335711
0.00028622083
0.00054042551
0.0013443165
4.0418571e-06
4.0443457e-06
4.0547683e-06
4.0911891e-06
4.2091847e-06
4.5754417e-06
5.693263e-06
9.1007601e-06
1.9055658e-05
4.3733691e-05
9.1074255e-05
0.00016630804
0.00028789123
0.00054078658
0.0013446125
3.9082261e-06
3.9113713e-06
3.9240414e-06
3.96703e-06
4.103797e-06
4.5235249e-06
5.795091e-06
9.6338805e-06
2.0577552e-05
4.658786e-05
9.4479149e-05
0.00016905655
0.0002894306
0.00054112679
0.0013449537
3.781412e-06
3.7853219e-06
3.8005859e-06
3.8510876e-06
4.0091864e-06
4.4893954e-06
5.9337827e-06
1.0246237e-05
2.2211425e-05
4.9457897e-05
9.7734538e-05
0.00017161867
0.00029085417
0.00054145227
0.001345341
3.6610043e-06
3.6658014e-06
3.6840513e-06
3.7431338e-06
3.9254494e-06
4.4740067e-06
6.1122182e-06
1.0941479e-05
2.3949551e-05
5.2324022e-05
0.00010083981
0.0001740095
0.00029217524
0.00054176798
0.0013457749
3.5466302e-06
3.5524531e-06
3.5741321e-06
3.6430016e-06
3.8527838e-06
4.4785051e-06
6.3335104e-06
1.172258e-05
2.5782348e-05
5.5168499e-05
0.00010379664
0.00017624311
0.00029340545
0.00054207792
0.0013462556
3.4379516e-06
3.4449572e-06
3.470567e-06
3.5505856e-06
3.7914931e-06
4.5042378e-06
6.6009582e-06
1.2591638e-05
2.7698675e-05
5.7975926e-05
0.00010660842
0.00017833256
0.00029455494
0.00054238527
0.0013467828
3.3346627e-06
3.3430286e-06
3.373137e-06
3.4658429e-06
3.7419925e-06
4.5527599e-06
6.9179829e-06
1.3549688e-05
2.9686212e-05
6.0733358e-05
0.00010927977
0.00018028983
0.00029563258
0.00054269259
0.001347356
3.2364878e-06
3.2464154e-06
3.281665e-06
3.3887949e-06
3.7048152e-06
4.6258385e-06
7.2880458e-06
1.4596556e-05
3.1731892e-05
6.3430278e-05
0.00011181612
0.00018212593
0.00029664614
0.0005430019
0.0013479746
3.1431799e-06
3.1548974e-06
3.1960156e-06
3.3195298e-06
3.6806199e-06
4.7254525e-06
7.7145471e-06
1.5730747e-05
3.3822341e-05
6.6058468e-05
0.0001142234
0.00018385092
0.00029760241
0.00054331478
0.0013486378
3.0545192e-06
3.0682854e-06
3.1160958e-06
3.2582055e-06
3.6701986e-06
4.853787e-06
8.2007097e-06
1.694941e-05
3.5944303e-05
6.8611788e-05
0.00011650785
0.00018547397
0.00029850735
0.00054363246
0.0013493444
2.9703119e-06
2.9864203e-06
3.0418551e-06
3.2050543e-06
3.6744852e-06
5.0132198e-06
8.7494487e-06
1.824835e-05
3.8085016e-05
7.1085927e-05
0.00011867579
0.00018700343
0.00029936619
0.0005439559
0.0013500934
2.8903898e-06
2.9091733e-06
2.9732878e-06
3.1603869e-06
3.6945633e-06
5.2062985e-06
9.3632353e-06
1.9622124e-05
4.0232514e-05
7.3478133e-05
0.00012073351
0.00018844688
0.00030018354
0.00054428579
0.0013508836
2.8146096e-06
2.836446e-06
2.9104344e-06
3.1245986e-06
3.7316741e-06
5.4357065e-06
1.0043961e-05
2.1064182e-05
4.237586e-05
7.578695e-05
0.00012268719
0.00018981121
0.00030096346
0.00054462266
0.0013517137
2.7428528e-06
2.7681709e-06
2.8533843e-06
3.098175e-06
3.7872216e-06
5.7042167e-06
1.079281e-05
2.2567071e-05
4.4505286e-05
7.8011981e-05
0.00012454279
0.00019110267
0.0003017095
0.00054496684
0.0013525823
2.6750262e-06
2.7043127e-06
2.8022791e-06
3.0816992e-06
3.8627771e-06
6.0146319e-06
1.1610155e-05
2.4122666e-05
4.6612264e-05
8.0153675e-05
0.00012630606
0.00019232691
0.00030242478
0.00054531837
0.0013534882
2.6110622e-06
2.6448693e-06
2.7573159e-06
3.0758593e-06
3.9600781e-06
6.3697126e-06
1.2495478e-05
2.5722424e-05
4.8689515e-05
8.2213153e-05
0.00012798249
0.00019348922
0.00030311295
0.00054567959
0.0013544295
2.5509198e-06
2.5898742e-06
2.718752e-06
3.0814557e-06
4.0810247e-06
6.7720929e-06
1.3447328e-05
2.7357637e-05
5.0730963e-05
8.4192053e-05
0.00012957729
0.00019459431
0.00030377609
0.00054604533
0.0013554045
2.494586e-06
2.5393984e-06
2.6869098e-06
3.0994094e-06
4.2276673e-06
7.2241865e-06
1.4463315e-05
2.9019662e-05
5.273165e-05
8.609239e-05
0.00013109537
0.00019564635
0.00030441574
0.00054641398
0.001356411
2.4420772e-06
2.4935535e-06
2.6621823e-06
3.1307692e-06
4.4021887e-06
7.7280877e-06
1.5540154e-05
3.0700125e-05
5.4687631e-05
8.7916449e-05
0.0001325413
0.00019664905
0.00030503329
0.00054678556
0.001357447
2.3934419e-06
2.4524951e-06
2.6450394e-06
3.1767178e-06
4.6068759e-06
8.2854729e-06
1.6673739e-05
3.2391089e-05
5.6595868e-05
8.9666719e-05
0.00013391946
0.00019760628
0.00030563175
0.00054715702
0.0013585105
2.3487625e-06
2.4164266e-06
2.6360346e-06
3.2385775e-06
4.8440834e-06
8.897508e-06
1.7859257e-05
3.4085181e-05
5.8454118e-05
9.1345825e-05
0.00013523397
0.00019852138
0.00030621175
0.00054752793
0.0013595997
2.3081594e-06
2.3856042e-06
2.6358124e-06
3.3178121e-06
5.116185e-06
9.5647682e-06
1.9091327e-05
3.5775672e-05
6.0260822e-05
9.2956452e-05
0.00013648859
0.0001993969
0.00030677292
0.00054790012
0.0013607134
2.2717941e-06
2.3603413e-06
2.6451157e-06
3.4160262e-06
5.4255161e-06
1.0287176e-05
2.0364155e-05
3.7456525e-05
6.2015001e-05
9.4501292e-05
0.00013768677
0.00020023507
0.00030731595
0.00054827481
0.0013618504
2.2398737e-06
2.3410154e-06
2.6647937e-06
3.5349596e-06
5.7743067e-06
1.1063963e-05
2.167169e-05
3.9122402e-05
6.3716164e-05
9.5983029e-05
0.0001388318
0.00020103834
0.00030784122
0.00054865323
0.0013630097
2.2126561e-06
2.3280734e-06
2.6958091e-06
3.6764763e-06
6.1646075e-06
1.189366e-05
2.3007781e-05
4.0768662e-05
6.5364247e-05
9.7404399e-05
0.00013992712
0.00020180982
0.00030834747
0.00054903725
0.0013641909
2.1904555e-06
2.3220399e-06
2.7392451e-06
3.8425459e-06
6.5982121e-06
1.2774115e-05
2.4366319e-05
4.2391323e-05
6.6959522e-05
9.8768019e-05
0.00014097539
0.00020254993
0.00030883712
0.00054942734
0.0013653934
2.1736491e-06
2.3235241e-06
2.7963108e-06
4.035218e-06
7.076579e-06
1.3702539e-05
2.5741356e-05
4.398702e-05
6.8502524e-05
0.00010007635
0.0001419789
0.00020325984
0.00030931202
0.0005498234
0.0013666164
2.1626844e-06
2.3332282e-06
2.8683443e-06
4.2565873e-06
7.6007586e-06
1.4675575e-05
2.7127207e-05
4.5552949e-05
6.9993983e-05
0.00010133172
0.00014293979
0.00020394109
0.0003097737
0.00055022517
0.001367859
2.158087e-06
2.3519558e-06
2.9568137e-06
4.5087501e-06
8.1713295e-06
1.5689386e-05
2.8518525e-05
4.7086834e-05
7.1434897e-05
0.00010253684
0.00014386157
0.00020459275
0.00031022401
0.00055063281
0.0013691204
2.1604699e-06
2.3806208e-06
3.0633134e-06
4.793752e-06
8.7883488e-06
1.6739762e-05
2.9910353e-05
4.8586858e-05
7.2826357e-05
0.00010369382
0.00014474502
0.00020521727
0.00031066403
0.00055104639
0.0013703998
2.1705425e-06
2.4202548e-06
3.1895552e-06
5.1135284e-06
9.4513208e-06
1.7822223e-05
3.1298153e-05
5.0051599e-05
7.416948e-05
0.00010480453
0.00014559147
0.00020581671
0.00031109449
0.00055146583
0.0013716964
2.1891212e-06
2.4720149e-06
3.3373542e-06
5.4698397e-06
1.0159186e-05
1.8932132e-05
3.2677817e-05
5.1479973e-05
7.5465396e-05
0.0001058707
0.00014640251
0.00020639288
0.00031151598
0.0005518909
0.0013730095
2.2171394e-06
2.5371892e-06
3.5086061e-06
5.864204e-06
1.0910329e-05
2.0064792e-05
3.4045678e-05
5.2871279e-05
7.6715684e-05
0.0001068953
0.0001471778
0.00020694761
0.00031192923
0.00055232137
0.0013743381
2.255658e-06
2.6171999e-06
3.7052572e-06
6.2978302e-06
1.1702615e-05
2.1215541e-05
3.539849e-05
5.4225042e-05
7.7921521e-05
0.00010787902
0.00014791972
0.00020748225
0.00031233485
0.00055275702
0.0013756814
2.3058755e-06
2.713603e-06
3.9292654e-06
6.7715569e-06
1.2533433e-05
2.2379827e-05
3.6733395e-05
5.5540956e-05
7.9083959e-05
0.00010882301
0.00014863031
0.00020799791
0.00031273332
0.00055319759
0.0013770387
2.3691363e-06
2.8280834e-06
4.1825538e-06
7.2857998e-06
1.3399763e-05
2.3553272e-05
3.8047916e-05
5.6818969e-05
8.020441e-05
0.00010972814
0.00014931142
0.00020849561
0.00031312503
0.0005536428
0.0013784091
2.4469371e-06
2.9624434e-06
4.4669549e-06
7.8405121e-06
1.429825e-05
2.4731721e-05
3.9339955e-05
5.80593e-05
8.1284452e-05
0.00011059497
0.00014996474
0.00020897635
0.0003135103
0.00055409234
0.0013797917
2.5409302e-06
3.1185848e-06
4.7841512e-06
8.4351595e-06
1.5225284e-05
2.5911274e-05
4.0607687e-05
5.9262019e-05
8.232449e-05
0.00011142552
0.00015059167
0.00020944105
0.00031388941
0.0005545459
0.0013811859
2.6529216e-06
3.2984815e-06
5.1356108e-06
9.0687136e-06
1.6177076e-05
2.7088292e-05
4.1849523e-05
6.0427215e-05
8.3325311e-05
0.00011222155
0.00015119344
0.00020989046
0.00031426261
0.00055500316
0.0013825907
2.7848622e-06
3.5041435e-06
5.522524e-06
9.7396628e-06
1.7149745e-05
2.8259461e-05
4.3064376e-05
6.1556062e-05
8.4286602e-05
0.00011298473
0.00015177127
0.00021032528
0.00031463009
0.00055546379
0.0013840054
2.9388307e-06
3.7375706e-06
5.9457429e-06
1.0446039e-05
1.8139382e-05
2.9421734e-05
4.4251124e-05
6.2648236e-05
8.5209845e-05
0.00011371646
0.00015232628
0.00021074614
0.00031499198
0.00055592744
0.0013854292
3.1170065e-06
4.0006978e-06
6.405729e-06
1.118546e-05
1.9142098e-05
3.0572294e-05
4.540872e-05
6.370372e-05
8.6096478e-05
0.00011441804
0.00015285944
0.0002111536
0.00031534842
0.00055639378
0.0013868613
3.321629e-06
4.2953328e-06
6.9025125e-06
1.1955185e-05
2.0154121e-05
3.1708776e-05
4.6537128e-05
6.4721755e-05
8.6947829e-05
0.00011509069
0.00015337167
0.00021154817
0.00031569949
0.00055686246
0.0013883009
3.5549452e-06
4.623087e-06
7.4356644e-06
1.2752173e-05
2.1171786e-05
3.2828883e-05
4.7635201e-05
6.5703013e-05
8.7765082e-05
0.00011573554
0.00015386379
0.00021193028
0.00031604524
0.00055733312
0.0013897473
3.8191433e-06
4.9853064e-06
8.0042862e-06
1.3573149e-05
2.2191571e-05
3.3930549e-05
4.8701863e-05
6.6648327e-05
8.8549331e-05
0.00011635365
0.00015433655
0.00021230032
0.0003163857
0.00055780541
0.0013911996
4.116274e-06
5.3830029e-06
8.6070182e-06
1.4414691e-05
2.3210256e-05
3.5012494e-05
4.9735684e-05
6.7558462e-05
8.9301625e-05
0.00011694596
0.00015479063
0.00021265863
0.00031672087
0.00055827897
0.0013926572
4.4481633e-06
5.8167925e-06
9.2420581e-06
1.5273249e-05
2.4224617e-05
3.6072409e-05
5.0736631e-05
6.8434123e-05
9.0022947e-05
0.00011751336
0.00015522666
0.00021300552
0.00031705073
0.00055875344
0.0013941192
4.8163207e-06
6.2868459e-06
9.9072144e-06
1.6145325e-05
2.5232154e-05
3.7107806e-05
5.1704678e-05
6.9276e-05
9.0714207e-05
0.00011805667
0.00015564517
0.00021334124
0.00031737524
0.00055922843
0.0013955849
5.2218484e-06
6.7928502e-06
1.0599935e-05
1.7027337e-05
2.6229793e-05
3.811715e-05
5.2639822e-05
7.0084758e-05
9.1376252e-05
0.00011857661
0.00015604667
0.000213666
0.00031769432
0.00055970357
0.0013970535
5.6653621e-06
7.334002e-06
1.1317444e-05
1.7916162e-05
2.7214021e-05
3.9099331e-05
5.35421e-05
7.086103e-05
9.2009862e-05
0.00011907386
0.00015643161
0.00021397998
0.0003180079
0.00056017849
0.0013985243
6.1469268e-06
7.9090064e-06
1.2056752e-05
1.8808049e-05
2.8182133e-05
4.0053352e-05
5.4411584e-05
7.1605413e-05
9.2615757e-05
0.00011954902
0.00015680036
0.00021428331
0.00031831586
0.00056065278
0.0013999964
6.6660276e-06
8.5161463e-06
1.2814872e-05
1.9698972e-05
2.913184e-05
4.0978341e-05
5.5248368e-05
7.2318466e-05
9.3194597e-05
0.00012000265
0.00015715327
0.00021457612
0.00031861807
0.00056112606
0.0014014692
7.2216338e-06
9.153392e-06
1.3587934e-05
2.0585549e-05
3.0061056e-05
4.1873534e-05
5.6052565e-05
7.3000712e-05
9.3746978e-05
0.00012043524
0.00015749064
0.00021485846
0.00031891439
0.00056159791
0.0014029417
7.8120136e-06
9.8178779e-06
1.4372271e-05
2.14646e-05
3.0967892e-05
4.2738263e-05
5.6824296e-05
7.3652631e-05
9.4273443e-05
0.0001208472
0.0001578127
0.00021513039
0.00031920465
0.00056206791
0.0014044133
8.434712e-06
1.0506399e-05
1.5164231e-05
2.2333161e-05
3.1850646e-05
4.3571951e-05
5.7563689e-05
7.4274663e-05
9.4774477e-05
0.00012123892
0.00015811967
0.0002153919
0.00031948864
0.00056253564
0.001405883
9.0867087e-06
1.1215456e-05
1.5960232e-05
2.3188488e-05
3.2707803e-05
4.4374105e-05
5.8270875e-05
7.4867212e-05
9.525051e-05
0.00012161073
0.00015841169
0.00021564297
0.00031976617
0.00056300065
0.0014073501
9.7645077e-06
1.194134e-05
1.6756802e-05
2.4028075e-05
3.3538023e-05
4.5144309e-05
5.8945988e-05
7.5430641e-05
9.5701923e-05
0.00012196291
0.0001586889
0.00021588355
0.000320037
0.00056346249
0.0014088137
1.0464242e-05
1.2680209e-05
1.7550618e-05
2.484965e-05
3.4340139e-05
4.5882223e-05
5.9589167e-05
7.596528e-05
9.6129049e-05
0.00012229567
0.00015895136
0.00021611356
0.00032030087
0.00056392069
0.0014102728
1.1181788e-05
1.3428173e-05
1.833854e-05
2.5651177e-05
3.5113153e-05
4.6587583e-05
6.0200555e-05
7.6471429e-05
9.6532173e-05
0.00012260921
0.00015919912
0.00021633288
0.00032055752
0.00056437476
0.0014117266
1.1912875e-05
1.4181366e-05
1.9117628e-05
2.6430858e-05
3.5856231e-05
4.72602e-05
6.0780306e-05
7.6949357e-05
9.6911544e-05
0.00012290367
0.00015943219
0.00021654137
0.00032080664
0.00056482419
0.0014131742
1.2653195e-05
1.4936017e-05
1.9885166e-05
2.7187125e-05
3.6568701e-05
4.789996e-05
6.1328586e-05
7.7399315e-05
9.7267372e-05
0.00012317915
0.00015965055
0.00021673887
0.00032104792
0.00056526847
0.0014146144
1.3398502e-05
1.5688503e-05
2.0638669e-05
2.7918635e-05
3.7250045e-05
4.8506827e-05
6.184558e-05
7.7821536e-05
9.7599835e-05
0.00012343573
0.00015985412
0.00021692518
0.00032128102
0.00056570704
0.0014160462
1.4144692e-05
1.6435401e-05
2.1375894e-05
2.8624262e-05
3.7899896e-05
4.9080843e-05
6.2331495e-05
7.8216245e-05
9.790909e-05
0.00012367345
0.00016004283
0.00021710009
0.00032150558
0.00056613935
0.0014174687
1.4887876e-05
1.7173528e-05
2.2094841e-05
2.9303088e-05
3.8518032e-05
4.9622131e-05
6.278657e-05
7.8583661e-05
9.819527e-05
0.00012389233
0.00016021658
0.00021726335
0.00032172124
0.00056656482
0.0014188805
1.5624431e-05
1.7899964e-05
2.2793754e-05
2.9954389e-05
3.9104369e-05
5.0130894e-05
6.3211075e-05
7.892401e-05
9.84585e-05
0.00012409237
0.00016037523
0.00021741472
0.00032192759
0.00056698285
0.0014202806
1.6351041e-05
1.8612075e-05
2.3471115e-05
3.0577627e-05
3.9658951e-05
5.0607414e-05
6.3605322e-05
7.9237527e-05
9.8698896e-05
0.00012427356
0.00016051863
0.00021755393
0.00032212424
0.00056739283
0.0014216676
1.7064717e-05
1.9307521e-05
2.4125638e-05
3.1172434e-05
4.0181947e-05
5.1052053e-05
6.3969663e-05
7.9524463e-05
9.8916575e-05
0.00012443587
0.00016064665
0.00021768069
0.00032231077
0.00056779413
0.0014230404
1.7762816e-05
1.9984258e-05
2.475626e-05
3.1738602e-05
4.0673636e-05
5.1465249e-05
6.4304498e-05
7.9785093e-05
9.9111664e-05
0.00012457928
0.00016075911
0.00021779473
0.00032248677
0.00056818612
0.0014243976
1.8443033e-05
2.0640535e-05
2.5362127e-05
3.2276067e-05
4.1134401e-05
5.1847512e-05
6.4610274e-05
8.0019721e-05
9.9284301e-05
0.00012470378
0.00016085587
0.00021789576
0.0003226518
0.00056856815
0.0014257377
1.9103404e-05
2.1274884e-05
2.5942589e-05
3.2784896e-05
4.1564717e-05
5.2199423e-05
6.4887491e-05
8.0228683e-05
9.9434646e-05
0.00012480936
0.00016093676
0.00021798349
0.00032280546
0.00056893958
0.0014270594
1.9742287e-05
2.1886106e-05
2.6497178e-05
3.3265277e-05
4.1965143e-05
5.2521624e-05
6.5136693e-05
8.0412353e-05
9.9562885e-05
0.00012489603
0.00016100167
0.00021805766
0.00032294733
0.00056929976
0.0014283612
2.0358346e-05
2.2473256e-05
2.7025597e-05
3.3717503e-05
4.233631e-05
5.2814819e-05
6.5358478e-05
8.057114e-05
9.9669232e-05
0.00012496384
0.00016105046
0.00021811801
0.00032307702
0.00056964808
0.0014296416
2.0950528e-05
2.3035622e-05
2.7527709e-05
3.4141964e-05
4.2678913e-05
5.307976e-05
6.5553486e-05
8.07055e-05
9.9753939e-05
0.00012501284
0.00016108304
0.00021816432
0.00032319416
0.0005699839
0.0014308992
2.1518045e-05
2.3572708e-05
2.8003515e-05
3.4539129e-05
4.2993701e-05
5.3317247e-05
6.5722406e-05
8.0815927e-05
9.9817293e-05
0.00012504313
0.00016109936
0.00021819638
0.00032329839
0.00057030665
0.0014321324
2.2060341e-05
2.4084213e-05
2.8453145e-05
3.4909541e-05
4.3281467e-05
5.352812e-05
6.5865964e-05
8.0902957e-05
9.9859623e-05
0.00012505486
0.00016109938
0.00021821401
0.00032338941
0.00057061576
0.0014333396
2.2577075e-05
2.457001e-05
2.8876842e-05
3.5253805e-05
4.3543042e-05
5.371325e-05
6.5984924e-05
8.0967168e-05
9.9881299e-05
0.00012504819
0.00016108311
0.0002182171
0.00032346693
0.0005709107
0.0014345196
2.3068096e-05
2.5030125e-05
2.9274948e-05
3.5572578e-05
4.3779283e-05
5.3873535e-05
6.6080083e-05
8.1009176e-05
9.9882736e-05
0.00012502336
0.00016105062
0.00021820555
0.00032353074
0.000571191
0.0014356706
2.3533418e-05
2.5464723e-05
2.9647892e-05
3.586656e-05
4.3991072e-05
5.4009892e-05
6.6152267e-05
8.1029636e-05
9.9864388e-05
0.00012498063
0.00016100201
0.00021817933
0.00032358064
0.00057145622
0.0014367915
2.3973197e-05
2.5874085e-05
2.9996176e-05
3.6136485e-05
4.4179305e-05
5.4123255e-05
6.6202324e-05
8.1029236e-05
9.9826756e-05
0.00012492031
0.00016093743
0.00021813846
0.00032361651
0.00057170598
0.0014378807
2.4387717e-05
2.6258594e-05
3.0320367e-05
3.6383116e-05
4.4344888e-05
5.4214564e-05
6.6231122e-05
8.1008693e-05
9.9770377e-05
0.00012484277
0.00016085709
0.00021808299
0.00032363828
0.00057193997
0.001438937
2.4777365e-05
2.6618719e-05
3.0621082e-05
3.6607239e-05
4.4488729e-05
5.4284766e-05
6.6239543e-05
8.0968755e-05
9.9695831e-05
0.00012474841
0.00016076124
0.00021801307
0.00032364594
0.00057215794
0.0014399591
2.5142618e-05
2.6955001e-05
3.0898982e-05
3.6809652e-05
4.4611739e-05
5.4334806e-05
6.6228479e-05
8.0910192e-05
9.960373e-05
0.0001246377
0.0001606502
0.00021792887
0.00032363955
0.00057235971
0.001440946
2.5484028e-05
2.7268041e-05
3.1154763e-05
3.6991166e-05
4.4714824e-05
5.4365625e-05
6.6198829e-05
8.0833793e-05
9.9494724e-05
0.00012451112
0.00016052433
0.00021783064
0.00032361923
0.00057254515
0.0014418966
2.5802204e-05
2.7558486e-05
3.1389146e-05
3.7152593e-05
4.479888e-05
5.4378156e-05
6.6151492e-05
8.0740367e-05
9.9369489e-05
0.00012436923
0.00016038405
0.00021771869
0.00032358515
0.00057271424
0.0014428099
2.6097806e-05
2.7827022e-05
3.1602873e-05
3.729475e-05
4.4864796e-05
5.4373322e-05
6.6087367e-05
8.0630731e-05
9.9228732e-05
0.00012421261
0.00016022982
0.00021759336
0.00032353756
0.000572867
0.0014436852
2.6371529e-05
2.8074365e-05
3.1796697e-05
3.7418449e-05
4.4913445e-05
5.4352033e-05
6.600735e-05
8.0505714e-05
9.9073179e-05
0.00012404186
0.00016006214
0.00021745508
0.00032347678
0.00057300353
0.0014445218
2.6624099e-05
2.830125e-05
3.1971382e-05
3.7524497e-05
4.4945686e-05
5.4315181e-05
6.5912324e-05
8.0366149e-05
9.890358e-05
0.00012385764
0.00015988158
0.0002173043
0.00032340316
0.00057312402
0.0014453191
2.685626e-05
2.8508428e-05
3.2127693e-05
3.7613691e-05
4.4962361e-05
5.4263643e-05
6.5803167e-05
8.0212871e-05
9.8720697e-05
0.00012366063
0.00015968872
0.00021714154
0.00032331712
0.00057322868
0.0014460768
2.7068769e-05
2.8696655e-05
3.2266395e-05
3.7686817e-05
4.4964293e-05
5.4198274e-05
6.5680741e-05
8.0046714e-05
9.8525306e-05
0.00012345152
0.0001594842
0.00021696736
0.00032321914
0.00057331784
0.0014467945
2.726239e-05
2.8866694e-05
3.2388248e-05
3.7744649e-05
4.4952287e-05
5.411991e-05
6.5545895e-05
7.9868508e-05
9.8318193e-05
0.00012323106
0.00015926867
0.00021678236
0.00032310974
0.00057339185
0.001447472
2.7437888e-05
2.9019304e-05
3.2494004e-05
3.7787947e-05
4.4927125e-05
5.4029366e-05
6.539946e-05
7.9679076e-05
9.8100145e-05
0.00012299996
0.00015904282
0.00021658716
0.00032298948
0.00057345113
0.0014481094
2.7596028e-05
2.9155238e-05
3.2584407e-05
3.7817451e-05
4.488957e-05
5.3927435e-05
6.524225e-05
7.9479231e-05
9.7871954e-05
0.00012275899
0.00015880737
0.00021638243
0.00032285896
0.00057349614
0.0014487068
2.7737566e-05
2.9275244e-05
3.2660186e-05
3.7833889e-05
4.4840362e-05
5.3814884e-05
6.5075058e-05
7.9269775e-05
9.7634409e-05
0.00012250892
0.00015856303
0.00021616885
0.00032271881
0.00057352741
0.0014492644
2.786325e-05
2.9380056e-05
3.2722059e-05
3.7837967e-05