/*--------------------------------*- C++ -*----------------------------------*\
| =========                 |                                                 |
| \\      /  F ield         | OpenFOAM: The Open Source CFD Toolbox           |
|  \\    /   O peration     | Version:  2506                                  |
|   \\  /    A nd           | Website:  www.openfoam.com                      |
|    \\/     M anipulation  |                                                 |
\*---------------------------------------------------------------------------*/
FoamFile
{
    version     2.0;
    format      ascii;
    arch        "LSB;label=32;scalar=64";
    class       volScalarField;
    location    "30000/water";
    object      nut;
}
// * * * * * * * * * * * * * * * * * * * * * * * * * * * * * * * * * * * * * //

dimensions      [0 2 -1 0 0 0 0];

internalField   nonuniform List<scalar> 
6000
(
4.1367308e-05
4.1367285e-05
4.1367292e-05
4.1367317e-05
4.136735e-05
4.1367394e-05
4.1367445e-05
4.1367477e-05
4.1367269e-05
4.1365028e-05
4.1345959e-05
4.1185428e-05
3.984402e-05
3.0619188e-05
1.3489073e-05
4.0862094e-05
4.0862089e-05
4.0862128e-05
4.0862206e-05
4.086231e-05
4.0862441e-05
4.0862573e-05
4.0862525e-05
4.0861044e-05
4.0849566e-05
4.0769767e-05
4.0233638e-05
3.6930279e-05
2.3809326e-05
1.5168915e-05
4.0408426e-05
4.0408431e-05
4.0408496e-05
4.0408619e-05
4.040878e-05
4.0408965e-05
4.0409066e-05
4.0408421e-05
4.0403049e-05
4.0369314e-05
4.0169922e-05
3.9053519e-05
3.3674827e-05
1.9530254e-05
1.6389796e-05
3.9998212e-05
3.9998216e-05
3.9998298e-05
3.9998456e-05
3.9998657e-05
3.9998846e-05
3.9998699e-05
3.999645e-05
3.9982628e-05
3.9907469e-05
3.9519874e-05
3.7665236e-05
3.0439418e-05
1.6813321e-05
1.7227565e-05
3.9625122e-05
3.9625133e-05
3.9625231e-05
3.9625419e-05
3.9625638e-05
3.9625739e-05
3.9624947e-05
3.9619415e-05
3.959045e-05
3.9450123e-05
3.8807695e-05
3.6131535e-05
2.7477322e-05
1.5090355e-05
1.7763765e-05
3.9283984e-05
3.9284007e-05
3.9284119e-05
3.9284324e-05
3.9284521e-05
3.9284369e-05
3.9282279e-05
3.9270986e-05
3.9218236e-05
3.8986823e-05
3.8033859e-05
3.4524992e-05
2.4897642e-05
1.400968e-05
1.8072537e-05
3.8970512e-05
3.8970546e-05
3.8970668e-05
3.8970871e-05
3.8970973e-05
3.8970306e-05
3.8965958e-05
3.8945612e-05
3.8858945e-05
3.8510812e-05
3.7207229e-05
3.2908964e-05
2.2716803e-05
1.3360893e-05
1.8215906e-05
3.8681158e-05
3.8681199e-05
3.8681323e-05
3.8681493e-05
3.8681392e-05
3.8679823e-05
3.8671916e-05
3.8638477e-05
3.8506919e-05
3.801881e-05
3.6341286e-05
3.1331233e-05
2.0908463e-05
1.30184e-05
1.8243034e-05
3.841296e-05
3.8413006e-05
3.8413119e-05
3.8413209e-05
3.8412743e-05
3.8409742e-05
3.8396631e-05
3.8345462e-05
3.8157885e-05
3.7510375e-05
3.5450851e-05
2.9823717e-05
1.9431977e-05
1.2906145e-05
1.8191421e-05
3.816343e-05
3.8163474e-05
3.8163556e-05
3.8163497e-05
3.8162446e-05
3.8157327e-05
3.8137042e-05
3.8063106e-05
3.7808869e-05
3.6987081e-05
3.454982e-05
2.8405299e-05
1.8246291e-05
1.2977275e-05
1.8088864e-05
3.7930457e-05
3.7930491e-05
3.7930513e-05
3.793021e-05
3.7928279e-05
3.7920197e-05
3.7890497e-05
3.7788579e-05
3.7458031e-05
3.6451747e-05
3.3649968e-05
2.7085594e-05
1.7315649e-05
1.3202297e-05
1.7955551e-05
3.7712242e-05
3.7712253e-05
3.7712173e-05
3.7711499e-05
3.7708322e-05
3.7696279e-05
3.7654711e-05
3.7519641e-05
3.7104472e-05
3.5907781e-05
3.2760531e-05
2.58684e-05
1.6611172e-05
1.3561911e-05
1.7805936e-05
3.7507239e-05
3.7507212e-05
3.7506973e-05
3.7505765e-05
3.7500895e-05
3.7483757e-05
3.7427744e-05
3.725459e-05
3.6748014e-05
3.5358688e-05
3.188827e-05
2.4754408e-05
1.6110613e-05
1.4042468e-05
1.7650267e-05
3.7314115e-05
3.7314026e-05
3.7313557e-05
3.7311613e-05
3.7304527e-05
3.7281048e-05
3.7207963e-05
3.6992195e-05
3.6389e-05
3.4807726e-05
3.1037799e-05
2.3743174e-05
1.5797412e-05
1.4632945e-05
1.7495753e-05
3.7131708e-05
3.713153e-05
3.7130739e-05
3.7127817e-05
3.7117921e-05
3.7086772e-05
3.6994026e-05
3.6731629e-05
3.6028109e-05
3.4257704e-05
3.0212055e-05
2.2834479e-05
1.5659519e-05
1.5322866e-05
1.7347422e-05
3.6959006e-05
3.6958703e-05
3.6957478e-05
3.6953298e-05
3.6939934e-05
3.6899735e-05
3.6784847e-05
3.64724e-05
3.5666203e-05
3.3710866e-05
2.9412801e-05
2.2029191e-05
1.5688155e-05
1.6100896e-05
1.7208725e-05
3.6795116e-05
3.6794644e-05
3.6792855e-05
3.6787094e-05
3.6769555e-05
3.6718912e-05
3.6579574e-05
3.6214282e-05
3.5304204e-05
3.3168861e-05
2.8641157e-05
2.132974e-05
1.587657e-05
1.695401e-05
1.7081944e-05
3.6639251e-05
3.6638559e-05
3.6636051e-05
3.6628355e-05
3.6605895e-05
3.6543431e-05
3.637756e-05
3.5957252e-05
3.4942996e-05
3.2632763e-05
2.789813e-05
2.0740252e-05
1.6218811e-05
1.7867211e-05
1.6968459e-05
3.6490711e-05
3.6489738e-05
3.6486338e-05
3.6476321e-05
3.6448171e-05
3.6372563e-05
3.6178336e-05
3.5701433e-05
3.4583359e-05
3.2103134e-05
2.7185145e-05
2.0266398e-05
1.6708562e-05
1.8823777e-05
1.6868922e-05
3.6348869e-05
3.6347546e-05
3.6343063e-05
3.6330312e-05
3.62957e-05
3.6205706e-05
3.5981587e-05
3.5447046e-05
3.4225914e-05
3.1580129e-05
2.6504571e-05
1.991497e-05
1.7338099e-05
1.9805967e-05
1.6783375e-05
3.6213165e-05
3.6211415e-05
3.6205638e-05
3.6189726e-05
3.6147887e-05
3.6042373e-05
3.5787125e-05
3.5194368e-05
3.3871092e-05
3.1063631e-05
2.5860194e-05
1.9693245e-05
1.8097487e-05
2.0796033e-05
1.6711346e-05
3.6083093e-05
3.6080831e-05
3.6073537e-05
3.6054024e-05
3.6004223e-05
3.5882185e-05
3.5594869e-05
3.4943693e-05
3.3519118e-05
3.0553441e-05
2.5257605e-05
1.96082e-05
1.8974102e-05
2.1777346e-05
1.6651939e-05
3.5958194e-05
3.5955329e-05
3.5946284e-05
3.592273e-05
3.5864274e-05
3.5724854e-05
3.5404824e-05
3.4695304e-05
3.3170007e-05
3.0049498e-05
2.4704419e-05
1.9665646e-05
1.9952579e-05
2.2735414e-05
1.660395e-05
3.5838054e-05
3.5834489e-05
3.582345e-05
3.5795422e-05
3.5727676e-05
3.5570179e-05
3.521706e-05
3.444945e-05
3.2823581e-05
2.9552162e-05
2.4210265e-05
1.9869402e-05
2.1015194e-05
2.3658589e-05
1.6565971e-05
3.5722292e-05
3.5717927e-05
3.5704651e-05
3.5671733e-05
3.5594133e-05
3.5418031e-05
3.50317e-05
3.4206321e-05
3.2479493e-05
2.9062524e-05
2.3786503e-05
2.022057e-05
2.2142641e-05
2.4538397e-05
1.6536511e-05
3.5610563e-05
3.5605296e-05
3.558954e-05
3.5551342e-05
3.5463408e-05
3.5268352e-05
3.48489e-05
3.3966035e-05
3.2137286e-05
2.858275e-05
2.3445668e-05
2.0717024e-05
2.3315071e-05
2.5369467e-05
1.6514097e-05
3.5502551e-05
3.549628e-05
3.5477808e-05
3.5433974e-05
3.5335321e-05
3.5121137e-05
3.466884e-05
3.3728621e-05
3.1796463e-05
2.8116417e-05
2.3200675e-05
2.1353141e-05
2.4513224e-05
2.6149157e-05
1.6497357e-05
3.5397967e-05
3.539059e-05
3.536918e-05
3.5319398e-05
3.5209747e-05
3.4976437e-05
3.4491706e-05
3.3494016e-05
3.14566e-05
2.7668794e-05
2.3063903e-05
2.2119832e-05
2.5719465e-05
2.6877012e-05
1.6485071e-05
3.5296546e-05
3.5287966e-05
3.5263414e-05
3.5207424e-05
3.5086609e-05
3.4834344e-05
3.4317681e-05
3.3262058e-05
3.1117487e-05
2.7247026e-05
2.3046253e-05
2.3004861e-05
2.6918581e-05
2.7554165e-05
1.6476201e-05
3.5198047e-05
3.5188175e-05
3.5160297e-05
3.5097901e-05
3.4965875e-05
3.4694991e-05
3.4146934e-05
3.3032492e-05
3.0779305e-05
2.6860148e-05
2.3156314e-05
2.3993437e-05
2.8098247e-05
2.8182808e-05
1.6469894e-05
3.5102251e-05
3.5091004e-05
3.5059649e-05
3.4990715e-05
3.4847558e-05
3.4558539e-05
3.3979609e-05
3.2804987e-05
3.0442843e-05
2.6518901e-05
2.3399716e-05
2.5069007e-05
2.9249139e-05
2.8765761e-05
1.6465472e-05
3.5008959e-05
3.4996268e-05
3.4961317e-05
3.488579e-05
3.4731711e-05
3.4425177e-05
3.3815813e-05
3.2579164e-05
3.0109732e-05
2.6235323e-05
2.3778716e-05
2.6214168e-05
3.0364755e-05
2.9306158e-05
1.646241e-05
3.4917993e-05
3.4903801e-05
3.4865175e-05
3.4783085e-05
3.4618425e-05
3.4295113e-05
3.3655609e-05
3.235464e-05
2.9782687e-05
2.6022142e-05
2.4292059e-05
2.7411591e-05
3.1441033e-05
2.9807247e-05
1.6460314e-05
3.4829195e-05
3.4813462e-05
3.4771128e-05
3.4682592e-05
3.4507829e-05
3.416857e-05
3.3499011e-05
3.2131095e-05
2.9465731e-05
2.589204e-05
2.4935072e-05
2.8644858e-05
3.2475855e-05
3.0272255e-05
1.6458891e-05
3.4742423e-05
3.4725129e-05
3.4679107e-05
3.4584339e-05
3.4400083e-05
3.4045774e-05
3.3345975e-05
3.1908364e-05
2.9164362e-05
2.5856856e-05
2.569999e-05
2.9899123e-05
3.3468557e-05
3.0704313e-05
1.6457936e-05
3.465756e-05
3.4638706e-05
3.4589068e-05
3.4488387e-05
3.4295378e-05
3.3926957e-05
3.3196403e-05
3.1686556e-05
2.8885627e-05
2.5926837e-05
2.6576455e-05
3.1161548e-05
3.4419484e-05
3.1106401e-05
1.6457305e-05
3.4574503e-05
3.4554114e-05
3.4500999e-05
3.4394828e-05
3.4193938e-05
3.381234e-05
3.3050148e-05
3.1466195e-05
2.8638063e-05
2.6110007e-05
2.7552146e-05
3.2421502e-05
3.5329635e-05
3.1481314e-05
1.6456902e-05
3.4493171e-05
3.4471301e-05
3.4414911e-05
3.4303789e-05
3.409601e-05
3.3702133e-05
3.2907027e-05
3.1248389e-05
2.8431491e-05
2.6411715e-05
2.8613481e-05
3.3670554e-05
3.6200408e-05
3.1831643e-05
1.6456669e-05
3.4413502e-05
3.4390234e-05
3.4330848e-05
3.4215429e-05
3.4001867e-05
3.3596524e-05
3.2766849e-05
3.1035013e-05
2.8276656e-05
2.683439e-05
2.974633e-05
3.4902296e-05
3.7033429e-05
3.2159762e-05
1.6456572e-05
3.4335456e-05
3.4310905e-05
3.4248878e-05
3.4129939e-05
3.3911801e-05
3.3495676e-05
3.2629453e-05
3.0828885e-05
2.8184729e-05
2.7377498e-05
3.0936677e-05
3.6112068e-05
3.7830437e-05
3.2467823e-05
1.6456596e-05
3.4259011e-05
3.423333e-05
3.4169102e-05
3.4047543e-05
3.3826124e-05
3.3399718e-05
3.2494766e-05
3.0633922e-05
2.8166731e-05
2.803769e-05
3.2171191e-05
3.7296635e-05
3.8593222e-05
3.2757762e-05
1.6456739e-05
3.4184168e-05
3.4157548e-05
3.409165e-05
3.3968498e-05
3.3745158e-05
3.3308744e-05
3.236288e-05
3.0455254e-05
2.8232925e-05
2.8809104e-05
3.3437646e-05
3.8453878e-05
3.9323575e-05
3.3031311e-05
1.6457005e-05
3.4110952e-05
3.4083626e-05
3.4016682e-05
3.3893092e-05
3.3669236e-05
3.3222814e-05
3.2234152e-05
3.0299252e-05
2.8392245e-05
2.9683787e-05
3.472521e-05
3.9582512e-05
4.0023268e-05
3.3290008e-05
1.6457402e-05
3.4039411e-05
3.4011658e-05
3.3944392e-05
3.3821645e-05
3.3598692e-05
3.3141955e-05
3.210932e-05
3.0173466e-05
2.865182e-05
3.0652194e-05
3.602457e-05
4.0681866e-05
4.0694025e-05
3.3535219e-05
1.6457942e-05
3.3969616e-05
3.3941763e-05
3.3875008e-05
3.3754507e-05
3.3533859e-05
3.306618e-05
3.1989642e-05
3.0086446e-05
2.9016625e-05
3.1703717e-05
3.7327932e-05
4.175171e-05
4.1337506e-05
3.3768155e-05
1.6458635e-05
3.3901667e-05
3.3874095e-05
3.3808792e-05
3.369206e-05
3.3475059e-05
3.2995507e-05
3.187704e-05
3.0047454e-05
2.9489291e-05
3.2827217e-05
3.8628935e-05
4.2792132e-05
4.1955298e-05
3.3989887e-05
1.6459492e-05
3.3835691e-05
3.3808835e-05
3.3746042e-05
3.3634709e-05
3.3422602e-05
3.2929991e-05
3.1774238e-05
3.0066081e-05
3.0070059e-05
3.4011503e-05
3.9922487e-05
4.3803456e-05
4.2548901e-05
3.4201364e-05
1.646052e-05
3.3771846e-05
3.3746203e-05
3.3687095e-05
3.358289e-05
3.3376778e-05
3.2869781e-05
3.1684886e-05
3.0151793e-05
3.0756886e-05
3.5245742e-05
4.1204582e-05
4.4786178e-05
4.3119728e-05
3.4403428e-05
1.6461728e-05
3.3710322e-05
3.3686449e-05
3.3632325e-05
3.3537056e-05
3.3337853e-05
3.2815181e-05
3.1613639e-05
3.0313469e-05
3.154566e-05
3.6519779e-05
4.2472111e-05
4.5740919e-05
4.3669101e-05
3.4596827e-05
1.6463121e-05
3.3651343e-05
3.3629867e-05
3.3582146e-05
3.3497683e-05
3.3306071e-05
3.2766737e-05
3.1566178e-05
3.0558946e-05
3.2430519e-05
3.7824349e-05
4.3722694e-05
4.6668397e-05
4.4198255e-05
3.4782225e-05
1.6464701e-05
3.359517e-05
3.3576787e-05
3.3537014e-05
3.3465257e-05
3.328166e-05
3.272534e-05
3.1549149e-05
3.089464e-05
3.3404216e-05
3.9151207e-05
4.4954529e-05
4.7569394e-05
4.4708338e-05
3.4960217e-05
1.6466471e-05
3.3542107e-05
3.3527584e-05
3.3497423e-05
3.3440275e-05
3.3264839e-05
3.2692338e-05
3.1570025e-05
3.1325254e-05
3.4458519e-05
4.0493152e-05
4.6166274e-05
4.8444733e-05
4.520042e-05
3.5131333e-05
1.6468431e-05
3.3492497e-05
3.3482682e-05
3.346391e-05
3.3423239e-05
3.3255839e-05
3.2669663e-05
3.1636872e-05
3.1853605e-05
3.5584609e-05
4.1844009e-05
4.7356959e-05
4.9295261e-05
4.5675493e-05
3.5296047e-05
1.647058e-05
3.3446735e-05
3.3442549e-05
3.3437051e-05
3.3414644e-05
3.3254938e-05
3.265994e-05
3.175804e-05
3.248056e-05
3.6773451e-05
4.3198547e-05
4.852591e-05
5.0121834e-05
4.613448e-05
3.5454787e-05
1.6472917e-05
3.3405264e-05
3.3407707e-05
3.3417461e-05
3.3414983e-05
3.3262502e-05
3.2666595e-05
3.1941807e-05
3.3205092e-05
3.8016108e-05
4.4552377e-05
4.9672694e-05
5.0925299e-05
4.6578239e-05
3.5607939e-05
1.6475438e-05
3.3368581e-05
3.3378733e-05
3.3405791e-05
3.3424736e-05
3.3279047e-05
3.2693914e-05
3.2196e-05
3.4024428e-05
3.9304003e-05
4.5901848e-05
5.0797075e-05
5.1706494e-05
4.7007566e-05
3.575585e-05
1.6478139e-05
3.3337244e-05
3.3356261e-05
3.3402727e-05
3.3444374e-05
3.3305315e-05
3.2747059e-05
3.2527626e-05
3.4934271e-05
4.0629105e-05
4.7243935e-05
5.1898981e-05
5.2466236e-05
4.7423202e-05
3.5898837e-05
1.6481016e-05
3.3311875e-05
3.3340983e-05
3.3408981e-05
3.3474361e-05
3.3342364e-05
3.2832019e-05
3.2942551e-05
3.5929079e-05
4.198405e-05
4.8576142e-05
5.2978465e-05
5.3205319e-05
4.7825837e-05
3.6037187e-05
1.6484065e-05
3.3293163e-05
3.3333652e-05
3.3425294e-05
3.3515164e-05
3.3391671e-05
3.2955491e-05
3.3445244e-05
3.7002372e-05
4.33622e-05
4.9896423e-05
5.4035687e-05
5.3924509e-05
4.8216109e-05
3.6171162e-05
1.6487281e-05
3.328187e-05
3.3335086e-05
3.3452426e-05
3.3567274e-05
3.3455239e-05
3.3124682e-05
3.4038614e-05
3.8147038e-05
4.4757657e-05
5.1203106e-05
5.5070889e-05
5.4624546e-05
4.8594617e-05
3.6301001e-05
1.6490657e-05
3.3278836e-05
3.3346162e-05
3.3491149e-05
3.3631234e-05
3.35357e-05
3.3347054e-05
3.4723935e-05
3.9355629e-05
4.6165237e-05
5.2494839e-05
5.6084375e-05
5.5306141e-05
4.8961916e-05
3.6426926e-05
1.6494188e-05
3.3284986e-05
3.3367825e-05
3.3542247e-05
3.3707684e-05
3.3636395e-05
3.3630026e-05
3.5500864e-05
4.062062e-05
4.7580416e-05
5.3770539e-05
5.7076497e-05
5.5969976e-05
4.9318532e-05
3.6549144e-05
1.649787e-05
3.3301328e-05
3.3401078e-05
3.3606514e-05
3.3797416e-05
3.3761436e-05
3.3980652e-05
3.636754e-05
4.1934631e-05
4.8999276e-05
5.5029352e-05
5.8047641e-05
5.6616683e-05
4.9664842e-05
3.6667085e-05
1.6501694e-05
3.3328964e-05
3.3446985e-05
3.3684746e-05
3.3901446e-05
3.3915706e-05
3.4405302e-05
3.7320748e-05
4.3290592e-05
5.0418435e-05
5.6270618e-05
5.8998211e-05
5.7246856e-05
5.0001247e-05
3.6781086e-05
1.6505652e-05
3.3369088e-05
3.3506668e-05
3.3777754e-05
3.4021101e-05
3.4104816e-05
3.4909386e-05
3.835613e-05
4.4681864e-05
5.183498e-05
5.7493836e-05
5.9928623e-05
5.7861066e-05
5.032815e-05
3.6891452e-05
1.6509737e-05
3.3422991e-05
3.3581299e-05
3.3886372e-05
3.4158115e-05
3.4334992e-05
3.5497125e-05
3.9468432e-05
4.6102311e-05
5.3246412e-05
5.8698644e-05
6.0839309e-05
5.8459868e-05
5.0645963e-05
3.699845e-05
1.6513939e-05
3.3492061e-05
3.3672101e-05
3.4011479e-05
3.4314724e-05
3.4612902e-05
3.6171394e-05
4.0651745e-05
4.7546334e-05
5.4650594e-05
5.9884794e-05
6.1730696e-05
5.9043738e-05
5.0954645e-05
3.7102367e-05
1.6518251e-05
3.3577784e-05
3.3780338e-05
3.4154027e-05
3.4493757e-05
3.4945425e-05
3.6933646e-05
4.1899756e-05
4.9008878e-05
5.6045699e-05
6.105213e-05
6.2603209e-05
5.961312e-05
5.1254413e-05
3.7203364e-05
1.6522664e-05
3.3681741e-05
3.3907315e-05
3.4315092e-05
3.4698711e-05
3.5339385e-05
3.7783907e-05
4.3205963e-05
5.0485412e-05
5.7430177e-05
6.2200575e-05
6.3457265e-05
6.0168471e-05
5.1545767e-05
3.7301529e-05
1.6527174e-05
3.3805608e-05
3.4054377e-05
3.4495928e-05
3.4933791e-05
3.5801263e-05
3.8720847e-05
4.4563867e-05
5.1971898e-05
5.8802713e-05
6.3330117e-05
6.4293286e-05
6.0710257e-05
5.1829146e-05
3.739697e-05
1.6531776e-05
3.3951146e-05
3.422291e-05
3.4698048e-05
3.5203903e-05
3.6336918e-05
3.9741906e-05
4.5967122e-05
5.3464753e-05
6.01622e-05
6.4440795e-05
6.5111679e-05
6.1238807e-05
5.2104955e-05
3.7489814e-05
1.6536466e-05
3.4120202e-05
3.441435e-05
3.4923302e-05
3.55146e-05
3.6951335e-05
4.0843467e-05
4.7409655e-05
5.4960809e-05
6.1507711e-05
6.5532692e-05
6.5912791e-05
6.1754109e-05
5.237358e-05
3.7580208e-05
1.6541242e-05
3.4314702e-05
3.4630205e-05
3.5173976e-05
3.5871962e-05
3.7648418e-05
4.2021055e-05
4.888574e-05
5.645727e-05
6.2838472e-05
6.6605914e-05
6.6696988e-05
6.2256733e-05
5.2635229e-05
3.7668257e-05
1.65461e-05
3.4536645e-05
3.4872081e-05
3.5452878e-05
3.6282422e-05
3.843085e-05
4.3269545e-05
5.0390046e-05
5.7951674e-05
6.4153839e-05
6.7660598e-05
6.7464654e-05
6.2747192e-05
5.2890121e-05
3.7754046e-05
1.6551039e-05
3.4788105e-05
3.5141727e-05
3.5763421e-05
3.6752543e-05
3.9300015e-05
4.458337e-05
5.191766e-05
5.9441858e-05
6.5453281e-05
6.8696909e-05
6.8216187e-05
6.3225946e-05
5.3138487e-05
3.7837655e-05
1.6556054e-05
3.5071235e-05
3.544109e-05
3.6109675e-05
3.7288761e-05
4.0255993e-05
4.5956715e-05
5.3464089e-05
6.0925926e-05
6.6736373e-05
6.9714991e-05
6.8951485e-05
6.3693458e-05
5.3380577e-05
3.7919179e-05
1.6561141e-05
3.5388283e-05
3.5772393e-05
3.6496382e-05
3.7897119e-05
4.1297619e-05
4.7383682e-05
5.5025244e-05
6.2402216e-05
6.8002757e-05
7.0714997e-05
6.9671028e-05
6.4150036e-05
5.3616598e-05
3.7998705e-05
1.6566298e-05
3.5741615e-05
3.6138216e-05
3.6928925e-05
3.8583003e-05
4.2422588e-05
4.8858429e-05
5.6597424e-05
6.386927e-05
6.9252143e-05
7.1697117e-05
7.0375289e-05
6.4595982e-05
5.384674e-05
3.8076309e-05
1.6571522e-05
3.6133754e-05
3.6541586e-05
3.7413235e-05
3.9350918e-05
4.3627609e-05
5.037528e-05
5.8177286e-05
6.532581e-05
7.0484304e-05
7.2661575e-05
7.1064704e-05
6.5031592e-05
5.4071178e-05
3.8152054e-05
1.6576808e-05
3.656744e-05
3.6986066e-05
3.7955643e-05
4.0204302e-05
4.490858e-05
5.1928802e-05
5.9761825e-05
6.6770731e-05
7.1699055e-05
7.360822e-05
7.1739654e-05
6.5457163e-05
5.4290105e-05
3.8226003e-05
1.6582153e-05
3.7045692e-05
3.7475825e-05
3.8562679e-05
4.1145405e-05
4.6260769e-05
5.351386e-05
6.1348337e-05
6.8203053e-05
7.2896224e-05
7.4537352e-05
7.240049e-05
6.5872959e-05
5.4503697e-05
3.8298217e-05
1.6587554e-05
3.7571898e-05
3.8015677e-05
3.9240828e-05
4.2175232e-05
4.7679002e-05
5.5125641e-05
6.2934389e-05
6.9621908e-05
7.4075696e-05
7.5449298e-05
7.3047529e-05
6.6279229e-05
5.4712112e-05
3.8368751e-05
1.6593007e-05
3.8149889e-05
3.8611083e-05
3.9996265e-05
4.3293548e-05
4.9157829e-05
5.6759671e-05
6.45178e-05
7.1026541e-05
7.523733e-05
7.6344338e-05
7.3681071e-05
6.6676214e-05
5.4915498e-05
3.8437653e-05
1.659851e-05
3.8784022e-05
3.9268084e-05
4.0834595e-05
4.4498941e-05
5.0691679e-05
5.8411818e-05
6.6096616e-05
7.2416284e-05
7.6380916e-05
7.722272e-05
7.430139e-05
6.7064157e-05
5.5113997e-05
3.8504971e-05
1.6604058e-05
3.9479224e-05
3.9993181e-05
4.1760601e-05
4.5788935e-05
5.2274983e-05
6.0078272e-05
6.7669068e-05
7.3790513e-05
7.7506476e-05
7.8084749e-05
7.4908751e-05
6.7443282e-05
5.5307741e-05
3.8570745e-05
1.6609648e-05
4.0241e-05
4.0793144e-05
4.2778048e-05
4.7160132e-05
5.3902271e-05
6.1755529e-05
6.9233551e-05
7.5148695e-05
7.8614099e-05
7.8930681e-05
7.5503407e-05
6.7813795e-05
5.5496854e-05
3.8635014e-05
1.6615277e-05
4.107538e-05
4.1674769e-05
4.3889531e-05
4.8608379e-05
5.5568254e-05
6.3440395e-05
7.0788661e-05
7.6490228e-05
7.9703714e-05
7.976072e-05
7.6085607e-05
6.8175894e-05
5.5681451e-05
3.8697815e-05
1.6620943e-05
4.1988793e-05
4.264459e-05
4.5096388e-05
5.0128939e-05
5.7267868e-05
6.5129928e-05
7.2333052e-05
7.7814648e-05
8.0775513e-05
8.0575069e-05
7.665559e-05
6.8529764e-05
5.586164e-05
3.8759179e-05
1.662664e-05
4.2987862e-05
4.3708575e-05
4.6398677e-05
5.1716654e-05
5.8996303e-05
6.6821415e-05
7.3865502e-05
7.9121643e-05
8.1829629e-05
8.137393e-05
7.7213572e-05
6.8875582e-05
5.6037521e-05
3.8819136e-05
1.6632367e-05
4.4079125e-05
4.4871821e-05
4.7795216e-05
5.3366106e-05
6.0749042e-05
6.8512419e-05
7.538487e-05
8.0410742e-05
8.2866112e-05
8.2157498e-05
7.7759759e-05
6.9213507e-05
5.6209185e-05
3.8877712e-05
1.663812e-05
4.5268699e-05
4.6138287e-05
4.9283664e-05
5.5071742e-05
6.2521825e-05
7.0200618e-05
7.6890057e-05
8.168185e-05
8.3885022e-05
8.2925959e-05
7.8294346e-05
6.9543692e-05
5.6376718e-05
3.8934931e-05
1.6643896e-05
4.6561913e-05
4.7510563e-05
5.0860642e-05
5.6827981e-05
6.4310659e-05
7.1883863e-05
7.8380118e-05
8.293484e-05
8.4886427e-05
8.3679478e-05
7.8817512e-05
6.9866275e-05
5.6540197e-05
3.8990815e-05
1.6649692e-05
4.7962932e-05
4.8989718e-05
5.2521887e-05
5.8629319e-05
6.6111854e-05
7.3560182e-05
7.9854031e-05
8.416949e-05
8.587039e-05
8.4418212e-05
7.9329422e-05
7.0181384e-05
5.6699694e-05
3.9045382e-05
1.6655504e-05
4.9474422e-05
5.0575203e-05
5.4262391e-05
6.0470345e-05
6.792186e-05
7.5227616e-05
8.1311308e-05
8.5385617e-05
8.6836963e-05
8.5142302e-05
7.9830228e-05
7.0489137e-05
5.6855272e-05
3.9098649e-05
1.6661331e-05
5.1097284e-05
5.2264843e-05
5.6076569e-05
6.2345854e-05
6.9737409e-05
7.688421e-05
8.2751322e-05
8.6583046e-05
8.7786185e-05
8.5851874e-05
8.0320066e-05
7.078964e-05
5.700699e-05
3.915063e-05
1.6667168e-05
5.2830469e-05
5.4054884e-05
5.795837e-05
6.425074e-05
7.1555273e-05
7.852857e-05
8.4173465e-05
8.77616e-05
8.8718084e-05
8.6547038e-05
8.0799058e-05
7.1082987e-05
5.7154897e-05
3.9201336e-05
1.6673012e-05
5.4670919e-05
5.5940113e-05
5.9901436e-05
6.6180113e-05
7.3372216e-05
8.0159402e-05
8.5577159e-05
8.8921101e-05
8.9632673e-05
8.7227887e-05
8.1267312e-05
7.1369264e-05
5.729904e-05
3.9250776e-05
1.6678861e-05
5.6613604e-05
5.7913994e-05
6.1899104e-05
6.8129045e-05
7.5185661e-05
8.1775445e-05
8.6961846e-05
9.0061358e-05
9.0529949e-05
8.7894495e-05
8.172492e-05
7.1648542e-05
5.7439457e-05
3.9298958e-05
1.6684711e-05
5.8651679e-05
5.9968858e-05
6.3944494e-05
7.0092735e-05
7.6993233e-05
8.33755e-05
8.832698e-05
9.1182173e-05
9.1409887e-05
8.854692e-05
8.2171958e-05
7.1920884e-05
5.7576179e-05
3.9345886e-05
1.669056e-05
6.0776667e-05
6.2095978e-05
6.6030453e-05
7.2067013e-05
7.8792675e-05
8.4958416e-05
8.967202e-05
9.2283332e-05
9.2272447e-05
8.9185198e-05
8.2608487e-05
7.218634e-05
5.7709232e-05
3.9391562e-05
1.6696403e-05
6.2978657e-05
6.4285944e-05
6.8150139e-05
7.4047864e-05
8.0581833e-05
8.6523086e-05
9.0996427e-05
9.3364608e-05
9.3117567e-05
8.9809348e-05
8.3034552e-05
7.2444951e-05
5.7838636e-05
3.9435986e-05
1.6702239e-05
6.5246778e-05
6.6528942e-05
7.0296759e-05
7.6031411e-05
8.2358644e-05
8.8068435e-05
9.2299662e-05
9.4425755e-05
9.394516e-05
9.0419365e-05
8.345018e-05
7.2696743e-05
5.7964403e-05
3.9479157e-05
1.6708063e-05
6.7569574e-05
6.8814949e-05
7.2463607e-05
7.8013905e-05
8.4121124e-05
8.9593417e-05
9.358118e-05
9.5466508e-05
9.4755122e-05
9.1015228e-05
8.3855385e-05
7.2941734e-05
5.8086539e-05
3.9521068e-05
1.6713873e-05
6.9935361e-05
7.1133924e-05
7.46441e-05
7.9991714e-05
8.5867354e-05
9.1097007e-05
9.4840431e-05
9.6486585e-05
9.5547321e-05
9.1596891e-05
8.425016e-05
7.3179929e-05
5.8205044e-05
3.9561713e-05
1.6719665e-05
7.2332539e-05
7.3475993e-05
7.6831817e-05
8.1961315e-05
8.7595477e-05
9.25782e-05
9.6076859e-05
9.7485682e-05
9.6321607e-05
9.2164289e-05
8.4634484e-05
7.3411321e-05
5.8319911e-05
3.9601082e-05
1.6725435e-05
7.4749856e-05
7.5831607e-05
7.9020536e-05
8.391929e-05
8.9303686e-05
9.4036008e-05
9.7289902e-05
9.846348e-05
9.7077806e-05
9.2717337e-05
8.5008319e-05
7.3635891e-05
5.8431127e-05
3.9639163e-05
1.6731181e-05
7.7176612e-05
7.8191668e-05
8.1204274e-05
8.5862328e-05
9.0990225e-05
9.546946e-05
9.8478995e-05
9.9419644e-05
9.7815724e-05
9.3255929e-05
8.537161e-05
7.3853611e-05
5.8538672e-05
3.9675941e-05
1.6736897e-05
7.9602815e-05
8.0547628e-05
8.3377322e-05
8.7787229e-05
9.2653382e-05
9.68776e-05
9.9643569e-05
0.00010035382
9.853515e-05
9.3779942e-05
8.5724289e-05
7.406444e-05
5.8642519e-05
3.9711399e-05
1.6742581e-05
8.2019275e-05
8.2891569e-05
8.5534281e-05
8.9690912e-05
9.4291498e-05
9.8259495e-05
0.00010078306
0.00010126566
9.9235856e-05
9.4289235e-05
8.6066269e-05
7.4268326e-05
5.8742637e-05
3.9745519e-05
1.6748228e-05
8.4417666e-05
8.5216239e-05
8.7670089e-05
9.157043e-05
9.5902963e-05
9.9614232e-05
0.0001018969
0.00010215479
9.99176e-05
9.4783652e-05
8.6397454e-05
7.4465209e-05
5.8838987e-05
3.9778278e-05
1.6753834e-05
8.6790542e-05
8.7515086e-05
8.9780051e-05
9.3422976e-05
9.7486228e-05
0.00010094092
0.00010298454
0.00010302084
0.00010058013
9.5263026e-05
8.6717734e-05
7.4655018e-05
5.8931525e-05
3.9809652e-05
1.6759394e-05
8.9131331e-05
8.9782253e-05
9.1859851e-05
9.5245903e-05
9.9039806e-05
0.00010223872
0.00010404545
0.00010386346
0.0001012232
9.5727179e-05
8.7026989e-05
7.4837675e-05
5.9020202e-05
3.9839616e-05
1.6764905e-05
9.1434297e-05
9.201257e-05
9.3905567e-05
9.7036733e-05
0.00010056228
0.0001035068
0.00010507911
0.00010468227
0.00010184654
9.6175928e-05
8.7325091e-05
7.5013094e-05
5.9104964e-05
3.9868142e-05
1.6770361e-05
9.3694501e-05
9.420153e-05
9.5913672e-05
9.879317e-05
0.00010205233
0.00010474439
0.00010608502
0.00010547694
0.0001024499
9.6609085e-05
8.7611907e-05
7.5181185e-05
5.9185756e-05
3.9895202e-05
1.6775757e-05
9.5907744e-05
9.6345248e-05
9.7881037e-05
0.00010051311
0.00010350869
0.00010595076
0.00010706273
0.00010624714
0.00010303304
9.7026465e-05
8.7887301e-05
7.5341853e-05
5.9262518e-05
3.9920766e-05
1.6781088e-05
9.8070503e-05
9.8440429e-05
9.9804916e-05
0.00010219464
0.00010493022
0.00010712525
0.00010801181
0.00010699256
0.00010359572
9.7427887e-05
8.8151138e-05
7.5495003e-05
5.9335188e-05
3.9944802e-05
1.678635e-05
0.00010017987
0.00010048432
0.00010168294
0.00010383607
0.00010631587
0.00010826724
0.00010893188
0.00010771294
0.00010413773
9.781318e-05
8.8403283e-05
7.5640537e-05
5.9403705e-05
3.9967281e-05
1.6791535e-05
0.00010223351
0.00010247466
0.00010351309
0.00010543588
0.00010766471
0.00010937618
0.0001098226
0.00010840804
0.00010465887
9.8182183e-05
8.8643611e-05
7.5778363e-05
5.9468008e-05
3.9988172e-05
1.6796639e-05
0.00010422955
0.00010440964
0.0001052937
0.00010699279
0.00010897589
0.0001104516
0.00011068368
0.00010907764
0.00010515898
9.8534755e-05
8.8872003e-05
7.5908392e-05
5.9528037e-05
4.0007445e-05
1.6801657e-05
0.0001061666
0.00010628786
0.0001070234
0.0001085057
0.00011024872
0.00011149307
0.00011151488
0.00010972159
0.00010563793
9.8870774e-05
8.9088356e-05
7.603054e-05
5.9583739e-05
4.0025073e-05
1.6806582e-05
0.00010804362
0.00010810829
0.00010870113
0.00010997369
0.00011148258
0.00011250028
0.00011231602
0.00011033975
0.0001060956
9.9190141e-05
8.9292579e-05
7.6144735e-05
5.9635061e-05
4.004103e-05
1.6811409e-05
0.00010985995
0.00010987021
0.0001103261
0.00011139607
0.000112677
0.00011347296
0.00011308698
0.00011093207
0.00010653193
9.9492784e-05
8.94846e-05
7.6250914e-05
5.9681959e-05
4.0055294e-05
1.6816131e-05
0.0001116152
0.00011157319
0.00011189775
0.00011277229
0.00011383162
0.00011441093
0.00011382768
0.00011149851
0.00010694689
9.9778662e-05
8.9664369e-05
7.6349029e-05
5.9724397e-05
4.0067844e-05
1.6820744e-05
0.00011330927
0.00011321705
0.00011341576
0.00011410197
0.00011494616
0.00011531409
0.00011453812
0.00011203909
0.0001073405
0.00010004776
8.9831858e-05
7.6439045e-05
5.9762347e-05
4.0078665e-05
1.6825242e-05
0.00011494226
0.00011480186
0.00011488001
0.00011538492
0.00011602049
0.0001161824
0.00011521834
0.00011255387
0.0001077128
0.00010030011
8.9987062e-05
7.6520945e-05
5.979579e-05
4.0087746e-05
1.682962e-05
0.0001165145
0.00011632785
0.00011629055
0.00011662106
0.00011705457
0.00011701591
0.00011586846
0.00011304299
0.00010806389
0.00010053576
9.0130005e-05
7.659473e-05
5.9824718e-05
4.0095081e-05
1.6833871e-05
0.00011802646
0.00011779543
0.00011764762
0.00011781047
0.00011804845
0.00011781474
0.00011648863
0.00011350661
0.00010839391
0.0001007548
9.0260736e-05
7.666042e-05
5.9849137e-05
4.0100669e-05
1.6837993e-05
0.00011947878
0.00011920518
0.00011895158
0.00011895334
0.00011900229
0.00011857907
0.00011707908
0.00011394493
0.00010870303
0.00010095737
9.0379332e-05
7.6718055e-05
5.9869063e-05
4.0104516e-05
1.6841979e-05
0.00012087222
0.00012055777
0.00012020293
0.00012004999
0.00011991633
0.00011930915
0.00011764007
0.00011435823
0.00010899147
0.00010114361
9.0485899e-05
7.6767696e-05
5.9884526e-05
4.0106632e-05
1.6845825e-05
0.00012220765
0.000121854
0.00012140227
0.00012110083
0.00012079089
0.00012000531
0.00011817192
0.0001147468
0.00010925949
0.00010131374
9.0580571e-05
7.6809424e-05
5.9895571e-05
4.0107035e-05
1.6849529e-05
0.00012348602
0.00012309478
0.00012255032
0.00012210637
0.00012162638
0.00012066791
0.00011867502
0.000115111
0.00010950739
0.00010146797
9.066351e-05
7.6843341e-05
5.9902252e-05
4.0105747e-05
1.6853086e-05
0.00012470837
0.00012428106
0.00012364786
0.00012306719
0.00012242326
0.0001212974
0.00011914977
0.00011545119
0.00010973549
0.00010160657
9.0734905e-05
7.6869572e-05
5.9904642e-05
4.01028e-05
1.6856493e-05
0.00012587581
0.0001254139
0.00012469577
0.00012398398
0.00012318206
0.00012189424
0.00011959662
0.00011576782
0.00010994417
0.00010172983
9.0794971e-05
7.688826e-05
5.9902822e-05
4.0098227e-05
1.6859748e-05
0.00012698949
0.0001264944
0.00012569498
0.00012485746
0.0001239034
0.00012245896
0.00012001608
0.00011606132
0.00011013381
0.00010183808
9.0843947e-05
7.6899567e-05
5.989689e-05
4.0092072e-05
1.686285e-05
0.00012805062
0.00012752369
0.00012664648
0.00012568841
0.0001245879
0.00012299215
0.00012040867
0.0001163322
0.00011030485
0.00010193166
9.0882097e-05
7.6903674e-05
5.9886953e-05
4.008438e-05
1.6865796e-05
0.00012906043
0.00012850296
0.0001275513
0.00012647769
0.00012523628
0.00012349441
0.00012077496
0.00011658096
0.00011045773
0.00010201094
9.0909706e-05
7.6900781e-05
5.9873131e-05
4.0075204e-05
1.6868585e-05
0.00013002019
0.00012943343
0.00012841052
0.00012722618
0.00012584925
0.00012396639
0.00012111554
0.00011680815
0.00011059293
0.00010207632
9.0927078e-05
7.6891102e-05
5.9855555e-05
4.0064601e-05
1.6871218e-05
0.00013093118
0.00013031634
0.00012922524
0.0001279348
0.00012642759
0.00012440876
0.00012143103
0.00011701432
0.00011071095
0.0001021282
9.0934536e-05
7.6874865e-05
5.9834365e-05
4.0052632e-05
1.6873694e-05
0.00013179473
0.00013115295
0.00012999658
0.0001286045
0.0001269721
0.00012482222
0.00012172206
0.00011720007
0.0001108123
0.00010216704
9.093242e-05
7.6852314e-05
5.9809709e-05
4.0039364e-05
1.6876014e-05
0.00013261213
0.00013194454
0.0001307257
0.00012923626
0.00012748362
0.00012520752
0.0001219893
0.00011736599
0.00011089752
0.00010219326
9.0921082e-05