/*--------------------------------*- C++ -*----------------------------------*\
| =========                 |                                                 |
| \\      /  F ield         | OpenFOAM: The Open Source CFD Toolbox           |
|  \\    /   O peration     | Version:  2506                                  |
|   \\  /    A nd           | Website:  www.openfoam.com                      |
|    \\/     M anipulation  |                                                 |
\*---------------------------------------------------------------------------*/
FoamFile
{
    version     2.0;
    format      ascii;
    arch        "LSB;label=32;scalar=64";
    class       volScalarField;
    location    "30000/water";
    object      T;
}
// * * * * * * * * * * * * * * * * * * * * * * * * * * * * * * * * * * * * * //

dimensions      [0 0 0 1 0 0 0];

internalField   nonuniform List<scalar> 
6000
(
333.15
333.15
333.15
333.15
333.15
333.15
333.15
333.15
333.15
333.15
333.15
333.14998
333.14989
333.14924
333.14256
333.15
333.15
333.15
333.15
333.15
333.15
333.15
333.15
333.15
333.15
333.14999
333.14994
333.14968
333.14816
333.13667
333.15
333.15
333.15
333.15
333.15
333.15
333.15
333.15
333.15
333.14999
333.14997
333.14987
333.14939
333.14689
333.13172
333.15
333.15
333.15
333.15
333.15
333.15
333.15
333.15
333.15
333.14999
333.14994
333.14976
333.14903
333.14547
333.1274
333.15
333.15
333.15
333.15
333.15
333.15
333.15
333.15
333.14999
333.14997
333.1499
333.14963
333.1486
333.14396
333.12352
333.15
333.15
333.15
333.15
333.15
333.15
333.15
333.15
333.14999
333.14996
333.14985
333.14947
333.14812
333.14237
333.11999
333.15
333.15
333.15
333.15
333.15
333.15
333.15
333.14999
333.14998
333.14994
333.14978
333.14929
333.1476
333.14073
333.11675
333.15
333.15
333.15
333.15
333.15
333.15
333.15
333.14999
333.14997
333.14991
333.1497
333.14909
333.14703
333.13906
333.11374
333.15
333.15
333.15
333.15
333.15
333.15
333.15
333.14999
333.14996
333.14987
333.14961
333.14886
333.14643
333.13737
333.11094
333.15
333.15
333.15
333.15
333.15
333.15
333.14999
333.14998
333.14994
333.14983
333.14951
333.14862
333.14578
333.13567
333.10832
333.15
333.15
333.15
333.15
333.15
333.15
333.14999
333.14998
333.14993
333.14978
333.1494
333.14836
333.1451
333.13397
333.10588
333.15
333.15
333.15
333.15
333.15
333.15
333.14999
333.14997
333.1499
333.14973
333.14928
333.14807
333.14437
333.13227
333.10359
333.15
333.15
333.15
333.15
333.15
333.14999
333.14998
333.14996
333.14988
333.14967
333.14915
333.14777
333.14361
333.1306
333.10145
333.15
333.15
333.15
333.15
333.15
333.14999
333.14998
333.14994
333.14985
333.14961
333.14901
333.14745
333.1428
333.12894
333.09946
333.15
333.15
333.15
333.15
333.15
333.14999
333.14997
333.14993
333.14982
333.14954
333.14886
333.1471
333.14196
333.12732
333.09761
333.15
333.15
333.15
333.15
333.15
333.14999
333.14997
333.14991
333.14978
333.14946
333.1487
333.14673
333.14107
333.12572
333.0959
333.15
333.15
333.15
333.15
333.14999
333.14998
333.14996
333.1499
333.14974
333.14938
333.14852
333.14634
333.14013
333.12417
333.09432
333.15
333.15
333.15
333.15
333.14999
333.14998
333.14995
333.14988
333.1497
333.14929
333.14834
333.14591
333.13916
333.12267
333.09287
333.15
333.15
333.15
333.15
333.14999
333.14998
333.14994
333.14985
333.14965
333.1492
333.14814
333.14546
333.13815
333.12122
333.09154
333.15
333.15
333.15
333.14999
333.14999
333.14997
333.14993
333.14983
333.1496
333.1491
333.14793
333.14497
333.1371
333.11982
333.09033
333.15
333.15
333.15
333.14999
333.14999
333.14997
333.14992
333.1498
333.14955
333.14899
333.1477
333.14444
333.13602
333.11848
333.08923
333.15
333.15
333.15
333.14999
333.14998
333.14996
333.1499
333.14977
333.14949
333.14887
333.14745
333.14388
333.13492
333.11721
333.08824
333.15
333.15
333.15
333.14999
333.14998
333.14995
333.14989
333.14974
333.14943
333.14875
333.14719
333.14328
333.1338
333.116
333.08735
333.15
333.15
333.14999
333.14999
333.14998
333.14994
333.14987
333.14971
333.14936
333.14861
333.1469
333.14264
333.13267
333.11485
333.08654
333.15
333.15
333.14999
333.14999
333.14997
333.14993
333.14985
333.14967
333.14929
333.14847
333.14659
333.14195
333.13155
333.11377
333.08581
333.15
333.15
333.14999
333.14998
333.14997
333.14992
333.14983
333.14963
333.14921
333.14831
333.14625
333.14123
333.13043
333.11275
333.08516
333.15
333.15
333.14999
333.14998
333.14996
333.14991
333.14981
333.14959
333.14913
333.14815
333.14589
333.14047
333.12933
333.11179
333.08457
333.15
333.14999
333.14999
333.14998
333.14996
333.1499
333.14979
333.14954
333.14904
333.14797
333.14549
333.13968
333.12826
333.11089
333.08403
333.15
333.14999
333.14999
333.14998
333.14995
333.14989
333.14976
333.14949
333.14895
333.14777
333.14507
333.13886
333.12722
333.11004
333.08355
333.14999
333.14999
333.14999
333.14997
333.14994
333.14987
333.14973
333.14944
333.14884
333.14756
333.14461
333.13802
333.12621
333.10924
333.08311
333.14999
333.14999
333.14998
333.14997
333.14993
333.14986
333.1497
333.14939
333.14873
333.14733
333.14412
333.13716
333.12523
333.10848
333.08272
333.14999
333.14999
333.14998
333.14996
333.14992
333.14984
333.14967
333.14933
333.14862
333.14708
333.14359
333.13629
333.1243
333.10777
333.08235
333.14999
333.14999
333.14998
333.14996
333.14991
333.14982
333.14964
333.14926
333.14849
333.14681
333.14304
333.13542
333.1234
333.1071
333.08202
333.14999
333.14999
333.14998
333.14995
333.1499
333.1498
333.1496
333.14919
333.14835
333.14652
333.14245
333.13456
333.12254
333.10647
333.08172
333.14999
333.14998
333.14997
333.14995
333.14989
333.14978
333.14956
333.14911
333.1482
333.1462
333.14184
333.1337
333.12172
333.10587
333.08144
333.14999
333.14998
333.14997
333.14994
333.14988
333.14976
333.14952
333.14903
333.14803
333.14586
333.1412
333.13286
333.12093
333.1053
333.08118
333.14999
333.14998
333.14997
333.14993
333.14987
333.14974
333.14947
333.14895
333.14786
333.14549
333.14054
333.13203
333.12018
333.10477
333.08094
333.14998
333.14998
333.14996
333.14993
333.14985
333.14971
333.14942
333.14885
333.14766
333.1451
333.13987
333.13122
333.11947
333.10426
333.08072
333.14998
333.14998
333.14996
333.14992
333.14984
333.14968
333.14937
333.14875
333.14746
333.14467
333.13918
333.13043
333.11878
333.10378
333.08052
333.14998
333.14997
333.14995
333.14991
333.14982
333.14965
333.14931
333.14864
333.14723
333.14423
333.13849
333.12967
333.11812
333.10332
333.08033
333.14998
333.14997
333.14995
333.1499
333.1498
333.14962
333.14925
333.14852
333.14698
333.14376
333.13779
333.12892
333.11749
333.10288
333.08015
333.14997
333.14996
333.14994
333.14989
333.14978
333.14958
333.14918
333.14839
333.14672
333.14326
333.1371
333.1282
333.11689
333.10246
333.07999
333.14997
333.14996
333.14993
333.14988
333.14976
333.14954
333.14911
333.14824
333.14643
333.14275
333.1364
333.1275
333.11631
333.10207
333.07983
333.14997
333.14996
333.14993
333.14986
333.14974
333.1495
333.14903
333.14809
333.14612
333.14222
333.13572
333.12683
333.11576
333.10169
333.07969
333.14996
333.14995
333.14992
333.14985
333.14972
333.14946
333.14895
333.14792
333.14579
333.14167
333.13504
333.12617
333.11523
333.10133
333.07956
333.14996
333.14995
333.14991
333.14984
333.14969
333.14941
333.14886
333.14774
333.14544
333.14111
333.13437
333.12554
333.11472
333.10098
333.07943
333.14995
333.14994
333.1499
333.14982
333.14966
333.14936
333.14876
333.14754
333.14507
333.14054
333.13372
333.12493
333.11423
333.10065
333.07931
333.14995
333.14993
333.14989
333.1498
333.14963
333.1493
333.14865
333.14733
333.14468
333.13997
333.13307
333.12434
333.11376
333.10033
333.07921
333.14994
333.14993
333.14988
333.14979
333.1496
333.14924
333.14854
333.1471
333.14427
333.13939
333.13244
333.12376
333.1133
333.10003
333.0791
333.14994
333.14992
333.14987
333.14977
333.14957
333.14918
333.14841
333.14686
333.14384
333.13881
333.13183
333.12321
333.11286
333.09974
333.07901
333.14993
333.14991
333.14986
333.14975
333.14953
333.14911
333.14827
333.14659
333.1434
333.13823
333.13122
333.12268
333.11244
333.09946
333.07892
333.14993
333.1499
333.14984
333.14972
333.14949
333.14903
333.14812
333.14631
333.14294
333.13765
333.13063
333.12216
333.11204
333.09919
333.07884
333.14992
333.14989
333.14983
333.1497
333.14944
333.14894
333.14796
333.14601
333.14247
333.13707
333.13006
333.12165
333.11164
333.09893
333.07876
333.14991
333.14988
333.14981
333.14967
333.14939
333.14885
333.14779
333.1457
333.14199
333.13651
333.1295
333.12117
333.11126
333.09868
333.07869
333.1499
333.14987
333.1498
333.14964
333.14934
333.14876
333.1476
333.14536
333.1415
333.13594
333.12896
333.1207
333.1109
333.09844
333.07862
333.14989
333.14986
333.14978
333.14961
333.14928
333.14865
333.1474
333.14501
333.14101
333.13539
333.12842
333.12024
333.11054
333.09821
333.07855
333.14988
333.14985
333.14976
333.14958
333.14922
333.14853
333.14718
333.14464
333.14051
333.13484
333.1279
333.11979
333.1102
333.09799
333.0785
333.14987
333.14983
333.14974
333.14954
333.14916
333.14841
333.14695
333.14426
333.14001
333.1343
333.1274
333.11936
333.10987
333.09777
333.07844
333.14986
333.14982
333.14971
333.1495
333.14908
333.14827
333.1467
333.14387
333.13951
333.13377
333.12691
333.11894
333.10955
333.09756
333.07839
333.14985
333.1498
333.14969
333.14946
333.149
333.14812
333.14643
333.14346
333.139
333.13325
333.12642
333.11854
333.10923
333.09736
333.07834
333.14983
333.14978
333.14966
333.14941
333.14892
333.14797
333.14616
333.14304
333.1385
333.13274
333.12596
333.11814
333.10893
333.09717
333.0783
333.14982
333.14976
333.14963
333.14936
333.14883
333.14779
333.14586
333.14262
333.13801
333.13224
333.1255
333.11776
333.10864
333.09698
333.07826
333.1498
333.14974
333.1496
333.1493
333.14872
333.14761
333.14555
333.14219
333.13751
333.13174
333.12505
333.11739
333.10835
333.0968
333.07822
333.14978
333.14972
333.14956
333.14924
333.14862
333.14741
333.14523
333.14175
333.13702
333.13126
333.12462
333.11702
333.10808
333.09662
333.07818
333.14976
333.1497
333.14952
333.14918
333.1485
333.1472
333.14489
333.14131
333.13653
333.13079
333.12419
333.11667
333.10781
333.09645
333.07815
333.14974
333.14967
333.14948
333.1491
333.14837
333.14698
333.14454
333.14086
333.13605
333.13032
333.12378
333.11632
333.10754
333.09629
333.07812
333.14972
333.14964
333.14944
333.14903
333.14823
333.14674
333.14418
333.14041
333.13557
333.12987
333.12337
333.11599
333.10729
333.09613
333.07809
333.14969
333.14961
333.14939
333.14894
333.14808
333.14648
333.14381
333.13996
333.13511
333.12942
333.12298
333.11566
333.10704
333.09597
333.07807
333.14967
333.14958
333.14933
333.14885
333.14792
333.14621
333.14343
333.13951
333.13464
333.12898
333.12259
333.11534
333.1068
333.09582
333.07804
333.14964
333.14954
333.14928
333.14875
333.14774
333.14593
333.14304
333.13907
333.13418
333.12856
333.12222
333.11503
333.10656
333.09567
333.07802
333.14961
333.1495
333.14921
333.14864
333.14756
333.14564
333.14265
333.13862
333.13373
333.12813
333.12185
333.11473
333.10633
333.09553
333.078
333.14957
333.14945
333.14914
333.14852
333.14736
333.14533
333.14225
333.13817
333.13329
333.12772
333.12149
333.11443
333.10611
333.09539
333.07798
333.14953
333.1494
333.14907
333.1484
333.14715
333.14501
333.14184
333.13773
333.13285
333.12732
333.12113
333.11414
333.10589
333.09526
333.07796
333.14949
333.14935
333.14899
333.14826
333.14692
333.14468
333.14144
333.13729
333.13242
333.12692
333.12079
333.11385
333.10568
333.09512
333.07795
333.14944
333.14929
333.1489
333.14811
333.14668
333.14434
333.14103
333.13685
333.13199
333.12653
333.12045
333.11358
333.10547
333.095
333.07793
333.14939
333.14923
333.1488
333.14795
333.14643
333.14399
333.14061
333.13642
333.13158
333.12615
333.12012
333.11331
333.10526
333.09487
333.07792
333.14934
333.14916
333.14869
333.14778
333.14616
333.14364
333.1402
333.13599
333.13116
333.12578
333.1198
333.11304
333.10507
333.09475
333.07791
333.14928
333.14908
333.14858
333.14759
333.14588
333.14327
333.13978
333.13557
333.13076
333.12541
333.11948
333.11278
333.10487
333.09463
333.07789
333.14921
333.149
333.14845
333.1474
333.14559
333.1429
333.13937
333.13515
333.13036
333.12505
333.11917
333.11253
333.10468
333.09451
333.07788
333.14914
333.14891
333.14832
333.14719
333.14529
333.14253
333.13896
333.13473
333.12997
333.12469
333.11886
333.11228
333.10449
333.0944
333.07787
333.14906
333.14881
333.14817
333.14696
333.14498
333.14214
333.13854
333.13432
333.12958
333.12435
333.11856
333.11203
333.10431
333.09429
333.07786
333.14897
333.1487
333.14801
333.14673
333.14466
333.14176
333.13813
333.13391
333.1292
333.124
333.11827
333.11179
333.10413
333.09418
333.07785
333.14888
333.14858
333.14784
333.14648
333.14433
333.14137
333.13772
333.13351
333.12882
333.12367
333.11798
333.11156
333.10396
333.09407
333.07784
333.14877
333.14845
333.14765
333.14621
333.14399
333.14098
333.13732
333.13312
333.12845
333.12334
333.1177
333.11133
333.10379
333.09397
333.07783
333.14866
333.14831
333.14746
333.14594
333.14364
333.14059
333.13691
333.13272
333.12809
333.12301
333.11742
333.1111
333.10362
333.09387
333.07783
333.14853
333.14816
333.14725
333.14565
333.14328
333.14019
333.13651
333.13233
333.12773
333.1227
333.11715
333.11088
333.10345
333.09376
333.07782
333.14839
333.14799
333.14702
333.14535
333.14292
333.1398
333.13611
333.13195
333.12738
333.12238
333.11688
333.11066
333.10329
333.09367
333.07781
333.14824
333.14781
333.14678
333.14504
333.14255
333.1394
333.13571
333.13157
333.12703
333.12207
333.11662
333.11045
333.10313
333.09357
333.0778
333.14807
333.14762
333.14653
333.14472
333.14218
333.13901
333.13532
333.1312
333.12669
333.12177
333.11636
333.11024
333.10297
333.09347
333.07779
333.14789
333.1474
333.14626
333.14439
333.1418
333.13861
333.13493
333.13083
333.12635
333.12147
333.1161
333.11003
333.10282
333.09338
333.07778
333.14769
333.14718
333.14598
333.14405
333.14142
333.13822
333.13454
333.13046
333.12602
333.12118
333.11585
333.10983
333.10266
333.09328
333.07778
333.14748
333.14694
333.14568
333.1437
333.14104
333.13782
333.13415
333.1301
333.12569
333.12089
333.11561
333.10963
333.10251
333.09319
333.07777
333.14725
333.14668
333.14537
333.14334
333.14065
333.13743
333.13377
333.12974
333.12536
333.1206
333.11536
333.10943
333.10237
333.0931
333.07776
333.147
333.1464
333.14505
333.14297
333.14026
333.13704
333.13339
333.12939
333.12504
333.12032
333.11512
333.10924
333.10222
333.09301
333.07775
333.14673
333.14611
333.14471
333.1426
333.13987
333.13664
333.13302
333.12904
333.12473
333.12005
333.11489
333.10905
333.10208
333.09292
333.07774
333.14644
333.1458
333.14436
333.14222
333.13948
333.13625
333.13264
333.1287
333.12442
333.11977
333.11466
333.10886
333.10193
333.09284
333.07773
333.14614
333.14547
333.144
333.14183
333.13908
333.13587
333.13228
333.12836
333.12411
333.1195
333.11443
333.10867
333.10179
333.09275
333.07772
333.14581
333.14513
333.14363
333.14144
333.13868
333.13548
333.13191
333.12802
333.12381
333.11924
333.1142
333.10849
333.10165
333.09266
333.07771
333.14546
333.14477
333.14325
333.14105
333.13829
333.13509
333.13155
333.12769
333.12351
333.11898
333.11398
333.1083
333.10152
333.09258
333.0777
333.1451
333.14439
333.14286
333.14064
333.13789
333.13471
333.13119
333.12736
333.12321
333.11872
333.11376
333.10813
333.10138
333.0925
333.07769
333.14472
333.144
333.14246
333.14024
333.13749
333.13433
333.13083
333.12703
333.12292
333.11846
333.11354
333.10795
333.10125
333.09241
333.07768
333.14432
333.1436
333.14205
333.13983
333.13709
333.13395
333.13048
333.12671
333.12263
333.11821
333.11333
333.10777
333.10112
333.09233
333.07766
333.14391
333.14318
333.14163
333.13942
333.13669
333.13357
333.13013
333.12639
333.12235
333.11796
333.11311
333.1076
333.10098
333.09225
333.07765
333.14348
333.14275
333.1412
333.139
333.13629
333.13319
333.12978
333.12607
333.12206
333.11771
333.1129
333.10743
333.10085
333.09216
333.07764
333.14304
333.14231
333.14077
333.13858
333.13589
333.13282
333.12943
333.12576
333.12179
333.11747
333.11269
333.10726
333.10073
333.09208
333.07762
333.14259
333.14186
333.14033
333.13816
333.13549
333.13245
333.12909
333.12545
333.12151
333.11722
333.11249
333.10709
333.1006
333.092
333.0776
333.14212
333.14141
333.13989
333.13773
333.13509
333.13207
333.12875
333.12514
333.12123
333.11699
333.11228
333.10692
333.10047
333.09192
333.07759
333.14165
333.14094
333.13944
333.13731
333.13469
333.1317
333.12841
333.12483
333.12096
333.11675
333.11208
333.10676
333.10034
333.09184
333.07757
333.14117
333.14047
333.13898
333.13688
333.13429
333.13134
333.12807
333.12453
333.12069
333.11651
333.11188
333.10659
333.10022
333.09175
333.07755
333.14068
333.13999
333.13853
333.13645
333.13389
333.13097
333.12774
333.12423
333.12043
333.11628
333.11168
333.10643
333.10009
333.09167
333.07753
333.14018
333.1395
333.13806
333.13602
333.13349
333.1306
333.12741
333.12393
333.12016
333.11605
333.11149
333.10627
333.09997
333.09159
333.07751
333.13968
333.13902
333.1376
333.13558
333.13309
333.13024
333.12707
333.12363
333.1199
333.11582
333.11129
333.10611
333.09984
333.09151
333.07749
333.13918
333.13853
333.13714
333.13515
333.1327
333.12987
333.12675
333.12334
333.11964
333.11559
333.1111
333.10595
333.09972
333.09143
333.07747
333.13868
333.13804
333.13667
333.13472
333.1323
333.12951
333.12642
333.12304
333.11938
333.11537
333.1109
333.10579
333.0996
333.09134
333.07744
333.13817
333.13754
333.1362
333.13428
333.1319
333.12915
333.12609
333.12275
333.11912
333.11514
333.11071
333.10563
333.09948
333.09126
333.07742
333.13766
333.13705
333.13574
333.13385
333.1315
333.12879
333.12577
333.12246
333.11886
333.11492
333.11052
333.10547
333.09935
333.09118
333.07739
333.13716
333.13655
333.13527
333.13342
333.13111
333.12843
333.12545
333.12217
333.11861
333.1147
333.11033
333.10532
333.09923
333.0911
333.07736
333.13665
333.13606
333.1348
333.13299
333.13071
333.12808
333.12512
333.12189
333.11835
333.11447
333.11014
333.10516
333.09911
333.09101
333.07733
333.13614
333.13557
333.13434
333.13256
333.13032
333.12772
333.12481
333.1216
333.1181
333.11426
333.10996
333.105
333.09899
333.09093
333.0773
333.13564
333.13508
333.13387
333.13213
333.12993
333.12736
333.12449
333.12132
333.11785
333.11404
333.10977
333.10485
333.09886
333.09084
333.07727
333.13514
333.13459
333.13341
333.1317
333.12954
333.12701
333.12417
333.12104
333.1176
333.11382
333.10958
333.10469
333.09874
333.09076
333.07723
333.13464
333.13411
333.13295
333.13127
333.12915
333.12666
333.12385
333.12075
333.11735
333.1136
333.1094
333.10454
333.09862
333.09067
333.0772
333.13415
333.13362
333.1325
333.13085
333.12876
333.12631
333.12354
333.12047
333.11711
333.11339
333.10921
333.10438
333.0985
333.09058
333.07716
333.13366
333.13315
333.13204
333.13043
333.12838
333.12596
333.12323
333.1202
333.11686
333.11317
333.10903
333.10423
333.09837
333.0905
333.07712
333.13317
333.13267
333.13159
333.13001
333.12799
333.12561
333.12291
333.11992
333.11661
333.11296
333.10884
333.10407
333.09825
333.09041
333.07708
333.13269
333.1322
333.13114
333.12959
333.12761
333.12527
333.1226
333.11964
333.11637
333.11274
333.10866
333.10392
333.09812
333.09032
333.07704
333.13221
333.13173
333.1307
333.12918
333.12723
333.12492
333.1223
333.11937
333.11612
333.11253
333.10847
333.10376
333.098
333.09022
333.07699
333.13174
333.13127
333.13026
333.12877
333.12686
333.12458
333.12199
333.11909
333.11588
333.11231
333.10829
333.10361
333.09787
333.09013
333.07694
333.13127
333.13081
333.12982
333.12836
333.12648
333.12424
333.12168
333.11882
333.11564
333.1121
333.10811
333.10345
333.09775
333.09004
333.0769
333.1308
333.13036
333.12939
333.12795
333.12611
333.1239
333.12138
333.11854
333.1154
333.11189
333.10792
333.1033
333.09762
333.08994
333.07684
333.13035
333.12991
333.12896
333.12755
333.12574
333.12357
333.12107
333.11827
333.11516
333.11168
333.10774
333.10314
333.09749
333.08985
333.07679
333.12989
333.12946
333.12853
333.12715
333.12537
333.12323
333.12077
333.118
333.11492
333.11147
333.10755
333.10299
333.09736
333.08975
333.07674
333.12944
333.12902
333.12811
333.12676
333.12501
333.1229
333.12047
333.11773
333.11468
333.11125
333.10737
333.10283
333.09724
333.08965
333.07668
333.129
333.12859
333.1277
333.12637
333.12465
333.12257
333.12017
333.11746
333.11444
333.11104
333.10719
333.10267
333.09711
333.08955
333.07662
333.12856
333.12816
333.12728
333.12598
333.12429
333.12224
333.11987
333.1172
333.1142
333.11083
333.107
333.10251
333.09697
333.08945
333.07656
333.12813
333.12773
333.12687
333.1256
333.12393
333.12191
333.11958
333.11693
333.11396
333.11062
333.10682
333.10236
333.09684
333.08935
333.0765
333.1277
333.12731
333.12647
333.12521
333.12358
333.12159
333.11928
333.11667
333.11372
333.11041
333.10663
333.1022
333.09671
333.08924
333.07643
333.12728
333.1269
333.12607
333.12484
333.12323
333.12127
333.11899
333.1164
333.11349
333.1102
333.10645
333.10204
333.09658
333.08914
333.07636
333.12686
333.12649
333.12568
333.12446
333.12288
333.12095
333.1187
333.11614
333.11325
333.10999
333.10626
333.10188
333.09644
333.08903
333.07629
333.12645
333.12608
333.12529
333.12409
333.12253
333.12063
333.11841
333.11588
333.11302
333.10978
333.10608
333.10172
333.09631
333.08892
333.07622
333.12604
333.12568
333.1249
333.12373
333.12219
333.12032
333.11812
333.11562
333.11278
333.10957
333.10589
333.10156
333.09617
333.08881
333.07615
333.12564
333.12529
333.12452
333.12337
333.12185
333.12
333.11784
333.11536
333.11255
333.10936
333.10571
333.10139
333.09603
333.0887
333.07607
333.12524
333.1249
333.12414
333.12301
333.12152
333.11969
333.11755
333.1151
333.11231
333.10915
333.10552
333.10123
333.09589
333.08858
333.07599
333.12485
333.12451
333.12377
333.12265
333.12119
333.11939
333.11727
333.11484
333.11208
333.10895
333.10534
333.10107
333.09575
333.08847
333.07591
333.12446
333.12413
333.1234
333.1223
333.12086
333.11908
333.11699
333.11458
333.11185
333.10874
333.10515
333.1009
333.09561
333.08835
333.07582
333.12408
333.12375
333.12303
333.12195
333.12053
333.11878
333.11671
333.11433
333.11162
333.10853
333.10497
333.10074
333.09547
333.08823
333.07574
333.1237
333.12338
333.12267
333.12161
333.12021
333.11847
333.11643
333.11407
333.11139
333.10832
333.10478
333.10057
333.09532
333.08811
333.07565
333.12333
333.12301
333.12232
333.12127
333.11988
333.11818
333.11615
333.11382
333.11116
333.10811
333.10459
333.10041
333.09518
333.08799
333.07556
333.12296
333.12265
333.12196
333.12093
333.11957
333.11788
333.11588
333.11357
333.11093
333.1079
333.10441
333.10024
333.09503
333.08787
333.07547
333.12259
333.12229
333.12162
333.1206
333.11925
333.11758
333.11561
333.11332
333.1107
333.1077
333.10422
333.10007
333.09489
333.08774
333.07537
333.12223
333.12193
333.12127
333.12027
333.11894
333.11729
333.11534
333.11307
333.11047
333.10749
333.10403
333.09991
333.09474
333.08762
333.07527
333.12188
333.12158
333.12093
333.11994
333.11863
333.117
333.11507
333.11282
333.11024
333.10728
333.10384
333.09974
333.09459
333.08749
333.07517
333.12153
333.12124
333.12059
333.11962
333.11832
333.11671
333.1148
333.11257
333.11001
333.10707
333.10365
333.09957
333.09444
333.08736
333.07507
333.12118
333.12089
333.12026
333.1193
333.11802
333.11643
333.11453
333.11233
333.10979
333.10687
333.10347
333.0994
333.09429
333.08723
333.07497
333.12084
333.12056
333.11993
333.11898
333.11772
333.11615
333.11427
333.11208
333.10956
333.10666
333.10328
333.09923
333.09413
333.0871
333.07486
333.1205
333.12022
333.1196
333.11867
333.11742
333.11586
333.11401
333.11184
333.10934
333.10645
333.10309
333.09906
333.09398
333.08696
333.07476
333.12017
333.11989
333.11928
333.11836
333.11712
333.11559
333.11374
333.11159
333.10911
333.10625
333.1029
333.09888
333.09383
333.08683
333.07465
333.11984
333.11956
333.11896
333.11805
333.11683
333.11531
333.11348
333.11135
333.10889
333.10604
333.10271
333.09871
333.09367
333.08669
333.07453
333.11951
333.11924
333.11865
333.11774
333.11654
333.11503
333.11323
333.11111
333.10866
333.10583
333.10252
333.09854
333.09351
333.08655
333.07442
333.11919
333.11892
333.11833
333.11744
333.11625
333.11476
333.11297
333.11087
333.10844
333.10563
333.10233
333.09836
333.09336
333.08641
333.07431
333.11887
333.1186
333.11803
333.11714
333.11597
333.11449
333.11272
333.11063
333.10822
333.10542
333.10214
333.09819
333.0932
333.08627
333.07419
333.11855
333.11829
333.11772
333.11685
333.11568
333.11422
333.11246
333.1104
333.108
333.10521
333.10195
333.09801
333.09304
333.08613
333.07407
333.11824
333.11798
333.11742
333.11656
333.1154
333.11395
333.11221
333.11016
333.10778
333.10501
333.10176
333.09784
333.09288
333.08598
333.07395
333.11793
333.11768
333.11712
333.11627
333.11512
333.11369
333.11196
333.10992
333.10756
333.1048
333.10157
333.09766
333.09271
333.08584
333.07382
333.11762
333.11737
333.11682
333.11598
333.11485
333.11342
333.11171
333.10969
333.10734
333.1046
333.10138
333.09748
333.09255
333.08569
333.0737
333.11732
333.11707
333.11653
333.11569
333.11457
333.11316
333.11146
333.10946
333.10712
333.10439
333.10118
333.09731
333.09239
333.08554
333.07357
333.11702
333.11678
333.11624
333.11541
333.1143
333.1129
333.11122
333.10922
333.1069
333.10419
333.10099
333.09713
333.09222
333.08539
333.07344
333.11672
333.11648
333.11595
333.11513
333.11403
333.11265
333.11097
333.10899
333.10668
333.10398
333.1008
333.09695
333.09206
333.08524
333.07331
333.11643
333.11619
333.11566
333.11485
333.11376
333.11239
333.11073
333.10876
333.10646
333.10378
333.10061
333.09677
333.09189
333.08509
333.07318
333.11614
333.1159
333.11538
333.11458
333.1135
333.11213
333.11048
333.10853
333.10624
333.10357
333.10042
333.09659
333.09173
333.08494
333.07305
333.11585
333.11562
333.1151
333.1143
333.11323
333.11188
333.11024
333.1083
333.10603
333.10337
333.10022
333.09641
333.09156
333.08479
333.07292
333.11557
333.11534
333.11482
333.11403
333.11297
333.11163
333.11
333.10807
333.10581
333.10316
333.10003
333.09623
333.09139
333.08463
333.07278
333.11529
333.11506
333.11455
333.11377
333.11271
333.11138
333.10976
333.10785
333.1056
333.10296
333.09984
333.09605
333.09122
333.08448
333.07264
333.11501
333.11478
333.11427
333.1135
333.11245
333.11113
333.10953
333.10762
333.10538
333.10276
333.09965
333.09587
333.09105
333.08432
333.07251
333.11473
333.1145
333.114
333.11323
333.1122
333.11089
333.10929
333.10739
333.10517
333.10255
333.09945
333.09569
333.09088
333.08416
333.07237
333.11446
333.11423
333.11373
333.11297
333.11194
333.11064
333.10905
333.10717
333.10495
333.10235
333.09926
333.0955
333.09071
333.084
333.07222
333.11418
333.11396
333.11347
333.11271
333.11169
333.1104
333.10882
333.10694
333.10474
333.10215
333.09907
333.09532
333.09054
333.08384
333.07208
333.11391
333.11369
333.1132
333.11245
333.11144
333.11015
333.10859
333.10672
333.10452
333.10194
333.09887
333.09514
333.09036
333.08368
333.07194
333.11365
333.11343
333.11294
333.1122
333.11119
333.10991
333.10836
333.1065
333.10431
333.10174
333.09868
333.09495
333.09019
333.08352
333.07179
333.11338
333.11316
333.11268
333.11194
333.11094
333.10967
333.10812
333.10628
333.1041
333.10154
333.09849
333.09477
333.09002
333.08336
333.07165
333.11312
333.1129
333.11242
333.11169
333.1107
333.10944
333.10789
333.10606
333.10389
333.10133
333.09829
333.09459
333.08984
333.0832
333.0715
333.11286
333.11264
333.11217
333.11144
333.11045
333.1092
333.10767
333.10584
333.10368
333.10113
333.0981
333.0944
333.08967
333.08303
333.07135
333.1126
333.11239
333.11191
333.11119
333.11021
333.10896
333.10744
333.10562
333.10346
333.10093
333.09791
333.09422
333.08949
333.08287
333.0712
333.11234
333.11213
333.11166
333.11094
333.10997
333.10873
333.10721
333.1054
333.10325
333.10072
333.09771
333.09403
333.08932
333.0827
333.07105
333.11209
333.11188
333.11141
333.1107
333.10973
333.10849
333.10698
333.10518
333.10304
333.10052
333.09752
333.09385
333.08914
333.08254
333.0709
333.11183
333.11163
333.11116
333.11045
333.10949
333.10826
333.10676
333.10496
333.10283
333.10032
333.09732
333.09366
333.08896
333.08237
333.07075
333.11158
333.11138
333.11092
333.11021
333.10925
333.10803
333.10653
333.10474
333.10262
333.10012
333.09713
333.09347
333.08879
333.0822
333.07059
333.11133
333.11113
333.11067
333.10997
333.10902
333.1078
333.10631
333.10453
333.10241
333.09992
333.09693
333.09329
333.08861
333.08203
333.07044
333.11109
333.11088
333.11043
333.10973
333.10878
333.10757
333.10609
333.10431
333.1022
333.09971
333.09674
333.0931
333.08843
333.08186
333.07028
333.11084
333.11064
333.11019
333.10949
333.10855
333.10734
333.10587
333.10409
333.102
333.09951
333.09655
333.09291
333.08825
333.0817
333.07013
333.1106
333.11039
333.10994
333.10925
333.10831
333.10712
333.10564
333.10388
333.10179
333.09931
333.09635
333.09273
333.08807
333.08153
333.06997
333.11035
333.11015
333.10971
333.10902
333.10808
333.10689
333.10542
333.10367
333.10158
333.09911
333.09616
333.09254
333.08789
333.08135
333.06981
333.11011
333.10991
333.10947
333.10878
333.10785
333.10666
333.1052
333.10345
333.10137
333.09891
333.09596
333.09235
333.08771
333.08118
333.06965
333.10987
333.10967
333.10923
333.10855
333.10762
333.10644
333.10499
333.10324
333.10117
333.09871
333.09577
333.09216
333.08753
333.08101
333.06949
333.10963
333.10944
333.109
333.10832
333.1074
333.10622
333.10477
333.10303
333.10096
333.09851
333.09557
333.09197
333.08735
333.08084
333.06933
333.1094
333.1092
333.10876
333.10809
333.10717
333.10599
333.10455
333.10281
333.10075
333.09831
333.09538
333.09179
333.08717
333.08067
333.06917
333.10916
333.10897
333.10853
333.10786
333.10694
333.10577
333.10433
333.1026
333.10055
333.09811
333.09518
333.0916
333.08699
333.08049
333.06901
333.10893
333.10873
333.1083
333.10763
333.10672
333.10555
333.10412
333.10239
333.10034
333.09791
333.09499
333.09141
333.08681
333.08032
333.06884
333.10869
333.1085
333.10807
333.1074
333.10649
333.10533
333.1039
333.10218
333.10013
333.0977
333.09479
333.09122
333.08662
333.08015