/*--------------------------------*- C++ -*----------------------------------*\
| =========                 |                                                 |
| \\      /  F ield         | OpenFOAM: The Open Source CFD Toolbox           |
|  \\    /   O peration     | Version:  2506                                  |
|   \\  /    A nd           | Website:  www.openfoam.com                      |
|    \\/     M anipulation  |                                                 |
\*---------------------------------------------------------------------------*/
FoamFile
{
    version     2.0;
    format      ascii;
    arch        "LSB;label=32;scalar=64";
    class       volScalarField;
    location    "30000/water";
    object      wallHeatFlux;
}
// * * * * * * * * * * * * * * * * * * * * * * * * * * * * * * * * * * * * * //

dimensions      [1 0 -3 0 0 0 0];

internalField   uniform 0;

boundaryField
{
    water_inlet
    {
        type            calculated;
        value           uniform 0;
    }
    water_outlet
    {
        type            calculated;
        value           uniform 0;
    }
    water_wedge1
    {
        type            wedge;
    }
    water_wedge2
    {
        type            wedge;
    }
    water_to_rock
    {
        type            calculated;
        value           nonuniform List<scalar> 
400
(
-1092.9497
-906.05769
-798.25999
-728.70871
-679.4518
-642.17213
-612.47929
-587.99785
-567.24977
-549.26209
-533.52302
-519.47011
-506.84168
-495.39258
-484.90111
-475.27935
-466.34651
-458.07346
-450.2931
-443.02355
-436.15156
-429.69448
-423.57481
-417.7669
-412.21568
-406.95275
-401.90183
-397.02127
-392.38844
-387.91918
-383.64762
-379.5011
-375.49531
-371.6493
-367.9288
-364.30154
-360.79268
-357.40047
-354.12389
-350.93447
-347.80408
-344.78869
-341.8325
-338.96368
-336.18242
-333.4609
-330.77125
-328.22551
-325.68378
-323.23002
-320.80821
-318.44625
-316.14405
-313.9015
-311.69043
-309.53872
-307.4462
-305.38468
-303.35397
-301.38197
-299.44045
-297.55731
-295.70428
-293.85309
-292.08777
-290.35195
-288.61732
-286.96805
-285.29154
-283.70019
-282.10952
-280.54761
-279.01441
-277.53802
-276.06204
-274.64276
-273.25193
-271.83307
-270.47075
-269.16494
-267.83085
-266.55318
-265.30363
-264.05386
-262.8604
-261.66661
-260.50076
-259.33445
-258.19598
-257.0853
-256.03077
-254.94724
-253.8914
-252.86322
-251.86268
-250.86134
-249.88757
-248.94135
-247.9942
-247.07454
-246.18235
-245.2606
-244.39475
-243.55629
-242.68811
-241.84722
-241.06217
-240.24723
-239.45948
-238.69889
-237.93682
-237.20181
-236.49383
-235.75555
-235.07283
-234.35965
-233.67325
-233.01359
-232.35192
-231.71687
-231.07966
-230.46895
-229.85595
-229.24058
-228.65153
-228.08876
-227.52346
-226.95558
-226.41385
-225.86945
-225.35116
-224.83015
-224.30641
-223.80874
-223.33717
-222.86287
-222.38586
-221.90615
-221.45262
-220.99647
-220.59545
-220.13418
-219.72817
-219.31973
-218.88007
-218.49587
-218.10946
-217.72092
-217.35919
-216.9666
-216.601
-216.23357
-215.8933
-215.55137
-215.20787
-214.89177
-214.54537
-214.22653
-213.90644
-213.61407
-213.3206
-213.0261
-212.73065
-212.43432
-212.16606
-211.86816
-211.59846
-211.32813
-211.08611
-210.84357
-210.60055
-210.35709
-210.11324
-209.89789
-209.65337
-209.40857
-209.19241
-209.00494
-208.78845
-208.60072
-208.38406
-208.16736
-207.97951
-207.79169
-207.60391
-207.44505
-207.25744
-207.0988
-206.91145
-206.75309
-206.59491
-206.43691
-206.27911
-206.12153
-205.993
-205.83588
-205.70783
-205.5512
-205.42366
-205.29638
-205.16937
-205.07146
-204.945
-204.81883
-204.72176
-204.59616
-204.49966
-204.37464
-204.27872
-204.18309
-204.08774
-203.99268
-203.92671
-203.83222
-203.73802
-203.67289
-203.57924
-203.51467
-203.45036
-203.35752
-203.29374
-203.23022
-203.19575
-203.13274
-203.04118
-203.03623
-202.97394
-202.91189
-202.85006
-202.81724
-202.78465
-202.75226
-202.72008
-202.6881
-202.65632
-202.62473
-202.59333
-202.56211
-202.55985
-202.55776
-202.52705
-202.49651
-202.4949
-202.52223
-202.49213
-202.49096
-202.48992
-202.48902
-202.48824
-202.51636
-202.51582
-202.54417
-202.54385
-202.54363
-202.60107
-202.60104
-202.62988
-202.6588
-202.6878
-202.71688
-202.77482
-202.80404
-202.83333
-202.89146
-202.92087
-202.95032
-203.00861
-203.06695
-203.12534
-203.18376
-203.24222
-203.30072
-203.38803
-203.4178
-203.50516
-203.56375
-203.67994
-203.73857
-203.82599
-203.91343
-204.02967
-204.08834
-204.20459
-204.29206
-204.37953
-204.49579
-204.61205
-204.72831
-204.84457
-204.96082
-205.04828
-205.16452
-205.30953
-205.45454
-205.59954
-205.71574
-205.86072
-205.9769
-206.15064
-206.29558
-206.46929
-206.6142
-206.75909
-206.93275
-207.1064
-207.28003
-207.45364
-207.62723
-207.82959
-208.00314
-208.20546
-208.37897
-208.61005
-208.81231
-209.01455
-209.24556
-209.44776
-209.70752
-209.90968
-210.14061
-210.37152
-210.65999
-210.89086
-211.1505
-211.38134
-211.66973
-211.92932
-212.21767
-212.47722
-212.79433
-213.08264
-213.37092
-213.68797
-214.00501
-214.32203
-214.63903
-214.98481
-215.33057
-215.64752
-216.02204
-216.36775
-216.74224
-217.08792
-217.49118
-217.89443
-218.29767
-218.67211
-219.07532
-219.50732
-219.93931
-220.40007
-220.83204
-221.29278
-221.7823
-222.24301
-222.7037
-223.22196
-223.74021
-224.25844
-224.77666
-225.32367
-225.87066
-226.44645
-227.02224
-227.62683
-228.23142
-228.83603
-229.46943
-230.13164
-230.82264
-231.48485
-232.17585
-232.92442
-233.64418
-234.42151
-235.1988
-236.00486
-236.83968
-237.67446
-238.56679
-239.48789
-240.43777
-241.41643
-242.4239
-243.48897
-244.61167
-245.73442
-246.97239
-248.21043
-249.56369
-251.03217
-252.55826
-254.22832
-256.04233
-258.05785
-260.36122
-263.06761
-266.40732
-270.92737
-277.72185
)
;
    }
}


// ************************************************************************* //
