/*--------------------------------*- C++ -*----------------------------------*\
| =========                 |                                                 |
| \\      /  F ield         | OpenFOAM: The Open Source CFD Toolbox           |
|  \\    /   O peration     | Version:  2506                                  |
|   \\  /    A nd           | Website:  www.openfoam.com                      |
|    \\/     M anipulation  |                                                 |
\*---------------------------------------------------------------------------*/
FoamFile
{
    version     2.0;
    format      ascii;
    arch        "LSB;label=32;scalar=64";
    class       volScalarField;
    location    "30000/water";
    object      yPlus;
}
// * * * * * * * * * * * * * * * * * * * * * * * * * * * * * * * * * * * * * //

dimensions      [0 0 0 0 0 0 0];

internalField   uniform 0;

boundaryField
{
    water_inlet
    {
        type            calculated;
        value           uniform 0;
    }
    water_outlet
    {
        type            calculated;
        value           uniform 0;
    }
    water_wedge1
    {
        type            wedge;
    }
    water_wedge2
    {
        type            wedge;
    }
    water_to_rock
    {
        type            calculated;
        value           nonuniform List<scalar> 
400
(
32.840958
36.930758
39.903157
41.942818
43.248269
44.000017
44.349067
44.415115
44.289454
44.039765
43.715197
43.350941
42.971944
42.595758
42.234627
41.89695
41.588284
41.311989
41.069654
40.861379
40.686013
40.54138
40.424544
40.332078
40.260354
40.205786
40.165029
40.135117
40.113521
40.098166
40.0874
40.079946
40.074841
40.071379
40.069054
40.067516
40.066535
40.065967
40.065731
40.065791
40.066139
40.066785
40.067753
40.069068
40.070755
40.072841
40.075345
40.078286
40.081676
40.085523
40.089832
40.094604
40.099837
40.105526
40.111663
40.11824
40.125245
40.132669
40.140496
40.148716
40.157314
40.166277
40.175586
40.185224
40.195169
40.205401
40.215897
40.226643
40.237622
40.248827
40.260245
40.271872
40.283701
40.295724
40.307934
40.320321
40.332876
40.345593
40.358462
40.371475
40.384625
40.397902
40.411298
40.424806
40.438416
40.452121
40.465914
40.479786
40.493729
40.507735
40.521798
40.535909
40.55006
40.564245
40.578455
40.592685
40.606924
40.621167
40.635406
40.649634
40.663841
40.678021
40.692166
40.706267
40.720316
40.734304
40.748221
40.762059
40.775807
40.789456
40.802994
40.81641
40.829693
40.842831
40.855811
40.86862
40.881245
40.893672
40.905888
40.917878
40.929629
40.941127
40.952359
40.963309
40.973967
40.984318
40.994352
41.004056
41.013421
41.022438
41.031097
41.039393
41.047319
41.05487
41.062042
41.068834
41.075244
41.081273
41.086921
41.092191
41.097088
41.101615
41.105778
41.109585
41.113042
41.116157
41.118941
41.121401
41.123548
41.125394
41.126948
41.128222
41.129227
41.129974
41.130477
41.130745
41.130791
41.130627
41.130264
41.129713
41.128987
41.128094
41.127048
41.125857
41.124533
41.123085
41.121523
41.119856
41.118094
41.116244
41.114312
41.112306
41.110232
41.108095
41.105902
41.103661
41.101379
41.099063
41.096718
41.094353
41.091971
41.089579
41.087181
41.084783
41.082389
41.080004
41.077629
41.075271
41.072932
41.070614
41.068321
41.066056
41.063821
41.061617
41.059447
41.057313
41.055217
41.053159
41.051142
41.049166
41.047232
41.045341
41.043495
41.041694
41.039937
41.038226
41.036561
41.034943
41.03337
41.031845
41.030365
41.028932
41.027546
41.026205
41.02491
41.023661
41.022456
41.021296
41.020181
41.019108
41.018079
41.017093
41.016148
41.015245
41.014382
41.013559
41.012775
41.012029
41.011321
41.01065
41.010015
41.009415
41.008849
41.008317
41.007818
41.00735
41.006914
41.006507
41.00613
41.005782
41.005461
41.005166
41.004898
41.004655
41.004436
41.004241
41.004068
41.003917
41.003787
41.003677
41.003586
41.003514
41.00346
41.003423
41.003402
41.003397
41.003407
41.00343
41.003467
41.003517
41.003579
41.003652
41.003736
41.00383
41.003933
41.004046
41.004166
41.004295
41.004431
41.004574
41.004722
41.004877
41.005036
41.005199
41.005367
41.005537
41.005711
41.005887
41.006065
41.006245
41.006426
41.006609
41.006792
41.006976
41.007161
41.007345
41.007529
41.007713
41.007897
41.008079
41.00826
41.00844
41.008618
41.008795
41.00897
41.009143
41.009314
41.009483
41.009648
41.009812
41.009973
41.010131
41.010287
41.010439
41.010588
41.010734
41.010877
41.011016
41.011153
41.011285
41.011415
41.01154
41.011663
41.011781
41.011897
41.012008
41.012116
41.012221
41.012323
41.012421
41.012515
41.012606
41.012693
41.012778
41.012859
41.012937
41.013012
41.013084
41.013152
41.013217
41.013279
41.013338
41.013394
41.013447
41.013497
41.013544
41.013588
41.013629
41.013668
41.013704
41.013737
41.013769
41.013798
41.013826
41.013852
41.013876
41.013899
41.013919
41.013938
41.013956
41.013971
41.013985
41.013996
41.014005
41.014011
41.014016
41.014017
41.014017
41.014014
41.01401
41.014004
41.013998
41.013991
41.013985
41.013979
41.013974
41.013971
41.013969
41.013969
41.013969
41.013969
41.013969
41.013968
41.013964
41.013957
41.013946
41.01393
41.01391
41.013885
41.013855
41.013824
41.013789
41.013755
41.013722
41.013692
41.013669
41.013653
41.013646
41.013647
41.013656
41.013672
41.013692
41.013713
41.013733
41.013748
41.013756
41.013754
41.013741
41.013716
41.013679
)
;
    }
}


// ************************************************************************* //
