/*--------------------------------*- C++ -*----------------------------------*\
| =========                 |                                                 |
| \\      /  F ield         | OpenFOAM: The Open Source CFD Toolbox           |
|  \\    /   O peration     | Version:  2506                                  |
|   \\  /    A nd           | Website:  www.openfoam.com                      |
|    \\/     M anipulation  |                                                 |
\*---------------------------------------------------------------------------*/
FoamFile
{
    version     2.0;
    format      ascii;
    arch        "LSB;label=32;scalar=64";
    class       volScalarField;
    location    "6.3072e+07/rock";
    object      T;
}
// * * * * * * * * * * * * * * * * * * * * * * * * * * * * * * * * * * * * * //

dimensions      [0 0 0 1 0 0 0];

internalField   nonuniform List<scalar> 
16000
(
317.7498
306.98425
301.16588
297.54133
295.07967
293.30805
291.97869
290.94909
290.13155
289.46918
288.92349
288.46759
288.08212
287.75283
287.46899
287.22241
287.00671
286.81687
286.64888
286.4995
286.36611
286.24653
286.13897
286.04192
285.95413
285.87452
285.80219
285.73633
285.67627
285.62142
285.57125
285.52529
285.48312
285.44435
285.40858
285.37545
285.34453
285.31534
285.28722
285.25908
320.43498
309.71077
303.50004
299.515
296.76815
294.7744
293.27024
292.10093
291.16997
290.41417
289.79055
289.26889
288.82738
288.4499
288.12431
287.84129
287.5936
287.3755
287.18244
287.01071
286.85732
286.71978
286.59603
286.48437
286.38333
286.29171
286.20843
286.13261
286.06347
286.00031
285.94255
285.88963
285.84109
285.79646
285.75531
285.71722
285.68173
285.64832
285.61634
285.5849
321.97008
311.71953
305.42586
301.24426
298.30093
296.13612
294.48837
293.19942
292.16848
291.3286
290.63371
290.05118
289.55729
289.13442
288.76922
288.45146
288.17311
287.92785
287.71059
287.51724
287.34444
287.18943
287.04992
286.92399
286.81001
286.70662
286.61263
286.52705
286.44898
286.37768
286.31246
286.25272
286.19792
286.14756
286.10117
286.05828
286.01842
285.98105
285.94558
285.91133
322.95401
313.23084
307.01039
302.74712
299.68068
297.3912
295.62987
294.2413
293.12416
292.20993
291.45084
290.81266
290.27032
289.80506
289.40261
289.05195
288.74443
288.47318
288.2327
288.01852
287.82697
287.65505
287.50024
287.36043
287.23385
287.11898
287.01453
286.91939
286.8326
286.75332
286.6808
286.61438
286.55347
286.49752
286.44603
286.3985
286.35444
286.31334
286.27467
286.23789
323.64568
314.4026
308.32347
304.0515
300.91753
298.54242
296.69456
295.22527
294.03536
293.05651
292.24037
291.55191
290.96521
290.46074
290.02352
289.64193
289.30682
289.01087
288.7482
288.51405
288.30448
288.11624
287.94663
287.79337
287.65455
287.52851
287.41388
287.30943
287.21412
287.12704
287.04739
286.97445
286.90758
286.84619
286.78974
286.73773
286.68965
286.64501
286.60334
286.56419
324.16666
315.33911
309.42467
305.18718
302.02538
299.59578
297.68461
296.15167
294.90156
293.86744
293.0013
292.26794
291.64103
291.10058
290.63116
290.22069
289.85963
289.54032
289.25659
289.00338
288.77654
288.57262
288.38875
288.22251
288.07183
287.93497
287.81044
287.69693
287.59334
287.49867
287.41206
287.33276
287.26008
287.1934
287.13215
287.07581
287.02386
286.97585
286.93134
286.88993
324.57922
316.10829
310.36079
306.18173
303.01926
300.55906
298.60377
297.02207
295.72319
294.64255
293.73315
292.96012
292.29712
291.72394
291.22491
290.78765
290.40234
290.06106
289.7574
289.48609
289.24278
289.02386
288.8263
288.64755
288.48544
288.33811
288.20399
288.0817
287.97006
287.86801
287.77465
287.68916
287.61084
287.53902
287.47311
287.41258
287.35692
287.30567
287.25843
287.21483
324.91805
316.7549
311.16743
307.0589
303.91373
301.44072
299.45674
297.83893
296.50138
295.38222
294.43588
293.62819
292.93307
292.33037
291.8043
291.34235
290.9345
290.57268
290.25026
289.96182
289.70287
289.46964
289.25898
289.06823
288.89512
288.73771
288.59433
288.46354
288.34409
288.23489
288.13497
288.04349
287.95968
287.88288
287.81246
287.74788
287.68864
287.63428
287.5844
287.53868
325.20403
317.30915
311.87137
307.83843
304.72205
302.2492
300.24868
298.60528
297.23781
296.08729
295.10983
294.27217
293.54874
292.9196
292.36901
291.88444
291.45578
291.07482
290.73484
290.43028
290.15652
289.9097
289.68655
289.48433
289.30066
289.13355
288.98125
288.84226
288.71527
288.59915
288.49288
288.39558
288.30646
288.22483
288.15005
288.08156
288.01885
287.96148
287.90905
287.86125
325.45049
317.79201
312.4928
308.53647
305.45592
302.99246
300.98481
299.32443
297.93453
296.75896
295.75561
294.89232
294.14416
293.49153
292.91888
292.41371
291.96592
291.56724
291.21088
290.89119
290.60348
290.34379
290.10878
289.89561
289.70186
289.52545
289.36458
289.21769
289.08343
288.96062
288.84821
288.74529
288.65104
288.56473
288.48573
288.41346
288.3474
288.28711
288.2322
288.18237
325.66645
318.21841
313.04705
309.16608
306.12539
303.67782
301.67022
299.9998
298.59377
297.39864
296.37409
295.48914
294.71956
294.04623
293.45383
292.93003
292.46474
292.04973
291.67817
291.34436
291.04354
290.77171
290.52546
290.3019
290.09853
289.91322
289.74414
289.58966
289.44841
289.31916
289.20083
289.09248
288.99326
288.90244
288.81936
288.74342
288.67412
288.611
288.55368
288.50185
325.85826
318.59929
313.54589
309.73783
306.73907
304.31182
302.30969
300.63479
299.21785
298.00788
296.96629
296.06323
295.2753
294.58386
293.97393
293.43335
292.95217
292.52218
292.13656
291.78961
291.47654
291.1933
290.93644
290.70301
290.4905
290.29671
290.11977
289.95804
289.81007
289.67462
289.55059
289.437
289.333
289.23782
289.15079
289.07131
288.99887
288.933
288.87333
288.81953
326.03052
318.94284
313.99848
310.2603
307.30421
304.90023
302.90761
301.23264
299.80913
298.58835
297.53332
296.61537
295.81186
295.10471
294.4793
293.92373
293.42816
292.9845
292.58594
292.22682
291.90233
291.6084
291.34155
291.09881
290.87763
290.67578
290.49135
290.32266
290.16827
290.02687
289.89736
289.77873
289.67011
289.57073
289.47988
289.39699
289.3215
289.25297
289.191
289.13526
326.18669
319.25531
314.41204
310.74049
307.82698
305.44815
303.468
301.79641
300.36988
299.1417
298.07639
297.14636
296.32979
295.60913
294.97018
294.40127
293.89277
293.43667
293.02627
292.65592
292.32082
292.0169
291.74069
291.48918
291.25979
291.05029
290.85874
290.68343
290.52288
290.37579
290.24102
290.11755
290.00449
289.90104
289.80653
289.72032
289.64188
289.57076
289.50654
289.44891
326.32943
319.54158
314.79231
311.18413
308.31256
305.95998
303.99447
302.32895
300.90228
299.66957
298.5967
297.6571
296.82972
296.09757
295.44684
294.86615
294.34608
293.87874
293.45753
293.07685
292.73193
292.41873
292.13375
291.874
291.63688
291.42014
291.22182
291.04021
290.87379
290.72126
290.58145
290.45333
290.336
290.22866
290.13059
290.04118
289.95989
289.88625
289.81984
289.76034
326.46081
319.80552
315.14396
311.59596
308.76537
306.4396
304.49024
302.83287
301.40841
300.17357
299.09546
298.1485
297.31231
296.57049
295.9096
295.31858
294.78822
294.31077
293.87974
293.4896
293.13563
292.81381
292.52066
292.25319
292.0088
291.78523
291.58051
291.39291
291.22091
291.06318
290.91855
290.78598
290.66455
290.55345
290.45196
290.35947
290.27541
290.19931
290.13077
290.06943
326.58247
320.05023
315.47074
311.97992
309.18916
306.89036
304.9582
303.31057
301.8902
300.65523
299.57389
298.62145
297.77826
297.0284
296.35885
295.75883
295.21936
294.73287
294.29296
293.89419
293.53191
293.20212
292.90138
292.6267
292.37549
292.14548
291.93471
291.74143
291.56412
291.40145
291.25222
291.11538
290.99002
290.87531
290.77054
290.67506
290.58832
290.50984
290.43921
290.37607
326.69574
320.27822
315.7758
312.33931
309.58712
307.31517
305.40089
303.7642
302.34945
301.116
300.03312
299.07688
298.22826
297.47183
296.79497
296.18718
295.63971
295.14516
294.69726
294.29066
293.92077
293.58364
293.27587
292.99447
292.73688
292.50083
292.28435
292.0857
291.90336
291.73598
291.58236
291.44146
291.31233
291.19416
291.08622
290.98786
290.89853
290.81774
290.74506
290.68015
326.80169
320.49158
316.06171
312.67692
309.962
307.71659
305.82059
304.19575
302.78779
301.55724
300.47426
299.51567
298.663
297.90133
297.21837
296.60395
296.0495
295.54782
295.09276
294.67908
294.30225
293.95838
293.6441
293.35647
293.09292
292.85121
292.62937
292.42566
292.23855
292.0667
291.90891
291.76412
291.63139
291.5099
291.39891
291.29778
291.20594
291.12289
291.04823
290.98157
326.90122
320.69203
316.33066
312.99509
310.31614
308.09685
306.21933
304.60697
303.20677
301.98024
300.89839
299.93867
299.08319
298.31744
297.62949
297.00945
296.44897
295.94102
295.47959
295.05952
294.6764
294.32636
294.0061
293.71269
293.4436
293.19659
292.96971
292.76123
292.56963
292.39354
292.23178
292.08329
291.94712
291.82245
291.70853
291.60472
291.51046
291.42523
291.34861
291.28024
326.99507
320.881
316.58448
313.29586
310.6516
308.45789
306.5989
304.99948
303.60777
302.38619
301.30648
300.34671
299.48948
298.7207
298.02876
297.40403
296.83839
296.32496
295.85788
295.4321
295.04328
294.68762
294.36186
294.06312
293.78888
293.53694
293.30535
293.09239
292.89653
292.71644
292.55092
292.3989
292.25945
292.13173
292.015
291.90862
291.812
291.72466
291.64614
291.57608
327.08385
321.05973
316.82474
313.58094
310.97013
308.80143
306.96089
305.37472
303.99206
302.77618
301.69948
300.74058
299.88254
299.11164
298.4166
297.78802
297.21801
296.69985
296.2278
295.79693
295.40297
295.04222
294.71143
294.40777
294.12878
293.87224
293.63625
293.41908
293.21923
293.03535
292.86626
292.71089
292.56831
292.43768
292.31826
292.20939
292.11051
292.0211
291.94073
291.86902
327.16808
321.22924
317.05276
313.85184
311.27328
309.12898
307.30673
305.73398
304.36082
303.15124
302.07826
301.12102
300.26298
299.49078
298.79343
298.16178
297.58812
297.0659
296.58951
296.15414
295.75558
295.3902
295.05483
294.74667
294.46328
294.20248
293.96238
293.74128
293.53767
293.35022
293.17775
293.01921
292.87364
292.74023
292.61823
292.50698
292.4059
292.3145
292.23232
292.15898
327.24821
321.39043
317.26972
314.10985
311.5624
309.44187
307.6377
306.07846
304.7151
303.51232
302.44366
301.48874
300.63142
299.85864
299.15969
298.52565
297.949
297.42334
296.9432
296.50385
296.10119
295.73166
295.39213
295.07985
294.7924
294.52767
294.28374
294.05896
293.85183
293.66102
293.48537
293.3238
293.17541
293.03934
292.91486
292.80131
292.69812
292.60478
292.52083
292.4459
327.32461
321.54406
317.4766
314.3561
311.83867
309.74129
307.95492
306.4092
305.05588
303.86027
302.79644
301.84441
300.98841
300.21568
299.51577
298.87997
298.30092
297.7724
297.28903
296.84622
296.43993
296.06667
295.72337
295.40733
295.11618
294.8478
294.60033
294.37212
294.16169
293.96773
293.78906
293.62464
293.47355
293.33495
293.2081
293.09235
292.98711
292.89189
292.80622
292.72973
327.39762
321.6908
317.67429
314.59159
312.10315
310.02828
308.25941
306.72717
305.38404
304.1959
303.1373
302.18866
301.33451
300.56239
299.86208
299.22506
298.64417
298.11329
297.62721
297.18139
296.77191
296.39532
296.04863
295.72918
295.43463
295.1629
294.91215
294.68075
294.46724
294.27031
294.0888
293.92169
293.76804
293.62702
293.4979
293.38003
293.27283
293.17578
293.08844
293.0104
327.46751
321.83122
317.86354
314.81718
312.35675
310.30379
308.5521
307.03324
305.70039
304.51996
303.46692
302.52207
301.67023
300.89921
300.19899
299.56126
298.97901
298.44626
297.95791
297.50952
297.09724
296.71772
296.36799
296.04545
295.7478
295.47299
295.21921
294.98485
294.76846
294.56875
294.38458
294.21491
294.05883
293.91552
293.78424
293.66433
293.55523
293.45641
293.36743
293.28789
327.53454
321.96585
318.04503
315.03366
312.60031
310.56866
308.8338
307.3282
306.00567
304.83311
303.78592
302.84519
301.99606
301.22656
300.52688
299.88889
299.30572
298.77153
298.28132
297.83076
297.41607
297.03395
296.68151
296.35619
296.05572
295.7781
295.52153
295.28442
295.06536
294.86305
294.67637
294.5043
294.34592
294.20042
294.06706
293.9452
293.83427
293.73373
293.64316
293.56214
327.59891
322.09512
318.21935
315.24171
312.83455
310.82362
309.10527
307.61277
306.30055
305.13599
304.09485
303.15854
302.31245
301.54484
300.8461
300.20824
299.62456
299.08932
298.59764
298.14527
297.72851
297.34413
296.98929
296.66147
296.35846
296.07826
295.81913
295.57949
295.35793
295.1532
294.96417
294.78983
294.62927
294.48169
294.34635
294.22262
294.10992
294.00772
293.91559
293.83312
327.66084
322.21944
318.38704
315.44193
313.06014
311.06937
309.36716
307.8876
306.58566
305.42918
304.39426
303.46261
302.61985
301.85445
301.15698
300.51962
299.93578
299.39985
298.90705
298.4532
298.0347
297.64836
297.29141
296.96137
296.65605
296.37352
296.11204
295.87006
295.6462
295.4392
295.24796
295.07148
294.90887
294.75931
294.62209
294.49656
294.38215
294.27835
294.1847
294.1008
327.72048
322.33915
318.54856
315.63487
313.27766
311.30651
309.6201
308.15327
306.86157
305.71321
304.68465
303.75784
302.91866
302.15575
301.45986
300.82331
300.23963
299.70334
299.20973
298.75472
298.33476
297.94676
297.58796
297.25594
296.94857
296.66392
296.4003
296.15617
295.93016
295.72106
295.52776
295.34927
295.18471
295.03327
294.89425
294.76699
294.65094
294.54558
294.45045
294.36516
327.778
322.45459
318.70434
315.82103
313.48765
311.53558
309.86463
308.41034
307.12879
305.98858
304.96646
304.04466
303.20926
302.44909
301.75504
301.11958
300.53635
299.99999
299.50586
299.04997
298.62884
298.23942
297.87903
297.54528
297.23607
296.94951
296.68393
296.43783
296.20985
295.99879
295.80356
295.62318
295.45678
295.30356
295.16282
295.03391
294.91628
294.8094
294.71284
294.62617
327.83354
322.56603
318.85476
316.00085
313.69058
311.7571
310.10126
308.6593
307.3878
306.25573
305.24013
304.32347
303.49202
302.73479
302.04282
301.40869
300.82619
300.29001
299.79562
299.33911
298.91706
298.52647
298.16472
297.82945
297.51861
297.23034
296.96299
296.71507
296.48528
296.2724
296.07537
295.89322
295.72508
295.57017
295.42779
295.29731
295.17815
295.06981
294.97184
294.88383
327.88721
322.67373
319.00016
316.17472
313.88689
311.97151
310.33044
308.90061
307.63904
306.51509
305.50605
304.59462
303.76727
303.01316
302.32347
301.69091
301.10934
300.57359
300.07919
299.62229
299.19955
298.80802
298.44512
298.10854
297.79626
297.50646
297.2375
296.98795
296.75647
296.54191
296.3432
296.15939
295.98962
295.83311
295.68917
295.55716
295.43653
295.32678
295.22744
295.13811
327.93914
322.77792
319.14084
316.34301
314.07698
312.17923
310.5526
309.13468
307.88293
306.76704
305.76459
304.85848
304.03534
303.2845
302.59727
301.96646
301.38605
300.85093
300.35673
299.89966
299.47644
299.08418
298.72032
298.38263
298.06909
297.77793
297.50753
297.25648
297.02347
296.80735
296.60708
296.42171
296.2504
296.09237
295.94694
295.81348
295.69144
295.5803
295.47963
295.38902
327.98944
322.87882
319.2771
316.50605
314.2612
312.38063
310.76812
309.36189
308.11983
307.01196
306.0161
305.11535
304.29652
303.54908
302.86446
302.23557
301.6565
301.12221
300.62841
300.17137
299.74786
299.35505
298.99043
298.6518
298.33717
298.0448
297.77312
297.52071
297.28629
297.06874
296.86702
296.68019
296.50743
296.34796
296.20111
296.06626
295.94285
295.83039
295.72841
295.63653
328.03818
322.9766
319.40917
316.66413
314.43988
312.57605
310.97736
309.5826
308.3501
307.25017
306.26089
305.36554
304.55111
303.80717
303.12528
302.49847
301.9209
301.38761
300.89438
300.43755
300.01394
299.62075
299.25554
298.91613
298.60057
298.30715
298.03432
297.78068
297.54498
297.32611
297.12304
296.93485
296.76072
296.59989
296.45169
296.31551
296.19078
296.07703
295.97379
295.88066
328.08547
323.07146
319.53731
316.81752
314.61332
312.76583
311.18064
309.79713
308.57405
307.48199
306.49926
305.60935
304.79935
304.05901
303.37998
302.75537
302.17944
301.64731
301.15481
300.69834
300.27478
299.88139
299.51574
299.1757
298.85936
298.56503
298.29118
298.03644
297.79958
297.57949
297.37517
297.18571
297.01029
296.84818
296.69869
296.56122
296.43523
296.32023
296.21575
296.12141
328.13137
323.16354
319.66171
316.96648
314.7818
312.95023
311.37825
310.00579
308.79197
307.70771
306.7315
305.84702
305.04151
304.30484
303.62875
303.00646
302.4323
301.90146
301.40983
300.95388
300.53053
300.13707
299.77113
299.4306
299.11362
298.8185
298.54375
298.28803
298.05011
297.82891
297.62343
297.43279
297.25616
297.09283
296.94211
296.80343
296.67622
296.55999
296.45432
296.35878
328.17597
323.253
319.78259
317.11124
314.94557
313.12954
311.57047
310.20884
309.00416
307.92759
306.95786
306.07881
305.27782
304.54487
303.87181
303.25194
302.67966
302.15023
301.65961
301.2043
300.78129
300.3879
300.0218
299.68092
299.36341
299.06763
298.7921
298.5355
298.29663
298.07441
297.86786
297.67611
297.49835
297.33386
297.18198
297.04212
296.91374
296.79634
296.68949
296.59278
328.21932
323.33997
319.9001
317.252
315.10486
313.304
311.75756
310.40656
309.21085
308.14188
307.17859
306.30495
305.50851
304.77932
304.10936
303.49199
302.92168
302.39377
301.90427
301.44973
301.02717
300.63398
300.26784
299.92672
299.60881
299.31248
299.03628
298.7789
298.53917
298.31602
298.10849
297.91571
297.73689
297.5713
297.41832
297.27733
297.14781
297.02927
296.92127
296.82343
328.2615
323.42456
320.01442
317.38897
315.25988
313.47383
311.93976
310.59917
309.41229
308.35083
307.39391
306.52567
305.73377
305.00839
304.34157
303.72677
303.15853
302.63223
302.14395
301.69029
301.2683
300.87541
300.50935
300.1681
299.84989
299.55311
299.27634
299.01828
298.77778
298.55378
298.34535
298.15161
297.97179
297.80518
297.65113
297.50906
297.37845
297.25881
297.1497
297.05072
328.30255
323.5069
320.12571
317.52231
315.41084
313.63926
312.11727
310.7869
309.60871
308.55465
307.60404
306.74117
305.95381
305.23226
304.56863
303.95646
303.39036
302.86576
302.37879
301.92609
301.50478
301.11229
300.74641
300.40514
300.08673
299.7896
299.51234
299.25369
299.01251
298.78775
298.57848
298.38385
298.20309
298.0355
297.88045
297.73735
297.60568
297.48496
297.37476
297.27469
328.34254
323.58709
320.2341
317.6522
315.55791
313.80046
312.29031
310.96995
309.8003
308.75354
307.80917
306.95163
306.16882
305.4511
304.7907
304.18121
303.61731
303.09448
302.6089
302.15727
301.73671
301.34472
300.97911
300.63791
300.31939
300.022
299.74435
299.48519
299.2434
299.01794
298.80791
298.61245
298.43082
298.26231
298.10629
297.96221
297.82952
297.70776
297.5965
297.49534
328.3815
323.66522
320.33971
317.77878
315.70127
313.95764
312.45906
311.14853
309.98727
308.9477
308.0095
307.15726
306.37897
305.6651
305.00795
304.40118
303.83953
303.31854
302.83442
302.38392
301.9642
301.5728
301.20754
300.86649
300.54795
300.25038
299.97241
299.71282
299.47049
299.24442
299.03368
298.83746
298.655
298.48562
298.3287
298.18366
298.04999
297.92722
297.81493
297.71271
328.41948
323.74139
320.44268
317.90221
315.84108
314.11094
312.62371
311.32281
310.16979
309.13731
308.20521
307.35821
306.58442
305.8744
305.22052
304.61651
304.05715
303.53804
303.05545
302.60615
302.18735
301.79661
301.43178
301.09096
300.77247
300.4748
300.1966
299.93665
299.69385
299.46721
299.25584
299.05891
298.87568
298.70548
298.54768
298.40173
298.26712
298.14337
298.03006
297.9268
328.45652
323.81568
320.54311
318.02261
315.97747
314.26054
312.7844
311.49295
310.34803
309.32253
308.39646
307.55465
306.78534
306.07916
305.42856
304.82732
304.2703
303.75313
303.27212
302.82408
302.40626
302.01625
301.65192
301.3114
300.99304
300.69533
300.41696
300.15671
299.91351
299.68638
299.47442
299.27683
299.09288
298.9219
298.76328
298.61645
298.48092
298.35622
298.24193
298.13765
328.49267
323.88817
320.64112
318.14011
316.1106
314.40658
312.94131
311.65912
310.52216
309.50353
308.5834
307.74674
306.98187
306.27952
305.6322
305.03377
304.4791
303.96391
303.48453
303.03781
302.62103
302.2318
301.86804
301.52789
301.20971
300.91204
300.63355
300.37307
300.12953
299.90195
299.68946
299.49127
299.30665
299.13493
298.97552
298.82785
298.69144
298.56581
298.45056
298.34528
328.52796
323.95893
320.73678
318.25482
316.24059
314.54919
313.09456
311.82146
310.69232
309.68045
308.76619
307.93462
307.17416
306.47562
305.83158
305.23596
304.68368
304.1705
303.69279
303.24743
302.83173
302.44335
302.08021
301.74049
301.42256
301.12498
300.84644
300.58578
300.34195
300.11398
299.90102
299.70226
299.51701
299.3446
299.18443
299.03596
298.89869
298.77217
298.65597
298.54972
328.56242
324.02802
320.8302
318.36684
316.36755
314.68851
313.24431
311.98011
310.85865
309.85344
308.94496
308.11842
307.36233
306.66759
306.02683
305.43402
304.88415
304.373
303.89699
303.45304
303.03848
302.65099
302.28852
301.94928
301.63165
301.33421
301.05568
300.7949
300.55082
300.32252
300.10912
299.90985
299.72401
299.55094
299.39005
299.24081
299.10272
298.97532
298.8582
298.75099
328.59609
324.09552
320.92147
318.47629
316.4916
314.82466
313.39067
312.13521
311.02129
310.02263
309.11985
308.29828
307.54653
306.85555
306.21805
305.62806
305.08061
304.57152
304.09724
303.65473
303.24135
302.85479
302.49305
302.15433
301.83705
301.53981
301.26133
301.00047
300.7562
300.5276
300.31381
300.11407
299.92767
299.75398
299.59241
299.44243
299.30354
299.17529
299.05728
298.94912
328.62898
324.16147
321.01065
318.58325
316.61285
314.95774
313.53376
312.28687
311.18036
310.18814
309.29098
308.47432
307.72685
307.03961
306.40537
305.8182
305.27318
304.76616
304.29364
303.8526
303.44042
303.05484
302.69386
302.35571
302.03883
301.74183
301.46344
301.20255
300.95814
300.72928
300.51514
300.31497
300.12806
299.95378
299.79155
299.64086
299.50119
299.37212
299.25323
299.14415
328.66114
324.22594
321.09783
318.68782
316.73139
315.08787
313.67369
312.43521
311.33598
310.35009
309.45847
308.64665
307.90343
307.2199
306.5889
306.00454
305.46194
304.95701
304.48627
304.04672
303.63578
303.25121
302.89103
302.55349
302.23705
301.94033
301.66208
301.4012
301.15668
300.9276
300.71316
300.51258
300.32519
300.15036
299.98751
299.83612
299.69571
299.56584
299.44609
299.3361
328.69259
324.28898
321.18307
318.79007
316.84732
315.21515
313.81058
312.58035
311.48826
310.5086
309.62243
308.8154
308.07637
307.39652
306.76873
306.18717
305.64701
305.14417
304.67522
304.23719
303.82752
303.44399
303.08464
302.74774
302.43177
302.13537
301.8573
301.59646
301.35187
301.12262
300.90789
300.70695
300.51911
300.34375
300.18031
300.02826
299.88713
299.75647
299.63589
299.52501
328.72335
324.35063
321.26645
318.89008
316.96073
315.33967
313.94451
312.72237
311.63731
310.66377
309.78297
308.98066
308.24578
307.56957
306.94497
306.3662
305.82846
305.32773
304.86058
304.42408
304.0157
303.63323
303.27474
302.93852
302.62306
302.32701
302.04915
301.78839
301.54376
301.31437
301.0994
300.89812
300.70986
300.53401
300.37
300.21731
300.07548
299.94407
299.82267
299.71091
328.75344
324.41095
321.34802
318.98793
317.07169
315.46152
314.07559
312.86139
311.78322
310.81571
309.94019
309.14253
308.41175
307.73914
307.11771
306.54172
306.0064
305.50777
305.04243
304.60748
304.2004
303.81902
303.46142
303.12591
302.81098
302.51531
302.23769
301.97705
301.73241
301.50291
301.28772
301.08614
300.89749
300.72117
300.55661
300.40331
300.2608
300.12865
300.00645
299.89384
328.78289
324.46997
321.42784
319.08369
317.18029
315.58078
314.20391
312.99749
311.92609
310.9645
310.09419
309.30112
308.57437
307.90534
307.28704
306.71381
306.18091
305.68438
305.22085
304.78746
304.3817
304.00143
303.64474
303.30995
302.99558
302.70032
302.42297
302.16248
301.91787
301.68827
301.47291
301.27104
301.08203
300.90526
300.74019
300.5863
300.44313
300.31025
300.18727
300.07382
328.81171
324.52774
321.50597
319.17743
317.28659
315.69754
314.32954
313.13077
312.06601
311.11025
310.24506
309.4565
308.73375
308.06824
307.45306
306.88256
306.35206
305.85763
305.39592
304.96409
304.55967
304.18052
303.82475
303.49071
303.17694
302.88211
302.60506
302.34473
302.10017
301.87052
301.65499
301.45288
301.26352
301.08633
300.92076
300.7663
300.6225
300.48892
300.36517
300.2509
328.83993
324.5843
321.58246
319.2692
317.39068
315.81187
314.45257
313.2613
312.20307
311.25303
310.39288
309.60878
308.88997
308.22794
307.61584
307.04806
306.51995
306.0276
305.56771
305.13745
304.73438
304.35636
304.00154
303.66827
303.35509
303.06072
302.78399
302.52386
302.27937
302.04969
301.83403
301.63168
301.44201
301.26442
301.09837
300.94337
300.79894
300.66468
300.54019
300.42511
328.86757
324.63968
321.65736
319.35907
317.49261
315.92384
314.57307
313.38916
312.33734
311.39293
310.53774
309.75803
309.0431
308.38452
307.77547
307.21038
306.68464
306.19437
305.7363
305.30761
304.90589
304.52901
304.17515
303.84266
303.53012
303.23622
302.95983
302.69991
302.45552
302.22583
302.01005
301.8075
301.61754
301.43957
301.27307
301.11753
300.9725
300.83757
300.71235
300.59648
328.89464
324.69392
321.73071
319.44709
317.59246
316.03353
314.69113
313.51443
312.46891
311.53003
310.67972
309.90433
309.19324
308.53805
307.93202
307.3696
306.84621
306.35801
305.90175
305.47464
305.07427
304.69855
304.34565
304.01396
303.70206
303.40866
303.13263
302.87294
302.62867
302.39898
302.18312
301.98038
301.79014
301.61182
301.44487
301.28882
301.14322
301.00764
300.8817
300.76505
328.92115
324.74705
321.80257
319.53331
317.69027
316.14099
314.80679
313.63719
312.59785
311.6644
310.8189
310.04776
309.34045
308.68862
308.08556
307.52579
307.00474
306.5186
306.06414
305.63859
305.23958
304.86502
304.5131
304.18222
303.87097
303.57808
303.30243
303.04299
302.79886
302.5692
302.35327
302.15036
301.95986
301.7812
301.61384
301.45729
301.31112
301.17491
301.04827
300.93085
328.94713
324.7991
321.87297
319.61779
317.78611
316.24629
314.92014
313.75749
312.72423
311.79612
310.95534
310.18839
309.4848
308.83629
308.23618
307.67902
307.16028
306.67619
306.22352
305.79955
305.40189
305.02849
304.67756
304.3475
304.03691
303.74455
303.46929
303.21012
302.96614
302.73653
302.52054
302.31748
302.12675
301.94776
301.78
301.62298
301.47625
301.33942
301.2121
301.09393
328.97259
324.8501
321.94196
319.70057
317.88003
316.34948
315.03124
313.87541
312.84811
311.92525
311.08912
310.3263
309.62638
308.98113
308.38393
307.82936
307.31292
306.83085
306.37997
305.95756
305.56125
305.18902
304.83908
304.50985
304.19994
303.90811
303.63325
303.37437
303.13056
302.90101
302.68498
302.48179
302.29083
302.11154
301.94339
301.78591
301.63865
301.50121
301.37322
301.25431
328.99754
324.90009
322.00957
319.78171
317.97208
316.45063
315.14014
313.99101
312.96957
312.05187
311.22031
310.46154
309.76524
309.12322
308.52889
307.97687
307.4627
306.98265
306.53354
306.11268
305.71773
305.34667
304.99772
304.66932
304.3601
304.06881
303.79437
303.53578
303.29216
303.06268
302.84663
302.64332
302.45216
302.27258
302.10406
301.94613
301.79835
301.66032
301.53167
301.41204
329.022
324.94909
322.07584
319.86124
318.06231
316.54979
315.2469
314.10435
313.08866
312.17603
311.34896
310.59419
309.90145
309.26261
308.67112
308.12163
307.60971
307.13165
306.6843
306.26499
305.87139
305.50149
305.15353
304.82597
304.51744
304.22671
303.9527
303.69442
303.45098
303.2216
303.00553
302.80213
302.61077
302.43091
302.26203
302.10367
301.95539
301.81679
301.68749
301.56716
329.04598
324.99712
322.1408
319.93921
318.15077
316.64701
315.35158
314.21549
313.20544
312.2978
311.47514
310.72431
310.03508
309.39937
308.81068
308.26368
307.75399
307.2779
306.8323
306.41452
306.02227
305.65353
305.30657
304.97986
304.67202
304.38185
304.10827
303.85031
303.60708
303.3778
303.16174
302.95824
302.76671
302.58658
302.41736
302.25858
302.10981
301.97065
301.84072
301.71969
329.06949
325.04422
322.2045
320.01565
318.23751
316.74233
315.45422
314.32447
313.31998
312.41723
311.59892
310.85195
310.16618
309.53356
308.94763
308.4031
307.8956
307.42147
306.97761
306.56135
306.17043
305.80285
305.45689
305.13102
304.82388
304.53428
304.26115
304.00351
303.7605
303.53133
303.31528
303.11171
302.92
302.73963
302.57008
302.4109
302.26165
302.12193
301.99139
301.86967
329.09254
325.09039
322.26696
320.09061
318.32257
316.83581
315.55489
314.43136
313.43232
312.53438
311.72034
310.97718
310.29481
309.66523
309.08202
308.53993
308.03461
307.56241
307.12026
306.70552
306.31593
305.94951
305.60454
305.27951
304.97308
304.68405
304.41137
304.15406
303.91128
303.68223
303.46621
303.26256
303.07071
302.8901
302.72023
302.56065
302.41093
302.27068
302.13954
302.01715
329.11515
325.13568
322.3282
320.16412
318.40598
316.9275
315.65362
314.5362
313.54251
312.6493
311.83946
311.10005
310.42103
309.79445
309.21393
308.67424
308.17106
307.70078
307.26033
306.84709
306.45882
306.09354
305.74957
305.42538
305.11965
304.8312
304.55897
304.30201
304.05946
303.83054
303.61455
303.41085
303.21885
303.03802
302.86785
302.70789
302.55771
302.41694
302.2852
302.16215
329.13733
325.18009
322.38828
320.23622
318.4878
317.01742
315.75047
314.63905
313.65062
312.76205
311.95634
311.22061
310.54488
309.92126
309.34339
308.80607
308.30501
307.83663
307.39786
306.98611
306.59914
306.23501
305.89202
305.56868
305.26366
304.97579
304.70401
304.4474
304.20508
303.97631
303.76036
303.55662
303.36448
303.18343
303.01297
302.85264
302.70202
302.56073
302.42841
302.30472
329.15908
325.22366
322.4472
320.30694
318.56805
317.10564
315.84548
314.73995
313.75668
312.87267
312.07102
311.33892
310.66644
310.04572
309.47046
308.93548
308.43652
307.97
307.53289
307.12262
306.73695
306.37396
306.03195
305.70945
305.40513
305.11784
304.84653
304.59027
304.3482
304.11957
303.90368
303.69989
303.50764
303.32638
303.15563
302.99494
302.84389
302.7021
302.56921
302.44489
329.18042
325.26639
322.505
320.37631
318.64678
317.19218
315.93868
314.83894
313.86074
312.98122
312.18356
311.45502
310.78573
310.16788
309.59519
309.06252
308.56563
308.10095
307.66549
307.25668
306.8723
306.51043
306.1694
305.84773
305.54412
305.25742
304.98657
304.73066
304.48884
304.26037
304.04453
303.84072
303.64835
303.46689
303.29587
303.13483
302.98336
302.84108
302.70764
302.58269
329.20135
325.30831
322.5617
320.44437
318.72402
317.27708
316.03014
314.93607
313.96285
313.08774
312.294
311.56897
310.90282
310.28779
309.71763
309.18724
308.69238
308.22954
307.7957
307.38833
307.00523
306.64448