/*--------------------------------*- C++ -*----------------------------------*\
| =========                 |                                                 |
| \\      /  F ield         | OpenFOAM: The Open Source CFD Toolbox           |
|  \\    /   O peration     | Version:  2506                                  |
|   \\  /    A nd           | Website:  www.openfoam.com                      |
|    \\/     M anipulation  |                                                 |
\*---------------------------------------------------------------------------*/
FoamFile
{
    version     2.0;
    format      ascii;
    arch        "LSB;label=32;scalar=64";
    class       volScalarField;
    location    "6000/water";
    object      T;
}
// * * * * * * * * * * * * * * * * * * * * * * * * * * * * * * * * * * * * * //

dimensions      [0 0 0 1 0 0 0];

internalField   nonuniform List<scalar> 
6000
(
333.15
333.15
333.15
333.15
333.15
333.15
333.15
333.15
333.15
333.15
333.15
333.14998
333.14989
333.14924
333.14253
333.15
333.15
333.15
333.15
333.15
333.15
333.15
333.15
333.15
333.15
333.14999
333.14994
333.14968
333.14815
333.13661
333.15
333.15
333.15
333.15
333.15
333.15
333.15
333.15
333.15
333.14999
333.14997
333.14987
333.14939
333.14687
333.13163
333.15
333.15
333.15
333.15
333.15
333.15
333.15
333.15
333.15
333.14999
333.14994
333.14976
333.14902
333.14545
333.12728
333.15
333.15
333.15
333.15
333.15
333.15
333.15
333.15
333.14999
333.14997
333.1499
333.14963
333.14859
333.14393
333.12336
333.15
333.15
333.15
333.15
333.15
333.15
333.15
333.15
333.14999
333.14996
333.14985
333.14947
333.14811
333.14233
333.11979
333.15
333.15
333.15
333.15
333.15
333.15
333.15
333.14999
333.14998
333.14993
333.14978
333.14929
333.14759
333.14068
333.1165
333.15
333.15
333.15
333.15
333.15
333.15
333.15
333.14999
333.14997
333.14991
333.1497
333.14908
333.14702
333.13899
333.11344
333.15
333.15
333.15
333.15
333.15
333.15
333.15
333.14999
333.14996
333.14987
333.14961
333.14886
333.14641
333.13728
333.11059
333.15
333.15
333.15
333.15
333.15
333.15
333.14999
333.14998
333.14994
333.14983
333.14951
333.14861
333.14575
333.13556
333.10792
333.15
333.15
333.15
333.15
333.15
333.15
333.14999
333.14998
333.14992
333.14978
333.1494
333.14835
333.14506
333.13383
333.10542
333.15
333.15
333.15
333.15
333.15
333.15
333.14999
333.14997
333.1499
333.14973
333.14928
333.14806
333.14433
333.13212
333.10307
333.15
333.15
333.15
333.15
333.15
333.14999
333.14998
333.14996
333.14988
333.14967
333.14915
333.14776
333.14356
333.13041
333.10087
333.15
333.15
333.15
333.15
333.15
333.14999
333.14998
333.14994
333.14985
333.14961
333.149
333.14743
333.14274
333.12873
333.09882
333.15
333.15
333.15
333.15
333.15
333.14999
333.14997
333.14993
333.14982
333.14954
333.14885
333.14708
333.14189
333.12707
333.0969
333.15
333.15
333.15
333.15
333.15
333.14999
333.14997
333.14991
333.14978
333.14946
333.14869
333.14671
333.14098
333.12545
333.09512
333.15
333.15
333.15
333.15
333.14999
333.14998
333.14996
333.1499
333.14974
333.14938
333.14851
333.14631
333.14004
333.12387
333.09347
333.15
333.15
333.15
333.15
333.14999
333.14998
333.14995
333.14988
333.1497
333.14929
333.14833
333.14588
333.13905
333.12233
333.09194
333.15
333.15
333.15
333.15
333.14999
333.14998
333.14994
333.14985
333.14965
333.14919
333.14812
333.14542
333.13802
333.12083
333.09054
333.15
333.15
333.15
333.14999
333.14999
333.14997
333.14993
333.14983
333.1496
333.14909
333.14791
333.14492
333.13695
333.1194
333.08926
333.15
333.15
333.15
333.14999
333.14999
333.14997
333.14992
333.1498
333.14955
333.14898
333.14768
333.14439
333.13585
333.11802
333.08809
333.15
333.15
333.15
333.14999
333.14998
333.14996
333.1499
333.14977
333.14949
333.14886
333.14743
333.14382
333.13472
333.1167
333.08703
333.15
333.15
333.15
333.14999
333.14998
333.14995
333.14989
333.14974
333.14942
333.14874
333.14716
333.1432
333.13358
333.11545
333.08605
333.15
333.15
333.14999
333.14999
333.14998
333.14994
333.14987
333.14971
333.14936
333.1486
333.14687
333.14255
333.13243
333.11426
333.08517
333.15
333.15
333.14999
333.14999
333.14997
333.14993
333.14985
333.14967
333.14928
333.14845
333.14655
333.14185
333.13128
333.11313
333.08437
333.15
333.15
333.14999
333.14998
333.14997
333.14992
333.14983
333.14963
333.14921
333.1483
333.14621
333.14112
333.13013
333.11206
333.08364
333.15
333.15
333.14999
333.14998
333.14996
333.14991
333.14981
333.14959
333.14912
333.14813
333.14584
333.14034
333.129
333.11105
333.08297
333.15
333.14999
333.14999
333.14998
333.14995
333.1499
333.14978
333.14954
333.14903
333.14795
333.14544
333.13953
333.1279
333.1101
333.08236
333.15
333.14999
333.14999
333.14998
333.14995
333.14989
333.14976
333.14949
333.14894
333.14775
333.14501
333.13869
333.12682
333.1092
333.0818
333.14999
333.14999
333.14999
333.14997
333.14994
333.14987
333.14973
333.14944
333.14883
333.14753
333.14454
333.13783
333.12578
333.10835
333.08129
333.14999
333.14999
333.14998
333.14997
333.14993
333.14986
333.1497
333.14938
333.14872
333.1473
333.14404
333.13695
333.12477
333.10754
333.08081
333.14999
333.14999
333.14998
333.14996
333.14992
333.14984
333.14967
333.14932
333.1486
333.14705
333.1435
333.13606
333.12379
333.10678
333.08037
333.14999
333.14999
333.14998
333.14996
333.14991
333.14982
333.14963
333.14925
333.14847
333.14677
333.14293
333.13517
333.12286
333.10606
333.07996
333.14999
333.14999
333.14998
333.14995
333.1499
333.1498
333.1496
333.14918
333.14833
333.14647
333.14233
333.13428
333.12196
333.10537
333.07958
333.14999
333.14998
333.14997
333.14995
333.14989
333.14978
333.14956
333.14911
333.14818
333.14615
333.14171
333.1334
333.1211
333.10472
333.07922
333.14999
333.14998
333.14997
333.14994
333.14988
333.14976
333.14951
333.14902
333.14801
333.1458
333.14105
333.13252
333.12027
333.1041
333.07888
333.14999
333.14998
333.14997
333.14993
333.14987
333.14973
333.14947
333.14893
333.14783
333.14542
333.14038
333.13167
333.11948
333.10351
333.07856
333.14998
333.14998
333.14996
333.14993
333.14985
333.14971
333.14942
333.14884
333.14763
333.14502
333.13968
333.13083
333.11872
333.10295
333.07826
333.14998
333.14997
333.14996
333.14992
333.14984
333.14968
333.14936
333.14873
333.14742
333.14459
333.13898
333.13001
333.11799
333.10241
333.07797
333.14998
333.14997
333.14995
333.14991
333.14982
333.14965
333.1493
333.14862
333.14719
333.14413
333.13827
333.12921
333.11729
333.10189
333.0777
333.14998
333.14997
333.14995
333.1499
333.1498
333.14961
333.14924
333.1485
333.14694
333.14365
333.13755
333.12843
333.11662
333.1014
333.07744
333.14997
333.14996
333.14994
333.14989
333.14978
333.14958
333.14917
333.14836
333.14666
333.14314
333.13683
333.12768
333.11598
333.10093
333.07719
333.14997
333.14996
333.14993
333.14988
333.14976
333.14954
333.1491
333.14822
333.14637
333.14261
333.13611
333.12694
333.11536
333.10047
333.07695
333.14997
333.14996
333.14993
333.14986
333.14974
333.1495
333.14902
333.14806
333.14606
333.14207
333.1354
333.12623
333.11476
333.10004
333.07673
333.14996
333.14995
333.14992
333.14985
333.14971
333.14945
333.14894
333.14789
333.14572
333.1415
333.13469
333.12554
333.11418
333.09962
333.07651
333.14996
333.14995
333.14991
333.14983
333.14969
333.1494
333.14884
333.14771
333.14536
333.14092
333.134
333.12488
333.11363
333.09921
333.0763
333.14995
333.14994
333.1499
333.14982
333.14966
333.14935
333.14874
333.1475
333.14498
333.14034
333.13331
333.12423
333.11309
333.09882
333.07609
333.14995
333.14993
333.14989
333.1498
333.14963
333.14929
333.14863
333.14729
333.14458
333.13974
333.13264
333.1236
333.11257
333.09844
333.0759
333.14994
333.14993
333.14988
333.14978
333.1496
333.14923
333.14851
333.14705
333.14416
333.13914
333.13198
333.12299
333.11207
333.09808
333.07571
333.14994
333.14992
333.14987
333.14976
333.14956
333.14916
333.14838
333.1468
333.14371
333.13854
333.13134
333.1224
333.11158
333.09773
333.07553
333.14993
333.14991
333.14986
333.14974
333.14952
333.14909
333.14824
333.14653
333.14326
333.13794
333.1307
333.12182
333.11111
333.09739
333.07535
333.14992
333.1499
333.14984
333.14972
333.14948
333.14901
333.14809
333.14624
333.14278
333.13734
333.13008
333.12127
333.11066
333.09706
333.07518
333.14992
333.14989
333.14983
333.14969
333.14943
333.14893
333.14793
333.14593
333.1423
333.13674
333.12948
333.12072
333.11022
333.09673
333.07502
333.14991
333.14988
333.14981
333.14967
333.14938
333.14884
333.14775
333.1456
333.1418
333.13614
333.12889
333.1202
333.10979
333.09642
333.07485
333.1499
333.14987
333.14979
333.14964
333.14933
333.14873
333.14755
333.14526
333.14129
333.13555
333.12831
333.11969
333.10937
333.09612
333.0747
333.14989
333.14986
333.14977
333.1496
333.14927
333.14863
333.14735
333.1449
333.14078
333.13497
333.12774
333.11919
333.10897
333.09582
333.07455
333.14988
333.14985
333.14975
333.14957
333.14921
333.14851
333.14712
333.14452
333.14026
333.1344
333.12719
333.1187
333.10858
333.09554
333.0744
333.14987
333.14983
333.14973
333.14953
333.14914
333.14838
333.14688
333.14412
333.13974
333.13383
333.12665
333.11823
333.10819
333.09526
333.07425
333.14986
333.14982
333.14971
333.14949
333.14907
333.14824
333.14663
333.14372
333.13922
333.13327
333.12612
333.11777
333.10782
333.09499
333.07411
333.14984
333.1498
333.14968
333.14945
333.14899
333.14809
333.14635
333.14329
333.13869
333.13272
333.1256
333.11732
333.10746
333.09472
333.07397
333.14983
333.14978
333.14966
333.1494
333.1489
333.14792
333.14607
333.14286
333.13817
333.13218
333.1251
333.11688
333.1071
333.09446
333.07384
333.14981
333.14976
333.14962
333.14935
333.1488
333.14775
333.14576
333.14242
333.13765
333.13165
333.12461
333.11645
333.10676
333.09421
333.07371
333.1498
333.14974
333.14959
333.14929
333.1487
333.14756
333.14544
333.14197
333.13713
333.13113
333.12412
333.11604
333.10642
333.09396
333.07358
333.14978
333.14972
333.14956
333.14923
333.14859
333.14735
333.14511
333.14151
333.13661
333.13061
333.12365
333.11563
333.10609
333.09372
333.07345
333.14976
333.14969
333.14952
333.14916
333.14847
333.14714
333.14476
333.14105
333.1361
333.13011
333.12319
333.11523
333.10576
333.09348
333.07333
333.14974
333.14967
333.14947
333.14909
333.14833
333.1469
333.14439
333.14059
333.13559
333.12961
333.12274
333.11484
333.10545
333.09325
333.0732
333.14972
333.14964
333.14943
333.14901
333.14819
333.14665
333.14402
333.14012
333.13509
333.12912
333.12229
333.11446
333.10514
333.09302
333.07308
333.14969
333.1496
333.14938
333.14892
333.14804
333.14639
333.14363
333.13965
333.13459
333.12864
333.12186
333.11409
333.10484
333.0928
333.07297
333.14966
333.14957
333.14932
333.14883
333.14787
333.14611
333.14324
333.13918
333.1341
333.12817
333.12143
333.11372
333.10454
333.09258
333.07285
333.14963
333.14953
333.14926
333.14872
333.14769
333.14582
333.14283
333.13871
333.13361
333.12771
333.12102
333.11336
333.10425
333.09236
333.07274
333.1496
333.14949
333.1492
333.14861
333.1475
333.14552
333.14242
333.13823
333.13313
333.12725
333.12061
333.11301
333.10396
333.09215
333.07262
333.14956
333.14944
333.14913
333.14849
333.14729
333.1452
333.142
333.13777
333.13266
333.12681
333.12021
333.11267
333.10368
333.09194
333.07251
333.14952
333.14939
333.14905
333.14836
333.14707
333.14487
333.14158
333.1373
333.13219
333.12637
333.11981
333.11233
333.10341
333.09174
333.0724
333.14948
333.14934
333.14896
333.14822
333.14684
333.14452
333.14115
333.13683
333.13173
333.12594
333.11943
333.112
333.10314
333.09154
333.07229
333.14943
333.14928
333.14887
333.14806
333.14659
333.14417
333.14072
333.13637
333.13127
333.12551
333.11905
333.11167
333.10287
333.09134
333.07218
333.14938
333.14921
333.14877
333.1479
333.14633
333.1438
333.14029
333.13591
333.13082
333.12509
333.11867
333.11135
333.10261
333.09115
333.07208
333.14933
333.14914
333.14866
333.14772
333.14605
333.14343
333.13985
333.13545
333.13038
333.12468
333.11831
333.11104
333.10236
333.09096
333.07197
333.14926
333.14906
333.14854
333.14753
333.14576
333.14305
333.13941
333.135
333.12994
333.12428
333.11794
333.11073
333.1021
333.09077
333.07187
333.1492
333.14898
333.14841
333.14732
333.14546
333.14266
333.13898
333.13455
333.12951
333.12388
333.11759
333.11042
333.10185
333.09058
333.07176
333.14912
333.14888
333.14827
333.14711
333.14514
333.14227
333.13854
333.13411
333.12908
333.12348
333.11724
333.11013
333.10161
333.0904
333.07166
333.14904
333.14878
333.14812
333.14687
333.14482
333.14187
333.1381
333.13367
333.12866
333.1231
333.1169
333.10983
333.10137
333.09021
333.07155
333.14895
333.14867
333.14796
333.14663
333.14448
333.14146
333.13767
333.13323
333.12825
333.12272
333.11656
333.10954
333.10113
333.09003
333.07145
333.14885
333.14854
333.14778
333.14637
333.14413
333.14105
333.13723
333.1328
333.12784
333.12234
333.11623
333.10926
333.1009
333.08986
333.07135
333.14874
333.14841
333.14759
333.14609
333.14378
333.14064
333.1368
333.13237
333.12743
333.12197
333.1159
333.10897
333.10067
333.08968
333.07124
333.14862
333.14827
333.14738
333.1458
333.14341
333.14022
333.13636
333.13195
333.12703
333.12161
333.11558
333.1087
333.10044
333.08951
333.07114
333.14849
333.14811
333.14716
333.1455
333.14304
333.13981
333.13593
333.13153
333.12664
333.12125
333.11526
333.10842
333.10021
333.08933
333.07104
333.14835
333.14793
333.14693
333.14519
333.14266
333.13939
333.13551
333.13111
333.12625
333.12089
333.11494
333.10815
333.09999
333.08916
333.07094
333.14819
333.14775
333.14668
333.14487
333.14227
333.13897
333.13508
333.1307
333.12586
333.12054
333.11464
333.10789
333.09977
333.08899
333.07083
333.14802
333.14754
333.14641
333.14453
333.14188
333.13855
333.13466
333.13029
333.12548
333.1202
333.11433
333.10762
333.09955
333.08882
333.07073
333.14783
333.14732
333.14613
333.14418
333.14148
333.13813
333.13424
333.12989
333.12511
333.11986
333.11403
333.10737
333.09934
333.08866
333.07063
333.14762
333.14709
333.14584
333.14382
333.14108
333.13771
333.13382
333.12949
333.12474
333.11952
333.11373
333.10711
333.09912
333.08849
333.07053
333.1474
333.14684
333.14553
333.14345
333.14067
333.13728
333.1334
333.12909
333.12437
333.11919
333.11344
333.10685
333.09891
333.08833
333.07042
333.14716
333.14656
333.1452
333.14308
333.14026
333.13686
333.13299
333.1287
333.12401
333.11886
333.11315
333.1066
333.0987
333.08816
333.07032
333.1469
333.14628
333.14486
333.14269
333.13984
333.13644
333.13258
333.12831
333.12365
333.11854
333.11286
333.10636
333.09849
333.088
333.07022
333.14662
333.14597
333.14451
333.1423
333.13943
333.13602
333.13217
333.12793
333.12329
333.11822
333.11258
333.10611
333.09829
333.08784
333.07011
333.14632
333.14564
333.14415
333.1419
333.13901
333.1356
333.13177
333.12755
333.12294
333.1179
333.11229
333.10587
333.09808
333.08768
333.07001
333.146
333.1453
333.14377
333.14149
333.13859
333.13518
333.13136
333.12717
333.1226
333.11759
333.11202
333.10562
333.09788
333.08752
333.06991
333.14566
333.14494
333.14338
333.14107
333.13816
333.13477
333.13097
333.1268
333.12225
333.11728
333.11174
333.10539
333.09768
333.08736
333.0698
333.1453
333.14456
333.14297
333.14065
333.13774
333.13435
333.13057
333.12643
333.12191
333.11697
333.11147
333.10515
333.09748
333.0872
333.0697
333.14491
333.14417
333.14256
333.14023
333.13731
333.13394
333.13017
333.12606
333.12158
333.11667
333.1112
333.10491
333.09728
333.08704
333.06959
333.14451
333.14376
333.14214
333.13979
333.13688
333.13352
333.12978
333.12569
333.12124
333.11636
333.11093
333.10468
333.09709
333.08688
333.06948
333.1441
333.14333
333.1417
333.13936
333.13646
333.13311
333.12939
333.12533
333.12091
333.11607
333.11067
333.10445
333.09689
333.08673
333.06938
333.14366
333.14289
333.14126
333.13892
333.13603
333.1327
333.12901
333.12497
333.12058
333.11577
333.1104
333.10422
333.09669
333.08657
333.06927
333.14321
333.14244
333.14081
333.13847
333.1356
333.13229
333.12862
333.12462
333.12026
333.11548
333.11014
333.10399
333.0965
333.08641
333.06916
333.14274
333.14198
333.14035
333.13802
333.13516
333.13188
333.12824
333.12426
333.11993
333.11519
333.10988
333.10377
333.09631
333.08626
333.06905
333.14226
333.1415
333.13988
333.13757
333.13473
333.13147
333.12786
333.12391
333.11961
333.1149
333.10962
333.10354
333.09611
333.0861
333.06894
333.14177
333.14101
333.1394
333.13712
333.1343
333.13107
333.12748
333.12356
333.1193
333.11461
333.10937
333.10332
333.09592
333.08594
333.06883
333.14127
333.14052
333.13893
333.13666
333.13387
333.13066
333.1271
333.12322
333.11898
333.11432
333.10912
333.10309
333.09573
333.08579
333.06872
333.14076
333.14002
333.13844
333.1362
333.13343
333.13025
333.12673
333.12287
333.11867
333.11404
333.10886
333.10287
333.09554
333.08563
333.0686
333.14024
333.13951
333.13795
333.13573
333.133
333.12985
333.12636
333.12253
333.11835
333.11376
333.10861
333.10265
333.09535
333.08547
333.06849
333.13971
333.13899
333.13746
333.13527
333.13256
333.12945
333.12598
333.12219
333.11804
333.11348
333.10836
333.10243
333.09516
333.08531
333.06838
333.13918
333.13847
333.13696
333.1348
333.13213
333.12904
333.12561
333.12185
333.11774
333.1132
333.10811
333.10221
333.09497
333.08516
333.06826
333.13865
333.13795
333.13646
333.13433
333.13169
333.12864
333.12524
333.12151
333.11743
333.11293
333.10787
333.10199
333.09478
333.085
333.06814
333.13811
333.13742
333.13596
333.13386
333.13126
333.12824
333.12487
333.12118
333.11712
333.11265
333.10762
333.10178
333.0946
333.08484
333.06802
333.13756
333.13689
333.13546
333.13339
333.13082
333.12784
333.12451
333.12084
333.11682
333.11238
333.10737
333.10156
333.09441
333.08468
333.0679
333.13702
333.13636
333.13495
333.13292
333.13039
333.12744
333.12414
333.12051
333.11652
333.1121
333.10713
333.10134
333.09422
333.08452
333.06778
333.13647
333.13583
333.13445
333.13245
333.12995
333.12704
333.12378
333.12017
333.11621
333.11183
333.10689
333.10113
333.09403
333.08436
333.06766
333.13593
333.1353
333.13394
333.13198
333.12952
333.12664
333.12341
333.11984
333.11591
333.11156
333.10664
333.10091
333.09384
333.0842
333.06754
333.13539
333.13477
333.13344
333.13151
333.12909
333.12625
333.12305
333.11951
333.11561
333.11129
333.1064
333.10069
333.09365
333.08404
333.06741
333.13484
333.13424
333.13293
333.13104
333.12865
333.12585
333.12269
333.11918
333.11532
333.11102
333.10616
333.10048
333.09346
333.08388
333.06728
333.1343
333.13371
333.13243
333.13057
333.12822
333.12546
333.12233
333.11886
333.11502
333.11075
333.10592
333.10026
333.09327
333.08372
333.06716
333.13376
333.13318
333.13193
333.1301
333.12779
333.12506
333.12197
333.11853
333.11472
333.11048
333.10567
333.10005
333.09308
333.08356
333.06702
333.13323
333.13266
333.13143
333.12964
333.12736
333.12467
333.12161
333.1182
333.11442
333.11021
333.10543
333.09983
333.09289
333.08339
333.06689
333.13269
333.13214
333.13094
333.12917
333.12693
333.12427
333.12125
333.11787
333.11413
333.10994
333.10519
333.09962
333.0927
333.08323
333.06676
333.13216
333.13162
333.13044
333.12871
333.1265
333.12388
333.12089
333.11755
333.11383
333.10968
333.10495
333.0994
333.09251
333.08306
333.06662
333.13164
333.1311
333.12995
333.12825
333.12608
333.12349
333.12054
333.11722
333.11354
333.10941
333.10471
333.09918
333.09232
333.08289
333.06649
333.13111
333.13059
333.12946
333.12779
333.12566
333.1231
333.12018
333.1169
333.11324
333.10914
333.10447
333.09897
333.09212
333.08272
333.06635
333.1306
333.13008
333.12898
333.12734
333.12523
333.12272
333.11983
333.11658
333.11295
333.10888
333.10423
333.09875
333.09193
333.08255
333.06621
333.13008
333.12958
333.12849
333.12689
333.12481
333.12233
333.11947
333.11625
333.11266
333.10861
333.10399
333.09853
333.09173
333.08238
333.06606
333.12957
333.12908
333.12801
333.12643
333.12439
333.12194
333.11912
333.11593
333.11236
333.10834
333.10374
333.09831
333.09154
333.08221
333.06592
333.12907
333.12859
333.12754
333.12599
333.12398
333.12156
333.11877
333.11561
333.11207
333.10808
333.1035
333.09809
333.09134
333.08203
333.06577
333.12857
333.12809
333.12707
333.12554
333.12356
333.12118
333.11842
333.11529
333.11178
333.10781
333.10326
333.09787
333.09114
333.08186
333.06562
333.12807
333.12761
333.1266
333.1251
333.12315
333.1208
333.11807
333.11497
333.11148
333.10754
333.10302
333.09765
333.09095
333.08168
333.06547
333.12758
333.12713
333.12614
333.12466
333.12274
333.12042
333.11772
333.11465
333.11119
333.10728
333.10277
333.09743
333.09075
333.0815
333.06531
333.12709
333.12665
333.12568
333.12423
333.12234
333.12004
333.11737
333.11433
333.1109
333.10701
333.10253
333.09721
333.09054
333.08132
333.06516
333.12661
333.12617
333.12522
333.12379
333.12193
333.11967
333.11703
333.11402
333.11061
333.10674
333.10229
333.09699
333.09034
333.08113
333.065
333.12614
333.12571
333.12477
333.12337
333.12153
333.1193
333.11668
333.1137
333.11032
333.10648
333.10204
333.09677
333.09014
333.08095
333.06483
333.12566
333.12524
333.12432
333.12294
333.12113
333.11892
333.11634
333.11338
333.11003
333.10621
333.1018
333.09654
333.08993
333.08076
333.06467
333.1252
333.12478
333.12388
333.12252
333.12073
333.11856
333.116
333.11307
333.10974
333.10594
333.10155
333.09632
333.08973
333.08058
333.06451
333.12474
333.12433
333.12344
333.1221
333.12034
333.11819
333.11566
333.11275
333.10945
333.10568
333.10131
333.09609
333.08952
333.08039
333.06434
333.12428
333.12388
333.123
333.12168
333.11995
333.11782
333.11532
333.11244
333.10916
333.10541
333.10106
333.09586
333.08931
333.0802
333.06417
333.12383
333.12343
333.12257
333.12127
333.11956
333.11746
333.11498
333.11213
333.10887
333.10514
333.10081
333.09564
333.0891
333.08
333.06399
333.12338
333.12299
333.12214
333.12086
333.11917
333.1171
333.11464
333.11182
333.10858
333.10488
333.10057
333.09541
333.08889
333.07981
333.06382
333.12294
333.12255
333.12172
333.12046
333.11879
333.11674
333.11431
333.1115
333.10829
333.10461
333.10032
333.09518
333.08868
333.07961
333.06364
333.1225
333.12212
333.1213
333.12005
333.11841
333.11638
333.11398
333.11119
333.108
333.10434
333.10007
333.09495
333.08846
333.07941
333.06346
333.12206
333.12169
333.12088
333.11966
333.11803
333.11602
333.11364
333.11088
333.10772
333.10407
333.09982
333.09472
333.08825
333.07921
333.06327
333.12164
333.12127
333.12047
333.11926
333.11766
333.11567
333.11331
333.11058
333.10743
333.10381
333.09957
333.09448
333.08803
333.07901
333.06309
333.12121
333.12085
333.12006
333.11887
333.11728
333.11532
333.11298
333.11027
333.10714
333.10354
333.09932
333.09425
333.08781
333.0788
333.0629
333.12079
333.12044
333.11966
333.11848
333.11691
333.11497
333.11266
333.10996
333.10686
333.10327
333.09907
333.09401
333.08759
333.0786
333.06271
333.12037
333.12003
333.11926
333.11809
333.11655
333.11462
333.11233
333.10965
333.10657
333.103
333.09882
333.09378
333.08737
333.07839
333.06252
333.11996
333.11962
333.11886
333.11771
333.11618
333.11428
333.112
333.10935
333.10628
333.10273
333.09857
333.09354
333.08715
333.07818
333.06232
333.11956
333.11922
333.11847
333.11733
333.11582
333.11393
333.11168
333.10905
333.106
333.10247
333.09832
333.09331
333.08692
333.07797
333.06213
333.11915
333.11882
333.11808
333.11696
333.11546
333.11359
333.11136
333.10874
333.10571
333.1022
333.09807
333.09307
333.0867
333.07776
333.06193
333.11875
333.11842
333.11769
333.11658
333.1151
333.11325
333.11104
333.10844
333.10543
333.10193
333.09781
333.09283
333.08647
333.07754
333.06172
333.11836
333.11803
333.11731
333.11621
333.11475
333.11291
333.11072
333.10814
333.10514
333.10166
333.09756
333.09259
333.08624
333.07732
333.06152
333.11797
333.11764
333.11693
333.11585
333.11439
333.11258
333.1104
333.10784
333.10486
333.10139
333.0973
333.09235
333.08601
333.07711
333.06131
333.11758
333.11726
333.11655
333.11548
333.11404
333.11225
333.11008
333.10754
333.10457
333.10112
333.09705
333.0921
333.08578
333.07688
333.06111
333.11719
333.11688
333.11618
333.11512
333.1137
333.11191
333.10977
333.10724
333.10429
333.10085
333.09679
333.09186
333.08555
333.07666
333.0609
333.11681
333.1165
333.11581
333.11476
333.11335
333.11158
333.10945
333.10694
333.10401
333.10058
333.09654
333.09162
333.08531
333.07644
333.06068
333.11644
333.11613
333.11545
333.11441
333.11301
333.11126
333.10914
333.10664
333.10372
333.10032
333.09628
333.09137
333.08508
333.07621
333.06047
333.11606
333.11576
333.11508
333.11405
333.11267
333.11093
333.10883
333.10634
333.10344
333.10005
333.09602
333.09113
333.08484
333.07599
333.06025
333.11569
333.11539
333.11472
333.1137
333.11233
333.1106
333.10852
333.10605
333.10316
333.09978
333.09577
333.09088
333.08461
333.07576
333.06003
333.11533
333.11503
333.11437
333.11335
333.11199
333.11028
333.10821
333.10575
333.10288
333.09951
333.09551
333.09063
333.08437
333.07553
333.05981
333.11496
333.11467
333.11401
333.11301
333.11166
333.10996
333.1079
333.10546
333.1026
333.09924
333.09525
333.09038
333.08413
333.0753
333.05959
333.1146
333.11431
333.11366
333.11267
333.11133
333.10964
333.10759
333.10516
333.10231
333.09897
333.09499
333.09013
333.08389
333.07507
333.05937
333.11425
333.11396
333.11331
333.11233
333.111
333.10932
333.10729
333.10487
333.10203
333.0987
333.09473
333.08988
333.08365
333.07483
333.05914
333.11389
333.1136
333.11297
333.11199
333.11067
333.10901
333.10698
333.10458
333.10175
333.09843
333.09447
333.08963
333.0834
333.0746
333.05891
333.11354
333.11326
333.11262
333.11165
333.11034
333.10869
333.10668
333.10429
333.10147
333.09816
333.09421
333.08938
333.08316
333.07436
333.05869
333.11319
333.11291
333.11228
333.11132
333.11002
333.10838
333.10638
333.104
333.10119
333.09789
333.09395
333.08913
333.08291
333.07412
333.05846
333.11285
333.11257
333.11194
333.11099
333.1097
333.10807
333.10608
333.10371
333.10091
333.09762
333.09369
333.08887
333.08267
333.07388
333.05822
333.1125
333.11223
333.11161
333.11066
333.10938
333.10775
333.10578
333.10342
333.10063
333.09735
333.09343
333.08862
333.08242
333.07364
333.05799
333.11216
333.11189
333.11127
333.11033
333.10906
333.10745
333.10548
333.10313
333.10035
333.09708
333.09317
333.08837
333.08217
333.0734
333.05775
333.11183
333.11155
333.11094
333.11001
333.10874
333.10714
333.10518
333.10284
333.10008
333.09681
333.09291
333.08811
333.08192
333.07315
333.05752
333.11149
333.11122
333.11061
333.10969
333.10843
333.10683
333.10488
333.10255
333.0998
333.09654
333.09264
333.08785
333.08167
333.07291
333.05728
333.11116
333.11089
333.11029
333.10936
333.10811
333.10653
333.10459
333.10226
333.09952
333.09627
333.09238
333.0876
333.08142
333.07266
333.05704
333.11083
333.11056
333.10996
333.10905
333.1078
333.10622
333.10429
333.10198
333.09924
333.096
333.09212
333.08734
333.08117
333.07242
333.0568
333.1105
333.11023
333.10964
333.10873
333.10749
333.10592
333.104
333.10169
333.09896
333.09573
333.09185
333.08708
333.08092
333.07217
333.05656
333.11017
333.10991
333.10932
333.10841
333.10718
333.10562
333.1037
333.10141
333.09868
333.09546
333.09159
333.08682
333.08066
333.07192
333.05632
333.10985
333.10959
333.109
333.1081
333.10688
333.10532
333.10341
333.10112
333.09841
333.09519
333.09132
333.08657
333.08041
333.07167
333.05607
333.10953
333.10927
333.10868
333.10779
333.10657
333.10502
333.10312
333.10084
333.09813
333.09492
333.09106
333.08631
333.08015
333.07142
333.05583
333.10921
333.10895
333.10837
333.10748
333.10627
333.10472
333.10283
333.10055
333.09785
333.09464
333.09079
333.08604
333.0799
333.07117
333.05558
333.10889
333.10863
333.10806
333.10717
333.10596
333.10443
333.10254
333.10027
333.09757
333.09437
333.09053
333.08578
333.07964
333.07092
333.05533
333.10858
333.10832
333.10774
333.10686
333.10566
333.10413
333.10225
333.09999
333.0973
333.0941
333.09026
333.08552
333.07939
333.07067
333.05508
333.10826
333.108
333.10743
333.10656
333.10536
333.10383
333.10196
333.0997
333.09702
333.09383
333.08999
333.08526
333.07913
333.07041
333.05483
333.10795
333.10769
333.10713
333.10625
333.10506
333.10354
333.10167
333.09942
333.09674
333.09356
333.08973
333.085
333.07887
333.07016
333.05458
333.10764
333.10738
333.10682
333.10595
333.10476
333.10325
333.10138
333.09914
333.09647
333.09329
333.08946
333.08474
333.07861
333.0699
333.05433
333.10733
333.10708
333.10651
333.10565
333.10447
333.10296
333.1011
333.09886
333.09619
333.09302
333.08919
333.08447
333.07835
333.06964
333.05408
333.10702
333.10677
333.10621
333.10535
333.10417
333.10266
333.10081
333.09858
333.09592
333.09275
333.08893
333.08421
333.07809
333.06939
333.05383
333.10672
333.10647
333.10591
333.10505
333.10387
333.10237
333.10053
333.0983
333.09564
333.09247
333.08866
333.08394
333.07783
333.06913
333.05357
333.10641
333.10616
333.10561
333.10475
333.10358
333.10208
333.10024
333.09802
333.09536
333.0922
333.08839
333.08368
333.07757
333.06887
333.05332
333.10611
333.10586
333.10531
333.10445
333.10329
333.1018
333.09996
333.09774
333.09509
333.09193
333.08812
333.08341
333.07731
333.06861
333.05306
333.10581
333.10556
333.10501
333.10416
333.103
333.10151
333.09967
333.09746
333.09481
333.09166
333.08785
333.08315
333.07704
333.06835
333.0528
333.10551
333.10526
333.10471
333.10386
333.10271
333.10122
333.09939
333.09718
333.09454
333.09139
333.08759
333.08288
333.07678
333.06809
333.05255
333.10521
333.10497
333.10442
333.10357
333.10241
333.10093
333.09911
333.0969
333.09426
333.09111
333.08732
333.08262
333.07652
333.06783
333.05229
333.10491
333.10467
333.10412
333.10328
333.10213
333.10065
333.09882
333.09662
333.09399
333.09084
333.08705
333.08235
333.07625
333.06757
333.05203
333.10462
333.10437
333.10383
333.10299
333.10184
333.10036
333.09854
333.09634
333.09371
333.09057
333.08678
333.08208
333.07599
333.06731
333.05177
333.10432
333.10408
333.10354
333.1027
333.10155
333.10008
333.09826
333.09606
333.09344
333.0903
333.08651
333.08182
333.07572
333.06705
333.05151
333.10403
333.10379
333.10324
333.10241
333.10126
333.09979
333.09798
333.09579
333.09316
333.09003
333.08624
333.08155
333.07546
333.06678
333.05125
333.10374
333.10349
333.10295
333.10212
333.10098
333.09951
333.0977
333.09551
333.09289
333.08975
333.08597